<event>
 5    1  0.1490736E-003  0.6506833E+02  0.7818608E-02  0.1377715E+00
         11   -1    0    0    0    0  0.00000000000E+00  0.00000000000E+00  0.10000496851E+04  0.10000496851E+04  0.51100000000E-03 0.  1.
          4   -1    0    0  501    0 -0.00000000000E+00 -0.00000000000E+00 -0.13066524314E+02  0.13143456838E+02  0.14200000000E+01 0.  1.
         11    1    1    2    0    0  0.38499651758E+02 -0.48994638217E+02  0.10508688105E+03  0.12217180660E+03  0.51100000000E-03 0.  1.
         22    1    1    2    0    0 -0.14929701079E+02 -0.34807669503E+02  0.19645140697E+03  0.20006905091E+03  0.00000000000E+00 0.  1.
          4    1    1    2  501    0 -0.23569950679E+02  0.83802307720E+02  0.68544487273E+03  0.69095228439E+03  0.14200000000E+01 0.  1.
<mgrwt>
<rscale>  0 0.65068329E+02</rscale>
<asrwt>0</asrwt>
<pdfrwt beam="1">  1       11 0.10000000E+01 0.37874395E+02</pdfrwt>
<pdfrwt beam="2">  1        4 0.20163301E-02 0.65068329E+02</pdfrwt>
<totfact> 0.34280232E+03</totfact>
</mgrwt>
</event>
<event>
 5    1  0.1490736E-003  0.1809503E+03  0.7818608E-02  0.1166886E+00
         11   -1    0    0    0    0  0.00000000000E+00  0.00000000000E+00  0.10003127173E+04  0.10003127173E+04  0.51100000000E-03 0.  1.
         -4   -1    0    0    0  501 -0.00000000000E+00 -0.00000000000E+00 -0.12937712353E+03  0.12938491602E+03  0.14200000000E+01 0. -1.
         11    1    1    2    0    0  0.12383588708E+03  0.11985701281E+03  0.75990641640E+03  0.77920394771E+03  0.51100000000E-03 0.  1.
         22    1    1    2    0    0 -0.20946455149E+02  0.30298662261E+02  0.15821586469E+03  0.16244698446E+03  0.00000000000E+00 0. -1.
         -4    1    1    2    0  501 -0.10288943193E+03 -0.15015567507E+03 -0.47186687321E+02  0.18804670116E+03  0.14200000000E+01 0. -1.
<mgrwt>
<rscale>  0 0.18095032E+03</rscale>
<asrwt>0</asrwt>
<pdfrwt beam="1">  1       11 0.10000000E+01 0.36834263E+02</pdfrwt>
<pdfrwt beam="2">  1       -4 0.19911074E-01 0.18095032E+03</pdfrwt>
<totfact> 0.95090992E+01</totfact>
</mgrwt>
</event>
<event>
 5    1  0.1490736E-003  0.1213347E+03  0.7818608E-02  0.1244456E+00
         11   -1    0    0    0    0  0.00000000000E+00  0.00000000000E+00  0.10002377347E+04  0.10002377347E+04  0.51100000000E-03 0. -1.
          4   -1    0    0  501    0 -0.00000000000E+00 -0.00000000000E+00 -0.16496816568E+02  0.16557818603E+02  0.14200000000E+01 0. -1.
         11    1    1    2    0    0  0.95494078661E+02  0.24990661078E+02  0.59017443286E+03  0.59837238690E+03  0.51100000000E-03 0. -1.
         22    1    1    2    0    0  0.21255452509E+02 -0.10874201060E+01  0.85441366741E+02  0.88052279326E+02  0.00000000000E+00 0. -1.
          4    1    1    2  501    0 -0.11674953117E+03 -0.23903240972E+02  0.30812511849E+03  0.33037088704E+03  0.14200000000E+01 0. -1.
<mgrwt>
<rscale>  0 0.11917984E+03</rscale>
<asrwt>0</asrwt>
<pdfrwt beam="1">  1       11 0.10000000E+01 0.12133472E+03</pdfrwt>
<pdfrwt beam="2">  1        4 0.25433462E-02 0.11917984E+03</pdfrwt>
<totfact> 0.27181077E+03</totfact>
</mgrwt>
</event>
<event>
 5    1  0.1490736E-003  0.5365034E+02  0.7818608E-02  0.1452429E+00
         11   -1    0    0    0    0  0.00000000000E+00  0.00000000000E+00  0.99966544738E+03  0.99966544738E+03  0.51100000000E-03 0.  1.
          4   -1    0    0  501    0 -0.00000000000E+00 -0.00000000000E+00 -0.42038404544E+01  0.44371921940E+01  0.14200000000E+01 0.  1.
         11    1    1    2    0    0 -0.99156690900E+01 -0.11589154191E+02  0.28014337947E+02  0.31897211779E+02  0.51100000000E-03 0.  1.
         22    1    1    2    0    0 -0.23784798753E+02 -0.23551661190E+02  0.16953258965E+03  0.17280537130E+03  0.00000000000E+00 0.  1.
          4    1    1    2  501    0  0.33700467843E+02  0.35140815381E+02  0.79791467932E+03  0.79940005649E+03  0.14200000000E+01 0.  1.
<mgrwt>
<rscale>  0 0.48709494E+02</rscale>
<asrwt>0</asrwt>
<pdfrwt beam="1">  1       11 0.10000000E+01 0.53650339E+02</pdfrwt>
<pdfrwt beam="2">  1        4 0.66454998E-03 0.48709494E+02</pdfrwt>
<totfact> 0.16486113E+04</totfact>
</mgrwt>
</event>
<event>
 5    1  0.1490736E-003  0.9187815E+02  0.7818608E-02  0.1306274E+00
         11   -1    0    0    0    0  0.00000000000E+00  0.00000000000E+00  0.10005376226E+04  0.10005376226E+04  0.51100000000E-03 0.  1.
          4   -1    0    0  501    0 -0.00000000000E+00 -0.00000000000E+00 -0.10553228781E+02  0.10648334973E+02  0.14200000000E+01 0.  1.
         11    1    1    2    0    0  0.31116353206E+02  0.68568337373E+02  0.18982696812E+03  0.20421587145E+03  0.51100000000E-03 0.  1.
         22    1    1    2    0    0  0.10491522664E+02  0.96428111958E+01  0.68424037708E+02  0.69892093915E+02  0.00000000000E+00 0. -1.
          4    1    1    2  501    0 -0.41607875870E+02 -0.78211148569E+02  0.73173338797E+03  0.73707799219E+03  0.14200000000E+01 0.  1.
<mgrwt>
<rscale>  0 0.88601442E+02</rscale>
<asrwt>0</asrwt>
<pdfrwt beam="1">  1       11 0.10000000E+01 0.91878151E+02</pdfrwt>
<pdfrwt beam="2">  1        4 0.16318438E-02 0.88601442E+02</pdfrwt>
<totfact> 0.50601239E+03</totfact>
</mgrwt>
</event>
<event>
 5    1  0.1490736E-003  0.1100381E+03  0.7818608E-02  0.1279525E+00
         11   -1    0    0    0    0  0.00000000000E+00  0.00000000000E+00  0.10001550673E+04  0.10001550673E+04  0.51100000000E-03 0. -1.
          4   -1    0    0  501    0 -0.00000000000E+00 -0.00000000000E+00 -0.14556783076E+02  0.14625878898E+02  0.14200000000E+01 0. -1.
         11    1    1    2    0    0 -0.66186461557E+02 -0.27998386453E+02  0.12629964928E+03  0.14531400052E+03  0.51100000000E-03 0. -1.
         22    1    1    2    0    0 -0.21831384886E+02 -0.20214245188E+02  0.13446041247E+03  0.13771284470E+03  0.00000000000E+00 0. -1.
          4    1    1    2  501    0  0.88017846443E+02  0.48212631641E+02  0.72483822247E+03  0.73175410098E+03  0.14200000000E+01 0. -1.
<mgrwt>
<rscale>  0 0.10036740E+03</rscale>
<asrwt>0</asrwt>
<pdfrwt beam="1">  1       11 0.10000000E+01 0.11003811E+03</pdfrwt>
<pdfrwt beam="2">  1        4 0.22452457E-02 0.10036740E+03</pdfrwt>
<totfact> 0.31898968E+03</totfact>
</mgrwt>
</event>
<event>
 5    1  0.1490736E-003  0.1747365E+03  0.7818608E-02  0.1174983E+00
         11   -1    0    0    0    0  0.00000000000E+00  0.00000000000E+00  0.10001936024E+04  0.10001936024E+04  0.51100000000E-03 0. -1.
          4   -1    0    0  501    0 -0.00000000000E+00 -0.00000000000E+00 -0.20131748062E+03  0.20132248856E+03  0.14200000000E+01 0. -1.
         11    1    1    2    0    0 -0.62627993312E+02  0.13844293069E+03  0.87279560809E+03  0.88592374622E+03  0.51100000000E-03 0. -1.
         22    1    1    2    0    0 -0.43783619490E+01  0.20804375524E+02  0.80871051067E+02  0.83618891377E+02  0.00000000000E+00 0. -1.
          4    1    1    2  501    0  0.67006355261E+02 -0.15924730622E+03 -0.15479053741E+03  0.23197345334E+03  0.14200000000E+01 0. -1.
<mgrwt>
<rscale>  0 0.17277608E+03</rscale>
<asrwt>0</asrwt>
<pdfrwt beam="1">  1       11 0.10000000E+01 0.17473646E+03</pdfrwt>
<pdfrwt beam="2">  1        4 0.30978378E-01 0.17277608E+03</pdfrwt>
<totfact> 0.41702190E+01</totfact>
</mgrwt>
</event>
<event>
 5    1  0.1490736E-003  0.1766878E+03  0.7818608E-02  0.1171048E+00
         11   -1    0    0    0    0  0.00000000000E+00  0.00000000000E+00  0.99996409950E+03  0.99996409950E+03  0.51100000000E-03 0.  1.
          4   -1    0    0  501    0 -0.00000000000E+00 -0.00000000000E+00 -0.70720665027E+02  0.70734919678E+02  0.14200000000E+01 0.  1.
         11    1    1    2    0    0 -0.98339807365E+02 -0.13609921517E+03  0.10294925661E+03  0.19695751704E+03  0.51100000000E-03 0.  1.
         22    1    1    2    0    0 -0.64559585076E+02 -0.49606732934E+01  0.25690993902E+03  0.26494389042E+03  0.00000000000E+00 0. -1.
          4    1    1    2  501    0  0.16289939244E+03  0.14105988846E+03  0.56938423884E+03  0.60879761171E+03  0.14200000000E+01 0.  1.
<mgrwt>
<rscale>  0 0.17668781E+03</rscale>
<asrwt>0</asrwt>
<pdfrwt beam="1">  1       11 0.10000000E+01 0.64749890E+02</pdfrwt>
<pdfrwt beam="2">  1        4 0.10880885E-01 0.17668781E+03</pdfrwt>
<totfact> 0.27378091E+02</totfact>
</mgrwt>
</event>
<event>
 5    1  0.1515476E-003  0.1661818E+03  0.7818608E-02  0.1181889E+00
         11   -1    0    0    0    0  0.00000000000E+00  0.00000000000E+00  0.99995865896E+03  0.99995865896E+03  0.51100000000E-03 0. -1.
          4   -1    0    0  501    0 -0.00000000000E+00 -0.00000000000E+00 -0.10910637828E+03  0.10911561841E+03  0.14200000000E+01 0. -1.
         11    1    1    2    0    0  0.15949511648E+03 -0.28530362678E+02  0.88887892339E+03  0.90352554707E+03  0.51100000000E-03 0. -1.
         22    1    1    2    0    0  0.58352052797E+01  0.87224309471E+01  0.34345084959E+02  0.35912606186E+02  0.00000000000E+00 0.  1.
          4    1    1    2  501    0 -0.16533032176E+03  0.19807931731E+02 -0.32371727659E+02  0.16963612411E+03  0.14200000000E+01 0. -1.
<mgrwt>
<rscale>  0 0.16618177E+03</rscale>
<asrwt>0</asrwt>
<pdfrwt beam="1">  1       11 0.10000000E+01 0.10494304E+02</pdfrwt>
<pdfrwt beam="2">  1        4 0.16785691E-01 0.16618177E+03</pdfrwt>
<totfact> 0.12803623E+02</totfact>
</mgrwt>
</event>
<event>
 5    1  0.1490736E-003  0.2526789E+03  0.7818608E-02  0.1115901E+00
         11   -1    0    0    0    0  0.00000000000E+00  0.00000000000E+00  0.10000494999E+04  0.10000494999E+04  0.51100000000E-03 0. -1.
          4   -1    0    0  501    0 -0.00000000000E+00 -0.00000000000E+00 -0.78652484215E+02  0.78665301583E+02  0.14200000000E+01 0. -1.
         11    1    1    2    0    0  0.58738408655E+02  0.17261705663E+03  0.45591639923E+03  0.49102608075E+03  0.51100000000E-03 0. -1.
         22    1    1    2    0    0  0.62909716830E+00  0.66040500030E+02  0.25677815653E+03  0.26513537123E+03  0.00000000000E+00 0. -1.
          4    1    1    2  501    0 -0.59367505823E+02 -0.23865755666E+03  0.20870245995E+03  0.32255334952E+03  0.14200000000E+01 0. -1.
<mgrwt>
<rscale>  0 0.24593484E+03</rscale>
<asrwt>0</asrwt>
<pdfrwt beam="1">  1       11 0.10000000E+01 0.25267887E+03</pdfrwt>
<pdfrwt beam="2">  1        4 0.12102044E-01 0.24593484E+03</pdfrwt>
<totfact> 0.23623989E+02</totfact>
</mgrwt>
</event>
<event>
 5    1  0.1490736E-003  0.4180895E+02  0.7818608E-02  0.1495306E+00
         11   -1    0    0    0    0  0.00000000000E+00  0.00000000000E+00  0.10002150458E+04  0.10002150458E+04  0.51100000000E-03 0. -1.
          4   -1    0    0  501    0 -0.00000000000E+00 -0.00000000000E+00 -0.75162649723E+01  0.76492247407E+01  0.14200000000E+01 0. -1.
         11    1    1    2    0    0  0.29687269182E+02 -0.46735145921E+01  0.52027855407E+02  0.60083886598E+02  0.51100000000E-03 0. -1.
         22    1    1    2    0    0  0.33450978667E+01  0.41743565527E+02  0.15551372677E+03  0.16105351333E+03  0.00000000000E+00 0.  1.
          4    1    1    2  501    0 -0.33032367049E+02 -0.37070050935E+02  0.78515719869E+03  0.78672687066E+03  0.14200000000E+01 0. -1.
<mgrwt>
<rscale>  0 0.41808947E+02</rscale>
<asrwt>0</asrwt>
<pdfrwt beam="1">  1       11 0.10000000E+01 0.30052897E+02</pdfrwt>
<pdfrwt beam="2">  1        4 0.11669045E-02 0.41808947E+02</pdfrwt>
<totfact> 0.69134422E+03</totfact>
</mgrwt>
</event>
<event>
 5    1  0.1490736E-003  0.5203746E+02  0.7818608E-02  0.1434652E+00
         11   -1    0    0    0    0  0.00000000000E+00  0.00000000000E+00  0.10003280287E+04  0.10003280287E+04  0.51100000000E-03 0. -1.
          4   -1    0    0  501    0 -0.00000000000E+00 -0.00000000000E+00 -0.75975662757E+01  0.77291275907E+01  0.14200000000E+01 0. -1.
         11    1    1    2    0    0  0.34740839289E+00  0.19084322362E+02  0.27422471560E+02  0.33411435158E+02  0.51100000000E-03 0. -1.
         22    1    1    2    0    0 -0.29207425513E+02  0.39516905005E+02  0.17883130910E+03  0.18545968996E+03  0.00000000000E+00 0. -1.
          4    1    1    2  501    0  0.28860017121E+02 -0.58601227366E+02  0.78647668175E+03  0.78918603116E+03  0.14200000000E+01 0. -1.
<mgrwt>
<rscale>  0 0.52037465E+02</rscale>
<asrwt>0</asrwt>
<pdfrwt beam="1">  1       11 0.10000000E+01 0.19087494E+02</pdfrwt>
<pdfrwt beam="2">  1        4 0.11794407E-02 0.52037465E+02</pdfrwt>
<totfact> 0.72375567E+03</totfact>
</mgrwt>
</event>
<event>
 5    1  0.1490736E-003  0.6655309E+02  0.7818608E-02  0.1372223E+00
         11   -1    0    0    0    0  0.00000000000E+00  0.00000000000E+00  0.10001017731E+04  0.10001017731E+04  0.51100000000E-03 0. -1.
          4   -1    0    0  501    0 -0.00000000000E+00 -0.00000000000E+00 -0.11336815101E+02  0.11425400502E+02  0.14200000000E+01 0. -1.
         11    1    1    2    0    0 -0.22686894500E+02 -0.17436295255E+02  0.44269666434E+02  0.52711696431E+02  0.51100000000E-03 0. -1.
         22    1    1    2    0    0  0.13921044645E+02 -0.62210964658E+02  0.19750384585E+03  0.20753739117E+03  0.00000000000E+00 0. -1.
          4    1    1    2  501    0  0.87658498549E+01  0.79647259913E+02  0.74699144576E+03  0.75127808605E+03  0.14200000000E+01 0. -1.
<mgrwt>
<rscale>  0 0.66553088E+02</rscale>
<asrwt>0</asrwt>
<pdfrwt beam="1">  1       11 0.10000000E+01 0.28613291E+02</pdfrwt>
<pdfrwt beam="2">  1        4 0.17511954E-02 0.66553088E+02</pdfrwt>
<totfact> 0.42648131E+03</totfact>
</mgrwt>
</event>
<event>
 5    1  0.1490736E-003  0.7319878E+02  0.7818608E-02  0.1356599E+00
         11   -1    0    0    0    0  0.00000000000E+00  0.00000000000E+00  0.10001936654E+04  0.10001936654E+04  0.51100000000E-03 0. -1.
          4   -1    0    0  501    0 -0.00000000000E+00 -0.00000000000E+00 -0.10370151119E+02  0.10466920952E+02  0.14200000000E+01 0. -1.
         11    1    1    2    0    0  0.28510107946E+02 -0.38817291507E+01  0.39056458881E+02  0.48510834428E+02  0.51100000000E-03 0. -1.
         22    1    1    2    0    0  0.42079666049E+02 -0.39564628434E+01  0.10192860475E+03  0.11034397292E+03  0.00000000000E+00 0.  1.
          4    1    1    2  501    0 -0.70589773995E+02  0.78381919941E+01  0.84883845061E+03  0.85180577897E+03  0.14200000000E+01 0. -1.
<mgrwt>
<rscale>  0 0.71037806E+02</rscale>
<asrwt>0</asrwt>
<pdfrwt beam="1">  1       11 0.10000000E+01 0.73198782E+02</pdfrwt>
<pdfrwt beam="2">  1        4 0.16032396E-02 0.71037806E+02</pdfrwt>
<totfact> 0.49465712E+03</totfact>
</mgrwt>
</event>
<event>
 5    1  0.1490736E-003  0.1594538E+03  0.7818608E-02  0.1191478E+00
         11   -1    0    0    0    0  0.00000000000E+00  0.00000000000E+00  0.10000534835E+04  0.10000534835E+04  0.51100000000E-03 0. -1.
          4   -1    0    0  501    0 -0.00000000000E+00 -0.00000000000E+00 -0.25782214006E+02  0.25821288872E+02  0.14200000000E+01 0.  1.
         11    1    1    2    0    0 -0.12288002032E+03 -0.74095962607E+02  0.52943783705E+03  0.54853817949E+03  0.51100000000E-03 0. -1.
         22    1    1    2    0    0 -0.83895502897E+01 -0.13035180955E+02  0.43734927268E+02  0.46400909040E+02  0.00000000000E+00 0. -1.
          4    1    1    2  501    0  0.13126957061E+03  0.87131143562E+02  0.40109850516E+03  0.43093568381E+03  0.14200000000E+01 0.  1.
<mgrwt>
<rscale>  0 0.15756127E+03</rscale>
<asrwt>0</asrwt>
<pdfrwt beam="1">  1       11 0.10000000E+01 0.15945376E+03</pdfrwt>
<pdfrwt beam="2">  1        4 0.39697900E-02 0.15756127E+03</pdfrwt>
<totfact> 0.14149756E+03</totfact>
</mgrwt>
</event>
<event>
 5    1  0.1490736E-003  0.2552345E+03  0.7818608E-02  0.1113875E+00
         11   -1    0    0    0    0  0.00000000000E+00  0.00000000000E+00  0.10005124235E+04  0.10005124235E+04  0.51100000000E-03 0.  1.
         -4   -1    0    0    0  501 -0.00000000000E+00 -0.00000000000E+00 -0.96545283714E+03  0.96545388142E+03  0.14200000000E+01 0. -1.
         11    1    1    2    0    0 -0.13567831104E+03 -0.17488132061E+03  0.88132938319E+03  0.90869882913E+03  0.51100000000E-03 0.  1.
         22    1    1    2    0    0 -0.29932997036E+02 -0.11186748473E+02  0.86287453794E+02  0.92014413736E+02  0.00000000000E+00 0. -1.
         -4    1    1    2    0  501  0.16561130808E+03  0.18606806909E+03 -0.93255725063E+03  0.96525306205E+03  0.14200000000E+01 0. -1.
<mgrwt>
<rscale>  0 0.24909927E+03</rscale>
<asrwt>0</asrwt>
<pdfrwt beam="1">  1       11 0.10000000E+01 0.25523450E+03</pdfrwt>
<pdfrwt beam="2">  1       -4 0.14860747E+00 0.24909927E+03</pdfrwt>
<totfact> 0.13666894E+00</totfact>
</mgrwt>
</event>
<event>
 5    1  0.1490736E-003  0.1585578E+03  0.7818608E-02  0.1192065E+00
         11   -1    0    0    0    0  0.00000000000E+00  0.00000000000E+00  0.10000900948E+04  0.10000900948E+04  0.51100000000E-03 0. -1.
         -4   -1    0    0    0  501 -0.00000000000E+00 -0.00000000000E+00 -0.28201400736E+02  0.28237128103E+02  0.14200000000E+01 0.  1.
         11    1    1    2    0    0  0.54548351441E+02  0.13174755988E+03  0.58871784599E+03  0.60574057514E+03  0.51100000000E-03 0. -1.
         22    1    1    2    0    0 -0.76073399979E+00  0.15800288257E+02  0.75614945196E+02  0.77251846335E+02  0.00000000000E+00 0.  1.
         -4    1    1    2    0  501 -0.53787617441E+02 -0.14754784814E+03  0.30755590284E+03  0.34533480139E+03  0.14200000000E+01 0.  1.
<mgrwt>
<rscale>  0 0.15705251E+03</rscale>
<asrwt>0</asrwt>
<pdfrwt beam="1">  1       11 0.10000000E+01 0.15855785E+03</pdfrwt>
<pdfrwt beam="2">  1       -4 0.43418939E-02 0.15705251E+03</pdfrwt>
<totfact> 0.12258090E+03</totfact>
</mgrwt>
</event>
<event>
 5    1  0.1490736E-003  0.3344003E+02  0.7818608E-02  0.1701928E+00
         11   -1    0    0    0    0  0.00000000000E+00  0.00000000000E+00  0.10000002635E+04  0.10000002635E+04  0.51100000000E-03 0. -1.
         -4   -1    0    0    0  501 -0.00000000000E+00 -0.00000000000E+00 -0.80486874487E+01  0.81729902512E+01  0.14200000000E+01 0. -1.
         11    1    1    2    0    0  0.18514522684E+02  0.13745982635E+02  0.52887280253E+02  0.57695788422E+02  0.51100000000E-03 0. -1.
         22    1    1    2    0    0  0.16583381809E+01  0.14859053267E+02  0.50127886341E+01  0.15769261219E+02  0.00000000000E+00 0. -1.
         -4    1    1    2    0  501 -0.20172860865E+02 -0.28605035902E+02  0.93405150720E+03  0.93470820415E+03  0.14200000000E+01 0. -1.
<mgrwt>
<rscale>  0 0.22370123E+02</rscale>
<asrwt>0</asrwt>
<pdfrwt beam="1">  1       11 0.10000000E+01 0.33440027E+02</pdfrwt>
<pdfrwt beam="2">  1       -4 0.12478992E-02 0.22370123E+02</pdfrwt>
<totfact> 0.50974757E+03</totfact>
</mgrwt>
</event>
<event>
 5    1  0.1490736E-003  0.4744862E+02  0.7818608E-02  0.1538557E+00
         11   -1    0    0    0    0  0.00000000000E+00  0.00000000000E+00  0.10001793848E+04  0.10001793848E+04  0.51100000000E-03 0. -1.
          4   -1    0    0  501    0 -0.00000000000E+00 -0.00000000000E+00 -0.20885001213E+02  0.20933219429E+02  0.14200000000E+01 0. -1.
         11    1    1    2    0    0  0.20339820267E+02  0.21097876882E+02 -0.47191632304E+01  0.29683315167E+02  0.51100000000E-03 0. -1.
         22    1    1    2    0    0 -0.93672641468E+01  0.25898742934E+02  0.58514922903E+02  0.64672147989E+02  0.00000000000E+00 0. -1.
          4    1    1    2  501    0 -0.10972556120E+02 -0.46996619817E+02  0.92549862394E+03  0.92675714110E+03  0.14200000000E+01 0. -1.
<mgrwt>
<rscale>  0 0.36157335E+02</rscale>
<asrwt>0</asrwt>
<pdfrwt beam="1">  1       11 0.10000000E+01 0.47448618E+02</pdfrwt>
<pdfrwt beam="2">  1        4 0.32174407E-02 0.36157335E+02</pdfrwt>
<totfact> 0.14580969E+03</totfact>
</mgrwt>
</event>
<event>
 5    1  0.1490736E-003  0.6978463E+02  0.7818608E-02  0.1518588E+00
         11   -1    0    0    0    0  0.00000000000E+00  0.00000000000E+00  0.10002886594E+04  0.10002886594E+04  0.51100000000E-03 0. -1.
          4   -1    0    0  501    0 -0.00000000000E+00 -0.00000000000E+00 -0.97867544823E+01  0.98892347175E+01  0.14200000000E+01 0. -1.
         11    1    1    2    0    0  0.17442123166E+02 -0.61120167197E+02  0.38094098810E+03  0.38620711919E+03  0.51100000000E-03 0. -1.
         22    1    1    2    0    0 -0.55309780859E+02  0.68592920999E+02  0.32241456559E+03  0.33423840709E+03  0.00000000000E+00 0. -1.
          4    1    1    2  501    0  0.37867657693E+02 -0.74727538017E+01  0.28714635120E+03  0.28973236781E+03  0.14200000000E+01 0. -1.
<mgrwt>
<rscale>  0 0.38624059E+02</rscale>
<asrwt>0</asrwt>
<pdfrwt beam="1">  1       11 0.10000000E+01 0.69784632E+02</pdfrwt>
<pdfrwt beam="2">  1        4 0.15140520E-02 0.38624059E+02</pdfrwt>
<totfact> 0.45989890E+03</totfact>
</mgrwt>
</event>
<event>
 5    1  0.1490736E-003  0.1570118E+03  0.7818608E-02  0.1200293E+00
         11   -1    0    0    0    0  0.00000000000E+00  0.00000000000E+00  0.10000921476E+04  0.10000921476E+04  0.51100000000E-03 0. -1.
          4   -1    0    0  501    0 -0.00000000000E+00 -0.00000000000E+00 -0.26906495426E+02  0.26943939877E+02  0.14200000000E+01 0. -1.
         11    1    1    2    0    0  0.10178444942E+03 -0.71365403581E+02  0.21212630759E+03  0.24586717012E+03  0.51100000000E-03 0. -1.
         22    1    1    2    0    0  0.20261566682E+02 -0.16080225392E+02  0.10313507658E+03  0.10632943503E+03  0.00000000000E+00 0. -1.
          4    1    1    2  501    0 -0.12204601610E+03  0.87445628973E+02  0.65792426797E+03  0.67483948229E+03  0.14200000000E+01 0. -1.
<mgrwt>
<rscale>  0 0.15014654E+03</rscale>
<asrwt>0</asrwt>
<pdfrwt beam="1">  1       11 0.10000000E+01 0.15701181E+03</pdfrwt>
<pdfrwt beam="2">  1        4 0.41428003E-02 0.15014654E+03</pdfrwt>
<totfact> 0.13121741E+03</totfact>
</mgrwt>
</event>
<event>
 5    1  0.1490736E-003  0.3996140E+02  0.7818608E-02  0.1536198E+00
         11   -1    0    0    0    0  0.00000000000E+00  0.00000000000E+00  0.10001829063E+04  0.10001829063E+04  0.51100000000E-03 0. -1.
          4   -1    0    0  501    0 -0.00000000000E+00 -0.00000000000E+00 -0.26063733297E+01  0.29680939900E+01  0.14200000000E+01 0. -1.
         11    1    1    2    0    0 -0.14622704932E+02 -0.98178741984E+01  0.10467811832E+03  0.10614952948E+03  0.51100000000E-03 0. -1.
         22    1    1    2    0    0 -0.20180976298E+02 -0.87516659880E+00  0.60051415633E+02  0.63357795419E+02  0.00000000000E+00 0. -1.
          4    1    1    2  501    0  0.34803681229E+02  0.10693040797E+02  0.83284699898E+03  0.83364367536E+03  0.14200000000E+01 0. -1.
<mgrwt>
<rscale>  0 0.36436983E+02</rscale>
<asrwt>0</asrwt>
<pdfrwt beam="1">  1       11 0.10000000E+01 0.39961404E+02</pdfrwt>
<pdfrwt beam="2">  1        4 0.42896115E-03 0.36436983E+02</pdfrwt>
<totfact> 0.28234735E+04</totfact>
</mgrwt>
</event>
<event>
 5    1  0.1490736E-003  0.2851904E+02  0.7818608E-02  0.1638582E+00
         11   -1    0    0    0    0  0.00000000000E+00  0.00000000000E+00  0.10000474936E+04  0.10000474936E+04  0.51100000000E-03 0.  1.
          4   -1    0    0  501    0 -0.00000000000E+00 -0.00000000000E+00 -0.15191690809E+01  0.20794890469E+01  0.14200000000E+01 0.  1.
         11    1    1    2    0    0  0.13807875829E+02  0.74188416025E+01  0.61668567563E+02  0.63629465432E+02  0.51100000000E-03 0.  1.
         22    1    1    2    0    0  0.46321668572E+01  0.11746884168E+02  0.64123762104E+02  0.65355207320E+02  0.00000000000E+00 0. -1.
          4    1    1    2  501    0 -0.18440042687E+02 -0.19165725770E+02  0.87273599489E+03  0.87314230993E+03  0.14200000000E+01 0.  1.
<mgrwt>
<rscale>  0 0.26634125E+02</rscale>
<asrwt>0</asrwt>
<pdfrwt beam="1">  1       11 0.10000000E+01 0.28519039E+02</pdfrwt>
<pdfrwt beam="2">  1        4 0.27691055E-03 0.26634125E+02</pdfrwt>
<totfact> 0.46632766E+04</totfact>
</mgrwt>
</event>
<event>
 5    1  0.1490736E-003  0.8427245E+02  0.7818608E-02  0.1677178E+00
         11   -1    0    0    0    0  0.00000000000E+00  0.00000000000E+00  0.10001407835E+04  0.10001407835E+04  0.51100000000E-03 0. -1.
         -4   -1    0    0    0  501 -0.00000000000E+00 -0.00000000000E+00 -0.33089356323E+02  0.33119811320E+02  0.14200000000E+01 0.  1.
         11    1    1    2    0    0 -0.79940823207E+02 -0.22684521006E+01  0.46635462992E+03  0.47316204617E+03  0.51100000000E-03 0. -1.
         22    1    1    2    0    0  0.87134642789E+02  0.25025765779E+02  0.52094055983E+03  0.52877008407E+03  0.00000000000E+00 0. -1.
         -4    1    1    2    0  501 -0.71938195813E+01 -0.22757313678E+02 -0.20243762611E+02  0.31328464544E+02  0.14200000000E+01 0.  1.
<mgrwt>
<rscale>  0 0.23909470E+02</rscale>
<asrwt>0</asrwt>
<pdfrwt beam="1">  1       11 0.10000000E+01 0.84272447E+02</pdfrwt>
<pdfrwt beam="2">  1       -4 0.50938073E-02 0.23909470E+02</pdfrwt>
<totfact> 0.64336517E+02</totfact>
</mgrwt>
</event>
<event>
 5    1  0.1490736E-003  0.1344022E+03  0.7818608E-02  0.1225674E+00
         11   -1    0    0    0    0  0.00000000000E+00  0.00000000000E+00  0.99990447956E+03  0.99990447956E+03  0.51100000000E-03 0. -1.
          4   -1    0    0  501    0 -0.00000000000E+00 -0.00000000000E+00 -0.32739771187E+02  0.32770551069E+02  0.14200000000E+01 0. -1.
         11    1    1    2    0    0  0.97035426291E+02 -0.68038176839E+02  0.10883962080E+03  0.16090721090E+03  0.51100000000E-03 0. -1.
         22    1    1    2    0    0  0.13009519816E+02 -0.34016373760E+01  0.27119931054E+02  0.30270602951E+02  0.00000000000E+00 0. -1.
          4    1    1    2  501    0 -0.11004494611E+03  0.71439814216E+02  0.83120515652E+03  0.84149721678E+03  0.14200000000E+01 0. -1.
<mgrwt>
<rscale>  0 0.13120805E+03</rscale>
<asrwt>0</asrwt>
<pdfrwt beam="1">  1       11 0.10000000E+01 0.13440222E+03</pdfrwt>
<pdfrwt beam="2">  1        4 0.50388516E-02 0.13120805E+03</pdfrwt>
<totfact> 0.93947666E+02</totfact>
</mgrwt>
</event>
<event>
 5    1  0.1490736E-003  0.1606276E+03  0.7818608E-02  0.1203445E+00
         11   -1    0    0    0    0  0.00000000000E+00  0.00000000000E+00  0.10003115001E+04  0.10003115001E+04  0.51100000000E-03 0.  1.
          4   -1    0    0  501    0 -0.00000000000E+00 -0.00000000000E+00 -0.39074158921E+02  0.39099952626E+02  0.14200000000E+01 0.  1.
         11    1    1    2    0    0  0.68410603616E+02 -0.59530756214E+02  0.76485516020E+02  0.11863370425E+03  0.51100000000E-03 0.  1.
         22    1    1    2    0    0  0.70138513948E+01 -0.67342541322E+02  0.91037904025E+02  0.11345533021E+03  0.00000000000E+00 0.  1.
          4    1    1    2  501    0 -0.75424455011E+02  0.12687329754E+03  0.79371392110E+03  0.80732241824E+03  0.14200000000E+01 0.  1.
<mgrwt>
<rscale>  0 0.14760657E+03</rscale>
<asrwt>0</asrwt>
<pdfrwt beam="1">  1       11 0.10000000E+01 0.16062759E+03</pdfrwt>
<pdfrwt beam="2">  1        4 0.60153437E-02 0.14760657E+03</pdfrwt>
<totfact> 0.71775712E+02</totfact>
</mgrwt>
</event>
<event>
 5    1  0.1490736E-003  0.1656044E+03  0.7818608E-02  0.1182511E+00
         11   -1    0    0    0    0  0.00000000000E+00  0.00000000000E+00  0.10003331794E+04  0.10003331794E+04  0.51100000000E-03 0. -1.
          4   -1    0    0  501    0 -0.00000000000E+00 -0.00000000000E+00 -0.40278879185E+02  0.40303901900E+02  0.14200000000E+01 0. -1.
         11    1    1    2    0    0  0.93401404598E+01 -0.26029237610E+02  0.16520558739E+03  0.16750416573E+03  0.51100000000E-03 0. -1.
         22    1    1    2    0    0 -0.14996256030E+03 -0.64595204746E+02  0.56965698518E+03  0.59259631347E+03  0.00000000000E+00 0. -1.
          4    1    1    2  501    0  0.14062241984E+03  0.90624442356E+02  0.22519172763E+03  0.28053660208E+03  0.14200000000E+01 0. -1.
<mgrwt>
<rscale>  0 0.16560444E+03</rscale>
<asrwt>0</asrwt>
<pdfrwt beam="1">  1       11 0.10000000E+01 0.27654284E+02</pdfrwt>
<pdfrwt beam="2">  1        4 0.62008181E-02 0.16560444E+03</pdfrwt>
<totfact> 0.69410904E+02</totfact>
</mgrwt>
</event>
<event>
 5    1  0.1490736E-003  0.1964847E+03  0.7818608E-02  0.1154810E+00
         11   -1    0    0    0    0  0.00000000000E+00  0.00000000000E+00  0.10004420976E+04  0.10004420976E+04  0.51100000000E-03 0.  1.
          4   -1    0    0  501    0 -0.00000000000E+00 -0.00000000000E+00 -0.38430608847E+02  0.38456834196E+02  0.14200000000E+01 0.  1.
         11    1    1    2    0    0  0.95780137198E+01 -0.19038424425E+02  0.37584491603E+02  0.43206411106E+02  0.51100000000E-03 0.  1.
         22    1    1    2    0    0  0.11273341496E+03 -0.13167507182E+03  0.49379609735E+03  0.52333711233E+03  0.00000000000E+00 0.  1.
          4    1    1    2  501    0 -0.12231142868E+03  0.15071349624E+03  0.43063089977E+03  0.47235540832E+03  0.14200000000E+01 0.  1.
<mgrwt>
<rscale>  0 0.19410477E+03</rscale>
<asrwt>0</asrwt>
<pdfrwt beam="1">  1       11 0.10000000E+01 0.19648469E+03</pdfrwt>
<pdfrwt beam="2">  1        4 0.59171108E-02 0.19410477E+03</pdfrwt>
<totfact> 0.76545714E+02</totfact>
</mgrwt>
</event>
<event>
 5    1  0.1490736E-003  0.7624138E+02  0.7818608E-02  0.1357161E+00
         11   -1    0    0    0    0  0.00000000000E+00  0.00000000000E+00  0.10001813569E+04  0.10001813569E+04  0.51100000000E-03 0.  1.
          4   -1    0    0  501    0 -0.00000000000E+00 -0.00000000000E+00 -0.61055714719E+01  0.62685247865E+01  0.14200000000E+01 0.  1.
         11    1    1    2    0    0  0.18175106550E+02 -0.59172302766E+02  0.26854746568E+03  0.27558925458E+03  0.51100000000E-03 0.  1.
         22    1    1    2    0    0 -0.90556086747E+01 -0.11093631296E+02  0.66006543888E+02  0.67542109382E+02  0.00000000000E+00 0.  1.
          4    1    1    2  501    0 -0.91194978753E+01  0.70265934062E+02  0.65952177582E+03  0.66331851770E+03  0.14200000000E+01 0.  1.
<mgrwt>
<rscale>  0 0.70869480E+02</rscale>
<asrwt>0</asrwt>
<pdfrwt beam="1">  1       11 0.10000000E+01 0.76241377E+02</pdfrwt>
<pdfrwt beam="2">  1        4 0.95210371E-03 0.70869480E+02</pdfrwt>
<totfact> 0.10770495E+04</totfact>
</mgrwt>
</event>
<event>
 5    1  0.1490736E-003  0.7137157E+02  0.7818608E-02  0.1355490E+00
         11   -1    0    0    0    0  0.00000000000E+00  0.00000000000E+00  0.10003609275E+04  0.10003609275E+04  0.51100000000E-03 0. -1.
          4   -1    0    0  501    0 -0.00000000000E+00 -0.00000000000E+00 -0.10091295228E+02  0.10190713389E+02  0.14200000000E+01 0. -1.
         11    1    1    2    0    0 -0.18172135359E+02  0.20023063214E+02  0.70937369131E+02  0.75916137306E+02  0.51100000000E-03 0. -1.
         22    1    1    2    0    0 -0.47608095029E+02 -0.53716839026E+02  0.22013344504E+03  0.23153998171E+03  0.00000000000E+00 0. -1.
          4    1    1    2  501    0  0.65780230387E+02  0.33693775812E+02  0.69919881809E+03  0.70309552186E+03  0.14200000000E+01 0. -1.
<mgrwt>
<rscale>  0 0.71371567E+02</rscale>
<asrwt>0</asrwt>
<pdfrwt beam="1">  1       11 0.10000000E+01 0.27039791E+02</pdfrwt>
<pdfrwt beam="2">  1        4 0.15607951E-02 0.71371567E+02</pdfrwt>
<totfact> 0.51561934E+03</totfact>
</mgrwt>
</event>
<event>
 5    1  0.1490736E-003  0.5042222E+02  0.7818608E-02  0.1443077E+00
         11   -1    0    0    0    0  0.00000000000E+00  0.00000000000E+00  0.99998269311E+03  0.99998269311E+03  0.51100000000E-03 0. -1.
         -4   -1    0    0    0  501 -0.00000000000E+00 -0.00000000000E+00 -0.17503916153E+02  0.17561420235E+02  0.14200000000E+01 0. -1.
         11    1    1    2    0    0  0.19395462113E+02  0.11690457146E+02  0.45853353600E+02  0.51140793654E+02  0.51100000000E-03 0. -1.
         22    1    1    2    0    0  0.49448044582E+02 -0.26373745102E+01  0.31654491375E+02  0.58771350857E+02  0.00000000000E+00 0. -1.
         -4    1    1    2    0  501 -0.68843506695E+02 -0.90530826362E+01  0.90497093198E+03  0.90763196883E+03  0.14200000000E+01 0. -1.
<mgrwt>
<rscale>  0 0.50422223E+02</rscale>
<asrwt>0</asrwt>
<pdfrwt beam="1">  1       11 0.10000000E+01 0.22646219E+02</pdfrwt>
<pdfrwt beam="2">  1       -4 0.26973644E-02 0.50422223E+02</pdfrwt>
<totfact> 0.20744970E+03</totfact>
</mgrwt>
</event>
<event>
 5    1  0.1490736E-003  0.3903857E+02  0.7818608E-02  0.1541837E+00
         11   -1    0    0    0    0  0.00000000000E+00  0.00000000000E+00  0.10001081912E+04  0.10001081912E+04  0.51100000000E-03 0.  1.
          4   -1    0    0  501    0 -0.00000000000E+00 -0.00000000000E+00 -0.40751240366E+01  0.43154415665E+01  0.14200000000E+01 0.  1.
         11    1    1    2    0    0  0.13702092169E+02  0.21945133814E+02  0.63317710239E+02  0.68399332293E+02  0.51100000000E-03 0.  1.
         22    1    1    2    0    0  0.13048136508E+02  0.17647043678E+01  0.32056365798E+02  0.34655138667E+02  0.00000000000E+00 0. -1.
          4    1    1    2  501    0 -0.26750228676E+02 -0.23709838182E+02  0.90065899112E+03  0.90136916180E+03  0.14200000000E+01 0.  1.
<mgrwt>
<rscale>  0 0.35773560E+02</rscale>
<asrwt>0</asrwt>
<pdfrwt beam="1">  1       11 0.10000000E+01 0.39038566E+02</pdfrwt>
<pdfrwt beam="2">  1        4 0.64557549E-03 0.35773560E+02</pdfrwt>
<totfact> 0.15597855E+04</totfact>
</mgrwt>
</event>
<event>
 5    1  0.1490736E-003  0.1527956E+03  0.7818608E-02  0.1204985E+00
         11   -1    0    0    0    0  0.00000000000E+00  0.00000000000E+00  0.10003778680E+04  0.10003778680E+04  0.51100000000E-03 0. -1.
          4   -1    0    0  501    0 -0.00000000000E+00 -0.00000000000E+00 -0.22409826481E+02  0.22454770605E+02  0.14200000000E+01 0. -1.
         11    1    1    2    0    0  0.17483456500E+02 -0.38384970331E+01  0.32622249830E+02  0.37210435295E+02  0.51100000000E-03 0. -1.
         22    1    1    2    0    0  0.11602251145E+03  0.63865275729E+02  0.43955357416E+03  0.45907226138E+03  0.00000000000E+00 0. -1.
          4    1    1    2  501    0 -0.13350596795E+03 -0.60026778696E+02  0.50579221749E+03  0.52654994189E+03  0.14200000000E+01 0. -1.
<mgrwt>
<rscale>  0 0.14638673E+03</rscale>
<asrwt>0</asrwt>
<pdfrwt beam="1">  1       11 0.10000000E+01 0.15279564E+03</pdfrwt>
<pdfrwt beam="2">  1        4 0.34525044E-02 0.14638673E+03</pdfrwt>
<totfact> 0.17452460E+03</totfact>
</mgrwt>
</event>
<event>
 5    1  0.1490736E-003  0.1104687E+03  0.7818608E-02  0.1306376E+00
         11   -1    0    0    0    0  0.00000000000E+00  0.00000000000E+00  0.10004143833E+04  0.10004143833E+04  0.51100000000E-03 0.  1.
         -4   -1    0    0    0  501 -0.00000000000E+00 -0.00000000000E+00 -0.24011326521E+02  0.24053278390E+02  0.14200000000E+01 0. -1.
         11    1    1    2    0    0  0.95829190402E+02  0.18189922056E+02  0.32978512713E+03  0.34390745423E+03  0.51100000000E-03 0.  1.
         22    1    1    2    0    0  0.33215408494E+02 -0.62740996366E+02  0.15777629017E+03  0.17301171557E+03  0.00000000000E+00 0. -1.
         -4    1    1    2    0  501 -0.12904459890E+03  0.44551074310E+02  0.48884163945E+03  0.50754849186E+03  0.14200000000E+01 0. -1.
<mgrwt>
<rscale>  0 0.88560215E+02</rscale>
<asrwt>0</asrwt>
<pdfrwt beam="1">  1       11 0.10000000E+01 0.11046871E+03</pdfrwt>
<pdfrwt beam="2">  1       -4 0.36988868E-02 0.88560215E+02</pdfrwt>
<totfact> 0.14353910E+03</totfact>
</mgrwt>
</event>
<event>
 5    1  0.1490736E-003  0.1010662E+03  0.7818608E-02  0.1278070E+00
         11   -1    0    0    0    0  0.00000000000E+00  0.00000000000E+00  0.10003691352E+04  0.10003691352E+04  0.51100000000E-03 0. -1.
          4   -1    0    0  501    0 -0.00000000000E+00 -0.00000000000E+00 -0.22576695970E+02  0.22621308559E+02  0.14200000000E+01 0. -1.
         11    1    1    2    0    0  0.59751284714E+02  0.56423569748E+02  0.26508403909E+03  0.27753086861E+03  0.51100000000E-03 0. -1.
         22    1    1    2    0    0  0.67037920389E+02 -0.51646537797E+02  0.38160215217E+03  0.39087293354E+03  0.00000000000E+00 0. -1.
          4    1    1    2  501    0 -0.12678920510E+03 -0.47770319503E+01  0.33110624798E+03  0.35458664162E+03  0.14200000000E+01 0. -1.
<mgrwt>
<rscale>  0 0.10106615E+03</rscale>
<asrwt>0</asrwt>
<pdfrwt beam="1">  1       11 0.10000000E+01 0.82181762E+02</pdfrwt>
<pdfrwt beam="2">  1        4 0.34781304E-02 0.10106615E+03</pdfrwt>
<totfact> 0.16194410E+03</totfact>
</mgrwt>
</event>
<event>
 5    1  0.1490736E-003  0.2057633E+03  0.7818608E-02  0.1144966E+00
         11   -1    0    0    0    0  0.00000000000E+00  0.00000000000E+00  0.10001975886E+04  0.10001975886E+04  0.51100000000E-03 0.  1.
          4   -1    0    0  501    0 -0.00000000000E+00 -0.00000000000E+00 -0.70631803873E+02  0.70646076454E+02  0.14200000000E+01 0.  1.
         11    1    1    2    0    0  0.17369264592E+03 -0.10332805669E+03  0.75352399378E+03  0.78015654310E+03  0.51100000000E-03 0.  1.
         22    1    1    2    0    0 -0.19992500392E+01 -0.11796567490E+02  0.43518180011E+02  0.45133003409E+02  0.00000000000E+00 0. -1.
          4    1    1    2  501    0 -0.17169339588E+03  0.11512462418E+03  0.13252361094E+03  0.24555411855E+03  0.14200000000E+01 0.  1.
<mgrwt>
<rscale>  0 0.20576330E+03</rscale>
<asrwt>0</asrwt>
<pdfrwt beam="1">  1       11 0.10000000E+01 0.11964782E+02</pdfrwt>
<pdfrwt beam="2">  1        4 0.10869754E-01 0.20576330E+03</pdfrwt>
<totfact> 0.27897337E+02</totfact>
</mgrwt>
</event>
<event>
 5    1  0.1490736E-003  0.2087004E+03  0.7818608E-02  0.1142599E+00
         11   -1    0    0    0    0  0.00000000000E+00  0.00000000000E+00  0.10000180616E+04  0.10000180616E+04  0.51100000000E-03 0. -1.
          4   -1    0    0  501    0 -0.00000000000E+00 -0.00000000000E+00 -0.54732145799E+02  0.54750563319E+02  0.14200000000E+01 0. -1.
         11    1    1    2    0    0  0.19053914402E+02 -0.16469502202E+02  0.48349835377E+02  0.54516077794E+02  0.51100000000E-03 0. -1.
         22    1    1    2    0    0  0.16865624917E+03  0.11428166670E+03  0.61389551038E+03  0.64681753794E+03  0.00000000000E+00 0. -1.
          4    1    1    2  501    0 -0.18771016357E+03 -0.97812164500E+02  0.28304057009E+03  0.35343500923E+03  0.14200000000E+01 0. -1.
<mgrwt>
<rscale>  0 0.20870035E+03</rscale>
<asrwt>0</asrwt>
<pdfrwt beam="1">  1       11 0.10000000E+01 0.25185249E+02</pdfrwt>
<pdfrwt beam="2">  1        4 0.84219763E-02 0.20870035E+03</pdfrwt>
<totfact> 0.43045241E+02</totfact>
</mgrwt>
</event>
<event>
 5    1  0.1490736E-003  0.1818895E+03  0.7818608E-02  0.1181791E+00
         11   -1    0    0    0    0  0.00000000000E+00  0.00000000000E+00  0.10001772300E+04  0.10001772300E+04  0.51100000000E-03 0. -1.
          4   -1    0    0  501    0 -0.00000000000E+00 -0.00000000000E+00 -0.30309932410E+02  0.30343177202E+02  0.14200000000E+01 0. -1.
         11    1    1    2    0    0  0.25233269290E+02 -0.87921741621E+02  0.19578691194E+03  0.21610059097E+03  0.51100000000E-03 0. -1.
         22    1    1    2    0    0  0.72281212282E+02 -0.46746998715E+02  0.29520296832E+03  0.30749739518E+03  0.00000000000E+00 0. -1.
          4    1    1    2  501    0 -0.97514481572E+02  0.13466874034E+03  0.47887741731E+03  0.50692242103E+03  0.14200000000E+01 0. -1.
<mgrwt>
<rscale>  0 0.16627315E+03</rscale>
<asrwt>0</asrwt>
<pdfrwt beam="1">  1       11 0.10000000E+01 0.18188950E+03</pdfrwt>
<pdfrwt beam="2">  1        4 0.46665281E-02 0.16627315E+03</pdfrwt>
<totfact> 0.11011173E+03</totfact>
</mgrwt>
</event>
<event>
 5    1  0.1490736E-003  0.7590971E+02  0.7818608E-02  0.1341077E+00
         11   -1    0    0    0    0  0.00000000000E+00  0.00000000000E+00  0.10001233596E+04  0.10001233596E+04  0.51100000000E-03 0. -1.
          4   -1    0    0  501    0 -0.00000000000E+00 -0.00000000000E+00 -0.88595411545E+01  0.89726177601E+01  0.14200000000E+01 0. -1.
         11    1    1    2    0    0  0.11824015721E+02  0.98977287079E+01  0.18721253114E+02  0.24254024403E+02  0.51100000000E-03 0. -1.
         22    1    1    2    0    0  0.66467705906E+01  0.70980592979E+02  0.39717710564E+03  0.40352456850E+03  0.00000000000E+00 0. -1.
          4    1    1    2  501    0 -0.18470786311E+02 -0.80878321686E+02  0.57536545973E+03  0.58131738450E+03  0.14200000000E+01 0. -1.
<mgrwt>
<rscale>  0 0.75909706E+02</rscale>
<asrwt>0</asrwt>
<pdfrwt beam="1">  1       11 0.10000000E+01 0.15419877E+02</pdfrwt>
<pdfrwt beam="2">  1        4 0.13719513E-02 0.75909706E+02</pdfrwt>
<totfact> 0.63502183E+03</totfact>
</mgrwt>
</event>
<event>
 5    1  0.1490736E-003  0.2590411E+03  0.7818608E-02  0.1114685E+00
         11   -1    0    0    0    0  0.00000000000E+00  0.00000000000E+00  0.10001582940E+04  0.10001582940E+04  0.51100000000E-03 0. -1.
         -4   -1    0    0    0  501 -0.00000000000E+00 -0.00000000000E+00 -0.27374461192E+03  0.27374829489E+03  0.14200000000E+01 0.  1.
         11    1    1    2    0    0  0.34802830018E+02 -0.91250696857E+02  0.24353923895E+03  0.26239147768E+03  0.51100000000E-03 0. -1.
         22    1    1    2    0    0  0.88437092516E+02 -0.12375745815E+03  0.67877574105E+03  0.69561018855E+03  0.00000000000E+00 0. -1.
         -4    1    1    2    0  501 -0.12323992253E+03  0.21500815501E+03 -0.19590129792E+03  0.31590492265E+03  0.14200000000E+01 0.  1.
<mgrwt>
<rscale>  0 0.24782777E+03</rscale>
<asrwt>0</asrwt>
<pdfrwt beam="1">  1       11 0.10000000E+01 0.25904106E+03</pdfrwt>
<pdfrwt beam="2">  1       -4 0.42121582E-01 0.24782777E+03</pdfrwt>
<totfact> 0.23420105E+01</totfact>
</mgrwt>
</event>
<event>
 5    1  0.1490736E-003  0.2165795E+03  0.7818608E-02  0.1142340E+00
         11   -1    0    0    0    0  0.00000000000E+00  0.00000000000E+00  0.99998503905E+03  0.99998503905E+03  0.51100000000E-03 0. -1.
          4   -1    0    0  501    0 -0.00000000000E+00 -0.00000000000E+00 -0.45546030987E+02  0.45568161458E+02  0.14200000000E+01 0.  1.
         11    1    1    2    0    0  0.15747119652E+03 -0.20598360870E+02  0.27746424800E+03  0.31969967020E+03  0.51100000000E-03 0. -1.
         22    1    1    2    0    0  0.50972605935E+02  0.50859856276E+01  0.16777832414E+03  0.17542417125E+03  0.00000000000E+00 0. -1.
          4    1    1    2  501    0 -0.20844380246E+03  0.15512375243E+02  0.50919643592E+03  0.55042935907E+03  0.14200000000E+01 0.  1.
<mgrwt>
<rscale>  0 0.20902504E+03</rscale>
<asrwt>0</asrwt>
<pdfrwt beam="1">  1       11 0.10000000E+01 0.21657948E+03</pdfrwt>
<pdfrwt beam="2">  1        4 0.70087565E-02 0.20902504E+03</pdfrwt>
<totfact> 0.58471678E+02</totfact>
</mgrwt>
</event>
<event>
 5    1  0.1490736E-003  0.1776127E+03  0.7818608E-02  0.1400269E+00
         11   -1    0    0    0    0  0.00000000000E+00  0.00000000000E+00  0.10002779043E+04  0.10002779043E+04  0.51100000000E-03 0. -1.
         -4   -1    0    0    0  501 -0.00000000000E+00 -0.00000000000E+00 -0.47656988027E+02  0.47678138678E+02  0.14200000000E+01 0.  1.
         11    1    1    2    0    0 -0.14345644135E+03  0.97578587102E+02  0.68770192455E+03  0.70924979256E+03  0.51100000000E-03 0. -1.
         22    1    1    2    0    0 -0.19850191326E+02  0.10932166903E+01  0.31142546229E+02  0.36947035118E+02  0.00000000000E+00 0.  1.
         -4    1    1    2    0  501  0.16330663268E+03 -0.98671803792E+02  0.23377644545E+03  0.30175921525E+03  0.14200000000E+01 0.  1.
<mgrwt>
<rscale>  0 0.59423081E+02</rscale>
<asrwt>0</asrwt>
<pdfrwt beam="1">  1       11 0.10000000E+01 0.17761275E+03</pdfrwt>
<pdfrwt beam="2">  1       -4 0.73355866E-02 0.59423081E+02</pdfrwt>
<totfact> 0.44862856E+02</totfact>
</mgrwt>
</event>
<event>
 5    1  0.1490736E-003  0.1706565E+03  0.7818608E-02  0.1179163E+00
         11   -1    0    0    0    0  0.00000000000E+00  0.00000000000E+00  0.10001085926E+04  0.10001085926E+04  0.51100000000E-03 0.  1.
         -4   -1    0    0    0  501 -0.00000000000E+00 -0.00000000000E+00 -0.33448141342E+02  0.33478269955E+02  0.14200000000E+01 0.  1.
         11    1    1    2    0    0  0.96886196395E+01 -0.87685516990E+01  0.39336402157E+02  0.41450083044E+02  0.51100000000E-03 0.  1.
         22    1    1    2    0    0  0.11480755383E+03 -0.10513235417E+03  0.25331092982E+03  0.29732139761E+03  0.00000000000E+00 0.  1.
         -4    1    1    2    0  501 -0.12449617347E+03  0.11390090587E+03  0.67401311931E+03  0.69481538193E+03  0.14200000000E+01 0.  1.
<mgrwt>
<rscale>  0 0.16874457E+03</rscale>
<asrwt>0</asrwt>
<pdfrwt beam="1">  1       11 0.10000000E+01 0.17065654E+03</pdfrwt>
<pdfrwt beam="2">  1       -4 0.51488219E-02 0.16874457E+03</pdfrwt>
<totfact> 0.94156712E+02</totfact>
</mgrwt>
</event>
<event>
 5    1  0.1490736E-003  0.8561764E+02  0.7818608E-02  0.1318951E+00
         11   -1    0    0    0    0  0.00000000000E+00  0.00000000000E+00  0.10001351996E+04  0.10001351996E+04  0.51100000000E-03 0.  1.
          4   -1    0    0  501    0 -0.00000000000E+00 -0.00000000000E+00 -0.72235063515E+01  0.73617554978E+01  0.14200000000E+01 0.  1.
         11    1    1    2    0    0  0.58363763537E+02 -0.39669154515E+02  0.36393811079E+03  0.37071676412E+03  0.51100000000E-03 0.  1.
         22    1    1    2    0    0  0.60228291028E+01 -0.13742480950E+02  0.70974514448E+02  0.72543173036E+02  0.00000000000E+00 0. -1.
          4    1    1    2  501    0 -0.64386592639E+02  0.53411635465E+02  0.55799906802E+03  0.56423701795E+03  0.14200000000E+01 0.  1.
<mgrwt>
<rscale>  0 0.83668707E+02</rscale>
<asrwt>0</asrwt>
<pdfrwt beam="1">  1       11 0.10000000E+01 0.85617640E+02</pdfrwt>
<pdfrwt beam="2">  1        4 0.11221724E-02 0.83668707E+02</pdfrwt>
<totfact> 0.87767412E+03</totfact>
</mgrwt>
</event>
<event>
 5    1  0.1490736E-003  0.1387993E+03  0.7818608E-02  0.1220934E+00
         11   -1    0    0    0    0  0.00000000000E+00  0.00000000000E+00  0.10002616390E+04  0.10002616390E+04  0.51100000000E-03 0.  1.
         -4   -1    0    0    0  501 -0.00000000000E+00 -0.00000000000E+00 -0.18782512426E+02  0.18836113533E+02  0.14200000000E+01 0. -1.
         11    1    1    2    0    0  0.59006096682E+01  0.42074144361E+02  0.23222684163E+03  0.23608125040E+03  0.51100000000E-03 0.  1.
         22    1    1    2    0    0  0.35677396112E+02  0.85825421193E+02  0.31047871563E+03  0.32409244418E+03  0.00000000000E+00 0.  1.
         -4    1    1    2    0  501 -0.41578005781E+02 -0.12789956555E+03  0.43877356928E+03  0.45892405792E+03  0.14200000000E+01 0. -1.
<mgrwt>
<rscale>  0 0.13449552E+03</rscale>
<asrwt>0</asrwt>
<pdfrwt beam="1">  1       11 0.10000000E+01 0.13879930E+03</pdfrwt>
<pdfrwt beam="2">  1       -4 0.28945750E-02 0.13449552E+03</pdfrwt>
<totfact> 0.22702617E+03</totfact>
</mgrwt>
</event>
<event>
 5    1  0.1490736E-003  0.4424374E+02  0.7818608E-02  0.1486080E+00
         11   -1    0    0    0    0  0.00000000000E+00  0.00000000000E+00  0.10001526093E+04  0.10001526093E+04  0.51100000000E-03 0. -1.
          4   -1    0    0  501    0 -0.00000000000E+00 -0.00000000000E+00 -0.46410369112E+01  0.48534136040E+01  0.14200000000E+01 0. -1.
         11    1    1    2    0    0 -0.11239996399E+02  0.69903073534E+00  0.22259315901E+02  0.24946007850E+02  0.51100000000E-03 0. -1.
         22    1    1    2    0    0 -0.28975889344E+02  0.14940007407E+02  0.89478867390E+02  0.95232734362E+02  0.00000000000E+00 0. -1.
          4    1    1    2  501    0  0.40215885743E+02 -0.15639038142E+02  0.88377338907E+03  0.88482728067E+03  0.14200000000E+01 0. -1.
<mgrwt>
<rscale>  0 0.43173063E+02</rscale>
<asrwt>0</asrwt>
<pdfrwt beam="1">  1       11 0.10000000E+01 0.44243739E+02</pdfrwt>
<pdfrwt beam="2">  1        4 0.73053134E-03 0.43173063E+02</pdfrwt>
<totfact> 0.13850364E+04</totfact>
</mgrwt>
</event>
<event>
 5    1  0.1490736E-003  0.9513984E+02  0.7818608E-02  0.1569249E+00
         11   -1    0    0    0    0  0.00000000000E+00  0.00000000000E+00  0.10003465392E+04  0.10003465392E+04  0.51100000000E-03 0. -1.
         -4   -1    0    0    0  501 -0.00000000000E+00 -0.00000000000E+00 -0.13078482176E+02  0.13155344770E+02  0.14200000000E+01 0.  1.
         11    1    1    2    0    0  0.10230337656E+03 -0.33458010426E+01  0.40563861532E+03  0.41835375160E+03  0.51100000000E-03 0. -1.
         22    1    1    2    0    0 -0.11292284171E+02  0.11091156272E+00  0.68730278855E+01  0.13219927968E+02  0.00000000000E+00 0.  1.
         -4    1    1    2    0  501 -0.91011092393E+02  0.32348894798E+01  0.57475641379E+03  0.58192820437E+03  0.14200000000E+01 0.  1.
<mgrwt>
<rscale>  0 0.32779827E+02</rscale>
<asrwt>0</asrwt>
<pdfrwt beam="1">  1       11 0.10000000E+01 0.95139839E+02</pdfrwt>
<pdfrwt beam="2">  1       -4 0.20187635E-02 0.32779827E+02</pdfrwt>
<totfact> 0.28590609E+03</totfact>
</mgrwt>
</event>
<event>
 5    1  0.1490736E-003  0.2179036E+03  0.7818608E-02  0.1137800E+00
         11   -1    0    0    0    0  0.00000000000E+00  0.00000000000E+00  0.10002522060E+04  0.10002522060E+04  0.51100000000E-03 0. -1.
          4   -1    0    0  501    0 -0.00000000000E+00 -0.00000000000E+00 -0.66914909249E+02  0.66929974450E+02  0.14200000000E+01 0.  1.
         11    1    1    2    0    0  0.73797426847E+02  0.15432749235E+03  0.54625752822E+03  0.57241621417E+03  0.51100000000E-03 0. -1.
         22    1    1    2    0    0  0.19428936588E+02  0.39210815306E+02  0.21530783811E+03  0.21970989228E+03  0.00000000000E+00 0. -1.
          4    1    1    2  501    0 -0.93226363435E+02 -0.19353830765E+03  0.17177193043E+03  0.27505607401E+03  0.14200000000E+01 0.  1.
<mgrwt>
<rscale>  0 0.21482609E+03</rscale>
<asrwt>0</asrwt>
<pdfrwt beam="1">  1       11 0.10000000E+01 0.21790356E+03</pdfrwt>
<pdfrwt beam="2">  1        4 0.10298434E-01 0.21482609E+03</pdfrwt>
<totfact> 0.30735622E+02</totfact>
</mgrwt>
</event>
<event>
 5    1  0.1490736E-003  0.1883249E+03  0.7818608E-02  0.1159981E+00
         11   -1    0    0    0    0  0.00000000000E+00  0.00000000000E+00  0.10003071260E+04  0.10003071260E+04  0.51100000000E-03 0.  1.
          4   -1    0    0  501    0 -0.00000000000E+00 -0.00000000000E+00 -0.56668866615E+02  0.56686654897E+02  0.14200000000E+01 0. -1.
         11    1    1    2    0    0  0.13660080397E+03 -0.10366975334E+03  0.46983231435E+03  0.50014957863E+03  0.51100000000E-03 0.  1.
         22    1    1    2    0    0  0.54709703101E+02  0.40404532130E+02  0.23365901132E+03  0.24335614108E+03  0.00000000000E+00 0.  1.
          4    1    1    2  501    0 -0.19131050707E+03  0.63265221212E+02  0.24014693374E+03  0.31348806120E+03  0.14200000000E+01 0. -1.
<mgrwt>
<rscale>  0 0.18832490E+03</rscale>
<asrwt>0</asrwt>
<pdfrwt beam="1">  1       11 0.10000000E+01 0.68012336E+02</pdfrwt>
<pdfrwt beam="2">  1        4 0.87224108E-02 0.18832490E+03</pdfrwt>
<totfact> 0.40099239E+02</totfact>
</mgrwt>
</event>
<event>
 5    1  0.1490736E-003  0.1850258E+03  0.7818608E-02  0.1676235E+00
         11   -1    0    0    0    0  0.00000000000E+00  0.00000000000E+00  0.10003974403E+04  0.10003974403E+04  0.51100000000E-03 0.  1.
          4   -1    0    0  501    0 -0.00000000000E+00 -0.00000000000E+00 -0.74530292251E+02  0.74543818409E+02  0.14200000000E+01 0.  1.
         11    1    1    2    0    0 -0.12206239535E+03  0.13562705628E+03  0.43630835397E+03  0.47292589958E+03  0.51100000000E-03 0.  1.
         22    1    1    2    0    0  0.10723497571E+03 -0.15440865645E+03  0.52589398901E+03  0.55848532736E+03  0.00000000000E+00 0.  1.
          4    1    1    2  501    0  0.14827419638E+02  0.18781600176E+02 -0.36335194907E+02  0.43530031785E+02  0.14200000000E+01 0.  1.
<mgrwt>
<rscale>  0 0.23971176E+02</rscale>
<asrwt>0</asrwt>
<pdfrwt beam="1">  1       11 0.10000000E+01 0.18502578E+03</pdfrwt>
<pdfrwt beam="2">  1        4 0.11471874E-01 0.23971176E+02</pdfrwt>
<totfact> 0.17863094E+02</totfact>
</mgrwt>
</event>
<event>
 5    1  0.1490736E-003  0.1932334E+03  0.7818608E-02  0.1155577E+00
         11   -1    0    0    0    0  0.00000000000E+00  0.00000000000E+00  0.10004754815E+04  0.10004754815E+04  0.51100000000E-03 0.  1.
          4   -1    0    0  501    0 -0.00000000000E+00 -0.00000000000E+00 -0.14513140479E+03  0.14513835143E+03  0.14200000000E+01 0.  1.
         11    1    1    2    0    0 -0.64068466300E+02 -0.13433571880E+03  0.35060134276E+03  0.38088338801E+03  0.51100000000E-03 0.  1.
         22    1    1    2    0    0 -0.93050897499E+02  0.10432806614E+01  0.54660855410E+03  0.55447314577E+03  0.00000000000E+00 0.  1.
          4    1    1    2  501    0  0.15711936380E+03  0.13329243814E+03 -0.41865820150E+02  0.21025729914E+03  0.14200000000E+01 0.  1.
<mgrwt>
<rscale>  0 0.19323337E+03</rscale>
<asrwt>0</asrwt>
<pdfrwt beam="1">  1       11 0.10000000E+01 0.93056746E+02</pdfrwt>
<pdfrwt beam="2">  1        4 0.22339136E-01 0.19323337E+03</pdfrwt>
<totfact> 0.77571202E+01</totfact>
</mgrwt>
</event>
<event>
 5    1  0.1490736E-003  0.1189195E+03  0.7818608E-02  0.1250623E+00
         11   -1    0    0    0    0  0.00000000000E+00  0.00000000000E+00  0.10003485536E+04  0.10003485536E+04  0.51100000000E-03 0. -1.
          4   -1    0    0  501    0 -0.00000000000E+00 -0.00000000000E+00 -0.16187913772E+02  0.16250075455E+02  0.14200000000E+01 0. -1.
         11    1    1    2    0    0  0.45678436178E+02  0.89191441093E+02  0.23453275025E+03  0.25504361124E+03  0.51100000000E-03 0. -1.
         22    1    1    2    0    0 -0.61627936848E+00  0.17200735112E+02  0.64785457299E+02  0.67032832002E+02  0.00000000000E+00 0. -1.
          4    1    1    2  501    0 -0.45062156810E+02 -0.10639217621E+03  0.68484243232E+03  0.69452218585E+03  0.14200000000E+01 0. -1.
<mgrwt>
<rscale>  0 0.11555046E+03</rscale>
<asrwt>0</asrwt>
<pdfrwt beam="1">  1       11 0.10000000E+01 0.11891949E+03</pdfrwt>
<pdfrwt beam="2">  1        4 0.24961771E-02 0.11555046E+03</pdfrwt>
<totfact> 0.27823910E+03</totfact>
</mgrwt>
</event>
<event>
 5    1  0.1490736E-003  0.2062542E+03  0.7818608E-02  0.1144567E+00
         11   -1    0    0    0    0  0.00000000000E+00  0.00000000000E+00  0.10002777242E+04  0.10002777242E+04  0.51100000000E-03 0. -1.
          4   -1    0    0  501    0 -0.00000000000E+00 -0.00000000000E+00 -0.10514346939E+03  0.10515305776E+03  0.14200000000E+01 0. -1.
         11    1    1    2    0    0 -0.12381145742E+03  0.13703295124E+03  0.64328303347E+03  0.66926853196E+03  0.51100000000E-03 0. -1.
         22    1    1    2    0    0  0.20927395192E+02  0.47328697011E+02  0.21587122129E+03  0.22198726453E+03  0.00000000000E+00 0. -1.
          4    1    1    2  501    0  0.10288406223E+03 -0.18436164826E+03  0.35980000068E+02  0.21417498550E+03  0.14200000000E+01 0. -1.
<mgrwt>
<rscale>  0 0.20625424E+03</rscale>
<asrwt>0</asrwt>
<pdfrwt beam="1">  1       11 0.10000000E+01 0.51749023E+02</pdfrwt>
<pdfrwt beam="2">  1        4 0.16181226E-01 0.20625424E+03</pdfrwt>
<totfact> 0.13957673E+02</totfact>
</mgrwt>
</event>
<event>
 5    1  0.1490736E-003  0.1980002E+03  0.7818608E-02  0.1159493E+00
         11   -1    0    0    0    0  0.00000000000E+00  0.00000000000E+00  0.10001538288E+04  0.10001538288E+04  0.51100000000E-03 0. -1.
          4   -1    0    0  501    0 -0.00000000000E+00 -0.00000000000E+00 -0.58843607807E+02  0.58860738865E+02  0.14200000000E+01 0.  1.
         11    1    1    2    0    0  0.95938743993E+02 -0.35864518794E+02  0.30758521908E+03  0.32419002653E+03  0.51100000000E-03 0. -1.
         22    1    1    2    0    0  0.83909323367E+02 -0.21765146290E+02  0.48969907667E+03  0.49731245895E+03  0.00000000000E+00 0.  1.
          4    1    1    2  501    0 -0.17984806736E+03  0.57629665084E+02  0.14402592521E+03  0.23751208214E+03  0.14200000000E+01 0.  1.
<mgrwt>
<rscale>  0 0.18886112E+03</rscale>
<asrwt>0</asrwt>
<pdfrwt beam="1">  1       11 0.10000000E+01 0.19800022E+03</pdfrwt>
<pdfrwt beam="2">  1        4 0.90556506E-02 0.18886112E+03</pdfrwt>
<totfact> 0.37663174E+02</totfact>
</mgrwt>
</event>
<event>
 5    1  0.1490736E-003  0.1376235E+03  0.7818608E-02  0.1231892E+00
         11   -1    0    0    0    0  0.00000000000E+00  0.00000000000E+00  0.10000464418E+04  0.10000464418E+04  0.51100000000E-03 0.  1.
         -4   -1    0    0    0  501 -0.00000000000E+00 -0.00000000000E+00 -0.18709975934E+02  0.18763784252E+02  0.14200000000E+01 0. -1.
         11    1    1    2    0    0  0.42941416782E+02  0.79689310279E+02  0.40962426152E+03  0.41950731469E+03  0.51100000000E-03 0.  1.
         22    1    1    2    0    0  0.45609658164E+02  0.11413614309E+02  0.22948005284E+03  0.23424689147E+03  0.00000000000E+00 0.  1.
         -4    1    1    2    0  501 -0.88551074946E+02 -0.91102924587E+02  0.34223215149E+03  0.36505601989E+03  0.14200000000E+01 0. -1.
<mgrwt>
<rscale>  0 0.12705531E+03</rscale>
<asrwt>0</asrwt>
<pdfrwt beam="1">  1       11 0.10000000E+01 0.13762354E+03</pdfrwt>
<pdfrwt beam="2">  1       -4 0.28828083E-02 0.12705531E+03</pdfrwt>
<totfact> 0.22623320E+03</totfact>
</mgrwt>
</event>
<event>
 5    1  0.1490736E-003  0.2304192E+03  0.7818608E-02  0.1128299E+00
         11   -1    0    0    0    0  0.00000000000E+00  0.00000000000E+00  0.10000949363E+04  0.10000949363E+04  0.51100000000E-03 0. -1.
         -4   -1    0    0    0  501 -0.00000000000E+00 -0.00000000000E+00 -0.50036245212E+03  0.50036446705E+03  0.14200000000E+01 0.  1.
         11    1    1    2    0    0  0.22017358423E+02  0.26146370116E+03  0.25422334281E+03  0.36534578022E+03  0.51100000000E-03 0. -1.
         22    1    1    2    0    0 -0.21002237095E+03 -0.13308898417E+03  0.63612863084E+03  0.68299466249E+03  0.00000000000E+00 0. -1.
         -4    1    1    2    0  501  0.18800501253E+03 -0.12837471699E+03 -0.39061948942E+03  0.45211896069E+03  0.14200000000E+01 0.  1.
<mgrwt>
<rscale>  0 0.22765757E+03</rscale>
<asrwt>0</asrwt>
<pdfrwt beam="1">  1       11 0.10000000E+01 0.23041921E+03</pdfrwt>
<pdfrwt beam="2">  1       -4 0.76986377E-01 0.22765757E+03</pdfrwt>
<totfact> 0.65446524E+00</totfact>
</mgrwt>
</event>
<event>
 5    1  0.1490736E-003  0.6129706E+02  0.7818608E-02  0.1467133E+00
         11   -1    0    0    0    0  0.00000000000E+00  0.00000000000E+00  0.10002994195E+04  0.10002994195E+04  0.51100000000E-03 0.  1.
          4   -1    0    0  501    0 -0.00000000000E+00 -0.00000000000E+00 -0.11801982547E+02  0.11887101919E+02  0.14200000000E+01 0.  1.
         11    1    1    2    0    0  0.39699290582E+02 -0.24799969626E+02  0.56475637050E+02  0.73352367014E+02  0.51100000000E-03 0.  1.
         22    1    1    2    0    0 -0.10979921759E+02 -0.32996374041E+02  0.14266708997E+03  0.14684419615E+03  0.00000000000E+00 0.  1.
          4    1    1    2  501    0 -0.28719368823E+02  0.57796343667E+02  0.78935470997E+03  0.79198995829E+03  0.14200000000E+01 0.  1.
<mgrwt>
<rscale>  0 0.46175671E+02</rscale>
<asrwt>0</asrwt>
<pdfrwt beam="1">  1       11 0.10000000E+01 0.61297059E+02</pdfrwt>
<pdfrwt beam="2">  1        4 0.18228604E-02 0.46175671E+02</pdfrwt>
<totfact> 0.36660187E+03</totfact>
</mgrwt>
</event>
<event>
 5    1  0.1490736E-003  0.1841105E+03  0.7818608E-02  0.1169935E+00
         11   -1    0    0    0    0  0.00000000000E+00  0.00000000000E+00  0.10004164147E+04  0.10004164147E+04  0.51100000000E-03 0.  1.
         -4   -1    0    0    0  501 -0.00000000000E+00 -0.00000000000E+00 -0.12248201880E+03  0.12249024994E+03  0.14200000000E+01 0. -1.
         11    1    1    2    0    0  0.10546718161E+03  0.90614682387E+02  0.77563821820E+03  0.78800316788E+03  0.51100000000E-03 0.  1.
         22    1    1    2    0    0  0.17392137343E+02  0.37921560047E+02  0.14596095943E+03  0.15180623451E+03  0.00000000000E+00 0.  1.
         -4    1    1    2    0  501 -0.12285931895E+03 -0.12853624243E+03 -0.43664781748E+02  0.18309726223E+03  0.14200000000E+01 0. -1.
<mgrwt>
<rscale>  0 0.17781449E+03</rscale>
<asrwt>0</asrwt>
<pdfrwt beam="1">  1       11 0.10000000E+01 0.18411048E+03</pdfrwt>
<pdfrwt beam="2">  1       -4 0.18851945E-01 0.17781449E+03</pdfrwt>
<totfact> 0.10476734E+02</totfact>
</mgrwt>
</event>
<event>
 5    1  0.1490736E-003  0.4372041E+02  0.7818608E-02  0.1727818E+00
         11   -1    0    0    0    0  0.00000000000E+00  0.00000000000E+00  0.10001638481E+04  0.10001638481E+04  0.51100000000E-03 0. -1.
          4   -1    0    0  501    0 -0.00000000000E+00 -0.00000000000E+00 -0.40313783091E+01  0.42741561824E+01  0.14200000000E+01 0. -1.
         11    1    1    2    0    0 -0.33442268298E+02  0.44864627978E+02  0.33807624872E+03  0.34267589658E+03  0.51100000000E-03 0. -1.
         22    1    1    2    0    0  0.20708919902E+02 -0.28339942488E+02  0.18847101115E+03  0.19171159002E+03  0.00000000000E+00 0.  1.
          4    1    1    2  501    0  0.12733348396E+02 -0.16524685489E+02  0.46958520996E+03  0.47005051772E+03  0.14200000000E+01 0. -1.
<mgrwt>
<rscale>  0 0.20909801E+02</rscale>
<asrwt>0</asrwt>
<pdfrwt beam="1">  1       11 0.10000000E+01 0.43720415E+02</pdfrwt>
<pdfrwt beam="2">  1        4 0.63906948E-03 0.20909801E+02</pdfrwt>
<totfact> 0.12953674E+04</totfact>
</mgrwt>
</event>
<event>
 5    1  0.1490736E-003  0.1660016E+03  0.7818608E-02  0.1182083E+00
         11   -1    0    0    0    0  0.00000000000E+00  0.00000000000E+00  0.10000158844E+04  0.10000158844E+04  0.51100000000E-03 0. -1.
         -4   -1    0    0    0  501 -0.00000000000E+00 -0.00000000000E+00 -0.62776246112E+02  0.62792304273E+02  0.14200000000E+01 0.  1.
         11    1    1    2    0    0 -0.13898013083E+03  0.68849937525E+02  0.78233863838E+03  0.79756475334E+03  0.51100000000E-03 0. -1.
         22    1    1    2    0    0 -0.12806729781E+01  0.23599293312E+02  0.76100939984E+02  0.79686384249E+02  0.00000000000E+00 0. -1.
         -4    1    1    2    0  501  0.14026080381E+03 -0.92449230837E+02  0.78800059945E+02  0.18555705111E+03  0.14200000000E+01 0.  1.
<mgrwt>
<rscale>  0 0.16600155E+03</rscale>
<asrwt>0</asrwt>
<pdfrwt beam="1">  1       11 0.10000000E+01 0.23634017E+02</pdfrwt>
<pdfrwt beam="2">  1       -4 0.96593500E-02 0.16600155E+03</pdfrwt>
<totfact> 0.33263063E+02</totfact>
</mgrwt>
</event>
<event>
 5    1  0.1490736E-003  0.6000357E+02  0.7818608E-02  0.1416573E+00
         11   -1    0    0    0    0  0.00000000000E+00  0.00000000000E+00  0.10001130111E+04  0.10001130111E+04  0.51100000000E-03 0. -1.
          4   -1    0    0  501    0 -0.00000000000E+00 -0.00000000000E+00 -0.68153397122E+01  0.69616991743E+01  0.14200000000E+01 0. -1.
         11    1    1    2    0    0 -0.37645768065E+02 -0.22484496796E+02  0.93354901414E+02  0.10314016709E+03  0.51100000000E-03 0. -1.
         22    1    1    2    0    0 -0.14688246843E+02  0.33147453626E+01  0.51347814340E+02  0.53510094091E+02  0.00000000000E+00 0. -1.
          4    1    1    2  501    0  0.52334014907E+02  0.19169751433E+02  0.84859495560E+03  0.85042444905E+03  0.14200000000E+01 0. -1.
<mgrwt>
<rscale>  0 0.55752533E+02</rscale>
<asrwt>0</asrwt>
<pdfrwt beam="1">  1       11 0.10000000E+01 0.60003570E+02</pdfrwt>
<pdfrwt beam="2">  1        4 0.10599695E-02 0.55752533E+02</pdfrwt>
<totfact> 0.86346083E+03</totfact>
</mgrwt>
</event>
<event>
 5    1  0.1490736E-003  0.1054355E+03  0.7818608E-02  0.1649967E+00
         11   -1    0    0    0    0  0.00000000000E+00  0.00000000000E+00  0.10003382931E+04  0.10003382931E+04  0.51100000000E-03 0.  1.
         -4   -1    0    0    0  501 -0.00000000000E+00 -0.00000000000E+00 -0.40820132296E+02  0.40844823426E+02  0.14200000000E+01 0.  1.
         11    1    1    2    0    0  0.64090005852E+02  0.71261290423E+02  0.48593304080E+03  0.49529447857E+03  0.51100000000E-03 0.  1.
         22    1    1    2    0    0 -0.86850945661E+02 -0.83295546349E+02  0.49681559667E+03  0.51118193620E+03  0.00000000000E+00 0.  1.
         -4    1    1    2    0  501  0.22760939809E+02  0.12034255926E+02 -0.23230476698E+02  0.34706701720E+02  0.14200000000E+01 0.  1.
<mgrwt>
<rscale>  0 0.25785657E+02</rscale>
<asrwt>0</asrwt>
<pdfrwt beam="1">  1       11 0.10000000E+01 0.10543546E+03</pdfrwt>
<pdfrwt beam="2">  1       -4 0.62841222E-02 0.25785657E+02</pdfrwt>
<totfact> 0.47475902E+02</totfact>
</mgrwt>
</event>
<event>
 5    1  0.1490736E-003  0.1970542E+03  0.7818608E-02  0.1152248E+00
         11   -1    0    0    0    0  0.00000000000E+00  0.00000000000E+00  0.99958833244E+03  0.99958833244E+03  0.51100000000E-03 0. -1.
          4   -1    0    0  501    0 -0.00000000000E+00 -0.00000000000E+00 -0.60600009900E+03  0.60600176269E+03  0.14200000000E+01 0. -1.
         11    1    1    2    0    0  0.25480002950E+03 -0.40806014684E+02  0.79367680198E+03  0.83457237665E+03  0.51100000000E-03 0. -1.
         22    1    1    2    0    0 -0.60243569461E+02  0.18638380276E+02  0.16304160843E+03  0.17481202178E+03  0.00000000000E+00 0. -1.
          4    1    1    2  501    0 -0.19455646004E+03  0.22167634408E+02 -0.56313017697E+03  0.59620569670E+03  0.14200000000E+01 0. -1.
<mgrwt>
<rscale>  0 0.19705416E+03</rscale>
<asrwt>0</asrwt>
<pdfrwt beam="1">  1       11 0.10000000E+01 0.63060898E+02</pdfrwt>
<pdfrwt beam="2">  1        4 0.93192607E-01 0.19705416E+03</pdfrwt>
<totfact> 0.42342299E+00</totfact>
</mgrwt>
</event>
<event>
 5    1  0.1490736E-003  0.1487357E+03  0.7818608E-02  0.1202035E+00
         11   -1    0    0    0    0  0.00000000000E+00  0.00000000000E+00  0.10002081826E+04  0.10002081826E+04  0.51100000000E-03 0. -1.
          4   -1    0    0  501    0 -0.00000000000E+00 -0.00000000000E+00 -0.55966015923E+02  0.55984027529E+02  0.14200000000E+01 0. -1.
         11    1    1    2    0    0 -0.11863729003E+03  0.81934662181E+02  0.73476559949E+03  0.74877805901E+03  0.51100000000E-03 0. -1.
         22    1    1    2    0    0  0.31626716474E+02  0.41302774678E+02  0.12293746644E+03  0.13349078262E+03  0.00000000000E+00 0. -1.
          4    1    1    2  501    0  0.87010573557E+02 -0.12323743686E+03  0.86539100758E+02  0.17392336851E+03  0.14200000000E+01 0. -1.
<mgrwt>
<rscale>  0 0.14873568E+03</rscale>
<asrwt>0</asrwt>
<pdfrwt beam="1">  1       11 0.10000000E+01 0.52020846E+02</pdfrwt>
<pdfrwt beam="2">  1        4 0.86134119E-02 0.14873568E+03</pdfrwt>
<totfact> 0.39763879E+02</totfact>
</mgrwt>
</event>
<event>
 5    1  0.1490736E-003  0.4933484E+02  0.7818608E-02  0.1448963E+00
         11   -1    0    0    0    0  0.00000000000E+00  0.00000000000E+00  0.10000989784E+04  0.10000989784E+04  0.51100000000E-03 0. -1.
          4   -1    0    0  501    0 -0.00000000000E+00 -0.00000000000E+00 -0.72804497084E+01  0.74176376264E+01  0.14200000000E+01 0. -1.
         11    1    1    2    0    0 -0.43314717196E+02 -0.87379925676E+01  0.15805996552E+03  0.16412029107E+03  0.51100000000E-03 0. -1.
         22    1    1    2    0    0 -0.12211901271E+02 -0.42202980415E+02  0.25460562142E+03  0.25836842792E+03  0.00000000000E+00 0. -1.
          4    1    1    2  501    0  0.55526618467E+02  0.50940972982E+02  0.58015294171E+03  0.58502789699E+03  0.14200000000E+01 0. -1.
<mgrwt>
<rscale>  0 0.49334842E+02</rscale>
<asrwt>0</asrwt>
<pdfrwt beam="1">  1       11 0.10000000E+01 0.43934293E+02</pdfrwt>
<pdfrwt beam="2">  1        4 0.11308115E-02 0.49334842E+02</pdfrwt>
<totfact> 0.75904979E+03</totfact>
</mgrwt>
</event>
<event>
 5    1  0.1490736E-003  0.1235859E+03  0.7818608E-02  0.1243584E+00
         11   -1    0    0    0    0  0.00000000000E+00  0.00000000000E+00  0.10000504176E+04  0.10000504176E+04  0.51100000000E-03 0.  1.
         -4   -1    0    0    0  501 -0.00000000000E+00 -0.00000000000E+00 -0.15988862279E+02  0.16051794821E+02  0.14200000000E+01 0. -1.
         11    1    1    2    0    0  0.28043084333E+02  0.95900400949E+02  0.55933463488E+03  0.56818882007E+03  0.51100000000E-03 0.  1.
         22    1    1    2    0    0 -0.48451992129E+01  0.21527120764E+02  0.80351906984E+02  0.83326597433E+02  0.00000000000E+00 0.  1.
         -4    1    1    2    0  501 -0.23197885120E+02 -0.11742752171E+03  0.34437501342E+03  0.36458679488E+03  0.14200000000E+01 0. -1.
<mgrwt>
<rscale>  0 0.11970539E+03</rscale>
<asrwt>0</asrwt>
<pdfrwt beam="1">  1       11 0.10000000E+01 0.12358587E+03</pdfrwt>
<pdfrwt beam="2">  1       -4 0.24648677E-02 0.11970539E+03</pdfrwt>
<totfact> 0.28557058E+03</totfact>
</mgrwt>
</event>
<event>
 5    1  0.1606018E-003  0.1965289E+03  0.7818608E-02  0.1154323E+00
         11   -1    0    0    0    0  0.00000000000E+00  0.00000000000E+00  0.10003619329E+04  0.10003619329E+04  0.51100000000E-03 0. -1.
         -4   -1    0    0    0  501 -0.00000000000E+00 -0.00000000000E+00 -0.63512964898E+02  0.63528836839E+02  0.14200000000E+01 0. -1.
         11    1    1    2    0    0  0.16973913866E+03  0.47293280994E+02  0.69611959452E+03  0.71807417409E+03  0.51100000000E-03 0. -1.
         22    1    1    2    0    0  0.16176791932E+02  0.10381161941E+02  0.10921364214E+03  0.11089218525E+03  0.00000000000E+00 0.  1.
         -4    1    1    2    0  501 -0.18591593059E+03 -0.57674442935E+02  0.13151573137E+03  0.23492441042E+03  0.14200000000E+01 0. -1.
<mgrwt>
<rscale>  0 0.19466148E+03</rscale>
<asrwt>0</asrwt>
<pdfrwt beam="1">  1       11 0.10000000E+01 0.19652889E+03</pdfrwt>
<pdfrwt beam="2">  1       -4 0.97760605E-02 0.19466148E+03</pdfrwt>
<totfact> 0.33213297E+02</totfact>
</mgrwt>
</event>
<event>
 5    1  0.1490736E-003  0.3035141E+03  0.7818608E-02  0.1093271E+00
         11   -1    0    0    0    0  0.00000000000E+00  0.00000000000E+00  0.10000293755E+04  0.10000293755E+04  0.51100000000E-03 0. -1.
         -4   -1    0    0    0  501 -0.00000000000E+00 -0.00000000000E+00 -0.14259375028E+03  0.14260082054E+03  0.14200000000E+01 0.  1.
         11    1    1    2    0    0 -0.14032036434E+03 -0.40668689882E+02  0.27471032204E+03  0.31114226331E+03  0.51100000000E-03 0. -1.
         22    1    1    2    0    0 -0.14302178215E+03  0.15369684999E+02  0.52087048223E+03  0.54036794561E+03  0.00000000000E+00 0.  1.
         -4    1    1    2    0  501  0.28334214648E+03  0.25299004883E+02  0.61854820958E+02  0.29111998711E+03  0.14200000000E+01 0.  1.
<mgrwt>
<rscale>  0 0.28447290E+03</rscale>
<asrwt>0</asrwt>
<pdfrwt beam="1">  1       11 0.10000000E+01 0.30351412E+03</pdfrwt>
<pdfrwt beam="2">  1       -4 0.21938765E-01 0.28447290E+03</pdfrwt>
<totfact> 0.82734040E+01</totfact>
</mgrwt>
</event>
<event>
 5    1  0.1490736E-003  0.4869308E+02  0.7818608E-02  0.1456909E+00
         11   -1    0    0    0    0  0.00000000000E+00  0.00000000000E+00  0.10002558160E+04  0.10002558160E+04  0.51100000000E-03 0.  1.
          4   -1    0    0  501    0 -0.00000000000E+00 -0.00000000000E+00 -0.34519312196E+01  0.37325901389E+01  0.14200000000E+01 0.  1.
         11    1    1    2    0    0  0.60268662566E+01  0.36841929229E+02  0.14271056015E+03  0.14751255826E+03  0.51100000000E-03 0.  1.
         22    1    1    2    0    0 -0.39759550852E+00  0.10722628277E+02  0.61017723739E+02  0.61953978482E+02  0.00000000000E+00 0. -1.
          4    1    1    2  501    0 -0.56292707480E+01 -0.47564557506E+02  0.79307560087E+03  0.79452186938E+03  0.14200000000E+01 0.  1.
<mgrwt>
<rscale>  0 0.47917556E+02</rscale>
<asrwt>0</asrwt>
<pdfrwt beam="1">  1       11 0.10000000E+01 0.48693083E+02</pdfrwt>
<pdfrwt beam="2">  1        4 0.55287441E-03 0.47917556E+02</pdfrwt>
<totfact> 0.21428426E+04</totfact>
</mgrwt>
</event>
<event>
 5    1  0.1490736E-003  0.9917225E+02  0.7818608E-02  0.1290799E+00
         11   -1    0    0    0    0  0.00000000000E+00  0.00000000000E+00  0.10000443200E+04  0.10000443200E+04  0.51100000000E-03 0. -1.
          4   -1    0    0  501    0 -0.00000000000E+00 -0.00000000000E+00 -0.97018059370E+01  0.98051740647E+01  0.14200000000E+01 0. -1.
         11    1    1    2    0    0  0.84113938769E+02 -0.19110651590E+02  0.36972205449E+03  0.37965085180E+03  0.51100000000E-03 0. -1.
         22    1    1    2    0    0  0.60985682322E+01 -0.11164639396E+02  0.44981111667E+02  0.46745503678E+02  0.00000000000E+00 0. -1.
          4    1    1    2  501    0 -0.90212507001E+02  0.30275290986E+02  0.57563934791E+03  0.58345313859E+03  0.14200000000E+01 0. -1.
<mgrwt>
<rscale>  0 0.95167778E+02</rscale>
<asrwt>0</asrwt>
<pdfrwt beam="1">  1       11 0.10000000E+01 0.99172254E+02</pdfrwt>
<pdfrwt beam="2">  1        4 0.15006809E-02 0.95167778E+02</pdfrwt>
<totfact> 0.58332543E+03</totfact>
</mgrwt>
</event>
<event>
 5    1  0.1490736E-003  0.1228339E+03  0.7818608E-02  0.1480600E+00
         11   -1    0    0    0    0  0.00000000000E+00  0.00000000000E+00  0.10005213636E+04  0.10005213636E+04  0.51100000000E-03 0.  1.
          4   -1    0    0  501    0 -0.00000000000E+00 -0.00000000000E+00 -0.44527946726E+02  0.44550582933E+02  0.14200000000E+01 0. -1.
         11    1    1    2    0    0 -0.12315676885E+03  0.42566777777E+02  0.31630801748E+03  0.34209689009E+03  0.51100000000E-03 0.  1.
         22    1    1    2    0    0  0.94967524514E+02 -0.76337836126E+02  0.64698715644E+03  0.65836059765E+03  0.00000000000E+00 0.  1.
          4    1    1    2  501    0  0.28189244333E+02  0.33771058348E+02 -0.73017570473E+01  0.44614458800E+02  0.14200000000E+01 0. -1.
<mgrwt>
<rscale>  0 0.44012888E+02</rscale>
<asrwt>0</asrwt>
<pdfrwt beam="1">  1       11 0.10000000E+01 0.12283395E+03</pdfrwt>
<pdfrwt beam="2">  1        4 0.68558444E-02 0.44012888E+02</pdfrwt>
<totfact> 0.47099123E+02</totfact>
</mgrwt>
</event>
<event>
 5    1  0.1490736E-003  0.1671016E+03  0.7818608E-02  0.1184302E+00
         11   -1    0    0    0    0  0.00000000000E+00  0.00000000000E+00  0.10002619064E+04  0.10002619064E+04  0.51100000000E-03 0. -1.
          4   -1    0    0  501    0 -0.00000000000E+00 -0.00000000000E+00 -0.34248404625E+02  0.34277829852E+02  0.14200000000E+01 0. -1.
         11    1    1    2    0    0  0.14009386866E+03  0.14216656049E+02  0.63459409615E+03  0.65002928566E+03  0.51100000000E-03 0. -1.
         22    1    1    2    0    0  0.21523772641E+02  0.13335229752E+02  0.83714186659E+02  0.87459511714E+02  0.00000000000E+00 0. -1.
          4    1    1    2  501    0 -0.16161764130E+03 -0.27551885801E+02  0.24770521899E+03  0.29705093891E+03  0.14200000000E+01 0. -1.
<mgrwt>
<rscale>  0 0.16395544E+03</rscale>
<asrwt>0</asrwt>
<pdfrwt beam="1">  1       11 0.10000000E+01 0.16710158E+03</pdfrwt>
<pdfrwt beam="2">  1        4 0.52727068E-02 0.16395544E+03</pdfrwt>
<totfact> 0.90237560E+02</totfact>
</mgrwt>
</event>
<event>
 5    1  0.1490736E-003  0.4007766E+02  0.7818608E-02  0.1507641E+00
         11   -1    0    0    0    0  0.00000000000E+00  0.00000000000E+00  0.10001771335E+04  0.10001771335E+04  0.51100000000E-03 0. -1.
          4   -1    0    0  501    0 -0.00000000000E+00 -0.00000000000E+00 -0.93329113999E+01  0.94403196555E+01  0.14200000000E+01 0. -1.
         11    1    1    2    0    0  0.13742209220E+02 -0.66324885559E+01  0.70361138129E+01  0.16803128177E+02  0.51100000000E-03 0. -1.
         22    1    1    2    0    0  0.20730974218E+02  0.34074185875E+02  0.96580994356E+02  0.10449264044E+03  0.00000000000E+00 0. -1.
          4    1    1    2  501    0 -0.34473183438E+02 -0.27441697319E+02  0.88722711390E+03  0.88832168451E+03  0.14200000000E+01 0. -1.
<mgrwt>
<rscale>  0 0.40077665E+02</rscale>
<asrwt>0</asrwt>
<pdfrwt beam="1">  1       11 0.10000000E+01 0.15259045E+02</pdfrwt>
<pdfrwt beam="2">  1        4 0.14444280E-02 0.40077665E+02</pdfrwt>
<totfact> 0.49840568E+03</totfact>
</mgrwt>
</event>
<event>
 5    1  0.1490736E-003  0.7618004E+02  0.7818608E-02  0.1448667E+00
         11   -1    0    0    0    0  0.00000000000E+00  0.00000000000E+00  0.10001211504E+04  0.10001211504E+04  0.51100000000E-03 0. -1.
         -4   -1    0    0    0  501 -0.00000000000E+00 -0.00000000000E+00 -0.10402246444E+02  0.10498720449E+02  0.14200000000E+01 0.  1.
         11    1    1    2    0    0  0.42320556259E+02  0.50377743801E+02  0.39088299612E+03  0.39638171402E+03  0.51100000000E-03 0. -1.
         22    1    1    2    0    0  0.31614873592E+02  0.50383000926E+01  0.64920293381E+02  0.72384592233E+02  0.00000000000E+00 0.  1.
         -4    1    1    2    0  501 -0.73935429851E+02 -0.55416043893E+02  0.53391561445E+03  0.54185356459E+03  0.14200000000E+01 0.  1.
<mgrwt>
<rscale>  0 0.49388639E+02</rscale>
<asrwt>0</asrwt>
<pdfrwt beam="1">  1       11 0.10000000E+01 0.76180038E+02</pdfrwt>
<pdfrwt beam="2">  1       -4 0.16080390E-02 0.49388639E+02</pdfrwt>
<totfact> 0.45013621E+03</totfact>
</mgrwt>
</event>
<event>
 5    1  0.1490736E-003  0.3854315E+02  0.7818608E-02  0.1519214E+00
         11   -1    0    0    0    0  0.00000000000E+00  0.00000000000E+00  0.10001134659E+04  0.10001134659E+04  0.51100000000E-03 0. -1.
          4   -1    0    0  501    0 -0.00000000000E+00 -0.00000000000E+00 -0.25123253150E+01  0.28858583625E+01  0.14200000000E+01 0. -1.
         11    1    1    2    0    0  0.82661322831E+01  0.82408906498E+01  0.64704900338E+02  0.65749261209E+02  0.51100000000E-03 0. -1.
         22    1    1    2    0    0 -0.40301901352E+02  0.24506422536E+01  0.22826179407E+03  0.23180529660E+03  0.00000000000E+00 0. -1.
          4    1    1    2  501    0  0.32035769069E+02 -0.10691532903E+02  0.70463444616E+03  0.70544476643E+03  0.14200000000E+01 0. -1.
<mgrwt>
<rscale>  0 0.38543145E+02</rscale>
<asrwt>0</asrwt>
<pdfrwt beam="1">  1       11 0.10000000E+01 0.11672247E+02</pdfrwt>
<pdfrwt beam="2">  1        4 0.41536956E-03 0.38543145E+02</pdfrwt>
<totfact> 0.30143896E+04</totfact>
</mgrwt>
</event>
<event>
 5    1  0.1490736E-003  0.1797555E+03  0.7818608E-02  0.1181211E+00
         11   -1    0    0    0    0  0.00000000000E+00  0.00000000000E+00  0.10000011143E+04  0.10000011143E+04  0.51100000000E-03 0. -1.
          4   -1    0    0  501    0 -0.00000000000E+00 -0.00000000000E+00 -0.33398926172E+02  0.33429099142E+02  0.14200000000E+01 0. -1.
         11    1    1    2    0    0 -0.11635290032E+03  0.21815490588E+02  0.41538526716E+03  0.43192456889E+03  0.51100000000E-03 0. -1.
         22    1    1    2    0    0 -0.33887809510E+02  0.50661610742E+02  0.24853414576E+03  0.25589881603E+03  0.00000000000E+00 0. -1.
          4    1    1    2  501    0  0.15024070983E+03 -0.72477101331E+02  0.30268277519E+03  0.34560682850E+03  0.14200000000E+01 0. -1.
<mgrwt>
<rscale>  0 0.16681492E+03</rscale>
<asrwt>0</asrwt>
<pdfrwt beam="1">  1       11 0.10000000E+01 0.17975545E+03</pdfrwt>
<pdfrwt beam="2">  1        4 0.51407005E-02 0.16681492E+03</pdfrwt>
<totfact> 0.94244939E+02</totfact>
</mgrwt>
</event>
<event>
 5    1  0.1490736E-003  0.4374116E+02  0.7818608E-02  0.1488647E+00
         11   -1    0    0    0    0  0.00000000000E+00  0.00000000000E+00  0.10001962526E+04  0.10001962526E+04  0.51100000000E-03 0. -1.
          4   -1    0    0  501    0 -0.00000000000E+00 -0.00000000000E+00 -0.31176134210E+01  0.34257719484E+01  0.14200000000E+01 0. -1.
         11    1    1    2    0    0  0.12028196555E+02  0.22338747449E+02  0.84470412012E+02  0.88198342704E+02  0.51100000000E-03 0. -1.
         22    1    1    2    0    0  0.10360749127E+02  0.14095766347E+02  0.88898476995E+02  0.90603393775E+02  0.00000000000E+00 0.  1.
          4    1    1    2  501    0 -0.22388945682E+02 -0.36434513796E+02  0.82370975013E+03  0.82482028802E+03  0.14200000000E+01 0. -1.
<mgrwt>
<rscale>  0 0.42787324E+02</rscale>
<asrwt>0</asrwt>
<pdfrwt beam="1">  1       11 0.10000000E+01 0.43741162E+02</pdfrwt>
<pdfrwt beam="2">  1        4 0.50351366E-03 0.42787324E+02</pdfrwt>
<totfact> 0.23672575E+04</totfact>
</mgrwt>
</event>
<event>
 5    1  0.1490736E-003  0.1569107E+03  0.7818608E-02  0.1197536E+00
         11   -1    0    0    0    0  0.00000000000E+00  0.00000000000E+00  0.10001834156E+04  0.10001834156E+04  0.51100000000E-03 0. -1.
         -4   -1    0    0    0  501 -0.00000000000E+00 -0.00000000000E+00 -0.46966254490E+02  0.46987716063E+02  0.14200000000E+01 0.  1.
         11    1    1    2    0    0  0.55941837887E+02 -0.92066367669E+02  0.63984133861E+03  0.64884716526E+03  0.51100000000E-03 0. -1.
         22    1    1    2    0    0  0.57968980991E+01 -0.47277761390E+02  0.20711965921E+03  0.21252610189E+03  0.00000000000E+00 0.  1.
         -4    1    1    2    0  501 -0.61738735987E+02  0.13934412906E+03  0.10625616331E+03  0.18579786454E+03  0.14200000000E+01 0.  1.
<mgrwt>
<rscale>  0 0.15241547E+03</rscale>
<asrwt>0</asrwt>
<pdfrwt beam="1">  1       11 0.10000000E+01 0.15691072E+03</pdfrwt>
<pdfrwt beam="2">  1       -4 0.72286314E-02 0.15241547E+03</pdfrwt>
<totfact> 0.53352977E+02</totfact>
</mgrwt>
</event>
<event>
 5    1  0.1490736E-003  0.1032416E+03  0.7818608E-02  0.1276422E+00
         11   -1    0    0    0    0  0.00000000000E+00  0.00000000000E+00  0.10001823004E+04  0.10001823004E+04  0.51100000000E-03 0. -1.
         -4   -1    0    0    0  501 -0.00000000000E+00 -0.00000000000E+00 -0.11495425215E+02  0.11582797627E+02  0.14200000000E+01 0. -1.
         11    1    1    2    0    0 -0.81174011144E+02  0.41547168843E+02  0.32451510509E+03  0.33708372960E+03  0.51100000000E-03 0. -1.
         22    1    1    2    0    0 -0.87869923501E+01  0.62180430855E+01  0.22132701257E+02  0.24611618381E+02  0.00000000000E+00 0. -1.
         -4    1    1    2    0  501  0.89961003494E+02 -0.47765211929E+02  0.64203906882E+03  0.65006975004E+03  0.14200000000E+01 0. -1.
<mgrwt>
<rscale>  0 0.10186518E+03</rscale>
<asrwt>0</asrwt>
<pdfrwt beam="1">  1       11 0.10000000E+01 0.10324158E+03</pdfrwt>
<pdfrwt beam="2">  1       -4 0.17756490E-02 0.10186518E+03</pdfrwt>
<totfact> 0.45821080E+03</totfact>
</mgrwt>
</event>
<event>
 5    1  0.1490736E-003  0.2571801E+02  0.7818608E-02  0.1650898E+00
         11   -1    0    0    0    0  0.00000000000E+00  0.00000000000E+00  0.10002161319E+04  0.10002161319E+04  0.51100000000E-03 0.  1.
          4   -1    0    0  501    0 -0.00000000000E+00 -0.00000000000E+00 -0.26004183984E+01  0.29628661541E+01  0.14200000000E+01 0.  1.
         11    1    1    2    0    0 -0.56776316508E+01  0.26377059378E+02  0.13480868566E+03  0.13748224064E+03  0.51100000000E-03 0.  1.
         22    1    1    2    0    0  0.25142048586E+02 -0.79718284834E+01  0.14440155569E+03  0.14679060577E+03  0.00000000000E+00 0.  1.
          4    1    1    2  501    0 -0.19464416935E+02 -0.18405230895E+02  0.71840547212E+03  0.71890615161E+03  0.14200000000E+01 0.  1.
<mgrwt>
<rscale>  0 0.25718005E+02</rscale>
<asrwt>0</asrwt>
<pdfrwt beam="1">  1       11 0.10000000E+01 0.25036574E+02</pdfrwt>
<pdfrwt beam="2">  1        4 0.42811500E-03 0.25718005E+02</pdfrwt>
<totfact> 0.24871215E+04</totfact>
</mgrwt>
</event>
<event>
 5    1  0.1490736E-003  0.6501165E+02  0.7818608E-02  0.1394399E+00
         11   -1    0    0    0    0  0.00000000000E+00  0.00000000000E+00  0.10002430992E+04  0.10002430992E+04  0.51100000000E-03 0. -1.
          4   -1    0    0  501    0 -0.00000000000E+00 -0.00000000000E+00 -0.54148662845E+01  0.55979618505E+01  0.14200000000E+01 0. -1.
         11    1    1    2    0    0  0.26243985087E+02  0.31181787549E+02  0.13847548037E+03  0.14434856872E+03  0.51100000000E-03 0. -1.
         22    1    1    2    0    0  0.23498760306E+02  0.37955398719E+01  0.10419693094E+03  0.10688123444E+03  0.00000000000E+00 0. -1.
          4    1    1    2  501    0 -0.49742745393E+02 -0.34977327421E+02  0.75215582160E+03  0.75461125788E+03  0.14200000000E+01 0. -1.
<mgrwt>
<rscale>  0 0.60825739E+02</rscale>
<asrwt>0</asrwt>
<pdfrwt beam="1">  1       11 0.10000000E+01 0.65011651E+02</pdfrwt>
<pdfrwt beam="2">  1        4 0.84742409E-03 0.60825739E+02</pdfrwt>
<totfact> 0.12297249E+04</totfact>
</mgrwt>
</event>
<event>
 5    1  0.2848867E-003  0.3472135E+03  0.7818608E-02  0.1064531E+00
         11   -1    0    0    0    0  0.00000000000E+00  0.00000000000E+00  0.10001616870E+04  0.10001616870E+04  0.51100000000E-03 0.  1.
         -4   -1    0    0    0  501 -0.00000000000E+00 -0.00000000000E+00 -0.25567557320E+03  0.25567951645E+03  0.14200000000E+01 0. -1.
         11    1    1    2    0    0  0.12192347567E+03 -0.31070795822E+03  0.78211727702E+03  0.85036004388E+03  0.51100000000E-03 0.  1.
         22    1    1    2    0    0  0.64890243354E+01 -0.98996551183E+01  0.48177397885E+02  0.49610203338E+02  0.00000000000E+00 0.  1.
         -4    1    1    2    0  501 -0.12841250001E+03  0.32060761333E+03 -0.85808561147E+02  0.35587095618E+03  0.14200000000E+01 0. -1.
<mgrwt>
<rscale>  0 0.34537086E+03</rscale>
<asrwt>0</asrwt>
<pdfrwt beam="1">  1       11 0.10000000E+01 0.34721348E+03</pdfrwt>
<pdfrwt beam="2">  1       -4 0.39341443E-01 0.34537086E+03</pdfrwt>
<totfact> 0.27331481E+01</totfact>
</mgrwt>
</event>
<event>
 5    1  0.1490736E-003  0.1674612E+03  0.7818608E-02  0.1183457E+00
         11   -1    0    0    0    0  0.00000000000E+00  0.00000000000E+00  0.10002745305E+04  0.10002745305E+04  0.51100000000E-03 0.  1.
          4   -1    0    0  501    0 -0.00000000000E+00 -0.00000000000E+00 -0.28483563003E+02  0.28518936890E+02  0.14200000000E+01 0.  1.
         11    1    1    2    0    0  0.28816632239E+02 -0.15228268785E+03  0.54158683355E+03  0.56332647158E+03  0.51100000000E-03 0.  1.
         22    1    1    2    0    0  0.96308322643E+01 -0.78923964650E+01  0.40659476190E+02  0.42523356595E+02  0.00000000000E+00 0.  1.
          4    1    1    2  501    0 -0.38447464503E+02  0.16017508431E+03  0.38954465773E+03  0.42294363918E+03  0.14200000000E+01 0.  1.
<mgrwt>
<rscale>  0 0.16473094E+03</rscale>
<asrwt>0</asrwt>
<pdfrwt beam="1">  1       11 0.10000000E+01 0.16746119E+03</pdfrwt>
<pdfrwt beam="2">  1        4 0.43860889E-02 0.16473094E+03</pdfrwt>
<totfact> 0.12146707E+03</totfact>
</mgrwt>
</event>
<event>
 5    1  0.1490736E-003  0.1416658E+03  0.7818608E-02  0.1221376E+00
         11   -1    0    0    0    0  0.00000000000E+00  0.00000000000E+00  0.10002672380E+04  0.10002672380E+04  0.51100000000E-03 0. -1.
         -4   -1    0    0    0  501 -0.00000000000E+00 -0.00000000000E+00 -0.19089680326E+02  0.19142421345E+02  0.14200000000E+01 0.  1.
         11    1    1    2    0    0  0.34933414871E+02  0.48350412342E+02  0.15497866720E+03  0.16606171484E+03  0.51100000000E-03 0. -1.
         22    1    1    2    0    0  0.50177826139E+02  0.55377705413E+02  0.38538303846E+03  0.39256157584E+03  0.00000000000E+00 0. -1.
         -4    1    1    2    0  501 -0.85111241010E+02 -0.10372811775E+03  0.44081585197E+03  0.46078636862E+03  0.14200000000E+01 0.  1.
<mgrwt>
<rscale>  0 0.13418443E+03</rscale>
<asrwt>0</asrwt>
<pdfrwt beam="1">  1       11 0.10000000E+01 0.14166583E+03</pdfrwt>
<pdfrwt beam="2">  1       -4 0.29417943E-02 0.13418443E+03</pdfrwt>
<totfact> 0.22126553E+03</totfact>
</mgrwt>
</event>
<event>
 5    1  0.1490736E-003  0.1027921E+03  0.7818608E-02  0.1564154E+00
         11   -1    0    0    0    0  0.00000000000E+00  0.00000000000E+00  0.10003929958E+04  0.10003929958E+04  0.51100000000E-03 0.  1.
          4   -1    0    0  501    0 -0.00000000000E+00 -0.00000000000E+00 -0.17912052046E+02  0.17968250012E+02  0.14200000000E+01 0.  1.
         11    1    1    2    0    0  0.59535518188E+02  0.79217475227E+02  0.18455824956E+03  0.20947943524E+03  0.51100000000E-03 0.  1.
         22    1    1    2    0    0  0.10506065583E+02 -0.24691011505E+01  0.12081274041E+02  0.16199723979E+02  0.00000000000E+00 0. -1.
          4    1    1    2  501    0 -0.70041583770E+02 -0.76748374077E+02  0.78584142017E+03  0.79268208662E+03  0.14200000000E+01 0.  1.
<mgrwt>
<rscale>  0 0.33308686E+02</rscale>
<asrwt>0</asrwt>
<pdfrwt beam="1">  1       11 0.10000000E+01 0.10279205E+03</pdfrwt>
<pdfrwt beam="2">  1        4 0.27611854E-02 0.33308686E+02</pdfrwt>
<totfact> 0.17970025E+03</totfact>
</mgrwt>
</event>
<event>
 5    1  0.1490736E-003  0.1639734E+03  0.7818608E-02  0.1187228E+00
         11   -1    0    0    0    0  0.00000000000E+00  0.00000000000E+00  0.10003828023E+04  0.10003828023E+04  0.51100000000E-03 0. -1.
          4   -1    0    0  501    0 -0.00000000000E+00 -0.00000000000E+00 -0.57531743862E+02  0.57549265432E+02  0.14200000000E+01 0.  1.
         11    1    1    2    0    0 -0.35169062303E+02 -0.27538883467E+02  0.17894758322E+03  0.18443831106E+03  0.51100000000E-03 0. -1.
         22    1    1    2    0    0 -0.10317358969E+03 -0.55403730616E+02  0.68312536761E+03  0.69309063682E+03  0.00000000000E+00 0. -1.
          4    1    1    2  501    0  0.13834265199E+03  0.82942614084E+02  0.80778107643E+02  0.18040311989E+03  0.14200000000E+01 0.  1.
<mgrwt>
<rscale>  0 0.16130773E+03</rscale>
<asrwt>0</asrwt>
<pdfrwt beam="1">  1       11 0.10000000E+01 0.16397342E+03</pdfrwt>
<pdfrwt beam="2">  1        4 0.88558513E-02 0.16130773E+03</pdfrwt>
<totfact> 0.38358799E+02</totfact>
</mgrwt>
</event>
<event>
 5    1  0.1490736E-003  0.2531649E+03  0.7818608E-02  0.1111321E+00
         11   -1    0    0    0    0  0.00000000000E+00  0.00000000000E+00  0.10002357410E+04  0.10002357410E+04  0.51100000000E-03 0. -1.
          4   -1    0    0  501    0 -0.00000000000E+00 -0.00000000000E+00 -0.70651245867E+02  0.70665514522E+02  0.14200000000E+01 0.  1.
         11    1    1    2    0    0 -0.24606038101E+03  0.29413332771E+02  0.49132102238E+03  0.55027920393E+03  0.51100000000E-03 0. -1.
         22    1    1    2    0    0 -0.69412345103E+01  0.20429646919E+02  0.50809089173E+02  0.55200677101E+02  0.00000000000E+00 0. -1.
          4    1    1    2  501    0  0.25300161552E+03 -0.49842979690E+02  0.38745438359E+03  0.46542137450E+03  0.14200000000E+01 0.  1.
<mgrwt>
<rscale>  0 0.25316492E+03</rscale>
<asrwt>0</asrwt>
<pdfrwt beam="1">  1       11 0.10000000E+01 0.21576636E+02</pdfrwt>
<pdfrwt beam="2">  1        4 0.10873160E-01 0.25316492E+03</pdfrwt>
<totfact> 0.28497918E+02</totfact>
</mgrwt>
</event>
<event>
 5    1  0.1490736E-003  0.3482790E+02  0.7818608E-02  0.1570098E+00
         11   -1    0    0    0    0  0.00000000000E+00  0.00000000000E+00  0.10000791423E+04  0.10000791423E+04  0.51100000000E-03 0.  1.
         -4   -1    0    0    0  501 -0.00000000000E+00 -0.00000000000E+00 -0.65551592475E+01  0.67071985776E+01  0.14200000000E+01 0.  1.
         11    1    1    2    0    0 -0.68590235846E+00 -0.19009010922E+02  0.26381890836E+02  0.32524100642E+02  0.51100000000E-03 0.  1.
         22    1    1    2    0    0  0.90738628290E+01 -0.12557606608E+02  0.15018048439E+02  0.21577076940E+02  0.00000000000E+00 0.  1.
         -4    1    1    2    0  501 -0.83879604705E+01  0.31566617530E+02  0.95212404379E+03  0.95268516330E+03  0.14200000000E+01 0.  1.
<mgrwt>
<rscale>  0 0.32692899E+02</rscale>
<asrwt>0</asrwt>
<pdfrwt beam="1">  1       11 0.10000000E+01 0.34827897E+02</pdfrwt>
<pdfrwt beam="2">  1       -4 0.10203396E-02 0.32692899E+02</pdfrwt>
<totfact> 0.77971667E+03</totfact>
</mgrwt>
</event>
<event>
 5    1  0.1490736E-003  0.2593433E+03  0.7818608E-02  0.1111268E+00
         11   -1    0    0    0    0  0.00000000000E+00  0.00000000000E+00  0.10001971730E+04  0.10001971730E+04  0.51100000000E-03 0. -1.
          4   -1    0    0  501    0 -0.00000000000E+00 -0.00000000000E+00 -0.93992209839E+02  0.94002935648E+02  0.14200000000E+01 0. -1.
         11    1    1    2    0    0 -0.46420791741E+02 -0.22944228579E+03  0.73119614328E+03  0.76775416141E+03  0.51100000000E-03 0. -1.
         22    1    1    2    0    0  0.89046781985E+00 -0.19677837444E+02  0.25968781435E+02  0.32594291350E+02  0.00000000000E+00 0. -1.
          4    1    1    2  501    0  0.45530323921E+02  0.24912012323E+03  0.14904003840E+03  0.29385165584E+03  0.14200000000E+01 0. -1.
<mgrwt>
<rscale>  0 0.25325059E+03</rscale>
<asrwt>0</asrwt>
<pdfrwt beam="1">  1       11 0.10000000E+01 0.25934325E+03</pdfrwt>
<pdfrwt beam="2">  1        4 0.14464094E-01 0.25325059E+03</pdfrwt>
<totfact> 0.17350705E+02</totfact>
</mgrwt>
</event>
<event>
 5    1  0.1490736E-003  0.2917121E+02  0.7818608E-02  0.1613650E+00
         11   -1    0    0    0    0  0.00000000000E+00  0.00000000000E+00  0.99969280184E+03  0.99969280184E+03  0.51100000000E-03 0. -1.
         -4   -1    0    0    0  501 -0.00000000000E+00 -0.00000000000E+00 -0.16102520002E+01  0.21469307171E+01  0.14200000000E+01 0. -1.
         11    1    1    2    0    0  0.14885881730E+02 -0.10475149209E+02  0.81574542018E+02  0.83580644479E+02  0.51100000000E-03 0. -1.
         22    1    1    2    0    0  0.57580323303E+01 -0.93226366043E+01  0.46261094395E+02  0.47541091113E+02  0.00000000000E+00 0. -1.
         -4    1    1    2    0  501 -0.20643914060E+02  0.19797785813E+02  0.87024691343E+03  0.87071799696E+03  0.14200000000E+01 0. -1.
<mgrwt>
<rscale>  0 0.28638085E+02</rscale>
<asrwt>0</asrwt>
<pdfrwt beam="1">  1       11 0.10000000E+01 0.29171212E+02</pdfrwt>
<pdfrwt beam="2">  1       -4 0.28900282E-03 0.28638085E+02</pdfrwt>
<totfact> 0.45217143E+04</totfact>
</mgrwt>
</event>
<event>
 5    1  0.1490736E-003  0.9169876E+02  0.7818608E-02  0.1308778E+00
         11   -1    0    0    0    0  0.00000000000E+00  0.00000000000E+00  0.10003680941E+04  0.10003680941E+04  0.51100000000E-03 0.  1.
          4   -1    0    0  501    0 -0.00000000000E+00 -0.00000000000E+00 -0.16388252901E+02  0.16449657539E+02  0.14200000000E+01 0.  1.
         11    1    1    2    0    0  0.42822732838E+02  0.29698895382E+02  0.79926748000E+02  0.95415385975E+02  0.51100000000E-03 0.  1.
         22    1    1    2    0    0  0.39493221220E+02  0.22229391073E+00  0.54285451242E+02  0.67131767096E+02  0.00000000000E+00 0.  1.
          4    1    1    2  501    0 -0.82315954057E+02 -0.29921189293E+02  0.84976764193E+03  0.85427059854E+03  0.14200000000E+01 0.  1.
<mgrwt>
<rscale>  0 0.87596862E+02</rscale>
<asrwt>0</asrwt>
<pdfrwt beam="1">  1       11 0.10000000E+01 0.91698760E+02</pdfrwt>
<pdfrwt beam="2">  1        4 0.25270004E-02 0.87596862E+02</pdfrwt>
<totfact> 0.25885498E+03</totfact>
</mgrwt>
</event>
<event>
 5    1  0.1490736E-003  0.4878149E+02  0.7818608E-02  0.1481407E+00
         11   -1    0    0    0    0  0.00000000000E+00  0.00000000000E+00  0.10005082242E+04  0.10005082242E+04  0.51100000000E-03 0.  1.
          4   -1    0    0  501    0 -0.00000000000E+00 -0.00000000000E+00 -0.81627293380E+01  0.82853213725E+01  0.14200000000E+01 0.  1.
         11    1    1    2    0    0  0.71476833304E+02 -0.23545391225E+02  0.30067682996E+03  0.30995141429E+03  0.51100000000E-03 0.  1.
         22    1    1    2    0    0 -0.38856495848E+02 -0.69226559167E+01  0.14262699831E+03  0.14798719905E+03  0.00000000000E+00 0.  1.
          4    1    1    2  501    0 -0.32620337456E+02  0.30468047142E+02  0.54904166663E+03  0.55085493227E+03  0.14200000000E+01 0.  1.
<mgrwt>
<rscale>  0 0.43887804E+02</rscale>
<asrwt>0</asrwt>
<pdfrwt beam="1">  1       11 0.10000000E+01 0.48781489E+02</pdfrwt>
<pdfrwt beam="2">  1        4 0.12659552E-02 0.43887804E+02</pdfrwt>
<totfact> 0.62173358E+03</totfact>
</mgrwt>
</event>
<event>
 5    1  0.1490736E-003  0.2526797E+03  0.7818608E-02  0.1111623E+00
         11   -1    0    0    0    0  0.00000000000E+00  0.00000000000E+00  0.10004968296E+04  0.10004968296E+04  0.51100000000E-03 0. -1.
         -4   -1    0    0    0  501 -0.00000000000E+00 -0.00000000000E+00 -0.30225780960E+03  0.30226114514E+03  0.14200000000E+01 0.  1.
         11    1    1    2    0    0  0.31233693205E+02  0.24758100310E+02  0.19452789815E+03  0.19856890562E+03  0.51100000000E-03 0. -1.
         22    1    1    2    0    0  0.20999854949E+03 -0.10498495234E+03  0.72815120616E+03  0.76506562466E+03  0.00000000000E+00 0. -1.
         -4    1    1    2    0  501 -0.24123224269E+03  0.80226852029E+02 -0.22444008434E+03  0.33912344443E+03  0.14200000000E+01 0.  1.
<mgrwt>
<rscale>  0 0.25267967E+03</rscale>
<asrwt>0</asrwt>
<pdfrwt beam="1">  1       11 0.10000000E+01 0.39856080E+02</pdfrwt>
<pdfrwt beam="2">  1       -4 0.46524638E-01 0.25267967E+03</pdfrwt>
<totfact> 0.19173091E+01</totfact>
</mgrwt>
</event>
<event>
 5    1  0.1490736E-003  0.1321595E+03  0.7818608E-02  0.1224286E+00
         11   -1    0    0    0    0  0.00000000000E+00  0.00000000000E+00  0.10000762065E+04  0.10000762065E+04  0.51100000000E-03 0.  1.
          4   -1    0    0  501    0 -0.00000000000E+00 -0.00000000000E+00 -0.25747799326E+02  0.25786926341E+02  0.14200000000E+01 0.  1.
         11    1    1    2    0    0  0.50516386027E+02 -0.56215235737E+01  0.17888174344E+03  0.18596285898E+03  0.51100000000E-03 0.  1.
         22    1    1    2    0    0 -0.72187876032E+02 -0.12112533807E+03  0.42171638130E+03  0.44466520352E+03  0.00000000000E+00 0.  1.
          4    1    1    2  501    0  0.21671490005E+02  0.12674686164E+03  0.37373028241E+03  0.39523507031E+03  0.14200000000E+01 0.  1.
<mgrwt>
<rscale>  0 0.13215952E+03</rscale>
<asrwt>0</asrwt>
<pdfrwt beam="1">  1       11 0.10000000E+01 0.50828209E+02</pdfrwt>
<pdfrwt beam="2">  1        4 0.39645892E-02 0.13215952E+03</pdfrwt>
<totfact> 0.13793290E+03</totfact>
</mgrwt>
</event>
<event>
 5    1  0.1490736E-003  0.3648165E+02  0.7818608E-02  0.1714681E+00
         11   -1    0    0    0    0  0.00000000000E+00  0.00000000000E+00  0.10003325679E+04  0.10003325679E+04  0.51100000000E-03 0. -1.
         -4   -1    0    0    0  501 -0.00000000000E+00 -0.00000000000E+00 -0.30558117660E+01  0.33696269154E+01  0.14200000000E+01 0.  1.
         11    1    1    2    0    0 -0.10432377001E+02 -0.45882596205E+02  0.25282006029E+03  0.25716148625E+03  0.51100000000E-03 0. -1.
         22    1    1    2    0    0  0.13145150086E+01  0.12750461104E+02  0.67217366824E+02  0.68428624207E+02  0.00000000000E+00 0.  1.
         -4    1    1    2    0  501  0.91178619920E+01  0.33132135101E+02  0.67723932903E+03  0.67811208437E+03  0.14200000000E+01 0.  1.
<mgrwt>
<rscale>  0 0.21632781E+02</rscale>
<asrwt>0</asrwt>
<pdfrwt beam="1">  1       11 0.10000000E+01 0.36481651E+02</pdfrwt>
<pdfrwt beam="2">  1       -4 0.49450643E-03 0.21632781E+02</pdfrwt>
<totfact> 0.18894879E+04</totfact>
</mgrwt>
</event>
<event>
 5    1  0.1490736E-003  0.2405183E+03  0.7818608E-02  0.1121483E+00
         11   -1    0    0    0    0  0.00000000000E+00  0.00000000000E+00  0.10003036286E+04  0.10003036286E+04  0.51100000000E-03 0. -1.
          4   -1    0    0  501    0 -0.00000000000E+00 -0.00000000000E+00 -0.65704123312E+02  0.65719466068E+02  0.14200000000E+01 0.  1.
         11    1    1    2    0    0  0.37579477998E+01  0.20229149958E+03  0.52125387387E+03  0.55914360767E+03  0.51100000000E-03 0. -1.
         22    1    1    2    0    0 -0.52558840778E+01  0.35179249930E+02  0.14155068949E+03  0.14595136737E+03  0.00000000000E+00 0. -1.
          4    1    1    2  501    0  0.14979362779E+01 -0.23747074951E+03  0.27179494199E+03  0.36092811968E+03  0.14200000000E+01 0.  1.
<mgrwt>
<rscale>  0 0.23747972E+03</rscale>
<asrwt>0</asrwt>
<pdfrwt beam="1">  1       11 0.10000000E+01 0.24051826E+03</pdfrwt>
<pdfrwt beam="2">  1        4 0.10112654E-01 0.23747972E+03</pdfrwt>
<totfact> 0.32051006E+02</totfact>
</mgrwt>
</event>
<event>
 5    1  0.1490736E-003  0.7092508E+02  0.7818608E-02  0.1447443E+00
         11   -1    0    0    0    0  0.00000000000E+00  0.00000000000E+00  0.10002129617E+04  0.10002129617E+04  0.51100000000E-03 0. -1.
         -4   -1    0    0    0  501 -0.00000000000E+00 -0.00000000000E+00 -0.10751150976E+02  0.10844521534E+02  0.14200000000E+01 0.  1.
         11    1    1    2    0    0  0.50945335917E+02  0.63586426500E+02  0.31193903684E+03  0.32240444102E+03  0.51100000000E-03 0. -1.
         22    1    1    2    0    0 -0.17495342666E+01 -0.69844004628E+02  0.30863703264E+03  0.31644598871E+03  0.00000000000E+00 0. -1.
         -4    1    1    2    0  501 -0.49195801650E+02  0.62575781280E+01  0.36888574119E+03  0.37220705345E+03  0.14200000000E+01 0.  1.
<mgrwt>
<rscale>  0 0.49612504E+02</rscale>
<asrwt>0</asrwt>
<pdfrwt beam="1">  1       11 0.10000000E+01 0.70925076E+02</pdfrwt>
<pdfrwt beam="2">  1       -4 0.16616369E-02 0.49612504E+02</pdfrwt>
<totfact> 0.42912584E+03</totfact>
</mgrwt>
</event>
<event>
 5    1  0.1490736E-003  0.5744767E+02  0.7818608E-02  0.1512965E+00
         11   -1    0    0    0    0  0.00000000000E+00  0.00000000000E+00  0.99996519459E+03  0.99996519459E+03  0.51100000000E-03 0.  1.
          4   -1    0    0  501    0 -0.00000000000E+00 -0.00000000000E+00 -0.53097656002E+01  0.54963634095E+01  0.14200000000E+01 0.  1.
         11    1    1    2    0    0 -0.54198627295E+02 -0.16053218246E+02  0.31995409070E+03  0.32490893674E+03  0.51100000000E-03 0.  1.
         22    1    1    2    0    0 -0.55585189971E+01  0.26381588983E+02  0.15552265774E+03  0.15784227077E+03  0.00000000000E+00 0.  1.
          4    1    1    2  501    0  0.59757146292E+02 -0.10328370736E+02  0.51917868055E+03  0.52271035049E+03  0.14200000000E+01 0.  1.
<mgrwt>
<rscale>  0 0.39361253E+02</rscale>
<asrwt>0</asrwt>
<pdfrwt beam="1">  1       11 0.10000000E+01 0.57447675E+02</pdfrwt>
<pdfrwt beam="2">  1        4 0.83128929E-03 0.39361253E+02</pdfrwt>
<totfact> 0.11151235E+04</totfact>
</mgrwt>
</event>
<event>
 5    1  0.1490736E-003  0.1894063E+03  0.7818608E-02  0.1161203E+00
         11   -1    0    0    0    0  0.00000000000E+00  0.00000000000E+00  0.10000852996E+04  0.10000852996E+04  0.51100000000E-03 0. -1.
          4   -1    0    0  501    0 -0.00000000000E+00 -0.00000000000E+00 -0.38347217735E+02  0.38373500075E+02  0.14200000000E+01 0. -1.
         11    1    1    2    0    0  0.71564018053E+02  0.14982433053E+03  0.28997664624E+03  0.33414846111E+03  0.51100000000E-03 0. -1.
         22    1    1    2    0    0 -0.16059306814E+00  0.22991507058E+02  0.49875761038E+02  0.54920185051E+02  0.00000000000E+00 0. -1.
          4    1    1    2  501    0 -0.71403424985E+02 -0.17281583759E+03  0.62188567456E+03  0.64939015348E+03  0.14200000000E+01 0. -1.
<mgrwt>
<rscale>  0 0.18699139E+03</rscale>
<asrwt>0</asrwt>
<pdfrwt beam="1">  1       11 0.10000000E+01 0.18940632E+03</pdfrwt>
<pdfrwt beam="2">  1        4 0.59021745E-02 0.18699139E+03</pdfrwt>
<totfact> 0.76481703E+02</totfact>
</mgrwt>
</event>
<event>
 5    1  0.1490736E-003  0.2716364E+03  0.7818608E-02  0.1103686E+00
         11   -1    0    0    0    0  0.00000000000E+00  0.00000000000E+00  0.10002785389E+04  0.10002785389E+04  0.51100000000E-03 0. -1.
         -4   -1    0    0    0  501 -0.00000000000E+00 -0.00000000000E+00 -0.10716328627E+03  0.10717269393E+03  0.14200000000E+01 0. -1.
         11    1    1    2    0    0  0.23001929665E+03  0.41270772555E+02  0.71575979871E+03  0.75294371831E+03  0.51100000000E-03 0. -1.
         22    1    1    2    0    0  0.30765593542E+02  0.10289143258E+02  0.50335319043E+02  0.59883491533E+02  0.00000000000E+00 0. -1.
         -4    1    1    2    0  501 -0.26078489019E+03 -0.51559915812E+02  0.12702013492E+03  0.29462402303E+03  0.14200000000E+01 0. -1.
<mgrwt>
<rscale>  0 0.26583679E+03</rscale>
<asrwt>0</asrwt>
<pdfrwt beam="1">  1       11 0.10000000E+01 0.27163642E+03</pdfrwt>
<pdfrwt beam="2">  1       -4 0.16492053E-01 0.26583679E+03</pdfrwt>
<totfact> 0.13808416E+02</totfact>
</mgrwt>
</event>
<event>
 5    1  0.1490736E-003  0.1485409E+03  0.7818608E-02  0.1709691E+00
         11   -1    0    0    0    0  0.00000000000E+00  0.00000000000E+00  0.10005395541E+04  0.10005395541E+04  0.51100000000E-03 0. -1.
          4   -1    0    0  501    0 -0.00000000000E+00 -0.00000000000E+00 -0.10065824162E+03  0.10066825719E+03  0.14200000000E+01 0.  1.
         11    1    1    2    0    0  0.12158422354E+03 -0.99699340230E+02  0.66166361041E+03  0.68008927002E+03  0.51100000000E-03 0. -1.
         22    1    1    2    0    0 -0.10488646676E+03  0.85574050185E+02  0.31415687419E+03  0.34207985994E+03  0.00000000000E+00 0. -1.
          4    1    1    2  501    0 -0.16697756785E+02  0.14125290045E+02 -0.75939172066E+02  0.79038681382E+02  0.14200000000E+01 0.  1.
<mgrwt>
<rscale>  0 0.21917009E+02</rscale>
<asrwt>0</asrwt>
<pdfrwt beam="1">  1       11 0.10000000E+01 0.14854095E+03</pdfrwt>
<pdfrwt beam="2">  1        4 0.15495087E-01 0.21917009E+02</pdfrwt>
<totfact> 0.10643750E+02</totfact>
</mgrwt>
</event>
<event>
 5    1  0.1490736E-003  0.1016673E+03  0.7818608E-02  0.1509424E+00
         11   -1    0    0    0    0  0.00000000000E+00  0.00000000000E+00  0.10001881371E+04  0.10001881371E+04  0.51100000000E-03 0.  1.
          4   -1    0    0  501    0 -0.00000000000E+00 -0.00000000000E+00 -0.15420636612E+02  0.15485878520E+02  0.14200000000E+01 0.  1.
         11    1    1    2    0    0 -0.81140294447E+02  0.10443137657E+02  0.24754902390E+03  0.26071694564E+03  0.51100000000E-03 0.  1.
         22    1    1    2    0    0  0.11946617662E+03  0.32694496727E+00  0.61212175452E+03  0.62367083995E+03  0.00000000000E+00 0.  1.
          4    1    1    2  501    0 -0.38325882177E+02 -0.10770082624E+02  0.12509672210E+03  0.13128623007E+03  0.14200000000E+01 0.  1.
<mgrwt>
<rscale>  0 0.39835717E+02</rscale>
<asrwt>0</asrwt>
<pdfrwt beam="1">  1       11 0.10000000E+01 0.10166726E+03</pdfrwt>
<pdfrwt beam="2">  1        4 0.23779490E-02 0.39835717E+02</pdfrwt>
<totfact> 0.23644481E+03</totfact>
</mgrwt>
</event>
<event>
 5    1  0.1490736E-003  0.2851835E+03  0.7818608E-02  0.1095154E+00
         11   -1    0    0    0    0  0.00000000000E+00  0.00000000000E+00  0.10005786598E+04  0.10005786598E+04  0.51100000000E-03 0.  1.
          4   -1    0    0  501    0 -0.00000000000E+00 -0.00000000000E+00 -0.10148909620E+03  0.10149902978E+03  0.14200000000E+01 0.  1.
         11    1    1    2    0    0  0.14440345935E+03 -0.22553201587E+03  0.66246331075E+03  0.71454509119E+03  0.51100000000E-03 0.  1.
         22    1    1    2    0    0  0.16753661253E+02 -0.46347202775E+01  0.42768033066E+02  0.46165684764E+02  0.00000000000E+00 0.  1.
          4    1    1    2  501    0 -0.16115712060E+03  0.23016673615E+03  0.19385821980E+03  0.34136691365E+03  0.14200000000E+01 0.  1.
<mgrwt>
<rscale>  0 0.28098107E+03</rscale>
<asrwt>0</asrwt>
<pdfrwt beam="1">  1       11 0.10000000E+01 0.28518351E+03</pdfrwt>
<pdfrwt beam="2">  1        4 0.15623584E-01 0.28098107E+03</pdfrwt>
<totfact> 0.15280430E+02</totfact>
</mgrwt>
</event>
<event>
 5    1  0.1490736E-003  0.1529948E+03  0.7818608E-02  0.1196841E+00
         11   -1    0    0    0    0  0.00000000000E+00  0.00000000000E+00  0.10000749731E+04  0.10000749731E+04  0.51100000000E-03 0. -1.
          4   -1    0    0  501    0 -0.00000000000E+00 -0.00000000000E+00 -0.41601332447E+02  0.41625560193E+02  0.14200000000E+01 0. -1.
         11    1    1    2    0    0  0.13581505562E+03 -0.69524968323E+02  0.14899112321E+03  0.21325525867E+03  0.51100000000E-03 0. -1.
         22    1    1    2    0    0 -0.63584166955E+01 -0.16734922496E+02  0.47901931537E+02  0.51137873819E+02  0.00000000000E+00 0.  1.
          4    1    1    2  501    0 -0.12945663892E+03  0.86259890818E+02  0.76158058589E+03  0.77730740080E+03  0.14200000000E+01 0. -1.
<mgrwt>
<rscale>  0 0.15299475E+03</rscale>
<asrwt>0</asrwt>
<pdfrwt beam="1">  1       11 0.10000000E+01 0.17902153E+02</pdfrwt>
<pdfrwt beam="2">  1        4 0.64026260E-02 0.15299475E+03</pdfrwt>
<totfact> 0.65154693E+02</totfact>
</mgrwt>
</event>
<event>
 5    1  0.1490736E-003  0.2683718E+03  0.7818608E-02  0.1102215E+00
         11   -1    0    0    0    0  0.00000000000E+00  0.00000000000E+00  0.99994482815E+03  0.99994482815E+03  0.51100000000E-03 0. -1.
          4   -1    0    0  501    0 -0.00000000000E+00 -0.00000000000E+00 -0.34430238743E+03  0.34430531566E+03  0.14200000000E+01 0.  1.
         11    1    1    2    0    0  0.13323719288E+03 -0.63193050511E+02  0.40678414298E+03  0.43268793625E+03  0.51100000000E-03 0. -1.
         22    1    1    2    0    0 -0.12960631896E+02 -0.19023633979E+03  0.49994902871E+03  0.53507651253E+03  0.00000000000E+00 0.  1.
          4    1    1    2  501    0 -0.12027656098E+03  0.25342939030E+03 -0.25109073097E+03  0.37648569503E+03  0.14200000000E+01 0.  1.
<mgrwt>
<rscale>  0 0.26837183E+03</rscale>
<asrwt>0</asrwt>
<pdfrwt beam="1">  1       11 0.10000000E+01 0.14746359E+03</pdfrwt>
<pdfrwt beam="2">  1        4 0.52966977E-01 0.26837183E+03</pdfrwt>
<totfact> 0.14718479E+01</totfact>
</mgrwt>
</event>
<event>
 5    1  0.1490736E-003  0.8539298E+02  0.7818608E-02  0.1314408E+00
         11   -1    0    0    0    0  0.00000000000E+00  0.00000000000E+00  0.10001857229E+04  0.10001857229E+04  0.51100000000E-03 0. -1.
         -4   -1    0    0    0  501 -0.00000000000E+00 -0.00000000000E+00 -0.29314834203E+03  0.29315178122E+03  0.14200000000E+01 0.  1.
         11    1    1    2    0    0  0.61213539584E+02  0.18423764659E+02  0.16317551806E+03  0.17525062690E+03  0.51100000000E-03 0. -1.
         22    1    1    2    0    0 -0.13513935990E+03 -0.60182544670E+02  0.81791173893E+03  0.83118240956E+03  0.00000000000E+00 0. -1.
         -4    1    1    2    0  501  0.73925820314E+02  0.41758780011E+02 -0.27404987607E+03  0.28690446771E+03  0.14200000000E+01 0.  1.
<mgrwt>
<rscale>  0 0.85392984E+02</rscale>
<asrwt>0</asrwt>
<pdfrwt beam="1">  1       11 0.10000000E+01 0.63925993E+02</pdfrwt>
<pdfrwt beam="2">  1       -4 0.45108462E-01 0.85392984E+02</pdfrwt>
<totfact> 0.18951453E+01</totfact>
</mgrwt>
</event>
<event>
 5    1  0.1490736E-003  0.8110461E+02  0.7818608E-02  0.1352432E+00
         11   -1    0    0    0    0  0.00000000000E+00  0.00000000000E+00  0.10001061610E+04  0.10001061610E+04  0.51100000000E-03 0.  1.
          4   -1    0    0  501    0 -0.00000000000E+00 -0.00000000000E+00 -0.65648990689E+01  0.67167179325E+01  0.14200000000E+01 0.  1.
         11    1    1    2    0    0 -0.25630057633E+02 -0.15661647534E+02  0.79297234553E+02  0.84795273841E+02  0.51100000000E-03 0.  1.
         22    1    1    2    0    0 -0.19545389773E+02 -0.40773085568E+02  0.27284481584E+03  0.27656601436E+03  0.00000000000E+00 0.  1.
          4    1    1    2  501    0  0.45175447406E+02  0.56434733102E+02  0.64139921157E+03  0.64546159077E+03  0.14200000000E+01 0.  1.
<mgrwt>
<rscale>  0 0.72302950E+02</rscale>
<asrwt>0</asrwt>
<pdfrwt beam="1">  1       11 0.10000000E+01 0.81104605E+02</pdfrwt>
<pdfrwt beam="2">  1        4 0.10218488E-02 0.72302950E+02</pdfrwt>
<totfact> 0.97459159E+03</totfact>
</mgrwt>
</event>
<event>
 5    1  0.1490736E-003  0.1811893E+03  0.7818608E-02  0.1172251E+00
         11   -1    0    0    0    0  0.00000000000E+00  0.00000000000E+00  0.99994518427E+03  0.99994518427E+03  0.51100000000E-03 0. -1.
          4   -1    0    0  501    0 -0.00000000000E+00 -0.00000000000E+00 -0.35544043561E+02  0.35572397061E+02  0.14200000000E+01 0. -1.
         11    1    1    2    0    0 -0.69549202104E+02 -0.13916361253E+03  0.25791923317E+03  0.30120745908E+03  0.51100000000E-03 0. -1.
         22    1    1    2    0    0  0.36624419155E+01 -0.23470891111E+02  0.62979938649E+02  0.67310986344E+02  0.00000000000E+00 0.  1.
          4    1    1    2  501    0  0.65886760188E+02  0.16263450364E+03  0.64350196889E+03  0.66699913591E+03  0.14200000000E+01 0. -1.
<mgrwt>
<rscale>  0 0.17547952E+03</rscale>
<asrwt>0</asrwt>
<pdfrwt beam="1">  1       11 0.10000000E+01 0.18118931E+03</pdfrwt>
<pdfrwt beam="2">  1        4 0.54702730E-02 0.17547952E+03</pdfrwt>
<totfact> 0.85818071E+02</totfact>
</mgrwt>
</event>
<event>
 5    1  0.1490736E-003  0.2042896E+03  0.7818608E-02  0.1146169E+00
         11   -1    0    0    0    0  0.00000000000E+00  0.00000000000E+00  0.10000600745E+04  0.10000600745E+04  0.51100000000E-03 0. -1.
         -4   -1    0    0    0  501 -0.00000000000E+00 -0.00000000000E+00 -0.31370405537E+03  0.31370726922E+03  0.14200000000E+01 0.  1.
         11    1    1    2    0    0  0.17778602717E+03 -0.14280001524E+03  0.91874461815E+03  0.94662103779E+03  0.51100000000E-03 0. -1.
         22    1    1    2    0    0 -0.26662862552E+02  0.66601514200E+01  0.26318118559E+02  0.38051402351E+02  0.00000000000E+00 0. -1.
         -4    1    1    2    0  501 -0.15112316462E+03  0.13613986382E+03 -0.25870671761E+03  0.32909490355E+03  0.14200000000E+01 0.  1.
<mgrwt>
<rscale>  0 0.20428962E+03</rscale>
<asrwt>0</asrwt>
<pdfrwt beam="1">  1       11 0.10000000E+01 0.27482101E+02</pdfrwt>
<pdfrwt beam="2">  1       -4 0.48265385E-01 0.20428962E+03</pdfrwt>
<totfact> 0.17587404E+01</totfact>
</mgrwt>
</event>
<event>
 5    1  0.1490736E-003  0.1099459E+03  0.7818608E-02  0.1268834E+00
         11   -1    0    0    0    0  0.00000000000E+00  0.00000000000E+00  0.10002793856E+04  0.10002793856E+04  0.51100000000E-03 0.  1.
         -4   -1    0    0    0  501 -0.00000000000E+00 -0.00000000000E+00 -0.12555875351E+02  0.12635917292E+02  0.14200000000E+01 0. -1.
         11    1    1    2    0    0  0.68973180028E+02 -0.44831062839E+02  0.27022542326E+03  0.28246929592E+03  0.51100000000E-03 0.  1.
         22    1    1    2    0    0  0.27609181741E+02  0.20191388959E+01  0.91557122510E+02  0.95650669212E+02  0.00000000000E+00 0.  1.
         -4    1    1    2    0  501 -0.96582361769E+02  0.42811923943E+02  0.62594096449E+03  0.63479533778E+03  0.14200000000E+01 0. -1.
<mgrwt>
<rscale>  0 0.10565524E+03</rscale>
<asrwt>0</asrwt>
<pdfrwt beam="1">  1       11 0.10000000E+01 0.10994588E+03</pdfrwt>
<pdfrwt beam="2">  1       -4 0.19384491E-02 0.10565524E+03</pdfrwt>
<totfact> 0.40371071E+03</totfact>
</mgrwt>
</event>
<event>
 5    1  0.1490736E-003  0.1478088E+03  0.7818608E-02  0.1212197E+00
         11   -1    0    0    0    0  0.00000000000E+00  0.00000000000E+00  0.10000165030E+04  0.10000165030E+04  0.51100000000E-03 0. -1.
          4   -1    0    0  501    0 -0.00000000000E+00 -0.00000000000E+00 -0.21820047660E+02  0.21866204057E+02  0.14200000000E+01 0. -1.
         11    1    1    2    0    0 -0.35573865310E+02 -0.23409174633E+01  0.15173808366E+03  0.15586990031E+03  0.51100000000E-03 0. -1.
         22    1    1    2    0    0 -0.88695580454E+02  0.68614563540E+02  0.45865823455E+03  0.47216759783E+03  0.00000000000E+00 0. -1.
          4    1    1    2  501    0  0.12426944576E+03 -0.66273646077E+02  0.36780013709E+03  0.39384520888E+03  0.14200000000E+01 0. -1.
<mgrwt>
<rscale>  0 0.14084427E+03</rscale>
<asrwt>0</asrwt>
<pdfrwt beam="1">  1       11 0.10000000E+01 0.14780877E+03</pdfrwt>
<pdfrwt beam="2">  1        4 0.33606138E-02 0.14084427E+03</pdfrwt>
<totfact> 0.18097719E+03</totfact>
</mgrwt>
</event>
<event>
 5    1  0.1490736E-003  0.1289889E+03  0.7818608E-02  0.1412835E+00
         11   -1    0    0    0    0  0.00000000000E+00  0.00000000000E+00  0.99989188124E+03  0.99989188124E+03  0.51100000000E-03 0.  1.
          4   -1    0    0  501    0 -0.00000000000E+00 -0.00000000000E+00 -0.21550944163E+02  0.21597675669E+02  0.14200000000E+01 0.  1.
         11    1    1    2    0    0 -0.10147196610E+03  0.79016294638E+02  0.36268442384E+03  0.38481180597E+03  0.51100000000E-03 0.  1.
         22    1    1    2    0    0  0.15866815436E+02  0.19065960125E+02  0.45259194879E+02  0.51610671267E+02  0.00000000000E+00 0.  1.
          4    1    1    2  501    0  0.85605150660E+02 -0.98082254764E+02  0.57039731836E+03  0.58506707967E+03  0.14200000000E+01 0.  1.
<mgrwt>
<rscale>  0 0.56565949E+02</rscale>
<asrwt>0</asrwt>
<pdfrwt beam="1">  1       11 0.10000000E+01 0.12898891E+03</pdfrwt>
<pdfrwt beam="2">  1        4 0.33188432E-02 0.56565949E+02</pdfrwt>
<totfact> 0.15503733E+03</totfact>
</mgrwt>
</event>
<event>
 5    1  0.1490736E-003  0.1075636E+03  0.7818608E-02  0.1265149E+00
         11   -1    0    0    0    0  0.00000000000E+00  0.00000000000E+00  0.10002451764E+04  0.10002451764E+04  0.51100000000E-03 0. -1.
          4   -1    0    0  501    0 -0.00000000000E+00 -0.00000000000E+00 -0.45482136695E+02  0.45504298240E+02  0.14200000000E+01 0. -1.
         11    1    1    2    0    0  0.55541195410E+02  0.35463013041E+02  0.15813046329E+03  0.17131168408E+03  0.51100000000E-03 0. -1.
         22    1    1    2    0    0 -0.47908153317E+02 -0.13936646562E+03  0.74257286094E+03  0.75705525340E+03  0.00000000000E+00 0. -1.
          4    1    1    2  501    0 -0.76330420931E+01  0.10390345258E+03  0.54059715443E+02  0.11738253713E+03  0.14200000000E+01 0. -1.
<mgrwt>
<rscale>  0 0.10756357E+03</rscale>
<asrwt>0</asrwt>
<pdfrwt beam="1">  1       11 0.10000000E+01 0.65897266E+02</pdfrwt>
<pdfrwt beam="2">  1        4 0.70007499E-02 0.10756357E+03</pdfrwt>
<totfact> 0.53498025E+02</totfact>
</mgrwt>
</event>
<event>
 5    1  0.1490736E-003  0.1794666E+03  0.7818608E-02  0.1170267E+00
         11   -1    0    0    0    0  0.00000000000E+00  0.00000000000E+00  0.10000943439E+04  0.10000943439E+04  0.51100000000E-03 0. -1.
         -4   -1    0    0    0  501 -0.00000000000E+00 -0.00000000000E+00 -0.44098490142E+02  0.44121346680E+02  0.14200000000E+01 0. -1.
         11    1    1    2    0    0  0.15034357034E+03 -0.47910617056E+02  0.18373417278E+03  0.24219178891E+03  0.51100000000E-03 0. -1.
         22    1    1    2    0    0  0.15726090603E+02 -0.14676701159E+02  0.20922463130E+02  0.30007748100E+02  0.00000000000E+00 0.  1.
         -4    1    1    2    0  501 -0.16606966095E+03  0.62587318215E+02  0.75133921789E+03  0.77201615361E+03  0.14200000000E+01 0. -1.
<mgrwt>
<rscale>  0 0.17747766E+03</rscale>
<asrwt>0</asrwt>
<pdfrwt beam="1">  1       11 0.10000000E+01 0.17946657E+03</pdfrwt>
<pdfrwt beam="2">  1       -4 0.67868589E-02 0.17747766E+03</pdfrwt>
<totfact> 0.60400407E+02</totfact>
</mgrwt>
</event>
<event>
 5    1  0.1490736E-003  0.2656123E+03  0.7818608E-02  0.1330670E+00
         11   -1    0    0    0    0  0.00000000000E+00  0.00000000000E+00  0.10003630621E+04  0.10003630621E+04  0.51100000000E-03 0.  1.
          4   -1    0    0  501    0 -0.00000000000E+00 -0.00000000000E+00 -0.81359291329E+02  0.81371682332E+02  0.14200000000E+01 0.  1.
         11    1    1    2    0    0 -0.24653066655E+03  0.10696221632E+03  0.44155561729E+03  0.51690390638E+03  0.51100000000E-03 0.  1.
         22    1    1    2    0    0  0.15036330318E+02  0.18389355090E+02  0.54364016754E+01  0.24368300581E+02  0.00000000000E+00 0.  1.
          4    1    1    2  501    0  0.23149433623E+03 -0.12535157141E+03  0.47201175176E+03  0.54046253743E+03  0.14200000000E+01 0.  1.
<mgrwt>
<rscale>  0 0.79432236E+02</rscale>
<asrwt>0</asrwt>
<pdfrwt beam="1">  1       11 0.10000000E+01 0.26561225E+03</pdfrwt>
<pdfrwt beam="2">  1        4 0.12522389E-01 0.79432236E+02</pdfrwt>
<totfact> 0.19438869E+02</totfact>
</mgrwt>
</event>
<event>
 5    1  0.1490736E-003  0.8568248E+02  0.7818608E-02  0.1313657E+00
         11   -1    0    0    0    0  0.00000000000E+00  0.00000000000E+00  0.10002677931E+04  0.10002677931E+04  0.51100000000E-03 0. -1.
          4   -1    0    0  501    0 -0.00000000000E+00 -0.00000000000E+00 -0.13371255601E+02  0.13446444747E+02  0.14200000000E+01 0. -1.
         11    1    1    2    0    0  0.20252148071E+02 -0.36274591662E+02  0.12637760034E+03  0.13303117443E+03  0.51100000000E-03 0. -1.
         22    1    1    2    0    0  0.11453318604E+02  0.10634856321E+03  0.58140649749E+03  0.59116386115E+03  0.00000000000E+00 0. -1.
          4    1    1    2  501    0 -0.31705466675E+02 -0.70073971550E+02  0.27911243969E+03  0.28951920229E+03  0.14200000000E+01 0. -1.
<mgrwt>
<rscale>  0 0.85682482E+02</rscale>
<asrwt>0</asrwt>
<pdfrwt beam="1">  1       11 0.10000000E+01 0.41545123E+02</pdfrwt>
<pdfrwt beam="2">  1        4 0.20635300E-02 0.85682482E+02</pdfrwt>
<totfact> 0.35157362E+03</totfact>
</mgrwt>
</event>
<event>
 5    1  0.1490736E-003  0.1883286E+03  0.7818608E-02  0.1166824E+00
         11   -1    0    0    0    0  0.00000000000E+00  0.00000000000E+00  0.10001193252E+04  0.10001193252E+04  0.51100000000E-03 0. -1.
          4   -1    0    0  501    0 -0.00000000000E+00 -0.00000000000E+00 -0.51655090461E+02  0.51674604696E+02  0.14200000000E+01 0. -1.
         11    1    1    2    0    0 -0.79139420399E+02  0.26282791480E+02  0.39898695421E+03  0.40760817290E+03  0.51100000000E-03 0. -1.
         22    1    1    2    0    0 -0.69790661953E+02  0.76597653623E+02  0.38804624224E+03  0.40164390093E+03  0.00000000000E+00 0. -1.
          4    1    1    2  501    0  0.14893008235E+03 -0.10288044510E+03  0.16143103826E+03  0.24254185603E+03  0.14200000000E+01 0. -1.
<mgrwt>
<rscale>  0 0.18101539E+03</rscale>
<asrwt>0</asrwt>
<pdfrwt beam="1">  1       11 0.10000000E+01 0.18832861E+03</pdfrwt>
<pdfrwt beam="2">  1        4 0.79494639E-02 0.18101539E+03</pdfrwt>
<totfact> 0.46600837E+02</totfact>
</mgrwt>
</event>
<event>
 5    1  0.1490736E-003  0.1408437E+03  0.7818608E-02  0.1216484E+00
         11   -1    0    0    0    0  0.00000000000E+00  0.00000000000E+00  0.10004635826E+04  0.10004635826E+04  0.51100000000E-03 0.  1.
          4   -1    0    0  501    0 -0.00000000000E+00 -0.00000000000E+00 -0.21391219764E+02  0.21438299443E+02  0.14200000000E+01 0.  1.
         11    1    1    2    0    0  0.97312674851E+02 -0.63350389545E+02  0.25413575976E+03  0.27940653702E+03  0.51100000000E-03 0.  1.
         22    1    1    2    0    0  0.21484975538E+02 -0.62271826244E+01  0.83116964453E+02  0.86074454730E+02  0.00000000000E+00 0. -1.
          4    1    1    2  501    0 -0.11879765039E+03  0.69577572170E+02  0.64181963864E+03  0.65642089031E+03  0.14200000000E+01 0.  1.
<mgrwt>
<rscale>  0 0.13768056E+03</rscale>
<asrwt>0</asrwt>
<pdfrwt beam="1">  1       11 0.10000000E+01 0.14084373E+03</pdfrwt>
<pdfrwt beam="2">  1        4 0.32961832E-02 0.13768056E+03</pdfrwt>
<totfact> 0.18588767E+03</totfact>
</mgrwt>
</event>
<event>
 5    1  0.1490736E-003  0.4363500E+03  0.7818608E-02  0.1033918E+00
         11   -1    0    0    0    0  0.00000000000E+00  0.00000000000E+00  0.10001338660E+04  0.10001338660E+04  0.51100000000E-03 0.  1.
          4   -1    0    0  501    0 -0.00000000000E+00 -0.00000000000E+00 -0.34792887498E+03  0.34793177269E+03  0.14200000000E+01 0.  1.
         11    1    1    2    0    0  0.32118597032E+03  0.27109737208E+03  0.74711178285E+03  0.85722239165E+03  0.51100000000E-03 0.  1.
         22    1    1    2    0    0 -0.76297910630E+00  0.15379730678E+02  0.37955795218E+02  0.40960476602E+02  0.00000000000E+00 0.  1.
          4    1    1    2  501    0 -0.32042299121E+03 -0.28647710276E+03 -0.13286258705E+03  0.44988277044E+03  0.14200000000E+01 0.  1.
<mgrwt>
<rscale>  0 0.42981629E+03</rscale>
<asrwt>0</asrwt>
<pdfrwt beam="1">  1       11 0.10000000E+01 0.43635005E+03</pdfrwt>
<pdfrwt beam="2">  1        4 0.53534984E-01 0.42981629E+03</pdfrwt>
<totfact> 0.14666495E+01</totfact>
</mgrwt>
</event>
<event>
 5    1  0.1490736E-003  0.2453832E+03  0.7818608E-02  0.1121155E+00
         11   -1    0    0    0    0  0.00000000000E+00  0.00000000000E+00  0.10001073308E+04  0.10001073308E+04  0.51100000000E-03 0.  1.
          4   -1    0    0  501    0 -0.00000000000E+00 -0.00000000000E+00 -0.59426133818E+02  0.59443096997E+02  0.14200000000E+01 0.  1.
         11    1    1    2    0    0  0.14909327666E+03  0.66459294313E+02  0.28074554032E+03  0.32475175342E+03  0.51100000000E-03 0.  1.
         22    1    1    2    0    0  0.81546918070E+02 -0.78867075599E+01  0.12679041248E+03  0.15095664510E+03  0.00000000000E+00 0.  1.
          4    1    1    2  501    0 -0.23064019473E+03 -0.58572586754E+02  0.53314524415E+03  0.58384202923E+03  0.14200000000E+01 0.  1.
<mgrwt>
<rscale>  0 0.23796568E+03</rscale>
<asrwt>0</asrwt>
<pdfrwt beam="1">  1       11 0.10000000E+01 0.24538323E+03</pdfrwt>
<pdfrwt beam="2">  1        4 0.91448457E-02 0.23796568E+03</pdfrwt>
<totfact> 0.38032317E+02</totfact>
</mgrwt>
</event>
<event>
 5    1  0.1490736E-003  0.3884821E+02  0.7818608E-02  0.1537299E+00
         11   -1    0    0    0    0  0.00000000000E+00  0.00000000000E+00  0.10000481773E+04  0.10000481773E+04  0.51100000000E-03 0. -1.
          4   -1    0    0  501    0 -0.00000000000E+00 -0.00000000000E+00 -0.10722698151E+02  0.10816314328E+02  0.14200000000E+01 0. -1.
         11    1    1    2    0    0 -0.16683429018E+02  0.44717804795E+01  0.57418241276E+01  0.18201707860E+02  0.51100000000E-03 0. -1.
         22    1    1    2    0    0 -0.14589384809E+02  0.13916300490E+02  0.20012824470E+02  0.28408215567E+02  0.00000000000E+00 0.  1.
          4    1    1    2  501    0  0.31272813827E+02 -0.18388080970E+02  0.96357083058E+03  0.96425456822E+03  0.14200000000E+01 0. -1.
<mgrwt>
<rscale>  0 0.36306016E+02</rscale>
<asrwt>0</asrwt>
<pdfrwt beam="1">  1       11 0.10000000E+01 0.38848205E+02</pdfrwt>
<pdfrwt beam="2">  1        4 0.16570044E-02 0.36306016E+02</pdfrwt>
<totfact> 0.39516248E+03</totfact>
</mgrwt>
</event>
<event>
 5    1  0.1490736E-003  0.4532852E+02  0.7818608E-02  0.1481752E+00
         11   -1    0    0    0    0  0.00000000000E+00  0.00000000000E+00  0.10002159216E+04  0.10002159216E+04  0.51100000000E-03 0.  1.
          4   -1    0    0  501    0 -0.00000000000E+00 -0.00000000000E+00 -0.30017943159E+01  0.33207181626E+01  0.14200000000E+01 0.  1.
         11    1    1    2    0    0  0.39115435638E+00  0.33829897347E+02  0.15597742499E+03  0.15960442369E+03  0.51100000000E-03 0.  1.
         22    1    1    2    0    0  0.61555834615E+01  0.94895744209E+01  0.42064294458E+02  0.43558559420E+02  0.00000000000E+00 0.  1.
          4    1    1    2  501    0 -0.65467378179E+01 -0.43319471767E+02  0.79917240788E+03  0.80037365669E+03  0.14200000000E+01 0.  1.
<mgrwt>
<rscale>  0 0.43834379E+02</rscale>
<asrwt>0</asrwt>
<pdfrwt beam="1">  1       11 0.10000000E+01 0.45328524E+02</pdfrwt>
<pdfrwt beam="2">  1        4 0.48652967E-03 0.43834379E+02</pdfrwt>
<totfact> 0.25066352E+04</totfact>
</mgrwt>
</event>
<event>
 5    1  0.1490736E-003  0.1010420E+03  0.7818608E-02  0.1290958E+00
         11   -1    0    0    0    0  0.00000000000E+00  0.00000000000E+00  0.99998914718E+03  0.99998914718E+03  0.51100000000E-03 0. -1.
         -4   -1    0    0    0  501 -0.00000000000E+00 -0.00000000000E+00 -0.96340901490E+01  0.97381770881E+01  0.14200000000E+01 0. -1.
         11    1    1    2    0    0  0.48050889422E+01 -0.72031164524E+02  0.38033274019E+03  0.38712345680E+03  0.51100000000E-03 0. -1.
         22    1    1    2    0    0  0.17163012342E+02 -0.20482581416E+02  0.87181522566E+02  0.91185103010E+02  0.00000000000E+00 0. -1.
         -4    1    1    2    0  501 -0.21968101284E+02  0.92513745940E+02  0.52284079427E+03  0.53141876446E+03  0.14200000000E+01 0. -1.
<mgrwt>
<rscale>  0 0.95096830E+02</rscale>
<asrwt>0</asrwt>
<pdfrwt beam="1">  1       11 0.10000000E+01 0.10104203E+03</pdfrwt>
<pdfrwt beam="2">  1       -4 0.14902357E-02 0.95096830E+02</pdfrwt>
<totfact> 0.58943040E+03</totfact>
</mgrwt>
</event>
<event>
 5    1  0.1490736E-003  0.2150396E+02  0.7818608E-02  0.1716975E+00
         11   -1    0    0    0    0  0.00000000000E+00  0.00000000000E+00  0.99977377323E+03  0.99977377323E+03  0.51100000000E-03 0. -1.
          4   -1    0    0  501    0 -0.00000000000E+00 -0.00000000000E+00 -0.20238800808E+01  0.24723451582E+01  0.14200000000E+01 0. -1.
         11    1    1    2    0    0  0.12984321592E+02  0.88885241769E+01  0.55656860664E+02  0.57838435391E+02  0.51100000000E-03 0. -1.
         22    1    1    2    0    0  0.19247718216E+02 -0.60309402789E+01  0.12050364494E+03  0.12218009389E+03  0.00000000000E+00 0. -1.
          4    1    1    2  501    0 -0.32232039808E+02 -0.28575838980E+01  0.82158938754E+03  0.82222758911E+03  0.14200000000E+01 0. -1.
<mgrwt>
<rscale>  0 0.21503965E+02</rscale>
<asrwt>0</asrwt>
<pdfrwt beam="1">  1       11 0.10000000E+01 0.15735270E+02</pdfrwt>
<pdfrwt beam="2">  1        4 0.34586278E-03 0.21503965E+02</pdfrwt>
<totfact> 0.31173060E+04</totfact>
</mgrwt>
</event>
<event>
 5    1  0.1490736E-003  0.1077756E+03  0.7818608E-02  0.1427739E+00
         11   -1    0    0    0    0  0.00000000000E+00  0.00000000000E+00  0.10001725858E+04  0.10001725858E+04  0.51100000000E-03 0. -1.
          4   -1    0    0  501    0 -0.00000000000E+00 -0.00000000000E+00 -0.16093979887E+02  0.16156502982E+02  0.14200000000E+01 0. -1.
         11    1    1    2    0    0  0.31501782938E+01 -0.96852139747E+02  0.39953005980E+03  0.41111376684E+03  0.51100000000E-03 0. -1.
         22    1    1    2    0    0 -0.12413856382E+02 -0.23381325463E+02  0.43770095769E+02  0.51152824891E+02  0.00000000000E+00 0. -1.
          4    1    1    2  501    0  0.92636780886E+01  0.12023346521E+03  0.54077845033E+03  0.55406249704E+03  0.14200000000E+01 0. -1.
<mgrwt>
<rscale>  0 0.53416580E+02</rscale>
<asrwt>0</asrwt>
<pdfrwt beam="1">  1       11 0.10000000E+01 0.10777560E+03</pdfrwt>
<pdfrwt beam="2">  1        4 0.24813120E-02 0.53416580E+02</pdfrwt>
<totfact> 0.23884071E+03</totfact>
</mgrwt>
</event>
<event>
 5    1  0.1490736E-003  0.5125277E+02  0.7818608E-02  0.1458676E+00
         11   -1    0    0    0    0  0.00000000000E+00  0.00000000000E+00  0.10002001611E+04  0.10002001611E+04  0.51100000000E-03 0. -1.
          4   -1    0    0  501    0 -0.00000000000E+00 -0.00000000000E+00 -0.39362296575E+01  0.41845315050E+01  0.14200000000E+01 0. -1.
         11    1    1    2    0    0 -0.53354161639E+01  0.23326274077E+02  0.66005925671E+02  0.70209429223E+02  0.51100000000E-03 0. -1.
         22    1    1    2    0    0  0.73063075621E+01  0.24221668708E+02  0.12631339755E+03  0.12882214781E+03  0.00000000000E+00 0. -1.
          4    1    1    2  501    0 -0.19708913982E+01 -0.47547942785E+02  0.80394460824E+03  0.80535311559E+03  0.14200000000E+01 0. -1.
<mgrwt>
<rscale>  0 0.47609954E+02</rscale>
<asrwt>0</asrwt>
<pdfrwt beam="1">  1       11 0.10000000E+01 0.51252771E+02</pdfrwt>
<pdfrwt beam="2">  1        4 0.62487651E-03 0.47609954E+02</pdfrwt>
<totfact> 0.17906550E+04</totfact>
</mgrwt>
</event>
<event>
 5    1  0.1490736E-003  0.1171834E+03  0.7818608E-02  0.1532080E+00
         11   -1    0    0    0    0  0.00000000000E+00  0.00000000000E+00  0.10007770062E+04  0.10007770062E+04  0.51100000000E-03 0. -1.
          4   -1    0    0  501    0 -0.00000000000E+00 -0.00000000000E+00 -0.20186549470E+02  0.20236431985E+02  0.14200000000E+01 0. -1.
         11    1    1    2    0    0  0.11357743291E+03  0.39939334138E+02  0.24013655243E+03  0.26862715330E+03  0.51100000000E-03 0. -1.
         22    1    1    2    0    0 -0.79153465538E+01  0.85332659468E+01  0.25359176901E+02  0.27902637723E+02  0.00000000000E+00 0. -1.
          4    1    1    2  501    0 -0.10566208635E+03 -0.48472600085E+02  0.71509472740E+03  0.72448364716E+03  0.14200000000E+01 0. -1.
<mgrwt>
<rscale>  0 0.36932544E+02</rscale>
<asrwt>0</asrwt>
<pdfrwt beam="1">  1       11 0.10000000E+01 0.11718345E+03</pdfrwt>
<pdfrwt beam="2">  1        4 0.31119536E-02 0.36932544E+02</pdfrwt>
<totfact> 0.15425126E+03</totfact>
</mgrwt>
</event>
<event>
 5    1  0.1490736E-003  0.1068702E+03  0.7818608E-02  0.1333087E+00
         11   -1    0    0    0    0  0.00000000000E+00  0.00000000000E+00  0.10004643879E+04  0.10004643879E+04  0.51100000000E-03 0. -1.
          4   -1    0    0  501    0 -0.00000000000E+00 -0.00000000000E+00 -0.22516550528E+02  0.22561282049E+02  0.14200000000E+01 0. -1.
         11    1    1    2    0    0 -0.46845059969E+02  0.89564349314E+02  0.23296271738E+03  0.25394460026E+03  0.51100000000E-03 0. -1.
         22    1    1    2    0    0 -0.50162978953E+02 -0.28705019671E+02  0.11429416746E+03  0.12807599044E+03  0.00000000000E+00 0. -1.
          4    1    1    2  501    0  0.97008038921E+02 -0.60859329643E+02  0.63069095253E+03  0.64100507925E+03  0.14200000000E+01 0. -1.
<mgrwt>
<rscale>  0 0.78594794E+02</rscale>
<asrwt>0</asrwt>
<pdfrwt beam="1">  1       11 0.10000000E+01 0.10687018E+03</pdfrwt>
<pdfrwt beam="2">  1        4 0.34692133E-02 0.78594794E+02</pdfrwt>
<totfact> 0.15507155E+03</totfact>
</mgrwt>
</event>
<event>
 5    1  0.1490736E-003  0.2222043E+03  0.7818608E-02  0.1312538E+00
         11   -1    0    0    0    0  0.00000000000E+00  0.00000000000E+00  0.10000823519E+04  0.10000823519E+04  0.51100000000E-03 0.  1.
          4   -1    0    0  501    0 -0.00000000000E+00 -0.00000000000E+00 -0.27887234330E+03  0.27887595855E+03  0.14200000000E+01 0.  1.
         11    1    1    2    0    0 -0.10977764631E+03  0.12522487368E+03 -0.14029352884E+03  0.21774910988E+03  0.51100000000E-03 0.  1.
         22    1    1    2    0    0  0.16283243757E+03 -0.19304285987E+03  0.65960428273E+02  0.26101863261E+03  0.00000000000E+00 0.  1.
          4    1    1    2  501    0 -0.53054791256E+02  0.67817986194E+02  0.79554310913E+03  0.80019056793E+03  0.14200000000E+01 0.  1.
<mgrwt>
<rscale>  0 0.86116819E+02</rscale>
<asrwt>0</asrwt>
<pdfrwt beam="1">  1       11 0.10000000E+01 0.22220427E+03</pdfrwt>
<pdfrwt beam="2">  1        4 0.42907325E-01 0.86116819E+02</pdfrwt>
<totfact> 0.20936651E+01</totfact>
</mgrwt>
</event>
<event>
 5    1  0.1490736E-003  0.1237324E+03  0.7818608E-02  0.1241451E+00
         11   -1    0    0    0    0  0.00000000000E+00  0.00000000000E+00  0.99983079999E+03  0.99983079999E+03  0.51100000000E-03 0.  1.
          4   -1    0    0  501    0 -0.00000000000E+00 -0.00000000000E+00 -0.15571415376E+02  0.15636028166E+02  0.14200000000E+01 0.  1.
         11    1    1    2    0    0 -0.99421020957E+02 -0.20751180590E+02  0.29456034353E+03  0.31157815534E+03  0.51100000000E-03 0.  1.
         22    1    1    2    0    0 -0.18436063726E+02 -0.66269724545E+01  0.10100294769E+03  0.10288537628E+03  0.00000000000E+00 0.  1.
          4    1    1    2  501    0  0.11785708468E+03  0.27378153045E+02  0.58869609340E+03  0.60100329654E+03  0.14200000000E+01 0.  1.
<mgrwt>
<rscale>  0 0.12100360E+03</rscale>
<asrwt>0</asrwt>
<pdfrwt beam="1">  1       11 0.10000000E+01 0.12373238E+03</pdfrwt>
<pdfrwt beam="2">  1        4 0.24002439E-02 0.12100360E+03</pdfrwt>
<totfact> 0.29815072E+03</totfact>
</mgrwt>
</event>
<event>
 5    1  0.1490736E-003  0.1488671E+03  0.7818608E-02  0.1201872E+00
         11   -1    0    0    0    0  0.00000000000E+00  0.00000000000E+00  0.99999545614E+03  0.99999545614E+03  0.51100000000E-03 0. -1.
          4   -1    0    0  501    0 -0.00000000000E+00 -0.00000000000E+00 -0.32386540699E+02  0.32417655968E+02  0.14200000000E+01 0. -1.
         11    1    1    2    0    0 -0.12454040097E+03  0.82558288579E+02  0.70819339192E+03  0.72378454173E+03  0.51100000000E-03 0. -1.
         22    1    1    2    0    0  0.71663620659E+01  0.88786250090E+01  0.52761995623E+02  0.53981616402E+02  0.00000000000E+00 0. -1.
          4    1    1    2  501    0  0.11737403891E+03 -0.91436913588E+02  0.20665352790E+03  0.25464695397E+03  0.14200000000E+01 0. -1.
<mgrwt>
<rscale>  0 0.14886706E+03</rscale>
<asrwt>0</asrwt>
<pdfrwt beam="1">  1       11 0.10000000E+01 0.11409940E+02</pdfrwt>
<pdfrwt beam="2">  1        4 0.49849930E-02 0.14886706E+03</pdfrwt>
<totfact> 0.97417018E+02</totfact>
</mgrwt>
</event>
<event>
 5    1  0.1490736E-003  0.1272338E+03  0.7818608E-02  0.1231619E+00
         11   -1    0    0    0    0  0.00000000000E+00  0.00000000000E+00  0.10003440918E+04  0.10003440918E+04  0.51100000000E-03 0.  1.
         -4   -1    0    0    0  501 -0.00000000000E+00 -0.00000000000E+00 -0.22676350041E+02  0.22720766959E+02  0.14200000000E+01 0. -1.
         11    1    1    2    0    0 -0.11056678334E+03 -0.51021661155E+02  0.53338991256E+03  0.54711335417E+03  0.51100000000E-03 0.  1.
         22    1    1    2    0    0  0.70222581358E+01 -0.29983087150E+02  0.15737035844E+03  0.16035500410E+03  0.00000000000E+00 0. -1.
         -4    1    1    2    0  501  0.10354452520E+03  0.81004748305E+02  0.28690747076E+03  0.31559650050E+03  0.14200000000E+01 0. -1.
<mgrwt>
<rscale>  0 0.12723382E+03</rscale>
<asrwt>0</asrwt>
<pdfrwt beam="1">  1       11 0.10000000E+01 0.30794441E+02</pdfrwt>
<pdfrwt beam="2">  1       -4 0.34933650E-02 0.12723382E+03</pdfrwt>
<totfact> 0.16741938E+03</totfact>
</mgrwt>
</event>
<event>
 5    1  0.1490736E-003  0.1760272E+03  0.7818608E-02  0.1175805E+00
         11   -1    0    0    0    0  0.00000000000E+00  0.00000000000E+00  0.10003516829E+04  0.10003516829E+04  0.51100000000E-03 0.  1.
          4   -1    0    0  501    0 -0.00000000000E+00 -0.00000000000E+00 -0.31662394109E+02  0.31694220304E+02  0.14200000000E+01 0.  1.
         11    1    1    2    0    0  0.69059927483E+02 -0.86804470028E+02  0.20354365950E+03  0.23180662399E+03  0.51100000000E-03 0.  1.
         22    1    1    2    0    0  0.46975114100E+02 -0.40116004148E+02  0.17720396213E+03  0.18766246116E+03  0.00000000000E+00 0. -1.
          4    1    1    2  501    0 -0.11603504158E+03  0.12692047418E+03  0.58794166715E+03  0.61257681805E+03  0.14200000000E+01 0.  1.
<mgrwt>
<rscale>  0 0.17197370E+03</rscale>
<asrwt>0</asrwt>
<pdfrwt beam="1">  1       11 0.10000000E+01 0.17602716E+03</pdfrwt>
<pdfrwt beam="2">  1        4 0.48753771E-02 0.17197370E+03</pdfrwt>
<totfact> 0.10310928E+03</totfact>
</mgrwt>
</event>
<event>
 5    1  0.1490736E-003  0.3844383E+02  0.7818608E-02  0.1525213E+00
         11   -1    0    0    0    0  0.00000000000E+00  0.00000000000E+00  0.10002083353E+04  0.10002083353E+04  0.51100000000E-03 0. -1.
          4   -1    0    0  501    0 -0.00000000000E+00 -0.00000000000E+00 -0.27011838271E+01  0.30516870855E+01  0.14200000000E+01 0. -1.
         11    1    1    2    0    0  0.21940352767E+02  0.15230998691E+02  0.96203109129E+02  0.99841878022E+02  0.51100000000E-03 0. -1.
         22    1    1    2    0    0  0.65966174944E+01  0.94867501969E+01  0.51742880849E+02  0.53017351030E+02  0.00000000000E+00 0. -1.
          4    1    1    2  501    0 -0.28536970262E+02 -0.24717748887E+02  0.84956116150E+03  0.85040079334E+03  0.14200000000E+01 0. -1.
<mgrwt>
<rscale>  0 0.37780182E+02</rscale>
<asrwt>0</asrwt>
<pdfrwt beam="1">  1       11 0.10000000E+01 0.38443829E+02</pdfrwt>
<pdfrwt beam="2">  1        4 0.44269827E-03 0.37780182E+02</pdfrwt>
<totfact> 0.27327956E+04</totfact>
</mgrwt>
</event>
<event>
 5    1  0.2141064E-003  0.1486893E+03  0.7818608E-02  0.1205277E+00
         11   -1    0    0    0    0  0.00000000000E+00  0.00000000000E+00  0.10002421982E+04  0.10002421982E+04  0.51100000000E-03 0. -1.
         -4   -1    0    0    0  501 -0.00000000000E+00 -0.00000000000E+00 -0.42397251776E+02  0.42421024954E+02  0.14200000000E+01 0.  1.
         11    1    1    2    0    0 -0.73210496800E+02 -0.11477169506E+03  0.79307895702E+03  0.80467791749E+03  0.51100000000E-03 0. -1.
         22    1    1    2    0    0 -0.11176499028E+02 -0.45536753689E+01  0.52003314511E+02  0.53385342651E+02  0.00000000000E+00 0. -1.
         -4    1    1    2    0  501  0.84386995828E+02  0.11932537043E+03  0.11276267488E+03  0.18459996300E+03  0.14200000000E+01 0.  1.
<mgrwt>
<rscale>  0 0.14615651E+03</rscale>
<asrwt>0</asrwt>
<pdfrwt beam="1">  1       11 0.10000000E+01 0.14868932E+03</pdfrwt>
<pdfrwt beam="2">  1       -4 0.65261404E-02 0.14615651E+03</pdfrwt>
<totfact> 0.62746404E+02</totfact>
</mgrwt>
</event>
<event>
 5    1  0.1490736E-003  0.4881850E+02  0.7818608E-02  0.1457148E+00
         11   -1    0    0    0    0  0.00000000000E+00  0.00000000000E+00  0.10005293257E+04  0.10005293257E+04  0.51100000000E-03 0. -1.
          4   -1    0    0  501    0 -0.00000000000E+00 -0.00000000000E+00 -0.60146334455E+01  0.61799850715E+01  0.14200000000E+01 0. -1.
         11    1    1    2    0    0  0.31572220971E+02  0.37151843309E+01  0.62136457034E+02  0.69796468569E+02  0.51100000000E-03 0. -1.
         22    1    1    2    0    0  0.14906773688E+02  0.76766865846E+01  0.41642917973E+02  0.44891825937E+02  0.00000000000E+00 0. -1.
          4    1    1    2  501    0 -0.46478994659E+02 -0.11391870916E+02  0.89073531727E+03  0.89202101629E+03  0.14200000000E+01 0. -1.
<mgrwt>
<rscale>  0 0.47875757E+02</rscale>
<asrwt>0</asrwt>
<pdfrwt beam="1">  1       11 0.10000000E+01 0.48818503E+02</pdfrwt>
<pdfrwt beam="2">  1        4 0.93862164E-03 0.47875757E+02</pdfrwt>
<totfact> 0.99017331E+03</totfact>
</mgrwt>
</event>
<event>
 5    1  0.1490736E-003  0.1011832E+03  0.7818608E-02  0.1277827E+00
         11   -1    0    0    0    0  0.00000000000E+00  0.00000000000E+00  0.99996220923E+03  0.99996220923E+03  0.51100000000E-03 0.  1.
          4   -1    0    0  501    0 -0.00000000000E+00 -0.00000000000E+00 -0.15942423719E+02  0.16005538855E+02  0.14200000000E+01 0.  1.
         11    1    1    2    0    0 -0.76957941319E+02 -0.57388809136E+02  0.26138301529E+03  0.27845480932E+03  0.51100000000E-03 0.  1.
         22    1    1    2    0    0 -0.29247288267E+02  0.15218254005E+02  0.17518436395E+03  0.17825981179E+03  0.00000000000E+00 0.  1.
          4    1    1    2  501    0  0.10620522959E+03  0.42170555131E+02  0.54745240626E+03  0.55925312698E+03  0.14200000000E+01 0.  1.
<mgrwt>
<rscale>  0 0.10118324E+03</rscale>
<asrwt>0</asrwt>
<pdfrwt beam="1">  1       11 0.10000000E+01 0.32969670E+02</pdfrwt>
<pdfrwt beam="2">  1        4 0.24575202E-02 0.10118324E+03</pdfrwt>
<totfact> 0.27798800E+03</totfact>
</mgrwt>
</event>
<event>
 5    1  0.1490736E-003  0.2561641E+03  0.7818608E-02  0.1112308E+00
         11   -1    0    0    0    0  0.00000000000E+00  0.00000000000E+00  0.10001708858E+04  0.10001708858E+04  0.51100000000E-03 0.  1.
          4   -1    0    0  501    0 -0.00000000000E+00 -0.00000000000E+00 -0.64433107671E+02  0.64448753007E+02  0.14200000000E+01 0.  1.
         11    1    1    2    0    0  0.60054338108E+02  0.24048679335E+02  0.91244266404E+02  0.11184980400E+03  0.51100000000E-03 0.  1.
         22    1    1    2    0    0  0.14596058318E+03  0.12034869819E+03  0.38196871911E+03  0.42624922683E+03  0.00000000000E+00 0.  1.
          4    1    1    2  501    0 -0.20601492129E+03 -0.14439737752E+03  0.46252479259E+03  0.52652060795E+03  0.14200000000E+01 0.  1.
<mgrwt>
<rscale>  0 0.25158451E+03</rscale>
<asrwt>0</asrwt>
<pdfrwt beam="1">  1       11 0.10000000E+01 0.25616408E+03</pdfrwt>
<pdfrwt beam="2">  1        4 0.99157607E-02 0.25158451E+03</pdfrwt>
<totfact> 0.33344366E+02</totfact>
</mgrwt>
</event>
<event>
 5    1  0.1490736E-003  0.1482812E+03  0.7818608E-02  0.1202601E+00
         11   -1    0    0    0    0  0.00000000000E+00  0.00000000000E+00  0.10003300071E+04  0.10003300071E+04  0.51100000000E-03 0. -1.
          4   -1    0    0  501    0 -0.00000000000E+00 -0.00000000000E+00 -0.80476199283E+02  0.80488726236E+02  0.14200000000E+01 0. -1.
         11    1    1    2    0    0 -0.12856932245E+03 -0.16262785409E+03  0.41099187358E+03  0.46031750971E+03  0.51100000000E-03 0. -1.
         22    1    1    2    0    0  0.13334993510E+03  0.20124911100E+02  0.44367245739E+03  0.46371593318E+03  0.00000000000E+00 0.  1.
          4    1    1    2  501    0 -0.47806126495E+01  0.14250294299E+03  0.65189476895E+02  0.15678529049E+03  0.14200000000E+01 0. -1.
<mgrwt>
<rscale>  0 0.14828120E+03</rscale>
<asrwt>0</asrwt>
<pdfrwt beam="1">  1       11 0.10000000E+01 0.13485999E+03</pdfrwt>
<pdfrwt beam="2">  1        4 0.12386081E-01 0.14828120E+03</pdfrwt>
<totfact> 0.21491328E+02</totfact>
</mgrwt>
</event>
<event>
 5    1  0.1490736E-003  0.2631089E+03  0.7818608E-02  0.1105290E+00
         11   -1    0    0    0    0  0.00000000000E+00  0.00000000000E+00  0.10001179811E+04  0.10001179811E+04  0.51100000000E-03 0.  1.
          4   -1    0    0  501    0 -0.00000000000E+00 -0.00000000000E+00 -0.87661861427E+02  0.87673361683E+02  0.14200000000E+01 0.  1.
         11    1    1    2    0    0 -0.18900078574E+03 -0.16916200994E+03  0.32571095204E+03  0.41282527405E+03  0.51100000000E-03 0.  1.
         22    1    1    2    0    0 -0.47769572112E+02  0.22918488045E+02  0.12613293323E+03  0.13680901271E+03  0.00000000000E+00 0.  1.
          4    1    1    2  501    0  0.23677035785E+03  0.14624352190E+03  0.46061223439E+03  0.53815705600E+03  0.14200000000E+01 0.  1.
<mgrwt>
<rscale>  0 0.26310887E+03</rscale>
<asrwt>0</asrwt>
<pdfrwt beam="1">  1       11 0.10000000E+01 0.52982913E+02</pdfrwt>
<pdfrwt beam="2">  1        4 0.13488993E-01 0.26310887E+03</pdfrwt>
<totfact> 0.19683903E+02</totfact>
</mgrwt>
</event>
<event>
 5    1  0.1490736E-003  0.1341631E+03  0.7818608E-02  0.1230281E+00
         11   -1    0    0    0    0  0.00000000000E+00  0.00000000000E+00  0.99992595973E+03  0.99992595973E+03  0.51100000000E-03 0. -1.
         -4   -1    0    0    0  501 -0.00000000000E+00 -0.00000000000E+00 -0.18037053513E+02  0.18092863219E+02  0.14200000000E+01 0.  1.
         11    1    1    2    0    0 -0.76941221944E+02  0.53961037740E+02  0.38507641144E+03  0.39637808702E+03  0.51100000000E-03 0. -1.
         22    1    1    2    0    0 -0.38316034357E+02  0.19591656297E+01  0.22811536507E+03  0.23131920932E+03  0.00000000000E+00 0. -1.
         -4    1    1    2    0  501  0.11525725630E+03 -0.55920203369E+02  0.36869712971E+03  0.39032152660E+03  0.14200000000E+01 0.  1.
<mgrwt>
<rscale>  0 0.12811448E+03</rscale>
<asrwt>0</asrwt>
<pdfrwt beam="1">  1       11 0.10000000E+01 0.13416311E+03</pdfrwt>
<pdfrwt beam="2">  1       -4 0.27790961E-02 0.12811448E+03</pdfrwt>
<totfact> 0.23989277E+03</totfact>
</mgrwt>
</event>
<event>
 5    1  0.1490736E-003  0.2409849E+03  0.7818608E-02  0.1423319E+00
         11   -1    0    0    0    0  0.00000000000E+00  0.00000000000E+00  0.10001726092E+04  0.10001726092E+04  0.51100000000E-03 0. -1.
         -4   -1    0    0    0  501 -0.00000000000E+00 -0.00000000000E+00 -0.93297326049E+02  0.93308131735E+02  0.14200000000E+01 0.  1.
         11    1    1    2    0    0 -0.22997765047E+03  0.65056055756E+02  0.75226932624E+03  0.78932322233E+03  0.51100000000E-03 0. -1.
         22    1    1    2    0    0 -0.11369797094E+02 -0.45493878238E+01  0.13018880623E+02  0.17873457086E+02  0.00000000000E+00 0.  1.
         -4    1    1    2    0  501  0.24134744757E+03 -0.60506667932E+02  0.14158707630E+03  0.28628406153E+03  0.14200000000E+01 0.  1.
<mgrwt>
<rscale>  0 0.54324938E+02</rscale>
<asrwt>0</asrwt>
<pdfrwt beam="1">  1       11 0.10000000E+01 0.24098492E+03</pdfrwt>
<pdfrwt beam="2">  1       -4 0.14356821E-01 0.54324938E+02</pdfrwt>
<totfact> 0.14528452E+02</totfact>
</mgrwt>
</event>
<event>
 5    1  0.1490736E-003  0.5697385E+03  0.7818608E-02  0.1309430E+00
         11   -1    0    0    0    0  0.00000000000E+00  0.00000000000E+00  0.10000657614E+04  0.10000657614E+04  0.51100000000E-03 0. -1.
         -4   -1    0    0    0  501 -0.00000000000E+00 -0.00000000000E+00 -0.57382999662E+03  0.57383175358E+03  0.14200000000E+01 0.  1.
         11    1    1    2    0    0 -0.56753516383E+03  0.23739477095E+02  0.70600591123E+03  0.90614793034E+03  0.51100000000E-03 0. -1.
         22    1    1    2    0    0 -0.86345107441E+01  0.10231910673E+02 -0.41014302571E+02  0.43144174430E+02  0.00000000000E+00 0.  1.
         -4    1    1    2    0  501  0.57616967458E+03 -0.33971387768E+02 -0.23875584387E+03  0.62460541022E+03  0.14200000000E+01 0.  1.
<mgrwt>
<rscale>  0 0.87337605E+02</rscale>
<asrwt>0</asrwt>
<pdfrwt beam="1">  1       11 0.10000000E+01 0.56973846E+03</pdfrwt>
<pdfrwt beam="2">  1       -4 0.88287554E-01 0.87337605E+02</pdfrwt>
<totfact> 0.46343085E+00</totfact>
</mgrwt>
</event>
<event>
 5    1  0.1490736E-003  0.1559499E+03  0.7818608E-02  0.1207875E+00
         11   -1    0    0    0    0  0.00000000000E+00  0.00000000000E+00  0.99983549711E+03  0.99983549711E+03  0.51100000000E-03 0. -1.
          4   -1    0    0  501    0 -0.00000000000E+00 -0.00000000000E+00 -0.35534162552E+02  0.35562523930E+02  0.14200000000E+01 0. -1.
         11    1    1    2    0    0  0.38901742593E+02  0.10630409117E+03  0.68276653697E+03  0.69208673545E+03  0.51100000000E-03 0. -1.
         22    1    1    2    0    0  0.32852149313E+02  0.18689066167E+02  0.12471952927E+03  0.13032078073E+03  0.00000000000E+00 0.  1.
          4    1    1    2  501    0 -0.71753891906E+02 -0.12499315734E+03  0.15681526832E+03  0.21299050487E+03  0.14200000000E+01 0. -1.
<mgrwt>
<rscale>  0 0.14413163E+03</rscale>
<asrwt>0</asrwt>
<pdfrwt beam="1">  1       11 0.10000000E+01 0.15594991E+03</pdfrwt>
<pdfrwt beam="2">  1        4 0.54681536E-02 0.14413163E+03</pdfrwt>
<totfact> 0.83504544E+02</totfact>
</mgrwt>
</event>
<event>
 5    1  0.1490736E-003  0.2594930E+03  0.7818608E-02  0.1112802E+00
         11   -1    0    0    0    0  0.00000000000E+00  0.00000000000E+00  0.10001196541E+04  0.10001196541E+04  0.51100000000E-03 0. -1.
          4   -1    0    0  501    0 -0.00000000000E+00 -0.00000000000E+00 -0.96298988355E+02  0.96309457262E+02  0.14200000000E+01 0. -1.
         11    1    1    2    0    0 -0.29442260928E+02  0.97926873220E+02  0.40650489396E+03  0.41916911628E+03  0.51100000000E-03 0. -1.
         22    1    1    2    0    0 -0.76811366529E+02  0.12924515081E+03  0.36268375273E+03  0.39261151222E+03  0.00000000000E+00 0. -1.
          4    1    1    2  501    0  0.10625362746E+03 -0.22717202403E+03  0.13463201910E+03  0.28464848290E+03  0.14200000000E+01 0. -1.
<mgrwt>
<rscale>  0 0.25079669E+03</rscale>
<asrwt>0</asrwt>
<pdfrwt beam="1">  1       11 0.10000000E+01 0.25949300E+03</pdfrwt>
<pdfrwt beam="2">  1        4 0.14817884E-01 0.25079669E+03</pdfrwt>
<totfact> 0.16611907E+02</totfact>
</mgrwt>
</event>
<event>
 5    1  0.1490736E-003  0.9840855E+02  0.7818608E-02  0.1389893E+00
         11   -1    0    0    0    0  0.00000000000E+00  0.00000000000E+00  0.10003801519E+04  0.10003801519E+04  0.51100000000E-03 0.  1.
          4   -1    0    0  501    0 -0.00000000000E+00 -0.00000000000E+00 -0.14498958809E+02  0.14568328887E+02  0.14200000000E+01 0.  1.
         11    1    1    2    0    0  0.89080716338E+02 -0.18907554388E+02  0.38639535982E+03  0.39698141484E+03  0.51100000000E-03 0.  1.
         22    1    1    2    0    0  0.54452807398E+01 -0.38591338367E+02  0.13764175073E+03  0.14305311609E+03  0.00000000000E+00 0.  1.
          4    1    1    2  501    0 -0.94525997078E+02  0.57498892755E+02  0.46184408255E+03  0.47491394986E+03  0.14200000000E+01 0.  1.
<mgrwt>
<rscale>  0 0.61933318E+02</rscale>
<asrwt>0</asrwt>
<pdfrwt beam="1">  1       11 0.10000000E+01 0.98408547E+02</pdfrwt>
<pdfrwt beam="2">  1        4 0.22368727E-02 0.61933318E+02</pdfrwt>
<totfact> 0.28952987E+03</totfact>
</mgrwt>
</event>
<event>
 5    1  0.1490736E-003  0.1725380E+03  0.7818608E-02  0.1360514E+00
         11   -1    0    0    0    0  0.00000000000E+00  0.00000000000E+00  0.10000185224E+04  0.10000185224E+04  0.51100000000E-03 0. -1.
          4   -1    0    0  501    0 -0.00000000000E+00 -0.00000000000E+00 -0.11120826018E+03  0.11121732568E+03  0.14200000000E+01 0. -1.
         11    1    1    2    0    0  0.72391750448E+02 -0.15631245447E+03  0.87249277433E+03  0.88933558920E+03  0.51100000000E-03 0. -1.
         22    1    1    2    0    0 -0.24120348998E+02 -0.14798666928E+02  0.32826484020E+02  0.43340164187E+02  0.00000000000E+00 0.  1.
          4    1    1    2  501    0 -0.48271401451E+02  0.17111112140E+03 -0.16508996135E+02  0.17856009469E+03  0.14200000000E+01 0. -1.
<mgrwt>
<rscale>  0 0.69876253E+02</rscale>
<asrwt>0</asrwt>
<pdfrwt beam="1">  1       11 0.10000000E+01 0.17253798E+03</pdfrwt>
<pdfrwt beam="2">  1        4 0.17110054E-01 0.69876253E+02</pdfrwt>
<totfact> 0.11159867E+02</totfact>
</mgrwt>
</event>
<event>
 5    1  0.1490736E-003  0.9609246E+02  0.7818608E-02  0.1514725E+00
         11   -1    0    0    0    0  0.00000000000E+00  0.00000000000E+00  0.10000705468E+04  0.10000705468E+04  0.51100000000E-03 0.  1.
          4   -1    0    0  501    0 -0.00000000000E+00 -0.00000000000E+00 -0.21332632231E+02  0.21379840923E+02  0.14200000000E+01 0.  1.
         11    1    1    2    0    0 -0.56444033783E+02 -0.87559848314E+02  0.39915848968E+03  0.41252897579E+03  0.51100000000E-03 0.  1.
         22    1    1    2    0    0  0.76849157575E+02  0.54203506207E+02  0.55456148414E+03  0.56247866875E+03  0.00000000000E+00 0.  1.
          4    1    1    2  501    0 -0.20405123792E+02  0.33356342108E+02  0.25017940771E+02  0.46442743203E+02  0.14200000000E+01 0.  1.
<mgrwt>
<rscale>  0 0.39128392E+02</rscale>
<asrwt>0</asrwt>
<pdfrwt beam="1">  1       11 0.10000000E+01 0.96092463E+02</pdfrwt>
<pdfrwt beam="2">  1        4 0.32858841E-02 0.39128392E+02</pdfrwt>
<totfact> 0.14413833E+03</totfact>
</mgrwt>
</event>
<event>
 5    1  0.1490736E-003  0.5144583E+02  0.7818608E-02  0.1437696E+00
         11   -1    0    0    0    0  0.00000000000E+00  0.00000000000E+00  0.10004650403E+04  0.10004650403E+04  0.51100000000E-03 0. -1.
          4   -1    0    0  501    0 -0.00000000000E+00 -0.00000000000E+00 -0.75808758630E+01  0.77127218833E+01  0.14200000000E+01 0. -1.
         11    1    1    2    0    0 -0.22282017727E+02 -0.57738279599E+01  0.34649167323E+02  0.41597959081E+02  0.51100000000E-03 0. -1.
         22    1    1    2    0    0  0.55622643749E+02 -0.69914763955E+01  0.20585456299E+03  0.21335149482E+03  0.00000000000E+00 0. -1.
          4    1    1    2  501    0 -0.33340626021E+02  0.12765304355E+02  0.75238043410E+03  0.75322830825E+03  0.14200000000E+01 0. -1.
<mgrwt>
<rscale>  0 0.51445833E+02</rscale>
<asrwt>0</asrwt>
<pdfrwt beam="1">  1       11 0.10000000E+01 0.23017948E+02</pdfrwt>
<pdfrwt beam="2">  1        4 0.11770552E-02 0.51445833E+02</pdfrwt>
<totfact> 0.72368178E+03</totfact>
</mgrwt>
</event>
<event>
 5    1  0.1490736E-003  0.1148041E+03  0.7818608E-02  0.1258784E+00
         11   -1    0    0    0    0  0.00000000000E+00  0.00000000000E+00  0.99999974185E+03  0.99999974185E+03  0.51100000000E-03 0.  1.
          4   -1    0    0  501    0 -0.00000000000E+00 -0.00000000000E+00 -0.12746768574E+02  0.12825619247E+02  0.14200000000E+01 0.  1.
         11    1    1    2    0    0 -0.47865695254E+02  0.17576258846E+02  0.16865438482E+03  0.17619407248E+03  0.51100000000E-03 0.  1.
         22    1    1    2    0    0 -0.46920239796E+02  0.40112031295E+02  0.30389115363E+03  0.31009727057E+03  0.00000000000E+00 0.  1.
          4    1    1    2  501    0  0.94785935050E+02 -0.57688290141E+02  0.51470743483E+03  0.52653401806E+03  0.14200000000E+01 0.  1.
<mgrwt>
<rscale>  0 0.11096995E+03</rscale>
<asrwt>0</asrwt>
<pdfrwt beam="1">  1       11 0.10000000E+01 0.11480411E+03</pdfrwt>
<pdfrwt beam="2">  1        4 0.19671837E-02 0.11096995E+03</pdfrwt>
<totfact> 0.39855077E+03</totfact>
</mgrwt>
</event>
<event>
 5    1  0.1490736E-003  0.6734159E+02  0.7818608E-02  0.1375003E+00
         11   -1    0    0    0    0  0.00000000000E+00  0.00000000000E+00  0.10005915742E+04  0.10005915742E+04  0.51100000000E-03 0.  1.
          4   -1    0    0  501    0 -0.00000000000E+00 -0.00000000000E+00 -0.50477710766E+01  0.52437003006E+01  0.14200000000E+01 0.  1.
         11    1    1    2    0    0  0.41132883290E+02 -0.45194108668E-01  0.17989568961E+03  0.18453827590E+03  0.51100000000E-03 0.  1.
         22    1    1    2    0    0  0.23815785721E+02 -0.10382353851E+02  0.13507871136E+03  0.13755450987E+03  0.00000000000E+00 0.  1.
          4    1    1    2  501    0 -0.64948669011E+02  0.10427547959E+02  0.68056940214E+03  0.68374248873E+03  0.14200000000E+01 0.  1.
<mgrwt>
<rscale>  0 0.65795743E+02</rscale>
<asrwt>0</asrwt>
<pdfrwt beam="1">  1       11 0.10000000E+01 0.67341587E+02</pdfrwt>
<pdfrwt beam="2">  1        4 0.79219750E-03 0.65795743E+02</pdfrwt>
<totfact> 0.13866035E+04</totfact>
</mgrwt>
</event>
<event>
 5    1  0.1490736E-003  0.2029213E+03  0.7818608E-02  0.1151576E+00
         11   -1    0    0    0    0  0.00000000000E+00  0.00000000000E+00  0.10003248102E+04  0.10003248102E+04  0.51100000000E-03 0. -1.
         -4   -1    0    0    0  501 -0.00000000000E+00 -0.00000000000E+00 -0.44221795123E+02  0.44244587962E+02  0.14200000000E+01 0.  1.
         11    1    1    2    0    0  0.16015742002E+03 -0.48613605365E+02  0.58319637290E+03  0.60673856905E+03  0.51100000000E-03 0. -1.
         22    1    1    2    0    0  0.26777423394E+02 -0.16140771963E+02  0.59254131376E+02  0.66997067162E+02  0.00000000000E+00 0.  1.
         -4    1    1    2    0  501 -0.18693484341E+03  0.64754377328E+02  0.31365251079E+03  0.37083376193E+03  0.14200000000E+01 0.  1.
<mgrwt>
<rscale>  0 0.19783777E+03</rscale>
<asrwt>0</asrwt>
<pdfrwt beam="1">  1       11 0.10000000E+01 0.20292131E+03</pdfrwt>
<pdfrwt beam="2">  1       -4 0.68073941E-02 0.19783777E+03</pdfrwt>
<totfact> 0.60944819E+02</totfact>
</mgrwt>
</event>
<event>
 5    1  0.1490736E-003  0.9843003E+02  0.7818608E-02  0.1283632E+00
         11   -1    0    0    0    0  0.00000000000E+00  0.00000000000E+00  0.99996611216E+03  0.99996611216E+03  0.51100000000E-03 0. -1.
          4   -1    0    0  501    0 -0.00000000000E+00 -0.00000000000E+00 -0.12973763796E+02  0.13051243122E+02  0.14200000000E+01 0. -1.
         11    1    1    2    0    0 -0.90393472902E+02 -0.37239681988E+02  0.27656914951E+03  0.29333985123E+03  0.51100000000E-03 0. -1.
         22    1    1    2    0    0 -0.70684749854E+01  0.12402097501E+02  0.75833984575E+02  0.77165851111E+02  0.00000000000E+00 0. -1.
          4    1    1    2  501    0  0.97461947888E+02  0.24837584487E+02  0.63458921427E+03  0.64251165294E+03  0.14200000000E+01 0. -1.
<mgrwt>
<rscale>  0 0.98430032E+02</rscale>
<asrwt>0</asrwt>
<pdfrwt beam="1">  1       11 0.10000000E+01 0.14274991E+02</pdfrwt>
<pdfrwt beam="2">  1        4 0.20019333E-02 0.98430032E+02</pdfrwt>
<totfact> 0.37887882E+03</totfact>
</mgrwt>
</event>
<event>
 5    1  0.1490736E-003  0.1034696E+03  0.7818608E-02  0.1522754E+00
         11   -1    0    0    0    0  0.00000000000E+00  0.00000000000E+00  0.99996165137E+03  0.99996165137E+03  0.51100000000E-03 0.  1.
          4   -1    0    0  501    0 -0.00000000000E+00 -0.00000000000E+00 -0.11813451985E+03  0.11814305388E+03  0.14200000000E+01 0.  1.
         11    1    1    2    0    0 -0.35574720217E+02  0.81297091779E+02  0.43055294800E+03  0.43960279671E+03  0.51100000000E-03 0.  1.
         22    1    1    2    0    0  0.52578918258E+02 -0.11535168566E+03  0.55432547532E+03  0.56863633951E+03  0.00000000000E+00 0.  1.
          4    1    1    2  501    0 -0.17004198041E+02  0.34054593883E+02 -0.10305129179E+03  0.10986556902E+03  0.14200000000E+01 0.  1.
<mgrwt>
<rscale>  0 0.38090347E+02</rscale>
<asrwt>0</asrwt>
<pdfrwt beam="1">  1       11 0.10000000E+01 0.10346959E+03</pdfrwt>
<pdfrwt beam="2">  1        4 0.18174578E-01 0.38090347E+02</pdfrwt>
<totfact> 0.91253380E+01</totfact>
</mgrwt>
</event>
<event>
 5    1  0.1490736E-003  0.1457826E+03  0.7818608E-02  0.1207554E+00
         11   -1    0    0    0    0  0.00000000000E+00  0.00000000000E+00  0.99989203494E+03  0.99989203494E+03  0.51100000000E-03 0.  1.
          4   -1    0    0  501    0 -0.00000000000E+00 -0.00000000000E+00 -0.26672107851E+02  0.26709880891E+02  0.14200000000E+01 0.  1.
         11    1    1    2    0    0  0.12763800574E+03 -0.35861218170E+02  0.67062874396E+03  0.68360836720E+03  0.51100000000E-03 0.  1.
         22    1    1    2    0    0  0.12776117938E+02  0.22827744739E+01  0.53799375363E+02  0.55342687306E+02  0.00000000000E+00 0. -1.
          4    1    1    2  501    0 -0.14041412368E+03  0.33578443696E+02  0.24879180776E+03  0.28765086132E+03  0.14200000000E+01 0.  1.
<mgrwt>
<rscale>  0 0.14438024E+03</rscale>
<asrwt>0</asrwt>
<pdfrwt beam="1">  1       11 0.10000000E+01 0.14578258E+03</pdfrwt>
<pdfrwt beam="2">  1        4 0.41059409E-02 0.14438024E+03</pdfrwt>
<totfact> 0.13229318E+03</totfact>
</mgrwt>
</event>
<event>
 5    1  0.1490736E-003  0.3192394E+02  0.7818608E-02  0.1600053E+00
         11   -1    0    0    0    0  0.00000000000E+00  0.00000000000E+00  0.10001433250E+04  0.10001433250E+04  0.51100000000E-03 0. -1.
         -4   -1    0    0    0  501 -0.00000000000E+00 -0.00000000000E+00 -0.21202143983E+01  0.25518050660E+01  0.14200000000E+01 0. -1.
         11    1    1    2    0    0  0.16958945182E+02  0.49930636398E+01  0.82740878583E+02  0.84608448131E+02  0.51100000000E-03 0. -1.
         22    1    1    2    0    0  0.12802536974E+02 -0.37082731379E+01  0.37506098161E+02  0.39804065645E+02  0.00000000000E+00 0. -1.
         -4    1    1    2    0  501 -0.29761482156E+02 -0.12847905018E+01  0.87777613390E+03  0.87828261633E+03  0.14200000000E+01 0. -1.
<mgrwt>
<rscale>  0 0.29823026E+02</rscale>
<asrwt>0</asrwt>
<pdfrwt beam="1">  1       11 0.10000000E+01 0.31923943E+02</pdfrwt>
<pdfrwt beam="2">  1       -4 0.35951517E-03 0.29823026E+02</pdfrwt>
<totfact> 0.33746233E+04</totfact>
</mgrwt>
</event>
<event>
 5    1  0.1490736E-003  0.2881050E+03  0.7818608E-02  0.1091343E+00
         11   -1    0    0    0    0  0.00000000000E+00  0.00000000000E+00  0.10003300544E+04  0.10003300544E+04  0.51100000000E-03 0. -1.
          4   -1    0    0  501    0 -0.00000000000E+00 -0.00000000000E+00 -0.17301210867E+03  0.17301793591E+03  0.14200000000E+01 0.  1.
         11    1    1    2    0    0 -0.25150791405E+03 -0.38515149751E+02  0.56014331982E+03  0.61522368805E+03  0.51100000000E-03 0. -1.
         22    1    1    2    0    0 -0.46216001949E+02  0.39947534455E+02  0.25276825327E+03  0.26004521570E+03  0.00000000000E+00 0. -1.
          4    1    1    2  501    0  0.29772391600E+03 -0.14323847039E+01  0.14406372648E+02  0.29807908658E+03  0.14200000000E+01 0.  1.
<mgrwt>
<rscale>  0 0.28810505E+03</rscale>
<asrwt>0</asrwt>
<pdfrwt beam="1">  1       11 0.10000000E+01 0.61087841E+02</pdfrwt>
<pdfrwt beam="2">  1        4 0.26626558E-01 0.28810505E+03</pdfrwt>
<totfact> 0.57696430E+01</totfact>
</mgrwt>
</event>
<event>
 5    1  0.1490736E-003  0.5013185E+02  0.7818608E-02  0.1451233E+00
         11   -1    0    0    0    0  0.00000000000E+00  0.00000000000E+00  0.10001678463E+04  0.10001678463E+04  0.51100000000E-03 0. -1.
          4   -1    0    0  501    0 -0.00000000000E+00 -0.00000000000E+00 -0.40387972639E+01  0.42811544399E+01  0.14200000000E+01 0. -1.
         11    1    1    2    0    0 -0.21163901160E+02  0.92625611498E+01  0.86864452275E+02  0.89884029842E+02  0.51100000000E-03 0. -1.
         22    1    1    2    0    0 -0.17815339415E+02  0.20269742404E+02  0.93017729033E+02  0.96853222404E+02  0.00000000000E+00 0.  1.
          4    1    1    2  501    0  0.38979240575E+02 -0.29532303554E+02  0.81624686777E+03  0.81771174854E+03  0.14200000000E+01 0. -1.
<mgrwt>
<rscale>  0 0.48923967E+02</rscale>
<asrwt>0</asrwt>
<pdfrwt beam="1">  1       11 0.10000000E+01 0.50131848E+02</pdfrwt>
<pdfrwt beam="2">  1        4 0.64018124E-03 0.48923967E+02</pdfrwt>
<totfact> 0.17429969E+04</totfact>
</mgrwt>
</event>
<event>
 5    1  0.1490736E-003  0.3903166E+02  0.7818608E-02  0.1533581E+00
         11   -1    0    0    0    0  0.00000000000E+00  0.00000000000E+00  0.10004006309E+04  0.10004006309E+04  0.51100000000E-03 0. -1.
          4   -1    0    0  501    0 -0.00000000000E+00 -0.00000000000E+00 -0.35092917279E+01  0.37857005206E+01  0.14200000000E+01 0. -1.
         11    1    1    2    0    0  0.77914187059E+01 -0.10520434077E+02  0.40556274227E+02  0.42616864244E+02  0.51100000000E-03 0. -1.
         22    1    1    2    0    0 -0.23461366618E+01 -0.25796888813E+02  0.72812252280E+02  0.77282649487E+02  0.00000000000E+00 0. -1.
          4    1    1    2  501    0 -0.54452820441E+01  0.36317322890E+02  0.88352281266E+03  0.88428681768E+03  0.14200000000E+01 0. -1.
<mgrwt>
<rscale>  0 0.36750720E+02</rscale>
<asrwt>0</asrwt>
<pdfrwt beam="1">  1       11 0.10000000E+01 0.39031661E+02</pdfrwt>
<pdfrwt beam="2">  1        4 0.56145560E-03 0.36750720E+02</pdfrwt>
<totfact> 0.19246520E+04</totfact>
</mgrwt>
</event>
<event>
 5    1  0.1490736E-003  0.4116548E+02  0.7818608E-02  0.1499806E+00
         11   -1    0    0    0    0  0.00000000000E+00  0.00000000000E+00  0.10001245078E+04  0.10001245078E+04  0.51100000000E-03 0. -1.
          4   -1    0    0  501    0 -0.00000000000E+00 -0.00000000000E+00 -0.54044288795E+01  0.55878664545E+01  0.14200000000E+01 0. -1.
         11    1    1    2    0    0  0.16689024857E+02  0.94664576305E+01  0.47677984599E+02  0.51393847749E+02  0.51100000000E-03 0. -1.
         22    1    1    2    0    0  0.23281946791E+02 -0.33503222903E+02  0.13730972408E+03  0.14324271471E+03  0.00000000000E+00 0. -1.
          4    1    1    2  501    0 -0.39970971648E+02  0.24036765272E+02  0.80973237023E+03  0.81107581178E+03  0.14200000000E+01 0. -1.
<mgrwt>
<rscale>  0 0.41165477E+02</rscale>
<asrwt>0</asrwt>
<pdfrwt beam="1">  1       11 0.10000000E+01 0.19186916E+02</pdfrwt>
<pdfrwt beam="2">  1        4 0.84574399E-03 0.41165477E+02</pdfrwt>
<totfact> 0.11027069E+04</totfact>
</mgrwt>
</event>
<event>
 5    1  0.1490736E-003  0.7046711E+02  0.7818608E-02  0.1358512E+00
         11   -1    0    0    0    0  0.00000000000E+00  0.00000000000E+00  0.10003424413E+04  0.10003424413E+04  0.51100000000E-03 0. -1.
          4   -1    0    0  501    0 -0.00000000000E+00 -0.00000000000E+00 -0.15946298257E+02  0.16009398118E+02  0.14200000000E+01 0. -1.
         11    1    1    2    0    0  0.58216754764E+02 -0.33846858999E+02  0.29028597641E+03  0.29799454441E+03  0.51100000000E-03 0. -1.
         22    1    1    2    0    0  0.38091764434E+02  0.56378192526E+02  0.14204613537E+03  0.15750107200E+03  0.00000000000E+00 0. -1.
          4    1    1    2  501    0 -0.96308519197E+02 -0.22531333527E+02  0.55206403130E+03  0.56085622304E+03  0.14200000000E+01 0. -1.
<mgrwt>
<rscale>  0 0.70467111E+02</rscale>
<asrwt>0</asrwt>
<pdfrwt beam="1">  1       11 0.10000000E+01 0.67340927E+02</pdfrwt>
<pdfrwt beam="2">  1        4 0.24590497E-02 0.70467111E+02</pdfrwt>
<totfact> 0.25791587E+03</totfact>
</mgrwt>
</event>
<event>
 5    1  0.1490736E-003  0.3942111E+02  0.7818608E-02  0.1546515E+00
         11   -1    0    0    0    0  0.00000000000E+00  0.00000000000E+00  0.10004257311E+04  0.10004257311E+04  0.51100000000E-03 0. -1.
         -4   -1    0    0    0  501 -0.00000000000E+00 -0.00000000000E+00 -0.39097661358E+01  0.41596479703E+01  0.14200000000E+01 0. -1.
         11    1    1    2    0    0  0.87499858778E+01  0.16264049165E+02  0.68408785677E+02  0.70857910682E+02  0.51100000000E-03 0. -1.
         22    1    1    2    0    0  0.17163178762E+02  0.75699903715E+01  0.33247081252E+02  0.38173916111E+02  0.00000000000E+00 0. -1.
         -4    1    1    2    0  501 -0.25913164640E+02 -0.23834039537E+02  0.89486009801E+03  0.89555355225E+03  0.14200000000E+01 0. -1.
<mgrwt>
<rscale>  0 0.35235918E+02</rscale>
<asrwt>0</asrwt>
<pdfrwt beam="1">  1       11 0.10000000E+01 0.39421111E+02</pdfrwt>
<pdfrwt beam="2">  1       -4 0.62106596E-03 0.35235918E+02</pdfrwt>
<totfact> 0.16409317E+04</totfact>
</mgrwt>
</event>
<event>
 5    1  0.1490736E-003  0.1761330E+03  0.7818608E-02  0.1179710E+00
         11   -1    0    0    0    0  0.00000000000E+00  0.00000000000E+00  0.10001625762E+04  0.10001625762E+04  0.51100000000E-03 0.  1.
          4   -1    0    0  501    0 -0.00000000000E+00 -0.00000000000E+00 -0.36413469102E+02  0.36441146141E+02  0.14200000000E+01 0.  1.
         11    1    1    2    0    0 -0.30719951194E+02 -0.41890274047E+02  0.23557348442E+03  0.24123303468E+03  0.51100000000E-03 0.  1.
         22    1    1    2    0    0  0.13372432883E+01 -0.12374392981E+03  0.47897322846E+03  0.49470162924E+03  0.00000000000E+00 0.  1.
          4    1    1    2  501    0  0.29382707905E+02  0.16563420386E+03  0.24920239425E+03  0.30066905845E+03  0.14200000000E+01 0.  1.
<mgrwt>
<rscale>  0 0.16822619E+03</rscale>
<asrwt>0</asrwt>
<pdfrwt beam="1">  1       11 0.10000000E+01 0.17613297E+03</pdfrwt>
<pdfrwt beam="2">  1        4 0.56051897E-02 0.16822619E+03</pdfrwt>
<totfact> 0.82008572E+02</totfact>
</mgrwt>
</event>
<event>
 5    1  0.1490736E-003  0.6072937E+02  0.7818608E-02  0.1399681E+00
         11   -1    0    0    0    0  0.00000000000E+00  0.00000000000E+00  0.10002686266E+04  0.10002686266E+04  0.51100000000E-03 0. -1.
          4   -1    0    0  501    0 -0.00000000000E+00 -0.00000000000E+00 -0.47532185026E+01  0.49607949094E+01  0.14200000000E+01 0.  1.
         11    1    1    2    0    0 -0.75287763220E+01 -0.99633673157E+01  0.35558034147E+02  0.37687198806E+02  0.51100000000E-03 0. -1.
         22    1    1    2    0    0 -0.19540607239E+02 -0.43072491958E+02  0.21175845630E+03  0.21697630910E+03  0.00000000000E+00 0. -1.
          4    1    1    2  501    0  0.27069383561E+02  0.53035859274E+02  0.74819891767E+03  0.75056591362E+03  0.14200000000E+01 0.  1.
<mgrwt>
<rscale>  0 0.59561483E+02</rscale>
<asrwt>0</asrwt>
<pdfrwt beam="1">  1       11 0.10000000E+01 0.60729365E+02</pdfrwt>
<pdfrwt beam="2">  1        4 0.74751006E-03 0.59561483E+02</pdfrwt>
<totfact> 0.14703330E+04</totfact>
</mgrwt>
</event>
<event>
 5    1  0.1490736E-003  0.1234470E+03  0.7818608E-02  0.1614787E+00
         11   -1    0    0    0    0  0.00000000000E+00  0.00000000000E+00  0.99979898636E+03  0.99979898636E+03  0.51100000000E-03 0.  1.
          4   -1    0    0  501    0 -0.00000000000E+00 -0.00000000000E+00 -0.20317513466E+02  0.20367075231E+02  0.14200000000E+01 0.  1.
         11    1    1    2    0    0  0.10291522236E+03 -0.81996837898E+02  0.46787130158E+03  0.48602322914E+03  0.51100000000E-03 0.  1.
         22    1    1    2    0    0 -0.10508263054E+03  0.53572643525E+02  0.46285554128E+03  0.47764802885E+03  0.00000000000E+00 0.  1.
          4    1    1    2  501    0  0.21674081760E+01  0.28424194372E+02  0.48754630029E+02  0.56494803594E+02  0.14200000000E+01 0.  1.
<mgrwt>
<rscale>  0 0.28542055E+02</rscale>
<asrwt>0</asrwt>
<pdfrwt beam="1">  1       11 0.10000000E+01 0.12344704E+03</pdfrwt>
<pdfrwt beam="2">  1        4 0.31290321E-02 0.28542055E+02</pdfrwt>
<totfact> 0.14233334E+03</totfact>
</mgrwt>
</event>
<event>
 5    1  0.1490736E-003  0.1074159E+03  0.7818608E-02  0.1276730E+00
         11   -1    0    0    0    0  0.00000000000E+00  0.00000000000E+00  0.10003098360E+04  0.10003098360E+04  0.51100000000E-03 0. -1.
          4   -1    0    0  501    0 -0.00000000000E+00 -0.00000000000E+00 -0.12269499893E+02  0.12351397800E+02  0.14200000000E+01 0. -1.
         11    1    1    2    0    0 -0.57960181162E+02 -0.65481278246E+02  0.29012611299E+03  0.30301871533E+03  0.51100000000E-03 0. -1.
         22    1    1    2    0    0 -0.19232886993E+02 -0.73961344359E+00  0.46360048776E+02  0.50196664158E+02  0.00000000000E+00 0. -1.
          4    1    1    2  501    0  0.77193068155E+02  0.66220891690E+02  0.65155417434E+03  0.65944585431E+03  0.14200000000E+01 0. -1.
<mgrwt>
<rscale>  0 0.10171525E+03</rscale>
<asrwt>0</asrwt>
<pdfrwt beam="1">  1       11 0.10000000E+01 0.10741586E+03</pdfrwt>
<pdfrwt beam="2">  1        4 0.18945795E-02 0.10171525E+03</pdfrwt>
<totfact> 0.41492159E+03</totfact>
</mgrwt>
</event>
<event>
 5    1  0.1490736E-003  0.6824176E+02  0.7818608E-02  0.1392650E+00
         11   -1    0    0    0    0  0.00000000000E+00  0.00000000000E+00  0.10001559001E+04  0.10001559001E+04  0.51100000000E-03 0. -1.
          4   -1    0    0  501    0 -0.00000000000E+00 -0.00000000000E+00 -0.12313576374E+02  0.12395183061E+02  0.14200000000E+01 0. -1.
         11    1    1    2    0    0  0.41464810341E+02  0.90798387608E+02  0.40061877366E+03  0.41286690289E+03  0.51100000000E-03 0. -1.
         22    1    1    2    0    0 -0.45198785852E+02 -0.31280312882E+02  0.18281193153E+03  0.19089680596E+03  0.00000000000E+00 0. -1.
          4    1    1    2  501    0  0.37339755111E+01 -0.59518074725E+02  0.40441161849E+03  0.40878737427E+03  0.14200000000E+01 0. -1.
<mgrwt>
<rscale>  0 0.61252476E+02</rscale>
<asrwt>0</asrwt>
<pdfrwt beam="1">  1       11 0.10000000E+01 0.68241763E+02</pdfrwt>
<pdfrwt beam="2">  1        4 0.19010476E-02 0.61252476E+02</pdfrwt>
<totfact> 0.36948362E+03</totfact>
</mgrwt>
</event>
<event>
 5    1  0.1490736E-003  0.1089125E+03  0.7818608E-02  0.1262597E+00
         11   -1    0    0    0    0  0.00000000000E+00  0.00000000000E+00  0.10003513495E+04  0.10003513495E+04  0.51100000000E-03 0. -1.
          4   -1    0    0  501    0 -0.00000000000E+00 -0.00000000000E+00 -0.19906670354E+02  0.19957252431E+02  0.14200000000E+01 0. -1.
         11    1    1    2    0    0  0.87781994422E+02  0.55135462076E+02  0.19610251334E+03  0.22181477286E+03  0.51100000000E-03 0. -1.
         22    1    1    2    0    0  0.13005401286E+02  0.20042682552E+02  0.13097081639E+03  0.13313228133E+03  0.00000000000E+00 0. -1.
          4    1    1    2  501    0 -0.10078739571E+03 -0.75178144628E+02  0.65337134938E+03  0.66536154770E+03  0.14200000000E+01 0. -1.
<mgrwt>
<rscale>  0 0.10891246E+03</rscale>
<asrwt>0</asrwt>
<pdfrwt beam="1">  1       11 0.10000000E+01 0.23892459E+02</pdfrwt>
<pdfrwt beam="2">  1        4 0.30676105E-02 0.10891246E+03</pdfrwt>
<totfact> 0.19979508E+03</totfact>
</mgrwt>
</event>
<event>
 5    1  0.1490736E-003  0.2609123E+02  0.7818608E-02  0.1804164E+00
         11   -1    0    0    0    0  0.00000000000E+00  0.00000000000E+00  0.10001329340E+04  0.10001329340E+04  0.51100000000E-03 0. -1.
          4   -1    0    0  501    0 -0.00000000000E+00 -0.00000000000E+00 -0.35062673652E+01  0.37828971485E+01  0.14200000000E+01 0. -1.
         11    1    1    2    0    0  0.22746786968E+02 -0.39612344949E+01  0.45080263786E+02  0.50649164646E+02  0.51100000000E-03 0. -1.
         22    1    1    2    0    0 -0.12375512825E+01 -0.11434825555E+02  0.49005932525E+02  0.50337542564E+02  0.00000000000E+00 0.  1.
          4    1    1    2  501    0 -0.21509235686E+02  0.15396060050E+02  0.90254047032E+03  0.90292912393E+03  0.14200000000E+01 0. -1.
<mgrwt>
<rscale>  0 0.17335941E+02</rscale>
<asrwt>0</asrwt>
<pdfrwt beam="1">  1       11 0.10000000E+01 0.26091234E+02</pdfrwt>
<pdfrwt beam="2">  1        4 0.56085704E-03 0.17335941E+02</pdfrwt>
<totfact> 0.14352945E+04</totfact>
</mgrwt>
</event>
<event>
 5    1  0.1490736E-003  0.1299756E+03  0.7818608E-02  0.1233697E+00
         11   -1    0    0    0    0  0.00000000000E+00  0.00000000000E+00  0.10002625270E+04  0.10002625270E+04  0.51100000000E-03 0. -1.
          4   -1    0    0  501    0 -0.00000000000E+00 -0.00000000000E+00 -0.19430840582E+02  0.19482658077E+02  0.14200000000E+01 0. -1.
         11    1    1    2    0    0 -0.59368156734E+02 -0.42959569225E+02  0.12995574986E+03  0.14919316186E+03  0.51100000000E-03 0. -1.
         22    1    1    2    0    0 -0.42717412389E+02 -0.30680908093E+02  0.16370277791E+03  0.17194387148E+03  0.00000000000E+00 0.  1.
          4    1    1    2  501    0  0.10208556912E+03  0.73640477318E+02  0.68717315866E+03  0.69860815176E+03  0.14200000000E+01 0. -1.
<mgrwt>
<rscale>  0 0.12588248E+03</rscale>
<asrwt>0</asrwt>
<pdfrwt beam="1">  1       11 0.10000000E+01 0.12997563E+03</pdfrwt>
<pdfrwt beam="2">  1        4 0.29942094E-02 0.12588248E+03</pdfrwt>
<totfact> 0.21287235E+03</totfact>
</mgrwt>
</event>
<event>
 5    1  0.1490736E-003  0.2071459E+03  0.7818608E-02  0.1154365E+00
         11   -1    0    0    0    0  0.00000000000E+00  0.00000000000E+00  0.10000870532E+04  0.10000870532E+04  0.51100000000E-03 0.  1.
          4   -1    0    0  501    0 -0.00000000000E+00 -0.00000000000E+00 -0.26523409061E+03  0.26523789175E+03  0.14200000000E+01 0.  1.
         11    1    1    2    0    0 -0.10546866960E+03  0.63865412631E+01  0.38056314536E+03  0.39495915711E+03  0.51100000000E-03 0.  1.
         22    1    1    2    0    0 -0.86079595911E+02 -0.40760891296E+02  0.57112021488E+03  0.57900729437E+03  0.00000000000E+00 0.  1.
          4    1    1    2  501    0  0.19154826551E+03  0.34374350033E+02 -0.21683039766E+03  0.29135849346E+03  0.14200000000E+01 0.  1.
<mgrwt>
<rscale>  0 0.19461334E+03</rscale>
<asrwt>0</asrwt>
<pdfrwt beam="1">  1       11 0.10000000E+01 0.20714592E+03</pdfrwt>
<pdfrwt beam="2">  1        4 0.40809166E-01 0.19461334E+03</pdfrwt>
<totfact> 0.24593825E+01</totfact>
</mgrwt>
</event>
<event>
 5    1  0.1490736E-003  0.5986099E+02  0.7818608E-02  0.1429070E+00
         11   -1    0    0    0    0  0.00000000000E+00  0.00000000000E+00  0.99997229086E+03  0.99997229086E+03  0.51100000000E-03 0. -1.
          4   -1    0    0  501    0 -0.00000000000E+00 -0.00000000000E+00 -0.41441738829E+01  0.43807050998E+01  0.14200000000E+01 0. -1.
         11    1    1    2    0    0  0.21471182241E+02 -0.97171818483E+01  0.11112527536E+03  0.11359692828E+03  0.51100000000E-03 0. -1.
         22    1    1    2    0    0  0.30827187915E+02  0.19070201659E+02  0.15766955909E+03  0.16178281111E+03  0.00000000000E+00 0. -1.
          4    1    1    2  501    0 -0.52298370156E+02 -0.93530198105E+01  0.72703328253E+03  0.72897325658E+03  0.14200000000E+01 0. -1.
<mgrwt>
<rscale>  0 0.53147106E+02</rscale>
<asrwt>0</asrwt>
<pdfrwt beam="1">  1       11 0.10000000E+01 0.59860988E+02</pdfrwt>
<pdfrwt beam="2">  1        4 0.65581929E-03 0.53147106E+02</pdfrwt>
<totfact> 0.17243240E+04</totfact>
</mgrwt>
</event>
<event>
 5    1  0.1490736E-003  0.2429142E+03  0.7818608E-02  0.1119055E+00
         11   -1    0    0    0    0  0.00000000000E+00  0.00000000000E+00  0.10003079540E+04  0.10003079540E+04  0.51100000000E-03 0.  1.
         -4   -1    0    0    0  501 -0.00000000000E+00 -0.00000000000E+00 -0.24379872360E+03  0.24380285894E+03  0.14200000000E+01 0. -1.
         11    1    1    2    0    0  0.20093764117E+03  0.82553548185E+02  0.84877570177E+03  0.87613424535E+03  0.51100000000E-03 0.  1.
         22    1    1    2    0    0  0.19321208011E+02  0.15520372241E+02  0.72053633219E+02  0.76196568778E+02  0.00000000000E+00 0. -1.
         -4    1    1    2    0  501 -0.22025884918E+03 -0.98073920426E+02 -0.16432010462E+03  0.29177999879E+03  0.14200000000E+01 0. -1.
<mgrwt>
<rscale>  0 0.24111091E+03</rscale>
<asrwt>0</asrwt>
<pdfrwt beam="1">  1       11 0.10000000E+01 0.24291421E+03</pdfrwt>
<pdfrwt beam="2">  1       -4 0.37519441E-01 0.24111091E+03</pdfrwt>
<totfact> 0.29434574E+01</totfact>
</mgrwt>
</event>
<event>
 5    1  0.1490736E-003  0.6632078E+02  0.7818608E-02  0.1373071E+00
         11   -1    0    0    0    0  0.00000000000E+00  0.00000000000E+00  0.99981532393E+03  0.99981532393E+03  0.51100000000E-03 0. -1.
          4   -1    0    0  501    0 -0.00000000000E+00 -0.00000000000E+00 -0.98060279187E+01  0.99083088134E+01  0.14200000000E+01 0. -1.
         11    1    1    2    0    0 -0.22885453113E+02 -0.54947768565E+02  0.19534169138E+03  0.20420915167E+03  0.51100000000E-03 0. -1.
         22    1    1    2    0    0  0.23830239271E+02 -0.34689736614E+02  0.25034654487E+03  0.25385950969E+03  0.00000000000E+00 0. -1.
          4    1    1    2  501    0 -0.94478615772E+00  0.89637505179E+02  0.54432105977E+03  0.55165497139E+03  0.14200000000E+01 0. -1.
<mgrwt>
<rscale>  0 0.66320780E+02</rscale>
<asrwt>0</asrwt>
<pdfrwt beam="1">  1       11 0.10000000E+01 0.42086318E+02</pdfrwt>
<pdfrwt beam="2">  1        4 0.15162849E-02 0.66320780E+02</pdfrwt>
<totfact> 0.52929051E+03</totfact>
</mgrwt>
</event>
<event>
 5    1  0.1490736E-003  0.1855897E+03  0.7818608E-02  0.1162500E+00
         11   -1    0    0    0    0  0.00000000000E+00  0.00000000000E+00  0.10005147668E+04  0.10005147668E+04  0.51100000000E-03 0. -1.
          4   -1    0    0  501    0 -0.00000000000E+00 -0.00000000000E+00 -0.73941877134E+02  0.73955510911E+02  0.14200000000E+01 0. -1.
         11    1    1    2    0    0 -0.15814677961E+03 -0.53974414639E+02  0.78855864669E+03  0.80606971200E+03  0.51100000000E-03 0. -1.
         22    1    1    2    0    0 -0.25312551960E+02  0.85124505557E+01  0.56629023732E+02  0.62610170340E+02  0.00000000000E+00 0. -1.
          4    1    1    2  501    0  0.18345933157E+03  0.45461964083E+02  0.81385219248E+02  0.20579039538E+03  0.14200000000E+01 0. -1.
<mgrwt>
<rscale>  0 0.18558971E+03</rscale>
<asrwt>0</asrwt>
<pdfrwt beam="1">  1       11 0.10000000E+01 0.26705563E+02</pdfrwt>
<pdfrwt beam="2">  1        4 0.11382656E-01 0.18558971E+03</pdfrwt>
<totfact> 0.25489142E+02</totfact>
</mgrwt>
</event>
<event>
 5    1  0.1490736E-003  0.2031304E+03  0.7818608E-02  0.1154340E+00
         11   -1    0    0    0    0  0.00000000000E+00  0.00000000000E+00  0.10001066960E+04  0.10001066960E+04  0.51100000000E-03 0.  1.
         -4   -1    0    0    0  501 -0.00000000000E+00 -0.00000000000E+00 -0.10977272915E+03  0.10978191320E+03  0.14200000000E+01 0. -1.
         11    1    1    2    0    0 -0.10835278967E+03  0.41729562736E+02  0.61891424268E+03  0.62971146029E+03  0.51100000000E-03 0.  1.
         22    1    1    2    0    0 -0.81995807206E+02 -0.10999968872E+01  0.27349531507E+03  0.28552444686E+03  0.00000000000E+00 0. -1.
         -4    1    1    2    0  501  0.19034859687E+03 -0.40629565849E+02 -0.20755908536E+01  0.19465270209E+03  0.14200000000E+01 0. -1.
<mgrwt>
<rscale>  0 0.19464164E+03</rscale>
<asrwt>0</asrwt>
<pdfrwt beam="1">  1       11 0.10000000E+01 0.20313037E+03</pdfrwt>
<pdfrwt beam="2">  1       -4 0.16890698E-01 0.19464164E+03</pdfrwt>
<totfact> 0.12862574E+02</totfact>
</mgrwt>
</event>
<event>
 5    1  0.1490736E-003  0.2373178E+03  0.7818608E-02  0.1132886E+00
         11   -1    0    0    0    0  0.00000000000E+00  0.00000000000E+00  0.10002479784E+04  0.10002479784E+04  0.51100000000E-03 0.  1.
         -4   -1    0    0    0  501 -0.00000000000E+00 -0.00000000000E+00 -0.53520980248E+02  0.53539814407E+02  0.14200000000E+01 0. -1.
         11    1    1    2    0    0 -0.59906059497E+02  0.61782058298E+02  0.25054703874E+03  0.26491428295E+03  0.51100000000E-03 0.  1.
         22    1    1    2    0    0 -0.74459866819E+02  0.11410520409E+03  0.16880228915E+03  0.21692967107E+03  0.00000000000E+00 0.  1.
         -4    1    1    2    0  501  0.13436592632E+03 -0.17588726239E+03  0.52737767025E+03  0.57194383877E+03  0.14200000000E+01 0. -1.
<mgrwt>
<rscale>  0 0.22134260E+03</rscale>
<asrwt>0</asrwt>
<pdfrwt beam="1">  1       11 0.10000000E+01 0.23731780E+03</pdfrwt>
<pdfrwt beam="2">  1       -4 0.82375653E-02 0.22134260E+03</pdfrwt>
<totfact> 0.44980198E+02</totfact>
</mgrwt>
</event>
<event>
 5    1  0.1490736E-003  0.9452942E+02  0.7818608E-02  0.1294663E+00
         11   -1    0    0    0    0  0.00000000000E+00  0.00000000000E+00  0.10002502912E+04  0.10002502912E+04  0.51100000000E-03 0.  1.
          4   -1    0    0  501    0 -0.00000000000E+00 -0.00000000000E+00 -0.87782488953E+01  0.88923592858E+01  0.14200000000E+01 0.  1.
         11    1    1    2    0    0  0.36551276134E+02  0.75170035631E+02  0.45475563739E+03  0.46237346354E+03  0.51100000000E-03 0.  1.
         22    1    1    2    0    0  0.21190607425E+01  0.99121406815E+01  0.35813452413E+02  0.37220213930E+02  0.00000000000E+00 0.  1.
          4    1    1    2  501    0 -0.38670336877E+02 -0.85082176312E+02  0.50090295251E+03  0.50954897302E+03  0.14200000000E+01 0.  1.
<mgrwt>
<rscale>  0 0.93468648E+02</rscale>
<asrwt>0</asrwt>
<pdfrwt beam="1">  1       11 0.10000000E+01 0.94529417E+02</pdfrwt>
<pdfrwt beam="2">  1        4 0.13596953E-02 0.93468648E+02</pdfrwt>
<totfact> 0.67447147E+03</totfact>
</mgrwt>
</event>
<event>
 5    1  0.1490736E-003  0.4937894E+02  0.7818608E-02  0.1620012E+00
         11   -1    0    0    0    0  0.00000000000E+00  0.00000000000E+00  0.99991831915E+03  0.99991831915E+03  0.51100000000E-03 0.  1.
          4   -1    0    0  501    0 -0.00000000000E+00 -0.00000000000E+00 -0.49399479019E+01  0.51399888398E+01  0.14200000000E+01 0.  1.
         11    1    1    2    0    0 -0.58877076875E+02 -0.12207287927E+02  0.28309703656E+03  0.28941226679E+03  0.51100000000E-03 0.  1.
         22    1    1    2    0    0  0.12223289553E+02  0.10311652616E+02  0.60048388594E+02  0.62141354668E+02  0.00000000000E+00 0.  1.
          4    1    1    2  501    0  0.46653787322E+02  0.18956353116E+01  0.65183294609E+03  0.65350468653E+03  0.14200000000E+01 0.  1.
<mgrwt>
<rscale>  0 0.28106695E+02</rscale>
<asrwt>0</asrwt>
<pdfrwt beam="1">  1       11 0.10000000E+01 0.49378943E+02</pdfrwt>
<pdfrwt beam="2">  1        4 0.77539395E-03 0.28106695E+02</pdfrwt>
<totfact> 0.11016293E+04</totfact>
</mgrwt>
</event>
<event>
 5    1  0.1490736E-003  0.1201504E+03  0.7818608E-02  0.1248280E+00
         11   -1    0    0    0    0  0.00000000000E+00  0.00000000000E+00  0.10002319450E+04  0.10002319450E+04  0.51100000000E-03 0. -1.
          4   -1    0    0  501    0 -0.00000000000E+00 -0.00000000000E+00 -0.14077932421E+02  0.14149366814E+02  0.14200000000E+01 0. -1.
         11    1    1    2    0    0 -0.10664914526E+03  0.22121380671E+02  0.41004149046E+03  0.42426102763E+03  0.51100000000E-03 0. -1.
         22    1    1    2    0    0 -0.60378688170E+01  0.89915370561E+01  0.54596676893E+02  0.55660585033E+02  0.00000000000E+00 0.  1.
          4    1    1    2  501    0  0.11268701408E+03 -0.31112917727E+02  0.52151584521E+03  0.53445969913E+03  0.14200000000E+01 0. -1.
<mgrwt>
<rscale>  0 0.11691190E+03</rscale>
<asrwt>0</asrwt>
<pdfrwt beam="1">  1       11 0.10000000E+01 0.12015044E+03</pdfrwt>
<pdfrwt beam="2">  1        4 0.21719118E-02 0.11691190E+03</pdfrwt>
<totfact> 0.34570735E+03</totfact>
</mgrwt>
</event>
<event>
 5    1  0.1490736E-003  0.1954472E+03  0.7818608E-02  0.1157123E+00
         11   -1    0    0    0    0  0.00000000000E+00  0.00000000000E+00  0.10003520966E+04  0.10003520966E+04  0.51100000000E-03 0.  1.
          4   -1    0    0  501    0 -0.00000000000E+00 -0.00000000000E+00 -0.41589168312E+02  0.41613403140E+02  0.14200000000E+01 0.  1.
         11    1    1    2    0    0 -0.99289113248E+01 -0.20175823297E+02  0.36203663568E+02  0.42618685829E+02  0.51100000000E-03 0.  1.
         22    1    1    2    0    0  0.31153418707E+02 -0.17013044774E+03  0.28236188822E+03  0.33112405631E+03  0.00000000000E+00 0.  1.
          4    1    1    2  501    0 -0.21224507382E+02  0.19030627103E+03  0.64019737655E+03  0.66822275765E+03  0.14200000000E+01 0.  1.
<mgrwt>
<rscale>  0 0.19149144E+03</rscale>
<asrwt>0</asrwt>
<pdfrwt beam="1">  1       11 0.10000000E+01 0.19544725E+03</pdfrwt>
<pdfrwt beam="2">  1        4 0.64025287E-02 0.19149144E+03</pdfrwt>
<totfact> 0.67144965E+02</totfact>
</mgrwt>
</event>
<event>
 5    1  0.1490736E-003  0.1018045E+03  0.7818608E-02  0.1415128E+00
         11   -1    0    0    0    0  0.00000000000E+00  0.00000000000E+00  0.99983890108E+03  0.99983890108E+03  0.51100000000E-03 0.  1.
          4   -1    0    0  501    0 -0.00000000000E+00 -0.00000000000E+00 -0.28821255886E+02  0.28856215809E+02  0.14200000000E+01 0.  1.
         11    1    1    2    0    0 -0.16302189387E+02  0.89398951498E+02  0.98538570094E+02  0.13404396183E+03  0.51100000000E-03 0.  1.
         22    1    1    2    0    0  0.27328985756E+02  0.14361527833E+02  0.22282214979E+02  0.38073928724E+02  0.00000000000E+00 0.  1.
          4    1    1    2  501    0 -0.11026796368E+02 -0.10376047933E+03  0.85019686012E+03  0.85657722633E+03  0.14200000000E+01 0.  1.
<mgrwt>
<rscale>  0 0.56065052E+02</rscale>
<asrwt>0</asrwt>
<pdfrwt beam="1">  1       11 0.10000000E+01 0.10180452E+03</pdfrwt>
<pdfrwt beam="2">  1        4 0.44360913E-02 0.56065052E+02</pdfrwt>
<totfact> 0.98603073E+02</totfact>
</mgrwt>
</event>
<event>
 5    1  0.1490736E-003  0.1040706E+03  0.7818608E-02  0.1275062E+00
         11   -1    0    0    0    0  0.00000000000E+00  0.00000000000E+00  0.10000974944E+04  0.10000974944E+04  0.51100000000E-03 0. -1.
          4   -1    0    0  501    0 -0.00000000000E+00 -0.00000000000E+00 -0.10735866779E+02  0.10829369119E+02  0.14200000000E+01 0. -1.
         11    1    1    2    0    0 -0.15476847226E+02  0.77111027982E+02  0.31131187414E+03  0.32109301832E+03  0.51100000000E-03 0. -1.
         22    1    1    2    0    0 -0.10370033820E+02  0.22098606498E+02  0.13525249834E+03  0.13743771069E+03  0.00000000000E+00 0. -1.
          4    1    1    2  501    0  0.25846881046E+02 -0.99209634479E+02  0.54279725512E+03  0.55239613449E+03  0.14200000000E+01 0. -1.
<mgrwt>
<rscale>  0 0.10253111E+03</rscale>
<asrwt>0</asrwt>
<pdfrwt beam="1">  1       11 0.10000000E+01 0.10407060E+03</pdfrwt>
<pdfrwt beam="2">  1        4 0.16591035E-02 0.10253111E+03</pdfrwt>
<totfact> 0.50879124E+03</totfact>
</mgrwt>
</event>
<event>
 5    1  0.1490736E-003  0.3135342E+03  0.7818608E-02  0.1084773E+00
         11   -1    0    0    0    0  0.00000000000E+00  0.00000000000E+00  0.10004008988E+04  0.10004008988E+04  0.51100000000E-03 0. -1.
          4   -1    0    0  501    0 -0.00000000000E+00 -0.00000000000E+00 -0.31591498152E+03  0.31591817287E+03  0.14200000000E+01 0. -1.
         11    1    1    2    0    0  0.13406636142E+03 -0.14048477853E+03  0.44010214212E+03  0.48104018310E+03  0.51100000000E-03 0. -1.
         22    1    1    2    0    0  0.77631093518E+02 -0.73397526029E+02  0.45537894483E+03  0.46774327030E+03  0.00000000000E+00 0.  1.
          4    1    1    2  501    0 -0.21169745493E+03  0.21388230456E+03 -0.21099516970E+03  0.36753561823E+03  0.14200000000E+01 0. -1.
<mgrwt>
<rscale>  0 0.30093765E+03</rscale>
<asrwt>0</asrwt>
<pdfrwt beam="1">  1       11 0.10000000E+01 0.31353415E+03</pdfrwt>
<pdfrwt beam="2">  1        4 0.48622111E-01 0.30093765E+03</pdfrwt>
<totfact> 0.17666126E+01</totfact>
</mgrwt>
</event>
<event>
 5    1  0.1490736E-003  0.2013891E+03  0.7818608E-02  0.1153078E+00
         11   -1    0    0    0    0  0.00000000000E+00  0.00000000000E+00  0.99971892289E+03  0.99971892289E+03  0.51100000000E-03 0. -1.
         -4   -1    0    0    0  501 -0.00000000000E+00 -0.00000000000E+00 -0.87828439704E+02  0.87839918151E+02  0.14200000000E+01 0.  1.
         11    1    1    2    0    0  0.17369359019E+03 -0.14910028681E+01  0.77599393862E+03  0.79519700649E+03  0.51100000000E-03 0. -1.
         22    1    1    2    0    0  0.21667454356E+02 -0.15373203066E+02  0.86014685631E+02  0.90024108409E+02  0.00000000000E+00 0. -1.
         -4    1    1    2    0  501 -0.19536104454E+03  0.16864205934E+02  0.49881858933E+02  0.20233772613E+03  0.14200000000E+01 0.  1.
<mgrwt>
<rscale>  0 0.19609272E+03</rscale>
<asrwt>0</asrwt>
<pdfrwt beam="1">  1       11 0.10000000E+01 0.20138906E+03</pdfrwt>
<pdfrwt beam="2">  1       -4 0.13509230E-01 0.19609272E+03</pdfrwt>
<totfact> 0.19073673E+02</totfact>
</mgrwt>
</event>
<event>
 5    1  0.1490736E-003  0.2245383E+02  0.7818608E-02  0.1830468E+00
         11   -1    0    0    0    0  0.00000000000E+00  0.00000000000E+00  0.10002126733E+04  0.10002126733E+04  0.51100000000E-03 0.  1.
          4   -1    0    0  501    0 -0.00000000000E+00 -0.00000000000E+00 -0.32932108859E+01  0.35863125824E+01  0.14200000000E+01 0.  1.
         11    1    1    2    0    0  0.89142224957E+01  0.16410582065E+02  0.35537158240E+02  0.40145487697E+02  0.51100000000E-03 0.  1.
         22    1    1    2    0    0  0.10787098252E+02 -0.48505826617E+01  0.34175320143E+02  0.36164100262E+02  0.00000000000E+00 0. -1.
          4    1    1    2  501    0 -0.19701320747E+02 -0.11559999403E+02  0.92720698401E+03  0.92748939790E+03  0.14200000000E+01 0.  1.
<mgrwt>
<rscale>  0 0.16312664E+02</rscale>
<asrwt>0</asrwt>
<pdfrwt beam="1">  1       11 0.10000000E+01 0.22453833E+02</pdfrwt>
<pdfrwt beam="2">  1        4 0.52938420E-03 0.16312664E+02</pdfrwt>
<totfact> 0.15129741E+04</totfact>
</mgrwt>
</event>
<event>
 5    1  0.1490736E-003  0.4128654E+02  0.7818608E-02  0.1508150E+00
         11   -1    0    0    0    0  0.00000000000E+00  0.00000000000E+00  0.10002784325E+04  0.10002784325E+04  0.51100000000E-03 0. -1.
          4   -1    0    0  501    0 -0.00000000000E+00 -0.00000000000E+00 -0.35219023590E+01  0.37973933463E+01  0.14200000000E+01 0. -1.
         11    1    1    2    0    0 -0.69959933978E+01 -0.98874374962E+01  0.34406400725E+02  0.36476098407E+02  0.51100000000E-03 0. -1.
         22    1    1    2    0    0 -0.22955434391E+01 -0.29001152387E+02  0.95641251834E+02  0.99967921914E+02  0.00000000000E+00 0. -1.
          4    1    1    2  501    0  0.92915368369E+01  0.38888589884E+02  0.86670887757E+03  0.86763180551E+03  0.14200000000E+01 0. -1.
<mgrwt>
<rscale>  0 0.40008393E+02</rscale>
<asrwt>0</asrwt>
<pdfrwt beam="1">  1       11 0.10000000E+01 0.41286544E+02</pdfrwt>
<pdfrwt beam="2">  1        4 0.56325705E-03 0.40008393E+02</pdfrwt>
<totfact> 0.19704057E+04</totfact>
</mgrwt>
</event>
<event>
 5    1  0.1490736E-003  0.1894684E+03  0.7818608E-02  0.1293406E+00
         11   -1    0    0    0    0  0.00000000000E+00  0.00000000000E+00  0.10000283000E+04  0.10000283000E+04  0.51100000000E-03 0.  1.
          4   -1    0    0  501    0 -0.00000000000E+00 -0.00000000000E+00 -0.58823491286E+02  0.58840628201E+02  0.14200000000E+01 0.  1.
         11    1    1    2    0    0  0.13711645681E+03 -0.57943305083E+02  0.22047807027E+03  0.26602430116E+03  0.51100000000E-03 0.  1.
         22    1    1    2    0    0 -0.18993841060E+03  0.13570566480E+03  0.55887008328E+03  0.60566360074E+03  0.00000000000E+00 0.  1.
          4    1    1    2  501    0  0.52821953785E+02 -0.77762359713E+02  0.16185665517E+03  0.18718102632E+03  0.14200000000E+01 0.  1.
<mgrwt>
<rscale>  0 0.94016806E+02</rscale>
<asrwt>0</asrwt>
<pdfrwt beam="1">  1       11 0.10000000E+01 0.18946837E+03</pdfrwt>
<pdfrwt beam="2">  1        4 0.90514196E-02 0.94016806E+02</pdfrwt>
<totfact> 0.34348722E+02</totfact>
</mgrwt>
</event>
<event>
 5    1  0.1490736E-003  0.8432240E+02  0.7818608E-02  0.1327428E+00
         11   -1    0    0    0    0  0.00000000000E+00  0.00000000000E+00  0.10001366058E+04  0.10001366058E+04  0.51100000000E-03 0.  1.
          4   -1    0    0  501    0 -0.00000000000E+00 -0.00000000000E+00 -0.89232946224E+01  0.90355734139E+01  0.14200000000E+01 0.  1.
         11    1    1    2    0    0 -0.35603372575E+02 -0.43387334068E+02  0.15207360922E+03  0.16210010338E+03  0.51100000000E-03 0.  1.
         22    1    1    2    0    0 -0.25807858454E+02 -0.87559796316E+01  0.10331558520E+03  0.10684953384E+03  0.00000000000E+00 0. -1.
          4    1    1    2  501    0  0.61411231029E+02  0.52143313700E+02  0.73582411675E+03  0.74022254198E+03  0.14200000000E+01 0.  1.
<mgrwt>
<rscale>  0 0.80574691E+02</rscale>
<asrwt>0</asrwt>
<pdfrwt beam="1">  1       11 0.10000000E+01 0.84322398E+02</pdfrwt>
<pdfrwt beam="2">  1        4 0.13817176E-02 0.80574691E+02</pdfrwt>
<totfact> 0.63692179E+03</totfact>
</mgrwt>
</event>
<event>
 5    1  0.1490736E-003  0.1108045E+03  0.7818608E-02  0.1266893E+00
         11   -1    0    0    0    0  0.00000000000E+00  0.00000000000E+00  0.10003485169E+04  0.10003485169E+04  0.51100000000E-03 0. -1.
          4   -1    0    0  501    0 -0.00000000000E+00 -0.00000000000E+00 -0.11999532227E+02  0.12083260060E+02  0.14200000000E+01 0. -1.
         11    1    1    2    0    0 -0.76775764418E+02 -0.53848179333E+01  0.29460692367E+03  0.30449425896E+03  0.51100000000E-03 0. -1.
         22    1    1    2    0    0 -0.29247464894E+02  0.16886666591E+02  0.13981066845E+03  0.14383183488E+03  0.00000000000E+00 0. -1.
          4    1    1    2  501    0  0.10602322931E+03 -0.11501848658E+02  0.55393139257E+03  0.56410568314E+03  0.14200000000E+01 0. -1.
<mgrwt>
<rscale>  0 0.10665474E+03</rscale>
<asrwt>0</asrwt>
<pdfrwt beam="1">  1       11 0.10000000E+01 0.11080452E+03</pdfrwt>
<pdfrwt beam="2">  1        4 0.18532456E-02 0.10665474E+03</pdfrwt>
<totfact> 0.43325316E+03</totfact>
</mgrwt>
</event>
<event>
 5    1  0.1490736E-003  0.1353303E+03  0.7818608E-02  0.1222068E+00
         11   -1    0    0    0    0  0.00000000000E+00  0.00000000000E+00  0.99987084835E+03  0.99987084835E+03  0.51100000000E-03 0.  1.
          4   -1    0    0  501    0 -0.00000000000E+00 -0.00000000000E+00 -0.18093789311E+02  0.18149424554E+02  0.14200000000E+01 0.  1.
         11    1    1    2    0    0 -0.97679490877E+02  0.60493650273E+02  0.41199481961E+03  0.42771543817E+03  0.51100000000E-03 0.  1.
         22    1    1    2    0    0 -0.20067883268E+02  0.28230330264E+01  0.62750843885E+02  0.65942079605E+02  0.00000000000E+00 0. -1.
          4    1    1    2  501    0  0.11774737415E+03 -0.63316683300E+02  0.50703139554E+03  0.52436275513E+03  0.14200000000E+01 0.  1.
<mgrwt>
<rscale>  0 0.13369915E+03</rscale>
<asrwt>0</asrwt>
<pdfrwt beam="1">  1       11 0.10000000E+01 0.13533034E+03</pdfrwt>
<pdfrwt beam="2">  1        4 0.27876569E-02 0.13369915E+03</pdfrwt>
<totfact> 0.24053107E+03</totfact>
</mgrwt>
</event>
<event>
 5    1  0.1490736E-003  0.8850334E+02  0.7818608E-02  0.1306517E+00
         11   -1    0    0    0    0  0.00000000000E+00  0.00000000000E+00  0.10002808782E+04  0.10002808782E+04  0.51100000000E-03 0. -1.
          4   -1    0    0  501    0 -0.00000000000E+00 -0.00000000000E+00 -0.16469904180E+02  0.16531005526E+02  0.14200000000E+01 0. -1.
         11    1    1    2    0    0  0.41816610420E+02 -0.32995781795E+01  0.55695921379E+02  0.69724829019E+02  0.51100000000E-03 0. -1.
         22    1    1    2    0    0  0.32923695921E+02 -0.73041938523E+02  0.33698416517E+03  0.34637757160E+03  0.00000000000E+00 0. -1.
          4    1    1    2  501    0 -0.74740306341E+02  0.76341516703E+02  0.59113088744E+03  0.60070948307E+03  0.14200000000E+01 0. -1.
<mgrwt>
<rscale>  0 0.88503340E+02</rscale>
<asrwt>0</asrwt>
<pdfrwt beam="1">  1       11 0.10000000E+01 0.41946608E+02</pdfrwt>
<pdfrwt beam="2">  1        4 0.25393220E-02 0.88503340E+02</pdfrwt>
<totfact> 0.25745765E+03</totfact>
</mgrwt>
</event>
<event>
 5    1  0.1490736E-003  0.1144362E+03  0.7818608E-02  0.1252569E+00
         11   -1    0    0    0    0  0.00000000000E+00  0.00000000000E+00  0.10004045471E+04  0.10004045471E+04  0.51100000000E-03 0.  1.
          4   -1    0    0  501    0 -0.00000000000E+00 -0.00000000000E+00 -0.24498465167E+02  0.24539584258E+02  0.14200000000E+01 0.  1.
         11    1    1    2    0    0  0.20484974594E+02  0.22666607119E+02  0.13166035275E+03  0.13515863919E+03  0.51100000000E-03 0.  1.
         22    1    1    2    0    0 -0.10000588818E+01 -0.13126024272E+03  0.67572823205E+03  0.68835956813E+03  0.00000000000E+00 0.  1.
          4    1    1    2  501    0 -0.19484915712E+02  0.10859363560E+03  0.16851749709E+03  0.20142592400E+03  0.14200000000E+01 0.  1.
<mgrwt>
<rscale>  0 0.11443617E+03</rscale>
<asrwt>0</asrwt>
<pdfrwt beam="1">  1       11 0.10000000E+01 0.30551747E+02</pdfrwt>
<pdfrwt beam="2">  1        4 0.37737611E-02 0.11443617E+03</pdfrwt>
<totfact> 0.14559562E+03</totfact>
</mgrwt>
</event>
<event>
 5    1  0.1490736E-003  0.1891456E+03  0.7818608E-02  0.1159234E+00
         11   -1    0    0    0    0  0.00000000000E+00  0.00000000000E+00  0.10004144728E+04  0.10004144728E+04  0.51100000000E-03 0. -1.
          4   -1    0    0  501    0 -0.00000000000E+00 -0.00000000000E+00 -0.27121283238E+03  0.27121654973E+03  0.14200000000E+01 0. -1.
         11    1    1    2    0    0  0.28877925124E+02  0.18346246684E+03  0.88409470452E+03  0.90339130937E+03  0.51100000000E-03 0. -1.
         22    1    1    2    0    0  0.20456281139E+02 -0.69183430427E+00  0.70776158434E+02  0.73676337283E+02  0.00000000000E+00 0. -1.
          4    1    1    2  501    0 -0.49334206263E+02 -0.18277063253E+03 -0.22566922251E+03  0.29456337589E+03  0.14200000000E+01 0. -1.
<mgrwt>
<rscale>  0 0.18914556E+03</rscale>
<asrwt>0</asrwt>
<pdfrwt beam="1">  1       11 0.10000000E+01 0.20467977E+02</pdfrwt>
<pdfrwt beam="2">  1        4 0.41742707E-01 0.18914556E+03</pdfrwt>
<totfact> 0.23467728E+01</totfact>
</mgrwt>
</event>
<event>
 5    1  0.1679219E-003  0.2854930E+03  0.7818608E-02  0.1094105E+00
         11   -1    0    0    0    0  0.00000000000E+00  0.00000000000E+00  0.10002332258E+04  0.10002332258E+04  0.51100000000E-03 0. -1.
         -4   -1    0    0    0  501 -0.00000000000E+00 -0.00000000000E+00 -0.20570830434E+03  0.20571320540E+03  0.14200000000E+01 0.  1.
         11    1    1    2    0    0  0.16967396091E+03 -0.20681787653E+03  0.80620191244E+03  0.84942593007E+03  0.51100000000E-03 0. -1.
         22    1    1    2    0    0  0.25286931895E+01 -0.17654728203E+02  0.61711570748E+02  0.64237074041E+02  0.00000000000E+00 0. -1.
         -4    1    1    2    0  501 -0.17220265410E+03  0.22447260473E+03 -0.73388561724E+02  0.29228342708E+03  0.14200000000E+01 0.  1.
<mgrwt>
<rscale>  0 0.28291999E+03</rscale>
<asrwt>0</asrwt>
<pdfrwt beam="1">  1       11 0.10000000E+01 0.28549303E+03</pdfrwt>
<pdfrwt beam="2">  1       -4 0.31655266E-01 0.28291999E+03</pdfrwt>
<totfact> 0.41417240E+01</totfact>
</mgrwt>
</event>
<event>
 5    1  0.1490736E-003  0.1124717E+03  0.7818608E-02  0.1399029E+00
         11   -1    0    0    0    0  0.00000000000E+00  0.00000000000E+00  0.10000872025E+04  0.10000872025E+04  0.51100000000E-03 0. -1.
          4   -1    0    0  501    0 -0.00000000000E+00 -0.00000000000E+00 -0.17450346936E+02  0.17508026964E+02  0.14200000000E+01 0. -1.
         11    1    1    2    0    0  0.78735618640E+02 -0.74516691453E+02  0.35260720507E+03  0.36889548115E+03  0.51100000000E-03 0. -1.
         22    1    1    2    0    0  0.24911625770E+02  0.19608096853E+02  0.75266466303E+02  0.81670726153E+02  0.00000000000E+00 0.  1.
          4    1    1    2  501    0 -0.10364724441E+03  0.54908594600E+02  0.55476318420E+03  0.56702902216E+03  0.14200000000E+01 0. -1.
<mgrwt>
<rscale>  0 0.59715550E+02</rscale>
<asrwt>0</asrwt>
<pdfrwt beam="1">  1       11 0.10000000E+01 0.11247165E+03</pdfrwt>
<pdfrwt beam="2">  1        4 0.26894177E-02 0.59715550E+02</pdfrwt>
<totfact> 0.21678275E+03</totfact>
</mgrwt>
</event>
<event>
 5    1  0.1490736E-003  0.2754045E+03  0.7818608E-02  0.1098226E+00
         11   -1    0    0    0    0  0.00000000000E+00  0.00000000000E+00  0.99987073414E+03  0.99987073414E+03  0.51100000000E-03 0.  1.
          4   -1    0    0  501    0 -0.00000000000E+00 -0.00000000000E+00 -0.16168318815E+03  0.16168942369E+03  0.14200000000E+01 0.  1.
         11    1    1    2    0    0  0.23847414559E+03 -0.29760019114E+02  0.75405511431E+03  0.79142573390E+03  0.51100000000E-03 0.  1.
         22    1    1    2    0    0  0.34481528488E+02 -0.43411607061E+02  0.67078807075E+02  0.87023616295E+02  0.00000000000E+00 0. -1.
          4    1    1    2  501    0 -0.27295567408E+03  0.73171626175E+02  0.17053624599E+02  0.28311080764E+03  0.14200000000E+01 0.  1.
<mgrwt>
<rscale>  0 0.27540450E+03</rscale>
<asrwt>0</asrwt>
<pdfrwt beam="1">  1       11 0.10000000E+01 0.55439548E+02</pdfrwt>
<pdfrwt beam="2">  1        4 0.24871678E-01 0.27540450E+03</pdfrwt>
<totfact> 0.65376765E+01</totfact>
</mgrwt>
</event>
<event>
 5    1  0.1490736E-003  0.2199830E+03  0.7818608E-02  0.1284215E+00
         11   -1    0    0    0    0  0.00000000000E+00  0.00000000000E+00  0.10006508421E+04  0.10006508421E+04  0.51100000000E-03 0.  1.
          4   -1    0    0  501    0 -0.00000000000E+00 -0.00000000000E+00 -0.70017608567E+02  0.70032006322E+02  0.14200000000E+01 0.  1.
         11    1    1    2    0    0 -0.16416057458E+03  0.12641108505E+03  0.19388322004E+03  0.28375898168E+03  0.51100000000E-03 0.  1.
         22    1    1    2    0    0  0.12838418892E+02  0.41875161026E+02  0.67709756502E+02  0.80640965000E+02  0.00000000000E+00 0. -1.
          4    1    1    2  501    0  0.15132215569E+03 -0.16828624607E+03  0.66904025697E+03  0.70628290173E+03  0.14200000000E+01 0.  1.
<mgrwt>
<rscale>  0 0.98159228E+02</rscale>
<asrwt>0</asrwt>
<pdfrwt beam="1">  1       11 0.10000000E+01 0.21998296E+03</pdfrwt>
<pdfrwt beam="2">  1        4 0.10780136E-01 0.98159228E+02</pdfrwt>
<totfact> 0.25810340E+02</totfact>
</mgrwt>
</event>
<event>
 5    1  0.1490736E-003  0.4478857E+02  0.7818608E-02  0.1482263E+00
         11   -1    0    0    0    0  0.00000000000E+00  0.00000000000E+00  0.10002163346E+04  0.10002163346E+04  0.51100000000E-03 0. -1.
         -4   -1    0    0    0  501 -0.00000000000E+00 -0.00000000000E+00 -0.29492769818E+01  0.32733216639E+01  0.14200000000E+01 0. -1.
         11    1    1    2    0    0  0.11506619338E+02  0.16016828739E+02  0.70951742627E+02  0.73641638178E+02  0.51100000000E-03 0. -1.
         22    1    1    2    0    0  0.85975499285E+01  0.22820830962E+02  0.12604715566E+03  0.12838455375E+03  0.00000000000E+00 0. -1.
         -4    1    1    2    0  501 -0.20104169267E+02 -0.38837659701E+02  0.80026815934E+03  0.80146346435E+03  0.14200000000E+01 0. -1.
<mgrwt>
<rscale>  0 0.43755661E+02</rscale>
<asrwt>0</asrwt>
<pdfrwt beam="1">  1       11 0.10000000E+01 0.44788573E+02</pdfrwt>
<pdfrwt beam="2">  1       -4 0.47884253E-03 0.43755661E+02</pdfrwt>
<totfact> 0.25633417E+04</totfact>
</mgrwt>
</event>
<event>
 5    1  0.1490736E-003  0.1588169E+03  0.7818608E-02  0.1196079E+00
         11   -1    0    0    0    0  0.00000000000E+00  0.00000000000E+00  0.10001152771E+04  0.10001152771E+04  0.51100000000E-03 0.  1.
         -4   -1    0    0    0  501 -0.00000000000E+00 -0.00000000000E+00 -0.24511842842E+02  0.24552939529E+02  0.14200000000E+01 0. -1.
         11    1    1    2    0    0  0.11767651939E+03  0.15525470610E+02  0.39363842810E+03  0.41114476225E+03  0.51100000000E-03 0.  1.
         22    1    1    2    0    0  0.33194359053E+02  0.13439355871E+02  0.64993434596E+02  0.74206659403E+02  0.00000000000E+00 0. -1.
         -4    1    1    2    0  501 -0.15087087844E+03 -0.28964826480E+02  0.51697157154E+03  0.53931679495E+03  0.14200000000E+01 0. -1.
<mgrwt>
<rscale>  0 0.15363268E+03</rscale>
<asrwt>0</asrwt>
<pdfrwt beam="1">  1       11 0.10000000E+01 0.15881693E+03</pdfrwt>
<pdfrwt beam="2">  1       -4 0.37747266E-02 0.15363268E+03</pdfrwt>
<totfact> 0.15269797E+03</totfact>
</mgrwt>
</event>
<event>
 5    1  0.1490736E-003  0.1857884E+03  0.7818608E-02  0.1168557E+00
         11   -1    0    0    0    0  0.00000000000E+00  0.00000000000E+00  0.10005899773E+04  0.10005899773E+04  0.51100000000E-03 0.  1.
         -4   -1    0    0    0  501 -0.00000000000E+00 -0.00000000000E+00 -0.76289190526E+02  0.76302404884E+02  0.14200000000E+01 0. -1.
         11    1    1    2    0    0  0.95309907556E+02 -0.14238287221E+03  0.80992855044E+03  0.82785331888E+03  0.51100000000E-03 0.  1.
         22    1    1    2    0    0 -0.60442363351E+01 -0.13022014415E+02  0.60081786325E+02  0.61773187552E+02  0.00000000000E+00 0.  1.
         -4    1    1    2    0  501 -0.89265671221E+02  0.15540488663E+03  0.54290449976E+02  0.18726587571E+03  0.14200000000E+01 0. -1.
<mgrwt>
<rscale>  0 0.17922348E+03</rscale>
<asrwt>0</asrwt>
<pdfrwt beam="1">  1       11 0.10000000E+01 0.18578841E+03</pdfrwt>
<pdfrwt beam="2">  1       -4 0.11744817E-01 0.17922348E+03</pdfrwt>
<totfact> 0.24061340E+02</totfact>
</mgrwt>
</event>
<event>
 5    1  0.1490736E-003  0.7853372E+02  0.7818608E-02  0.1400030E+00
         11   -1    0    0    0    0  0.00000000000E+00  0.00000000000E+00  0.10002441730E+04  0.10002441730E+04  0.51100000000E-03 0. -1.
          4   -1    0    0  501    0 -0.00000000000E+00 -0.00000000000E+00 -0.19679617840E+02  0.19730782000E+02  0.14200000000E+01 0. -1.
         11    1    1    2    0    0  0.92983920915E+02  0.59567301716E+02  0.33296892307E+03  0.35080276041E+03  0.51100000000E-03 0. -1.
         22    1    1    2    0    0 -0.24936205778E+02 -0.37508013708E+02  0.49946637667E+02  0.67255721430E+02  0.00000000000E+00 0. -1.
          4    1    1    2  501    0 -0.68047715137E+02 -0.22059288008E+02  0.59764899445E+03  0.60191647318E+03  0.14200000000E+01 0. -1.
<mgrwt>
<rscale>  0 0.59479330E+02</rscale>
<asrwt>0</asrwt>
<pdfrwt beam="1">  1       11 0.10000000E+01 0.78533717E+02</pdfrwt>
<pdfrwt beam="2">  1        4 0.30323869E-02 0.59479330E+02</pdfrwt>
<totfact> 0.18016961E+03</totfact>
</mgrwt>
</event>
<event>
 5    1  0.1490736E-003  0.2107063E+03  0.7818608E-02  0.1146258E+00
         11   -1    0    0    0    0  0.00000000000E+00  0.00000000000E+00  0.10003497015E+04  0.10003497015E+04  0.51100000000E-03 0. -1.
          4   -1    0    0  501    0 -0.00000000000E+00 -0.00000000000E+00 -0.10599883771E+03  0.10600834870E+03  0.14200000000E+01 0. -1.
         11    1    1    2    0    0 -0.17613960357E+03  0.28066996559E+02  0.82242686859E+03  0.84154552486E+03  0.51100000000E-03 0. -1.
         22    1    1    2    0    0 -0.25484332084E+02  0.41200268132E+01  0.53990280027E+02  0.59844599925E+02  0.00000000000E+00 0. -1.
          4    1    1    2  501    0  0.20162393565E+03 -0.32187023372E+02  0.17933715154E+02  0.20496792539E+03  0.14200000000E+01 0. -1.
<mgrwt>
<rscale>  0 0.20418186E+03</rscale>
<asrwt>0</asrwt>
<pdfrwt beam="1">  1       11 0.10000000E+01 0.21070629E+03</pdfrwt>
<pdfrwt beam="2">  1        4 0.16314025E-01 0.20418186E+03</pdfrwt>
<totfact> 0.13743546E+02</totfact>
</mgrwt>
</event>
<event>
 5    1  0.1490736E-003  0.1282593E+03  0.7818608E-02  0.1230062E+00
         11   -1    0    0    0    0  0.00000000000E+00  0.00000000000E+00  0.10002089376E+04  0.10002089376E+04  0.51100000000E-03 0. -1.
          4   -1    0    0  501    0 -0.00000000000E+00 -0.00000000000E+00 -0.31531297273E+02  0.31563255658E+02  0.14200000000E+01 0. -1.
         11    1    1    2    0    0 -0.71934830508E+02  0.15732648466E+02  0.15886492600E+03  0.17510054477E+03  0.51100000000E-03 0. -1.
         22    1    1    2    0    0 -0.36487092958E+02  0.87058380039E+02  0.54058277946E+03  0.54876243579E+03  0.00000000000E+00 0. -1.
          4    1    1    2  501    0  0.10842192347E+03 -0.10279102851E+03  0.26922993486E+03  0.30790921268E+03  0.14200000000E+01 0. -1.
<mgrwt>
<rscale>  0 0.12825930E+03</rscale>
<asrwt>0</asrwt>
<pdfrwt beam="1">  1       11 0.10000000E+01 0.73635192E+02</pdfrwt>
<pdfrwt beam="2">  1        4 0.48545186E-02 0.12825930E+03</pdfrwt>
<totfact> 0.99384397E+02</totfact>
</mgrwt>
</event>
<event>
 5    1  0.1490736E-003  0.2005372E+02  0.7818608E-02  0.1874465E+00
         11   -1    0    0    0    0  0.00000000000E+00  0.00000000000E+00  0.10003685589E+04  0.10003685589E+04  0.51100000000E-03 0. -1.
          4   -1    0    0  501    0 -0.00000000000E+00 -0.00000000000E+00 -0.10721415681E+02  0.10815042959E+02  0.14200000000E+01 0. -1.
         11    1    1    2    0    0  0.51616068674E+01  0.13490895456E+02 -0.33696142557E+01  0.14832422127E+02  0.51100000000E-03 0. -1.
         22    1    1    2    0    0  0.10815304855E+02 -0.12248755959E+01  0.17389698412E+02  0.20515183406E+02  0.00000000000E+00 0.  1.
          4    1    1    2  501    0 -0.15976911722E+02 -0.12266019860E+02  0.97562705908E+03  0.97583599635E+03  0.14200000000E+01 0. -1.
<mgrwt>
<rscale>  0 0.14792567E+02</rscale>
<asrwt>0</asrwt>
<pdfrwt beam="1">  1       11 0.10000000E+01 0.20053720E+02</pdfrwt>
<pdfrwt beam="2">  1        4 0.16573387E-02 0.14792567E+02</pdfrwt>
<totfact> 0.28628368E+03</totfact>
</mgrwt>
</event>
<event>
 5    1  0.1490736E-003  0.1777199E+03  0.7818608E-02  0.1170028E+00
         11   -1    0    0    0    0  0.00000000000E+00  0.00000000000E+00  0.10001997316E+04  0.10001997316E+04  0.51100000000E-03 0. -1.
          4   -1    0    0  501    0 -0.00000000000E+00 -0.00000000000E+00 -0.52281390332E+02  0.52300670885E+02  0.14200000000E+01 0. -1.
         11    1    1    2    0    0  0.11827742824E+02  0.61414899343E+02  0.93416911542E+02  0.11242065968E+03  0.51100000000E-03 0. -1.
         22    1    1    2    0    0 -0.13428573761E+03  0.10182860825E+03  0.24536260115E+03  0.29766513203E+03  0.00000000000E+00 0. -1.
          4    1    1    2  501    0  0.12245799479E+03 -0.16324350759E+03  0.60913882862E+03  0.64241461082E+03  0.14200000000E+01 0. -1.
<mgrwt>
<rscale>  0 0.17771987E+03</rscale>
<asrwt>0</asrwt>
<pdfrwt beam="1">  1       11 0.10000000E+01 0.62543499E+02</pdfrwt>
<pdfrwt beam="2">  1        4 0.80464581E-02 0.17771987E+03</pdfrwt>
<totfact> 0.45564026E+02</totfact>
</mgrwt>
</event>
<event>
 5    1  0.1490736E-003  0.9362340E+02  0.7818608E-02  0.1457538E+00
         11   -1    0    0    0    0  0.00000000000E+00  0.00000000000E+00  0.10002047883E+04  0.10002047883E+04  0.51100000000E-03 0. -1.
          4   -1    0    0  501    0 -0.00000000000E+00 -0.00000000000E+00 -0.14545349560E+02  0.14614499438E+02  0.14200000000E+01 0. -1.
         11    1    1    2    0    0  0.51672050688E+02 -0.68090784067E+02  0.32847100976E+03  0.33941060671E+03  0.51100000000E-03 0. -1.
         22    1    1    2    0    0 -0.89576899791E+01 -0.22706646608E+02  0.23705096360E+02  0.34025925460E+02  0.00000000000E+00 0. -1.
          4    1    1    2  501    0 -0.42714360709E+02  0.90797430675E+02  0.63348333264E+03  0.64138275559E+03  0.14200000000E+01 0. -1.
<mgrwt>
<rscale>  0 0.47807719E+02</rscale>
<asrwt>0</asrwt>
<pdfrwt beam="1">  1       11 0.10000000E+01 0.93623398E+02</pdfrwt>
<pdfrwt beam="2">  1        4 0.22436022E-02 0.47807719E+02</pdfrwt>
<totfact> 0.27070495E+03</totfact>
</mgrwt>
</event>
<event>
 5    1  0.1490736E-003  0.8305043E+02  0.7818608E-02  0.1328757E+00
         11   -1    0    0    0    0  0.00000000000E+00  0.00000000000E+00  0.10000497583E+04  0.10000497583E+04  0.51100000000E-03 0.  1.
         -4   -1    0    0    0  501 -0.00000000000E+00 -0.00000000000E+00 -0.77491857914E+01  0.78782155613E+01  0.14200000000E+01 0.  1.
         11    1    1    2    0    0  0.33255859982E+02 -0.18635002283E+02  0.13009748210E+03  0.13556758603E+03  0.51100000000E-03 0.  1.
         22    1    1    2    0    0  0.23197149787E+02 -0.38177635327E+02  0.17956352666E+03  0.18503702252E+03  0.00000000000E+00 0.  1.
         -4    1    1    2    0  501 -0.56453009769E+02  0.56812637609E+02  0.68263956377E+03  0.68732336533E+03  0.14200000000E+01 0.  1.
<mgrwt>
<rscale>  0 0.80103898E+02</rscale>
<asrwt>0</asrwt>
<pdfrwt beam="1">  1       11 0.10000000E+01 0.83050435E+02</pdfrwt>
<pdfrwt beam="2">  1       -4 0.12022451E-02 0.80103898E+02</pdfrwt>
<totfact> 0.78371256E+03</totfact>
</mgrwt>
</event>
<event>
 5    1  0.1490736E-003  0.4048343E+03  0.7818608E-02  0.1042118E+00
         11   -1    0    0    0    0  0.00000000000E+00  0.00000000000E+00  0.10000180886E+04  0.10000180886E+04  0.51100000000E-03 0. -1.
         -4   -1    0    0    0  501 -0.00000000000E+00 -0.00000000000E+00 -0.26542203460E+03  0.26542583305E+03  0.14200000000E+01 0.  1.
         11    1    1    2    0    0 -0.29132515828E+03 -0.25960264686E+03  0.68070751470E+03  0.78461876263E+03  0.51100000000E-03 0. -1.
         22    1    1    2    0    0 -0.33953123747E+02  0.11529283665E+02  0.62045392219E+02  0.71661493772E+02  0.00000000000E+00 0. -1.
         -4    1    1    2    0  501  0.32527828202E+03  0.24807336319E+03 -0.81568529445E+01  0.40916366522E+03  0.14200000000E+01 0.  1.
<mgrwt>
<rscale>  0 0.40483431E+03</rscale>
<asrwt>0</asrwt>
<pdfrwt beam="1">  1       11 0.10000000E+01 0.35857203E+02</pdfrwt>
<pdfrwt beam="2">  1       -4 0.40835266E-01 0.40483431E+03</pdfrwt>
<totfact> 0.25556890E+01</totfact>
</mgrwt>
</event>
<event>
 5    1  0.1490736E-003  0.2093947E+03  0.7818608E-02  0.1142046E+00
         11   -1    0    0    0    0  0.00000000000E+00  0.00000000000E+00  0.10000583491E+04  0.10000583491E+04  0.51100000000E-03 0. -1.
          4   -1    0    0  501    0 -0.00000000000E+00 -0.00000000000E+00 -0.59962297629E+02  0.59979109171E+02  0.14200000000E+01 0. -1.
         11    1    1    2    0    0 -0.31006791992E+02  0.19880786301E+03  0.26495120233E+03  0.33269374380E+03  0.51100000000E-03 0. -1.
         22    1    1    2    0    0 -0.34725665548E+02  0.16670508324E+02  0.16885480880E+03  0.17319273701E+03  0.00000000000E+00 0. -1.
          4    1    1    2  501    0  0.65732457540E+02 -0.21547837133E+03  0.50629004034E+03  0.55415097747E+03  0.14200000000E+01 0. -1.
<mgrwt>
<rscale>  0 0.20939467E+03</rscale>
<asrwt>0</asrwt>
<pdfrwt beam="1">  1       11 0.10000000E+01 0.38519835E+02</pdfrwt>
<pdfrwt beam="2">  1        4 0.92268777E-02 0.20939467E+03</pdfrwt>
<totfact> 0.36929262E+02</totfact>
</mgrwt>
</event>
<event>
 5    1  0.1490736E-003  0.1736829E+03  0.7818608E-02  0.1180190E+00
         11   -1    0    0    0    0  0.00000000000E+00  0.00000000000E+00  0.10002252408E+04  0.10002252408E+04  0.51100000000E-03 0.  1.
         -4   -1    0    0    0  501 -0.00000000000E+00 -0.00000000000E+00 -0.14575680146E+03  0.14576371829E+03  0.14200000000E+01 0. -1.
         11    1    1    2    0    0 -0.11364154877E+03  0.91398968213E+02  0.81466388352E+03  0.82761429187E+03  0.51100000000E-03 0.  1.
         22    1    1    2    0    0 -0.27431792274E+02 -0.60182424588E+00  0.12655859219E+03  0.12949881342E+03  0.00000000000E+00 0. -1.
         -4    1    1    2    0  501  0.14107334104E+03 -0.90797143967E+02 -0.86754036400E+02  0.18887585377E+03  0.14200000000E+01 0. -1.
<mgrwt>
<rscale>  0 0.16777314E+03</rscale>
<asrwt>0</asrwt>
<pdfrwt beam="1">  1       11 0.10000000E+01 0.17368289E+03</pdfrwt>
<pdfrwt beam="2">  1       -4 0.22429783E-01 0.16777314E+03</pdfrwt>
<totfact> 0.76034347E+01</totfact>
</mgrwt>
</event>
<event>
 5    1  0.1490736E-003  0.1539313E+03  0.7818608E-02  0.1203010E+00
         11   -1    0    0    0    0  0.00000000000E+00  0.00000000000E+00  0.10002237236E+04  0.10002237236E+04  0.51100000000E-03 0. -1.
          4   -1    0    0  501    0 -0.00000000000E+00 -0.00000000000E+00 -0.27468861823E+02  0.27505540712E+02  0.14200000000E+01 0. -1.
         11    1    1    2    0    0 -0.10946813759E+03  0.57296737663E+02  0.58777606678E+03  0.60062208915E+03  0.51100000000E-03 0. -1.
         22    1    1    2    0    0 -0.29363112079E+02 -0.61663918343E+01  0.11923743878E+03  0.12295439620E+03  0.00000000000E+00 0.  1.
          4    1    1    2  501    0  0.13883124967E+03 -0.51130345828E+02  0.26574135626E+03  0.30415277900E+03  0.14200000000E+01 0. -1.
<mgrwt>
<rscale>  0 0.14795420E+03</rscale>
<asrwt>0</asrwt>
<pdfrwt beam="1">  1       11 0.10000000E+01 0.15393126E+03</pdfrwt>
<pdfrwt beam="2">  1        4 0.42298237E-02 0.14795420E+03</pdfrwt>
<totfact> 0.12665002E+03</totfact>
</mgrwt>
</event>
<event>
 5    1  0.1490736E-003  0.5417559E+02  0.7818608E-02  0.1550326E+00
         11   -1    0    0    0    0  0.00000000000E+00  0.00000000000E+00  0.99981953468E+03  0.99981953468E+03  0.51100000000E-03 0. -1.
          4   -1    0    0  501    0 -0.00000000000E+00 -0.00000000000E+00 -0.46990915429E+01  0.49089572547E+01  0.14200000000E+01 0. -1.
         11    1    1    2    0    0  0.11167604344E+01  0.47541590212E+02  0.27759374086E+03  0.28163759500E+03  0.51100000000E-03 0. -1.
         22    1    1    2    0    0  0.20631991407E+02  0.86050346884E+01  0.92237354104E+02  0.94907613938E+02  0.00000000000E+00 0.  1.
          4    1    1    2  501    0 -0.21748751842E+02 -0.56146624900E+02  0.62528934817E+03  0.62818328299E+03  0.14200000000E+01 0. -1.
<mgrwt>
<rscale>  0 0.34806407E+02</rscale>
<asrwt>0</asrwt>
<pdfrwt beam="1">  1       11 0.10000000E+01 0.54175587E+02</pdfrwt>
<pdfrwt beam="2">  1        4 0.73902483E-03 0.34806407E+02</pdfrwt>
<totfact> 0.12713368E+04</totfact>
</mgrwt>
</event>
<event>
 5    1  0.1490736E-003  0.2516627E+03  0.7818608E-02  0.1112259E+00
         11   -1    0    0    0    0  0.00000000000E+00  0.00000000000E+00  0.10000914316E+04  0.10000914316E+04  0.51100000000E-03 0. -1.
          4   -1    0    0  501    0 -0.00000000000E+00 -0.00000000000E+00 -0.68273859893E+02  0.68288625295E+02  0.14200000000E+01 0. -1.
         11    1    1    2    0    0  0.16939539504E+03 -0.17963510650E+03  0.40673478146E+03  0.47581167892E+03  0.51100000000E-03 0. -1.
         22    1    1    2    0    0  0.99073660556E+01 -0.45114211944E+01  0.61915834036E+02  0.62865565517E+02  0.00000000000E+00 0.  1.
          4    1    1    2  501    0 -0.17930276110E+03  0.18414652770E+03  0.46316695622E+03  0.52970281247E+03  0.14200000000E+01 0. -1.
<mgrwt>
<rscale>  0 0.25166268E+03</rscale>
<asrwt>0</asrwt>
<pdfrwt beam="1">  1       11 0.10000000E+01 0.10886176E+02</pdfrwt>
<pdfrwt beam="2">  1        4 0.10505844E-01 0.25166268E+03</pdfrwt>
<totfact> 0.30209548E+02</totfact>
</mgrwt>
</event>
<event>
 5    1  0.1490736E-003  0.5854015E+02  0.7818608E-02  0.1410869E+00
         11   -1    0    0    0    0  0.00000000000E+00  0.00000000000E+00  0.10000665518E+04  0.10000665518E+04  0.51100000000E-03 0.  1.
          4   -1    0    0  501    0 -0.00000000000E+00 -0.00000000000E+00 -0.73958568612E+01  0.75309427505E+01  0.14200000000E+01 0.  1.
         11    1    1    2    0    0  0.13633274385E+02  0.22164778713E+02  0.42945124352E+02  0.50213815746E+02  0.51100000000E-03 0.  1.
         22    1    1    2    0    0  0.10182083944E+02  0.29602460602E+02  0.81754740724E+02  0.87543235820E+02  0.00000000000E+00 0. -1.
          4    1    1    2  501    0 -0.23815358329E+02 -0.51767239315E+02  0.86797082989E+03  0.86984044301E+03  0.14200000000E+01 0.  1.
<mgrwt>
<rscale>  0 0.57000305E+02</rscale>
<asrwt>0</asrwt>
<pdfrwt beam="1">  1       11 0.10000000E+01 0.58540148E+02</pdfrwt>
<pdfrwt beam="2">  1        4 0.11483693E-02 0.57000305E+02</pdfrwt>
<totfact> 0.77138731E+03</totfact>
</mgrwt>
</event>
<event>
 5    1  0.1490736E-003  0.1455787E+03  0.7818608E-02  0.1206014E+00
         11   -1    0    0    0    0  0.00000000000E+00  0.00000000000E+00  0.10005479423E+04  0.10005479423E+04  0.51100000000E-03 0. -1.
          4   -1    0    0  501    0 -0.00000000000E+00 -0.00000000000E+00 -0.65015852116E+02  0.65031357254E+02  0.14200000000E+01 0. -1.
         11    1    1    2    0    0  0.52613992590E+02 -0.14487484868E+03  0.42711331825E+03  0.45407349694E+03  0.51100000000E-03 0. -1.
         22    1    1    2    0    0 -0.82747401799E+02 -0.14465833665E+00  0.44111352790E+03  0.44880764023E+03  0.00000000000E+00 0. -1.
          4    1    1    2  501    0  0.30133409209E+02  0.14501950701E+03  0.67305244006E+02  0.16269816236E+03  0.14200000000E+01 0. -1.
<mgrwt>
<rscale>  0 0.14557868E+03</rscale>
<asrwt>0</asrwt>
<pdfrwt beam="1">  1       11 0.10000000E+01 0.82747528E+02</pdfrwt>
<pdfrwt beam="2">  1        4 0.10009190E-01 0.14557868E+03</pdfrwt>
<totfact> 0.30820967E+02</totfact>
</mgrwt>
</event>
<event>
 5    1  0.1490736E-003  0.1101304E+03  0.7818608E-02  0.1264717E+00
         11   -1    0    0    0    0  0.00000000000E+00  0.00000000000E+00  0.99999202054E+03  0.99999202054E+03  0.51100000000E-03 0. -1.
          4   -1    0    0  501    0 -0.00000000000E+00 -0.00000000000E+00 -0.12594946259E+02  0.12674741468E+02  0.14200000000E+01 0. -1.
         11    1    1    2    0    0  0.68427196884E+02  0.67319209079E+02  0.57127258777E+03  0.57928104295E+03  0.51100000000E-03 0. -1.
         22    1    1    2    0    0  0.39057218139E+01  0.12585448637E+02  0.51812745672E+02  0.53462218382E+02  0.00000000000E+00 0. -1.
          4    1    1    2  501    0 -0.72332918698E+02 -0.79904657716E+02  0.36431174084E+03  0.37992350068E+03  0.14200000000E+01 0. -1.
<mgrwt>
<rscale>  0 0.10779064E+03</rscale>
<asrwt>0</asrwt>
<pdfrwt beam="1">  1       11 0.10000000E+01 0.11013039E+03</pdfrwt>
<pdfrwt beam="2">  1        4 0.19438841E-02 0.10779064E+03</pdfrwt>
<totfact> 0.40358592E+03</totfact>
</mgrwt>
</event>
<event>
 5    1  0.1490736E-003  0.2211794E+03  0.7818608E-02  0.1133007E+00
         11   -1    0    0    0    0  0.00000000000E+00  0.00000000000E+00  0.10001631534E+04  0.10001631534E+04  0.51100000000E-03 0.  1.
          4   -1    0    0  501    0 -0.00000000000E+00 -0.00000000000E+00 -0.55794564941E+02  0.55812631876E+02  0.14200000000E+01 0.  1.
         11    1    1    2    0    0 -0.22536523834E+03 -0.34207431647E+02  0.52065876764E+03  0.56837064611E+03  0.51100000000E-03 0.  1.
         22    1    1    2    0    0  0.13964562864E+02 -0.13169765780E+02  0.72073646074E+02  0.74585938387E+02  0.00000000000E+00 0. -1.
          4    1    1    2  501    0  0.21140067548E+03  0.47377197427E+02  0.35163617474E+03  0.41301920078E+03  0.14200000000E+01 0.  1.
<mgrwt>
<rscale>  0 0.22117938E+03</rscale>
<asrwt>0</asrwt>
<pdfrwt beam="1">  1       11 0.10000000E+01 0.19195097E+02</pdfrwt>
<pdfrwt beam="2">  1        4 0.85866470E-02 0.22117938E+03</pdfrwt>
<totfact> 0.41949028E+02</totfact>
</mgrwt>
</event>
<event>
 5    1  0.1490736E-003  0.5168803E+02  0.7818608E-02  0.1471838E+00
         11   -1    0    0    0    0  0.00000000000E+00  0.00000000000E+00  0.10000872047E+04  0.10000872047E+04  0.51100000000E-03 0. -1.
          4   -1    0    0  501    0 -0.00000000000E+00 -0.00000000000E+00 -0.32409108481E+01  0.35383475134E+01  0.14200000000E+01 0. -1.
         11    1    1    2    0    0 -0.27634971439E+02  0.56350109300E+01  0.11657218169E+03  0.11993547657E+03  0.51100000000E-03 0. -1.
         22    1    1    2    0    0 -0.90375271059E+01  0.21096787382E+02  0.12759082076E+03  0.12963860874E+03  0.00000000000E+00 0.  1.
          4    1    1    2  501    0  0.36672498545E+02 -0.26731798312E+02  0.75268329145E+03  0.75405146695E+03  0.14200000000E+01 0. -1.
<mgrwt>
<rscale>  0 0.45403498E+02</rscale>
<asrwt>0</asrwt>
<pdfrwt beam="1">  1       11 0.10000000E+01 0.51688029E+02</pdfrwt>
<pdfrwt beam="2">  1        4 0.52160443E-03 0.45403498E+02</pdfrwt>
<totfact> 0.22925035E+04</totfact>
</mgrwt>
</event>
<event>
 5    1  0.1490736E-003  0.3254604E+03  0.7818608E-02  0.1077102E+00
         11   -1    0    0    0    0  0.00000000000E+00  0.00000000000E+00  0.10001619721E+04  0.10001619721E+04  0.51100000000E-03 0. -1.
          4   -1    0    0  501    0 -0.00000000000E+00 -0.00000000000E+00 -0.12696339353E+03  0.12697133415E+03  0.14200000000E+01 0. -1.
         11    1    1    2    0    0  0.25318083836E+03 -0.10503909437E+03  0.63110198604E+03  0.68805774833E+03  0.51100000000E-03 0. -1.
         22    1    1    2    0    0  0.45268859748E+02 -0.13951410208E+01  0.54426881117E+02  0.70806083563E+02  0.00000000000E+00 0. -1.
          4    1    1    2  501    0 -0.29844969811E+03  0.10643423539E+03  0.18766971144E+03  0.36826947437E+03  0.14200000000E+01 0. -1.
<mgrwt>
<rscale>  0 0.31686351E+03</rscale>
<asrwt>0</asrwt>
<pdfrwt beam="1">  1       11 0.10000000E+01 0.32546042E+03</pdfrwt>
<pdfrwt beam="2">  1        4 0.19536681E-01 0.31686351E+03</pdfrwt>
<totfact> 0.10317699E+02</totfact>
</mgrwt>
</event>
<event>
 5    1  0.1490736E-003  0.2853304E+03  0.7818608E-02  0.1098628E+00
         11   -1    0    0    0    0  0.00000000000E+00  0.00000000000E+00  0.10004301473E+04  0.10004301473E+04  0.51100000000E-03 0. -1.
          4   -1    0    0  501    0 -0.00000000000E+00 -0.00000000000E+00 -0.83815709342E+02  0.83827737250E+02  0.14200000000E+01 0. -1.
         11    1    1    2    0    0  0.18807325792E+02  0.16835416106E+03  0.16444530639E+03  0.23609129133E+03  0.51100000000E-03 0. -1.
         22    1    1    2    0    0 -0.39563469946E+02  0.10554237079E+03  0.16377539026E+03  0.19881357761E+03  0.00000000000E+00 0.  1.
          4    1    1    2  501    0  0.20756144154E+02 -0.27389653184E+03  0.58839374130E+03  0.64935301561E+03  0.14200000000E+01 0. -1.
<mgrwt>
<rscale>  0 0.27468554E+03</rscale>
<asrwt>0</asrwt>
<pdfrwt beam="1">  1       11 0.10000000E+01 0.28533037E+03</pdfrwt>
<pdfrwt beam="2">  1        4 0.12901274E-01 0.27468554E+03</pdfrwt>
<totfact> 0.21365705E+02</totfact>
</mgrwt>
</event>
<event>
 5    1  0.1490736E-003  0.1353299E+03  0.7818608E-02  0.1404322E+00
         11   -1    0    0    0    0  0.00000000000E+00  0.00000000000E+00  0.10003332335E+04  0.10003332335E+04  0.51100000000E-03 0.  1.
          4   -1    0    0  501    0 -0.00000000000E+00 -0.00000000000E+00 -0.22040176304E+02  0.22085872668E+02  0.14200000000E+01 0.  1.
         11    1    1    2    0    0 -0.13029350940E+03  0.32316972591E+02  0.43275820577E+03  0.45310092691E+03  0.51100000000E-03 0.  1.
         22    1    1    2    0    0 -0.70178178592E+01 -0.24275801636E+02  0.82373593621E+02  0.86162481619E+02  0.00000000000E+00 0.  1.
          4    1    1    2  501    0  0.13731132726E+03 -0.80411709547E+01  0.46316125781E+03  0.48315569764E+03  0.14200000000E+01 0.  1.
<mgrwt>
<rscale>  0 0.58480346E+02</rscale>
<asrwt>0</asrwt>
<pdfrwt beam="1">  1       11 0.10000000E+01 0.13532993E+03</pdfrwt>
<pdfrwt beam="2">  1        4 0.33955200E-02 0.58480346E+02</pdfrwt>
<totfact> 0.15077282E+03</totfact>
</mgrwt>
</event>
<event>
 5    1  0.1490736E-003  0.2665041E+03  0.7818608E-02  0.1104986E+00
         11   -1    0    0    0    0  0.00000000000E+00  0.00000000000E+00  0.10001612428E+04  0.10001612428E+04  0.51100000000E-03 0. -1.
          4   -1    0    0  501    0 -0.00000000000E+00 -0.00000000000E+00 -0.20288270610E+03  0.20288767541E+03  0.14200000000E+01 0. -1.
         11    1    1    2    0    0 -0.18235866692E+03 -0.13241488874E+03  0.70536449733E+03  0.74049136407E+03  0.51100000000E-03 0. -1.
         22    1    1    2    0    0 -0.34463303238E+02 -0.17530057250E+02  0.18038692674E+03  0.18448432322E+03  0.00000000000E+00 0.  1.
          4    1    1    2  501    0  0.21682197015E+03  0.14994494599E+03 -0.88472887346E+02  0.27807323094E+03  0.14200000000E+01 0. -1.
<mgrwt>
<rscale>  0 0.26362335E+03</rscale>
<asrwt>0</asrwt>
<pdfrwt beam="1">  1       11 0.10000000E+01 0.26650410E+03</pdfrwt>
<pdfrwt beam="2">  1        4 0.31218216E-01 0.26362335E+03</pdfrwt>
<totfact> 0.42347217E+01</totfact>
</mgrwt>
</event>
<event>
 5    1  0.1490736E-003  0.1253678E+03  0.7818608E-02  0.1234496E+00
         11   -1    0    0    0    0  0.00000000000E+00  0.00000000000E+00  0.10004086128E+04  0.10004086128E+04  0.51100000000E-03 0. -1.
          4   -1    0    0  501    0 -0.00000000000E+00 -0.00000000000E+00 -0.33070541523E+02  0.33101013831E+02  0.14200000000E+01 0. -1.
         11    1    1    2    0    0  0.48509726108E+02 -0.39003798705E+02  0.66365004886E+02  0.90987931696E+02  0.51100000000E-03 0. -1.
         22    1    1    2    0    0 -0.66834940968E+02 -0.10197017737E+03  0.27846698527E+03  0.30398797393E+03  0.00000000000E+00 0. -1.
          4    1    1    2  501    0  0.18325214860E+02  0.14097397608E+03  0.62250608115E+03  0.63853372103E+03  0.14200000000E+01 0. -1.
<mgrwt>
<rscale>  0 0.12536783E+03</rscale>
<asrwt>0</asrwt>
<pdfrwt beam="1">  1       11 0.10000000E+01 0.62245431E+02</pdfrwt>
<pdfrwt beam="2">  1        4 0.50922769E-02 0.12536783E+03</pdfrwt>
<totfact> 0.91713667E+02</totfact>
</mgrwt>
</event>
<event>
 5    1  0.1490736E-003  0.2701774E+03  0.7818608E-02  0.1103910E+00
         11   -1    0    0    0    0  0.00000000000E+00  0.00000000000E+00  0.10000588713E+04  0.10000588713E+04  0.51100000000E-03 0. -1.
         -4   -1    0    0    0  501 -0.00000000000E+00 -0.00000000000E+00 -0.44180314889E+03  0.44180543090E+03  0.14200000000E+01 0.  1.
         11    1    1    2    0    0 -0.13813315278E+03 -0.16482752494E+03  0.76779770008E+03  0.79734696909E+03  0.51100000000E-03 0. -1.
         22    1    1    2    0    0 -0.49944681459E+02 -0.22497143090E+02  0.17155124817E+03  0.18008448962E+03  0.00000000000E+00 0. -1.
         -4    1    1    2    0  501  0.18807783423E+03  0.18732466803E+03 -0.38109322581E+03  0.46443284352E+03  0.14200000000E+01 0.  1.
<mgrwt>
<rscale>  0 0.26545399E+03</rscale>
<asrwt>0</asrwt>
<pdfrwt beam="1">  1       11 0.10000000E+01 0.27017737E+03</pdfrwt>
<pdfrwt beam="2">  1       -4 0.67973968E-01 0.26545399E+03</pdfrwt>
<totfact> 0.86493825E+00</totfact>
</mgrwt>
</event>
<event>
 5    1  0.1490736E-003  0.4321189E+02  0.7818608E-02  0.1493725E+00
         11   -1    0    0    0    0  0.00000000000E+00  0.00000000000E+00  0.10001708304E+04  0.10001708304E+04  0.51100000000E-03 0.  1.
         -4   -1    0    0    0  501 -0.00000000000E+00 -0.00000000000E+00 -0.29194599493E+01  0.32464821570E+01  0.14200000000E+01 0.  1.
         11    1    1    2    0    0  0.87749250634E+01  0.15347262790E+02  0.55596987061E+02  0.58340061326E+02  0.51100000000E-03 0.  1.
         22    1    1    2    0    0  0.10840621161E+02  0.21807002992E+02  0.12550248620E+03  0.12784341395E+03  0.00000000000E+00 0. -1.
         -4    1    1    2    0  501 -0.19615546225E+02 -0.37154265782E+02  0.81615189722E+03  0.81723383732E+03  0.14200000000E+01 0.  1.
<mgrwt>
<rscale>  0 0.42038382E+02</rscale>
<asrwt>0</asrwt>
<pdfrwt beam="1">  1       11 0.10000000E+01 0.43211888E+02</pdfrwt>
<pdfrwt beam="2">  1       -4 0.47446180E-03 0.42038382E+02</pdfrwt>
<totfact> 0.25639976E+04</totfact>
</mgrwt>
</event>
<event>
 5    1  0.1525737E-003  0.2037326E+03  0.7818608E-02  0.1148369E+00
         11   -1    0    0    0    0  0.00000000000E+00  0.00000000000E+00  0.10000244359E+04  0.10000244359E+04  0.51100000000E-03 0.  1.
         -4   -1    0    0    0  501 -0.00000000000E+00 -0.00000000000E+00 -0.79756913763E+02  0.79769553672E+02  0.14200000000E+01 0. -1.
         11    1    1    2    0    0 -0.16265863155E+03  0.67858159029E+02  0.69297561089E+03  0.71503689238E+03  0.51100000000E-03 0.  1.
         22    1    1    2    0    0 -0.20549141974E+02  0.16335217535E+02  0.14437382433E+03  0.14674095447E+03  0.00000000000E+00 0.  1.
         -4    1    1    2    0  501  0.18320777353E+03 -0.84193376564E+02  0.82918086866E+02  0.21801614268E+03  0.14200000000E+01 0. -1.
<mgrwt>
<rscale>  0 0.20163241E+03</rscale>
<asrwt>0</asrwt>
<pdfrwt beam="1">  1       11 0.10000000E+01 0.20373262E+03</pdfrwt>
<pdfrwt beam="2">  1       -4 0.12271644E-01 0.20163241E+03</pdfrwt>
<totfact> 0.22597729E+02</totfact>
</mgrwt>
</event>
<event>
 5    1  0.1490736E-003  0.2507604E+02  0.7818608E-02  0.1705617E+00
         11   -1    0    0    0    0  0.00000000000E+00  0.00000000000E+00  0.10000767966E+04  0.10000767966E+04  0.51100000000E-03 0.  1.
          4   -1    0    0  501    0 -0.00000000000E+00 -0.00000000000E+00 -0.14811733456E+01  0.20518953384E+01  0.14200000000E+01 0.  1.
         11    1    1    2    0    0 -0.14102822032E+02  0.18394206743E+01  0.48635510779E+02  0.50672339265E+02  0.51100000000E-03 0.  1.
         22    1    1    2    0    0 -0.48534121095E+01  0.95362770174E+01  0.46128704545E+02  0.47353495874E+02  0.00000000000E+00 0.  1.
          4    1    1    2  501    0  0.18956234141E+02 -0.11375697692E+02  0.90383140795E+03  0.90410285682E+03  0.14200000000E+01 0.  1.
<mgrwt>
<rscale>  0 0.22153142E+02</rscale>
<asrwt>0</asrwt>
<pdfrwt beam="1">  1       11 0.10000000E+01 0.25076041E+02</pdfrwt>
<pdfrwt beam="2">  1        4 0.27187293E-03 0.22153142E+02</pdfrwt>
<totfact> 0.44231861E+04</totfact>
</mgrwt>
</event>
<event>
 5    1  0.1490736E-003  0.9020072E+02  0.7818608E-02  0.1302366E+00
         11   -1    0    0    0    0  0.00000000000E+00  0.00000000000E+00  0.10001488990E+04  0.10001488990E+04  0.51100000000E-03 0. -1.
          4   -1    0    0  501    0 -0.00000000000E+00 -0.00000000000E+00 -0.11590657392E+02  0.11677317276E+02  0.14200000000E+01 0. -1.
         11    1    1    2    0    0 -0.12981143378E+02 -0.15481085422E+02  0.29908189242E+02  0.36092573658E+02  0.51100000000E-03 0. -1.
         22    1    1    2    0    0 -0.73814838477E+02 -0.34409970192E+02  0.45408144695E+03  0.46132703898E+03  0.00000000000E+00 0. -1.
          4    1    1    2  501    0  0.86795981855E+02  0.49891055615E+02  0.50456860539E+03  0.51440660361E+03  0.14200000000E+01 0. -1.
<mgrwt>
<rscale>  0 0.90200719E+02</rscale>
<asrwt>0</asrwt>
<pdfrwt beam="1">  1       11 0.10000000E+01 0.20203329E+02</pdfrwt>
<pdfrwt beam="2">  1        4 0.17901882E-02 0.90200719E+02</pdfrwt>
<totfact> 0.44134279E+03</totfact>
</mgrwt>
</event>
<event>
 5    1  0.1490736E-003  0.1155842E+03  0.7818608E-02  0.1250565E+00
         11   -1    0    0    0    0  0.00000000000E+00  0.00000000000E+00  0.10002895197E+04  0.10002895197E+04  0.51100000000E-03 0.  1.
          4   -1    0    0  501    0 -0.00000000000E+00 -0.00000000000E+00 -0.20474695772E+02  0.20523877971E+02  0.14200000000E+01 0.  1.
         11    1    1    2    0    0 -0.36370484537E+02 -0.99785039586E+02  0.27182642053E+03  0.29183808725E+03  0.51100000000E-03 0.  1.
         22    1    1    2    0    0  0.17183679050E+02 -0.33038726043E+02  0.20691329419E+03  0.21023783570E+03  0.00000000000E+00 0. -1.
          4    1    1    2  501    0  0.19186805486E+02  0.13282376563E+03  0.50107510919E+03  0.51873747471E+03  0.14200000000E+01 0.  1.
<mgrwt>
<rscale>  0 0.11558415E+03</rscale>
<asrwt>0</asrwt>
<pdfrwt beam="1">  1       11 0.10000000E+01 0.37240250E+02</pdfrwt>
<pdfrwt beam="2">  1        4 0.31547270E-02 0.11558415E+03</pdfrwt>
<totfact> 0.19326707E+03</totfact>
</mgrwt>
</event>
<event>
 5    1  0.1490736E-003  0.8157971E+02  0.7818608E-02  0.1341281E+00
         11   -1    0    0    0    0  0.00000000000E+00  0.00000000000E+00  0.10000595767E+04  0.10000595767E+04  0.51100000000E-03 0. -1.
          4   -1    0    0  501    0 -0.00000000000E+00 -0.00000000000E+00 -0.64906654570E+01  0.66441807678E+01  0.14200000000E+01 0. -1.
         11    1    1    2    0    0 -0.44768636637E+02 -0.32403464844E+02  0.29424877463E+03  0.29939364845E+03  0.51100000000E-03 0. -1.
         22    1    1    2    0    0 -0.25291840944E+02  0.33926043481E+01  0.99759772433E+02  0.10297183682E+03  0.00000000000E+00 0.  1.
          4    1    1    2  501    0  0.70060477581E+02  0.29010860496E+02  0.59956036415E+03  0.60433827216E+03  0.14200000000E+01 0. -1.
<mgrwt>
<rscale>  0 0.75842712E+02</rscale>
<asrwt>0</asrwt>
<pdfrwt beam="1">  1       11 0.10000000E+01 0.81579707E+02</pdfrwt>
<pdfrwt beam="2">  1        4 0.10105105E-02 0.75842712E+02</pdfrwt>
<totfact> 0.10026051E+04</totfact>
</mgrwt>
</event>
<event>
 5    1  0.1490736E-003  0.2136053E+03  0.7818608E-02  0.1148149E+00
         11   -1    0    0    0    0  0.00000000000E+00  0.00000000000E+00  0.10002800203E+04  0.10002800203E+04  0.51100000000E-03 0.  1.
          4   -1    0    0  501    0 -0.00000000000E+00 -0.00000000000E+00 -0.52135964365E+02  0.52155298678E+02  0.14200000000E+01 0.  1.
         11    1    1    2    0    0 -0.13416640007E+03 -0.11574103924E+03  0.53794092826E+03  0.56637183313E+03  0.51100000000E-03 0.  1.
         22    1    1    2    0    0 -0.33017182753E+02  0.25618464351E+01  0.16570178382E+03  0.16897863348E+03  0.00000000000E+00 0. -1.
          4    1    1    2  501    0  0.16718358282E+03  0.11317919281E+03  0.24450134389E+03  0.31708485238E+03  0.14200000000E+01 0.  1.
<mgrwt>
<rscale>  0 0.20189576E+03</rscale>
<asrwt>0</asrwt>
<pdfrwt beam="1">  1       11 0.10000000E+01 0.21360534E+03</pdfrwt>
<pdfrwt beam="2">  1        4 0.80247286E-02 0.20189576E+03</pdfrwt>
<totfact> 0.46489636E+02</totfact>
</mgrwt>
</event>
<event>
 5    1  0.1490736E-003  0.5918235E+02  0.7818608E-02  0.1411024E+00
         11   -1    0    0    0    0  0.00000000000E+00  0.00000000000E+00  0.10000235549E+04  0.10000235549E+04  0.51100000000E-03 0.  1.
          4   -1    0    0  501    0 -0.00000000000E+00 -0.00000000000E+00 -0.48852609889E+01  0.50874526956E+01  0.14200000000E+01 0.  1.
         11    1    1    2    0    0  0.28508153575E+02 -0.39095153664E+02  0.16701351164E+03  0.17388116324E+03  0.51100000000E-03 0.  1.
         22    1    1    2    0    0  0.97939712186E+01 -0.30480054335E+01  0.51077147044E+02  0.52096901630E+02  0.00000000000E+00 0. -1.
          4    1    1    2  501    0 -0.38302124794E+02  0.42143159097E+02  0.77704763527E+03  0.77913294276E+03  0.14200000000E+01 0.  1.
<mgrwt>
<rscale>  0 0.56965911E+02</rscale>
<asrwt>0</asrwt>
<pdfrwt beam="1">  1       11 0.10000000E+01 0.59182349E+02</pdfrwt>
<pdfrwt beam="2">  1        4 0.76722742E-03 0.56965911E+02</pdfrwt>
<totfact> 0.13979400E+04</totfact>
</mgrwt>
</event>
<event>
 5    1  0.1490736E-003  0.2858780E+03  0.7818608E-02  0.1250355E+00
         11   -1    0    0    0    0  0.00000000000E+00  0.00000000000E+00  0.10001508727E+04  0.10001508727E+04  0.51100000000E-03 0.  1.
         -4   -1    0    0    0  501 -0.00000000000E+00 -0.00000000000E+00 -0.97304668607E+02  0.97315029326E+02  0.14200000000E+01 0.  1.
         11    1    1    2    0    0  0.19507956522E+03  0.19615985121E+03  0.43475063353E+03  0.51530848756E+03  0.51100000000E-03 0.  1.
         22    1    1    2    0    0  0.43637308159E+02 -0.16993758056E+02  0.50642249519E+02  0.68975647243E+02  0.00000000000E+00 0.  1.
         -4    1    1    2    0  501 -0.23871687338E+03 -0.17916609315E+03  0.41745332108E+03  0.51318176727E+03  0.14200000000E+01 0.  1.
<mgrwt>
<rscale>  0 0.11570518E+03</rscale>
<asrwt>0</asrwt>
<pdfrwt beam="1">  1       11 0.10000000E+01 0.28587798E+03</pdfrwt>
<pdfrwt beam="2">  1       -4 0.14973082E-01 0.11570518E+03</pdfrwt>
<totfact> 0.15033306E+02</totfact>
</mgrwt>
</event>
<event>
 5    1  0.1490736E-003  0.2863556E+03  0.7818608E-02  0.1092267E+00
         11   -1    0    0    0    0  0.00000000000E+00  0.00000000000E+00  0.10003698673E+04  0.10003698673E+04  0.51100000000E-03 0.  1.
         -4   -1    0    0    0  501 -0.00000000000E+00 -0.00000000000E+00 -0.36998409233E+03  0.36998681731E+03  0.14200000000E+01 0. -1.
         11    1    1    2    0    0 -0.12379824979E+02  0.11593195107E+03  0.13685559318E+03  0.17978579124E+03  0.51100000000E-03 0.  1.
         22    1    1    2    0    0  0.16017841205E+03  0.13762990369E+03  0.76327099953E+03  0.79194806193E+03  0.00000000000E+00 0.  1.
         -4    1    1    2    0  501 -0.14779858707E+03 -0.25356185476E+03 -0.26974081779E+03  0.39862283140E+03  0.14200000000E+01 0. -1.
<mgrwt>
<rscale>  0 0.28635565E+03</rscale>
<asrwt>0</asrwt>
<pdfrwt beam="1">  1       11 0.10000000E+01 0.11659107E+03</pdfrwt>
<pdfrwt beam="2">  1       -4 0.56941968E-01 0.28635565E+03</pdfrwt>
<totfact> 0.12680742E+01</totfact>
</mgrwt>
</event>
<event>
 5    1  0.2063300E-003  0.1652579E+03  0.7818608E-02  0.1189882E+00
         11   -1    0    0    0    0  0.00000000000E+00  0.00000000000E+00  0.10005519376E+04  0.10005519376E+04  0.51100000000E-03 0. -1.
         -4   -1    0    0    0  501 -0.00000000000E+00 -0.00000000000E+00 -0.97831438426E+02  0.97841743364E+02  0.14200000000E+01 0. -1.
         11    1    1    2    0    0 -0.91586557058E+01  0.14743381206E+03  0.82058431857E+03  0.83377409039E+03  0.51100000000E-03 0. -1.
         22    1    1    2    0    0  0.13245669798E+02  0.11462385428E+02  0.10284062771E+03  0.10432175591E+03  0.00000000000E+00 0.  1.
         -4    1    1    2    0  501 -0.40870140926E+01 -0.15889619749E+03 -0.20704447132E+02  0.16029783464E+03  0.14200000000E+01 0. -1.
<mgrwt>
<rscale>  0 0.15895509E+03</rscale>
<asrwt>0</asrwt>
<pdfrwt beam="1">  1       11 0.10000000E+01 0.16525794E+03</pdfrwt>
<pdfrwt beam="2">  1       -4 0.15060168E-01 0.15895509E+03</pdfrwt>
<totfact> 0.15430313E+02</totfact>
</mgrwt>
</event>
<event>
 5    1  0.1490736E-003  0.1411034E+03  0.7818608E-02  0.1218387E+00
         11   -1    0    0    0    0  0.00000000000E+00  0.00000000000E+00  0.10000410469E+04  0.10000410469E+04  0.51100000000E-03 0.  1.
         -4   -1    0    0    0  501 -0.00000000000E+00 -0.00000000000E+00 -0.28311953278E+02  0.28347541311E+02  0.14200000000E+01 0.  1.
         11    1    1    2    0    0  0.14548417917E+02  0.10828248370E+03  0.17411271354E+03  0.20555288798E+03  0.51100000000E-03 0.  1.
         22    1    1    2    0    0 -0.95596401369E+01  0.27925385678E+02  0.26192827604E+02  0.39462363116E+02  0.00000000000E+00 0. -1.
         -4    1    1    2    0  501 -0.49887777798E+01 -0.13620786938E+03  0.77142355249E+03  0.78337333712E+03  0.14200000000E+01 0.  1.
<mgrwt>
<rscale>  0 0.13630660E+03</rscale>
<asrwt>0</asrwt>
<pdfrwt beam="1">  1       11 0.10000000E+01 0.14110338E+03</pdfrwt>
<pdfrwt beam="2">  1       -4 0.43586790E-02 0.13630660E+03</pdfrwt>
<totfact> 0.11920606E+03</totfact>
</mgrwt>
</event>
<event>
 5    1  0.1490736E-003  0.8054728E+02  0.7818608E-02  0.1327505E+00
         11   -1    0    0    0    0  0.00000000000E+00  0.00000000000E+00  0.10008088130E+04  0.10008088130E+04  0.51100000000E-03 0.  1.
         -4   -1    0    0    0  501 -0.00000000000E+00 -0.00000000000E+00 -0.68885200314E+02  0.68899834704E+02  0.14200000000E+01 0. -1.
         11    1    1    2    0    0  0.61913002285E+02  0.46207117174E+02  0.27496806037E+03  0.28561469107E+03  0.51100000000E-03 0.  1.
         22    1    1    2    0    0 -0.18578142455E+02 -0.11378557107E+03  0.68830871951E+03  0.69789769803E+03  0.00000000000E+00 0.  1.
         -4    1    1    2    0  501 -0.43334859831E+02  0.67578453892E+02 -0.31353167186E+02  0.86196258617E+02  0.14200000000E+01 0. -1.
<mgrwt>
<rscale>  0 0.80547276E+02</rscale>
<asrwt>0</asrwt>
<pdfrwt beam="1">  1       11 0.10000000E+01 0.77254887E+02</pdfrwt>
<pdfrwt beam="2">  1       -4 0.10607499E-01 0.80547276E+02</pdfrwt>
<totfact> 0.25761908E+02</totfact>
</mgrwt>
</event>
<event>
 5    1  0.1490736E-003  0.1477438E+03  0.7818608E-02  0.1206708E+00
         11   -1    0    0    0    0  0.00000000000E+00  0.00000000000E+00  0.10005251260E+04  0.10005251260E+04  0.51100000000E-03 0.  1.
          4   -1    0    0  501    0 -0.00000000000E+00 -0.00000000000E+00 -0.29263411733E+02  0.29297844054E+02  0.14200000000E+01 0.  1.
         11    1    1    2    0    0  0.53961224282E+02 -0.88278996979E+02  0.53424208945E+03  0.54416872859E+03  0.51100000000E-03 0.  1.
         22    1    1    2    0    0  0.36439585970E+02 -0.25128980024E+02  0.22148091875E+03  0.22586081207E+03  0.00000000000E+00 0.  1.
          4    1    1    2  501    0 -0.90400810253E+02  0.11340797700E+03  0.21553870610E+03  0.25979342942E+03  0.14200000000E+01 0.  1.
<mgrwt>
<rscale>  0 0.14503686E+03</rscale>
<asrwt>0</asrwt>
<pdfrwt beam="1">  1       11 0.10000000E+01 0.14774379E+03</pdfrwt>
<pdfrwt beam="2">  1        4 0.45071549E-02 0.14503686E+03</pdfrwt>
<totfact> 0.11407622E+03</totfact>
</mgrwt>
</event>
<event>
 5    1  0.1490736E-003  0.3759116E+02  0.7818608E-02  0.1526725E+00
         11   -1    0    0    0    0  0.00000000000E+00  0.00000000000E+00  0.10002540925E+04  0.10002540925E+04  0.51100000000E-03 0.  1.
          4   -1    0    0  501    0 -0.00000000000E+00 -0.00000000000E+00 -0.40066957980E+01  0.42508835808E+01  0.14200000000E+01 0.  1.
         11    1    1    2    0    0  0.19421246557E+02 -0.10383161573E+02  0.86039512249E+02  0.88813245242E+02  0.51100000000E-03 0.  1.
         22    1    1    2    0    0 -0.17818095872E+02  0.36627603147E+02  0.16272915678E+03  0.16774934968E+03  0.00000000000E+00 0.  1.
          4    1    1    2  501    0 -0.16031506853E+01 -0.26244441574E+02  0.74747872772E+03  0.74794238120E+03  0.14200000000E+01 0.  1.
<mgrwt>
<rscale>  0 0.37591165E+02</rscale>
<asrwt>0</asrwt>
<pdfrwt beam="1">  1       11 0.10000000E+01 0.22022610E+02</pdfrwt>
<pdfrwt beam="2">  1        4 0.63543735E-03 0.37591165E+02</pdfrwt>
<totfact> 0.16222114E+04</totfact>
</mgrwt>
</event>
<event>
 5    1  0.1490736E-003  0.2063077E+03  0.7818608E-02  0.1147666E+00
         11   -1    0    0    0    0  0.00000000000E+00  0.00000000000E+00  0.10002839745E+04  0.10002839745E+04  0.51100000000E-03 0.  1.
          4   -1    0    0  501    0 -0.00000000000E+00 -0.00000000000E+00 -0.47997184504E+02  0.48018185309E+02  0.14200000000E+01 0.  1.
         11    1    1    2    0    0 -0.11856918424E+02  0.18926332721E+03  0.27299561291E+03  0.33239704904E+03  0.51100000000E-03 0.  1.
         22    1    1    2    0    0 -0.11212838900E+02  0.11890374113E+02  0.18010183993E+02  0.24320268918E+02  0.00000000000E+00 0.  1.
          4    1    1    2  501    0  0.23069757324E+02 -0.20115370132E+03  0.66128099306E+03  0.69158484183E+03  0.14200000000E+01 0.  1.
<mgrwt>
<rscale>  0 0.20247726E+03</rscale>
<asrwt>0</asrwt>
<pdfrwt beam="1">  1       11 0.10000000E+01 0.20630771E+03</pdfrwt>
<pdfrwt beam="2">  1        4 0.73879724E-02 0.20247726E+03</pdfrwt>
<totfact> 0.53371516E+02</totfact>
</mgrwt>
</event>
<event>
 5    1  0.1490736E-003  0.1982341E+03  0.7818608E-02  0.1159289E+00
         11   -1    0    0    0    0  0.00000000000E+00  0.00000000000E+00  0.10001798208E+04  0.10001798208E+04  0.51100000000E-03 0.  1.
         -4   -1    0    0    0  501 -0.00000000000E+00 -0.00000000000E+00 -0.94408631882E+02  0.94419310386E+02  0.14200000000E+01 0. -1.
         11    1    1    2    0    0 -0.10386772547E+03  0.26448456281E+01  0.37952940300E+03  0.39349468528E+03  0.51100000000E-03 0.  1.
         22    1    1    2    0    0 -0.79872029449E+02  0.41974829768E+02  0.50249749944E+03  0.51053419510E+03  0.00000000000E+00 0.  1.
         -4    1    1    2    0  501  0.18373975491E+03 -0.44619675396E+02  0.23744286526E+02  0.19057025086E+03  0.14200000000E+01 0. -1.
<mgrwt>
<rscale>  0 0.18908524E+03</rscale>
<asrwt>0</asrwt>
<pdfrwt beam="1">  1       11 0.10000000E+01 0.19823410E+03</pdfrwt>
<pdfrwt beam="2">  1       -4 0.14527915E-01 0.18908524E+03</pdfrwt>
<totfact> 0.16735517E+02</totfact>
</mgrwt>
</event>
<event>
 5    1  0.1490736E-003  0.6978831E+02  0.7818608E-02  0.1360814E+00
         11   -1    0    0    0    0  0.00000000000E+00  0.00000000000E+00  0.10000161726E+04  0.10000161726E+04  0.51100000000E-03 0. -1.
          4   -1    0    0  501    0 -0.00000000000E+00 -0.00000000000E+00 -0.89734848347E+01  0.90851433714E+01  0.14200000000E+01 0. -1.
         11    1    1    2    0    0 -0.22514999738E+02  0.15857462801E+02  0.74298352575E+02  0.79237803700E+02  0.51100000000E-03 0. -1.
         22    1    1    2    0    0  0.43178912059E+02  0.54775541126E+02  0.26687103490E+03  0.27583496446E+03  0.00000000000E+00 0. -1.
          4    1    1    2  501    0 -0.20663912321E+02 -0.70633003927E+02  0.64987330029E+03  0.65402854780E+03  0.14200000000E+01 0. -1.
<mgrwt>
<rscale>  0 0.69788310E+02</rscale>
<asrwt>0</asrwt>
<pdfrwt beam="1">  1       11 0.10000000E+01 0.27538793E+02</pdfrwt>
<pdfrwt beam="2">  1        4 0.13892252E-02 0.69788310E+02</pdfrwt>
<totfact> 0.61094556E+03</totfact>
</mgrwt>
</event>
<event>
 5    1  0.1490736E-003  0.5998498E+02  0.7818608E-02  0.1397895E+00
         11   -1    0    0    0    0  0.00000000000E+00  0.00000000000E+00  0.10001116006E+04  0.10001116006E+04  0.51100000000E-03 0. -1.
          4   -1    0    0  501    0 -0.00000000000E+00 -0.00000000000E+00 -0.51383632272E+01  0.53309639517E+01  0.14200000000E+01 0. -1.
         11    1    1    2    0    0  0.11461912277E+02 -0.15922977446E+01  0.30250272464E+02  0.32388112473E+02  0.51100000000E-03 0. -1.
         22    1    1    2    0    0  0.49284978971E+02  0.28249810639E+02  0.32795046030E+03  0.33283414092E+03  0.00000000000E+00 0. -1.
          4    1    1    2  501    0 -0.60746891249E+02 -0.26657512895E+02  0.63677250464E+03  0.64022031119E+03  0.14200000000E+01 0. -1.
<mgrwt>
<rscale>  0 0.59984978E+02</rscale>
<asrwt>0</asrwt>
<pdfrwt beam="1">  1       11 0.10000000E+01 0.11571991E+02</pdfrwt>
<pdfrwt beam="2">  1        4 0.80550027E-03 0.59984978E+02</pdfrwt>
<totfact> 0.13200742E+04</totfact>
</mgrwt>
</event>
<event>
 5    1  0.1490736E-003  0.2332921E+03  0.7818608E-02  0.1132365E+00
         11   -1    0    0    0    0  0.00000000000E+00  0.00000000000E+00  0.10000842237E+04  0.10000842237E+04  0.51100000000E-03 0. -1.
         -4   -1    0    0    0  501 -0.00000000000E+00 -0.00000000000E+00 -0.53386241716E+02  0.53405123393E+02  0.14200000000E+01 0.  1.
         11    1    1    2    0    0 -0.17640399338E+03  0.92568465560E+01  0.49619638014E+03  0.52670191356E+03  0.51100000000E-03 0. -1.
         22    1    1    2    0    0 -0.42486615993E+02  0.28032169230E+02  0.78700357376E+02  0.93726524001E+02  0.00000000000E+00 0.  1.
         -4    1    1    2    0  501  0.21889060937E+03 -0.37289015785E+02  0.37180124445E+03  0.43306090951E+03  0.14200000000E+01 0.  1.
<mgrwt>
<rscale>  0 0.22204861E+03</rscale>
<asrwt>0</asrwt>
<pdfrwt beam="1">  1       11 0.10000000E+01 0.23329206E+03</pdfrwt>
<pdfrwt beam="2">  1       -4 0.82154896E-02 0.22204861E+03</pdfrwt>
<totfact> 0.45199742E+02</totfact>
</mgrwt>
</event>
<event>
 5    1  0.1490736E-003  0.9200133E+02  0.7818608E-02  0.1301835E+00
         11   -1    0    0    0    0  0.00000000000E+00  0.00000000000E+00  0.10001897485E+04  0.10001897485E+04  0.51100000000E-03 0. -1.
         -4   -1    0    0    0  501 -0.00000000000E+00 -0.00000000000E+00 -0.83390879519E+01  0.84591245332E+01  0.14200000000E+01 0.  1.
         11    1    1    2    0    0 -0.71084224892E+02 -0.20571203662E+02  0.36202630287E+03  0.36951209103E+03  0.51100000000E-03 0. -1.
         22    1    1    2    0    0 -0.17678284252E+02  0.33893393280E+01  0.88421496381E+02  0.90235083961E+02  0.00000000000E+00 0.  1.
         -4    1    1    2    0  501  0.88762509144E+02  0.17181864334E+02  0.54140286130E+03  0.54890169804E+03  0.14200000000E+01 0.  1.
<mgrwt>
<rscale>  0 0.90421324E+02</rscale>
<asrwt>0</asrwt>
<pdfrwt beam="1">  1       11 0.10000000E+01 0.92001332E+02</pdfrwt>
<pdfrwt beam="2">  1       -4 0.12924929E-02 0.90421324E+02</pdfrwt>
<totfact> 0.72271844E+03</totfact>
</mgrwt>
</event>
<event>
 5    1  0.1490736E-003  0.1090154E+03  0.7818608E-02  0.1264196E+00
         11   -1    0    0    0    0  0.00000000000E+00  0.00000000000E+00  0.10001930260E+04  0.10001930260E+04  0.51100000000E-03 0.  1.
         -4   -1    0    0    0  501 -0.00000000000E+00 -0.00000000000E+00 -0.12092485068E+02  0.12175573708E+02  0.14200000000E+01 0. -1.
         11    1    1    2    0    0  0.45193377976E+02 -0.86793037920E+02  0.37278524993E+03  0.38541447223E+03  0.51100000000E-03 0.  1.
         22    1    1    2    0    0  0.86764389539E+01 -0.68770694846E+01  0.36686379266E+02  0.38320557163E+02  0.00000000000E+00 0.  1.
         -4    1    1    2    0  501 -0.53869816930E+02  0.93670107405E+02  0.57862891173E+03  0.58863357030E+03  0.14200000000E+01 0. -1.
<mgrwt>
<rscale>  0 0.10806509E+03</rscale>
<asrwt>0</asrwt>
<pdfrwt beam="1">  1       11 0.10000000E+01 0.10901541E+03</pdfrwt>
<pdfrwt beam="2">  1       -4 0.18672116E-02 0.10806509E+03</pdfrwt>
<totfact> 0.42943552E+03</totfact>
</mgrwt>
</event>
<event>
 5    1  0.1490736E-003  0.9251979E+02  0.7818608E-02  0.1304768E+00
         11   -1    0    0    0    0  0.00000000000E+00  0.00000000000E+00  0.10005407518E+04  0.10005407518E+04  0.51100000000E-03 0. -1.
          4   -1    0    0  501    0 -0.00000000000E+00 -0.00000000000E+00 -0.83892394287E+01  0.85085685160E+01  0.14200000000E+01 0. -1.
         11    1    1    2    0    0 -0.16830478969E+02 -0.56489507093E+01  0.57902858345E+02  0.60563327776E+02  0.51100000000E-03 0. -1.
         22    1    1    2    0    0 -0.71814287087E+02  0.15602367409E+02  0.36993273861E+03  0.37716171173E+03  0.00000000000E+00 0. -1.
          4    1    1    2  501    0  0.88644766056E+02 -0.99534166998E+01  0.56431591540E+03  0.57132428079E+03  0.14200000000E+01 0. -1.
<mgrwt>
<rscale>  0 0.89213124E+02</rscale>
<asrwt>0</asrwt>
<pdfrwt beam="1">  1       11 0.10000000E+01 0.92519793E+02</pdfrwt>
<pdfrwt beam="2">  1        4 0.13006118E-02 0.89213124E+02</pdfrwt>
<totfact> 0.71379133E+03</totfact>
</mgrwt>
</event>
<event>
 5    1  0.1490736E-003  0.7657774E+02  0.7818608E-02  0.1349712E+00
         11   -1    0    0    0    0  0.00000000000E+00  0.00000000000E+00  0.99979834738E+03  0.99979834738E+03  0.51100000000E-03 0. -1.
          4   -1    0    0  501    0 -0.00000000000E+00 -0.00000000000E+00 -0.59308285051E+01  0.60984528167E+01  0.14200000000E+01 0. -1.
         11    1    1    2    0    0 -0.33562183619E+02 -0.53111519779E+01  0.16968788537E+03  0.17305665820E+03  0.51100000000E-03 0. -1.
         22    1    1    2    0    0 -0.30796451376E+02 -0.29419628778E+02  0.20662578285E+03  0.21096954783E+03  0.00000000000E+00 0. -1.
          4    1    1    2  501    0  0.64358634995E+02  0.34730780756E+02  0.61755385066E+03  0.62187059417E+03  0.14200000000E+01 0. -1.
<mgrwt>
<rscale>  0 0.73145591E+02</rscale>
<asrwt>0</asrwt>
<pdfrwt beam="1">  1       11 0.10000000E+01 0.76577738E+02</pdfrwt>
<pdfrwt beam="2">  1        4 0.92522026E-03 0.73145591E+02</pdfrwt>
<totfact> 0.11327086E+04</totfact>
</mgrwt>
</event>
<event>
 5    1  0.1490736E-003  0.8275573E+02  0.7818608E-02  0.1462959E+00
         11   -1    0    0    0    0  0.00000000000E+00  0.00000000000E+00  0.99992629450E+03  0.99992629450E+03  0.51100000000E-03 0.  1.
          4   -1    0    0  501    0 -0.00000000000E+00 -0.00000000000E+00 -0.53517129060E+02  0.53535964573E+02  0.14200000000E+01 0.  1.
         11    1    1    2    0    0  0.59052515121E+02 -0.41900435800E+02 -0.15637013497E+02  0.74076732202E+02  0.51100000000E-03 0.  1.
         22    1    1    2    0    0  0.20439995325E+02  0.16941715351E+02  0.18956607277E+02  0.32621589283E+02  0.00000000000E+00 0.  1.
          4    1    1    2  501    0 -0.79492510446E+02  0.24958720449E+02  0.94308957166E+03  0.94676393759E+03  0.14200000000E+01 0.  1.
<mgrwt>
<rscale>  0 0.46875908E+02</rscale>
<asrwt>0</asrwt>
<pdfrwt beam="1">  1       11 0.10000000E+01 0.82755728E+02</pdfrwt>
<pdfrwt beam="2">  1        4 0.82343237E-02 0.46875908E+02</pdfrwt>
<totfact> 0.35546953E+02</totfact>
</mgrwt>
</event>
<event>
 5    1  0.1490736E-003  0.6294541E+02  0.7818608E-02  0.1479875E+00
         11   -1    0    0    0    0  0.00000000000E+00  0.00000000000E+00  0.10003871979E+04  0.10003871979E+04  0.51100000000E-03 0.  1.
          4   -1    0    0  501    0 -0.00000000000E+00 -0.00000000000E+00 -0.81088327176E+01  0.82322274047E+01  0.14200000000E+01 0.  1.
         11    1    1    2    0    0 -0.41759392772E+02 -0.36763789271E+02  0.17517267993E+03  0.18379578580E+03  0.51100000000E-03 0.  1.
         22    1    1    2    0    0  0.16949859536E+02 -0.25866090361E+02  0.10289837955E+03  0.10744500400E+03  0.00000000000E+00 0.  1.
          4    1    1    2  501    0  0.24809533236E+02  0.62629879631E+02  0.71420730571E+03  0.71737863551E+03  0.14200000000E+01 0.  1.
<mgrwt>
<rscale>  0 0.44125705E+02</rscale>
<asrwt>0</asrwt>
<pdfrwt beam="1">  1       11 0.10000000E+01 0.62945412E+02</pdfrwt>
<pdfrwt beam="2">  1        4 0.12575689E-02 0.44125705E+02</pdfrwt>
<totfact> 0.62882860E+03</totfact>
</mgrwt>
</event>
<event>
 5    1  0.1490736E-003  0.2363407E+03  0.7818608E-02  0.1137306E+00
         11   -1    0    0    0    0  0.00000000000E+00  0.00000000000E+00  0.10001040338E+04  0.10001040338E+04  0.51100000000E-03 0.  1.
          4   -1    0    0  501    0 -0.00000000000E+00 -0.00000000000E+00 -0.39521971278E+03  0.39522226375E+03  0.14200000000E+01 0.  1.
         11    1    1    2    0    0 -0.12570471999E+03 -0.16657562324E+02  0.47518633179E+03  0.49181419351E+03  0.51100000000E-03 0.  1.
         22    1    1    2    0    0 -0.61748450118E+02 -0.89580973003E+02  0.48003873643E+03  0.49221419148E+03  0.00000000000E+00 0.  1.
          4    1    1    2  501    0  0.18745317011E+03  0.10623853533E+03 -0.35034074718E+03  0.41129791259E+03  0.14200000000E+01 0.  1.
<mgrwt>
<rscale>  0 0.21547003E+03</rscale>
<asrwt>0</asrwt>
<pdfrwt beam="1">  1       11 0.10000000E+01 0.23634071E+03</pdfrwt>
<pdfrwt beam="2">  1        4 0.60809630E-01 0.21547003E+03</pdfrwt>
<totfact> 0.10898653E+01</totfact>
</mgrwt>
</event>
<event>
 5    1  0.1490736E-003  0.1236973E+03  0.7818608E-02  0.1240629E+00
         11   -1    0    0    0    0  0.00000000000E+00  0.00000000000E+00  0.10001512495E+04  0.10001512495E+04  0.51100000000E-03 0.  1.
         -4   -1    0    0    0  501 -0.00000000000E+00 -0.00000000000E+00 -0.16564516667E+02  0.16625270295E+02  0.14200000000E+01 0. -1.
         11    1    1    2    0    0 -0.15432727706E+01  0.13095298130E+02  0.40489595241E+02  0.42582576800E+02  0.51100000000E-03 0.  1.
         22    1    1    2    0    0 -0.27113610981E+02  0.10497692386E+03  0.61145482421E+03  0.62099299875E+03  0.00000000000E+00 0.  1.
         -4    1    1    2    0  501  0.28656883752E+02 -0.11807222199E+03  0.33164231342E+03  0.35320094428E+03  0.14200000000E+01 0. -1.
<mgrwt>
<rscale>  0 0.12150837E+03</rscale>
<asrwt>0</asrwt>
<pdfrwt beam="1">  1       11 0.10000000E+01 0.12369729E+03</pdfrwt>
<pdfrwt beam="2">  1       -4 0.25535242E-02 0.12150837E+03</pdfrwt>
<totfact> 0.27108024E+03</totfact>
</mgrwt>
</event>
<event>
 5    1  0.1490736E-003  0.8957896E+02  0.7818608E-02  0.1303875E+00
         11   -1    0    0    0    0  0.00000000000E+00  0.00000000000E+00  0.99998555188E+03  0.99998555188E+03  0.51100000000E-03 0. -1.
          4   -1    0    0  501    0 -0.00000000000E+00 -0.00000000000E+00 -0.10593291431E+02  0.10688041137E+02  0.14200000000E+01 0. -1.
         11    1    1    2    0    0 -0.94562499547E+01 -0.20855982770E+02  0.98016821603E+02  0.10065629637E+03  0.51100000000E-03 0. -1.
         22    1    1    2    0    0 -0.38964297857E+02  0.89942841418E+02  0.52248051736E+03  0.53159554386E+03  0.00000000000E+00 0. -1.
          4    1    1    2  501    0  0.48420547811E+02 -0.69086858648E+02  0.36889492148E+03  0.37842175279E+03  0.14200000000E+01 0. -1.
<mgrwt>
<rscale>  0 0.89578961E+02</rscale>
<asrwt>0</asrwt>
<pdfrwt beam="1">  1       11 0.10000000E+01 0.22899633E+02</pdfrwt>
<pdfrwt beam="2">  1        4 0.16370794E-02 0.89578961E+02</pdfrwt>
<totfact> 0.50475922E+03</totfact>
</mgrwt>
</event>
<event>
 5    1  0.1490736E-003  0.1221993E+03  0.7818608E-02  0.1239512E+00
         11   -1    0    0    0    0  0.00000000000E+00  0.00000000000E+00  0.10001442804E+04  0.10001442804E+04  0.51100000000E-03 0. -1.
          4   -1    0    0  501    0 -0.00000000000E+00 -0.00000000000E+00 -0.27537299990E+02  0.27573887842E+02  0.14200000000E+01 0. -1.
         11    1    1    2    0    0  0.95731652601E+02 -0.93064639802E+02  0.72879265993E+03  0.74092126280E+03  0.51100000000E-03 0. -1.
         22    1    1    2    0    0 -0.17980198623E+02  0.21592275844E+01  0.90699946391E+02  0.92490162080E+02  0.00000000000E+00 0. -1.
          4    1    1    2  501    0 -0.77751453978E+02  0.90905412217E+02  0.15311437409E+03  0.19430674337E+03  0.14200000000E+01 0. -1.
<mgrwt>
<rscale>  0 0.12219931E+03</rscale>
<asrwt>0</asrwt>
<pdfrwt beam="1">  1       11 0.10000000E+01 0.18109384E+02</pdfrwt>
<pdfrwt beam="2">  1        4 0.42400112E-02 0.12219931E+03</pdfrwt>
<totfact> 0.12239860E+03</totfact>
</mgrwt>
</event>
<event>
 5    1  0.1490736E-003  0.4403103E+02  0.7818608E-02  0.1714050E+00
         11   -1    0    0    0    0  0.00000000000E+00  0.00000000000E+00  0.10002618896E+04  0.10002618896E+04  0.51100000000E-03 0. -1.
          4   -1    0    0  501    0 -0.00000000000E+00 -0.00000000000E+00 -0.41442017068E+01  0.43807314214E+01  0.14200000000E+01 0. -1.
         11    1    1    2    0    0  0.18117080266E+02 -0.46987984534E+02  0.21500851011E+03  0.22082744102E+03  0.51100000000E-03 0. -1.
         22    1    1    2    0    0  0.35226553436E+01  0.10058877395E+02  0.37813054141E+02  0.39286348502E+02  0.00000000000E+00 0. -1.
          4    1    1    2  501    0 -0.21639735609E+02  0.36929107139E+02  0.74329612366E+03  0.74452883152E+03  0.14200000000E+01 0. -1.
<mgrwt>
<rscale>  0 0.21668423E+02</rscale>
<asrwt>0</asrwt>
<pdfrwt beam="1">  1       11 0.10000000E+01 0.44031030E+02</pdfrwt>
<pdfrwt beam="2">  1        4 0.65601336E-03 0.21668423E+02</pdfrwt>
<totfact> 0.12665411E+04</totfact>
</mgrwt>
</event>
<event>
 5    1  0.1490736E-003  0.2227080E+03  0.7818608E-02  0.1131880E+00
         11   -1    0    0    0    0  0.00000000000E+00  0.00000000000E+00  0.10000793520E+04  0.10000793520E+04  0.51100000000E-03 0.  1.
          4   -1    0    0  501    0 -0.00000000000E+00 -0.00000000000E+00 -0.99679549770E+02  0.99689663669E+02  0.14200000000E+01 0.  1.
         11    1    1    2    0    0  0.11642895716E+02 -0.21209009030E+03  0.58192802967E+03  0.61948203778E+03  0.51100000000E-03 0.  1.
         22    1    1    2    0    0  0.55313494422E+02 -0.47456844335E+01  0.23017026598E+03  0.23677089248E+03  0.00000000000E+00 0.  1.
          4    1    1    2  501    0 -0.66956390138E+02  0.21683577473E+03  0.88301506573E+02  0.24351608539E+03  0.14200000000E+01 0.  1.
<mgrwt>
<rscale>  0 0.22270802E+03</rscale>
<asrwt>0</asrwt>
<pdfrwt beam="1">  1       11 0.10000000E+01 0.55516702E+02</pdfrwt>
<pdfrwt beam="2">  1        4 0.15337387E-01 0.22270802E+03</pdfrwt>
<totfact> 0.15458793E+02</totfact>
</mgrwt>
</event>
<event>
 5    1  0.1490736E-003  0.1092369E+03  0.7818608E-02  0.1261990E+00
         11   -1    0    0    0    0  0.00000000000E+00  0.00000000000E+00  0.10001520982E+04  0.10001520982E+04  0.51100000000E-03 0. -1.
          4   -1    0    0  501    0 -0.00000000000E+00 -0.00000000000E+00 -0.80431355725E+02  0.80443889661E+02  0.14200000000E+01 0. -1.
         11    1    1    2    0    0  0.12710356685E+02  0.14849903696E+03  0.75126740739E+03  0.76590876386E+03  0.51100000000E-03 0. -1.
         22    1    1    2    0    0  0.52431146772E+02 -0.62203848678E+02  0.18796046570E+03  0.20481084104E+03  0.00000000000E+00 0. -1.
          4    1    1    2  501    0 -0.65141503457E+02 -0.86295188282E+02 -0.19507130595E+02  0.10987638298E+03  0.14200000000E+01 0. -1.
<mgrwt>
<rscale>  0 0.10923688E+03</rscale>
<asrwt>0</asrwt>
<pdfrwt beam="1">  1       11 0.10000000E+01 0.81353205E+02</pdfrwt>
<pdfrwt beam="2">  1        4 0.12376978E-01 0.10923688E+03</pdfrwt>
<totfact> 0.20723543E+02</totfact>
</mgrwt>
</event>
<event>
 5    1  0.1490736E-003  0.8101668E+02  0.7818608E-02  0.1340556E+00
         11   -1    0    0    0    0  0.00000000000E+00  0.00000000000E+00  0.99997050120E+03  0.99997050120E+03  0.51100000000E-03 0.  1.
          4   -1    0    0  501    0 -0.00000000000E+00 -0.00000000000E+00 -0.66449780715E+01  0.67950079890E+01  0.14200000000E+01 0.  1.
         11    1    1    2    0    0 -0.43539160086E+02 -0.44148887620E+02  0.27719430435E+03  0.28404482939E+03  0.51100000000E-03 0.  1.
         22    1    1    2    0    0 -0.18971314270E+02  0.80470789153E+00  0.89801538874E+02  0.91787116220E+02  0.00000000000E+00 0. -1.
          4    1    1    2  501    0  0.62510474355E+02  0.43344179729E+02  0.62632967991E+03  0.63093356358E+03  0.14200000000E+01 0.  1.
<mgrwt>
<rscale>  0 0.76080837E+02</rscale>
<asrwt>0</asrwt>
<pdfrwt beam="1">  1       11 0.10000000E+01 0.81016680E+02</pdfrwt>
<pdfrwt beam="2">  1        4 0.10338921E-02 0.76080837E+02</pdfrwt>
<totfact> 0.96978248E+03</totfact>
</mgrwt>
</event>
<event>
 5    1  0.1490736E-003  0.2372306E+03  0.7818608E-02  0.1121652E+00
         11   -1    0    0    0    0  0.00000000000E+00  0.00000000000E+00  0.10004765461E+04  0.10004765461E+04  0.51100000000E-03 0. -1.
          4   -1    0    0  501    0 -0.00000000000E+00 -0.00000000000E+00 -0.59877652367E+02  0.59894487668E+02  0.14200000000E+01 0. -1.
         11    1    1    2    0    0 -0.22448557783E+03 -0.68408828143E+02  0.49380401610E+03  0.54673206303E+03  0.51100000000E-03 0. -1.
         22    1    1    2    0    0 -0.78973614302E+01  0.10262070860E+02  0.33838790308E+02  0.36231783635E+02  0.00000000000E+00 0.  1.
          4    1    1    2  501    0  0.23238293926E+03  0.58146757283E+02  0.41295608730E+03  0.47740718708E+03  0.14200000000E+01 0. -1.
<mgrwt>
<rscale>  0 0.23723061E+03</rscale>
<asrwt>0</asrwt>
<pdfrwt beam="1">  1       11 0.10000000E+01 0.12949070E+02</pdfrwt>
<pdfrwt beam="2">  1        4 0.92177094E-02 0.23723061E+03</pdfrwt>
<totfact> 0.37512323E+02</totfact>
</mgrwt>
</event>
<event>
 5    1  0.1490736E-003  0.1288860E+03  0.7818608E-02  0.1229118E+00
         11   -1    0    0    0    0  0.00000000000E+00  0.00000000000E+00  0.10002733285E+04  0.10002733285E+04  0.51100000000E-03 0. -1.
          4   -1    0    0  501    0 -0.00000000000E+00 -0.00000000000E+00 -0.22873402818E+02  0.22917437825E+02  0.14200000000E+01 0. -1.
         11    1    1    2    0    0  0.10886097564E+03 -0.55319811357E+02  0.55100971637E+03  0.56437815432E+03  0.51100000000E-03 0. -1.
         22    1    1    2    0    0  0.19854599446E+02  0.20133590014E+02  0.14042231455E+03  0.14324103110E+03  0.00000000000E+00 0. -1.
          4    1    1    2  501    0 -0.12871557508E+03  0.35186221344E+02  0.28596789480E+03  0.31557158094E+03  0.14200000000E+01 0. -1.
<mgrwt>
<rscale>  0 0.12888605E+03</rscale>
<asrwt>0</asrwt>
<pdfrwt beam="1">  1       11 0.10000000E+01 0.28276608E+02</pdfrwt>
<pdfrwt beam="2">  1        4 0.35234126E-02 0.12888605E+03</pdfrwt>
<totfact> 0.16553457E+03</totfact>
</mgrwt>
</event>
<event>
 5    1  0.1490736E-003  0.3359480E+02  0.7818608E-02  0.1578054E+00
         11   -1    0    0    0    0  0.00000000000E+00  0.00000000000E+00  0.10000643216E+04  0.10000643216E+04  0.51100000000E-03 0. -1.
          4   -1    0    0  501    0 -0.00000000000E+00 -0.00000000000E+00 -0.37856553803E+01  0.40432148915E+01  0.14200000000E+01 0. -1.
         11    1    1    2    0    0 -0.13978219352E+02 -0.10907314697E+02  0.37933226692E+02  0.41872303707E+02  0.51100000000E-03 0. -1.
         22    1    1    2    0    0 -0.41380204460E+01 -0.15303029251E+02  0.35967606660E+02  0.39306165500E+02  0.00000000000E+00 0.  1.
          4    1    1    2  501    0  0.18116239798E+02  0.26210343948E+02  0.92237783289E+03  0.92292906731E+03  0.14200000000E+01 0. -1.
<mgrwt>
<rscale>  0 0.31893521E+02</rscale>
<asrwt>0</asrwt>
<pdfrwt beam="1">  1       11 0.10000000E+01 0.33594802E+02</pdfrwt>
<pdfrwt beam="2">  1        4 0.60233706E-03 0.31893521E+02</pdfrwt>
<totfact> 0.16567904E+04</totfact>
</mgrwt>
</event>
<event>
 5    1  0.3007059E-003  0.1619785E+03  0.7818608E-02  0.1187733E+00
         11   -1    0    0    0    0  0.00000000000E+00  0.00000000000E+00  0.10001597797E+04  0.10001597797E+04  0.51100000000E-03 0. -1.
          4   -1    0    0  501    0 -0.00000000000E+00 -0.00000000000E+00 -0.90869689527E+02  0.90880783859E+02  0.14200000000E+01 0. -1.
         11    1    1    2    0    0 -0.10286585762E+03  0.10725232074E+03  0.85024388863E+03  0.86313331248E+03  0.51100000000E-03 0. -1.
         22    1    1    2    0    0 -0.46141103549E+01  0.12417777544E+02  0.65592977594E+02  0.66917336492E+02  0.00000000000E+00 0. -1.
          4    1    1    2  501    0  0.10747996797E+03 -0.11967009828E+03 -0.65467759978E+01  0.16098991464E+03  0.14200000000E+01 0. -1.
<mgrwt>
<rscale>  0 0.16085674E+03</rscale>
<asrwt>0</asrwt>
<pdfrwt beam="1">  1       11 0.10000000E+01 0.16197853E+03</pdfrwt>
<pdfrwt beam="2">  1        4 0.13983117E-01 0.16085674E+03</pdfrwt>
<totfact> 0.17588096E+02</totfact>
</mgrwt>
</event>
<event>
 5    1  0.1490736E-003  0.1964090E+03  0.7818608E-02  0.1155574E+00
         11   -1    0    0    0    0  0.00000000000E+00  0.00000000000E+00  0.10001775622E+04  0.10001775622E+04  0.51100000000E-03 0. -1.
         -4   -1    0    0    0  501 -0.00000000000E+00 -0.00000000000E+00 -0.77416632213E+03  0.77416762443E+03  0.14200000000E+01 0.  1.
         11    1    1    2    0    0  0.14625088366E+03  0.30981763546E+02  0.82228237451E+03  0.83576162515E+03  0.51100000000E-03 0. -1.
         22    1    1    2    0    0  0.42069108914E+02  0.12308004702E+02  0.15592199076E+03  0.16196593502E+03  0.00000000000E+00 0. -1.
         -4    1    1    2    0  501 -0.18831999258E+03 -0.43289768248E+02 -0.75219312523E+03  0.77661762643E+03  0.14200000000E+01 0.  1.
<mgrwt>
<rscale>  0 0.19323675E+03</rscale>
<asrwt>0</asrwt>
<pdfrwt beam="1">  1       11 0.10000000E+01 0.19640902E+03</pdfrwt>
<pdfrwt beam="2">  1       -4 0.11912383E+00 0.19323675E+03</pdfrwt>
<totfact> 0.23732134E+00</totfact>
</mgrwt>
</event>
<event>
 5    1  0.1490736E-003  0.1376298E+03  0.7818608E-02  0.1224050E+00
         11   -1    0    0    0    0  0.00000000000E+00  0.00000000000E+00  0.10004091879E+04  0.10004091879E+04  0.51100000000E-03 0.  1.
          4   -1    0    0  501    0 -0.00000000000E+00 -0.00000000000E+00 -0.18183424686E+02  0.18238786509E+02  0.14200000000E+01 0.  1.
         11    1    1    2    0    0 -0.78050676535E+02  0.26541954211E+02  0.26410581072E+03  0.27667356703E+03  0.51100000000E-03 0.  1.
         22    1    1    2    0    0 -0.52928599282E+02 -0.77886937367E+01  0.23928328651E+03  0.24519092882E+03  0.00000000000E+00 0.  1.
          4    1    1    2  501    0  0.13097927582E+03 -0.18753260475E+02  0.47883666599E+03  0.49678347856E+03  0.14200000000E+01 0.  1.
<mgrwt>
<rscale>  0 0.13232261E+03</rscale>
<asrwt>0</asrwt>
<pdfrwt beam="1">  1       11 0.10000000E+01 0.13762983E+03</pdfrwt>
<pdfrwt beam="2">  1        4 0.28029325E-02 0.13232261E+03</pdfrwt>
<totfact> 0.23806566E+03</totfact>
</mgrwt>
</event>
<event>
 5    1  0.1490736E-003  0.5550698E+02  0.7818608E-02  0.1433197E+00
         11   -1    0    0    0    0  0.00000000000E+00  0.00000000000E+00  0.10002207481E+04  0.10002207481E+04  0.51100000000E-03 0. -1.
          4   -1    0    0  501    0 -0.00000000000E+00 -0.00000000000E+00 -0.40099136113E+01  0.42539166859E+01  0.14200000000E+01 0. -1.
         11    1    1    2    0    0 -0.15726505075E+02 -0.73164907097E+01  0.46062693384E+02  0.49220175947E+02  0.51100000000E-03 0. -1.
         22    1    1    2    0    0 -0.26098975880E+02 -0.24090203148E+02  0.18888628369E+03  0.19219657280E+03  0.00000000000E+00 0. -1.
          4    1    1    2  501    0  0.41825480956E+02  0.31406693858E+02  0.76126185742E+03  0.76305791605E+03  0.14200000000E+01 0. -1.
<mgrwt>
<rscale>  0 0.52323682E+02</rscale>
<asrwt>0</asrwt>
<pdfrwt beam="1">  1       11 0.10000000E+01 0.55506979E+02</pdfrwt>
<pdfrwt beam="2">  1        4 0.63589711E-03 0.52323682E+02</pdfrwt>
<totfact> 0.17954790E+04</totfact>
</mgrwt>
</event>
<event>
 5    1  0.1490736E-003  0.2374526E+03  0.7818608E-02  0.1122871E+00
         11   -1    0    0    0    0  0.00000000000E+00  0.00000000000E+00  0.10004243630E+04  0.10004243630E+04  0.51100000000E-03 0.  1.
          4   -1    0    0  501    0 -0.00000000000E+00 -0.00000000000E+00 -0.83041740301E+02  0.83053880296E+02  0.14200000000E+01 0.  1.
         11    1    1    2    0    0 -0.18573203162E+03 -0.11090325006E+03  0.69733787084E+03  0.73012055481E+03  0.51100000000E-03 0.  1.
         22    1    1    2    0    0 -0.21023528234E+02 -0.17045289174E+01  0.72507383418E+02  0.75513010855E+02  0.00000000000E+00 0.  1.
          4    1    1    2  501    0  0.20675555985E+03  0.11260777898E+03  0.14753736848E+03  0.27784467768E+03  0.14200000000E+01 0.  1.
<mgrwt>
<rscale>  0 0.23543659E+03</rscale>
<asrwt>0</asrwt>
<pdfrwt beam="1">  1       11 0.10000000E+01 0.23745258E+03</pdfrwt>
<pdfrwt beam="2">  1        4 0.12782085E-01 0.23543659E+03</pdfrwt>
<totfact> 0.21394231E+02</totfact>
</mgrwt>
</event>
<event>
 5    1  0.1490736E-003  0.2339419E+03  0.7818608E-02  0.1123896E+00
         11   -1    0    0    0    0  0.00000000000E+00  0.00000000000E+00  0.99997139643E+03  0.99997139643E+03  0.51100000000E-03 0. -1.
          4   -1    0    0  501    0 -0.00000000000E+00 -0.00000000000E+00 -0.92780847294E+03  0.92780955959E+03  0.14200000000E+01 0. -1.
         11    1    1    2    0    0 -0.70117362918E+02 -0.79832270196E+02  0.10605781490E+03  0.15012626702E+03  0.51100000000E-03 0. -1.
         22    1    1    2    0    0  0.66094769382E+02 -0.15550398328E+03  0.84811289869E+03  0.86478060586E+03  0.00000000000E+00 0. -1.
          4    1    1    2  501    0  0.40225935362E+01  0.23533625347E+03 -0.88200779010E+03  0.91287408314E+03  0.14200000000E+01 0. -1.
<mgrwt>
<rscale>  0 0.23394194E+03</rscale>
<asrwt>0</asrwt>
<pdfrwt beam="1">  1       11 0.10000000E+01 0.10625270E+03</pdfrwt>
<pdfrwt beam="2">  1        4 0.14273584E+00 0.23394194E+03</pdfrwt>
<totfact> 0.15162669E+00</totfact>
</mgrwt>
</event>
<event>
 5    1  0.1490736E-003  0.2322959E+03  0.7818608E-02  0.1131941E+00
         11   -1    0    0    0    0  0.00000000000E+00  0.00000000000E+00  0.99992540591E+03  0.99992540591E+03  0.51100000000E-03 0. -1.
          4   -1    0    0  501    0 -0.00000000000E+00 -0.00000000000E+00 -0.55286560307E+02  0.55304793197E+02  0.14200000000E+01 0. -1.
         11    1    1    2    0    0  0.64656954735E+02 -0.80500673273E+02  0.27979126061E+03  0.29823485663E+03  0.51100000000E-03 0. -1.
         22    1    1    2    0    0  0.12276058011E+03 -0.39643279742E+02  0.33565689059E+03  0.35959323945E+03  0.00000000000E+00 0. -1.
          4    1    1    2  501    0 -0.18741753484E+03  0.12014395302E+03  0.32919069440E+03  0.39740210303E+03  0.14200000000E+01 0. -1.
<mgrwt>
<rscale>  0 0.22262506E+03</rscale>
<asrwt>0</asrwt>
<pdfrwt beam="1">  1       11 0.10000000E+01 0.23229588E+03</pdfrwt>
<pdfrwt beam="2">  1        4 0.85064699E-02 0.22262506E+03</pdfrwt>
<totfact> 0.42647783E+02</totfact>
</mgrwt>
</event>
<event>
 5    1  0.1490736E-003  0.6390983E+02  0.7818608E-02  0.1409799E+00
         11   -1    0    0    0    0  0.00000000000E+00  0.00000000000E+00  0.10000412702E+04  0.10000412702E+04  0.51100000000E-03 0. -1.
          4   -1    0    0  501    0 -0.00000000000E+00 -0.00000000000E+00 -0.71638896050E+01  0.73032673697E+01  0.14200000000E+01 0. -1.
         11    1    1    2    0    0 -0.12731487686E+02  0.26683191024E+02  0.50474880310E+02  0.58496128115E+02  0.51100000000E-03 0. -1.
         22    1    1    2    0    0  0.76040184447E+01  0.30307790451E+02  0.10652265403E+03  0.11101107638E+03  0.00000000000E+00 0. -1.
          4    1    1    2  501    0  0.51274692415E+01 -0.56990981474E+02  0.83587984628E+03  0.83783733309E+03  0.14200000000E+01 0. -1.
<mgrwt>
<rscale>  0 0.57238792E+02</rscale>
<asrwt>0</asrwt>
<pdfrwt beam="1">  1       11 0.10000000E+01 0.63909832E+02</pdfrwt>
<pdfrwt beam="2">  1        4 0.11129817E-02 0.57238792E+02</pdfrwt>
<totfact> 0.80891067E+03</totfact>
</mgrwt>
</event>
<event>
 5    1  0.1490736E-003  0.2238483E+03  0.7818608E-02  0.1136011E+00
         11   -1    0    0    0    0  0.00000000000E+00  0.00000000000E+00  0.99994218524E+03  0.99994218524E+03  0.51100000000E-03 0. -1.
          4   -1    0    0  501    0 -0.00000000000E+00 -0.00000000000E+00 -0.53310320210E+02  0.53329228767E+02  0.14200000000E+01 0.  1.
         11    1    1    2    0    0 -0.14614175599E+03  0.42131664629E+02  0.37576508790E+03  0.40537870108E+03  0.51100000000E-03 0. -1.
         22    1    1    2    0    0 -0.67491729110E+02 -0.31270777639E+01  0.26031489843E+03  0.26894006481E+03  0.00000000000E+00 0. -1.
          4    1    1    2  501    0  0.21363348510E+03 -0.39004586865E+02  0.31055187870E+03  0.37895264812E+03  0.14200000000E+01 0.  1.
<mgrwt>
<rscale>  0 0.21716961E+03</rscale>
<asrwt>0</asrwt>
<pdfrwt beam="1">  1       11 0.10000000E+01 0.22384827E+03</pdfrwt>
<pdfrwt beam="2">  1        4 0.82026453E-02 0.21716961E+03</pdfrwt>
<totfact> 0.45201179E+02</totfact>
</mgrwt>
</event>
<event>
 5    1  0.1490736E-003  0.3955248E+02  0.7818608E-02  0.1522538E+00
         11   -1    0    0    0    0  0.00000000000E+00  0.00000000000E+00  0.10000792093E+04  0.10000792093E+04  0.51100000000E-03 0. -1.
         -4   -1    0    0    0  501 -0.00000000000E+00 -0.00000000000E+00 -0.23891823696E+01  0.27793150946E+01  0.14200000000E+01 0. -1.
         11    1    1    2    0    0 -0.19499789208E+02 -0.39848832798E-01  0.82725912110E+02  0.84993057962E+02  0.51100000000E-03 0. -1.
         22    1    1    2    0    0 -0.17225196432E+02 -0.10070776006E+02  0.97897623543E+02  0.99910322875E+02  0.00000000000E+00 0.  1.
         -4    1    1    2    0  501  0.36724985640E+02  0.10110624839E+02  0.81706649131E+03  0.81795514359E+03  0.14200000000E+01 0. -1.
<mgrwt>
<rscale>  0 0.38117787E+02</rscale>
<asrwt>0</asrwt>
<pdfrwt beam="1">  1       11 0.10000000E+01 0.39552479E+02</pdfrwt>
<pdfrwt beam="2">  1       -4 0.39768576E-03 0.38117787E+02</pdfrwt>
<totfact> 0.31957272E+04</totfact>
</mgrwt>
</event>
<event>
 5    1  0.1490736E-003  0.1124411E+03  0.7818608E-02  0.1522009E+00
         11   -1    0    0    0    0  0.00000000000E+00  0.00000000000E+00  0.10004282146E+04  0.10004282146E+04  0.51100000000E-03 0.  1.
          4   -1    0    0  501    0 -0.00000000000E+00 -0.00000000000E+00 -0.50745670260E+02  0.50765534077E+02  0.14200000000E+01 0.  1.
         11    1    1    2    0    0 -0.71209075247E+02 -0.72273928373E+02  0.11281893119E+02  0.10208591594E+03  0.51100000000E-03 0.  1.
         22    1    1    2    0    0 -0.12198546508E+02 -0.43965047462E+01  0.20607048122E+02  0.24347160475E+02  0.00000000000E+00 0.  1.
          4    1    1    2  501    0  0.83407621755E+02  0.76670433119E+02  0.91779360310E+03  0.92476067227E+03  0.14200000000E+01 0.  1.
<mgrwt>
<rscale>  0 0.38185067E+02</rscale>
<asrwt>0</asrwt>
<pdfrwt beam="1">  1       11 0.10000000E+01 0.11244113E+03</pdfrwt>
<pdfrwt beam="2">  1        4 0.78119752E-02 0.38185067E+02</pdfrwt>
<totfact> 0.37061414E+02</totfact>
</mgrwt>
</event>
<event>
 5    1  0.1490736E-003  0.1130356E+03  0.7818608E-02  0.1257267E+00
         11   -1    0    0    0    0  0.00000000000E+00  0.00000000000E+00  0.10002381886E+04  0.10002381886E+04  0.51100000000E-03 0. -1.
         -4   -1    0    0    0  501 -0.00000000000E+00 -0.00000000000E+00 -0.12667417535E+02  0.12746759078E+02  0.14200000000E+01 0. -1.
         11    1    1    2    0    0  0.93071941925E+02 -0.28817515098E+02  0.41229331179E+03  0.42364915968E+03  0.51100000000E-03 0. -1.
         22    1    1    2    0    0  0.12287384411E+02 -0.85626424638E+01  0.45923095946E+02  0.48303513360E+02  0.00000000000E+00 0. -1.
         -4    1    1    2    0  501 -0.10535932634E+03  0.37380157561E+02  0.52935436331E+03  0.54103227462E+03  0.14200000000E+01 0. -1.
<mgrwt>
<rscale>  0 0.11180286E+03</rscale>
<asrwt>0</asrwt>
<pdfrwt beam="1">  1       11 0.10000000E+01 0.11303561E+03</pdfrwt>
<pdfrwt beam="2">  1       -4 0.19554798E-02 0.11180286E+03</pdfrwt>
<totfact> 0.40279241E+03</totfact>
</mgrwt>
</event>
<event>
 5    1  0.1490736E-003  0.2564031E+03  0.7818608E-02  0.1202664E+00
         11   -1    0    0    0    0  0.00000000000E+00  0.00000000000E+00  0.10003620259E+04  0.10003620259E+04  0.51100000000E-03 0. -1.
          4   -1    0    0  501    0 -0.00000000000E+00 -0.00000000000E+00 -0.10835739238E+03  0.10836669637E+03  0.14200000000E+01 0. -1.
         11    1    1    2    0    0 -0.16976284464E+03  0.23982455715E+03  0.27941046382E+03  0.40546941799E+03  0.51100000000E-03 0. -1.
         22    1    1    2    0    0  0.84901368158E+02 -0.11621349539E+02  0.78188009974E+02  0.11600285765E+03  0.00000000000E+00 0. -1.
          4    1    1    2  501    0  0.84861476483E+02 -0.22820320761E+03  0.53440615978E+03  0.58725644668E+03  0.14200000000E+01 0. -1.
<mgrwt>
<rscale>  0 0.14823052E+03</rscale>
<asrwt>0</asrwt>
<pdfrwt beam="1">  1       11 0.10000000E+01 0.25640308E+03</pdfrwt>
<pdfrwt beam="2">  1        4 0.16677196E-01 0.14823052E+03</pdfrwt>
<totfact> 0.12797935E+02</totfact>
</mgrwt>
</event>
<event>
 5    1  0.1490736E-003  0.2951442E+02  0.7818608E-02  0.1603519E+00
         11   -1    0    0    0    0  0.00000000000E+00  0.00000000000E+00  0.10002187572E+04  0.10002187572E+04  0.51100000000E-03 0.  1.
          4   -1    0    0  501    0 -0.00000000000E+00 -0.00000000000E+00 -0.22424156555E+01  0.26542094816E+01  0.14200000000E+01 0.  1.
         11    1    1    2    0    0  0.35343408976E+01 -0.14497789592E+02  0.64557636219E+02  0.66259835972E+02  0.51100000000E-03 0.  1.
         22    1    1    2    0    0  0.11904192597E+02  0.29383308042E+02  0.17238582457E+03  0.17527681280E+03  0.00000000000E+00 0.  1.
          4    1    1    2  501    0 -0.15438533494E+02 -0.14885518450E+02  0.76103288076E+03  0.76133631791E+03  0.14200000000E+01 0.  1.
<mgrwt>
<rscale>  0 0.29514423E+02</rscale>
<asrwt>0</asrwt>
<pdfrwt beam="1">  1       11 0.10000000E+01 0.14922389E+02</pdfrwt>
<pdfrwt beam="2">  1        4 0.37682341E-03 0.29514423E+02</pdfrwt>
<totfact> 0.31445474E+04</totfact>
</mgrwt>
</event>
<event>
 5    1  0.1490736E-003  0.7679370E+02  0.7818608E-02  0.1338405E+00
         11   -1    0    0    0    0  0.00000000000E+00  0.00000000000E+00  0.10003388553E+04  0.10003388553E+04  0.51100000000E-03 0. -1.
          4   -1    0    0  501    0 -0.00000000000E+00 -0.00000000000E+00 -0.78229368341E+02  0.78242255023E+02  0.14200000000E+01 0. -1.
         11    1    1    2    0    0 -0.37658574842E+02  0.18768941315E+02  0.13407226680E+03  0.14051979982E+03  0.51100000000E-03 0. -1.
         22    1    1    2    0    0  0.28147269022E+02 -0.72224712935E+02 -0.53874889386E+02  0.94399055177E+02  0.00000000000E+00 0. -1.
          4    1    1    2  501    0  0.95113058195E+01  0.53455771620E+02  0.84191210955E+03  0.84366225533E+03  0.14200000000E+01 0. -1.
<mgrwt>
<rscale>  0 0.76793697E+02</rscale>
<asrwt>0</asrwt>
<pdfrwt beam="1">  1       11 0.10000000E+01 0.42076614E+02</pdfrwt>
<pdfrwt beam="2">  1        4 0.12040434E-01 0.76793697E+02</pdfrwt>
<totfact> 0.20671803E+02</totfact>
</mgrwt>
</event>
<event>
 5    1  0.1490736E-003  0.1875677E+03  0.7818608E-02  0.1166885E+00
         11   -1    0    0    0    0  0.00000000000E+00  0.00000000000E+00  0.10001174068E+04  0.10001174068E+04  0.51100000000E-03 0. -1.
          4   -1    0    0  501    0 -0.00000000000E+00 -0.00000000000E+00 -0.37958671255E+02  0.37985222435E+02  0.14200000000E+01 0. -1.
         11    1    1    2    0    0 -0.23719010026E+02 -0.14030630622E+03  0.50689410243E+03  0.52648844440E+03  0.51100000000E-03 0. -1.
         22    1    1    2    0    0  0.19875469190E+02 -0.40599505478E+02  0.15086457521E+03  0.15749118761E+03  0.00000000000E+00 0.  1.
          4    1    1    2  501    0  0.38435408365E+01  0.18090581170E+03  0.30440005785E+03  0.35412299718E+03  0.14200000000E+01 0. -1.
<mgrwt>
<rscale>  0 0.18095221E+03</rscale>
<asrwt>0</asrwt>
<pdfrwt beam="1">  1       11 0.10000000E+01 0.18756775E+03</pdfrwt>
<pdfrwt beam="2">  1        4 0.58426012E-02 0.18095221E+03</pdfrwt>
<totfact> 0.77416583E+02</totfact>
</mgrwt>
</event>
<event>
 5    1  0.1490736E-003  0.4268088E+02  0.7818608E-02  0.1496911E+00
         11   -1    0    0    0    0  0.00000000000E+00  0.00000000000E+00  0.10000907187E+04  0.10000907187E+04  0.51100000000E-03 0. -1.
          4   -1    0    0  501    0 -0.00000000000E+00 -0.00000000000E+00 -0.26212424900E+01  0.29811595380E+01  0.14200000000E+01 0. -1.
         11    1    1    2    0    0 -0.27378585500E+02  0.11388842188E+02  0.13369435244E+03  0.13694331873E+03  0.51100000000E-03 0. -1.
         22    1    1    2    0    0 -0.82328612888E+01  0.10024470342E+02  0.65543333060E+02  0.66814657967E+02  0.00000000000E+00 0.  1.
          4    1    1    2  501    0  0.35611446789E+02 -0.21413312530E+02  0.79823179071E+03  0.79931390154E+03  0.14200000000E+01 0. -1.
<mgrwt>
<rscale>  0 0.41577897E+02</rscale>
<asrwt>0</asrwt>
<pdfrwt beam="1">  1       11 0.10000000E+01 0.42680883E+02</pdfrwt>
<pdfrwt beam="2">  1        4 0.43107064E-03 0.41577897E+02</pdfrwt>
<totfact> 0.29322017E+04</totfact>
</mgrwt>
</event>
<event>
 5    1  0.1490736E-003  0.1153518E+03  0.7818608E-02  0.1255170E+00
         11   -1    0    0    0    0  0.00000000000E+00  0.00000000000E+00  0.10000715901E+04  0.10000715901E+04  0.51100000000E-03 0. -1.
          4   -1    0    0  501    0 -0.00000000000E+00 -0.00000000000E+00 -0.13169887983E+02  0.13246220196E+02  0.14200000000E+01 0. -1.
         11    1    1    2    0    0 -0.56470212784E+02  0.85365913342E+01  0.24797031920E+03  0.25446225167E+03  0.51100000000E-03 0. -1.
         22    1    1    2    0    0 -0.56448421900E+02 -0.11574344688E+02  0.30920407092E+03  0.31452749842E+03  0.00000000000E+00 0. -1.
          4    1    1    2  501    0  0.11291863468E+03  0.30377533534E+01  0.42972731199E+03  0.44432806020E+03  0.14200000000E+01 0. -1.
<mgrwt>
<rscale>  0 0.11296841E+03</rscale>
<asrwt>0</asrwt>
<pdfrwt beam="1">  1       11 0.10000000E+01 0.11535179E+03</pdfrwt>
<pdfrwt beam="2">  1        4 0.20322313E-02 0.11296841E+03</pdfrwt>
<totfact> 0.38044708E+03</totfact>
</mgrwt>
</event>
<event>
 5    1  0.1490736E-003  0.1434571E+03  0.7818608E-02  0.1212935E+00
         11   -1    0    0    0    0  0.00000000000E+00  0.00000000000E+00  0.10000612503E+04  0.10000612503E+04  0.51100000000E-03 0. -1.
          4   -1    0    0  501    0 -0.00000000000E+00 -0.00000000000E+00 -0.21299089075E+02  0.21346371950E+02  0.14200000000E+01 0. -1.
         11    1    1    2    0    0  0.71927390130E+01 -0.22703488311E+02  0.75295962638E+02  0.78972564007E+02  0.51100000000E-03 0. -1.
         22    1    1    2    0    0  0.80587019550E+02 -0.86726264985E+02  0.54017482267E+03  0.55299597811E+03  0.00000000000E+00 0. -1.
          4    1    1    2  501    0 -0.87779758563E+02  0.10942975330E+03  0.36329137591E+03  0.38943908013E+03  0.14200000000E+01 0. -1.
<mgrwt>
<rscale>  0 0.14029317E+03</rscale>
<asrwt>0</asrwt>
<pdfrwt beam="1">  1       11 0.10000000E+01 0.14345714E+03</pdfrwt>
<pdfrwt beam="2">  1        4 0.32806985E-02 0.14029317E+03</pdfrwt>
<totfact> 0.18784879E+03</totfact>
</mgrwt>
</event>
<event>
 5    1  0.1490736E-003  0.4107709E+02  0.7818608E-02  0.1509119E+00
         11   -1    0    0    0    0  0.00000000000E+00  0.00000000000E+00  0.10000629743E+04  0.10000629743E+04  0.51100000000E-03 0.  1.
          4   -1    0    0  501    0 -0.00000000000E+00 -0.00000000000E+00 -0.29543381448E+01  0.32778825290E+01  0.14200000000E+01 0.  1.
         11    1    1    2    0    0  0.94628019473E+01  0.29220545626E+02  0.12515112770E+03  0.12886500561E+03  0.51100000000E-03 0.  1.
         22    1    1    2    0    0  0.74329950763E+01  0.68721264906E+01  0.31796766487E+02  0.33369295727E+02  0.00000000000E+00 0. -1.
          4    1    1    2  501    0 -0.16895797024E+02 -0.36092672117E+02  0.84016074198E+03  0.84110655550E+03  0.14200000000E+01 0.  1.
<mgrwt>
<rscale>  0 0.39876877E+02</rscale>
<asrwt>0</asrwt>
<pdfrwt beam="1">  1       11 0.10000000E+01 0.41077087E+02</pdfrwt>
<pdfrwt beam="2">  1        4 0.47950932E-03 0.39876877E+02</pdfrwt>
<totfact> 0.24816722E+04</totfact>
</mgrwt>
</event>
<event>
 5    1  0.1490736E-003  0.1051941E+03  0.7818608E-02  0.1289812E+00
         11   -1    0    0    0    0  0.00000000000E+00  0.00000000000E+00  0.10003430239E+04  0.10003430239E+04  0.51100000000E-03 0.  1.
          4   -1    0    0  501    0 -0.00000000000E+00 -0.00000000000E+00 -0.37982099964E+02  0.38008634778E+02  0.14200000000E+01 0.  1.
         11    1    1    2    0    0 -0.55822542081E+02  0.59225494208E+01  0.17866282824E+02  0.58910413835E+02  0.51100000000E-03 0.  1.
         22    1    1    2    0    0 -0.28199950203E+02  0.39675405784E+02  0.24504160662E+02  0.54496136609E+02  0.00000000000E+00 0. -1.
          4    1    1    2  501    0  0.84022492284E+02 -0.45597955204E+02  0.91999048042E+03  0.92494510820E+03  0.14200000000E+01 0.  1.
<mgrwt>
<rscale>  0 0.95608416E+02</rscale>
<asrwt>0</asrwt>
<pdfrwt beam="1">  1       11 0.10000000E+01 0.10519406E+03</pdfrwt>
<pdfrwt beam="2">  1        4 0.58475236E-02 0.95608416E+02</pdfrwt>
<totfact> 0.70301120E+02</totfact>
</mgrwt>
</event>
<event>
 5    1  0.1490736E-003  0.1871429E+03  0.7818608E-02  0.1176353E+00
         11   -1    0    0    0    0  0.00000000000E+00  0.00000000000E+00  0.10002657798E+04  0.10002657798E+04  0.51100000000E-03 0. -1.
         -4   -1    0    0    0  501 -0.00000000000E+00 -0.00000000000E+00 -0.45013926076E+02  0.45036318020E+02  0.14200000000E+01 0. -1.
         11    1    1    2    0    0 -0.52410287209E+02  0.85837053614E+02  0.59936323904E+03  0.60774265137E+03  0.51100000000E-03 0. -1.
         22    1    1    2    0    0 -0.37810668871E+02  0.59937410052E+02  0.17262919043E+03  0.18660915624E+03  0.00000000000E+00 0.  1.
         -4    1    1    2    0  501  0.90220956080E+02 -0.14577446367E+03  0.18325942421E+03  0.25095029017E+03  0.14200000000E+01 0. -1.
<mgrwt>
<rscale>  0 0.17144104E+03</rscale>
<asrwt>0</asrwt>
<pdfrwt beam="1">  1       11 0.10000000E+01 0.18714295E+03</pdfrwt>
<pdfrwt beam="2">  1       -4 0.69288602E-02 0.17144104E+03</pdfrwt>
<totfact> 0.58111329E+02</totfact>
</mgrwt>
</event>
<event>
 5    1  0.1490736E-003  0.1689341E+03  0.7818608E-02  0.1275463E+00
         11   -1    0    0    0    0  0.00000000000E+00  0.00000000000E+00  0.10003794832E+04  0.10003794832E+04  0.51100000000E-03 0. -1.
          4   -1    0    0  501    0 -0.00000000000E+00 -0.00000000000E+00 -0.13805452476E+03  0.13806182748E+03  0.14200000000E+01 0. -1.
         11    1    1    2    0    0  0.49673660777E+02 -0.18676930914E+03  0.86346133159E+03  0.88482524747E+03  0.51100000000E-03 0. -1.
         22    1    1    2    0    0 -0.66492403550E+02  0.85836812443E+02  0.69819525445E+02  0.12908897797E+03  0.00000000000E+00 0. -1.
          4    1    1    2  501    0  0.16818742774E+02  0.10093249669E+03 -0.70955898633E+02  0.12452708520E+03  0.14200000000E+01 0. -1.
<mgrwt>
<rscale>  0 0.10233404E+03</rscale>
<asrwt>0</asrwt>
<pdfrwt beam="1">  1       11 0.10000000E+01 0.16893413E+03</pdfrwt>
<pdfrwt beam="2">  1        4 0.21247856E-01 0.10233404E+03</pdfrwt>
<totfact> 0.79793885E+01</totfact>
</mgrwt>
</event>
<event>
 5    1  0.1490736E-003  0.1225460E+03  0.7818608E-02  0.1238955E+00
         11   -1    0    0    0    0  0.00000000000E+00  0.00000000000E+00  0.10003181083E+04  0.10003181083E+04  0.51100000000E-03 0.  1.
         -4   -1    0    0    0  501 -0.00000000000E+00 -0.00000000000E+00 -0.26998645790E+02  0.27035962615E+02  0.14200000000E+01 0. -1.
         11    1    1    2    0    0 -0.12513059198E+03 -0.84412450787E+00  0.72954059301E+03  0.74019447069E+03  0.51100000000E-03 0.  1.
         22    1    1    2    0    0  0.39728048927E+01  0.16148158979E+02  0.86225147632E+02  0.87814134975E+02  0.00000000000E+00 0. -1.
         -4    1    1    2    0  501  0.12115778709E+03 -0.15304034472E+02  0.15755372189E+03  0.19934546527E+03  0.14200000000E+01 0. -1.
<mgrwt>
<rscale>  0 0.12254595E+03</rscale>
<asrwt>0</asrwt>
<pdfrwt beam="1">  1       11 0.10000000E+01 0.16629679E+02</pdfrwt>
<pdfrwt beam="2">  1       -4 0.41579080E-02 0.12254595E+03</pdfrwt>
<totfact> 0.12631934E+03</totfact>
</mgrwt>
</event>
<event>
 5    1  0.1490736E-003  0.1347892E+03  0.7818608E-02  0.1224467E+00
         11   -1    0    0    0    0  0.00000000000E+00  0.00000000000E+00  0.10002339117E+04  0.10002339117E+04  0.51100000000E-03 0. -1.
          4   -1    0    0  501    0 -0.00000000000E+00 -0.00000000000E+00 -0.20567239156E+02  0.20616200583E+02  0.14200000000E+01 0. -1.
         11    1    1    2    0    0  0.62065273749E+02  0.38105122884E+02  0.19533908849E+03  0.20847411851E+03  0.51100000000E-03 0. -1.
         22    1    1    2    0    0  0.42807214523E+02  0.42100685344E+02  0.11073541578E+03  0.12596530328E+03  0.00000000000E+00 0. -1.
          4    1    1    2  501    0 -0.10487248827E+03 -0.80205808228E+02  0.67359216831E+03  0.68641069053E+03  0.14200000000E+01 0. -1.
<mgrwt>
<rscale>  0 0.13203495E+03</rscale>
<asrwt>0</asrwt>
<pdfrwt beam="1">  1       11 0.10000000E+01 0.13478919E+03</pdfrwt>
<pdfrwt beam="2">  1        4 0.31687754E-02 0.13203495E+03</pdfrwt>
<totfact> 0.19640025E+03</totfact>
</mgrwt>
</event>
<event>
 5    1  0.1490736E-003  0.1767684E+03  0.7818608E-02  0.1175937E+00
         11   -1    0    0    0    0  0.00000000000E+00  0.00000000000E+00  0.99971598529E+03  0.99971598529E+03  0.51100000000E-03 0.  1.
          4   -1    0    0  501    0 -0.00000000000E+00 -0.00000000000E+00 -0.95639415355E+02  0.95649956453E+02  0.14200000000E+01 0.  1.
         11    1    1    2    0    0 -0.13792581668E+03  0.31051984975E+02  0.78571171101E+03  0.79832991269E+03  0.51100000000E-03 0.  1.
         22    1    1    2    0    0 -0.25999716204E+02  0.20494782942E+02  0.12071771833E+03  0.12517503301E+03  0.00000000000E+00 0.  1.
          4    1    1    2  501    0  0.16392553288E+03 -0.51546767918E+02 -0.23528594060E+01  0.17186099604E+03  0.14200000000E+01 0.  1.
<mgrwt>
<rscale>  0 0.17184489E+03</rscale>
<asrwt>0</asrwt>
<pdfrwt beam="1">  1       11 0.10000000E+01 0.17676842E+03</pdfrwt>
<pdfrwt beam="2">  1        4 0.14710465E-01 0.17184489E+03</pdfrwt>
<totfact> 0.16210889E+02</totfact>
</mgrwt>
</event>
<event>
 5    1  0.1490736E-003  0.1629942E+03  0.7818608E-02  0.1185357E+00
         11   -1    0    0    0    0  0.00000000000E+00  0.00000000000E+00  0.99996075522E+03  0.99996075522E+03  0.51100000000E-03 0.  1.
         -4   -1    0    0    0  501 -0.00000000000E+00 -0.00000000000E+00 -0.92180398522E+02  0.92191335123E+02  0.14200000000E+01 0. -1.
         11    1    1    2    0    0  0.45638047779E+02  0.15051105148E+03  0.78530551375E+03  0.80090021722E+03  0.51100000000E-03 0.  1.
         22    1    1    2    0    0 -0.17896759599E+02  0.10797663519E+02  0.12581051444E+03  0.12753497201E+03  0.00000000000E+00 0. -1.
         -4    1    1    2    0  501 -0.27741288180E+02 -0.16130871500E+03 -0.33356714897E+01  0.16371690111E+03  0.14200000000E+01 0. -1.
<mgrwt>
<rscale>  0 0.16299416E+03</rscale>
<asrwt>0</asrwt>
<pdfrwt beam="1">  1       11 0.10000000E+01 0.20901759E+02</pdfrwt>
<pdfrwt beam="2">  1       -4 0.14181962E-01 0.16299416E+03</pdfrwt>
<totfact> 0.17184958E+02</totfact>
</mgrwt>
</event>
<event>
 5    1  0.1490736E-003  0.1149750E+03  0.7818608E-02  0.1651342E+00
         11   -1    0    0    0    0  0.00000000000E+00  0.00000000000E+00  0.10002688987E+04  0.10002688987E+04  0.51100000000E-03 0.  1.
         -4   -1    0    0    0  501 -0.00000000000E+00 -0.00000000000E+00 -0.73295959682E+02  0.73309713584E+02  0.14200000000E+01 0.  1.
         11    1    1    2    0    0  0.11742447262E+03 -0.47378833017E+02  0.51823073437E+03  0.53347573013E+03  0.51100000000E-03 0.  1.
         22    1    1    2    0    0 -0.92328185957E+02  0.52662981339E+02  0.46567097788E+03  0.47764771869E+03  0.00000000000E+00 0.  1.
         -4    1    1    2    0  501 -0.25096286663E+02 -0.52841483224E+01 -0.56928773211E+02  0.62455163494E+02  0.14200000000E+01 0.  1.
<mgrwt>
<rscale>  0 0.25685837E+02</rscale>
<asrwt>0</asrwt>
<pdfrwt beam="1">  1       11 0.10000000E+01 0.11497495E+03</pdfrwt>
<pdfrwt beam="2">  1       -4 0.11280469E-01 0.25685837E+02</pdfrwt>
<totfact> 0.18674319E+02</totfact>
</mgrwt>
</event>
<event>
 5    1  0.1490736E-003  0.2787375E+03  0.7818608E-02  0.1097745E+00
         11   -1    0    0    0    0  0.00000000000E+00  0.00000000000E+00  0.10005140642E+04  0.10005140642E+04  0.51100000000E-03 0.  1.
         -4   -1    0    0    0  501 -0.00000000000E+00 -0.00000000000E+00 -0.11894387761E+03  0.11895235358E+03  0.14200000000E+01 0. -1.
         11    1    1    2    0    0  0.21312391509E+03  0.11994051159E+03  0.67428173315E+03  0.71726103000E+03  0.51100000000E-03 0.  1.
         22    1    1    2    0    0  0.20771745945E+02  0.27077974181E+02  0.10029670425E+03  0.10594390496E+03  0.00000000000E+00 0. -1.
         -4    1    1    2    0  501 -0.23389566103E+03 -0.14701848577E+03  0.10699174920E+03  0.29626148282E+03  0.14200000000E+01 0. -1.
<mgrwt>
<rscale>  0 0.27626732E+03</rscale>
<asrwt>0</asrwt>
<pdfrwt beam="1">  1       11 0.10000000E+01 0.27873753E+03</pdfrwt>
<pdfrwt beam="2">  1       -4 0.18309194E-01 0.27626732E+03</pdfrwt>
<totfact> 0.11482786E+02</totfact>
</mgrwt>
</event>
<event>
 5    1  0.1490736E-003  0.2382080E+03  0.7818608E-02  0.1120992E+00
         11   -1    0    0    0    0  0.00000000000E+00  0.00000000000E+00  0.10001213353E+04  0.10001213353E+04  0.51100000000E-03 0.  1.
          4   -1    0    0  501    0 -0.00000000000E+00 -0.00000000000E+00 -0.11184971059E+03  0.11185872411E+03  0.14200000000E+01 0.  1.
         11    1    1    2    0    0  0.13175750055E+03 -0.16114088457E+03  0.20715890198E+03  0.29366857901E+03  0.51100000000E-03 0.  1.
         22    1    1    2    0    0  0.72984639007E+02 -0.21330400672E+02  0.45938542636E+03  0.46563581635E+03  0.00000000000E+00 0.  1.
          4    1    1    2  501    0 -0.20474213955E+03  0.18247128524E+03  0.22172729637E+03  0.35267566404E+03  0.14200000000E+01 0.  1.
<mgrwt>
<rscale>  0 0.23820803E+03</rscale>
<asrwt>0</asrwt>
<pdfrwt beam="1">  1       11 0.10000000E+01 0.76037777E+02</pdfrwt>
<pdfrwt beam="2">  1        4 0.17210506E-01 0.23820803E+03</pdfrwt>
<totfact> 0.12672739E+02</totfact>
</mgrwt>
</event>
<event>
 5    1  0.1490736E-003  0.8235593E+02  0.7818608E-02  0.1628865E+00
         11   -1    0    0    0    0  0.00000000000E+00  0.00000000000E+00  0.10000934749E+04  0.10000934749E+04  0.51100000000E-03 0. -1.
          4   -1    0    0  501    0 -0.00000000000E+00 -0.00000000000E+00 -0.12674360199E+02  0.12753658552E+02  0.14200000000E+01 0. -1.
         11    1    1    2    0    0 -0.45340031755E+02  0.74306004951E+02  0.26364549542E+03  0.27764374314E+03  0.51100000000E-03 0. -1.
         22    1    1    2    0    0  0.18317663353E+02 -0.78550081612E+02  0.30339552017E+03  0.31393390032E+03  0.00000000000E+00 0. -1.
          4    1    1    2  501    0  0.27022368402E+02  0.42440766612E+01  0.42037809909E+03  0.42126948996E+03  0.14200000000E+01 0. -1.
<mgrwt>
<rscale>  0 0.27390454E+02</rscale>
<asrwt>0</asrwt>
<pdfrwt beam="1">  1       11 0.10000000E+01 0.82355929E+02</pdfrwt>
<pdfrwt beam="2">  1        4 0.19562618E-02 0.27390454E+02</pdfrwt>
<totfact> 0.28333752E+03</totfact>
</mgrwt>
</event>
<event>
 5    1  0.2074246E-003  0.1806731E+03  0.7818608E-02  0.1168529E+00
         11   -1    0    0    0    0  0.00000000000E+00  0.00000000000E+00  0.10001030772E+04  0.10001030772E+04  0.51100000000E-03 0. -1.
          4   -1    0    0  501    0 -0.00000000000E+00 -0.00000000000E+00 -0.11850424353E+03  0.11851275094E+03  0.14200000000E+01 0.  1.
         11    1    1    2    0    0 -0.16469179167E+03  0.32255179447E+02  0.87228137815E+03  0.88827843918E+03  0.51100000000E-03 0. -1.
         22    1    1    2    0    0 -0.12036192567E+02 -0.23162533917E+01  0.45799234667E+02  0.47411020421E+02  0.00000000000E+00 0. -1.
          4    1    1    2  501    0  0.17672798424E+03 -0.29938926055E+02 -0.36481779124E+02  0.18292636856E+03  0.14200000000E+01 0.  1.
<mgrwt>
<rscale>  0 0.17925160E+03</rscale>
<asrwt>0</asrwt>
<pdfrwt beam="1">  1       11 0.10000000E+01 0.18067306E+03</pdfrwt>
<pdfrwt beam="2">  1        4 0.18234033E-01 0.17925160E+03</pdfrwt>
<totfact> 0.11130783E+02</totfact>
</mgrwt>
</event>
<event>
 5    1  0.1490736E-003  0.1143095E+03  0.7818608E-02  0.1266068E+00
         11   -1    0    0    0    0  0.00000000000E+00  0.00000000000E+00  0.10002305821E+04  0.10002305821E+04  0.51100000000E-03 0.  1.
          4   -1    0    0  501    0 -0.00000000000E+00 -0.00000000000E+00 -0.12869369204E+02  0.12947473256E+02  0.14200000000E+01 0.  1.
         11    1    1    2    0    0  0.74322442907E+02  0.69985271870E+01  0.22702138037E+03  0.23898014991E+03  0.51100000000E-03 0.  1.
         22    1    1    2    0    0  0.31859785766E+02 -0.20788828811E+02  0.16763206961E+03  0.17189453776E+03  0.00000000000E+00 0.  1.
          4    1    1    2  501    0 -0.10618222867E+03  0.13790301624E+02  0.59270776291E+03  0.60230336768E+03  0.14200000000E+01 0.  1.
<mgrwt>
<rscale>  0 0.10708340E+03</rscale>
<asrwt>0</asrwt>
<pdfrwt beam="1">  1       11 0.10000000E+01 0.11430951E+03</pdfrwt>
<pdfrwt beam="2">  1        4 0.19864464E-02 0.10708340E+03</pdfrwt>
<totfact> 0.38990733E+03</totfact>
</mgrwt>
</event>
<event>
 5    1  0.1490736E-003  0.5829489E+02  0.7818608E-02  0.1405130E+00
         11   -1    0    0    0    0  0.00000000000E+00  0.00000000000E+00  0.10001251848E+04  0.10001251848E+04  0.51100000000E-03 0. -1.
          4   -1    0    0  501    0 -0.00000000000E+00 -0.00000000000E+00 -0.57712076487E+01  0.59433355723E+01  0.14200000000E+01 0. -1.
         11    1    1    2    0    0  0.27497974309E+01  0.96414772230E+01  0.29210375165E+02  0.30883093862E+02  0.51100000000E-03 0. -1.
         22    1    1    2    0    0  0.57227355271E+02  0.49286325853E+01  0.21615090667E+03  0.22365257893E+03  0.00000000000E+00 0. -1.
          4    1    1    2  501    0 -0.59977152702E+02 -0.14570109808E+02  0.74899269531E+03  0.75153284757E+03  0.14200000000E+01 0. -1.
<mgrwt>
<rscale>  0 0.58294893E+02</rscale>
<asrwt>0</asrwt>
<pdfrwt beam="1">  1       11 0.10000000E+01 0.10025945E+02</pdfrwt>
<pdfrwt beam="2">  1        4 0.90130904E-03 0.58294893E+02</pdfrwt>
<totfact> 0.11101860E+04</totfact>
</mgrwt>
</event>
<event>
 5    1  0.1490736E-003  0.8825310E+02  0.7818608E-02  0.1322784E+00
         11   -1    0    0    0    0  0.00000000000E+00  0.00000000000E+00  0.10001205413E+04  0.10001205413E+04  0.51100000000E-03 0. -1.
         -4   -1    0    0    0  501 -0.00000000000E+00 -0.00000000000E+00 -0.12637652959E+02  0.12717180203E+02  0.14200000000E+01 0. -1.
         11    1    1    2    0    0  0.16695811157E+02 -0.70827177363E+02  0.13683682259E+03  0.15498243507E+03  0.51100000000E-03 0. -1.
         22    1    1    2    0    0 -0.10318693822E+02 -0.11163257492E+02  0.36142703850E+02  0.39209549878E+02  0.00000000000E+00 0. -1.
         -4    1    1    2    0  501 -0.63771173352E+01  0.81990434856E+02  0.81450336194E+03  0.81864573660E+03  0.14200000000E+01 0. -1.
<mgrwt>
<rscale>  0 0.82250322E+02</rscale>
<asrwt>0</asrwt>
<pdfrwt beam="1">  1       11 0.10000000E+01 0.88253104E+02</pdfrwt>
<pdfrwt beam="2">  1       -4 0.19506844E-02 0.82250322E+02</pdfrwt>
<totfact> 0.37974071E+03</totfact>
</mgrwt>
</event>
<event>
 5    1  0.1490736E-003  0.5369430E+02  0.7818608E-02  0.1426376E+00
         11   -1    0    0    0    0  0.00000000000E+00  0.00000000000E+00  0.10003635188E+04  0.10003635188E+04  0.51100000000E-03 0. -1.
          4   -1    0    0  501    0 -0.00000000000E+00 -0.00000000000E+00 -0.54252886950E+01  0.56080439927E+01  0.14200000000E+01 0. -1.
         11    1    1    2    0    0 -0.11410278598E+02 -0.18384409033E+02  0.64565451468E+02  0.68094628839E+02  0.51100000000E-03 0. -1.
         22    1    1    2    0    0 -0.26565169735E+01  0.58972541484E+02  0.28365865923E+03  0.28973617773E+03  0.00000000000E+00 0. -1.
          4    1    1    2  501    0  0.14066795572E+02 -0.40588132451E+02  0.64671411938E+03  0.64814075619E+03  0.14200000000E+01 0. -1.
<mgrwt>
<rscale>  0 0.53694301E+02</rscale>
<asrwt>0</asrwt>
<pdfrwt beam="1">  1       11 0.10000000E+01 0.21637500E+02</pdfrwt>
<pdfrwt beam="2">  1        4 0.84910395E-03 0.53694301E+02</pdfrwt>
<totfact> 0.11850394E+04</totfact>
</mgrwt>
</event>
<event>
 5    1  0.1490736E-003  0.1479795E+03  0.7818608E-02  0.1209124E+00
         11   -1    0    0    0    0  0.00000000000E+00  0.00000000000E+00  0.10004124442E+04  0.10004124442E+04  0.51100000000E-03 0. -1.
          4   -1    0    0  501    0 -0.00000000000E+00 -0.00000000000E+00 -0.22046314554E+02  0.22091998222E+02  0.14200000000E+01 0. -1.
         11    1    1    2    0    0  0.58116358033E+02 -0.12270128864E+03  0.35085946759E+03  0.37621201908E+03  0.51100000000E-03 0. -1.
         22    1    1    2    0    0 -0.51173836415E+01 -0.10291886497E+02  0.43644748973E+02  0.45132855615E+02  0.00000000000E+00 0.  1.
          4    1    1    2  501    0 -0.52998974391E+02  0.13299317513E+03  0.58386191310E+03  0.60115956775E+03  0.14200000000E+01 0. -1.
<mgrwt>
<rscale>  0 0.14317155E+03</rscale>
<asrwt>0</asrwt>
<pdfrwt beam="1">  1       11 0.10000000E+01 0.14797948E+03</pdfrwt>
<pdfrwt beam="2">  1        4 0.33967326E-02 0.14317155E+03</pdfrwt>
<totfact> 0.17842712E+03</totfact>
</mgrwt>
</event>
<event>
 5    1  0.1490736E-003  0.2157614E+03  0.7818608E-02  0.1144229E+00
         11   -1    0    0    0    0  0.00000000000E+00  0.00000000000E+00  0.10001026248E+04  0.10001026248E+04  0.51100000000E-03 0. -1.
         -4   -1    0    0    0  501 -0.00000000000E+00 -0.00000000000E+00 -0.89783662513E+02  0.89794891025E+02  0.14200000000E+01 0. -1.
         11    1    1    2    0    0 -0.24175537046E+02  0.35273440199E+02  0.16797076216E+03  0.17332873136E+03  0.51100000000E-03 0. -1.
         22    1    1    2    0    0  0.23518310973E+02  0.17139236924E+03  0.67857666739E+03  0.70028190659E+03  0.00000000000E+00 0. -1.
         -4    1    1    2    0  501  0.65722607354E+00 -0.20666580944E+03  0.63771532699E+02  0.21628687782E+03  0.14200000000E+01 0. -1.
<mgrwt>
<rscale>  0 0.20667173E+03</rscale>
<asrwt>0</asrwt>
<pdfrwt beam="1">  1       11 0.10000000E+01 0.21576143E+03</pdfrwt>
<pdfrwt beam="2">  1       -4 0.13815230E-01 0.20667173E+03</pdfrwt>
<totfact> 0.18440081E+02</totfact>
</mgrwt>
</event>
<event>
 5    1  0.1490736E-003  0.5532744E+02  0.7818608E-02  0.1605875E+00
         11   -1    0    0    0    0  0.00000000000E+00  0.00000000000E+00  0.10002611096E+04  0.10002611096E+04  0.51100000000E-03 0.  1.
          4   -1    0    0  501    0 -0.00000000000E+00 -0.00000000000E+00 -0.48247770057E+01  0.50294008743E+01  0.14200000000E+01 0.  1.
         11    1    1    2    0    0  0.11603694638E+02 -0.59831656673E+02  0.34899490729E+03  0.35427661253E+03  0.51100000000E-03 0.  1.
         22    1    1    2    0    0 -0.14047774339E+02  0.65956993533E+01  0.54203826358E+02  0.56381716945E+02  0.00000000000E+00 0. -1.
          4    1    1    2  501    0  0.24440797011E+01  0.53235957319E+02  0.59223759899E+03  0.59463218104E+03  0.14200000000E+01 0.  1.
<mgrwt>
<rscale>  0 0.29307263E+02</rscale>
<asrwt>0</asrwt>
<pdfrwt beam="1">  1       11 0.10000000E+01 0.55327437E+02</pdfrwt>
<pdfrwt beam="2">  1        4 0.75828914E-03 0.29307263E+02</pdfrwt>
<totfact> 0.11547618E+04</totfact>
</mgrwt>
</event>
<event>
 5    1  0.1490736E-003  0.7398646E+02  0.7818608E-02  0.1347039E+00
         11   -1    0    0    0    0  0.00000000000E+00  0.00000000000E+00  0.10000474088E+04  0.10000474088E+04  0.51100000000E-03 0.  1.
          4   -1    0    0  501    0 -0.00000000000E+00 -0.00000000000E+00 -0.10676160773E+02  0.10770181468E+02  0.14200000000E+01 0. -1.
         11    1    1    2    0    0  0.18947002587E+02 -0.95226045181E+01  0.46376125443E+02  0.50994253747E+02  0.51100000000E-03 0.  1.
         22    1    1    2    0    0 -0.67018496421E+02 -0.36994651975E+02  0.20542771045E+03  0.21922734172E+03  0.00000000000E+00 0.  1.
          4    1    1    2  501    0  0.48071493834E+02  0.46517256494E+02  0.73756741212E+03  0.74059599479E+03  0.14200000000E+01 0. -1.
<mgrwt>
<rscale>  0 0.73986456E+02</rscale>
<asrwt>0</asrwt>
<pdfrwt beam="1">  1       11 0.10000000E+01 0.21205409E+02</pdfrwt>
<pdfrwt beam="2">  1        4 0.16498744E-02 0.73986456E+02</pdfrwt>
<totfact> 0.47819980E+03</totfact>
</mgrwt>
</event>
<event>
 5    1  0.1490736E-003  0.1852797E+03  0.7818608E-02  0.1170671E+00
         11   -1    0    0    0    0  0.00000000000E+00  0.00000000000E+00  0.10003029817E+04  0.10003029817E+04  0.51100000000E-03 0. -1.
          4   -1    0    0  501    0 -0.00000000000E+00 -0.00000000000E+00 -0.65135259681E+02  0.65150736402E+02  0.14200000000E+01 0.  1.
         11    1    1    2    0    0 -0.63897385593E+02  0.27003614391E+02  0.21695253600E+03  0.22777285605E+03  0.51100000000E-03 0. -1.
         22    1    1    2    0    0 -0.93256532490E+02  0.54567388305E+02  0.63121114631E+03  0.64039198305E+03  0.00000000000E+00 0. -1.
          4    1    1    2  501    0  0.15715391808E+03 -0.81571002696E+02  0.87004039681E+02  0.19728887898E+03  0.14200000000E+01 0.  1.
<mgrwt>
<rscale>  0 0.17706835E+03</rscale>
<asrwt>0</asrwt>
<pdfrwt beam="1">  1       11 0.10000000E+01 0.18527967E+03</pdfrwt>
<pdfrwt beam="2">  1        4 0.10025113E-01 0.17706835E+03</pdfrwt>
<totfact> 0.31476846E+02</totfact>
</mgrwt>
</event>
<event>
 5    1  0.1490736E-003  0.8824387E+02  0.7818608E-02  0.1307161E+00
         11   -1    0    0    0    0  0.00000000000E+00  0.00000000000E+00  0.10003795690E+04  0.10003795690E+04  0.51100000000E-03 0.  1.
          4   -1    0    0  501    0 -0.00000000000E+00 -0.00000000000E+00 -0.10582758374E+02  0.10677601548E+02  0.14200000000E+01 0.  1.
         11    1    1    2    0    0  0.13159867313E+02 -0.18905091930E+02  0.63441987360E+02  0.67494224709E+02  0.51100000000E-03 0.  1.
         22    1    1    2    0    0  0.66880404658E+02  0.58368092227E+02  0.40391317440E+03  0.41355250594E+03  0.00000000000E+00 0.  1.
          4    1    1    2  501    0 -0.80040271971E+02 -0.39463000297E+02  0.52244164885E+03  0.53001043988E+03  0.14200000000E+01 0.  1.
<mgrwt>
<rscale>  0 0.88243866E+02</rscale>
<asrwt>0</asrwt>
<pdfrwt beam="1">  1       11 0.10000000E+01 0.23034434E+02</pdfrwt>
<pdfrwt beam="2">  1        4 0.16361106E-02 0.88243866E+02</pdfrwt>
<totfact> 0.50357242E+03</totfact>
</mgrwt>
</event>
<event>
 5    1  0.1490736E-003  0.9095435E+02  0.7818608E-02  0.1356432E+00
         11   -1    0    0    0    0  0.00000000000E+00  0.00000000000E+00  0.10001662683E+04  0.10001662683E+04  0.51100000000E-03 0. -1.
          4   -1    0    0  501    0 -0.00000000000E+00 -0.00000000000E+00 -0.16292704998E+02  0.16354468385E+02  0.14200000000E+01 0. -1.
         11    1    1    2    0    0  0.35018375135E+02 -0.79200483368E+02  0.43575134715E+03  0.44427270871E+03  0.51100000000E-03 0. -1.
         22    1    1    2    0    0 -0.47547660399E+02 -0.28730869513E+02  0.19857866050E+03  0.20620312141E+03  0.00000000000E+00 0. -1.
          4    1    1    2  501    0  0.12529285264E+02  0.10793135288E+03  0.34954355564E+03  0.36604490656E+03  0.14200000000E+01 0. -1.
<mgrwt>
<rscale>  0 0.71087906E+02</rscale>
<asrwt>0</asrwt>
<pdfrwt beam="1">  1       11 0.10000000E+01 0.90954351E+02</pdfrwt>
<pdfrwt beam="2">  1        4 0.25118161E-02 0.71087906E+02</pdfrwt>
<totfact> 0.25014162E+03</totfact>
</mgrwt>
</event>
<event>
 5    1  0.1490736E-003  0.1397354E+03  0.7818608E-02  0.1213685E+00
         11   -1    0    0    0    0  0.00000000000E+00  0.00000000000E+00  0.10004897069E+04  0.10004897069E+04  0.51100000000E-03 0. -1.
          4   -1    0    0  501    0 -0.00000000000E+00 -0.00000000000E+00 -0.27049917905E+02  0.27087164094E+02  0.14200000000E+01 0. -1.
         11    1    1    2    0    0  0.57732292396E+02 -0.12585342295E+03  0.27251767612E+03  0.30567627558E+03  0.51100000000E-03 0. -1.
         22    1    1    2    0    0 -0.23743344514E+02 -0.13977883788E+02  0.14894994368E+03  0.15147677500E+03  0.00000000000E+00 0. -1.
          4    1    1    2  501    0 -0.33988947881E+02  0.13983130674E+03  0.55197216921E+03  0.57042382042E+03  0.14200000000E+01 0. -1.
<mgrwt>
<rscale>  0 0.13973538E+03</rscale>
<asrwt>0</asrwt>
<pdfrwt beam="1">  1       11 0.10000000E+01 0.27552271E+02</pdfrwt>
<pdfrwt beam="2">  1        4 0.41665077E-02 0.13973538E+03</pdfrwt>
<totfact> 0.12858677E+03</totfact>
</mgrwt>
</event>
<event>
 5    1  0.1490736E-003  0.1115849E+03  0.7818608E-02  0.1271199E+00
         11   -1    0    0    0    0  0.00000000000E+00  0.00000000000E+00  0.10002442322E+04  0.10002442322E+04  0.51100000000E-03 0. -1.
          4   -1    0    0  501    0 -0.00000000000E+00 -0.00000000000E+00 -0.13228207522E+02  0.13304205133E+02  0.14200000000E+01 0. -1.
         11    1    1    2    0    0 -0.65458725146E+02  0.51090366097E+02  0.23304756310E+03  0.24739894275E+03  0.51100000000E-03 0. -1.
         22    1    1    2    0    0 -0.27770241341E+02 -0.40055589225E+01  0.98801079307E+02  0.10270776056E+03  0.00000000000E+00 0. -1.
          4    1    1    2  501    0  0.93228966487E+02 -0.47084807174E+02  0.65516738229E+03  0.66344173405E+03  0.14200000000E+01 0. -1.
<mgrwt>
<rscale>  0 0.10445399E+03</rscale>
<asrwt>0</asrwt>
<pdfrwt beam="1">  1       11 0.10000000E+01 0.11158487E+03</pdfrwt>
<pdfrwt beam="2">  1        4 0.20415308E-02 0.10445399E+03</pdfrwt>
<totfact> 0.37206311E+03</totfact>
</mgrwt>
</event>
<event>
 5    1  0.1490736E-003  0.2389790E+03  0.7818608E-02  0.1126791E+00
         11   -1    0    0    0    0  0.00000000000E+00  0.00000000000E+00  0.99999608539E+03  0.99999608539E+03  0.51100000000E-03 0. -1.
         -4   -1    0    0    0  501 -0.00000000000E+00 -0.00000000000E+00 -0.21147858421E+03  0.21148335154E+03  0.14200000000E+01 0.  1.
         11    1    1    2    0    0  0.12207222851E+02 -0.36684706034E+02  0.15315575875E+03  0.15796034434E+03  0.51100000000E-03 0. -1.
         22    1    1    2    0    0  0.17711942648E+03 -0.93524762636E+02  0.76424600111E+03  0.79005703761E+03  0.00000000000E+00 0. -1.
         -4    1    1    2    0  501 -0.18932664933E+03  0.13020946867E+03 -0.12888425868E+03  0.26346205498E+03  0.14200000000E+01 0.  1.
<mgrwt>
<rscale>  0 0.22978490E+03</rscale>
<asrwt>0</asrwt>
<pdfrwt beam="1">  1       11 0.10000000E+01 0.23897901E+03</pdfrwt>
<pdfrwt beam="2">  1       -4 0.32535483E-01 0.22978490E+03</pdfrwt>
<totfact> 0.38751821E+01</totfact>
</mgrwt>
</event>
<event>
 5    1  0.1490736E-003  0.5991452E+02  0.7818608E-02  0.1405962E+00
         11   -1    0    0    0    0  0.00000000000E+00  0.00000000000E+00  0.99994336439E+03  0.99994336439E+03  0.51100000000E-03 0.  1.
         -4   -1    0    0    0  501 -0.00000000000E+00 -0.00000000000E+00 -0.41699445963E+01  0.44050922733E+01  0.14200000000E+01 0.  1.
         11    1    1    2    0    0 -0.50664364476E+01  0.41334783835E+02  0.23317764582E+03  0.23686715188E+03  0.51100000000E-03 0.  1.
         22    1    1    2    0    0 -0.41010936748E+01  0.16024643301E+02  0.53254833691E+02  0.55764553918E+02  0.00000000000E+00 0. -1.
         -4    1    1    2    0  501  0.91675301224E+01 -0.57359427136E+02  0.70934094029E+03  0.71171675086E+03  0.14200000000E+01 0.  1.
<mgrwt>
<rscale>  0 0.58104766E+02</rscale>
<asrwt>0</asrwt>
<pdfrwt beam="1">  1       11 0.10000000E+01 0.59914522E+02</pdfrwt>
<pdfrwt beam="2">  1       -4 0.65965840E-03 0.58104766E+02</pdfrwt>
<totfact> 0.17536570E+04</totfact>
</mgrwt>
</event>
<event>
 5    1  0.1490736E-003  0.1770168E+03  0.7818608E-02  0.1172907E+00
         11   -1    0    0    0    0  0.00000000000E+00  0.00000000000E+00  0.10003257777E+04  0.10003257777E+04  0.51100000000E-03 0.  1.
         -4   -1    0    0    0  501 -0.00000000000E+00 -0.00000000000E+00 -0.14643615341E+03  0.14644303815E+03  0.14200000000E+01 0. -1.
         11    1    1    2    0    0 -0.59265362805E+01  0.12611036989E+02  0.43825305389E+02  0.45987166459E+02  0.51100000000E-03 0.  1.
         22    1    1    2    0    0 -0.94054222116E+02  0.13079720618E+03  0.89290484472E+03  0.90732197569E+03  0.00000000000E+00 0.  1.
         -4    1    1    2    0  501  0.99980758396E+02 -0.14340824317E+03 -0.82840525769E+02  0.19345967375E+03  0.14200000000E+01 0. -1.
<mgrwt>
<rscale>  0 0.17482589E+03</rscale>
<asrwt>0</asrwt>
<pdfrwt beam="1">  1       11 0.10000000E+01 0.17701680E+03</pdfrwt>
<pdfrwt beam="2">  1       -4 0.22536585E-01 0.17482589E+03</pdfrwt>
<totfact> 0.75653516E+01</totfact>
</mgrwt>
</event>
<event>
 5    1  0.1490736E-003  0.2412788E+02  0.7818608E-02  0.1841641E+00
         11   -1    0    0    0    0  0.00000000000E+00  0.00000000000E+00  0.10004960631E+04  0.10004960631E+04  0.51100000000E-03 0.  1.
          4   -1    0    0  501    0 -0.00000000000E+00 -0.00000000000E+00 -0.17435290103E+01  0.22486203348E+01  0.14200000000E+01 0.  1.
         11    1    1    2    0    0  0.17286592451E+02 -0.64976552104E+01  0.74440255255E+02  0.76696788750E+02  0.51100000000E-03 0.  1.
         22    1    1    2    0    0  0.14586129699E+01 -0.10364487805E+02  0.39135335167E+02  0.40510796312E+02  0.00000000000E+00 0. -1.
          4    1    1    2  501    0 -0.18745205421E+02  0.16862143015E+02  0.88517694367E+03  0.88553709838E+03  0.14200000000E+01 0.  1.
<mgrwt>
<rscale>  0 0.15905165E+02</rscale>
<asrwt>0</asrwt>
<pdfrwt beam="1">  1       11 0.10000000E+01 0.24127884E+02</pdfrwt>
<pdfrwt beam="2">  1        4 0.30731829E-03 0.15905165E+02</pdfrwt>
<totfact> 0.31882203E+04</totfact>
</mgrwt>
</event>
<event>
 5    1  0.1490736E-003  0.1762070E+03  0.7818608E-02  0.1171525E+00
         11   -1    0    0    0    0  0.00000000000E+00  0.00000000000E+00  0.99979953875E+03  0.99979953875E+03  0.51100000000E-03 0.  1.
          4   -1    0    0  501    0 -0.00000000000E+00 -0.00000000000E+00 -0.71740286842E+02  0.71754338936E+02  0.14200000000E+01 0.  1.
         11    1    1    2    0    0  0.12044209759E+03 -0.39716305330E+01  0.13516207172E+03  0.18108246286E+03  0.51100000000E-03 0.  1.
         22    1    1    2    0    0 -0.33763154242E+02 -0.16575698841E+03  0.58260115800E+03  0.60666254136E+03  0.00000000000E+00 0.  1.
          4    1    1    2  501    0 -0.86678943353E+02  0.16972861895E+03  0.21029602219E+03  0.28380887347E+03  0.14200000000E+01 0.  1.
<mgrwt>
<rscale>  0 0.17620701E+03</rscale>
<asrwt>0</asrwt>
<pdfrwt beam="1">  1       11 0.10000000E+01 0.12050762E+03</pdfrwt>
<pdfrwt beam="2">  1        4 0.11035913E-01 0.17620701E+03</pdfrwt>
<totfact> 0.26716666E+02</totfact>
</mgrwt>
</event>
<event>
 5    1  0.1490736E-003  0.1165929E+03  0.7818608E-02  0.1253693E+00
         11   -1    0    0    0    0  0.00000000000E+00  0.00000000000E+00  0.10002149124E+04  0.10002149124E+04  0.51100000000E-03 0. -1.
         -4   -1    0    0    0  501 -0.00000000000E+00 -0.00000000000E+00 -0.13931687401E+02  0.14003867817E+02  0.14200000000E+01 0.  1.
         11    1    1    2    0    0 -0.78902048088E+02 -0.54343653174E+02  0.49768041008E+03  0.50681807033E+03  0.51100000000E-03 0. -1.
         22    1    1    2    0    0 -0.20746541501E+02 -0.59542965576E+00  0.11474080971E+03  0.11660285989E+03  0.00000000000E+00 0. -1.
         -4    1    1    2    0  501  0.99648589590E+02  0.54939082829E+02  0.37386200522E+03  0.39079785001E+03  0.14200000000E+01 0.  1.
<mgrwt>
<rscale>  0 0.11379877E+03</rscale>
<asrwt>0</asrwt>
<pdfrwt beam="1">  1       11 0.10000000E+01 0.11659291E+03</pdfrwt>
<pdfrwt beam="2">  1       -4 0.21494282E-02 0.11379877E+03</pdfrwt>
<totfact> 0.34951332E+03</totfact>
</mgrwt>
</event>
<event>
 5    1  0.1490736E-003  0.8592497E+02  0.7818608E-02  0.1313031E+00
         11   -1    0    0    0    0  0.00000000000E+00  0.00000000000E+00  0.10003625718E+04  0.10003625718E+04  0.51100000000E-03 0. -1.
          4   -1    0    0  501    0 -0.00000000000E+00 -0.00000000000E+00 -0.95897833053E+01  0.96943459729E+01  0.14200000000E+01 0. -1.
         11    1    1    2    0    0 -0.52970239106E+02 -0.70111104628E+02  0.30946037780E+03  0.32169416944E+03  0.51100000000E-03 0. -1.
         22    1    1    2    0    0 -0.70566544549E+01  0.12951016031E+02  0.78102814417E+02  0.79483173113E+02  0.00000000000E+00 0. -1.
          4    1    1    2  501    0  0.60026893561E+02  0.57160088596E+02  0.60320959631E+03  0.60887957525E+03  0.14200000000E+01 0. -1.
<mgrwt>
<rscale>  0 0.85924973E+02</rscale>
<asrwt>0</asrwt>
<pdfrwt beam="1">  1       11 0.10000000E+01 0.14748735E+02</pdfrwt>
<pdfrwt beam="2">  1        4 0.14840099E-02 0.85924973E+02</pdfrwt>
<totfact> 0.58025024E+03</totfact>
</mgrwt>
</event>
<event>
 5    1  0.2301249E-003  0.1534462E+03  0.7818608E-02  0.1198854E+00
         11   -1    0    0    0    0  0.00000000000E+00  0.00000000000E+00  0.10000471431E+04  0.10000471431E+04  0.51100000000E-03 0. -1.
         -4   -1    0    0    0  501 -0.00000000000E+00 -0.00000000000E+00 -0.55568586771E+02  0.55586727155E+02  0.14200000000E+01 0.  1.
         11    1    1    2    0    0  0.75250284098E+02 -0.11389689529E+03  0.79872177150E+03  0.81030338533E+03  0.51100000000E-03 0. -1.
         22    1    1    2    0    0  0.14599463172E+02 -0.78587339071E+01  0.77622526141E+02  0.79373550936E+02  0.00000000000E+00 0.  1.
         -4    1    1    2    0  501 -0.89849747270E+02  0.12175562920E+03  0.68134258656E+02  0.16595693396E+03  0.14200000000E+01 0.  1.
<mgrwt>
<rscale>  0 0.15132557E+03</rscale>
<asrwt>0</asrwt>
<pdfrwt beam="1">  1       11 0.10000000E+01 0.15344616E+03</pdfrwt>
<pdfrwt beam="2">  1       -4 0.85508892E-02 0.15132557E+03</pdfrwt>
<totfact> 0.40340704E+02</totfact>
</mgrwt>
</event>
<event>
 5    1  0.1490736E-003  0.3507495E+03  0.7818608E-02  0.1077733E+00
         11   -1    0    0    0    0  0.00000000000E+00  0.00000000000E+00  0.99995768008E+03  0.99995768008E+03  0.51100000000E-03 0.  1.
          4   -1    0    0  501    0 -0.00000000000E+00 -0.00000000000E+00 -0.13528131154E+03  0.13528876395E+03  0.14200000000E+01 0.  1.
         11    1    1    2    0    0  0.42373150328E+02  0.14223139689E+03  0.12876139089E+03  0.19648091489E+03  0.51100000000E-03 0.  1.
         22    1    1    2    0    0  0.17727377393E+03  0.84267722489E+02  0.82020807429E+02  0.21273093999E+03  0.00000000000E+00 0. -1.
          4    1    1    2  501    0 -0.21964692426E+03 -0.22649911938E+03  0.65389417022E+03  0.72603458917E+03  0.14200000000E+01 0.  1.
<mgrwt>
<rscale>  0 0.31551329E+03</rscale>
<asrwt>0</asrwt>
<pdfrwt beam="1">  1       11 0.10000000E+01 0.35074949E+03</pdfrwt>
<pdfrwt beam="2">  1        4 0.20812279E-01 0.31551329E+03</pdfrwt>
<totfact> 0.91867011E+01</totfact>
</mgrwt>
</event>
<event>
 5    1  0.1490736E-003  0.1859381E+03  0.7818608E-02  0.1166534E+00
         11   -1    0    0    0    0  0.00000000000E+00  0.00000000000E+00  0.99999551919E+03  0.99999551919E+03  0.51100000000E-03 0. -1.
          4   -1    0    0  501    0 -0.00000000000E+00 -0.00000000000E+00 -0.35761524614E+02  0.35789705820E+02  0.14200000000E+01 0. -1.
         11    1    1    2    0    0  0.90978190915E+02  0.12015248823E+03  0.44810064511E+03  0.47276615762E+03  0.51100000000E-03 0. -1.
         22    1    1    2    0    0  0.12751326348E+02  0.28555496227E+02  0.16390328204E+03  0.16686011672E+03  0.00000000000E+00 0.  1.
          4    1    1    2  501    0 -0.10372951726E+03 -0.14870798445E+03  0.35223006743E+03  0.39615895067E+03  0.14200000000E+01 0. -1.
<mgrwt>
<rscale>  0 0.18131711E+03</rscale>
<asrwt>0</asrwt>
<pdfrwt beam="1">  1       11 0.10000000E+01 0.18593806E+03</pdfrwt>
<pdfrwt beam="2">  1        4 0.55039935E-02 0.18131711E+03</pdfrwt>
<totfact> 0.85347710E+02</totfact>
</mgrwt>
</event>
<event>
 5    1  0.1490736E-003  0.2836674E+03  0.7818608E-02  0.1097133E+00
         11   -1    0    0    0    0  0.00000000000E+00  0.00000000000E+00  0.10002354452E+04  0.10002354452E+04  0.51100000000E-03 0. -1.
          4   -1    0    0  501    0 -0.00000000000E+00 -0.00000000000E+00 -0.81207822905E+02  0.81220237016E+02  0.14200000000E+01 0. -1.
         11    1    1    2    0    0  0.12722256041E+03  0.23119349962E+03  0.32088227609E+03  0.41545330574E+03  0.51100000000E-03 0. -1.
         22    1    1    2    0    0  0.48536942892E+01  0.12710717435E+02  0.47974142906E+02  0.49866211742E+02  0.00000000000E+00 0.  1.
          4    1    1    2  501    0 -0.13207625470E+03 -0.24390421705E+03  0.55017120330E+03  0.61613616474E+03  0.14200000000E+01 0. -1.
<mgrwt>
<rscale>  0 0.27737235E+03</rscale>
<asrwt>0</asrwt>
<pdfrwt beam="1">  1       11 0.10000000E+01 0.28366740E+03</pdfrwt>
<pdfrwt beam="2">  1        4 0.12497485E-01 0.27737235E+03</pdfrwt>
<totfact> 0.22604415E+02</totfact>
</mgrwt>
</event>
<event>
 5    1  0.1490736E-003  0.9335035E+02  0.7818608E-02  0.1315148E+00
         11   -1    0    0    0    0  0.00000000000E+00  0.00000000000E+00  0.10001837692E+04  0.10001837692E+04  0.51100000000E-03 0. -1.
         -4   -1    0    0    0  501 -0.00000000000E+00 -0.00000000000E+00 -0.84422569915E+01  0.85608471024E+01  0.14200000000E+01 0.  1.
         11    1    1    2    0    0  0.16797845219E+02  0.31294863241E+02  0.11617351197E+03  0.12148177210E+03  0.51100000000E-03 0. -1.
         22    1    1    2    0    0  0.53812603752E+02  0.16199047934E+02  0.27396624846E+03  0.27967071848E+03  0.00000000000E+00 0.  1.
         -4    1    1    2    0  501 -0.70610448971E+02 -0.47493911176E+02  0.60160175181E+03  0.60759212576E+03  0.14200000000E+01 0.  1.
<mgrwt>
<rscale>  0 0.85108892E+02</rscale>
<asrwt>0</asrwt>
<pdfrwt beam="1">  1       11 0.10000000E+01 0.93350351E+02</pdfrwt>
<pdfrwt beam="2">  1       -4 0.13082490E-02 0.85108892E+02</pdfrwt>
<totfact> 0.70007578E+03</totfact>
</mgrwt>
</event>
<event>
 5    1  0.1490736E-003  0.2614983E+03  0.7818608E-02  0.1106246E+00
         11   -1    0    0    0    0  0.00000000000E+00  0.00000000000E+00  0.10002027197E+04  0.10002027197E+04  0.51100000000E-03 0. -1.
          4   -1    0    0  501    0 -0.00000000000E+00 -0.00000000000E+00 -0.11562870820E+03  0.11563742715E+03  0.14200000000E+01 0. -1.
         11    1    1    2    0    0 -0.86689420193E+02  0.38523131558E+02  0.56509525933E+02  0.11041926354E+03  0.51100000000E-03 0. -1.
         22    1    1    2    0    0  0.28076828620E+03  0.52596981131E+02  0.21966769799E+03  0.36034867906E+03  0.00000000000E+00 0. -1.
          4    1    1    2  501    0 -0.19407886601E+03 -0.91120112689E+02  0.60839678756E+03  0.64507220423E+03  0.14200000000E+01 0. -1.
<mgrwt>
<rscale>  0 0.26149831E+03</rscale>
<asrwt>0</asrwt>
<pdfrwt beam="1">  1       11 0.10000000E+01 0.94863566E+02</pdfrwt>
<pdfrwt beam="2">  1        4 0.17793386E-01 0.26149831E+03</pdfrwt>
<totfact> 0.12033802E+02</totfact>
</mgrwt>
</event>
<event>
 5    1  0.1490736E-003  0.6903884E+02  0.7818608E-02  0.1413977E+00
         11   -1    0    0    0    0  0.00000000000E+00  0.00000000000E+00  0.99997557286E+03  0.99997557286E+03  0.51100000000E-03 0.  1.
          4   -1    0    0  501    0 -0.00000000000E+00 -0.00000000000E+00 -0.11875932147E+02  0.11960525254E+02  0.14200000000E+01 0.  1.
         11    1    1    2    0    0  0.49229393812E+02  0.31914545867E+02  0.29828465374E+03  0.30399968110E+03  0.51100000000E-03 0.  1.
         22    1    1    2    0    0 -0.91143042144E+02  0.56712029024E+01  0.54424045380E+03  0.55184860988E+03  0.00000000000E+00 0.  1.
          4    1    1    2  501    0  0.41913648332E+02 -0.37585748769E+02  0.14557453318E+03  0.15608780714E+03  0.14200000000E+01 0.  1.
<mgrwt>
<rscale>  0 0.56315707E+02</rscale>
<asrwt>0</asrwt>
<pdfrwt beam="1">  1       11 0.10000000E+01 0.69038842E+02</pdfrwt>
<pdfrwt beam="2">  1        4 0.18336064E-02 0.56315707E+02</pdfrwt>
<totfact> 0.38228137E+03</totfact>
</mgrwt>
</event>
<event>
 5    1  0.1490736E-003  0.2313039E+03  0.7818608E-02  0.1131062E+00
         11   -1    0    0    0    0  0.00000000000E+00  0.00000000000E+00  0.10002242189E+04  0.10002242189E+04  0.51100000000E-03 0. -1.
          4   -1    0    0  501    0 -0.00000000000E+00 -0.00000000000E+00 -0.25103209579E+03  0.25103611198E+03  0.14200000000E+01 0. -1.
         11    1    1    2    0    0  0.17713137426E+03  0.11564659384E+02  0.64251663711E+03  0.66658599900E+03  0.51100000000E-03 0. -1.
         22    1    1    2    0    0  0.46641218161E+02 -0.16288522085E+02  0.29072566696E+03  0.29489342586E+03  0.00000000000E+00 0. -1.
          4    1    1    2  501    0 -0.22377259242E+03  0.47238627014E+01 -0.18405018095E+03  0.28978090604E+03  0.14200000000E+01 0. -1.
<mgrwt>
<rscale>  0 0.22382695E+03</rscale>
<asrwt>0</asrwt>
<pdfrwt beam="1">  1       11 0.10000000E+01 0.23130388E+03</pdfrwt>
<pdfrwt beam="2">  1        4 0.38629367E-01 0.22382695E+03</pdfrwt>
<totfact> 0.27661449E+01</totfact>
</mgrwt>
</event>
<event>
 5    1  0.1490736E-003  0.2172901E+03  0.7818608E-02  0.1135920E+00
         11   -1    0    0    0    0  0.00000000000E+00  0.00000000000E+00  0.10002582624E+04  0.10002582624E+04  0.51100000000E-03 0. -1.
         -4   -1    0    0    0  501 -0.00000000000E+00 -0.00000000000E+00 -0.12538408395E+03  0.12539212459E+03  0.14200000000E+01 0.  1.
         11    1    1    2    0    0 -0.19190839672E+03  0.45061070542E+02  0.63856739066E+03  0.66830206136E+03  0.51100000000E-03 0. -1.
         22    1    1    2    0    0 -0.29496081071E+02 -0.40595153086E+02  0.23041517837E+03  0.23581590208E+03  0.00000000000E+00 0. -1.
         -4    1    1    2    0  501  0.22140447780E+03 -0.44659174558E+01  0.58916093926E+01  0.22153242351E+03  0.14200000000E+01 0.  1.
<mgrwt>
<rscale>  0 0.21729013E+03</rscale>
<asrwt>0</asrwt>
<pdfrwt beam="1">  1       11 0.10000000E+01 0.50179530E+02</pdfrwt>
<pdfrwt beam="2">  1       -4 0.19295537E-01 0.21729013E+03</pdfrwt>
<totfact> 0.10232239E+02</totfact>
</mgrwt>
</event>
<event>
 5    1  0.1490736E-003  0.1338500E+03  0.7818608E-02  0.1227882E+00
         11   -1    0    0    0    0  0.00000000000E+00  0.00000000000E+00  0.10002162806E+04  0.10002162806E+04  0.51100000000E-03 0. -1.
         -4   -1    0    0    0  501 -0.00000000000E+00 -0.00000000000E+00 -0.18567147903E+02  0.18621368942E+02  0.14200000000E+01 0. -1.
         11    1    1    2    0    0 -0.88459593448E+01 -0.96190324921E+02  0.52233274919E+03  0.53118954289E+03  0.51100000000E-03 0. -1.
         22    1    1    2    0    0  0.48970293950E+01 -0.33454639761E+02  0.10680443574E+03  0.11202848438E+03  0.00000000000E+00 0. -1.
         -4    1    1    2    0  501  0.39489299498E+01  0.12964496468E+03  0.35251194779E+03  0.37561962229E+03  0.14200000000E+01 0. -1.
<mgrwt>
<rscale>  0 0.12971286E+03</rscale>
<asrwt>0</asrwt>
<pdfrwt beam="1">  1       11 0.10000000E+01 0.13385004E+03</pdfrwt>
<pdfrwt beam="2">  1       -4 0.28613513E-02 0.12971286E+03</pdfrwt>
<totfact> 0.22971922E+03</totfact>
</mgrwt>
</event>
<event>
 5    1  0.1490736E-003  0.2894681E+03  0.7818608E-02  0.1098155E+00
         11   -1    0    0    0    0  0.00000000000E+00  0.00000000000E+00  0.10004346463E+04  0.10004346463E+04  0.51100000000E-03 0. -1.
         -4   -1    0    0    0  501 -0.00000000000E+00 -0.00000000000E+00 -0.98274348523E+03  0.98274451113E+03  0.14200000000E+01 0.  1.
         11    1    1    2    0    0 -0.35424544436E+02  0.12228479338E+03  0.57988299665E+03  0.59369416272E+03  0.51100000000E-03 0. -1.
         22    1    1    2    0    0 -0.80400421157E+02  0.12771441191E+03  0.37945021588E+03  0.40835972507E+03  0.00000000000E+00 0. -1.
         -4    1    1    2    0  501  0.11582496559E+03 -0.24999920529E+03 -0.94164205145E+03  0.98112526965E+03  0.14200000000E+01 0.  1.
<mgrwt>
<rscale>  0 0.27553047E+03</rscale>
<asrwt>0</asrwt>
<pdfrwt beam="1">  1       11 0.10000000E+01 0.28946810E+03</pdfrwt>
<pdfrwt beam="2">  1       -4 0.15125717E+00 0.27553047E+03</pdfrwt>
<totfact> 0.13045717E+00</totfact>
</mgrwt>
</event>
<event>
 5    1  0.1490736E-003  0.3724979E+02  0.7818608E-02  0.1537271E+00
         11   -1    0    0    0    0  0.00000000000E+00  0.00000000000E+00  0.99978558192E+03  0.99978558192E+03  0.51100000000E-03 0.  1.
          4   -1    0    0  501    0 -0.00000000000E+00 -0.00000000000E+00 -0.25094850039E+01  0.28833860277E+01  0.14200000000E+01 0.  1.
         11    1    1    2    0    0  0.96686432794E+00 -0.12616737753E+02  0.37014321827E+02  0.39117475874E+02  0.51100000000E-03 0.  1.
         22    1    1    2    0    0 -0.22837473253E+01 -0.23640915578E+02  0.11093899808E+03  0.11345294041E+03  0.00000000000E+00 0.  1.
          4    1    1    2  501    0  0.13168829974E+01  0.36257653331E+02  0.84932277700E+03  0.85009855166E+03  0.14200000000E+01 0.  1.
<mgrwt>
<rscale>  0 0.36309338E+02</rscale>
<asrwt>0</asrwt>
<pdfrwt beam="1">  1       11 0.10000000E+01 0.37249793E+02</pdfrwt>
<pdfrwt beam="2">  1        4 0.41482483E-03 0.36309338E+02</pdfrwt>
<totfact> 0.29583964E+04</totfact>
</mgrwt>
</event>
<event>
 5    1  0.1490736E-003  0.1122799E+03  0.7818608E-02  0.1273403E+00
         11   -1    0    0    0    0  0.00000000000E+00  0.00000000000E+00  0.10000889880E+04  0.10000889880E+04  0.51100000000E-03 0. -1.
          4   -1    0    0  501    0 -0.00000000000E+00 -0.00000000000E+00 -0.11697316014E+02  0.11783191500E+02  0.14200000000E+01 0. -1.
         11    1    1    2    0    0 -0.30503674099E+02 -0.63331756225E+02  0.31857614484E+03  0.32623939912E+03  0.51100000000E-03 0. -1.
         22    1    1    2    0    0 -0.39086707742E+02 -0.13065941021E+02  0.14528466655E+03  0.15101696551E+03  0.00000000000E+00 0. -1.
          4    1    1    2  501    0  0.69590381841E+02  0.76397697246E+02  0.52453086065E+03  0.53461581492E+03  0.14200000000E+01 0. -1.
<mgrwt>
<rscale>  0 0.10335108E+03</rscale>
<asrwt>0</asrwt>
<pdfrwt beam="1">  1       11 0.10000000E+01 0.11227994E+03</pdfrwt>
<pdfrwt beam="2">  1        4 0.18064311E-02 0.10335108E+03</pdfrwt>
<totfact> 0.44767007E+03</totfact>
</mgrwt>
</event>
<event>
 5    1  0.1490736E-003  0.4763296E+02  0.7818608E-02  0.1458544E+00
         11   -1    0    0    0    0  0.00000000000E+00  0.00000000000E+00  0.99992964958E+03  0.99992964958E+03  0.51100000000E-03 0. -1.
          4   -1    0    0  501    0 -0.00000000000E+00 -0.00000000000E+00 -0.64150968485E+01  0.65703780390E+01  0.14200000000E+01 0. -1.
         11    1    1    2    0    0  0.50715775691E+02  0.35158240158E+01  0.25611589716E+03  0.26111262647E+03  0.51100000000E-03 0. -1.
         22    1    1    2    0    0 -0.22058960740E+02 -0.45496206298E+02  0.23247953729E+03  0.23791434970E+03  0.00000000000E+00 0. -1.
          4    1    1    2  501    0 -0.28656814951E+02  0.41980382282E+02  0.50491911828E+03  0.50747305145E+03  0.14200000000E+01 0. -1.
<mgrwt>
<rscale>  0 0.47632960E+02</rscale>
<asrwt>0</asrwt>
<pdfrwt beam="1">  1       11 0.10000000E+01 0.44851264E+02</pdfrwt>
<pdfrwt beam="2">  1        4 0.99888994E-03 0.47632960E+02</pdfrwt>
<totfact> 0.90233662E+03</totfact>
</mgrwt>
</event>
<event>
 5    1  0.1490736E-003  0.1039816E+03  0.7818608E-02  0.1282545E+00
         11   -1    0    0    0    0  0.00000000000E+00  0.00000000000E+00  0.10001909299E+04  0.10001909299E+04  0.51100000000E-03 0. -1.
         -4   -1    0    0    0  501 -0.00000000000E+00 -0.00000000000E+00 -0.10381381844E+02  0.10478047957E+02  0.14200000000E+01 0.  1.
         11    1    1    2    0    0  0.62712822174E+02 -0.56777201375E+02  0.46356069026E+03  0.47121657676E+03  0.51100000000E-03 0. -1.
         22    1    1    2    0    0  0.44596837252E+00 -0.19365537149E+02  0.10160546937E+03  0.10343545970E+03  0.00000000000E+00 0. -1.
         -4    1    1    2    0  501 -0.63158790546E+02  0.76142738523E+02  0.42464338846E+03  0.43601694143E+03  0.14200000000E+01 0.  1.
<mgrwt>
<rscale>  0 0.98938192E+02</rscale>
<asrwt>0</asrwt>
<pdfrwt beam="1">  1       11 0.10000000E+01 0.10398161E+03</pdfrwt>
<pdfrwt beam="2">  1       -4 0.16049554E-02 0.98938192E+02</pdfrwt>
<totfact> 0.53117007E+03</totfact>
</mgrwt>
</event>
<event>
 5    1  0.1490736E-003  0.3072463E+02  0.7818608E-02  0.1631267E+00
         11   -1    0    0    0    0  0.00000000000E+00  0.00000000000E+00  0.99996549520E+03  0.99996549520E+03  0.51100000000E-03 0. -1.
          4   -1    0    0  501    0 -0.00000000000E+00 -0.00000000000E+00 -0.15405243779E+01  0.20951408924E+01  0.14200000000E+01 0. -1.
         11    1    1    2    0    0 -0.97953370782E+01 -0.39746682483E+01  0.60287963425E+02  0.61207721330E+02  0.51100000000E-03 0. -1.
         22    1    1    2    0    0 -0.16358360406E+02  0.11312315993E+02  0.85524497141E+02  0.87806628791E+02  0.00000000000E+00 0. -1.
          4    1    1    2  501    0  0.26153697484E+02 -0.73376477452E+01  0.85261251026E+03  0.85304628598E+03  0.14200000000E+01 0. -1.
<mgrwt>
<rscale>  0 0.27200613E+02</rscale>
<asrwt>0</asrwt>
<pdfrwt beam="1">  1       11 0.10000000E+01 0.30724630E+02</pdfrwt>
<pdfrwt beam="2">  1        4 0.27973446E-03 0.27200613E+02</pdfrwt>
<totfact> 0.46369774E+04</totfact>
</mgrwt>
</event>
<event>
 5    1  0.1490736E-003  0.2117055E+03  0.7818608E-02  0.1254444E+00
         11   -1    0    0    0    0  0.00000000000E+00  0.00000000000E+00  0.99991772061E+03  0.99991772061E+03  0.51100000000E-03 0.  1.
          4   -1    0    0  501    0 -0.00000000000E+00 -0.00000000000E+00 -0.98622209104E+02  0.98632431424E+02  0.14200000000E+01 0.  1.
         11    1    1    2    0    0  0.15551699460E+03  0.13450398037E+03  0.66092646956E+03  0.69217097203E+03  0.51100000000E-03 0.  1.
         22    1    1    2    0    0  0.53749269740E+02 -0.28236889561E+02 -0.11836731377E+02  0.61858015967E+02  0.00000000000E+00 0. -1.
          4    1    1    2  501    0 -0.20926626434E+03 -0.10626709081E+03  0.25220577332E+03  0.34452116404E+03  0.14200000000E+01 0.  1.
<mgrwt>
<rscale>  0 0.11337539E+03</rscale>
<asrwt>0</asrwt>
<pdfrwt beam="1">  1       11 0.10000000E+01 0.21170550E+03</pdfrwt>
<pdfrwt beam="2">  1        4 0.15172263E-01 0.11337539E+03</pdfrwt>
<totfact> 0.14655920E+02</totfact>
</mgrwt>
</event>
<event>
 5    1  0.1490736E-003  0.9348151E+02  0.7818608E-02  0.1294633E+00
         11   -1    0    0    0    0  0.00000000000E+00  0.00000000000E+00  0.10001318988E+04  0.10001318988E+04  0.51100000000E-03 0. -1.
          4   -1    0    0  501    0 -0.00000000000E+00 -0.00000000000E+00 -0.15307130855E+02  0.15372854485E+02  0.14200000000E+01 0. -1.
         11    1    1    2    0    0  0.26060955797E+02 -0.31598289475E+02  0.12488945670E+03  0.13143440078E+03  0.51100000000E-03 0. -1.
         22    1    1    2    0    0  0.79765851959E+02  0.41497866584E+02  0.26841073704E+03  0.28307064105E+03  0.00000000000E+00 0. -1.
          4    1    1    2  501    0 -0.10582680776E+03 -0.98995771081E+01  0.59152457422E+03  0.60099971146E+03  0.14200000000E+01 0. -1.
<mgrwt>
<rscale>  0 0.93481512E+02</rscale>
<asrwt>0</asrwt>
<pdfrwt beam="1">  1       11 0.10000000E+01 0.40958845E+02</pdfrwt>
<pdfrwt beam="2">  1        4 0.23603876E-02 0.93481512E+02</pdfrwt>
<totfact> 0.29127354E+03</totfact>
</mgrwt>
</event>
<event>
 5    1  0.1490736E-003  0.1448646E+03  0.7818608E-02  0.1209145E+00
         11   -1    0    0    0    0  0.00000000000E+00  0.00000000000E+00  0.10001733904E+04  0.10001733904E+04  0.51100000000E-03 0. -1.
         -4   -1    0    0    0  501 -0.00000000000E+00 -0.00000000000E+00 -0.20723494387E+02  0.20772087512E+02  0.14200000000E+01 0. -1.
         11    1    1    2    0    0  0.76902675804E+02  0.10449190407E+03  0.41636960610E+03  0.43611492573E+03  0.51100000000E-03 0. -1.
         22    1    1    2    0    0  0.31034082993E+01  0.14211133763E+02  0.63462279715E+02  0.65107975030E+02  0.00000000000E+00 0.  1.
         -4    1    1    2    0  501 -0.80006084103E+02 -0.11870303784E+03  0.49961801018E+03  0.51972257713E+03  0.14200000000E+01 0. -1.
<mgrwt>
<rscale>  0 0.14315516E+03</rscale>
<asrwt>0</asrwt>
<pdfrwt beam="1">  1       11 0.10000000E+01 0.14486462E+03</pdfrwt>
<pdfrwt beam="2">  1       -4 0.31925988E-02 0.14315516E+03</pdfrwt>
<totfact> 0.19671977E+03</totfact>
</mgrwt>
</event>
<event>
 5    1  0.1490736E-003  0.1755379E+03  0.7818608E-02  0.1177735E+00
         11   -1    0    0    0    0  0.00000000000E+00  0.00000000000E+00  0.10002419640E+04  0.10002419640E+04  0.51100000000E-03 0.  1.
         -4   -1    0    0    0  501 -0.00000000000E+00 -0.00000000000E+00 -0.28411785190E+03  0.28412140041E+03  0.14200000000E+01 0. -1.
         11    1    1    2    0    0 -0.62781193213E+02 -0.80049672275E+02  0.57434543148E+03  0.58328561007E+03  0.51100000000E-03 0.  1.
         22    1    1    2    0    0 -0.11956799676E+02 -0.72753971436E+02  0.39179892391E+03  0.39867593631E+03  0.00000000000E+00 0.  1.
         -4    1    1    2    0  501  0.74737992889E+02  0.15280364371E+03 -0.25002024327E+03  0.30240181805E+03  0.14200000000E+01 0. -1.
<mgrwt>
<rscale>  0 0.17010802E+03</rscale>
<asrwt>0</asrwt>
<pdfrwt beam="1">  1       11 0.10000000E+01 0.17553793E+03</pdfrwt>
<pdfrwt beam="2">  1       -4 0.43721364E-01 0.17010802E+03</pdfrwt>
<totfact> 0.21246793E+01</totfact>
</mgrwt>
</event>
<event>
 5    1  0.1490736E-003  0.1611283E+03  0.7818608E-02  0.1187429E+00
         11   -1    0    0    0    0  0.00000000000E+00  0.00000000000E+00  0.10001013942E+04  0.10001013942E+04  0.51100000000E-03 0. -1.
          4   -1    0    0  501    0 -0.00000000000E+00 -0.00000000000E+00 -0.21584440985E+03  0.21584908076E+03  0.14200000000E+01 0.  1.
         11    1    1    2    0    0 -0.17834457535E+03 -0.58846457231E+02  0.81518437137E+03  0.83653765750E+03  0.51100000000E-03 0. -1.
         22    1    1    2    0    0  0.24614909228E+02  0.14097330230E+02  0.14137885379E+03  0.14419642428E+03  0.00000000000E+00 0.  1.
          4    1    1    2  501    0  0.15372966612E+03  0.44749127001E+02 -0.17230624079E+03  0.23521639320E+03  0.14200000000E+01 0.  1.
<mgrwt>
<rscale>  0 0.16112833E+03</rscale>
<asrwt>0</asrwt>
<pdfrwt beam="1">  1       11 0.10000000E+01 0.28365974E+02</pdfrwt>
<pdfrwt beam="2">  1        4 0.33210635E-01 0.16112833E+03</pdfrwt>
<totfact> 0.36306138E+01</totfact>
</mgrwt>
</event>
<event>
 5    1  0.1490736E-003  0.1676422E+03  0.7818608E-02  0.1180329E+00
         11   -1    0    0    0    0  0.00000000000E+00  0.00000000000E+00  0.10000317191E+04  0.10000317191E+04  0.51100000000E-03 0. -1.
         -4   -1    0    0    0  501 -0.00000000000E+00 -0.00000000000E+00 -0.54206197337E+02  0.54224793496E+02  0.14200000000E+01 0. -1.
         11    1    1    2    0    0 -0.99853739722E+02  0.15530583520E+03  0.72130482845E+03  0.74456116426E+03  0.51100000000E-03 0. -1.
         22    1    1    2    0    0 -0.13866759525E+01 -0.26323058816E+02  0.10105039272E+03  0.10443183502E+03  0.00000000000E+00 0. -1.
         -4    1    1    2    0  501  0.10124041567E+03 -0.12898277639E+03  0.12347030059E+03  0.20526351332E+03  0.14200000000E+01 0. -1.
<mgrwt>
<rscale>  0 0.16764219E+03</rscale>
<asrwt>0</asrwt>
<pdfrwt beam="1">  1       11 0.10000000E+01 0.26359558E+02</pdfrwt>
<pdfrwt beam="2">  1       -4 0.83411873E-02 0.16764219E+03</pdfrwt>
<totfact> 0.42599769E+02</totfact>
</mgrwt>
</event>
<event>
 5    1  0.1490736E-003  0.2521711E+03  0.7818608E-02  0.1115414E+00
         11   -1    0    0    0    0  0.00000000000E+00  0.00000000000E+00  0.10002941211E+04  0.10002941211E+04  0.51100000000E-03 0. -1.
         -4   -1    0    0    0  501 -0.00000000000E+00 -0.00000000000E+00 -0.62210056448E+02  0.62226260721E+02  0.14200000000E+01 0. -1.
         11    1    1    2    0    0 -0.20149309751E+03 -0.18702223082E+02  0.41397230400E+03  0.46078445066E+03  0.51100000000E-03 0. -1.
         22    1    1    2    0    0 -0.43110461961E+02 -0.13286437642E+02  0.50405356503E+02  0.67644226065E+02  0.00000000000E+00 0. -1.
         -4    1    1    2    0  501  0.24460355947E+03  0.31988660725E+02  0.47370640420E+03  0.53409170514E+03  0.14200000000E+01 0. -1.
<mgrwt>
<rscale>  0 0.24669048E+03</rscale>
<asrwt>0</asrwt>
<pdfrwt beam="1">  1       11 0.10000000E+01 0.25217108E+03</pdfrwt>
<pdfrwt beam="2">  1       -4 0.95749170E-02 0.24669048E+03</pdfrwt>
<totfact> 0.35316602E+02</totfact>
</mgrwt>
</event>
<event>
 5    1  0.1490736E-003  0.2422068E+03  0.7818608E-02  0.1127691E+00
         11   -1    0    0    0    0  0.00000000000E+00  0.00000000000E+00  0.10002357180E+04  0.10002357180E+04  0.51100000000E-03 0. -1.
         -4   -1    0    0    0  501 -0.00000000000E+00 -0.00000000000E+00 -0.15225993740E+03  0.15226655882E+03  0.14200000000E+01 0. -1.
         11    1    1    2    0    0 -0.12371147806E+03 -0.16093282408E+03  0.75320417761E+03  0.78007719928E+03  0.51100000000E-03 0. -1.
         22    1    1    2    0    0 -0.39131014986E+02  0.62531652255E+00  0.13485870056E+03  0.14042256397E+03  0.00000000000E+00 0. -1.
         -4    1    1    2    0  501  0.16284249305E+03  0.16030750756E+03 -0.40087097551E+02  0.23200251359E+03  0.14200000000E+01 0. -1.
<mgrwt>
<rscale>  0 0.22851300E+03</rscale>
<asrwt>0</asrwt>
<pdfrwt beam="1">  1       11 0.10000000E+01 0.24220681E+03</pdfrwt>
<pdfrwt beam="2">  1       -4 0.23430714E-01 0.22851300E+03</pdfrwt>
<totfact> 0.72032293E+01</totfact>
</mgrwt>
</event>
<event>
 5    1  0.1490736E-003  0.2502945E+02  0.7818608E-02  0.1660579E+00
         11   -1    0    0    0    0  0.00000000000E+00  0.00000000000E+00  0.10002110671E+04  0.10002110671E+04  0.51100000000E-03 0. -1.
          4   -1    0    0  501    0 -0.00000000000E+00 -0.00000000000E+00 -0.29003218792E+01  0.32292827381E+01  0.14200000000E+01 0. -1.
         11    1    1    2    0    0 -0.96157232693E+01  0.11891093647E+02  0.31299925225E+02  0.34835980846E+02  0.51100000000E-03 0. -1.
         22    1    1    2    0    0  0.25904259279E+02  0.35730227295E+01  0.14856282556E+03  0.15084664490E+03  0.00000000000E+00 0. -1.
          4    1    1    2  501    0 -0.16288536010E+02 -0.15464116376E+02  0.81744799445E+03  0.81775772410E+03  0.14200000000E+01 0. -1.
<mgrwt>
<rscale>  0 0.25029445E+02</rscale>
<asrwt>0</asrwt>
<pdfrwt beam="1">  1       11 0.10000000E+01 0.15292497E+02</pdfrwt>
<pdfrwt beam="2">  1        4 0.47168511E-03 0.25029445E+02</pdfrwt>
<totfact> 0.21446537E+04</totfact>
</mgrwt>
</event>
<event>
 5    1  0.1490736E-003  0.1401282E+03  0.7818608E-02  0.1456148E+00
         11   -1    0    0    0    0  0.00000000000E+00  0.00000000000E+00  0.10000038219E+04  0.10000038219E+04  0.51100000000E-03 0.  1.
          4   -1    0    0  501    0 -0.00000000000E+00 -0.00000000000E+00 -0.51032043731E+02  0.51051796123E+02  0.14200000000E+01 0. -1.
         11    1    1    2    0    0  0.68926102179E+02 -0.10710758086E+03  0.56473791811E+03  0.57892292889E+03  0.51100000000E-03 0.  1.
         22    1    1    2    0    0 -0.10493780238E+03  0.13888829062E+03  0.38664252485E+03  0.42402162877E+03  0.00000000000E+00 0. -1.
          4    1    1    2  501    0  0.36011700200E+02 -0.31780709769E+02 -0.24086647818E+01  0.48111060379E+02  0.14200000000E+01 0. -1.
<mgrwt>
<rscale>  0 0.48050728E+02</rscale>
<asrwt>0</asrwt>
<pdfrwt beam="1">  1       11 0.10000000E+01 0.14012818E+03</pdfrwt>
<pdfrwt beam="2">  1        4 0.78527104E-02 0.48050728E+02</pdfrwt>
<totfact> 0.38571014E+02</totfact>
</mgrwt>
</event>
<event>
 5    1  0.1490736E-003  0.7996109E+02  0.7818608E-02  0.1339906E+00
         11   -1    0    0    0    0  0.00000000000E+00  0.00000000000E+00  0.99979044666E+03  0.99979044666E+03  0.51100000000E-03 0.  1.
          4   -1    0    0  501    0 -0.00000000000E+00 -0.00000000000E+00 -0.72157894052E+01  0.73541836216E+01  0.14200000000E+01 0.  1.
         11    1    1    2    0    0  0.44259225732E+02 -0.46205905310E+02  0.22088783430E+03  0.22996804146E+03  0.51100000000E-03 0.  1.
         22    1    1    2    0    0  0.14350805636E+02 -0.26183208480E+01  0.82523289041E+02  0.83802711535E+02  0.00000000000E+00 0.  1.
          4    1    1    2  501    0 -0.58610031367E+02  0.48824226158E+02  0.68916353391E+03  0.69337387729E+03  0.14200000000E+01 0.  1.
<mgrwt>
<rscale>  0 0.76295198E+02</rscale>
<asrwt>0</asrwt>
<pdfrwt beam="1">  1       11 0.10000000E+01 0.79961088E+02</pdfrwt>
<pdfrwt beam="2">  1        4 0.11206098E-02 0.76295198E+02</pdfrwt>
<totfact> 0.86066268E+03</totfact>
</mgrwt>
</event>
<event>
 5    1  0.1490736E-003  0.7065940E+02  0.7818608E-02  0.1357865E+00
         11   -1    0    0    0    0  0.00000000000E+00  0.00000000000E+00  0.10003419743E+04  0.10003419743E+04  0.51100000000E-03 0. -1.
          4   -1    0    0  501    0 -0.00000000000E+00 -0.00000000000E+00 -0.68106804277E+01  0.69571379092E+01  0.14200000000E+01 0. -1.
         11    1    1    2    0    0 -0.85877455506E-01  0.10910393609E+02  0.16836161358E+02  0.20062412447E+02  0.51100000000E-03 0. -1.
         22    1    1    2    0    0  0.69275887872E+02  0.95407263941E+01  0.40320560658E+03  0.40922479798E+03  0.00000000000E+00 0. -1.
          4    1    1    2  501    0 -0.69190010417E+02 -0.20451120003E+02  0.57348952589E+03  0.57801190174E+03  0.14200000000E+01 0. -1.
<mgrwt>
<rscale>  0 0.70659397E+02</rscale>
<asrwt>0</asrwt>
<pdfrwt beam="1">  1       11 0.10000000E+01 0.10910737E+02</pdfrwt>
<pdfrwt beam="2">  1        4 0.10595026E-02 0.70659397E+02</pdfrwt>
<totfact> 0.91830117E+03</totfact>
</mgrwt>
</event>
<event>
 5    1  0.1490736E-003  0.1528212E+03  0.7818608E-02  0.1197049E+00
         11   -1    0    0    0    0  0.00000000000E+00  0.00000000000E+00  0.10003307121E+04  0.10003307121E+04  0.51100000000E-03 0. -1.
          4   -1    0    0  501    0 -0.00000000000E+00 -0.00000000000E+00 -0.29436965185E+02  0.29471194739E+02  0.14200000000E+01 0. -1.
         11    1    1    2    0    0 -0.15056969123E+03 -0.50484842209E+01  0.37799558730E+03  0.40691200908E+03  0.51100000000E-03 0. -1.
         22    1    1    2    0    0 -0.25133166844E+01 -0.27557846619E+02  0.16410474633E+03  0.16642151134E+03  0.00000000000E+00 0.  1.
          4    1    1    2  501    0  0.15308300791E+03  0.32606330840E+02  0.42879341327E+03  0.45646838641E+03  0.14200000000E+01 0. -1.
<mgrwt>
<rscale>  0 0.15282118E+03</rscale>
<asrwt>0</asrwt>
<pdfrwt beam="1">  1       11 0.10000000E+01 0.27672218E+02</pdfrwt>
<pdfrwt beam="2">  1        4 0.45329729E-02 0.15282118E+03</pdfrwt>
<totfact> 0.11393825E+03</totfact>
</mgrwt>
</event>
<event>
 5    1  0.1490736E-003  0.1778173E+03  0.7818608E-02  0.1171542E+00
         11   -1    0    0    0    0  0.00000000000E+00  0.00000000000E+00  0.10001064267E+04  0.10001064267E+04  0.51100000000E-03 0. -1.
          4   -1    0    0  501    0 -0.00000000000E+00 -0.00000000000E+00 -0.17267249941E+03  0.17267833811E+03  0.14200000000E+01 0.  1.
         11    1    1    2    0    0  0.51956338088E+02 -0.14387275860E+03  0.85769046235E+03  0.87122428854E+03  0.51100000000E-03 0. -1.
         22    1    1    2    0    0  0.65703762005E+01 -0.22306439759E+02  0.86911249136E+02  0.89968396254E+02  0.00000000000E+00 0.  1.
          4    1    1    2  501    0 -0.58526714289E+02  0.16617919836E+03 -0.11716778423E+03  0.21159207999E+03  0.14200000000E+01 0.  1.
<mgrwt>
<rscale>  0 0.17619001E+03</rscale>
<asrwt>0</asrwt>
<pdfrwt beam="1">  1       11 0.10000000E+01 0.17781728E+03</pdfrwt>
<pdfrwt beam="2">  1        4 0.26568353E-01 0.17619001E+03</pdfrwt>
<totfact> 0.55821482E+01</totfact>
</mgrwt>
</event>
<event>
 5    1  0.1490736E-003  0.6098012E+02  0.7818608E-02  0.1407374E+00
         11   -1    0    0    0    0  0.00000000000E+00  0.00000000000E+00  0.10007411928E+04  0.10007411928E+04  0.51100000000E-03 0.  1.
          4   -1    0    0  501    0 -0.00000000000E+00 -0.00000000000E+00 -0.48240399740E+01  0.50286938334E+01  0.14200000000E+01 0.  1.
         11    1    1    2    0    0  0.12459612734E+02  0.22864194612E+02  0.69981317257E+02  0.74668588509E+02  0.51100000000E-03 0.  1.
         22    1    1    2    0    0  0.18024970564E+02  0.26203661029E+02  0.16925003247E+03  0.17221238314E+03  0.00000000000E+00 0.  1.
          4    1    1    2  501    0 -0.30484583298E+02 -0.49067855641E+02  0.75668580308E+03  0.75888891497E+03  0.14200000000E+01 0.  1.
<mgrwt>
<rscale>  0 0.57783914E+02</rscale>
<asrwt>0</asrwt>
<pdfrwt beam="1">  1       11 0.10000000E+01 0.60980124E+02</pdfrwt>
<pdfrwt beam="2">  1        4 0.75854188E-03 0.57783914E+02</pdfrwt>
<totfact> 0.14271019E+04</totfact>
</mgrwt>
</event>
<event>
 5    1  0.1490736E-003  0.1263422E+03  0.7818608E-02  0.1501902E+00
         11   -1    0    0    0    0  0.00000000000E+00  0.00000000000E+00  0.99989595050E+03  0.99989595050E+03  0.51100000000E-03 0. -1.
          4   -1    0    0  501    0 -0.00000000000E+00 -0.00000000000E+00 -0.21813811043E+02  0.21859980609E+02  0.14200000000E+01 0. -1.
         11    1    1    2    0    0 -0.11212374778E+03 -0.46576576059E+02  0.23149681289E+03  0.26140368519E+03  0.51100000000E-03 0. -1.
         22    1    1    2    0    0 -0.10383802673E+02  0.81825146902E+01  0.38125964112E+02  0.40353017781E+02  0.00000000000E+00 0. -1.
          4    1    1    2  501    0  0.12250755045E+03  0.38394061368E+02  0.70845936246E+03  0.71999922814E+03  0.14200000000E+01 0. -1.
<mgrwt>
<rscale>  0 0.40870388E+02</rscale>
<asrwt>0</asrwt>
<pdfrwt beam="1">  1       11 0.10000000E+01 0.12634216E+03</pdfrwt>
<pdfrwt beam="2">  1        4 0.33592503E-02 0.40870388E+02</pdfrwt>
<totfact> 0.14091352E+03</totfact>
</mgrwt>
</event>
<event>
 5    1  0.1490736E-003  0.1227457E+03  0.7818608E-02  0.1238635E+00
         11   -1    0    0    0    0  0.00000000000E+00  0.00000000000E+00  0.10004565464E+04  0.10004565464E+04  0.51100000000E-03 0. -1.
          4   -1    0    0  501    0 -0.00000000000E+00 -0.00000000000E+00 -0.22323538914E+03  0.22323990540E+03  0.14200000000E+01 0. -1.
         11    1    1    2    0    0 -0.17258343913E+02 -0.84849814345E+02  0.11364864860E+02  0.87329843596E+02  0.51100000000E-03 0. -1.
         22    1    1    2    0    0  0.96834294175E+02  0.17610033410E+03  0.91923907048E+03  0.94095094288E+03  0.00000000000E+00 0. -1.
          4    1    1    2  501    0 -0.79575950262E+02 -0.91250519750E+02 -0.15338277813E+03  0.19541566529E+03  0.14200000000E+01 0. -1.
<mgrwt>
<rscale>  0 0.12274565E+03</rscale>
<asrwt>0</asrwt>
<pdfrwt beam="1">  1       11 0.10000000E+01 0.86587233E+02</pdfrwt>
<pdfrwt beam="2">  1        4 0.34360010E-01 0.12274565E+03</pdfrwt>
<totfact> 0.33261779E+01</totfact>
</mgrwt>
</event>
<event>
 5    1  0.1490736E-003  0.8170665E+02  0.7818608E-02  0.1324277E+00
         11   -1    0    0    0    0  0.00000000000E+00  0.00000000000E+00  0.10003383834E+04  0.10003383834E+04  0.51100000000E-03 0. -1.
          4   -1    0    0  501    0 -0.00000000000E+00 -0.00000000000E+00 -0.13516836456E+02  0.13591220246E+02  0.14200000000E+01 0. -1.
         11    1    1    2    0    0 -0.60077602663E+01 -0.14692030648E+02  0.14073838415E+02  0.21213719051E+02  0.51100000000E-03 0. -1.
         22    1    1    2    0    0 -0.80382369064E+02  0.28342100545E+01  0.20797263141E+03  0.22298424478E+03  0.00000000000E+00 0. -1.
          4    1    1    2  501    0  0.86390129331E+02  0.11857820594E+02  0.76477507706E+03  0.76973163976E+03  0.14200000000E+01 0. -1.
<mgrwt>
<rscale>  0 0.81706652E+02</rscale>
<asrwt>0</asrwt>
<pdfrwt beam="1">  1       11 0.10000000E+01 0.15872908E+02</pdfrwt>
<pdfrwt beam="2">  1        4 0.20860182E-02 0.81706652E+02</pdfrwt>
<totfact> 0.34235174E+03</totfact>
</mgrwt>
</event>
<event>
 5    1  0.1490736E-003  0.5065143E+02  0.7818608E-02  0.1452075E+00
         11   -1    0    0    0    0  0.00000000000E+00  0.00000000000E+00  0.10002045424E+04  0.10002045424E+04  0.51100000000E-03 0. -1.
          4   -1    0    0  501    0 -0.00000000000E+00 -0.00000000000E+00 -0.29002609752E+01  0.32292280384E+01  0.14200000000E+01 0. -1.
         11    1    1    2    0    0 -0.12518383566E+02 -0.92278111504E+01  0.77875868884E+02  0.79413559172E+02  0.51100000000E-03 0. -1.
         22    1    1    2    0    0 -0.34880856388E+02 -0.21774504213E+01  0.20745637344E+03  0.21037956725E+03  0.00000000000E+00 0. -1.
          4    1    1    2  501    0  0.47399239954E+02  0.11405261572E+02  0.71197203913E+03  0.71364064405E+03  0.14200000000E+01 0. -1.
<mgrwt>
<rscale>  0 0.48772783E+02</rscale>
<asrwt>0</asrwt>
<pdfrwt beam="1">  1       11 0.10000000E+01 0.50651432E+02</pdfrwt>
<pdfrwt beam="2">  1        4 0.47167314E-03 0.48772783E+02</pdfrwt>
<totfact> 0.27110273E+04</totfact>
</mgrwt>
</event>
<event>
 5    1  0.1490736E-003  0.2073766E+03  0.7818608E-02  0.1145985E+00
         11   -1    0    0    0    0  0.00000000000E+00  0.00000000000E+00  0.10001640340E+04  0.10001640340E+04  0.51100000000E-03 0. -1.
          4   -1    0    0  501    0 -0.00000000000E+00 -0.00000000000E+00 -0.96303262003E+02  0.96313730446E+02  0.14200000000E+01 0.  1.
         11    1    1    2    0    0 -0.17902322906E+03  0.25980172110E+02  0.78918951237E+03  0.80965694731E+03  0.51100000000E-03 0. -1.
         22    1    1    2    0    0 -0.21944055818E+02  0.11920906738E+02  0.74266526086E+02  0.78352833389E+02  0.00000000000E+00 0.  1.
          4    1    1    2  501    0  0.20096728488E+03 -0.37901078848E+02  0.40404733585E+02  0.20846798379E+03  0.14200000000E+01 0.  1.
<mgrwt>
<rscale>  0 0.20451493E+03</rscale>
<asrwt>0</asrwt>
<pdfrwt beam="1">  1       11 0.10000000E+01 0.20737657E+03</pdfrwt>
<pdfrwt beam="2">  1        4 0.14819199E-01 0.20451493E+03</pdfrwt>
<totfact> 0.16289383E+02</totfact>
</mgrwt>
</event>
<event>
 5    1  0.1490736E-003  0.4889124E+02  0.7818608E-02  0.1455975E+00
         11   -1    0    0    0    0  0.00000000000E+00  0.00000000000E+00  0.10000471106E+04  0.10000471106E+04  0.51100000000E-03 0.  1.
         -4   -1    0    0    0  501 -0.00000000000E+00 -0.00000000000E+00 -0.40706000206E+01  0.43111697401E+01  0.14200000000E+01 0.  1.
         11    1    1    2    0    0 -0.29174449347E+02 -0.21027493946E+02  0.11643016605E+03  0.12185765287E+03  0.51100000000E-03 0.  1.
         22    1    1    2    0    0 -0.12303658705E+02 -0.32490977325E+01  0.51117273685E+02  0.52677436560E+02  0.00000000000E+00 0. -1.
         -4    1    1    2    0  501  0.41478108052E+02  0.24276591679E+02  0.82842907089E+03  0.82982319095E+03  0.14200000000E+01 0.  1.
<mgrwt>
<rscale>  0 0.48081210E+02</rscale>
<asrwt>0</asrwt>
<pdfrwt beam="1">  1       11 0.10000000E+01 0.48891235E+02</pdfrwt>
<pdfrwt beam="2">  1       -4 0.64485943E-03 0.48081210E+02</pdfrwt>
<totfact> 0.17156704E+04</totfact>
</mgrwt>
</event>
<event>
 5    1  0.1490736E-003  0.7405785E+02  0.7818608E-02  0.1355445E+00
         11   -1    0    0    0    0  0.00000000000E+00  0.00000000000E+00  0.10000320217E+04  0.10000320217E+04  0.51100000000E-03 0.  1.
          4   -1    0    0  501    0 -0.00000000000E+00 -0.00000000000E+00 -0.17270420301E+02  0.17328699240E+02  0.14200000000E+01 0.  1.
         11    1    1    2    0    0  0.42600023527E+02  0.41856847969E+02  0.48829708223E+02  0.77143360905E+02  0.51100000000E-03 0.  1.
         22    1    1    2    0    0  0.12106551677E+02  0.39800971398E+01  0.21470215060E+02  0.24967577004E+02  0.00000000000E+00 0. -1.
          4    1    1    2  501    0 -0.54706575203E+02 -0.45836945109E+02  0.91246167812E+03  0.91524978304E+03  0.14200000000E+01 0.  1.
<mgrwt>
<rscale>  0 0.71385232E+02</rscale>
<asrwt>0</asrwt>
<pdfrwt beam="1">  1       11 0.10000000E+01 0.74057845E+02</pdfrwt>
<pdfrwt beam="2">  1        4 0.26616334E-02 0.71385232E+02</pdfrwt>
<totfact> 0.22907563E+03</totfact>
</mgrwt>
</event>
<event>
 5    1  0.1490736E-003  0.9953869E+02  0.7818608E-02  0.1284466E+00
         11   -1    0    0    0    0  0.00000000000E+00  0.00000000000E+00  0.10001773834E+04  0.10001773834E+04  0.51100000000E-03 0. -1.
         -4   -1    0    0    0  501 -0.00000000000E+00 -0.00000000000E+00 -0.97279206152E+01  0.98310141641E+01  0.14200000000E+01 0.  1.
         11    1    1    2    0    0 -0.32556817496E+02  0.81575337813E+02  0.49018784016E+03  0.49799457903E+03  0.51100000000E-03 0. -1.
         22    1    1    2    0    0 -0.52069818205E+01  0.88918492674E+01  0.32766071013E+02  0.34348115708E+02  0.00000000000E+00 0.  1.
         -4    1    1    2    0  501  0.37763799317E+02 -0.90467187080E+02  0.46749555161E+03  0.47766570282E+03  0.14200000000E+01 0.  1.
<mgrwt>
<rscale>  0 0.98043015E+02</rscale>
<asrwt>0</asrwt>
<pdfrwt beam="1">  1       11 0.10000000E+01 0.99538693E+02</pdfrwt>
<pdfrwt beam="2">  1       -4 0.15048778E-02 0.98043015E+02</pdfrwt>
<totfact> 0.58453069E+03</totfact>
</mgrwt>
</event>
<event>
 5    1  0.1490736E-003  0.2728125E+03  0.7818608E-02  0.1104287E+00
         11   -1    0    0    0    0  0.00000000000E+00  0.00000000000E+00  0.10000812283E+04  0.10000812283E+04  0.51100000000E-03 0. -1.
          4   -1    0    0  501    0 -0.00000000000E+00 -0.00000000000E+00 -0.12691281257E+03  0.12692075636E+03  0.14200000000E+01 0. -1.
         11    1    1    2    0    0 -0.10356757489E+02  0.59880424611E+02  0.12385661933E+03  0.13796155200E+03  0.51100000000E-03 0. -1.
         22    1    1    2    0    0  0.40498699093E+02  0.20320505280E+03  0.68621769687E+03  0.71681738651E+03  0.00000000000E+00 0. -1.
          4    1    1    2  501    0 -0.30141941605E+02 -0.26308547741E+03  0.63094099554E+02  0.27222304617E+03  0.14200000000E+01 0. -1.
<mgrwt>
<rscale>  0 0.26481035E+03</rscale>
<asrwt>0</asrwt>
<pdfrwt beam="1">  1       11 0.10000000E+01 0.27281246E+03</pdfrwt>
<pdfrwt beam="2">  1        4 0.19527322E-01 0.26481035E+03</pdfrwt>
<totfact> 0.10181758E+02</totfact>
</mgrwt>
</event>
<event>
 5    1  0.1490736E-003  0.6534559E+02  0.7818608E-02  0.1379882E+00
         11   -1    0    0    0    0  0.00000000000E+00  0.00000000000E+00  0.10001743639E+04  0.10001743639E+04  0.51100000000E-03 0. -1.
          4   -1    0    0  501    0 -0.00000000000E+00 -0.00000000000E+00 -0.47835834562E+01  0.49898968609E+01  0.14200000000E+01 0. -1.
         11    1    1    2    0    0 -0.17950706947E+02 -0.49463942862E+02  0.24091044369E+03  0.24659025002E+03  0.51100000000E-03 0. -1.
         22    1    1    2    0    0 -0.78422308855E+01 -0.96316285022E+01  0.73050497705E+02  0.74098880341E+02  0.00000000000E+00 0. -1.
          4    1    1    2  501    0  0.25792937832E+02  0.59095571364E+02  0.68142983907E+03  0.68447513043E+03  0.14200000000E+01 0. -1.
<mgrwt>
<rscale>  0 0.64494795E+02</rscale>
<asrwt>0</asrwt>
<pdfrwt beam="1">  1       11 0.10000000E+01 0.65345586E+02</pdfrwt>
<pdfrwt beam="2">  1        4 0.75201480E-03 0.64494795E+02</pdfrwt>
<totfact> 0.14891204E+04</totfact>
</mgrwt>
</event>
<event>
 5    1  0.1490736E-003  0.1924488E+03  0.7818608E-02  0.1156271E+00
         11   -1    0    0    0    0  0.00000000000E+00  0.00000000000E+00  0.10000233117E+04  0.10000233117E+04  0.51100000000E-03 0. -1.
          4   -1    0    0  501    0 -0.00000000000E+00 -0.00000000000E+00 -0.49044621412E+02  0.49065173896E+02  0.14200000000E+01 0. -1.
         11    1    1    2    0    0  0.19468717426E+03 -0.32914973742E+02  0.64799452857E+03  0.67740933000E+03  0.51100000000E-03 0. -1.
         22    1    1    2    0    0 -0.54576541330E+01  0.11013500298E+02  0.68365379530E+02  0.69461559842E+02  0.00000000000E+00 0.  1.
          4    1    1    2  501    0 -0.18922952013E+03  0.21901473444E+02  0.23461878220E+03  0.30221759577E+03  0.14200000000E+01 0. -1.
<mgrwt>
<rscale>  0 0.19244882E+03</rscale>
<asrwt>0</asrwt>
<pdfrwt beam="1">  1       11 0.10000000E+01 0.12291590E+02</pdfrwt>
<pdfrwt beam="2">  1        4 0.75471606E-02 0.19244882E+03</pdfrwt>
<totfact> 0.51197625E+02</totfact>
</mgrwt>
</event>
<event>
 5    1  0.1490736E-003  0.2088968E+03  0.7818608E-02  0.1145471E+00
         11   -1    0    0    0    0  0.00000000000E+00  0.00000000000E+00  0.10003132238E+04  0.10003132238E+04  0.51100000000E-03 0. -1.
          4   -1    0    0  501    0 -0.00000000000E+00 -0.00000000000E+00 -0.36654671580E+03  0.36654946633E+03  0.14200000000E+01 0.  1.
         11    1    1    2    0    0 -0.13240257114E+03  0.26556221445E+02  0.53873460232E+03  0.55540133730E+03  0.51100000000E-03 0. -1.
         22    1    1    2    0    0 -0.67952583969E+02  0.17484101484E+02  0.42073063454E+03  0.42654133951E+03  0.00000000000E+00 0. -1.
          4    1    1    2  501    0  0.20035515511E+03 -0.44040322930E+02 -0.32569872889E+03  0.38492001328E+03  0.14200000000E+01 0.  1.
<mgrwt>
<rscale>  0 0.20514325E+03</rscale>
<asrwt>0</asrwt>
<pdfrwt beam="1">  1       11 0.10000000E+01 0.20889682E+03</pdfrwt>
<pdfrwt beam="2">  1        4 0.56409753E-01 0.20514325E+03</pdfrwt>
<totfact> 0.12741135E+01</totfact>
</mgrwt>
</event>
<event>
 5    1  0.1490736E-003  0.1145846E+03  0.7818608E-02  0.1260911E+00
         11   -1    0    0    0    0  0.00000000000E+00  0.00000000000E+00  0.10000833819E+04  0.10000833819E+04  0.51100000000E-03 0. -1.
          4   -1    0    0  501    0 -0.00000000000E+00 -0.00000000000E+00 -0.12548502043E+02  0.12628590718E+02  0.14200000000E+01 0. -1.
         11    1    1    2    0    0 -0.52289722793E+02  0.55659147791E+02  0.36703085300E+03  0.37489172156E+03  0.51100000000E-03 0. -1.
         22    1    1    2    0    0 -0.36434041449E+02  0.90373081775E+01  0.14216242984E+03  0.14703492366E+03  0.00000000000E+00 0. -1.
          4    1    1    2  501    0  0.88723764242E+02 -0.64696455968E+02  0.47834159700E+03  0.49078532738E+03  0.14200000000E+01 0. -1.
<mgrwt>
<rscale>  0 0.10981600E+03</rscale>
<asrwt>0</asrwt>
<pdfrwt beam="1">  1       11 0.10000000E+01 0.11458457E+03</pdfrwt>
<pdfrwt beam="2">  1        4 0.19369384E-02 0.10981600E+03</pdfrwt>
<totfact> 0.40730292E+03</totfact>
</mgrwt>
</event>
<event>
 5    1  0.1490736E-003  0.1360946E+03  0.7818608E-02  0.1218683E+00
         11   -1    0    0    0    0  0.00000000000E+00  0.00000000000E+00  0.10002489870E+04  0.10002489870E+04  0.51100000000E-03 0.  1.
         -4   -1    0    0    0  501 -0.00000000000E+00 -0.00000000000E+00 -0.72789277118E+02  0.72803126741E+02  0.14200000000E+01 0. -1.
         11    1    1    2    0    0  0.13628748163E+02 -0.11500537625E+03  0.51001748317E+03  0.52300077675E+03  0.51100000000E-03 0.  1.
         22    1    1    2    0    0  0.94122670357E+02  0.19781885102E+02  0.39248384645E+03  0.40409648573E+03  0.00000000000E+00 0. -1.
         -4    1    1    2    0  501 -0.10775141852E+03  0.95223491146E+02  0.24958380251E+02  0.14595485125E+03  0.14200000000E+01 0. -1.
<mgrwt>
<rscale>  0 0.13609455E+03</rscale>
<asrwt>0</asrwt>
<pdfrwt beam="1">  1       11 0.10000000E+01 0.96179000E+02</pdfrwt>
<pdfrwt beam="2">  1       -4 0.11202281E-01 0.13609455E+03</pdfrwt>
<totfact> 0.25256572E+02</totfact>
</mgrwt>
</event>
<event>
 5    1  0.1490736E-003  0.1104640E+03  0.7818608E-02  0.1259713E+00
         11   -1    0    0    0    0  0.00000000000E+00  0.00000000000E+00  0.10003362037E+04  0.10003362037E+04  0.51100000000E-03 0.  1.
          4   -1    0    0  501    0 -0.00000000000E+00 -0.00000000000E+00 -0.98880750046E+03  0.98880852007E+03  0.14200000000E+01 0.  1.
         11    1    1    2    0    0 -0.17705609093E+02  0.63978288098E+02  0.70103773201E+02  0.96546615470E+02  0.51100000000E-03 0.  1.
         22    1    1    2    0    0 -0.30805332580E+02 -0.16302568874E+03  0.90633956968E+03  0.92139989107E+03  0.00000000000E+00 0.  1.
          4    1    1    2  501    0  0.48510941673E+02  0.99047400646E+02 -0.96491463962E+03  0.97119821725E+03  0.14200000000E+01 0.  1.
<mgrwt>
<rscale>  0 0.11046400E+03</rscale>
<asrwt>0</asrwt>
<pdfrwt beam="1">  1       11 0.10000000E+01 0.66383055E+02</pdfrwt>
<pdfrwt beam="2">  1        4 0.15217553E+00 0.11046400E+03</pdfrwt>
<totfact> 0.12847725E+00</totfact>
</mgrwt>
</event>
<event>
 5    1  0.1490736E-003  0.2564938E+02  0.7818608E-02  0.1708618E+00
         11   -1    0    0    0    0  0.00000000000E+00  0.00000000000E+00  0.10001979613E+04  0.10001979613E+04  0.51100000000E-03 0.  1.
          4   -1    0    0  501    0 -0.00000000000E+00 -0.00000000000E+00 -0.53804879309E+01  0.55647147613E+01  0.14200000000E+01 0.  1.
         11    1    1    2    0    0 -0.46612107914E+01  0.39665213146E+02  0.87479504562E+02  0.96165065063E+02  0.51100000000E-03 0.  1.
         22    1    1    2    0    0  0.10892365359E+02 -0.15328915740E+02  0.93577890901E+02  0.95448629882E+02  0.00000000000E+00 0.  1.
          4    1    1    2  501    0 -0.62311545673E+01 -0.24336297406E+02  0.81376007788E+03  0.81414898109E+03  0.14200000000E+01 0.  1.
<mgrwt>
<rscale>  0 0.21978830E+02</rscale>
<asrwt>0</asrwt>
<pdfrwt beam="1">  1       11 0.10000000E+01 0.25649380E+02</pdfrwt>
<pdfrwt beam="2">  1        4 0.84218287E-03 0.21978830E+02</pdfrwt>
<totfact> 0.89180365E+03</totfact>
</mgrwt>
</event>
<event>
 5    1  0.1490736E-003  0.1422211E+03  0.7818608E-02  0.1210371E+00
         11   -1    0    0    0    0  0.00000000000E+00  0.00000000000E+00  0.10000556867E+04  0.10000556867E+04  0.51100000000E-03 0. -1.
          4   -1    0    0  501    0 -0.00000000000E+00 -0.00000000000E+00 -0.37002156502E+02  0.37029393539E+02  0.14200000000E+01 0. -1.
         11    1    1    2    0    0 -0.93104950175E+01 -0.32985852073E+02  0.12944888205E+02  0.36637711246E+02  0.51100000000E-03 0. -1.
         22    1    1    2    0    0 -0.50801567437E+01 -0.11852805084E+03  0.68119566320E+03  0.69144937515E+03  0.00000000000E+00 0. -1.
          4    1    1    2  501    0  0.14390651761E+02  0.15151390292E+03  0.26891297876E+03  0.30899799382E+03  0.14200000000E+01 0. -1.
<mgrwt>
<rscale>  0 0.14222106E+03</rscale>
<asrwt>0</asrwt>
<pdfrwt beam="1">  1       11 0.10000000E+01 0.34274669E+02</pdfrwt>
<pdfrwt beam="2">  1        4 0.56951291E-02 0.14222106E+03</pdfrwt>
<totfact> 0.78028994E+02</totfact>
</mgrwt>
</event>
<event>
 5    1  0.1490736E-003  0.1662496E+04  0.7818608E-02  0.8785926E-01
         11   -1    0    0    0    0  0.00000000000E+00  0.00000000000E+00  0.99981592185E+03  0.99981592185E+03  0.51100000000E-03 0. -1.
         -4   -1    0    0    0  501 -0.00000000000E+00 -0.00000000000E+00 -0.28843177767E+04  0.28843181262E+04  0.14200000000E+01 0.  1.
         11    1    1    2    0    0 -0.13349322722E+04 -0.93847952273E+03 -0.13174865136E+04  0.20972741117E+04  0.51100000000E-03 0. -1.
         22    1    1    2    0    0 -0.29468939798E+02 -0.28121431938E+01 -0.35304229443E+02  0.46072933255E+02  0.00000000000E+00 0.  1.
         -4    1    1    2    0  501  0.13644012120E+04  0.94129166592E+03 -0.53171111181E+03  0.17407870032E+04  0.14200000000E+01 0.  1.
<mgrwt>
<rscale>  0 0.16575955E+04</rscale>
<asrwt>0</asrwt>
<pdfrwt beam="1">  1       11 0.10000000E+01 0.16624962E+04</pdfrwt>
<pdfrwt beam="2">  1       -4 0.44365961E+00 0.16575955E+04</pdfrwt>
<totfact> 0.13906779E-02</totfact>
</mgrwt>
</event>
<event>
 5    1  0.1490736E-003  0.1505949E+03  0.7818608E-02  0.1207191E+00
         11   -1    0    0    0    0  0.00000000000E+00  0.00000000000E+00  0.10004404161E+04  0.10004404161E+04  0.51100000000E-03 0. -1.
          4   -1    0    0  501    0 -0.00000000000E+00 -0.00000000000E+00 -0.22581341078E+02  0.22625944508E+02  0.14200000000E+01 0. -1.
         11    1    1    2    0    0 -0.55788126177E+02 -0.11435154934E+03  0.47762972087E+03  0.49428609339E+03  0.51100000000E-03 0. -1.
         22    1    1    2    0    0 -0.20594239945E+02 -0.84921988264E+01  0.11816100402E+03  0.12024251757E+03  0.00000000000E+00 0. -1.
          4    1    1    2  501    0  0.76382366122E+02  0.12284374817E+03  0.38206835012E+03  0.40853774964E+03  0.14200000000E+01 0. -1.
<mgrwt>
<rscale>  0 0.14466122E+03</rscale>
<asrwt>0</asrwt>
<pdfrwt beam="1">  1       11 0.10000000E+01 0.15059491E+03</pdfrwt>
<pdfrwt beam="2">  1        4 0.34790925E-02 0.14466122E+03</pdfrwt>
<totfact> 0.17209376E+03</totfact>
</mgrwt>
</event>
<event>
 5    1  0.1490736E-003  0.7282629E+02  0.7818608E-02  0.1562821E+00
         11   -1    0    0    0    0  0.00000000000E+00  0.00000000000E+00  0.10000415907E+04  0.10000415907E+04  0.51100000000E-03 0.  1.
          4   -1    0    0  501    0 -0.00000000000E+00 -0.00000000000E+00 -0.66188326997E+01  0.67694420971E+01  0.14200000000E+01 0.  1.
         11    1    1    2    0    0  0.67953481015E+02  0.11725560926E+02  0.37288553557E+03  0.37920810513E+03  0.51100000000E-03 0.  1.
         22    1    1    2    0    0  0.86286645013E+01 -0.12707577943E+02  0.63929976900E+02  0.65749359956E+02  0.00000000000E+00 0. -1.
          4    1    1    2  501    0 -0.76582145517E+02  0.98201701624E+00  0.55660724558E+03  0.56185356775E+03  0.14200000000E+01 0.  1.
<mgrwt>
<rscale>  0 0.33449066E+02</rscale>
<asrwt>0</asrwt>
<pdfrwt beam="1">  1       11 0.10000000E+01 0.72826293E+02</pdfrwt>
<pdfrwt beam="2">  1        4 0.10299876E-02 0.33449066E+02</pdfrwt>
<totfact> 0.77485617E+03</totfact>
</mgrwt>
</event>
<event>
 5    1  0.1490736E-003  0.5894686E+02  0.7818608E-02  0.1417120E+00
         11   -1    0    0    0    0  0.00000000000E+00  0.00000000000E+00  0.10004540562E+04  0.10004540562E+04  0.51100000000E-03 0. -1.
          4   -1    0    0  501    0 -0.00000000000E+00 -0.00000000000E+00 -0.42218193156E+01  0.44542292637E+01  0.14200000000E+01 0. -1.
         11    1    1    2    0    0  0.15289373874E+02 -0.14066050111E+02  0.60378579579E+02  0.63852890235E+02  0.51100000000E-03 0. -1.
         22    1    1    2    0    0  0.18020503217E+02 -0.30472421661E+02  0.20060648637E+03  0.20370633125E+03  0.00000000000E+00 0. -1.
          4    1    1    2  501    0 -0.33309877091E+02  0.44538471772E+02  0.73524717097E+03  0.73734906401E+03  0.14200000000E+01 0. -1.
<mgrwt>
<rscale>  0 0.55634879E+02</rscale>
<asrwt>0</asrwt>
<pdfrwt beam="1">  1       11 0.10000000E+01 0.58946860E+02</pdfrwt>
<pdfrwt beam="2">  1        4 0.66776892E-03 0.55634879E+02</pdfrwt>
<totfact> 0.17016108E+04</totfact>
</mgrwt>
</event>
<event>
 5    1  0.1490736E-003  0.1113281E+03  0.7818608E-02  0.1463286E+00
         11   -1    0    0    0    0  0.00000000000E+00  0.00000000000E+00  0.10004189983E+04  0.10004189983E+04  0.51100000000E-03 0.  1.
         -4   -1    0    0    0  501 -0.00000000000E+00 -0.00000000000E+00 -0.19129604245E+02  0.19182235495E+02  0.14200000000E+01 0. -1.
         11    1    1    2    0    0  0.46496140482E+02 -0.95480242391E+02  0.63336212263E+03  0.64220397550E+03  0.51100000000E-03 0.  1.
         22    1    1    2    0    0  0.12907493988E+02 -0.14868534011E+02  0.32718680890E+02  0.38186238147E+02  0.00000000000E+00 0.  1.
         -4    1    1    2    0  501 -0.59403634469E+02  0.11034877640E+03  0.31520859052E+03  0.33921102013E+03  0.14200000000E+01 0. -1.
<mgrwt>
<rscale>  0 0.46820654E+02</rscale>
<asrwt>0</asrwt>
<pdfrwt beam="1">  1       11 0.10000000E+01 0.11132809E+03</pdfrwt>
<pdfrwt beam="2">  1       -4 0.29483769E-02 0.46820654E+02</pdfrwt>
<totfact> 0.17788933E+03</totfact>
</mgrwt>
</event>
<event>
 5    1  0.1490736E-003  0.6581641E+02  0.7818608E-02  0.1553849E+00
         11   -1    0    0    0    0  0.00000000000E+00  0.00000000000E+00  0.99975203006E+03  0.99975203006E+03  0.51100000000E-03 0. -1.
          4   -1    0    0  501    0 -0.00000000000E+00 -0.00000000000E+00 -0.92992485304E+01  0.94070411518E+01  0.14200000000E+01 0. -1.
         11    1    1    2    0    0  0.74578294350E+02  0.45224379936E+01  0.19939771685E+03  0.21293619683E+03  0.51100000000E-03 0. -1.
         22    1    1    2    0    0 -0.11083202245E+02 -0.14173306336E+02  0.68700424078E+02  0.71017379936E+02  0.00000000000E+00 0.  1.
          4    1    1    2  501    0 -0.63495092104E+02  0.96508683426E+01  0.72235464060E+03  0.72520549445E+03  0.14200000000E+01 0. -1.
<mgrwt>
<rscale>  0 0.34415961E+02</rscale>
<asrwt>0</asrwt>
<pdfrwt beam="1">  1       11 0.10000000E+01 0.65816412E+02</pdfrwt>
<pdfrwt beam="2">  1        4 0.14386661E-02 0.34415961E+02</pdfrwt>
<totfact> 0.47915434E+03</totfact>
</mgrwt>
</event>
<event>
 5    1  0.1490736E-003  0.3538607E+02  0.7818608E-02  0.1745898E+00
         11   -1    0    0    0    0  0.00000000000E+00  0.00000000000E+00  0.10002226387E+04  0.10002226387E+04  0.51100000000E-03 0. -1.
          4   -1    0    0  501    0 -0.00000000000E+00 -0.00000000000E+00 -0.52890099724E+01  0.54763150464E+01  0.14200000000E+01 0. -1.
         11    1    1    2    0    0 -0.70106047109E+01  0.24757221968E+02  0.32730106476E+02  0.41633261801E+02  0.51100000000E-03 0. -1.
         22    1    1    2    0    0  0.20029164736E+01  0.11082939835E+02  0.55087600036E+02  0.56227101183E+02  0.00000000000E+00 0.  1.
          4    1    1    2  501    0  0.50076882372E+01 -0.35840161803E+02  0.90711592224E+03  0.90783859078E+03  0.14200000000E+01 0. -1.
<mgrwt>
<rscale>  0 0.19971357E+02</rscale>
<asrwt>0</asrwt>
<pdfrwt beam="1">  1       11 0.10000000E+01 0.35386068E+02</pdfrwt>
<pdfrwt beam="2">  1        4 0.82836382E-03 0.19971357E+02</pdfrwt>
<totfact> 0.87855384E+03</totfact>
</mgrwt>
</event>
<event>
 5    1  0.1490736E-003  0.1417352E+03  0.7818608E-02  0.1216174E+00
         11   -1    0    0    0    0  0.00000000000E+00  0.00000000000E+00  0.10002848521E+04  0.10002848521E+04  0.51100000000E-03 0. -1.
          4   -1    0    0  501    0 -0.00000000000E+00 -0.00000000000E+00 -0.20475255138E+02  0.20524435996E+02  0.14200000000E+01 0. -1.
         11    1    1    2    0    0 -0.74603637696E+02  0.45466495064E+02  0.31377403042E+03  0.32571006600E+03  0.51100000000E-03 0. -1.
         22    1    1    2    0    0 -0.47304269440E+02  0.18990212808E+02  0.29273797347E+03  0.29714279935E+03  0.00000000000E+00 0. -1.
          4    1    1    2  501    0  0.12190790714E+03 -0.64456707872E+02  0.37329759304E+03  0.39795642272E+03  0.14200000000E+01 0. -1.
<mgrwt>
<rscale>  0 0.13790657E+03</rscale>
<asrwt>0</asrwt>
<pdfrwt beam="1">  1       11 0.10000000E+01 0.14173525E+03</pdfrwt>
<pdfrwt beam="2">  1        4 0.31547982E-02 0.13790657E+03</pdfrwt>
<totfact> 0.19920644E+03</totfact>
</mgrwt>
</event>
<event>
 5    1  0.1490736E-003  0.1585635E+03  0.7818608E-02  0.1201493E+00
         11   -1    0    0    0    0  0.00000000000E+00  0.00000000000E+00  0.10002268404E+04  0.10002268404E+04  0.51100000000E-03 0.  1.
         -4   -1    0    0    0  501 -0.00000000000E+00 -0.00000000000E+00 -0.56873177732E+02  0.56890902132E+02  0.14200000000E+01 0. -1.
         11    1    1    2    0    0 -0.12384137653E+02 -0.32010280892E+02  0.14154486214E+03  0.14564674025E+03  0.51100000000E-03 0.  1.
         22    1    1    2    0    0 -0.11044534547E+03 -0.52627140349E+02  0.73992495407E+03  0.74997115138E+03  0.00000000000E+00 0.  1.
         -4    1    1    2    0  501  0.12282948313E+03  0.84637421241E+02  0.61883846509E+02  0.16149985095E+03  0.14200000000E+01 0. -1.
<mgrwt>
<rscale>  0 0.14917303E+03</rscale>
<asrwt>0</asrwt>
<pdfrwt beam="1">  1       11 0.10000000E+01 0.15856346E+03</pdfrwt>
<pdfrwt beam="2">  1       -4 0.87531455E-02 0.14917303E+03</pdfrwt>
<totfact> 0.38724435E+02</totfact>
</mgrwt>
</event>
<event>
 5    1  0.1490736E-003  0.9592247E+02  0.7818608E-02  0.1294034E+00
         11   -1    0    0    0    0  0.00000000000E+00  0.00000000000E+00  0.10003993967E+04  0.10003993967E+04  0.51100000000E-03 0. -1.
          4   -1    0    0  501    0 -0.00000000000E+00 -0.00000000000E+00 -0.92308615156E+01  0.93394434695E+01  0.14200000000E+01 0.  1.
         11    1    1    2    0    0  0.38333484570E+02 -0.54967559258E+02  0.26999991681E+03  0.27819209854E+03  0.51100000000E-03 0. -1.
         22    1    1    2    0    0  0.52311722048E+01 -0.28024900970E+02  0.14095658321E+03  0.14381070401E+03  0.00000000000E+00 0.  1.
          4    1    1    2  501    0 -0.43564656774E+02  0.82992460228E+02  0.58021203515E+03  0.58773603762E+03  0.14200000000E+01 0.  1.
<mgrwt>
<rscale>  0 0.93742435E+02</rscale>
<asrwt>0</asrwt>
<pdfrwt beam="1">  1       11 0.10000000E+01 0.95922471E+02</pdfrwt>
<pdfrwt beam="2">  1        4 0.14291330E-02 0.93742435E+02</pdfrwt>
<totfact> 0.62602451E+03</totfact>
</mgrwt>
</event>
<event>
 5    1  0.1490736E-003  0.1607444E+03  0.7818608E-02  0.1189621E+00
         11   -1    0    0    0    0  0.00000000000E+00  0.00000000000E+00  0.10004740670E+04  0.10004740670E+04  0.51100000000E-03 0.  1.
         -4   -1    0    0    0  501 -0.00000000000E+00 -0.00000000000E+00 -0.27157957665E+02  0.27195055884E+02  0.14200000000E+01 0. -1.
         11    1    1    2    0    0  0.94837372414E+02  0.10648680623E+03  0.51829743184E+03  0.53755538780E+03  0.51100000000E-03 0.  1.
         22    1    1    2    0    0  0.96258979945E+01  0.13616957015E+02  0.95292688570E+02  0.96740766616E+02  0.00000000000E+00 0.  1.
         -4    1    1    2    0  501 -0.10446327041E+03 -0.12010376325E+03  0.35972598895E+03  0.39337296849E+03  0.14200000000E+01 0. -1.
<mgrwt>
<rscale>  0 0.15918387E+03</rscale>
<asrwt>0</asrwt>
<pdfrwt beam="1">  1       11 0.10000000E+01 0.16074444E+03</pdfrwt>
<pdfrwt beam="2">  1       -4 0.41830606E-02 0.15918387E+03</pdfrwt>
<totfact> 0.13037365E+03</totfact>
</mgrwt>
</event>
<event>
 5    1  0.1490736E-003  0.9762616E+02  0.7818608E-02  0.1292702E+00
         11   -1    0    0    0    0  0.00000000000E+00  0.00000000000E+00  0.10003530508E+04  0.10003530508E+04  0.51100000000E-03 0.  1.
          4   -1    0    0  501    0 -0.00000000000E+00 -0.00000000000E+00 -0.10113849433E+02  0.10213048044E+02  0.14200000000E+01 0.  1.
         11    1    1    2    0    0 -0.81120276422E+02  0.45042786493E+01  0.26864057421E+03  0.28065734603E+03  0.51100000000E-03 0.  1.
         22    1    1    2    0    0 -0.12254051917E+02  0.87844436044E+01  0.79263046453E+02  0.80684315519E+02  0.00000000000E+00 0.  1.
          4    1    1    2  501    0  0.93374328340E+02 -0.13288722254E+02  0.64233558069E+03  0.64922443727E+03  0.14200000000E+01 0.  1.
<mgrwt>
<rscale>  0 0.94325880E+02</rscale>
<asrwt>0</asrwt>
<pdfrwt beam="1">  1       11 0.10000000E+01 0.97626160E+02</pdfrwt>
<pdfrwt beam="2">  1        4 0.15642370E-02 0.94325880E+02</pdfrwt>
<totfact> 0.54678221E+03</totfact>
</mgrwt>
</event>
<event>
 5    1  0.1490736E-003  0.1550560E+03  0.7818608E-02  0.1196113E+00
         11   -1    0    0    0    0  0.00000000000E+00  0.00000000000E+00  0.10002381257E+04  0.10002381257E+04  0.51100000000E-03 0. -1.
         -4   -1    0    0    0  501 -0.00000000000E+00 -0.00000000000E+00 -0.26335823086E+02  0.26374077759E+02  0.14200000000E+01 0. -1.
         11    1    1    2    0    0 -0.28483314541E+01 -0.13566888362E+03  0.54784526842E+03  0.56440109595E+03  0.51100000000E-03 0. -1.
         22    1    1    2    0    0 -0.61593201921E+01 -0.17664520884E+02  0.10062995231E+03  0.10235409042E+03  0.00000000000E+00 0.  1.
         -4    1    1    2    0  501  0.90076516462E+01  0.15333340451E+03  0.32542708185E+03  0.35985701706E+03  0.14200000000E+01 0. -1.
<mgrwt>
<rscale>  0 0.15360432E+03</rscale>
<asrwt>0</asrwt>
<pdfrwt beam="1">  1       11 0.10000000E+01 0.15505601E+03</pdfrwt>
<pdfrwt beam="2">  1       -4 0.40556507E-02 0.15360432E+03</pdfrwt>
<totfact> 0.13621882E+03</totfact>
</mgrwt>
</event>
<event>
 5    1  0.1490736E-003  0.7157956E+02  0.7818608E-02  0.1365644E+00
         11   -1    0    0    0    0  0.00000000000E+00  0.00000000000E+00  0.10001901195E+04  0.10001901195E+04  0.51100000000E-03 0.  1.
          4   -1    0    0  501    0 -0.00000000000E+00 -0.00000000000E+00 -0.54728822769E+01  0.56540994346E+01  0.14200000000E+01 0.  1.
         11    1    1    2    0    0  0.20173469339E+02  0.50177941436E+02  0.23487273920E+03  0.24101866793E+03  0.51100000000E-03 0.  1.
         22    1    1    2    0    0 -0.44874749549E+01  0.16376872942E+02  0.98382992262E+02  0.99837631008E+02  0.00000000000E+00 0.  1.
          4    1    1    2  501    0 -0.15685994384E+02 -0.66554814377E+02  0.66146150581E+03  0.66498792004E+03  0.14200000000E+01 0.  1.
<mgrwt>
<rscale>  0 0.68393056E+02</rscale>
<asrwt>0</asrwt>
<pdfrwt beam="1">  1       11 0.10000000E+01 0.71579564E+02</pdfrwt>
<pdfrwt beam="2">  1        4 0.85616193E-03 0.68393056E+02</pdfrwt>
<totfact> 0.12490423E+04</totfact>
</mgrwt>
</event>
<event>
 5    1  0.1490736E-003  0.8939374E+02  0.7818608E-02  0.1322191E+00
         11   -1    0    0    0    0  0.00000000000E+00  0.00000000000E+00  0.99999437613E+03  0.99999437613E+03  0.51100000000E-03 0. -1.
          4   -1    0    0  501    0 -0.00000000000E+00 -0.00000000000E+00 -0.10674595430E+02  0.10768629792E+02  0.14200000000E+01 0. -1.
         11    1    1    2    0    0  0.23706718802E+02  0.12892299228E+02  0.37748312316E+02  0.46402101016E+02  0.51100000000E-03 0. -1.
         22    1    1    2    0    0  0.36457316335E+02  0.43491991504E+02  0.18881604167E+03  0.19716030744E+03  0.00000000000E+00 0. -1.
          4    1    1    2  501    0 -0.60164035137E+02 -0.56384290732E+02  0.76275542672E+03  0.76720059747E+03  0.14200000000E+01 0. -1.
<mgrwt>
<rscale>  0 0.82467665E+02</rscale>
<asrwt>0</asrwt>
<pdfrwt beam="1">  1       11 0.10000000E+01 0.89393738E+02</pdfrwt>
<pdfrwt beam="2">  1        4 0.16495471E-02 0.82467665E+02</pdfrwt>
<totfact> 0.49007599E+03</totfact>
</mgrwt>
</event>
<event>
 5    1  0.1490736E-003  0.1177577E+03  0.7818608E-02  0.1246843E+00
         11   -1    0    0    0    0  0.00000000000E+00  0.00000000000E+00  0.10002975798E+04  0.10002975798E+04  0.51100000000E-03 0.  1.
          4   -1    0    0  501    0 -0.00000000000E+00 -0.00000000000E+00 -0.47706669820E+02  0.47727798455E+02  0.14200000000E+01 0.  1.
         11    1    1    2    0    0 -0.47106347762E+02 -0.84247191155E+02  0.34765223315E+03  0.36080281655E+03  0.51100000000E-03 0.  1.
         22    1    1    2    0    0 -0.79827574403E+02  0.46721557566E+02  0.52392520755E+03  0.53202722551E+03  0.00000000000E+00 0.  1.
          4    1    1    2  501    0  0.12693392217E+03  0.37525633588E+02  0.81013469284E+02  0.15519533620E+03  0.14200000000E+01 0.  1.
<mgrwt>
<rscale>  0 0.11775773E+03</rscale>
<asrwt>0</asrwt>
<pdfrwt beam="1">  1       11 0.10000000E+01 0.92495111E+02</pdfrwt>
<pdfrwt beam="2">  1        4 0.73433749E-02 0.11775773E+03</pdfrwt>
<totfact> 0.50140867E+02</totfact>
</mgrwt>
</event>
<event>
 5    1  0.1490736E-003  0.3189194E+03  0.7818608E-02  0.1078157E+00
         11   -1    0    0    0    0  0.00000000000E+00  0.00000000000E+00  0.10004367772E+04  0.10004367772E+04  0.51100000000E-03 0. -1.
         -4   -1    0    0    0  501 -0.00000000000E+00 -0.00000000000E+00 -0.10676637181E+03  0.10677581444E+03  0.14200000000E+01 0. -1.
         11    1    1    2    0    0  0.25839101671E+03  0.14488454574E+03  0.55511328297E+03  0.62921236959E+03  0.51100000000E-03 0. -1.
         22    1    1    2    0    0  0.96524100850E+01  0.19828082758E+02  0.30909626983E+02  0.37970079359E+02  0.00000000000E+00 0.  1.
         -4    1    1    2    0  501 -0.26804342679E+03 -0.16471262849E+03  0.30764749543E+03  0.44003014269E+03  0.14200000000E+01 0. -1.
<mgrwt>
<rscale>  0 0.31461015E+03</rscale>
<asrwt>0</asrwt>
<pdfrwt beam="1">  1       11 0.10000000E+01 0.31891938E+03</pdfrwt>
<pdfrwt beam="2">  1       -4 0.16433574E-01 0.31461015E+03</pdfrwt>
<totfact> 0.14095337E+02</totfact>
</mgrwt>
</event>
<event>
 5    1  0.1490736E-003  0.2283237E+03  0.7818608E-02  0.1127825E+00
         11   -1    0    0    0    0  0.00000000000E+00  0.00000000000E+00  0.10000912711E+04  0.10000912711E+04  0.51100000000E-03 0. -1.
          4   -1    0    0  501    0 -0.00000000000E+00 -0.00000000000E+00 -0.10075466124E+03  0.10076466723E+03  0.14200000000E+01 0. -1.
         11    1    1    2    0    0 -0.15648263047E+03  0.91494187283E+02  0.34720664754E+03  0.39167646859E+03  0.51100000000E-03 0. -1.
         22    1    1    2    0    0 -0.90079004723E+02 -0.11267088653E+02  0.39652159318E+03  0.40678071271E+03  0.00000000000E+00 0.  1.
          4    1    1    2  501    0  0.24656163520E+03 -0.80227098630E+02  0.15560836913E+03  0.30239875702E+03  0.14200000000E+01 0. -1.
<mgrwt>
<rscale>  0 0.22832370E+03</rscale>
<asrwt>0</asrwt>
<pdfrwt beam="1">  1       11 0.10000000E+01 0.90780914E+02</pdfrwt>
<pdfrwt beam="2">  1        4 0.15502979E-01 0.22832370E+03</pdfrwt>
<totfact> 0.15204113E+02</totfact>
</mgrwt>
</event>
<event>
 5    1  0.1490736E-003  0.3286443E+02  0.7818608E-02  0.1574738E+00
         11   -1    0    0    0    0  0.00000000000E+00  0.00000000000E+00  0.10002328139E+04  0.10002328139E+04  0.51100000000E-03 0. -1.
          4   -1    0    0  501    0 -0.00000000000E+00 -0.00000000000E+00 -0.44245098495E+01  0.46467932392E+01  0.14200000000E+01 0. -1.
         11    1    1    2    0    0 -0.79768093535E-01  0.17917356950E+02  0.38321842337E+02  0.42303683568E+02  0.51100000000E-03 0. -1.
         22    1    1    2    0    0 -0.32608170467E+01  0.14100814793E+02  0.20824914356E+02  0.25360263476E+02  0.00000000000E+00 0. -1.
          4    1    1    2  501    0  0.33405851403E+01 -0.32018171743E+02  0.93666154737E+03  0.93721566011E+03  0.14200000000E+01 0. -1.
<mgrwt>
<rscale>  0 0.32223272E+02</rscale>
<asrwt>0</asrwt>
<pdfrwt beam="1">  1       11 0.10000000E+01 0.32864432E+02</pdfrwt>
<pdfrwt beam="2">  1        4 0.69803253E-03 0.32223272E+02</pdfrwt>
<totfact> 0.13449014E+04</totfact>
</mgrwt>
</event>
<event>
 5    1  0.1490736E-003  0.3630978E+02  0.7818608E-02  0.1549047E+00
         11   -1    0    0    0    0  0.00000000000E+00  0.00000000000E+00  0.10003330491E+04  0.10003330491E+04  0.51100000000E-03 0. -1.
          4   -1    0    0  501    0 -0.00000000000E+00 -0.00000000000E+00 -0.23913054302E+01  0.27811403526E+01  0.14200000000E+01 0. -1.
         11    1    1    2    0    0 -0.22548435521E+02 -0.88871690906E+01  0.83878524086E+02  0.87309910789E+02  0.51100000000E-03 0. -1.
         22    1    1    2    0    0 -0.80590351467E+01 -0.79252381934E+01  0.61825186028E+02  0.62849909111E+02  0.00000000000E+00 0.  1.
          4    1    1    2  501    0  0.30607470667E+02  0.16812407284E+02  0.85223803351E+03  0.85295436950E+03  0.14200000000E+01 0. -1.
<mgrwt>
<rscale>  0 0.34949831E+02</rscale>
<asrwt>0</asrwt>
<pdfrwt beam="1">  1       11 0.10000000E+01 0.36309783E+02</pdfrwt>
<pdfrwt beam="2">  1        4 0.39809050E-03 0.34949831E+02</pdfrwt>
<totfact> 0.30955417E+04</totfact>
</mgrwt>
</event>
<event>
 5    1  0.1490736E-003  0.1466043E+03  0.7818608E-02  0.1207554E+00
         11   -1    0    0    0    0  0.00000000000E+00  0.00000000000E+00  0.10002363804E+04  0.10002363804E+04  0.51100000000E-03 0.  1.
          4   -1    0    0  501    0 -0.00000000000E+00 -0.00000000000E+00 -0.23141395288E+02  0.23184921304E+02  0.14200000000E+01 0.  1.
         11    1    1    2    0    0  0.63850061060E+02 -0.11728597324E+03  0.58777605555E+03  0.60275494299E+03  0.51100000000E-03 0.  1.
         22    1    1    2    0    0  0.11727111566E+02 -0.57247254298E+01  0.54567659003E+02  0.56106390331E+02  0.00000000000E+00 0. -1.
          4    1    1    2  501    0 -0.75577172626E+02  0.12301069867E+03  0.33475127058E+03  0.36455996841E+03  0.14200000000E+01 0.  1.
<mgrwt>
<rscale>  0 0.14437991E+03</rscale>
<asrwt>0</asrwt>
<pdfrwt beam="1">  1       11 0.10000000E+01 0.14660426E+03</pdfrwt>
<pdfrwt beam="2">  1        4 0.35644826E-02 0.14437991E+03</pdfrwt>
<totfact> 0.16557226E+03</totfact>
</mgrwt>
</event>
<event>
 5    1  0.1490736E-003  0.2218985E+02  0.7818608E-02  0.1821241E+00
         11   -1    0    0    0    0  0.00000000000E+00  0.00000000000E+00  0.10003030797E+04  0.10003030797E+04  0.51100000000E-03 0.  1.
          4   -1    0    0  501    0 -0.00000000000E+00 -0.00000000000E+00 -0.47062109885E+01  0.49157727641E+01  0.14200000000E+01 0.  1.
         11    1    1    2    0    0  0.20923351661E+02 -0.18632168962E+02  0.45674062908E+02  0.53582314132E+02  0.51100000000E-03 0.  1.
         22    1    1    2    0    0  0.28175467056E+00  0.12481153430E+02  0.53367863894E+02  0.54808644147E+02  0.00000000000E+00 0.  1.
          4    1    1    2  501    0 -0.21205106331E+02  0.61510155319E+01  0.89655494191E+03  0.89682789419E+03  0.14200000000E+01 0.  1.
<mgrwt>
<rscale>  0 0.16661093E+02</rscale>
<asrwt>0</asrwt>
<pdfrwt beam="1">  1       11 0.10000000E+01 0.22189853E+02</pdfrwt>
<pdfrwt beam="2">  1        4 0.74045445E-03 0.16661093E+02</pdfrwt>
<totfact> 0.95257323E+03</totfact>
</mgrwt>
</event>
<event>
 5    1  0.1490736E-003  0.4250092E+02  0.7818608E-02  0.1497600E+00
         11   -1    0    0    0    0  0.00000000000E+00  0.00000000000E+00  0.10003459943E+04  0.10003459943E+04  0.51100000000E-03 0.  1.
          4   -1    0    0  501    0 -0.00000000000E+00 -0.00000000000E+00 -0.26802539542E+01  0.30331767603E+01  0.14200000000E+01 0.  1.
         11    1    1    2    0    0  0.16024911189E+02  0.18274897633E+02  0.13187598049E+03  0.13409714349E+03  0.51100000000E-03 0.  1.
         22    1    1    2    0    0  0.13144557297E+02  0.11180913576E+02  0.60184551038E+02  0.62609682946E+02  0.00000000000E+00 0.  1.
          4    1    1    2  501    0 -0.29169468486E+02 -0.29455811209E+02  0.80560520884E+03  0.80667234465E+03  0.14200000000E+01 0.  1.
<mgrwt>
<rscale>  0 0.41479141E+02</rscale>
<asrwt>0</asrwt>
<pdfrwt beam="1">  1       11 0.10000000E+01 0.42500915E+02</pdfrwt>
<pdfrwt beam="2">  1        4 0.43972427E-03 0.41479141E+02</pdfrwt>
<totfact> 0.28474780E+04</totfact>
</mgrwt>
</event>
<event>
 5    1  0.1490736E-003  0.2659742E+02  0.7818608E-02  0.1653290E+00
         11   -1    0    0    0    0  0.00000000000E+00  0.00000000000E+00  0.99990126730E+03  0.99990126730E+03  0.51100000000E-03 0. -1.
         -4   -1    0    0    0  501 -0.00000000000E+00 -0.00000000000E+00 -0.12277049255E+01  0.18771412797E+01  0.14200000000E+01 0. -1.
         11    1    1    2    0    0 -0.13137970408E+02 -0.35882627841E+01  0.67782882569E+02  0.69137551778E+02  0.51100000000E-03 0. -1.
         22    1    1    2    0    0 -0.12366051846E+02  0.38932581009E+01  0.60412123070E+02  0.61787549803E+02  0.00000000000E+00 0. -1.
         -4    1    1    2    0  501  0.25504022254E+02 -0.30499531677E+00  0.87047855674E+03  0.87085330700E+03  0.14200000000E+01 0. -1.
<mgrwt>
<rscale>  0 0.25545343E+02</rscale>
<asrwt>0</asrwt>
<pdfrwt beam="1">  1       11 0.10000000E+01 0.26597420E+02</pdfrwt>
<pdfrwt beam="2">  1       -4 0.23888829E-03 0.25545343E+02</pdfrwt>
<totfact> 0.56366461E+04</totfact>
</mgrwt>
</event>
<event>
 5    1  0.1490736E-003  0.9739507E+02  0.7818608E-02  0.1285871E+00
         11   -1    0    0    0    0  0.00000000000E+00  0.00000000000E+00  0.10002455807E+04  0.10002455807E+04  0.51100000000E-03 0.  1.
          4   -1    0    0  501    0 -0.00000000000E+00 -0.00000000000E+00 -0.13879962474E+02  0.13952410483E+02  0.14200000000E+01 0.  1.
         11    1    1    2    0    0  0.79131715007E+02 -0.53159244345E+02  0.28814962091E+03  0.30350936989E+03  0.51100000000E-03 0.  1.
         22    1    1    2    0    0 -0.11922665358E+02 -0.25967769214E+02  0.13676766461E+03  0.13972068232E+03  0.00000000000E+00 0. -1.
          4    1    1    2  501    0 -0.67209049649E+02  0.79127013559E+02  0.56144833267E+03  0.57096793894E+03  0.14200000000E+01 0.  1.
<mgrwt>
<rscale>  0 0.97395072E+02</rscale>
<asrwt>0</asrwt>
<pdfrwt beam="1">  1       11 0.10000000E+01 0.28574026E+02</pdfrwt>
<pdfrwt beam="2">  1        4 0.21415550E-02 0.97395072E+02</pdfrwt>
<totfact> 0.34097982E+03</totfact>
</mgrwt>
</event>
<event>
 5    1  0.1490736E-003  0.1203728E+03  0.7818608E-02  0.1242483E+00
         11   -1    0    0    0    0  0.00000000000E+00  0.00000000000E+00  0.10002430876E+04  0.10002430876E+04  0.51100000000E-03 0. -1.
          4   -1    0    0  501    0 -0.00000000000E+00 -0.00000000000E+00 -0.25902647662E+02  0.25941541125E+02  0.14200000000E+01 0. -1.
         11    1    1    2    0    0  0.58653891449E+02 -0.14038576294E+02  0.21398291121E+03  0.22231969525E+03  0.51100000000E-03 0. -1.
         22    1    1    2    0    0  0.12436409427E+02 -0.11110864640E+03  0.25551874807E+03  0.27890791706E+03  0.00000000000E+00 0. -1.
          4    1    1    2  501    0 -0.71090300876E+02  0.12514722269E+03  0.50483878068E+03  0.52495701644E+03  0.14200000000E+01 0. -1.
<mgrwt>
<rscale>  0 0.12037284E+03</rscale>
<asrwt>0</asrwt>
<pdfrwt beam="1">  1       11 0.10000000E+01 0.60310535E+02</pdfrwt>
<pdfrwt beam="2">  1        4 0.39890614E-02 0.12037284E+03</pdfrwt>
<totfact> 0.13450544E+03</totfact>
</mgrwt>
</event>
<event>
 5    1  0.1490736E-003  0.9497916E+02  0.7818608E-02  0.1588976E+00
         11   -1    0    0    0    0  0.00000000000E+00  0.00000000000E+00  0.10001133656E+04  0.10001133656E+04  0.51100000000E-03 0. -1.
          4   -1    0    0  501    0 -0.00000000000E+00 -0.00000000000E+00 -0.10772060679E+03  0.10772996578E+03  0.14200000000E+01 0. -1.
         11    1    1    2    0    0  0.70734265429E+02  0.41783218865E+02  0.38438581661E+03  0.39306695320E+03  0.51100000000E-03 0. -1.
         22    1    1    2    0    0 -0.86449227848E+02 -0.68281949143E+02  0.60399306459E+03  0.61395725881E+03  0.00000000000E+00 0. -1.
          4    1    1    2  501    0  0.15714962419E+02  0.26498730278E+02 -0.95986122367E+02  0.10081911940E+03  0.14200000000E+01 0. -1.
<mgrwt>
<rscale>  0 0.30840868E+02</rscale>
<asrwt>0</asrwt>
<pdfrwt beam="1">  1       11 0.10000000E+01 0.94979156E+02</pdfrwt>
<pdfrwt beam="2">  1        4 0.16575077E-01 0.30840868E+02</pdfrwt>
<totfact> 0.10260194E+02</totfact>
</mgrwt>
</event>
<event>
 5    1  0.1490736E-003  0.6754349E+02  0.7818608E-02  0.1472477E+00
         11   -1    0    0    0    0  0.00000000000E+00  0.00000000000E+00  0.10000405861E+04  0.10000405861E+04  0.51100000000E-03 0.  1.
          4   -1    0    0  501    0 -0.00000000000E+00 -0.00000000000E+00 -0.12173253402E+02  0.12255794482E+02  0.14200000000E+01 0.  1.
         11    1    1    2    0    0  0.65042988417E+02 -0.14729206735E+02  0.17838495815E+03  0.19044351700E+03  0.51100000000E-03 0.  1.
         22    1    1    2    0    0  0.23337152899E+01  0.30285305680E+02  0.45264751053E+02  0.54511867103E+02  0.00000000000E+00 0.  1.
          4    1    1    2  501    0 -0.67376703707E+02 -0.15556098945E+02  0.76421762354E+03  0.76734099652E+03  0.14200000000E+01 0.  1.
<mgrwt>
<rscale>  0 0.45300021E+02</rscale>
<asrwt>0</asrwt>
<pdfrwt beam="1">  1       11 0.10000000E+01 0.67543493E+02</pdfrwt>
<pdfrwt beam="2">  1        4 0.18793113E-02 0.45300021E+02</pdfrwt>
<totfact> 0.34846687E+03</totfact>
</mgrwt>
</event>
<event>
 5    1  0.1490736E-003  0.7873305E+02  0.7818608E-02  0.1340108E+00
         11   -1    0    0    0    0  0.00000000000E+00  0.00000000000E+00  0.10001722498E+04  0.10001722498E+04  0.51100000000E-03 0. -1.
          4   -1    0    0  501    0 -0.00000000000E+00 -0.00000000000E+00 -0.84005306270E+01  0.85197015684E+01  0.14200000000E+01 0. -1.
         11    1    1    2    0    0 -0.49299893554E+01  0.60743756467E+02  0.15721108884E+03  0.16861030574E+03  0.51100000000E-03 0. -1.
         22    1    1    2    0    0 -0.60637375855E+01  0.14674577132E+02  0.72521771121E+02  0.74239608122E+02  0.00000000000E+00 0. -1.
          4    1    1    2  501    0  0.10993726941E+02 -0.75418333599E+02  0.76203885916E+03  0.76584203746E+03  0.14200000000E+01 0. -1.
<mgrwt>
<rscale>  0 0.76228626E+02</rscale>
<asrwt>0</asrwt>
<pdfrwt beam="1">  1       11 0.10000000E+01 0.78733053E+02</pdfrwt>
<pdfrwt beam="2">  1        4 0.13018580E-02 0.76228626E+02</pdfrwt>
<totfact> 0.68765895E+03</totfact>
</mgrwt>
</event>
<event>
 5    1  0.1490736E-003  0.1655457E+03  0.7818608E-02  0.1188662E+00
         11   -1    0    0    0    0  0.00000000000E+00  0.00000000000E+00  0.10000416840E+04  0.10000416840E+04  0.51100000000E-03 0. -1.
          4   -1    0    0  501    0 -0.00000000000E+00 -0.00000000000E+00 -0.26829220057E+02  0.26866772208E+02  0.14200000000E+01 0. -1.
         11    1    1    2    0    0  0.18998277050E+02 -0.28217313758E+02  0.15016769544E+03  0.15397236141E+03  0.51100000000E-03 0. -1.
         22    1    1    2    0    0  0.62924694426E+02 -0.10924718458E+03  0.28599375423E+03  0.31254902330E+03  0.00000000000E+00 0. -1.
          4    1    1    2  501    0 -0.81922971475E+02  0.13746449834E+03  0.53705101424E+03  0.56038707146E+03  0.14200000000E+01 0. -1.
<mgrwt>
<rscale>  0 0.16003087E+03</rscale>
<asrwt>0</asrwt>
<pdfrwt beam="1">  1       11 0.10000000E+01 0.16554574E+03</pdfrwt>
<pdfrwt beam="2">  1        4 0.41307106E-02 0.16003087E+03</pdfrwt>
<totfact> 0.13312954E+03</totfact>
</mgrwt>
</event>
<event>
 5    1  0.1490736E-003  0.6396236E+02  0.7818608E-02  0.1559956E+00
         11   -1    0    0    0    0  0.00000000000E+00  0.00000000000E+00  0.99998852929E+03  0.99998852929E+03  0.51100000000E-03 0. -1.
          4   -1    0    0  501    0 -0.00000000000E+00 -0.00000000000E+00 -0.77974688717E+01  0.79257126371E+01  0.14200000000E+01 0. -1.
         11    1    1    2    0    0  0.59278321845E+02  0.43342495322E+00  0.15172828489E+03  0.16289745159E+03  0.51100000000E-03 0. -1.
         22    1    1    2    0    0  0.41219048353E+01 -0.17324099053E+02  0.93796310786E+02  0.95471788631E+02  0.00000000000E+00 0. -1.
          4    1    1    2  501    0 -0.63400226680E+02  0.16890674100E+02  0.74666646474E+03  0.74954500171E+03  0.14200000000E+01 0. -1.
<mgrwt>
<rscale>  0 0.33753565E+02</rscale>
<asrwt>0</asrwt>
<pdfrwt beam="1">  1       11 0.10000000E+01 0.63962358E+02</pdfrwt>
<pdfrwt beam="2">  1        4 0.12095391E-02 0.33753565E+02</pdfrwt>
<totfact> 0.61448196E+03</totfact>
</mgrwt>
</event>
<event>
 5    1  0.1490736E-003  0.3153796E+02  0.7818608E-02  0.1595244E+00
         11   -1    0    0    0    0  0.00000000000E+00  0.00000000000E+00  0.10004037945E+04  0.10004037945E+04  0.51100000000E-03 0.  1.
         -4   -1    0    0    0  501 -0.00000000000E+00 -0.00000000000E+00 -0.18701805593E+01  0.23481855387E+01  0.14200000000E+01 0.  1.
         11    1    1    2    0    0  0.98228021992E-01  0.16450284245E+02  0.78848865013E+02  0.80546663585E+02  0.51100000000E-03 0.  1.
         22    1    1    2    0    0  0.74101844472E+01  0.12827854026E+02  0.54095023310E+02  0.56086863162E+02  0.00000000000E+00 0. -1.
         -4    1    1    2    0  501 -0.75084124692E+01 -0.29278138271E+02  0.86558972559E+03  0.86611845326E+03  0.14200000000E+01 0.  1.
<mgrwt>
<rscale>  0 0.30258917E+02</rscale>
<asrwt>0</asrwt>
<pdfrwt beam="1">  1       11 0.10000000E+01 0.31537964E+02</pdfrwt>
<pdfrwt beam="2">  1       -4 0.32469827E-03 0.30258917E+02</pdfrwt>
<totfact> 0.39197541E+04</totfact>
</mgrwt>
</event>
<event>
 5    1  0.1490736E-003  0.7560487E+02  0.7818608E-02  0.1350932E+00
         11   -1    0    0    0    0  0.00000000000E+00  0.00000000000E+00  0.10001236771E+04  0.10001236771E+04  0.51100000000E-03 0. -1.
         -4   -1    0    0    0  501 -0.00000000000E+00 -0.00000000000E+00 -0.56677764066E+01  0.58429521130E+01  0.14200000000E+01 0. -1.
         11    1    1    2    0    0 -0.25885663455E+02 -0.35188991904E+02  0.21544263076E+03  0.21982688615E+03  0.51100000000E-03 0. -1.
         22    1    1    2    0    0 -0.32011298247E+01 -0.31495589510E+02  0.18543189180E+03  0.18811487418E+03  0.00000000000E+00 0. -1.
         -4    1    1    2    0  501  0.29086793280E+02  0.66684581414E+02  0.59358137811E+03  0.59802486887E+03  0.14200000000E+01 0. -1.
<mgrwt>
<rscale>  0 0.72766004E+02</rscale>
<asrwt>0</asrwt>
<pdfrwt beam="1">  1       11 0.10000000E+01 0.75604874E+02</pdfrwt>
<pdfrwt beam="2">  1       -4 0.88562769E-03 0.72766004E+02</pdfrwt>
<totfact> 0.12069583E+04</totfact>
</mgrwt>
</event>
<event>
 5    1  0.1490736E-003  0.3876256E+02  0.7818608E-02  0.1522954E+00
         11   -1    0    0    0    0  0.00000000000E+00  0.00000000000E+00  0.99997092097E+03  0.99997092097E+03  0.51100000000E-03 0.  1.
          4   -1    0    0  501    0 -0.00000000000E+00 -0.00000000000E+00 -0.56564530300E+01  0.58319688683E+01  0.14200000000E+01 0.  1.
         11    1    1    2    0    0  0.32805096461E+02 -0.26792906390E+02  0.21414164981E+03  0.21829035794E+03  0.51100000000E-03 0.  1.
         22    1    1    2    0    0 -0.42849285283E+02 -0.98955629455E+01  0.15324752003E+03  0.15943269994E+03  0.00000000000E+00 0. -1.
          4    1    1    2  501    0  0.10044188822E+02  0.36688469335E+02  0.62692529811E+03  0.62807983196E+03  0.14200000000E+01 0.  1.
<mgrwt>
<rscale>  0 0.38065022E+02</rscale>
<asrwt>0</asrwt>
<pdfrwt beam="1">  1       11 0.10000000E+01 0.38762563E+02</pdfrwt>
<pdfrwt beam="2">  1        4 0.88377659E-03 0.38065022E+02</pdfrwt>
<totfact> 0.10093397E+04</totfact>
</mgrwt>
</event>
<event>
 5    1  0.1490736E-003  0.3847703E+03  0.7818608E-02  0.1050488E+00
         11   -1    0    0    0    0  0.00000000000E+00  0.00000000000E+00  0.10001683914E+04  0.10001683914E+04  0.51100000000E-03 0.  1.
         -4   -1    0    0    0  501 -0.00000000000E+00 -0.00000000000E+00 -0.15522760773E+03  0.15523410257E+03  0.14200000000E+01 0. -1.
         11    1    1    2    0    0 -0.37294667481E+03 -0.44272295376E+01  0.55266182590E+03  0.66674126648E+03  0.51100000000E-03 0.  1.
         22    1    1    2    0    0 -0.81019998700E+01 -0.65262453099E+01  0.74421764798E+01  0.12791413937E+02  0.00000000000E+00 0. -1.
         -4    1    1    2    0  501  0.38104867468E+03  0.10953474847E+02  0.28483678132E+03  0.47586981359E+03  0.14200000000E+01 0. -1.
<mgrwt>
<rscale>  0 0.38120872E+03</rscale>
<asrwt>0</asrwt>
<pdfrwt beam="1">  1       11 0.10000000E+01 0.38477028E+03</pdfrwt>
<pdfrwt beam="2">  1       -4 0.23885768E-01 0.38120872E+03</pdfrwt>
<totfact> 0.72102950E+01</totfact>
</mgrwt>
</event>
<event>
 5    1  0.1490736E-003  0.1285337E+03  0.7818608E-02  0.1233718E+00
         11   -1    0    0    0    0  0.00000000000E+00  0.00000000000E+00  0.10001766323E+04  0.10001766323E+04  0.51100000000E-03 0. -1.
         -4   -1    0    0    0  501 -0.00000000000E+00 -0.00000000000E+00 -0.16971289754E+02  0.17030592353E+02  0.14200000000E+01 0. -1.
         11    1    1    2    0    0  0.10510693186E+03  0.19685498355E+02  0.32905372086E+03  0.34599326176E+03  0.51100000000E-03 0. -1.
         22    1    1    2    0    0  0.16169502232E+02  0.13972300104E+02  0.55472411248E+02  0.59446331950E+02  0.00000000000E+00 0.  1.
         -4    1    1    2    0  501 -0.12127643409E+03 -0.33657798459E+02  0.59867921048E+03  0.61176763099E+03  0.14200000000E+01 0. -1.
<mgrwt>
<rscale>  0 0.12586833E+03</rscale>
<asrwt>0</asrwt>
<pdfrwt beam="1">  1       11 0.10000000E+01 0.12853372E+03</pdfrwt>
<pdfrwt beam="2">  1       -4 0.26160689E-02 0.12586833E+03</pdfrwt>
<totfact> 0.26274065E+03</totfact>
</mgrwt>
</event>
<event>
 5    1  0.1490736E-003  0.3645930E+02  0.7818608E-02  0.1592111E+00
         11   -1    0    0    0    0  0.00000000000E+00  0.00000000000E+00  0.99994478810E+03  0.99994478810E+03  0.51100000000E-03 0. -1.
          4   -1    0    0  501    0 -0.00000000000E+00 -0.00000000000E+00 -0.40729557779E+01  0.43133941124E+01  0.14200000000E+01 0. -1.
         11    1    1    2    0    0  0.45438169602E+02  0.69613849191E+01  0.24580608899E+03  0.25006743395E+03  0.51100000000E-03 0. -1.
         22    1    1    2    0    0 -0.19072964171E+02  0.17038870450E+02  0.10249442263E+03  0.10563715132E+03  0.00000000000E+00 0. -1.
          4    1    1    2  501    0 -0.26365205431E+02 -0.24000255369E+02  0.64757132070E+03  0.64855359694E+03  0.14200000000E+01 0. -1.
<mgrwt>
<rscale>  0 0.30547795E+02</rscale>
<asrwt>0</asrwt>
<pdfrwt beam="1">  1       11 0.10000000E+01 0.36459304E+02</pdfrwt>
<pdfrwt beam="2">  1        4 0.64514576E-03 0.30547795E+02</pdfrwt>
<totfact> 0.14785071E+04</totfact>
</mgrwt>
</event>
<event>
 5    1  0.1490736E-003  0.1709832E+03  0.7818608E-02  0.1270689E+00
         11   -1    0    0    0    0  0.00000000000E+00  0.00000000000E+00  0.10003350318E+04  0.10003350318E+04  0.51100000000E-03 0. -1.
          4   -1    0    0  501    0 -0.00000000000E+00 -0.00000000000E+00 -0.15614541481E+03  0.15615187148E+03  0.14200000000E+01 0. -1.
         11    1    1    2    0    0  0.76248559152E+02 -0.18300786604E+03 -0.24850117397E+02  0.19980803323E+03  0.51100000000E-03 0. -1.
         22    1    1    2    0    0  0.34210004733E+02  0.54235950733E+02 -0.68681577409E+01  0.64490575796E+02  0.00000000000E+00 0. -1.
          4    1    1    2  501    0 -0.11045856388E+03  0.12877191531E+03  0.87590789212E+03  0.89218829425E+03  0.14200000000E+01 0. -1.
<mgrwt>
<rscale>  0 0.10471136E+03</rscale>
<asrwt>0</asrwt>
<pdfrwt beam="1">  1       11 0.10000000E+01 0.17098324E+03</pdfrwt>
<pdfrwt beam="2">  1        4 0.24030993E-01 0.10471136E+03</pdfrwt>
<totfact> 0.63992548E+01</totfact>
</mgrwt>
</event>
<event>
 5    1  0.1490736E-003  0.1222338E+03  0.7818608E-02  0.1239457E+00
         11   -1    0    0    0    0  0.00000000000E+00  0.00000000000E+00  0.99990744790E+03  0.99990744790E+03  0.51100000000E-03 0.  1.
          4   -1    0    0  501    0 -0.00000000000E+00 -0.00000000000E+00 -0.49074534778E+02  0.49095074740E+02  0.14200000000E+01 0. -1.
         11    1    1    2    0    0 -0.91086428140E+02 -0.78929247779E+02  0.60254161507E+03  0.61447779573E+03  0.51100000000E-03 0.  1.
         22    1    1    2    0    0 -0.28974791018E+02  0.47242024376E+02  0.29368526048E+03  0.29886849885E+03  0.00000000000E+00 0. -1.
          4    1    1    2  501    0  0.12006121916E+03  0.31687223402E+02  0.54606037563E+02  0.13565622806E+03  0.14200000000E+01 0. -1.
<mgrwt>
<rscale>  0 0.12223378E+03</rscale>
<asrwt>0</asrwt>
<pdfrwt beam="1">  1       11 0.10000000E+01 0.55419738E+02</pdfrwt>
<pdfrwt beam="2">  1        4 0.75508869E-02 0.12223378E+03</pdfrwt>
<totfact> 0.48154252E+02</totfact>
</mgrwt>
</event>
<event>
 5    1  0.1490736E-003  0.9239680E+02  0.7818608E-02  0.1520215E+00
         11   -1    0    0    0    0  0.00000000000E+00  0.00000000000E+00  0.10002162987E+04  0.10002162987E+04  0.51100000000E-03 0. -1.
          4   -1    0    0  501    0 -0.00000000000E+00 -0.00000000000E+00 -0.12767929618E+02  0.12846650409E+02  0.14200000000E+01 0. -1.
         11    1    1    2    0    0 -0.77170439319E+02  0.34740565349E+02  0.19693067097E+03  0.21434521864E+03  0.51100000000E-03 0. -1.
         22    1    1    2    0    0 -0.14183933773E+02 -0.73368095432E+01  0.63869034193E+02  0.65835144720E+02  0.00000000000E+00 0. -1.
          4    1    1    2  501    0  0.91354373093E+02 -0.27403755806E+02  0.72664866389E+03  0.73288258571E+03  0.14200000000E+01 0. -1.
<mgrwt>
<rscale>  0 0.38414437E+02</rscale>
<asrwt>0</asrwt>
<pdfrwt beam="1">  1       11 0.10000000E+01 0.92396803E+02</pdfrwt>
<pdfrwt beam="2">  1        4 0.19708560E-02 0.38414437E+02</pdfrwt>
<totfact> 0.31024324E+03</totfact>
</mgrwt>
</event>
<event>
 5    1  0.1490736E-003  0.5586303E+02  0.7818608E-02  0.1416061E+00
         11   -1    0    0    0    0  0.00000000000E+00  0.00000000000E+00  0.10002091900E+04  0.10002091900E+04  0.51100000000E-03 0. -1.
          4   -1    0    0  501    0 -0.00000000000E+00 -0.00000000000E+00 -0.43018605993E+01  0.45301660694E+01  0.14200000000E+01 0. -1.
         11    1    1    2    0    0  0.96410439528E+01 -0.36456537470E+01  0.36833631082E+02  0.38248619566E+02  0.51100000000E-03 0. -1.
         22    1    1    2    0    0 -0.46894617408E+02 -0.33540635559E+02  0.31231683593E+03  0.31759390010E+03  0.00000000000E+00 0. -1.
          4    1    1    2  501    0  0.37253573455E+02  0.37186289306E+02  0.64675686234E+03  0.64889683635E+03  0.14200000000E+01 0. -1.
<mgrwt>
<rscale>  0 0.55863032E+02</rscale>
<asrwt>0</asrwt>
<pdfrwt beam="1">  1       11 0.10000000E+01 0.10307309E+02</pdfrwt>
<pdfrwt beam="2">  1        4 0.67960632E-03 0.55863032E+02</pdfrwt>
<totfact> 0.16604072E+04</totfact>
</mgrwt>
</event>
<event>
 5    1  0.1490736E-003  0.1883389E+03  0.7818608E-02  0.1159968E+00
         11   -1    0    0    0    0  0.00000000000E+00  0.00000000000E+00  0.10003829379E+04  0.10003829379E+04  0.51100000000E-03 0.  1.
          4   -1    0    0  501    0 -0.00000000000E+00 -0.00000000000E+00 -0.55887638242E+02  0.55905675099E+02  0.14200000000E+01 0.  1.
         11    1    1    2    0    0  0.63796428969E+02  0.15442727413E+03  0.49284155063E+03  0.52039462081E+03  0.51100000000E-03 0.  1.
         22    1    1    2    0    0 -0.25639868651E+02  0.42009786443E+02  0.23849719398E+03  0.24352235330E+03  0.00000000000E+00 0.  1.
          4    1    1    2  501    0 -0.38156560318E+02 -0.19643706057E+03  0.21315655504E+03  0.29237163887E+03  0.14200000000E+01 0.  1.
<mgrwt>
<rscale>  0 0.18833887E+03</rscale>
<asrwt>0</asrwt>
<pdfrwt beam="1">  1       11 0.10000000E+01 0.49216105E+02</pdfrwt>
<pdfrwt beam="2">  1        4 0.86028560E-02 0.18833887E+03</pdfrwt>
<totfact> 0.41038702E+02</totfact>
</mgrwt>
</event>
<event>
 5    1  0.1490736E-003  0.8047984E+02  0.7818608E-02  0.1342244E+00
         11   -1    0    0    0    0  0.00000000000E+00  0.00000000000E+00  0.99997619145E+03  0.99997619145E+03  0.51100000000E-03 0. -1.
          4   -1    0    0  501    0 -0.00000000000E+00 -0.00000000000E+00 -0.65164977726E+01  0.66694185069E+01  0.14200000000E+01 0. -1.
         11    1    1    2    0    0  0.27247692552E+00 -0.61525896318E+02  0.26335711286E+03  0.27044866251E+03  0.51100000000E-03 0. -1.
         22    1    1    2    0    0 -0.12843939343E+02 -0.12934867213E+02  0.10818199268E+03  0.10970697840E+03  0.00000000000E+00 0.  1.
          4    1    1    2  501    0  0.12571462417E+02  0.74460763530E+02  0.62192058814E+03  0.62648996905E+03  0.14200000000E+01 0. -1.
<mgrwt>
<rscale>  0 0.75527898E+02</rscale>
<asrwt>0</asrwt>
<pdfrwt beam="1">  1       11 0.10000000E+01 0.80479838E+02</pdfrwt>
<pdfrwt beam="2">  1        4 0.10143546E-02 0.75527898E+02</pdfrwt>
<totfact> 0.99595800E+03</totfact>
</mgrwt>
</event>
<event>
 5    1  0.1490736E-003  0.7114149E+02  0.7818608E-02  0.1361984E+00
         11   -1    0    0    0    0  0.00000000000E+00  0.00000000000E+00  0.10001783766E+04  0.10001783766E+04  0.51100000000E-03 0.  1.
          4   -1    0    0  501    0 -0.00000000000E+00 -0.00000000000E+00 -0.85666059751E+01  0.86834980240E+01  0.14200000000E+01 0.  1.
         11    1    1    2    0    0 -0.51521049088E+02 -0.29539986122E+02  0.12845817151E+03  0.14152219298E+03  0.51100000000E-03 0.  1.
         22    1    1    2    0    0 -0.97647562137E+01 -0.30927026624E+01  0.41070909950E+02  0.42328889872E+02  0.00000000000E+00 0.  1.
          4    1    1    2  501    0  0.61285805301E+02  0.32632688785E+02  0.82208268919E+03  0.82501079180E+03  0.14200000000E+01 0.  1.
<mgrwt>
<rscale>  0 0.69446805E+02</rscale>
<asrwt>0</asrwt>
<pdfrwt beam="1">  1       11 0.10000000E+01 0.71141487E+02</pdfrwt>
<pdfrwt beam="2">  1        4 0.13272453E-02 0.69446805E+02</pdfrwt>
<totfact> 0.65339919E+03</totfact>
</mgrwt>
</event>
<event>
 5    1  0.1490736E-003  0.1402669E+03  0.7818608E-02  0.1212970E+00
         11   -1    0    0    0    0  0.00000000000E+00  0.00000000000E+00  0.10005979650E+04  0.10005979650E+04  0.51100000000E-03 0.  1.
         -4   -1    0    0    0  501 -0.00000000000E+00 -0.00000000000E+00 -0.33370343941E+03  0.33370646064E+03  0.14200000000E+01 0.  1.
         11    1    1    2    0    0 -0.16620919875E+03  0.62690928504E+02  0.76356641074E+03  0.78395746943E+03  0.51100000000E-03 0.  1.
         22    1    1    2    0    0  0.27308808095E+02 -0.48372157233E+02  0.20795072548E+03  0.21524205171E+03  0.00000000000E+00 0.  1.
         -4    1    1    2    0  501  0.13890039066E+03 -0.14318771271E+02 -0.30462261061E+03  0.33510490452E+03  0.14200000000E+01 0.  1.
<mgrwt>
<rscale>  0 0.14026690E+03</rscale>
<asrwt>0</asrwt>
<pdfrwt beam="1">  1       11 0.10000000E+01 0.55548507E+02</pdfrwt>
<pdfrwt beam="2">  1       -4 0.51369998E-01 0.14026690E+03</pdfrwt>
<totfact> 0.15139470E+01</totfact>
</mgrwt>
</event>
<event>
 5    1  0.1490736E-003  0.1435348E+03  0.7818608E-02  0.1214064E+00
         11   -1    0    0    0    0  0.00000000000E+00  0.00000000000E+00  0.99967961916E+03  0.99967961916E+03  0.51100000000E-03 0. -1.
          4   -1    0    0  501    0 -0.00000000000E+00 -0.00000000000E+00 -0.22396998288E+02  0.22441968102E+02  0.14200000000E+01 0.  1.
         11    1    1    2    0    0  0.15297007323E+02  0.10742845515E+03  0.54946457160E+03  0.56007694726E+03  0.51100000000E-03 0. -1.
         22    1    1    2    0    0  0.17473089203E+02  0.28114047836E+02  0.11241182045E+03  0.11718415383E+03  0.00000000000E+00 0.  1.
          4    1    1    2  501    0 -0.32770096526E+02 -0.13554250299E+03  0.31540622883E+03  0.34486048618E+03  0.14200000000E+01 0.  1.
<mgrwt>
<rscale>  0 0.13945489E+03</rscale>
<asrwt>0</asrwt>
<pdfrwt beam="1">  1       11 0.10000000E+01 0.14353481E+03</pdfrwt>
<pdfrwt beam="2">  1        4 0.34481237E-02 0.13945489E+03</pdfrwt>
<totfact> 0.17350819E+03</totfact>
</mgrwt>
</event>
<event>
 5    1  0.1490736E-003  0.1317579E+03  0.7818608E-02  0.1228089E+00
         11   -1    0    0    0    0  0.00000000000E+00  0.00000000000E+00  0.10001304231E+04  0.10001304231E+04  0.51100000000E-03 0. -1.
          4   -1    0    0  501    0 -0.00000000000E+00 -0.00000000000E+00 -0.21271432085E+02  0.21318776300E+02  0.14200000000E+01 0. -1.
         11    1    1    2    0    0  0.29310677360E+02  0.22660008709E+01  0.11715952499E+03  0.12079157613E+03  0.51100000000E-03 0. -1.
         22    1    1    2    0    0  0.10002273881E+03 -0.10034113116E+02  0.60300683856E+03  0.61132845432E+03  0.00000000000E+00 0. -1.
          4    1    1    2  501    0 -0.12933341617E+03  0.77681122447E+01  0.25869262748E+03  0.28932916898E+03  0.14200000000E+01 0. -1.
<mgrwt>
<rscale>  0 0.12957427E+03</rscale>
<asrwt>0</asrwt>
<pdfrwt beam="1">  1       11 0.10000000E+01 0.13175791E+03</pdfrwt>
<pdfrwt beam="2">  1        4 0.32766746E-02 0.12957427E+03</pdfrwt>
<totfact> 0.18574124E+03</totfact>
</mgrwt>
</event>
<event>
 5    1  0.1490736E-003  0.1883970E+03  0.7818608E-02  0.1162603E+00
         11   -1    0    0    0    0  0.00000000000E+00  0.00000000000E+00  0.99999910264E+03  0.99999910264E+03  0.51100000000E-03 0.  1.
         -4   -1    0    0    0  501 -0.00000000000E+00 -0.00000000000E+00 -0.64004753700E+02  0.64020503717E+02  0.14200000000E+01 0. -1.
         11    1    1    2    0    0  0.16494208854E+03  0.57948499154E+02  0.76955043794E+03  0.78915891788E+03  0.51100000000E-03 0.  1.
         22    1    1    2    0    0  0.12726908401E+02 -0.47100352567E+01  0.58932471853E+02  0.60474745707E+02  0.00000000000E+00 0.  1.
         -4    1    1    2    0  501 -0.17766899694E+03 -0.53238463898E+02  0.10751143915E+03  0.21438594278E+03  0.14200000000E+01 0. -1.
<mgrwt>
<rscale>  0 0.18547944E+03</rscale>
<asrwt>0</asrwt>
<pdfrwt beam="1">  1       11 0.10000000E+01 0.18839700E+03</pdfrwt>
<pdfrwt beam="2">  1       -4 0.98481652E-02 0.18547944E+03</pdfrwt>
<totfact> 0.32618310E+02</totfact>
</mgrwt>
</event>
<event>
 5    1  0.1490736E-003  0.1006715E+03  0.7818608E-02  0.1292190E+00
         11   -1    0    0    0    0  0.00000000000E+00  0.00000000000E+00  0.10003025643E+04  0.10003025643E+04  0.51100000000E-03 0. -1.
         -4   -1    0    0    0  501 -0.00000000000E+00 -0.00000000000E+00 -0.10089557007E+02  0.10188992129E+02  0.14200000000E+01 0. -1.
         11    1    1    2    0    0  0.34892775823E+01 -0.46076791091E+02  0.25679327362E+03  0.26091767113E+03  0.51100000000E-03 0. -1.
         22    1    1    2    0    0  0.72548014028E+01 -0.47851353642E+02  0.12855376675E+03  0.13736249537E+03  0.00000000000E+00 0. -1.
         -4    1    1    2    0  501 -0.10744078985E+02  0.93928144733E+02  0.60486596692E+03  0.61221138992E+03  0.14200000000E+01 0. -1.
<mgrwt>
<rscale>  0 0.94551298E+02</rscale>
<asrwt>0</asrwt>
<pdfrwt beam="1">  1       11 0.10000000E+01 0.10067149E+03</pdfrwt>
<pdfrwt beam="2">  1       -4 0.15604379E-02 0.94551298E+02</pdfrwt>
<totfact> 0.54907721E+03</totfact>
</mgrwt>
</event>
<event>
 5    1  0.1490736E-003  0.4348552E+02  0.7818608E-02  0.1511991E+00
         11   -1    0    0    0    0  0.00000000000E+00  0.00000000000E+00  0.99992658038E+03  0.99992658038E+03  0.51100000000E-03 0. -1.
          4   -1    0    0  501    0 -0.00000000000E+00 -0.00000000000E+00 -0.26354812261E+01  0.29936869063E+01  0.14200000000E+01 0. -1.
         11    1    1    2    0    0  0.12973182921E+02 -0.91447099597E+01  0.52670979396E+02  0.55010555952E+02  0.51100000000E-03 0. -1.
         22    1    1    2    0    0  0.26067067422E+02  0.33671193131E+01  0.14831246453E+03  0.15062342657E+03  0.00000000000E+00 0. -1.
          4    1    1    2  501    0 -0.39040250343E+02  0.57775906466E+01  0.79630765523E+03  0.79728628476E+03  0.14200000000E+01 0. -1.
<mgrwt>
<rscale>  0 0.39490988E+02</rscale>
<asrwt>0</asrwt>
<pdfrwt beam="1">  1       11 0.10000000E+01 0.43485515E+02</pdfrwt>
<pdfrwt beam="2">  1        4 0.43305868E-03 0.39490988E+02</pdfrwt>
<totfact> 0.28631319E+04</totfact>
</mgrwt>
</event>
<event>
 5    1  0.1490736E-003  0.7454922E+02  0.7818608E-02  0.1538430E+00
         11   -1    0    0    0    0  0.00000000000E+00  0.00000000000E+00  0.10001066536E+04  0.10001066536E+04  0.51100000000E-03 0.  1.
          4   -1    0    0  501    0 -0.00000000000E+00 -0.00000000000E+00 -0.27643542509E+02  0.27679989929E+02  0.14200000000E+01 0.  1.
         11    1    1    2    0    0  0.77402637365E+01  0.59827045095E+02  0.16259363664E+02  0.62478427593E+02  0.51100000000E-03 0.  1.
         22    1    1    2    0    0 -0.78535083704E+01  0.15692616728E+02  0.22402619550E+02  0.28457216593E+02  0.00000000000E+00 0. -1.
          4    1    1    2  501    0  0.11324463391E+00 -0.75519661823E+02  0.93380112786E+03  0.93685099933E+03  0.14200000000E+01 0.  1.
<mgrwt>
<rscale>  0 0.36172279E+02</rscale>
<asrwt>0</asrwt>
<pdfrwt beam="1">  1       11 0.10000000E+01 0.74549219E+02</pdfrwt>
<pdfrwt beam="2">  1        4 0.42561877E-02 0.36172279E+02</pdfrwt>
<totfact> 0.95003400E+02</totfact>
</mgrwt>
</event>
<event>
 5    1  0.1490736E-003  0.2159804E+03  0.7818608E-02  0.1142217E+00
         11   -1    0    0    0    0  0.00000000000E+00  0.00000000000E+00  0.10002313856E+04  0.10002313856E+04  0.51100000000E-03 0. -1.
          4   -1    0    0  501    0 -0.00000000000E+00 -0.00000000000E+00 -0.60924222075E+02  0.60940768255E+02  0.14200000000E+01 0.  1.
         11    1    1    2    0    0 -0.15844602140E+03  0.10998031509E+03  0.66134672259E+03  0.68889788712E+03  0.51100000000E-03 0. -1.
         22    1    1    2    0    0 -0.22513672544E+02 -0.50630030131E+01  0.83634383776E+02  0.86759492856E+02  0.00000000000E+00 0. -1.
          4    1    1    2  501    0  0.18095969394E+03 -0.10491731208E+03  0.19432605713E+03  0.28551477385E+03  0.14200000000E+01 0.  1.
<mgrwt>
<rscale>  0 0.20917952E+03</rscale>
<asrwt>0</asrwt>
<pdfrwt beam="1">  1       11 0.10000000E+01 0.21598037E+03</pdfrwt>
<pdfrwt beam="2">  1        4 0.93764764E-02 0.20917952E+03</pdfrwt>
<totfact> 0.35934674E+02</totfact>
</mgrwt>
</event>
<event>
 5    1  0.1490736E-003  0.9741832E+02  0.7818608E-02  0.1447115E+00
         11   -1    0    0    0    0  0.00000000000E+00  0.00000000000E+00  0.10001998234E+04  0.10001998234E+04  0.51100000000E-03 0.  1.
          4   -1    0    0  501    0 -0.00000000000E+00 -0.00000000000E+00 -0.13123907018E+02  0.13200505120E+02  0.14200000000E+01 0.  1.
         11    1    1    2    0    0  0.78987546137E+02  0.59742031321E+02  0.58025897958E+03  0.58864983321E+03  0.51100000000E-03 0.  1.
         22    1    1    2    0    0 -0.19341277494E+02  0.16348229880E+02  0.91652729454E+02  0.95087183425E+02  0.00000000000E+00 0. -1.
          4    1    1    2  501    0 -0.59646268643E+02 -0.76090261200E+02  0.31516420735E+03  0.32966331189E+03  0.14200000000E+01 0.  1.
<mgrwt>
<rscale>  0 0.49672623E+02</rscale>
<asrwt>0</asrwt>
<pdfrwt beam="1">  1       11 0.10000000E+01 0.97418319E+02</pdfrwt>
<pdfrwt beam="2">  1        4 0.20254369E-02 0.49672623E+02</pdfrwt>
<totfact> 0.31894838E+03</totfact>
</mgrwt>
</event>
<event>
 5    1  0.1490736E-003  0.6310782E+02  0.7818608E-02  0.1385234E+00
         11   -1    0    0    0    0  0.00000000000E+00  0.00000000000E+00  0.10004481530E+04  0.10004481530E+04  0.51100000000E-03 0. -1.
          4   -1    0    0  501    0 -0.00000000000E+00 -0.00000000000E+00 -0.72399907481E+01  0.73779310130E+01  0.14200000000E+01 0. -1.
         11    1    1    2    0    0  0.20303347872E+02  0.17305400262E+02  0.59597633105E+02  0.65296100075E+02  0.51100000000E-03 0. -1.
         22    1    1    2    0    0 -0.69824623741E+02 -0.26109529124E+02  0.43020998298E+03  0.43662090542E+03  0.00000000000E+00 0. -1.
          4    1    1    2  501    0  0.49521275869E+02  0.88041288623E+01  0.50340054616E+03  0.50590907851E+03  0.14200000000E+01 0. -1.
<mgrwt>
<rscale>  0 0.63107820E+02</rscale>
<asrwt>0</asrwt>
<pdfrwt beam="1">  1       11 0.10000000E+01 0.26677772E+02</pdfrwt>
<pdfrwt beam="2">  1        4 0.11250370E-02 0.63107820E+02</pdfrwt>
<totfact> 0.81651605E+03</totfact>
</mgrwt>
</event>
<event>
 5    1  0.1490736E-003  0.3142400E+03  0.7818608E-02  0.1082603E+00
         11   -1    0    0    0    0  0.00000000000E+00  0.00000000000E+00  0.10005960040E+04  0.10005960040E+04  0.51100000000E-03 0. -1.
          4   -1    0    0  501    0 -0.00000000000E+00 -0.00000000000E+00 -0.96737617219E+02  0.96748038664E+02  0.14200000000E+01 0. -1.
         11    1    1    2    0    0 -0.63923815088E+02  0.26569514818E+03  0.44915749207E+03  0.52575908797E+03  0.51100000000E-03 0. -1.
         22    1    1    2    0    0 -0.33157111167E+02  0.23793433984E+02  0.60078860041E+02  0.72629132898E+02  0.00000000000E+00 0. -1.
          4    1    1    2  501    0  0.97080926255E+02 -0.28948858216E+03  0.39462203463E+03  0.49895582175E+03  0.14200000000E+01 0. -1.
<mgrwt>
<rscale>  0 0.30533647E+03</rscale>
<asrwt>0</asrwt>
<pdfrwt beam="1">  1       11 0.10000000E+01 0.31424004E+03</pdfrwt>
<pdfrwt beam="2">  1        4 0.14892460E-01 0.30533647E+03</pdfrwt>
<totfact> 0.16756108E+02</totfact>
</mgrwt>
</event>
<event>
 5    1  0.1490736E-003  0.1698998E+03  0.7818608E-02  0.1177952E+00
         11   -1    0    0    0    0  0.00000000000E+00  0.00000000000E+00  0.10003102576E+04  0.10003102576E+04  0.51100000000E-03 0. -1.
          4   -1    0    0  501    0 -0.00000000000E+00 -0.00000000000E+00 -0.94433884597E+02  0.94444560246E+02  0.14200000000E+01 0. -1.
         11    1    1    2    0    0  0.92608488439E+02  0.93084141000E+02  0.40912368509E+03  0.42967799471E+03  0.51100000000E-03 0. -1.
         22    1    1    2    0    0  0.75737051422E+02 -0.25315981706E+02  0.47572782038E+03  0.48238362220E+03  0.00000000000E+00 0.  1.
          4    1    1    2  501    0 -0.16834553986E+03 -0.67768159293E+02  0.21024867511E+02  0.18269320091E+03  0.14200000000E+01 0. -1.
<mgrwt>
<rscale>  0 0.16989979E+03</rscale>
<asrwt>0</asrwt>
<pdfrwt beam="1">  1       11 0.10000000E+01 0.79856120E+02</pdfrwt>
<pdfrwt beam="2">  1        4 0.14533696E-01 0.16989979E+03</pdfrwt>
<totfact> 0.16537769E+02</totfact>
</mgrwt>
</event>
<event>
 5    1  0.1490736E-003  0.8302139E+02  0.7818608E-02  0.1345962E+00
         11   -1    0    0    0    0  0.00000000000E+00  0.00000000000E+00  0.10001232057E+04  0.10001232057E+04  0.51100000000E-03 0.  1.
          4   -1    0    0  501    0 -0.00000000000E+00 -0.00000000000E+00 -0.16620848778E+02  0.16681397247E+02  0.14200000000E+01 0.  1.
         11    1    1    2    0    0  0.93595451119E+02  0.22527465064E+02  0.36542480181E+03  0.37789268441E+03  0.51100000000E-03 0.  1.
         22    1    1    2    0    0 -0.46590964185E+02  0.47502041068E+02  0.16256353221E+03  0.17565324892E+03  0.00000000000E+00 0.  1.
          4    1    1    2  501    0 -0.47004486934E+02 -0.70029506132E+02  0.45551402288E+03  0.46325866960E+03  0.14200000000E+01 0.  1.
<mgrwt>
<rscale>  0 0.74328950E+02</rscale>
<asrwt>0</asrwt>
<pdfrwt beam="1">  1       11 0.10000000E+01 0.83021389E+02</pdfrwt>
<pdfrwt beam="2">  1        4 0.25621043E-02 0.74328950E+02</pdfrwt>
<totfact> 0.24499206E+03</totfact>
</mgrwt>
</event>
<event>
 5    1  0.1490736E-003  0.2402554E+03  0.7818608E-02  0.1119623E+00
         11   -1    0    0    0    0  0.00000000000E+00  0.00000000000E+00  0.10002467880E+04  0.10002467880E+04  0.51100000000E-03 0.  1.
          4   -1    0    0  501    0 -0.00000000000E+00 -0.00000000000E+00 -0.16758766786E+03  0.16759368371E+03  0.14200000000E+01 0.  1.
         11    1    1    2    0    0 -0.34319629561E+02  0.54219708610E+02 -0.84719604101E+02  0.10627805556E+03  0.51100000000E-03 0.  1.
         22    1    1    2    0    0 -0.11868238555E+03  0.18730684293E+03  0.24238384386E+03  0.32851071491E+03  0.00000000000E+00 0.  1.
          4    1    1    2  501    0  0.15300201511E+03 -0.24152655154E+03  0.67499488034E+03  0.73305170119E+03  0.14200000000E+01 0.  1.
<mgrwt>
<rscale>  0 0.24025540E+03</rscale>
<asrwt>0</asrwt>
<pdfrwt beam="1">  1       11 0.10000000E+01 0.64168668E+02</pdfrwt>
<pdfrwt beam="2">  1        4 0.25789621E-01 0.24025540E+03</pdfrwt>
<totfact> 0.60478501E+01</totfact>
</mgrwt>
</event>
<event>
 5    1  0.1490736E-003  0.6598013E+02  0.7818608E-02  0.1498578E+00
         11   -1    0    0    0    0  0.00000000000E+00  0.00000000000E+00  0.10003276094E+04  0.10003276094E+04  0.51100000000E-03 0. -1.
          4   -1    0    0  501    0 -0.00000000000E+00 -0.00000000000E+00 -0.86646662848E+01  0.87802529478E+01  0.14200000000E+01 0. -1.
         11    1    1    2    0    0 -0.45489202678E+02  0.32211715334E+02  0.12903283532E+03  0.14055722947E+03  0.51100000000E-03 0. -1.
         22    1    1    2    0    0 -0.21790737201E+02 -0.13990334437E+02  0.12630079364E+03  0.12892810461E+03  0.00000000000E+00 0. -1.
          4    1    1    2  501    0  0.67279939879E+02 -0.18221380897E+02  0.73632931412E+03  0.73962252823E+03  0.14200000000E+01 0. -1.
<mgrwt>
<rscale>  0 0.41339676E+02</rscale>
<asrwt>0</asrwt>
<pdfrwt beam="1">  1       11 0.10000000E+01 0.65980125E+02</pdfrwt>
<pdfrwt beam="2">  1        4 0.13424340E-02 0.41339676E+02</pdfrwt>
<totfact> 0.56042054E+03</totfact>
</mgrwt>
</event>
<event>
 5    1  0.1490736E-003  0.9214940E+02  0.7818608E-02  0.1299986E+00
         11   -1    0    0    0    0  0.00000000000E+00  0.00000000000E+00  0.99988878360E+03  0.99988878360E+03  0.51100000000E-03 0.  1.
          4   -1    0    0  501    0 -0.00000000000E+00 -0.00000000000E+00 -0.84760613000E+01  0.85941849620E+01  0.14200000000E+01 0.  1.
         11    1    1    2    0    0 -0.49989848850E+02 -0.62283231177E+02  0.38489717376E+03  0.39309543401E+03  0.51100000000E-03 0.  1.
         22    1    1    2    0    0 -0.32531677292E+01 -0.11740238937E+02  0.50883772232E+02  0.52321836618E+02  0.00000000000E+00 0.  1.
          4    1    1    2  501    0  0.53243016579E+02  0.74023470114E+02  0.55563177631E+03  0.56306569793E+03  0.14200000000E+01 0.  1.
<mgrwt>
<rscale>  0 0.91193801E+02</rscale>
<asrwt>0</asrwt>
<pdfrwt beam="1">  1       11 0.10000000E+01 0.92149401E+02</pdfrwt>
<pdfrwt beam="2">  1        4 0.13130273E-02 0.91193801E+02</pdfrwt>
<totfact> 0.70711248E+03</totfact>
</mgrwt>
</event>
<event>
 5    1  0.1490736E-003  0.1397695E+03  0.7818608E-02  0.1215316E+00
         11   -1    0    0    0    0  0.00000000000E+00  0.00000000000E+00  0.10004446662E+04  0.10004446662E+04  0.51100000000E-03 0. -1.
          4   -1    0    0  501    0 -0.00000000000E+00 -0.00000000000E+00 -0.20675670375E+02  0.20724375635E+02  0.14200000000E+01 0. -1.
         11    1    1    2    0    0  0.49771009511E+02 -0.11788139245E+03  0.57853234756E+03  0.59251401101E+03  0.51100000000E-03 0. -1.
         22    1    1    2    0    0  0.87354490548E+01 -0.76830962072E+01  0.43583517423E+02  0.45109433919E+02  0.00000000000E+00 0.  1.
          4    1    1    2  501    0 -0.58506458566E+02  0.12556448866E+03  0.35765313089E+03  0.38354559695E+03  0.14200000000E+01 0. -1.
<mgrwt>
<rscale>  0 0.13853326E+03</rscale>
<asrwt>0</asrwt>
<pdfrwt beam="1">  1       11 0.10000000E+01 0.13976948E+03</pdfrwt>
<pdfrwt beam="2">  1        4 0.31861125E-02 0.13853326E+03</pdfrwt>
<totfact> 0.19628614E+03</totfact>
</mgrwt>
</event>
<event>
 5    1  0.1490736E-003  0.5570799E+02  0.7818608E-02  0.1429378E+00
         11   -1    0    0    0    0  0.00000000000E+00  0.00000000000E+00  0.10003043006E+04  0.10003043006E+04  0.51100000000E-03 0.  1.
          4   -1    0    0  501    0 -0.00000000000E+00 -0.00000000000E+00 -0.35889382940E+01  0.38596474034E+01  0.14200000000E+01 0. -1.
         11    1    1    2    0    0  0.33838421139E+02  0.31324491595E+01  0.18736005271E+03  0.19041701692E+03  0.51100000000E-03 0.  1.
         22    1    1    2    0    0  0.18748514960E+02 -0.10247483282E+02  0.92799259499E+02  0.95227203521E+02  0.00000000000E+00 0.  1.
          4    1    1    2  501    0 -0.52586936099E+02  0.71150341227E+01  0.71655605014E+03  0.71851972760E+03  0.14200000000E+01 0. -1.
<mgrwt>
<rscale>  0 0.53085082E+02</rscale>
<asrwt>0</asrwt>
<pdfrwt beam="1">  1       11 0.10000000E+01 0.55707993E+02</pdfrwt>
<pdfrwt beam="2">  1        4 0.57322002E-03 0.53085082E+02</pdfrwt>
<totfact> 0.20969393E+04</totfact>
</mgrwt>
</event>
<event>
 5    1  0.1490736E-003  0.1969377E+03  0.7818608E-02  0.1157236E+00
         11   -1    0    0    0    0  0.00000000000E+00  0.00000000000E+00  0.10003614472E+04  0.10003614472E+04  0.51100000000E-03 0.  1.
          4   -1    0    0  501    0 -0.00000000000E+00 -0.00000000000E+00 -0.29562076334E+03  0.29562417378E+03  0.14200000000E+01 0.  1.
         11    1    1    2    0    0  0.68235049742E+02 -0.11262436904E+03  0.74418654610E+03  0.75574723679E+03  0.51100000000E-03 0.  1.
         22    1    1    2    0    0  0.42659935420E+02 -0.43326534261E+02  0.21410848844E+03  0.22257471439E+03  0.00000000000E+00 0.  1.
          4    1    1    2  501    0 -0.11089498516E+03  0.15595090330E+03 -0.25355435067E+03  0.31766366982E+03  0.14200000000E+01 0.  1.
<mgrwt>
<rscale>  0 0.19136457E+03</rscale>
<asrwt>0</asrwt>
<pdfrwt beam="1">  1       11 0.10000000E+01 0.19693772E+03</pdfrwt>
<pdfrwt beam="2">  1        4 0.45496895E-01 0.19136457E+03</pdfrwt>
<totfact> 0.19756796E+01</totfact>
</mgrwt>
</event>
<event>
 5    1  0.1490736E-003  0.9647596E+02  0.7818608E-02  0.1310349E+00
         11   -1    0    0    0    0  0.00000000000E+00  0.00000000000E+00  0.99979946931E+03  0.99979946931E+03  0.51100000000E-03 0.  1.
          4   -1    0    0  501    0 -0.00000000000E+00 -0.00000000000E+00 -0.98724459508E+01  0.99740457715E+01  0.14200000000E+01 0. -1.
         11    1    1    2    0    0 -0.65668920330E+02 -0.44175437051E+01  0.17858640792E+03  0.19032873373E+03  0.51100000000E-03 0.  1.
         22    1    1    2    0    0 -0.20357691256E+02  0.17143126342E+02  0.14148931614E+03  0.14397065311E+03  0.00000000000E+00 0. -1.
          4    1    1    2  501    0  0.86026611586E+02 -0.12725582637E+02  0.66985129930E+03  0.67547412825E+03  0.14200000000E+01 0. -1.
<mgrwt>
<rscale>  0 0.86974334E+02</rscale>
<asrwt>0</asrwt>
<pdfrwt beam="1">  1       11 0.10000000E+01 0.96475960E+02</pdfrwt>
<pdfrwt beam="2">  1        4 0.15264246E-02 0.86974334E+02</pdfrwt>
<totfact> 0.55756270E+03</totfact>
</mgrwt>
</event>
<event>
 5    1  0.1490736E-003  0.8690098E+02  0.7818608E-02  0.1327435E+00
         11   -1    0    0    0    0  0.00000000000E+00  0.00000000000E+00  0.10004027926E+04  0.10004027926E+04  0.51100000000E-03 0.  1.
          4   -1    0    0  501    0 -0.00000000000E+00 -0.00000000000E+00 -0.13157523990E+02  0.13233927518E+02  0.14200000000E+01 0.  1.
         11    1    1    2    0    0 -0.60104747611E+02 -0.33311232138E+02  0.13860128746E+03  0.15470144071E+03  0.51100000000E-03 0.  1.
         22    1    1    2    0    0 -0.35317117150E+01 -0.16088230930E+02  0.18023985623E+02  0.24416556265E+02  0.00000000000E+00 0.  1.
          4    1    1    2  501    0  0.63636459326E+02  0.49399463068E+02  0.83061999548E+03  0.83451872310E+03  0.14200000000E+01 0.  1.
<mgrwt>
<rscale>  0 0.80572466E+02</rscale>
<asrwt>0</asrwt>
<pdfrwt beam="1">  1       11 0.10000000E+01 0.86900982E+02</pdfrwt>
<pdfrwt beam="2">  1        4 0.20310069E-02 0.80572466E+02</pdfrwt>
<totfact> 0.35553427E+03</totfact>
</mgrwt>
</event>
<event>
 5    1  0.1490736E-003  0.2308494E+03  0.7818608E-02  0.1126686E+00
         11   -1    0    0    0    0  0.00000000000E+00  0.00000000000E+00  0.10004310499E+04  0.10004310499E+04  0.51100000000E-03 0. -1.
         -4   -1    0    0    0  501 -0.00000000000E+00 -0.00000000000E+00 -0.59326719491E+02  0.59343711087E+02  0.14200000000E+01 0.  1.
         11    1    1    2    0    0  0.12530214190E+03  0.17975759834E+03  0.61975857831E+03  0.65735387449E+03  0.51100000000E-03 0. -1.
         22    1    1    2    0    0  0.32916573648E+01  0.10850780883E+02  0.23989833425E+02  0.26534629482E+02  0.00000000000E+00 0.  1.
         -4    1    1    2    0  501 -0.12859379926E+03 -0.19060837922E+03  0.29735591867E+03  0.37588625700E+03  0.14200000000E+01 0.  1.
<mgrwt>
<rscale>  0 0.22993463E+03</rscale>
<asrwt>0</asrwt>
<pdfrwt beam="1">  1       11 0.10000000E+01 0.23084945E+03</pdfrwt>
<pdfrwt beam="2">  1       -4 0.91325068E-02 0.22993463E+03</pdfrwt>
<totfact> 0.37975978E+02</totfact>
</mgrwt>
</event>
<event>
 5    1  0.1490736E-003  0.2676606E+03  0.7818608E-02  0.1106149E+00
         11   -1    0    0    0    0  0.00000000000E+00  0.00000000000E+00  0.10000456540E+04  0.10000456540E+04  0.51100000000E-03 0.  1.
          4   -1    0    0  501    0 -0.00000000000E+00 -0.00000000000E+00 -0.31891607509E+03  0.31891923641E+03  0.14200000000E+01 0.  1.
         11    1    1    2    0    0  0.21708203191E+03 -0.10923984861E+03  0.89543333652E+03  0.92782477508E+03  0.51100000000E-03 0.  1.
         22    1    1    2    0    0  0.17505205193E+02 -0.66635348932E+01  0.28550178069E+02  0.34145974490E+02  0.00000000000E+00 0.  1.
          4    1    1    2  501    0 -0.23458723710E+03  0.11590338350E+03 -0.24285393568E+03  0.35699414084E+03  0.14200000000E+01 0.  1.
<mgrwt>
<rscale>  0 0.26166158E+03</rscale>
<asrwt>0</asrwt>
<pdfrwt beam="1">  1       11 0.10000000E+01 0.26766058E+03</pdfrwt>
<pdfrwt beam="2">  1        4 0.49066571E-01 0.26166158E+03</pdfrwt>
<totfact> 0.17224004E+01</totfact>
</mgrwt>
</event>
<event>
 5    1  0.1490736E-003  0.2201998E+03  0.7818608E-02  0.1133734E+00
         11   -1    0    0    0    0  0.00000000000E+00  0.00000000000E+00  0.10001099107E+04  0.10001099107E+04  0.51100000000E-03 0.  1.
         -4   -1    0    0    0  501 -0.00000000000E+00 -0.00000000000E+00 -0.15589856906E+03  0.15590503595E+03  0.14200000000E+01 0. -1.
         11    1    1    2    0    0  0.15853430525E+03  0.76804102304E+02  0.81702195890E+03  0.83579715086E+03  0.51100000000E-03 0.  1.
         22    1    1    2    0    0  0.49367584385E+02  0.94535506901E+01  0.74826714032E+02  0.90141916673E+02  0.00000000000E+00 0.  1.
         -4    1    1    2    0  501 -0.20790188964E+03 -0.86257652994E+02 -0.47637331296E+02  0.23007587911E+03  0.14200000000E+01 0. -1.
<mgrwt>
<rscale>  0 0.22019976E+03</rscale>
<asrwt>0</asrwt>
<pdfrwt beam="1">  1       11 0.10000000E+01 0.50264580E+02</pdfrwt>
<pdfrwt beam="2">  1       -4 0.23987606E-01 0.22019976E+03</pdfrwt>
<totfact> 0.68758130E+01</totfact>
</mgrwt>
</event>
<event>
 5    1  0.1490736E-003  0.1476662E+03  0.7818608E-02  0.1206797E+00
         11   -1    0    0    0    0  0.00000000000E+00  0.00000000000E+00  0.10003979136E+04  0.10003979136E+04  0.51100000000E-03 0. -1.
          4   -1    0    0  501    0 -0.00000000000E+00 -0.00000000000E+00 -0.21387015260E+02  0.21434104174E+02  0.14200000000E+01 0. -1.
         11    1    1    2    0    0 -0.10053070543E+03 -0.35273156101E+02  0.33634202157E+03  0.35281237755E+03  0.51100000000E-03 0. -1.
         22    1    1    2    0    0 -0.39954860507E+02 -0.46723559780E+00  0.16923230514E+03  0.17388554365E+03  0.00000000000E+00 0.  1.
          4    1    1    2  501    0  0.14048556594E+03  0.35740391699E+02  0.47343657158E+03  0.49513409653E+03  0.14200000000E+01 0. -1.
<mgrwt>
<rscale>  0 0.14496754E+03</rscale>
<asrwt>0</asrwt>
<pdfrwt beam="1">  1       11 0.10000000E+01 0.14766618E+03</pdfrwt>
<pdfrwt beam="2">  1        4 0.32953204E-02 0.14496754E+03</pdfrwt>
<totfact> 0.18753913E+03</totfact>
</mgrwt>
</event>
<event>
 5    1  0.1490736E-003  0.3483552E+02  0.7818608E-02  0.1564967E+00
         11   -1    0    0    0    0  0.00000000000E+00  0.00000000000E+00  0.10001294643E+04  0.10001294643E+04  0.51100000000E-03 0. -1.
          4   -1    0    0  501    0 -0.00000000000E+00 -0.00000000000E+00 -0.28315406179E+01  0.31676524858E+01  0.14200000000E+01 0. -1.
         11    1    1    2    0    0  0.10711171419E+02 -0.17408843274E+02  0.70038017256E+02  0.72959720933E+02  0.51100000000E-03 0. -1.
         22    1    1    2    0    0  0.13010603187E+02 -0.58087924771E+01  0.40109856814E+02  0.42565461104E+02  0.00000000000E+00 0. -1.
          4    1    1    2  501    0 -0.23721774606E+02  0.23217635751E+02  0.88715004965E+03  0.88777193478E+03  0.14200000000E+01 0. -1.
<mgrwt>
<rscale>  0 0.33223450E+02</rscale>
<asrwt>0</asrwt>
<pdfrwt beam="1">  1       11 0.10000000E+01 0.34835521E+02</pdfrwt>
<pdfrwt beam="2">  1        4 0.46161368E-03 0.33223450E+02</pdfrwt>
<totfact> 0.24609174E+04</totfact>
</mgrwt>
</event>
<event>
 5    1  0.1490736E-003  0.1727385E+03  0.7818608E-02  0.1686931E+00
         11   -1    0    0    0    0  0.00000000000E+00  0.00000000000E+00  0.10003000450E+04  0.10003000450E+04  0.51100000000E-03 0. -1.
         -4   -1    0    0    0  501 -0.00000000000E+00 -0.00000000000E+00 -0.51779435807E+03  0.51779630517E+03  0.14200000000E+01 0.  1.
         11    1    1    2    0    0 -0.92744379945E+02 -0.14480090017E+03  0.19865007906E+03  0.26273689237E+03  0.51100000000E-03 0. -1.
         22    1    1    2    0    0  0.73076251837E+02  0.15718399706E+03  0.75955867022E+03  0.77908685076E+03  0.00000000000E+00 0.  1.
         -4    1    1    2    0  501  0.19668128109E+02 -0.12383096886E+02 -0.47570306232E+03  0.47627260708E+03  0.14200000000E+01 0.  1.
<mgrwt>
<rscale>  0 0.23285033E+02</rscale>
<asrwt>0</asrwt>
<pdfrwt beam="1">  1       11 0.10000000E+01 0.17273850E+03</pdfrwt>
<pdfrwt beam="2">  1       -4 0.79684797E-01 0.23285033E+02</pdfrwt>
<totfact> 0.51394926E+00</totfact>
</mgrwt>
</event>
<event>
 5    1  0.1490736E-003  0.9256982E+02  0.7818608E-02  0.1301622E+00
         11   -1    0    0    0    0  0.00000000000E+00  0.00000000000E+00  0.10003354217E+04  0.10003354217E+04  0.51100000000E-03 0.  1.
          4   -1    0    0  501    0 -0.00000000000E+00 -0.00000000000E+00 -0.83840082270E+01  0.85034107246E+01  0.14200000000E+01 0.  1.
         11    1    1    2    0    0  0.21612779126E+01  0.43930820003E+02  0.21160707700E+03  0.21612992182E+03  0.51100000000E-03 0.  1.
         22    1    1    2    0    0 -0.17688215613E+02  0.45225684112E+02  0.24480747395E+03  0.24957751256E+03  0.00000000000E+00 0.  1.
          4    1    1    2  501    0  0.15526937700E+02 -0.89156504115E+02  0.53553686250E+03  0.54313139802E+03  0.14200000000E+01 0.  1.
<mgrwt>
<rscale>  0 0.90509582E+02</rscale>
<asrwt>0</asrwt>
<pdfrwt beam="1">  1       11 0.10000000E+01 0.92569823E+02</pdfrwt>
<pdfrwt beam="2">  1        4 0.12995455E-02 0.90509582E+02</pdfrwt>
<totfact> 0.71698199E+03</totfact>
</mgrwt>
</event>
<event>
 5    1  0.1490736E-003  0.7986454E+02  0.7818608E-02  0.1343778E+00
         11   -1    0    0    0    0  0.00000000000E+00  0.00000000000E+00  0.10002454326E+04  0.10002454326E+04  0.51100000000E-03 0. -1.
          4   -1    0    0  501    0 -0.00000000000E+00 -0.00000000000E+00 -0.77140097261E+01  0.78436181737E+01  0.14200000000E+01 0. -1.
         11    1    1    2    0    0 -0.63182326189E+00 -0.64378081548E+02  0.19062622126E+03  0.20120460436E+03  0.51100000000E-03 0. -1.
         22    1    1    2    0    0 -0.82848902945E+01 -0.10106841621E+02  0.76380908511E+02  0.77490843586E+02  0.00000000000E+00 0. -1.
          4    1    1    2  501    0  0.89167135563E+01  0.74484923170E+02  0.72552429314E+03  0.72939360287E+03  0.14200000000E+01 0. -1.
<mgrwt>
<rscale>  0 0.75030180E+02</rscale>
<asrwt>0</asrwt>
<pdfrwt beam="1">  1       11 0.10000000E+01 0.79864544E+02</pdfrwt>
<pdfrwt beam="2">  1        4 0.11971118E-02 0.75030180E+02</pdfrwt>
<totfact> 0.77674060E+03</totfact>
</mgrwt>
</event>
<event>
 5    1  0.1490736E-003  0.7333021E+02  0.7818608E-02  0.1349121E+00
         11   -1    0    0    0    0  0.00000000000E+00  0.00000000000E+00  0.10003378412E+04  0.10003378412E+04  0.51100000000E-03 0. -1.
          4   -1    0    0  501    0 -0.00000000000E+00 -0.00000000000E+00 -0.89076217222E+01  0.90200956063E+01  0.14200000000E+01 0. -1.
         11    1    1    2    0    0 -0.34643632176E+02 -0.70221818530E+01  0.16855411006E+03  0.17222073135E+03  0.51100000000E-03 0. -1.
         22    1    1    2    0    0  0.57381931868E+02  0.61782374024E+02  0.32576759005E+03  0.33650300232E+03  0.00000000000E+00 0. -1.
          4    1    1    2  501    0 -0.22738299692E+02 -0.54760192171E+02  0.49710851932E+03  0.50063420309E+03  0.14200000000E+01 0. -1.
<mgrwt>
<rscale>  0 0.73330214E+02</rscale>
<asrwt>0</asrwt>
<pdfrwt beam="1">  1       11 0.10000000E+01 0.35348176E+02</pdfrwt>
<pdfrwt beam="2">  1        4 0.13795986E-02 0.73330214E+02</pdfrwt>
<totfact> 0.62465629E+03</totfact>
</mgrwt>
</event>
<event>
 5    1  0.1490736E-003  0.6152163E+02  0.7818608E-02  0.1399011E+00
         11   -1    0    0    0    0  0.00000000000E+00  0.00000000000E+00  0.99979180167E+03  0.99979180167E+03  0.51100000000E-03 0.  1.
          4   -1    0    0  501    0 -0.00000000000E+00 -0.00000000000E+00 -0.48097351383E+01  0.50149727916E+01  0.14200000000E+01 0.  1.
         11    1    1    2    0    0  0.17537768601E+02  0.30118710028E+02  0.13734602386E+03  0.14169911888E+03  0.51100000000E-03 0.  1.
         22    1    1    2    0    0  0.22593857127E+02  0.14084157858E+02  0.11357632026E+03  0.11665516022E+03  0.00000000000E+00 0.  1.
          4    1    1    2  501    0 -0.40131625728E+02 -0.44202867886E+02  0.74405972242E+03  0.74645249536E+03  0.14200000000E+01 0.  1.
<mgrwt>
<rscale>  0 0.59719823E+02</rscale>
<asrwt>0</asrwt>
<pdfrwt beam="1">  1       11 0.10000000E+01 0.61521628E+02</pdfrwt>
<pdfrwt beam="2">  1        4 0.75566695E-03 0.59719823E+02</pdfrwt>
<totfact> 0.14481567E+04</totfact>
</mgrwt>
</event>
<event>
 5    1  0.1490736E-003  0.1196058E+03  0.7818608E-02  0.1248652E+00
         11   -1    0    0    0    0  0.00000000000E+00  0.00000000000E+00  0.99999032980E+03  0.99999032980E+03  0.51100000000E-03 0.  1.
          4   -1    0    0  501    0 -0.00000000000E+00 -0.00000000000E+00 -0.14320595183E+02  0.14390825077E+02  0.14200000000E+01 0.  1.
         11    1    1    2    0    0  0.37099163795E+02  0.74137104947E+02  0.38343103292E+03  0.39229072802E+03  0.51100000000E-03 0.  1.
         22    1    1    2    0    0  0.44792330000E+00  0.36342669413E+02  0.19960555524E+03  0.20288757463E+03  0.00000000000E+00 0. -1.
          4    1    1    2  501    0 -0.37547087095E+02 -0.11047977436E+03  0.40263314645E+03  0.41920285223E+03  0.14200000000E+01 0.  1.
<mgrwt>
<rscale>  0 0.11669439E+03</rscale>
<asrwt>0</asrwt>
<pdfrwt beam="1">  1       11 0.10000000E+01 0.11960581E+03</pdfrwt>
<pdfrwt beam="2">  1        4 0.22086269E-02 0.11669439E+03</pdfrwt>
<totfact> 0.33677346E+03</totfact>
</mgrwt>
</event>
<event>
 5    1  0.1490736E-003  0.1849353E+03  0.7818608E-02  0.1167640E+00
         11   -1    0    0    0    0  0.00000000000E+00  0.00000000000E+00  0.99974329672E+03  0.99974329672E+03  0.51100000000E-03 0. -1.
          4   -1    0    0  501    0 -0.00000000000E+00 -0.00000000000E+00 -0.34439812581E+02  0.34469074409E+02  0.14200000000E+01 0. -1.
         11    1    1    2    0    0 -0.16634911378E+03  0.38515634861E+02  0.54795561618E+03  0.57394323682E+03  0.51100000000E-03 0. -1.
         22    1    1    2    0    0 -0.11215928155E+02 -0.80323185795E+01  0.34068692965E+02  0.36755829830E+02  0.00000000000E+00 0.  1.
          4    1    1    2  501    0  0.17756504194E+03 -0.30483316281E+02  0.38327917499E+03  0.42351330448E+03  0.14200000000E+01 0. -1.
<mgrwt>
<rscale>  0 0.18016824E+03</rscale>
<asrwt>0</asrwt>
<pdfrwt beam="1">  1       11 0.10000000E+01 0.18493527E+03</pdfrwt>
<pdfrwt beam="2">  1        4 0.52994003E-02 0.18016824E+03</pdfrwt>
<totfact> 0.90684655E+02</totfact>
</mgrwt>
</event>
<event>
 5    1  0.1490736E-003  0.2428835E+02  0.7818608E-02  0.1847257E+00
         11   -1    0    0    0    0  0.00000000000E+00  0.00000000000E+00  0.10003274323E+04  0.10003274323E+04  0.51100000000E-03 0. -1.
          4   -1    0    0  501    0 -0.00000000000E+00 -0.00000000000E+00 -0.13100599607E+01  0.19320085664E+01  0.14200000000E+01 0. -1.
         11    1    1    2    0    0  0.14922142742E+02 -0.16277904872E+02  0.12454228692E+03  0.12648486772E+03  0.51100000000E-03 0. -1.
         22    1    1    2    0    0 -0.68875679668E+01 -0.74405232895E+01  0.55693324729E+02  0.56608713098E+02  0.00000000000E+00 0. -1.
          4    1    1    2  501    0 -0.80345747751E+01  0.23718428161E+02  0.81878176071E+03  0.81916586007E+03  0.14200000000E+01 0. -1.
<mgrwt>
<rscale>  0 0.15706075E+02</rscale>
<asrwt>0</asrwt>
<pdfrwt beam="1">  1       11 0.10000000E+01 0.24288353E+02</pdfrwt>
<pdfrwt beam="2">  1        4 0.24954909E-03 0.15706075E+02</pdfrwt>
<totfact> 0.42235433E+04</totfact>
</mgrwt>
</event>
<event>
 5    1  0.1490736E-003  0.1913367E+03  0.7818608E-02  0.1392332E+00
         11   -1    0    0    0    0  0.00000000000E+00  0.00000000000E+00  0.10015903587E+04  0.10015903587E+04  0.51100000000E-03 0. -1.
          4   -1    0    0  501    0 -0.00000000000E+00 -0.00000000000E+00 -0.14455502655E+04  0.14455509629E+04  0.14200000000E+01 0. -1.
         11    1    1    2    0    0  0.21933449185E+02 -0.13760930791E+03 -0.14329948929E+01  0.13935369134E+03  0.51100000000E-03 0. -1.
         22    1    1    2    0    0 -0.46634376595E+02  0.19372772000E+03  0.92128999659E+03  0.94259241054E+03  0.00000000000E+00 0. -1.
          4    1    1    2  501    0  0.24700927410E+02 -0.56118412087E+02 -0.13638169084E+04  0.13651952198E+04  0.14200000000E+01 0. -1.
<mgrwt>
<rscale>  0 0.61330485E+02</rscale>
<asrwt>0</asrwt>
<pdfrwt beam="1">  1       11 0.10000000E+01 0.19133673E+03</pdfrwt>
<pdfrwt beam="2">  1        4 0.22274616E+00 0.61330485E+02</pdfrwt>
<totfact> 0.45794071E-01</totfact>
</mgrwt>
</event>
<event>
 5    1  0.1490736E-003  0.3684781E+02  0.7818608E-02  0.1532778E+00
         11   -1    0    0    0    0  0.00000000000E+00  0.00000000000E+00  0.10000343898E+04  0.10000343898E+04  0.51100000000E-03 0. -1.
          4   -1    0    0  501    0 -0.00000000000E+00 -0.00000000000E+00 -0.32268139212E+01  0.35254401260E+01  0.14200000000E+01 0. -1.
         11    1    1    2    0    0 -0.11212018173E+02  0.38817101335E+01  0.25586921955E+02  0.28204035181E+02  0.51100000000E-03 0. -1.
         22    1    1    2    0    0  0.38423069753E+02 -0.88446541951E+01  0.21231670959E+03  0.21594662620E+03  0.00000000000E+00 0. -1.
          4    1    1    2  501    0 -0.27211051580E+02  0.49629440616E+01  0.75890394437E+03  0.75940916858E+03  0.14200000000E+01 0. -1.
<mgrwt>
<rscale>  0 0.36847806E+02</rscale>
<asrwt>0</asrwt>
<pdfrwt beam="1">  1       11 0.10000000E+01 0.11864955E+02</pdfrwt>
<pdfrwt beam="2">  1        4 0.51949956E-03 0.36847806E+02</pdfrwt>
<totfact> 0.21539810E+04</totfact>
</mgrwt>
</event>
<event>
 5    1  0.1490736E-003  0.1144629E+03  0.7818608E-02  0.1268422E+00
         11   -1    0    0    0    0  0.00000000000E+00  0.00000000000E+00  0.10002823490E+04  0.10002823490E+04  0.51100000000E-03 0. -1.
         -4   -1    0    0    0  501 -0.00000000000E+00 -0.00000000000E+00 -0.15272698731E+02  0.15338569898E+02  0.14200000000E+01 0. -1.
         11    1    1    2    0    0 -0.19052213317E+02 -0.43700692733E+02  0.10272679353E+03  0.11324986307E+03  0.51100000000E-03 0. -1.
         22    1    1    2    0    0  0.23415101135E+02 -0.62066053935E+02  0.17392896593E+03  0.18614979775E+03  0.00000000000E+00 0. -1.
         -4    1    1    2    0  501 -0.43628878184E+01  0.10576674667E+03  0.70835389079E+03  0.71622125805E+03  0.14200000000E+01 0. -1.
<mgrwt>
<rscale>  0 0.10586622E+03</rscale>
<asrwt>0</asrwt>
<pdfrwt beam="1">  1       11 0.10000000E+01 0.11446287E+03</pdfrwt>
<pdfrwt beam="2">  1       -4 0.23554553E-02 0.10586622E+03</pdfrwt>
<totfact> 0.29938882E+03</totfact>
</mgrwt>
</event>
<event>
 5    1  0.1490736E-003  0.1158953E+03  0.7818608E-02  0.1253991E+00
         11   -1    0    0    0    0  0.00000000000E+00  0.00000000000E+00  0.10000129008E+04  0.10000129008E+04  0.51100000000E-03 0.  1.
          4   -1    0    0  501    0 -0.00000000000E+00 -0.00000000000E+00 -0.13896513460E+02  0.13968875629E+02  0.14200000000E+01 0.  1.
         11    1    1    2    0    0  0.21427830802E+02 -0.83776090354E+02  0.25290107306E+03  0.26727614559E+03  0.51100000000E-03 0.  1.
         22    1    1    2    0    0  0.23730232427E+01 -0.27324315537E+02  0.12612850741E+03  0.12907613971E+03  0.00000000000E+00 0.  1.
          4    1    1    2  501    0 -0.23800854044E+02  0.11110040589E+03  0.60708680687E+03  0.61762949114E+03  0.14200000000E+01 0.  1.
<mgrwt>
<rscale>  0 0.11363009E+03</rscale>
<asrwt>0</asrwt>
<pdfrwt beam="1">  1       11 0.10000000E+01 0.11589526E+03</pdfrwt>
<pdfrwt beam="2">  1        4 0.21435966E-02 0.11363009E+03</pdfrwt>
<totfact> 0.35087947E+03</totfact>
</mgrwt>
</event>
<event>
 5    1  0.1490736E-003  0.4954351E+02  0.7818608E-02  0.1447819E+00
         11   -1    0    0    0    0  0.00000000000E+00  0.00000000000E+00  0.10002212461E+04  0.10002212461E+04  0.51100000000E-03 0.  1.
          4   -1    0    0  501    0 -0.00000000000E+00 -0.00000000000E+00 -0.70437594302E+01  0.71854677586E+01  0.14200000000E+01 0.  1.
         11    1    1    2    0    0 -0.25773113859E+02  0.32463453842E+02  0.13170625328E+03  0.13807485791E+03  0.51100000000E-03 0.  1.
         22    1    1    2    0    0 -0.41736177237E+02 -0.41143524253E+01  0.25037716216E+03  0.25386523929E+03  0.00000000000E+00 0.  1.
          4    1    1    2  501    0  0.67509291096E+02 -0.28349101417E+02  0.61109407119E+03  0.61546661662E+03  0.14200000000E+01 0.  1.
<mgrwt>
<rscale>  0 0.49543511E+02</rscale>
<asrwt>0</asrwt>
<pdfrwt beam="1">  1       11 0.10000000E+01 0.41450343E+02</pdfrwt>
<pdfrwt beam="2">  1        4 0.10948756E-02 0.49543511E+02</pdfrwt>
<totfact> 0.79705247E+03</totfact>
</mgrwt>
</event>
<event>
 5    1  0.1490736E-003  0.1742012E+03  0.7818608E-02  0.1192613E+00
         11   -1    0    0    0    0  0.00000000000E+00  0.00000000000E+00  0.10002799393E+04  0.10002799393E+04  0.51100000000E-03 0.  1.
         -4   -1    0    0    0  501 -0.00000000000E+00 -0.00000000000E+00 -0.30320118594E+02  0.30353352229E+02  0.14200000000E+01 0. -1.
         11    1    1    2    0    0  0.34657477683E+02 -0.42459486743E+02  0.14117820471E+03  0.15144383203E+03  0.51100000000E-03 0.  1.
         22    1    1    2    0    0 -0.12977072644E+02 -0.11260549099E+03  0.52868652558E+03  0.54070125148E+03  0.00000000000E+00 0. -1.
         -4    1    1    2    0  501 -0.21680405040E+02  0.15506497773E+03  0.30009509041E+03  0.33848820803E+03  0.14200000000E+01 0. -1.
<mgrwt>
<rscale>  0 0.15657970E+03</rscale>
<asrwt>0</asrwt>
<pdfrwt beam="1">  1       11 0.10000000E+01 0.17420120E+03</pdfrwt>
<pdfrwt beam="2">  1       -4 0.46685740E-02 0.15657970E+03</pdfrwt>
<totfact> 0.10907251E+03</totfact>
</mgrwt>
</event>
<event>
 5    1  0.1490736E-003  0.1289122E+03  0.7818608E-02  0.1229079E+00
         11   -1    0    0    0    0  0.00000000000E+00  0.00000000000E+00  0.10002527739E+04  0.10002527739E+04  0.51100000000E-03 0. -1.
          4   -1    0    0  501    0 -0.00000000000E+00 -0.00000000000E+00 -0.42307066859E+02  0.42330890686E+02  0.14200000000E+01 0. -1.
         11    1    1    2    0    0  0.65944426274E+01 -0.11880573825E+03  0.10461695050E+03  0.15843925160E+03  0.51100000000E-03 0. -1.
         22    1    1    2    0    0  0.59802131097E+01 -0.54193477940E+02  0.27540428246E+03  0.28074938076E+03  0.00000000000E+00 0. -1.
          4    1    1    2  501    0 -0.12574655737E+02  0.17299921619E+03  0.57792447406E+03  0.60339503221E+03  0.14200000000E+01 0. -1.
<mgrwt>
<rscale>  0 0.12891220E+03</rscale>
<asrwt>0</asrwt>
<pdfrwt beam="1">  1       11 0.10000000E+01 0.54522436E+02</pdfrwt>
<pdfrwt beam="2">  1        4 0.65123352E-02 0.12891220E+03</pdfrwt>
<totfact> 0.61848386E+02</totfact>
</mgrwt>
</event>
<event>
 5    1  0.1490736E-003  0.1770880E+03  0.7818608E-02  0.1170651E+00
         11   -1    0    0    0    0  0.00000000000E+00  0.00000000000E+00  0.10005185009E+04  0.10005185009E+04  0.51100000000E-03 0.  1.
         -4   -1    0    0    0  501 -0.00000000000E+00 -0.00000000000E+00 -0.48610777173E+03  0.48610984575E+03  0.14200000000E+01 0. -1.
         11    1    1    2    0    0  0.17005569776E+03 -0.77208691780E+02  0.71879002274E+03  0.74265686506E+03  0.51100000000E-03 0.  1.
         22    1    1    2    0    0  0.41752947982E+01  0.46075983192E+02  0.25109187877E+03  0.25531854789E+03  0.00000000000E+00 0. -1.
         -4    1    1    2    0  501 -0.17423099256E+03  0.31132708588E+02 -0.45547117237E+03  0.48865293366E+03  0.14200000000E+01 0. -1.
<mgrwt>
<rscale>  0 0.17708796E+03</rscale>
<asrwt>0</asrwt>
<pdfrwt beam="1">  1       11 0.10000000E+01 0.46264774E+02</pdfrwt>
<pdfrwt beam="2">  1       -4 0.74824823E-01 0.17708796E+03</pdfrwt>
<totfact> 0.69050087E+00</totfact>
</mgrwt>
</event>
<event>
 5    1  0.1490736E-003  0.5333909E+02  0.7818608E-02  0.1433416E+00
         11   -1    0    0    0    0  0.00000000000E+00  0.00000000000E+00  0.10002832555E+04  0.10002832555E+04  0.51100000000E-03 0.  1.
          4   -1    0    0  501    0 -0.00000000000E+00 -0.00000000000E+00 -0.31889547268E+01  0.34908211426E+01  0.14200000000E+01 0.  1.
         11    1    1    2    0    0 -0.38426469356E+00  0.27035418928E+02  0.14534164869E+03  0.14783523389E+03  0.51100000000E-03 0.  1.
         22    1    1    2    0    0 -0.10438436279E+02  0.24092734778E+02  0.15330510148E+03  0.15553737481E+03  0.00000000000E+00 0.  1.
          4    1    1    2  501    0  0.10822700972E+02 -0.51128153706E+02  0.69844755060E+03  0.70040146794E+03  0.14200000000E+01 0.  1.
<mgrwt>
<rscale>  0 0.52280353E+02</rscale>
<asrwt>0</asrwt>
<pdfrwt beam="1">  1       11 0.10000000E+01 0.53339088E+02</pdfrwt>
<pdfrwt beam="2">  1        4 0.51405200E-03 0.52280353E+02</pdfrwt>
<totfact> 0.24450760E+04</totfact>
</mgrwt>
</event>
<event>
 5    1  0.1490736E-003  0.3010827E+03  0.7818608E-02  0.1089671E+00
         11   -1    0    0    0    0  0.00000000000E+00  0.00000000000E+00  0.10002678160E+04  0.10002678160E+04  0.51100000000E-03 0. -1.
          4   -1    0    0  501    0 -0.00000000000E+00 -0.00000000000E+00 -0.28456588472E+03  0.28456942764E+03  0.14200000000E+01 0. -1.
         11    1    1    2    0    0  0.70550672921E+02  0.16197460830E+03  0.41946803058E+03  0.45515557764E+03  0.51100000000E-03 0. -1.
         22    1    1    2    0    0  0.43821663717E+02  0.10593334236E+03  0.47450581338E+03  0.48815773902E+03  0.00000000000E+00 0. -1.
          4    1    1    2  501    0 -0.11437233664E+03 -0.26790795065E+03 -0.17827191271E+03  0.34152392694E+03  0.14200000000E+01 0. -1.
<mgrwt>
<rscale>  0 0.29130348E+03</rscale>
<asrwt>0</asrwt>
<pdfrwt beam="1">  1       11 0.10000000E+01 0.30108268E+03</pdfrwt>
<pdfrwt beam="2">  1        4 0.43791441E-01 0.29130348E+03</pdfrwt>
<totfact> 0.21841798E+01</totfact>
</mgrwt>
</event>
<event>
 5    1  0.1490736E-003  0.5417057E+02  0.7818608E-02  0.1534409E+00
         11   -1    0    0    0    0  0.00000000000E+00  0.00000000000E+00  0.10002059705E+04  0.10002059705E+04  0.51100000000E-03 0. -1.
          4   -1    0    0  501    0 -0.00000000000E+00 -0.00000000000E+00 -0.14249874766E+02  0.14320451489E+02  0.14200000000E+01 0. -1.
         11    1    1    2    0    0  0.22494896231E+02 -0.37297554180E+02  0.33779155016E+02  0.55119499436E+02  0.51100000000E-03 0. -1.
         22    1    1    2    0    0  0.23791162584E+02  0.69630612569E+01  0.52818872817E+02  0.58346696263E+02  0.00000000000E+00 0.  1.
          4    1    1    2  501    0 -0.46286058815E+02  0.30334492923E+02  0.89935806791E+03  0.90106022630E+03  0.14200000000E+01 0. -1.
<mgrwt>
<rscale>  0 0.36651124E+02</rscale>
<asrwt>0</asrwt>
<pdfrwt beam="1">  1       11 0.10000000E+01 0.54170572E+02</pdfrwt>
<pdfrwt beam="2">  1        4 0.21982476E-02 0.36651124E+02</pdfrwt>
<totfact> 0.26004963E+03</totfact>
</mgrwt>
</event>
<event>
 5    1  0.1490736E-003  0.1289217E+03  0.7818608E-02  0.1234373E+00
         11   -1    0    0    0    0  0.00000000000E+00  0.00000000000E+00  0.10002417221E+04  0.10002417221E+04  0.51100000000E-03 0. -1.
          4   -1    0    0  501    0 -0.00000000000E+00 -0.00000000000E+00 -0.16554174000E+02  0.16614965448E+02  0.14200000000E+01 0. -1.
         11    1    1    2    0    0 -0.63994165799E+01  0.96838840883E+02  0.27945572322E+03  0.29582801570E+03  0.51100000000E-03 0. -1.
         22    1    1    2    0    0 -0.98417102535E+01  0.27544011325E+02  0.13869964589E+03  0.14175021548E+03  0.00000000000E+00 0. -1.
          4    1    1    2  501    0  0.16241126833E+02 -0.12438285221E+03  0.56553217902E+03  0.57927845638E+03  0.14200000000E+01 0. -1.
<mgrwt>
<rscale>  0 0.12544674E+03</rscale>
<asrwt>0</asrwt>
<pdfrwt beam="1">  1       11 0.10000000E+01 0.12892166E+03</pdfrwt>
<pdfrwt beam="2">  1        4 0.25521665E-02 0.12544674E+03</pdfrwt>
<totfact> 0.27286844E+03</totfact>
</mgrwt>
</event>
<event>
 5    1  0.1490736E-003  0.2128262E+03  0.7818608E-02  0.1143269E+00
         11   -1    0    0    0    0  0.00000000000E+00  0.00000000000E+00  0.10000097248E+04  0.10000097248E+04  0.51100000000E-03 0. -1.
         -4   -1    0    0    0  501 -0.00000000000E+00 -0.00000000000E+00 -0.49881345396E+02  0.49901553268E+02  0.14200000000E+01 0.  1.
         11    1    1    2    0    0  0.15743394216E+03 -0.23143989348E+02  0.47032218489E+03  0.49651188101E+03  0.51100000000E-03 0. -1.
         22    1    1    2    0    0  0.43277246796E+02 -0.30895173174E+02  0.18631804351E+03  0.19375718091E+03  0.00000000000E+00 0.  1.
         -4    1    1    2    0  501 -0.20071118895E+03  0.54039162522E+02  0.29348815100E+03  0.35964221614E+03  0.14200000000E+01 0.  1.
<mgrwt>
<rscale>  0 0.20786349E+03</rscale>
<asrwt>0</asrwt>
<pdfrwt beam="1">  1       11 0.10000000E+01 0.21282619E+03</pdfrwt>
<pdfrwt beam="2">  1       -4 0.76757596E-02 0.20786349E+03</pdfrwt>
<totfact> 0.50242749E+02</totfact>
</mgrwt>
</event>
<event>
 5    1  0.1490736E-003  0.5922130E+02  0.7818608E-02  0.1431450E+00
         11   -1    0    0    0    0  0.00000000000E+00  0.00000000000E+00  0.10003452749E+04  0.10003452749E+04  0.51100000000E-03 0.  1.
          4   -1    0    0  501    0 -0.00000000000E+00 -0.00000000000E+00 -0.43800403825E+01  0.46044710611E+01  0.14200000000E+01 0.  1.
         11    1    1    2    0    0 -0.29694669323E+02  0.15524388229E+02  0.11565074757E+03  0.12040712367E+03  0.51100000000E-03 0.  1.
         22    1    1    2    0    0 -0.48739662414E+01  0.24188793777E+02  0.12611320850E+03  0.12850445381E+03  0.00000000000E+00 0.  1.
          4    1    1    2  501    0  0.34568635564E+02 -0.39713182006E+02  0.75420127840E+03  0.75603816844E+03  0.14200000000E+01 0.  1.
<mgrwt>
<rscale>  0 0.52670141E+02</rscale>
<asrwt>0</asrwt>
<pdfrwt beam="1">  1       11 0.10000000E+01 0.59221305E+02</pdfrwt>
<pdfrwt beam="2">  1        4 0.69143242E-03 0.52670141E+02</pdfrwt>
<totfact> 0.15921422E+04</totfact>
</mgrwt>
</event>
<event>
 5    1  0.1490736E-003  0.1761698E+03  0.7818608E-02  0.1173657E+00
         11   -1    0    0    0    0  0.00000000000E+00  0.00000000000E+00  0.10001945519E+04  0.10001945519E+04  0.51100000000E-03 0.  1.
          4   -1    0    0  501    0 -0.00000000000E+00 -0.00000000000E+00 -0.34404001100E+02  0.34433293361E+02  0.14200000000E+01 0.  1.
         11    1    1    2    0    0  0.93852031408E+02 -0.13557283307E+03  0.29256580339E+03  0.33583172300E+03  0.51100000000E-03 0.  1.
         22    1    1    2    0    0  0.10629336155E+02 -0.36604900579E+01  0.22003413158E+02  0.24708949091E+02  0.00000000000E+00 0. -1.
          4    1    1    2  501    0 -0.10448136756E+03  0.13923332312E+03  0.65122133423E+03  0.67408717314E+03  0.14200000000E+01 0.  1.
<mgrwt>
<rscale>  0 0.17408128E+03</rscale>
<asrwt>0</asrwt>
<pdfrwt beam="1">  1       11 0.10000000E+01 0.17616976E+03</pdfrwt>
<pdfrwt beam="2">  1        4 0.52962841E-02 0.17408128E+03</pdfrwt>
<totfact> 0.90339997E+02</totfact>
</mgrwt>
</event>
<event>
 5    1  0.1490736E-003  0.9056930E+02  0.7818608E-02  0.1301479E+00
         11   -1    0    0    0    0  0.00000000000E+00  0.00000000000E+00  0.10004722945E+04  0.10004722945E+04  0.51100000000E-03 0. -1.
          4   -1    0    0  501    0 -0.00000000000E+00 -0.00000000000E+00 -0.25066414792E+02  0.25106603723E+02  0.14200000000E+01 0. -1.
         11    1    1    2    0    0  0.70535735125E+02  0.14752633920E+02  0.80632072379E+02  0.10814093228E+03  0.51100000000E-03 0. -1.
         22    1    1    2    0    0  0.20529745365E+02 -0.83533285724E+02  0.31477333983E+03  0.32631508659E+03  0.00000000000E+00 0. -1.
          4    1    1    2  501    0 -0.91065480489E+02  0.68780651804E+02  0.58000046746E+03  0.59112287931E+03  0.14200000000E+01 0. -1.
<mgrwt>
<rscale>  0 0.90569297E+02</rscale>
<asrwt>0</asrwt>
<pdfrwt beam="1">  1       11 0.10000000E+01 0.72062024E+02</pdfrwt>
<pdfrwt beam="2">  1        4 0.38613632E-02 0.90569297E+02</pdfrwt>
<totfact> 0.13473992E+03</totfact>
</mgrwt>
</event>
<event>
 5    1  0.1490736E-003  0.7507234E+03  0.7818608E-02  0.9634216E-01
         11   -1    0    0    0    0  0.00000000000E+00  0.00000000000E+00  0.99987317192E+03  0.99987317192E+03  0.51100000000E-03 0.  1.
         -4   -1    0    0    0  501 -0.00000000000E+00 -0.00000000000E+00 -0.69634002496E+03  0.69634147282E+03  0.14200000000E+01 0. -1.
         11    1    1    2    0    0  0.39620567245E+03 -0.63328756701E+03  0.50346734541E+03  0.90083930049E+03  0.51100000000E-03 0.  1.
         22    1    1    2    0    0 -0.71198750771E+01 -0.10534240458E+02  0.78536334500E+01  0.14944644576E+02  0.00000000000E+00 0. -1.
         -4    1    1    2    0  501 -0.38908579737E+03  0.64382180747E+03 -0.20778783191E+03  0.78043069967E+03  0.14200000000E+01 0. -1.
<mgrwt>
<rscale>  0 0.75072343E+03</rscale>
<asrwt>0</asrwt>
<pdfrwt beam="1">  1       11 0.10000000E+01 0.12714670E+02</pdfrwt>
<pdfrwt beam="2">  1       -4 0.10711583E+00 0.75072343E+03</pdfrwt>
<totfact> 0.30934005E+00</totfact>
</mgrwt>
</event>
<event>
 5    1  0.1490736E-003  0.9067254E+02  0.7818608E-02  0.1447739E+00
         11   -1    0    0    0    0  0.00000000000E+00  0.00000000000E+00  0.99989050447E+03  0.99989050447E+03  0.51100000000E-03 0. -1.
          4   -1    0    0  501    0 -0.00000000000E+00 -0.00000000000E+00 -0.18245318161E+02  0.18300492747E+02  0.14200000000E+01 0. -1.
         11    1    1    2    0    0 -0.78164982788E+02 -0.12399552924E+02  0.47201867675E+03  0.47860750584E+03  0.51100000000E-03 0. -1.
         22    1    1    2    0    0  0.12721710299E+03  0.54792282276E+01  0.38252820111E+03  0.40316502561E+03  0.00000000000E+00 0. -1.
          4    1    1    2  501    0 -0.49052120199E+02  0.69203246965E+01  0.12709830846E+03  0.13641846577E+03  0.14200000000E+01 0. -1.
<mgrwt>
<rscale>  0 0.49558226E+02</rscale>
<asrwt>0</asrwt>
<pdfrwt beam="1">  1       11 0.10000000E+01 0.90672539E+02</pdfrwt>
<pdfrwt beam="2">  1        4 0.28109859E-02 0.49558226E+02</pdfrwt>
<totfact> 0.19398776E+03</totfact>
</mgrwt>
</event>
<event>
 5    1  0.1490736E-003  0.1598607E+03  0.7818608E-02  0.1188854E+00
         11   -1    0    0    0    0  0.00000000000E+00  0.00000000000E+00  0.10000779605E+04  0.10000779605E+04  0.51100000000E-03 0.  1.
          4   -1    0    0  501    0 -0.00000000000E+00 -0.00000000000E+00 -0.41011845337E+02  0.41036421116E+02  0.14200000000E+01 0.  1.
         11    1    1    2    0    0 -0.41480662421E+02 -0.15869480726E+03  0.29098608033E+03  0.33403231304E+03  0.51100000000E-03 0.  1.
         22    1    1    2    0    0 -0.58735594148E+02  0.31369396013E+02  0.24947946201E+03  0.25821291794E+03  0.00000000000E+00 0. -1.
          4    1    1    2  501    0  0.10021625657E+03  0.12732541124E+03  0.41860057279E+03  0.44886915061E+03  0.14200000000E+01 0.  1.
<mgrwt>
<rscale>  0 0.15986067E+03</rscale>
<asrwt>0</asrwt>
<pdfrwt beam="1">  1       11 0.10000000E+01 0.66587604E+02</pdfrwt>
<pdfrwt beam="2">  1        4 0.63119745E-02 0.15986067E+03</pdfrwt>
<totfact> 0.67102525E+02</totfact>
</mgrwt>
</event>
<event>
 5    1  0.1490736E-003  0.1158035E+03  0.7818608E-02  0.1250185E+00
         11   -1    0    0    0    0  0.00000000000E+00  0.00000000000E+00  0.99995078063E+03  0.99995078063E+03  0.51100000000E-03 0.  1.
          4   -1    0    0  501    0 -0.00000000000E+00 -0.00000000000E+00 -0.23667911700E+02  0.23710471194E+02  0.14200000000E+01 0.  1.
         11    1    1    2    0    0  0.99777728995E+02  0.17262562292E+02  0.34383004923E+03  0.35843087759E+03  0.51100000000E-03 0.  1.
         22    1    1    2    0    0  0.34045216052E+02 -0.56396634086E+02  0.23340728567E+03  0.24252549984E+03  0.00000000000E+00 0.  1.
          4    1    1    2  501    0 -0.13382294505E+03  0.39134071795E+02  0.39904553404E+03  0.42270487439E+03  0.14200000000E+01 0.  1.
<mgrwt>
<rscale>  0 0.11580350E+03</rscale>
<asrwt>0</asrwt>
<pdfrwt beam="1">  1       11 0.10000000E+01 0.65876074E+02</pdfrwt>
<pdfrwt beam="2">  1        4 0.36443891E-02 0.11580350E+03</pdfrwt>
<totfact> 0.15413838E+03</totfact>
</mgrwt>
</event>
<event>
 5    1  0.1490736E-003  0.1116614E+03  0.7818608E-02  0.1265946E+00
         11   -1    0    0    0    0  0.00000000000E+00  0.00000000000E+00  0.10000746380E+04  0.10000746380E+04  0.51100000000E-03 0.  1.
          4   -1    0    0  501    0 -0.00000000000E+00 -0.00000000000E+00 -0.16704260485E+02  0.16764507698E+02  0.14200000000E+01 0.  1.
         11    1    1    2    0    0  0.20434706445E+02 -0.77525043773E+02  0.19726404730E+03  0.21293382539E+03  0.51100000000E-03 0.  1.
         22    1    1    2    0    0  0.70689774838E+01 -0.26022018802E+02  0.30379176466E+02  0.40620318413E+02  0.00000000000E+00 0.  1.
          4    1    1    2  501    0 -0.27503683928E+02  0.10354706258E+03  0.75572715375E+03  0.76328500190E+03  0.14200000000E+01 0.  1.
<mgrwt>
<rscale>  0 0.10714692E+03</rscale>
<asrwt>0</asrwt>
<pdfrwt beam="1">  1       11 0.10000000E+01 0.11166139E+03</pdfrwt>
<pdfrwt beam="2">  1        4 0.25747903E-02 0.10714692E+03</pdfrwt>
<totfact> 0.26150815E+03</totfact>
</mgrwt>
</event>
<event>
 5    1  0.1490736E-003  0.8281822E+02  0.7818608E-02  0.1329637E+00
         11   -1    0    0    0    0  0.00000000000E+00  0.00000000000E+00  0.99999437011E+03  0.99999437011E+03  0.51100000000E-03 0. -1.
          4   -1    0    0  501    0 -0.00000000000E+00 -0.00000000000E+00 -0.19075614882E+02  0.19128394682E+02  0.14200000000E+01 0. -1.
         11    1    1    2    0    0  0.29776316549E+02 -0.19431033759E+02  0.28215859483E+02  0.45390845187E+02  0.51100000000E-03 0. -1.
         22    1    1    2    0    0  0.46431748781E+02 -0.41777574129E+01  0.53361755001E+02  0.70857870760E+02  0.00000000000E+00 0.  1.
          4    1    1    2  501    0 -0.76208065330E+02  0.23608791172E+02  0.89934114075E+03  0.90287404885E+03  0.14200000000E+01 0. -1.
<mgrwt>
<rscale>  0 0.79793863E+02</rscale>
<asrwt>0</asrwt>
<pdfrwt beam="1">  1       11 0.10000000E+01 0.82818215E+02</pdfrwt>
<pdfrwt beam="2">  1        4 0.29388309E-02 0.79793863E+02</pdfrwt>
<totfact> 0.20123183E+03</totfact>
</mgrwt>
</event>
<event>
 5    1  0.2059655E-003  0.2092001E+03  0.7818608E-02  0.1144002E+00
         11   -1    0    0    0    0  0.00000000000E+00  0.00000000000E+00  0.10002261194E+04  0.10002261194E+04  0.51100000000E-03 0.  1.
          4   -1    0    0  501    0 -0.00000000000E+00 -0.00000000000E+00 -0.48577245008E+02  0.48597995150E+02  0.14200000000E+01 0.  1.
         11    1    1    2    0    0 -0.19532201987E+03 -0.14579148784E+02  0.58716426662E+03  0.61897101631E+03  0.51100000000E-03 0.  1.
         22    1    1    2    0    0 -0.10941840132E+02 -0.22406983550E+01  0.64177782864E+02  0.65142400999E+02  0.00000000000E+00 0.  1.
          4    1    1    2  501    0  0.20626386001E+03  0.16819847139E+02  0.30030682492E+03  0.36471069726E+03  0.14200000000E+01 0.  1.
<mgrwt>
<rscale>  0 0.20695339E+03</rscale>
<asrwt>0</asrwt>
<pdfrwt beam="1">  1       11 0.10000000E+01 0.20920015E+03</pdfrwt>
<pdfrwt beam="2">  1        4 0.74767861E-02 0.20695339E+03</pdfrwt>
<totfact> 0.52460367E+02</totfact>
</mgrwt>
</event>
<event>
 5    1  0.1490736E-003  0.9283267E+02  0.7818608E-02  0.1401579E+00
         11   -1    0    0    0    0  0.00000000000E+00  0.00000000000E+00  0.10000721552E+04  0.10000721552E+04  0.51100000000E-03 0. -1.
          4   -1    0    0  501    0 -0.00000000000E+00 -0.00000000000E+00 -0.16202729088E+02  0.16264834149E+02  0.14200000000E+01 0. -1.
         11    1    1    2    0    0 -0.32558552749E+02  0.70587692365E+02  0.23992398147E+03  0.25220269339E+03  0.51100000000E-03 0. -1.
         22    1    1    2    0    0  0.91654601322E+02 -0.69989830923E+02  0.48301829727E+03  0.49659421853E+03  0.00000000000E+00 0. -1.
          4    1    1    2  501    0 -0.59096048573E+02 -0.59786144210E+00  0.26092714739E+03  0.26754007745E+03  0.14200000000E+01 0. -1.
<mgrwt>
<rscale>  0 0.59116130E+02</rscale>
<asrwt>0</asrwt>
<pdfrwt beam="1">  1       11 0.10000000E+01 0.92832665E+02</pdfrwt>
<pdfrwt beam="2">  1        4 0.24977626E-02 0.59116130E+02</pdfrwt>
<totfact> 0.24213503E+03</totfact>
</mgrwt>
</event>
<event>
 5    1  0.1490736E-003  0.2052074E+03  0.7818608E-02  0.1148915E+00
         11   -1    0    0    0    0  0.00000000000E+00  0.00000000000E+00  0.10001685330E+04  0.10001685330E+04  0.51100000000E-03 0. -1.
          4   -1    0    0  501    0 -0.00000000000E+00 -0.00000000000E+00 -0.49159415899E+02  0.49179920410E+02  0.14200000000E+01 0. -1.
         11    1    1    2    0    0 -0.16186878790E+03  0.29710654545E+02  0.50026261173E+03  0.52663735928E+03  0.51100000000E-03 0. -1.
         22    1    1    2    0    0 -0.36391580377E+02  0.32112214840E+01  0.19008854909E+03  0.19356734115E+03  0.00000000000E+00 0.  1.
          4    1    1    2  501    0  0.19826036828E+03 -0.32921876029E+02  0.26065795627E+03  0.32914375297E+03  0.14200000000E+01 0. -1.
<mgrwt>
<rscale>  0 0.20098020E+03</rscale>
<asrwt>0</asrwt>
<pdfrwt beam="1">  1       11 0.10000000E+01 0.20520742E+03</pdfrwt>
<pdfrwt beam="2">  1        4 0.75659165E-02 0.20098020E+03</pdfrwt>
<totfact> 0.51255419E+02</totfact>
</mgrwt>
</event>
<event>
 5    1  0.1490736E-003  0.7039342E+02  0.7818608E-02  0.1370546E+00
         11   -1    0    0    0    0  0.00000000000E+00  0.00000000000E+00  0.10000755956E+04  0.10000755956E+04  0.51100000000E-03 0. -1.
          4   -1    0    0  501    0 -0.00000000000E+00 -0.00000000000E+00 -0.71358865642E+01  0.72758007846E+01  0.14200000000E+01 0. -1.
         11    1    1    2    0    0 -0.10505833514E+02  0.30108549723E+02  0.95660138031E+02  0.10083530787E+03  0.51100000000E-03 0. -1.
         22    1    1    2    0    0  0.11020258770E+02  0.36889991464E+02  0.11300701367E+03  0.11938552137E+03  0.00000000000E+00 0. -1.
          4    1    1    2  501    0 -0.51442525624E+00 -0.66998541187E+02  0.78427255735E+03  0.78713056717E+03  0.14200000000E+01 0. -1.
<mgrwt>
<rscale>  0 0.67015562E+02</rscale>
<asrwt>0</asrwt>
<pdfrwt beam="1">  1       11 0.10000000E+01 0.70393419E+02</pdfrwt>
<pdfrwt beam="2">  1        4 0.11087527E-02 0.67015562E+02</pdfrwt>
<totfact> 0.84708111E+03</totfact>
</mgrwt>
</event>
<event>
 5    1  0.1490736E-003  0.1825042E+03  0.7818608E-02  0.1169017E+00
         11   -1    0    0    0    0  0.00000000000E+00  0.00000000000E+00  0.10002546063E+04  0.10002546063E+04  0.51100000000E-03 0. -1.
          4   -1    0    0  501    0 -0.00000000000E+00 -0.00000000000E+00 -0.42126449298E+02  0.42150375212E+02  0.14200000000E+01 0. -1.
         11    1    1    2    0    0 -0.92218490199E+02 -0.12058871926E+03  0.63899584892E+03  0.65678123001E+03  0.51100000000E-03 0. -1.
         22    1    1    2    0    0 -0.26642162834E+02 -0.12911397589E+02  0.91652563560E+02  0.96315634428E+02  0.00000000000E+00 0. -1.
          4    1    1    2  501    0  0.11886065303E+03  0.13350011685E+03  0.22747974449E+03  0.28930811705E+03  0.14200000000E+01 0. -1.
<mgrwt>
<rscale>  0 0.17875165E+03</rscale>
<asrwt>0</asrwt>
<pdfrwt beam="1">  1       11 0.10000000E+01 0.18250420E+03</pdfrwt>
<pdfrwt beam="2">  1        4 0.64845606E-02 0.17875165E+03</pdfrwt>
<totfact> 0.65162612E+02</totfact>
</mgrwt>
</event>
<event>
 5    1  0.1490736E-003  0.1846866E+03  0.7818608E-02  0.1682042E+00
         11   -1    0    0    0    0  0.00000000000E+00  0.00000000000E+00  0.10001222901E+04  0.10001222901E+04  0.51100000000E-03 0. -1.
         -4   -1    0    0    0  501 -0.00000000000E+00 -0.00000000000E+00 -0.37198590603E+03  0.37198861634E+03  0.14200000000E+01 0.  1.
         11    1    1    2    0    0  0.11933159847E+03 -0.14160613121E+03  0.30734392337E+03  0.35882114489E+03  0.51100000000E-03 0. -1.
         22    1    1    2    0    0 -0.10024897623E+03  0.15541064142E+03  0.65379697763E+03  0.67945037542E+03  0.00000000000E+00 0.  1.
         -4    1    1    2    0  501 -0.19082622245E+02 -0.13804510211E+02 -0.33300451698E+03  0.33383938608E+03  0.14200000000E+01 0.  1.
<mgrwt>
<rscale>  0 0.23595071E+02</rscale>
<asrwt>0</asrwt>
<pdfrwt beam="1">  1       11 0.10000000E+01 0.18468656E+03</pdfrwt>
<pdfrwt beam="2">  1       -4 0.57235884E-01 0.23595071E+02</pdfrwt>
<totfact> 0.10138635E+01</totfact>
</mgrwt>
</event>
<event>
 5    1  0.1490736E-003  0.2032691E+03  0.7818608E-02  0.1150966E+00
         11   -1    0    0    0    0  0.00000000000E+00  0.00000000000E+00  0.10001317308E+04  0.10001317308E+04  0.51100000000E-03 0. -1.
         -4   -1    0    0    0  501 -0.00000000000E+00 -0.00000000000E+00 -0.45803618544E+02  0.45825624619E+02  0.14200000000E+01 0. -1.
         11    1    1    2    0    0  0.16631068646E+03  0.67017305435E+02  0.25098978441E+03  0.30845815849E+03  0.51100000000E-03 0. -1.
         22    1    1    2    0    0  0.21844420337E+02 -0.36248192488E+01  0.50655199276E+02  0.55283516785E+02  0.00000000000E+00 0.  1.
         -4    1    1    2    0  501 -0.18815510680E+03 -0.63392486186E+02  0.65268312858E+03  0.68221568016E+03  0.14200000000E+01 0. -1.
<mgrwt>
<rscale>  0 0.19855218E+03</rscale>
<asrwt>0</asrwt>
<pdfrwt beam="1">  1       11 0.10000000E+01 0.20326906E+03</pdfrwt>
<pdfrwt beam="2">  1       -4 0.70494092E-02 0.19855218E+03</pdfrwt>
<totfact> 0.57550564E+02</totfact>
</mgrwt>
</event>
<event>
 5    1  0.1490736E-003  0.1364065E+03  0.7818608E-02  0.1240999E+00
         11   -1    0    0    0    0  0.00000000000E+00  0.00000000000E+00  0.10004205310E+04  0.10004205310E+04  0.51100000000E-03 0. -1.
          4   -1    0    0  501    0 -0.00000000000E+00 -0.00000000000E+00 -0.21224966257E+02  0.21272413888E+02  0.14200000000E+01 0. -1.
         11    1    1    2    0    0 -0.34351258461E+02 -0.45156191380E+02  0.32303993192E+03  0.32798458530E+03  0.51100000000E-03 0. -1.
         22    1    1    2    0    0  0.24591184546E+02 -0.75722725287E+02  0.42779098305E+03  0.43513651038E+03  0.00000000000E+00 0. -1.
          4    1    1    2  501    0  0.97600739150E+01  0.12087891667E+03  0.22836464972E+03  0.25857184917E+03  0.14200000000E+01 0. -1.
<mgrwt>
<rscale>  0 0.12128062E+03</rscale>
<asrwt>0</asrwt>
<pdfrwt beam="1">  1       11 0.10000000E+01 0.13640654E+03</pdfrwt>
<pdfrwt beam="2">  1        4 0.32704814E-02 0.12128062E+03</pdfrwt>
<totfact> 0.18419133E+03</totfact>
</mgrwt>
</event>
<event>
 5    1  0.1490736E-003  0.8303916E+02  0.7818608E-02  0.1329537E+00
         11   -1    0    0    0    0  0.00000000000E+00  0.00000000000E+00  0.99994930637E+03  0.99994930637E+03  0.51100000000E-03 0. -1.
          4   -1    0    0  501    0 -0.00000000000E+00 -0.00000000000E+00 -0.70663821555E+01  0.72076457161E+01  0.14200000000E+01 0. -1.
         11    1    1    2    0    0  0.51121078861E+02 -0.31364982185E+02  0.24221141110E+03  0.24952654063E+03  0.51100000000E-03 0. -1.
         22    1    1    2    0    0  0.21949865256E+02 -0.74940225523E+00  0.12931008768E+03  0.13116194937E+03  0.00000000000E+00 0. -1.
          4    1    1    2  501    0 -0.73070944117E+02  0.32114384440E+02  0.62136142544E+03  0.62646846208E+03  0.14200000000E+01 0. -1.
<mgrwt>
<rscale>  0 0.79829274E+02</rscale>
<asrwt>0</asrwt>
<pdfrwt beam="1">  1       11 0.10000000E+01 0.83039162E+02</pdfrwt>
<pdfrwt beam="2">  1        4 0.10980240E-02 0.79829274E+02</pdfrwt>
<totfact> 0.89676654E+03</totfact>
</mgrwt>
</event>
<event>
 5    1  0.1490736E-003  0.3028335E+03  0.7818608E-02  0.1085724E+00
         11   -1    0    0    0    0  0.00000000000E+00  0.00000000000E+00  0.10001861890E+04  0.10001861890E+04  0.51100000000E-03 0.  1.
          4   -1    0    0  501    0 -0.00000000000E+00 -0.00000000000E+00 -0.11685355076E+03  0.11686217833E+03  0.14200000000E+01 0.  1.
         11    1    1    2    0    0  0.10078926918E+03 -0.24552464762E+03  0.58312345557E+03  0.64068228773E+03  0.51100000000E-03 0.  1.
         22    1    1    2    0    0  0.13077923539E+02 -0.30979885409E+02  0.12573194102E+03  0.13015109057E+03  0.00000000000E+00 0. -1.
          4    1    1    2  501    0 -0.11386719272E+03  0.27650453303E+03  0.17447724160E+03  0.34621498899E+03  0.14200000000E+01 0.  1.
<mgrwt>
<rscale>  0 0.29903597E+03</rscale>
<asrwt>0</asrwt>
<pdfrwt beam="1">  1       11 0.10000000E+01 0.30283349E+03</pdfrwt>
<pdfrwt beam="2">  1        4 0.17981557E-01 0.29903597E+03</pdfrwt>
<totfact> 0.11939560E+02</totfact>
</mgrwt>
</event>
<event>
 5    1  0.1490736E-003  0.1749134E+03  0.7818608E-02  0.1172819E+00
         11   -1    0    0    0    0  0.00000000000E+00  0.00000000000E+00  0.10001727934E+04  0.10001727934E+04  0.51100000000E-03 0. -1.
          4   -1    0    0  501    0 -0.00000000000E+00 -0.00000000000E+00 -0.58574797724E+02  0.58592007376E+02  0.14200000000E+01 0. -1.
         11    1    1    2    0    0 -0.16949280185E+03  0.17705422676E+02  0.79296202972E+03  0.81106724287E+03  0.51100000000E-03 0. -1.
         22    1    1    2    0    0 -0.36075889540E+01  0.13461173085E+02  0.36583626134E+02  0.39148174670E+02  0.00000000000E+00 0.  1.
          4    1    1    2  501    0  0.17310039080E+03 -0.31166595761E+02  0.11205233980E+03  0.20854938322E+03  0.14200000000E+01 0. -1.
<mgrwt>
<rscale>  0 0.17491341E+03</rscale>
<asrwt>0</asrwt>
<pdfrwt beam="1">  1       11 0.10000000E+01 0.13936207E+02</pdfrwt>
<pdfrwt beam="2">  1        4 0.90144658E-02 0.17491341E+03</pdfrwt>
<totfact> 0.37603400E+02</totfact>
</mgrwt>
</event>
<event>
 5    1  0.1490736E-003  0.1205441E+03  0.7818608E-02  0.1291863E+00
         11   -1    0    0    0    0  0.00000000000E+00  0.00000000000E+00  0.10000877092E+04  0.10000877092E+04  0.51100000000E-03 0. -1.
         -4   -1    0    0    0  501 -0.00000000000E+00 -0.00000000000E+00 -0.17235627192E+03  0.17236212133E+03  0.14200000000E+01 0. -1.
         11    1    1    2    0    0 -0.14029543508E+03 -0.28569820549E+02  0.37452938469E+03  0.40096297054E+03  0.51100000000E-03 0. -1.
         22    1    1    2    0    0  0.73646702459E+02  0.95824779586E+02  0.59158577086E+03  0.60380456229E+03  0.00000000000E+00 0. -1.
         -4    1    1    2    0  501  0.66648732617E+02 -0.67254959037E+02 -0.13838371827E+03  0.16768229769E+03  0.14200000000E+01 0. -1.
<mgrwt>
<rscale>  0 0.94695826E+02</rscale>
<asrwt>0</asrwt>
<pdfrwt beam="1">  1       11 0.10000000E+01 0.12054408E+03</pdfrwt>
<pdfrwt beam="2">  1       -4 0.26519202E-01 0.94695826E+02</pdfrwt>
<totfact> 0.52836095E+01</totfact>
</mgrwt>
</event>
<event>
 5    1  0.1490736E-003  0.3046676E+02  0.7818608E-02  0.1703940E+00
         11   -1    0    0    0    0  0.00000000000E+00  0.00000000000E+00  0.10002636530E+04  0.10002636530E+04  0.51100000000E-03 0.  1.
         -4   -1    0    0    0  501 -0.00000000000E+00 -0.00000000000E+00 -0.56273760931E+01  0.58037713336E+01  0.14200000000E+01 0.  1.
         11    1    1    2    0    0 -0.22780379471E+02 -0.32622262082E+01  0.63295354166E+02  0.67349013860E+02  0.51100000000E-03 0.  1.
         22    1    1    2    0    0 -0.69602211733E+01  0.14665882641E+02  0.15902512440E+02  0.22724935518E+02  0.00000000000E+00 0. -1.
         -4    1    1    2    0  501  0.29740600644E+02 -0.11403656432E+02  0.91543841028E+03  0.91599347493E+03  0.14200000000E+01 0.  1.
<mgrwt>
<rscale>  0 0.22251398E+02</rscale>
<asrwt>0</asrwt>
<pdfrwt beam="1">  1       11 0.10000000E+01 0.30466761E+02</pdfrwt>
<pdfrwt beam="2">  1       -4 0.87962840E-03 0.22251398E+02</pdfrwt>
<totfact> 0.84197769E+03</totfact>
</mgrwt>
</event>
<event>
 5    1  0.1490736E-003  0.1039872E+03  0.7818608E-02  0.1277355E+00
         11   -1    0    0    0    0  0.00000000000E+00  0.00000000000E+00  0.10004428566E+04  0.10004428566E+04  0.51100000000E-03 0. -1.
          4   -1    0    0  501    0 -0.00000000000E+00 -0.00000000000E+00 -0.20708676720E+02  0.20757304533E+02  0.14200000000E+01 0. -1.
         11    1    1    2    0    0 -0.31220363774E+02 -0.38545450801E+02  0.53932482661E+02  0.73274658497E+02  0.51100000000E-03 0. -1.
         22    1    1    2    0    0 -0.16656055691E+02 -0.50842528614E+02  0.81097367184E+02  0.97155390335E+02  0.00000000000E+00 0. -1.
          4    1    1    2  501    0  0.47876419465E+02  0.89387979415E+02  0.84470433000E+03  0.85077011227E+03  0.14200000000E+01 0. -1.
<mgrwt>
<rscale>  0 0.10141193E+03</rscale>
<asrwt>0</asrwt>
<pdfrwt beam="1">  1       11 0.10000000E+01 0.10398722E+03</pdfrwt>
<pdfrwt beam="2">  1        4 0.31911809E-02 0.10141193E+03</pdfrwt>
<totfact> 0.18540851E+03</totfact>
</mgrwt>
</event>
<event>
 5    1  0.1490736E-003  0.1067787E+03  0.7818608E-02  0.1742348E+00
         11   -1    0    0    0    0  0.00000000000E+00  0.00000000000E+00  0.10001804226E+04  0.10001804226E+04  0.51100000000E-03 0. -1.
          4   -1    0    0  501    0 -0.00000000000E+00 -0.00000000000E+00 -0.16250507199E+02  0.16312430360E+02  0.14200000000E+01 0. -1.
         11    1    1    2    0    0  0.50102337950E+02 -0.84810545710E+02  0.34030037191E+03  0.35427025850E+03  0.51100000000E-03 0. -1.
         22    1    1    2    0    0 -0.69727583832E+02  0.89155990855E+02  0.62368010162E+03  0.63386717521E+03  0.00000000000E+00 0. -1.
          4    1    1    2  501    0  0.19625245882E+02 -0.43454451445E+01  0.19949441828E+02  0.28355419212E+02  0.14200000000E+01 0. -1.
<mgrwt>
<rscale>  0 0.20150672E+02</rscale>
<asrwt>0</asrwt>
<pdfrwt beam="1">  1       11 0.10000000E+01 0.10677868E+03</pdfrwt>
<pdfrwt beam="2">  1        4 0.25053708E-02 0.20150672E+02</pdfrwt>
<totfact> 0.17715724E+03</totfact>
</mgrwt>
</event>
<event>
 5    1  0.1490736E-003  0.6261890E+02  0.7818608E-02  0.1446464E+00
         11   -1    0    0    0    0  0.00000000000E+00  0.00000000000E+00  0.99997480781E+03  0.99997480781E+03  0.51100000000E-03 0.  1.
          4   -1    0    0  501    0 -0.00000000000E+00 -0.00000000000E+00 -0.87708664067E+01  0.88850716105E+01  0.14200000000E+01 0.  1.
         11    1    1    2    0    0 -0.43595340781E+02  0.24622105062E+02  0.26693692239E+03  0.27159183038E+03  0.51100000000E-03 0.  1.
         22    1    1    2    0    0 -0.22303531925E+01  0.39520419734E+02  0.92682304050E+02  0.10078118642E+03  0.00000000000E+00 0.  1.
          4    1    1    2  501    0  0.45825693973E+02 -0.64142524796E+02  0.63158471497E+03  0.63648686263E+03  0.14200000000E+01 0.  1.
<mgrwt>
<rscale>  0 0.49792573E+02</rscale>
<asrwt>0</asrwt>
<pdfrwt beam="1">  1       11 0.10000000E+01 0.62618901E+02</pdfrwt>
<pdfrwt beam="2">  1        4 0.13581924E-02 0.49792573E+02</pdfrwt>
<totfact> 0.58011631E+03</totfact>
</mgrwt>
</event>
<event>
 5    1  0.1490736E-003  0.6699905E+02  0.7818608E-02  0.1370606E+00
         11   -1    0    0    0    0  0.00000000000E+00  0.00000000000E+00  0.10000874539E+04  0.10000874539E+04  0.51100000000E-03 0. -1.
         -4   -1    0    0    0  501 -0.00000000000E+00 -0.00000000000E+00 -0.12813049666E+02  0.12891494938E+02  0.14200000000E+01 0. -1.
         11    1    1    2    0    0  0.77737004022E+02 -0.76284335804E+02  0.56944157916E+03  0.57976379135E+03  0.51100000000E-03 0. -1.
         22    1    1    2    0    0 -0.35021711168E+02  0.40365116624E+02  0.26897921388E+03  0.27423654095E+03  0.00000000000E+00 0.  1.
         -4    1    1    2    0  501 -0.42715292854E+02  0.35919219180E+02  0.14885361116E+03  0.15897861650E+03  0.14200000000E+01 0. -1.
<mgrwt>
<rscale>  0 0.66999048E+02</rscale>
<asrwt>0</asrwt>
<pdfrwt beam="1">  1       11 0.10000000E+01 0.53440274E+02</pdfrwt>
<pdfrwt beam="2">  1       -4 0.19775231E-02 0.66999048E+02</pdfrwt>
<totfact> 0.35542051E+03</totfact>
</mgrwt>
</event>
<event>
 5    1  0.1490736E-003  0.2127495E+03  0.7818608E-02  0.1139407E+00
         11   -1    0    0    0    0  0.00000000000E+00  0.00000000000E+00  0.10003619761E+04  0.10003619761E+04  0.51100000000E-03 0.  1.
          4   -1    0    0  501    0 -0.00000000000E+00 -0.00000000000E+00 -0.68556696526E+02  0.68571401025E+02  0.14200000000E+01 0.  1.
         11    1    1    2    0    0 -0.19945226162E+03 -0.84754653615E+02  0.70686483697E+03  0.73933920072E+03  0.51100000000E-03 0.  1.
         22    1    1    2    0    0 -0.17781428380E+01  0.18946880687E+02  0.54705759519E+02  0.57921206862E+02  0.00000000000E+00 0.  1.
          4    1    1    2  501    0  0.20123040445E+03  0.65807772927E+02  0.17023468307E+03  0.27167296953E+03  0.14200000000E+01 0.  1.
<mgrwt>
<rscale>  0 0.21274947E+03</rscale>
<asrwt>0</asrwt>
<pdfrwt beam="1">  1       11 0.10000000E+01 0.19030136E+02</pdfrwt>
<pdfrwt beam="2">  1        4 0.10552211E-01 0.21274947E+03</pdfrwt>
<totfact> 0.29453974E+02</totfact>
</mgrwt>
</event>
<event>
 5    1  0.1490736E-003  0.1009699E+03  0.7818608E-02  0.1298598E+00
         11   -1    0    0    0    0  0.00000000000E+00  0.00000000000E+00  0.10001640659E+04  0.10001640659E+04  0.51100000000E-03 0. -1.
          4   -1    0    0  501    0 -0.00000000000E+00 -0.00000000000E+00 -0.14530246431E+02  0.14599467844E+02  0.14200000000E+01 0. -1.
         11    1    1    2    0    0  0.74676794858E+02 -0.10172047548E+02  0.13295651074E+03  0.15283169825E+03  0.51100000000E-03 0. -1.
         22    1    1    2    0    0  0.16872782120E+02  0.16512431635E+02  0.69612748063E+02  0.73507046383E+02  0.00000000000E+00 0. -1.
          4    1    1    2  501    0 -0.91549576978E+02 -0.63403840874E+01  0.78306456070E+03  0.78842478915E+03  0.14200000000E+01 0. -1.
<mgrwt>
<rscale>  0 0.91779856E+02</rscale>
<asrwt>0</asrwt>
<pdfrwt beam="1">  1       11 0.10000000E+01 0.10096991E+03</pdfrwt>
<pdfrwt beam="2">  1        4 0.22411924E-02 0.91779856E+02</pdfrwt>
<totfact> 0.31425889E+03</totfact>
</mgrwt>
</event>
<event>
 5    1  0.2218113E-003  0.1877769E+03  0.7818608E-02  0.1164322E+00
         11   -1    0    0    0    0  0.00000000000E+00  0.00000000000E+00  0.10005718094E+04  0.10005718094E+04  0.51100000000E-03 0.  1.
         -4   -1    0    0    0  501 -0.00000000000E+00 -0.00000000000E+00 -0.14351540094E+03  0.14352242580E+03  0.14200000000E+01 0. -1.
         11    1    1    2    0    0  0.52971771567E+02 -0.15820851358E+03  0.82377772425E+03  0.84050323100E+03  0.51100000000E-03 0.  1.
         22    1    1    2    0    0 -0.72373866127E+01 -0.19643850736E+02  0.10453252386E+03  0.10660820410E+03  0.00000000000E+00 0.  1.
         -4    1    1    2    0  501 -0.45734384955E+02  0.17785236432E+03 -0.71253839665E+02  0.19698280008E+03  0.14200000000E+01 0. -1.
<mgrwt>
<rscale>  0 0.18364399E+03</rscale>
<asrwt>0</asrwt>
<pdfrwt beam="1">  1       11 0.10000000E+01 0.18777687E+03</pdfrwt>
<pdfrwt beam="2">  1       -4 0.22092535E-01 0.18364399E+03</pdfrwt>
<totfact> 0.78807738E+01</totfact>
</mgrwt>
</event>
<event>
 5    1  0.1490736E-003  0.1120959E+03  0.7818608E-02  0.1259143E+00
         11   -1    0    0    0    0  0.00000000000E+00  0.00000000000E+00  0.10002265661E+04  0.10002265661E+04  0.51100000000E-03 0. -1.
          4   -1    0    0  501    0 -0.00000000000E+00 -0.00000000000E+00 -0.12692233114E+02  0.12771420494E+02  0.14200000000E+01 0. -1.
         11    1    1    2    0    0  0.38705546234E+02  0.85603797471E+02  0.49411785357E+03  0.50296976317E+03  0.51100000000E-03 0. -1.
         22    1    1    2    0    0  0.46688922651E+00  0.18003137981E+02  0.82472728081E+02  0.84416123104E+02  0.00000000000E+00 0.  1.
          4    1    1    2  501    0 -0.39172435461E+02 -0.10360693545E+03  0.41094375132E+03  0.42561210030E+03  0.14200000000E+01 0. -1.
<mgrwt>
<rscale>  0 0.11077406E+03</rscale>
<asrwt>0</asrwt>
<pdfrwt beam="1">  1       11 0.10000000E+01 0.11209585E+03</pdfrwt>
<pdfrwt beam="2">  1        4 0.19592639E-02 0.11077406E+03</pdfrwt>
<totfact> 0.40088625E+03</totfact>
</mgrwt>
</event>
<event>
 5    1  0.1490736E-003  0.1182636E+03  0.7818608E-02  0.1245989E+00
         11   -1    0    0    0    0  0.00000000000E+00  0.00000000000E+00  0.10000693823E+04  0.10000693823E+04  0.51100000000E-03 0. -1.
          4   -1    0    0  501    0 -0.00000000000E+00 -0.00000000000E+00 -0.17449003084E+02  0.17506687540E+02  0.14200000000E+01 0. -1.
         11    1    1    2    0    0 -0.10958664563E+03  0.39112706487E+02  0.31059044873E+03  0.33167071555E+03  0.51100000000E-03 0. -1.
         22    1    1    2    0    0 -0.36019649711E+00  0.14668577831E+02  0.61516942455E+02  0.63242636932E+02  0.00000000000E+00 0. -1.
          4    1    1    2  501    0  0.10994684213E+03 -0.53781284317E+02  0.61051298802E+03  0.62266271735E+03  0.14200000000E+01 0. -1.
<mgrwt>
<rscale>  0 0.11826362E+03</rscale>
<asrwt>0</asrwt>
<pdfrwt beam="1">  1       11 0.10000000E+01 0.14673000E+02</pdfrwt>
<pdfrwt beam="2">  1        4 0.26891633E-02 0.11826362E+03</pdfrwt>
<totfact> 0.24892521E+03</totfact>
</mgrwt>
</event>
<event>
 5    1  0.1490736E-003  0.8980409E+02  0.7818608E-02  0.1407814E+00
         11   -1    0    0    0    0  0.00000000000E+00  0.00000000000E+00  0.10002592627E+04  0.10002592627E+04  0.51100000000E-03 0. -1.
          4   -1    0    0  501    0 -0.00000000000E+00 -0.00000000000E+00 -0.10057310978E+03  0.10058313383E+03  0.14200000000E+01 0. -1.
         11    1    1    2    0    0 -0.60641452467E+02  0.37689697229E+02 -0.64836686362E+02  0.96445295029E+02  0.51100000000E-03 0. -1.
         22    1    1    2    0    0 -0.28665178882E+02 -0.23470698794E+02  0.14392294534E+01  0.37076105022E+02  0.00000000000E+00 0. -1.
          4    1    1    2  501    0  0.89306631348E+02 -0.14218998436E+02  0.96308360979E+03  0.96732099644E+03  0.14200000000E+01 0. -1.
<mgrwt>
<rscale>  0 0.57684405E+02</rscale>
<asrwt>0</asrwt>
<pdfrwt beam="1">  1       11 0.10000000E+01 0.89804092E+02</pdfrwt>
<pdfrwt beam="2">  1        4 0.15477646E-01 0.57684405E+02</pdfrwt>
<totfact> 0.12899952E+02</totfact>
</mgrwt>
</event>
<event>
 5    1  0.1490736E-003  0.6303774E+02  0.7818608E-02  0.1395697E+00
         11   -1    0    0    0    0  0.00000000000E+00  0.00000000000E+00  0.10000665068E+04  0.10000665068E+04  0.51100000000E-03 0. -1.
         -4   -1    0    0    0  501 -0.00000000000E+00 -0.00000000000E+00 -0.41006344623E+01  0.43395394909E+01  0.14200000000E+01 0.  1.
         11    1    1    2    0    0 -0.33390129248E+02 -0.95982002637E+00  0.18286786118E+03  0.18589372404E+03  0.51100000000E-03 0. -1.
         22    1    1    2    0    0 -0.25391738121E+02  0.15254178969E+02  0.16883288071E+03  0.17141170307E+03  0.00000000000E+00 0. -1.
         -4    1    1    2    0  501  0.58781867369E+02 -0.14294358943E+02  0.64426513047E+03  0.64710061920E+03  0.14200000000E+01 0.  1.
<mgrwt>
<rscale>  0 0.60511594E+02</rscale>
<asrwt>0</asrwt>
<pdfrwt beam="1">  1       11 0.10000000E+01 0.63037738E+02</pdfrwt>
<pdfrwt beam="2">  1       -4 0.64936486E-03 0.60511594E+02</pdfrwt>
<totfact> 0.18149351E+04</totfact>
</mgrwt>
</event>
<event>
 5    1  0.1490736E-003  0.6545002E+02  0.7818608E-02  0.1385036E+00
         11   -1    0    0    0    0  0.00000000000E+00  0.00000000000E+00  0.10002673374E+04  0.10002673374E+04  0.51100000000E-03 0.  1.
          4   -1    0    0  501    0 -0.00000000000E+00 -0.00000000000E+00 -0.81262303189E+01  0.82493647753E+01  0.14200000000E+01 0.  1.
         11    1    1    2    0    0 -0.44026671524E+02  0.24260328832E+01  0.90836894647E+02  0.10097313935E+03  0.51100000000E-03 0.  1.
         22    1    1    2    0    0 -0.18709464770E+02 -0.95778719524E+01  0.54896458820E+02  0.58782658107E+02  0.00000000000E+00 0. -1.
          4    1    1    2  501    0  0.62736136294E+02  0.71518390692E+01  0.84640775363E+03  0.84876090473E+03  0.14200000000E+01 0.  1.
<mgrwt>
<rscale>  0 0.63158436E+02</rscale>
<asrwt>0</asrwt>
<pdfrwt beam="1">  1       11 0.10000000E+01 0.65450015E+02</pdfrwt>
<pdfrwt beam="2">  1        4 0.12600754E-02 0.63158436E+02</pdfrwt>
<totfact> 0.68990064E+03</totfact>
</mgrwt>
</event>
<event>
 5    1  0.1490736E-003  0.1782685E+03  0.7818608E-02  0.1169489E+00
         11   -1    0    0    0    0  0.00000000000E+00  0.00000000000E+00  0.10001435710E+04  0.10001435710E+04  0.51100000000E-03 0.  1.
          4   -1    0    0  501    0 -0.00000000000E+00 -0.00000000000E+00 -0.99819602939E+02  0.99829702649E+02  0.14200000000E+01 0.  1.
         11    1    1    2    0    0 -0.10272635918E+03  0.92556931306E+02  0.46388325471E+03  0.48405285290E+03  0.51100000000E-03 0.  1.
         22    1    1    2    0    0 -0.70440314964E+02 -0.18619190019E+02  0.42070531345E+03  0.42696776573E+03  0.00000000000E+00 0.  1.
          4    1    1    2  501    0  0.17316667414E+03 -0.73937741287E+02  0.15735399880E+02  0.18895265499E+03  0.14200000000E+01 0.  1.
<mgrwt>
<rscale>  0 0.17826847E+03</rscale>
<asrwt>0</asrwt>
<pdfrwt beam="1">  1       11 0.10000000E+01 0.72859538E+02</pdfrwt>
<pdfrwt beam="2">  1        4 0.15359921E-01 0.17826847E+03</pdfrwt>
<totfact> 0.15084107E+02</totfact>
</mgrwt>
</event>
<event>
 5    1  0.1490736E-003  0.2083409E+03  0.7818608E-02  0.1148217E+00
         11   -1    0    0    0    0  0.00000000000E+00  0.00000000000E+00  0.10002224375E+04  0.10002224375E+04  0.51100000000E-03 0. -1.
         -4   -1    0    0    0  501 -0.00000000000E+00 -0.00000000000E+00 -0.84556916866E+02  0.84568839355E+02  0.14200000000E+01 0.  1.
         11    1    1    2    0    0  0.50742438794E+02  0.91853503846E+02  0.34438635533E+03  0.36001919810E+03  0.51100000000E-03 0. -1.
         22    1    1    2    0    0  0.22262458299E+02  0.96288398749E+02  0.50163675852E+03  0.51127928794E+03  0.00000000000E+00 0. -1.
         -4    1    1    2    0  501 -0.73004897093E+02 -0.18814190259E+03  0.69642406806E+02  0.21349279083E+03  0.14200000000E+01 0.  1.
<mgrwt>
<rscale>  0 0.20181454E+03</rscale>
<asrwt>0</asrwt>
<pdfrwt beam="1">  1       11 0.10000000E+01 0.20834093E+03</pdfrwt>
<pdfrwt beam="2">  1       -4 0.13012645E-01 0.20181454E+03</pdfrwt>
<totfact> 0.20417461E+02</totfact>
</mgrwt>
</event>
<event>
 5    1  0.1490736E-003  0.6212636E+03  0.7818608E-02  0.1087405E+00
         11   -1    0    0    0    0  0.00000000000E+00  0.00000000000E+00  0.10003618914E+04  0.10003618914E+04  0.51100000000E-03 0. -1.
         -4   -1    0    0    0  501 -0.00000000000E+00 -0.00000000000E+00 -0.56454700545E+03  0.56454879130E+03  0.14200000000E+01 0. -1.
         11    1    1    2    0    0 -0.47298454839E+03  0.40153987846E+03  0.37553574468E+03  0.72524185797E+03  0.51100000000E-03 0. -1.
         22    1    1    2    0    0  0.94698840485E+02  0.10413210300E+03 -0.11778502497E+03  0.18353385892E+03  0.00000000000E+00 0. -1.
         -4    1    1    2    0  501  0.37828570791E+03 -0.50567198146E+03  0.17806416621E+03  0.65613496578E+03  0.14200000000E+01 0. -1.
<mgrwt>
<rscale>  0 0.29571075E+03</rscale>
<asrwt>0</asrwt>
<pdfrwt beam="1">  1       11 0.10000000E+01 0.62126355E+03</pdfrwt>
<pdfrwt beam="2">  1       -4 0.86885029E-01 0.29571075E+03</pdfrwt>
<totfact> 0.50207356E+00</totfact>
</mgrwt>
</event>
<event>
 5    1  0.1490736E-003  0.1310990E+03  0.7818608E-02  0.1225834E+00
         11   -1    0    0    0    0  0.00000000000E+00  0.00000000000E+00  0.10001109426E+04  0.10001109426E+04  0.51100000000E-03 0.  1.
         -4   -1    0    0    0  501 -0.00000000000E+00 -0.00000000000E+00 -0.37442121501E+02  0.37469038719E+02  0.14200000000E+01 0. -1.
         11    1    1    2    0    0  0.60613037659E+02 -0.72242812970E+02  0.52970895003E+03  0.53803767164E+03  0.51100000000E-03 0.  1.
         22    1    1    2    0    0  0.75240878804E+02  0.14459704821E+02  0.26530754491E+03  0.27614917398E+03  0.00000000000E+00 0.  1.
         -4    1    1    2    0  501 -0.13585391646E+03  0.57783108149E+02  0.16765232613E+03  0.22339313566E+03  0.14200000000E+01 0. -1.
<mgrwt>
<rscale>  0 0.13109898E+03</rscale>
<asrwt>0</asrwt>
<pdfrwt beam="1">  1       11 0.10000000E+01 0.76617706E+02</pdfrwt>
<pdfrwt beam="2">  1       -4 0.57631136E-02 0.13109898E+03</pdfrwt>
<totfact> 0.75634990E+02</totfact>
</mgrwt>
</event>
<event>
 5    1  0.1490736E-003  0.7300893E+02  0.7818608E-02  0.1452239E+00
         11   -1    0    0    0    0  0.00000000000E+00  0.00000000000E+00  0.99976281282E+03  0.99976281282E+03  0.51100000000E-03 0. -1.
          4   -1    0    0  501    0 -0.00000000000E+00 -0.00000000000E+00 -0.97600261817E+01  0.98627841438E+01  0.14200000000E+01 0. -1.
         11    1    1    2    0    0 -0.30784215568E+02 -0.71348413601E+02  0.32946176450E+03  0.33850157801E+03  0.51100000000E-03 0. -1.
         22    1    1    2    0    0 -0.23471431690E+02  0.22532987949E+02  0.85734210475E+02  0.91700591586E+02  0.00000000000E+00 0.  1.
          4    1    1    2  501    0  0.54255647259E+02  0.48815425652E+02  0.57480681167E+03  0.57942342737E+03  0.14200000000E+01 0. -1.
<mgrwt>
<rscale>  0 0.48743465E+02</rscale>
<asrwt>0</asrwt>
<pdfrwt beam="1">  1       11 0.10000000E+01 0.73008930E+02</pdfrwt>
<pdfrwt beam="2">  1        4 0.15091664E-02 0.48743465E+02</pdfrwt>
<totfact> 0.49309363E+03</totfact>
</mgrwt>
</event>
<event>
 5    1  0.1490736E-003  0.4939031E+02  0.7818608E-02  0.1469587E+00
         11   -1    0    0    0    0  0.00000000000E+00  0.00000000000E+00  0.10002919039E+04  0.10002919039E+04  0.51100000000E-03 0. -1.
          4   -1    0    0  501    0 -0.00000000000E+00 -0.00000000000E+00 -0.36099824416E+01  0.38792232764E+01  0.14200000000E+01 0. -1.
         11    1    1    2    0    0 -0.23461785911E+01 -0.27547106376E+02  0.83461169642E+02  0.87921069500E+02  0.51100000000E-03 0. -1.
         22    1    1    2    0    0  0.81800728221E+01 -0.17828030347E+02  0.11064552593E+03  0.11237074648E+03  0.00000000000E+00 0. -1.
          4    1    1    2  501    0 -0.58338942310E+01  0.45375136723E+02  0.80257522587E+03  0.80387931117E+03  0.14200000000E+01 0. -1.
<mgrwt>
<rscale>  0 0.45770665E+02</rscale>
<asrwt>0</asrwt>
<pdfrwt beam="1">  1       11 0.10000000E+01 0.49390306E+02</pdfrwt>
<pdfrwt beam="2">  1        4 0.57633845E-03 0.45770665E+02</pdfrwt>
<totfact> 0.19893543E+04</totfact>
</mgrwt>
</event>
<event>
 5    1  0.1490736E-003  0.1159804E+03  0.7818608E-02  0.1257071E+00
         11   -1    0    0    0    0  0.00000000000E+00  0.00000000000E+00  0.10001670801E+04  0.10001670801E+04  0.51100000000E-03 0.  1.
          4   -1    0    0  501    0 -0.00000000000E+00 -0.00000000000E+00 -0.12994313081E+02  0.13071670607E+02  0.14200000000E+01 0.  1.
         11    1    1    2    0    0 -0.71766667502E+02  0.23564592339E+02  0.27771411642E+03  0.28780353548E+03  0.51100000000E-03 0.  1.
         22    1    1    2    0    0 -0.38868560051E+02 -0.67730653915E+01  0.19265190191E+03  0.19665043779E+03  0.00000000000E+00 0.  1.
          4    1    1    2  501    0  0.11063522755E+03 -0.16791526947E+02  0.51680674870E+03  0.52878477744E+03  0.14200000000E+01 0.  1.
<mgrwt>
<rscale>  0 0.11191124E+03</rscale>
<asrwt>0</asrwt>
<pdfrwt beam="1">  1       11 0.10000000E+01 0.11598043E+03</pdfrwt>
<pdfrwt beam="2">  1        4 0.20054882E-02 0.11191124E+03</pdfrwt>
<totfact> 0.38756493E+03</totfact>
</mgrwt>
</event>
<event>
 5    1  0.1490736E-003  0.7628128E+02  0.7818608E-02  0.1354241E+00
         11   -1    0    0    0    0  0.00000000000E+00  0.00000000000E+00  0.10000487901E+04  0.10000487901E+04  0.51100000000E-03 0.  1.
          4   -1    0    0  501    0 -0.00000000000E+00 -0.00000000000E+00 -0.74245265655E+01  0.75591001265E+01  0.14200000000E+01 0.  1.
         11    1    1    2    0    0  0.22836444857E+02 -0.11199813824E+02  0.58622704321E+02  0.63902742551E+02  0.51100000000E-03 0.  1.
         22    1    1    2    0    0  0.48629998028E+02  0.49879846305E+01  0.18766318300E+03  0.19392582848E+03  0.00000000000E+00 0.  1.
          4    1    1    2  501    0 -0.71466442886E+02  0.62118291934E+01  0.74633837626E+03  0.74977931924E+03  0.14200000000E+01 0.  1.
<mgrwt>
<rscale>  0 0.71749952E+02</rscale>
<asrwt>0</asrwt>
<pdfrwt beam="1">  1       11 0.10000000E+01 0.76281280E+02</pdfrwt>
<pdfrwt beam="2">  1        4 0.11527204E-02 0.71749952E+02</pdfrwt>
<totfact> 0.81298148E+03</totfact>
</mgrwt>
</event>
<event>
 5    1  0.1490736E-003  0.1221557E+03  0.7818608E-02  0.1239583E+00
         11   -1    0    0    0    0  0.00000000000E+00  0.00000000000E+00  0.10003500172E+04  0.10003500172E+04  0.51100000000E-03 0. -1.
          4   -1    0    0  501    0 -0.00000000000E+00 -0.00000000000E+00 -0.27814335903E+02  0.27850559810E+02  0.14200000000E+01 0. -1.
         11    1    1    2    0    0 -0.25896070766E+02 -0.67699863526E+02  0.15978096920E+03  0.17545323058E+03  0.51100000000E-03 0. -1.
         22    1    1    2    0    0 -0.61822062756E+02 -0.55477394793E+02  0.48141912085E+03  0.48853257690E+03  0.00000000000E+00 0. -1.
          4    1    1    2  501    0  0.87718133522E+02  0.12317725832E+03  0.33133559128E+03  0.36421476956E+03  0.14200000000E+01 0. -1.
<mgrwt>
<rscale>  0 0.12215568E+03</rscale>
<asrwt>0</asrwt>
<pdfrwt beam="1">  1       11 0.10000000E+01 0.72483676E+02</pdfrwt>
<pdfrwt beam="2">  1        4 0.42834912E-02 0.12215568E+03</pdfrwt>
<totfact> 0.12042176E+03</totfact>
</mgrwt>
</event>
<event>
 5    1  0.1490736E-003  0.1205324E+03  0.7818608E-02  0.1250186E+00
         11   -1    0    0    0    0  0.00000000000E+00  0.00000000000E+00  0.10002978102E+04  0.10002978102E+04  0.51100000000E-03 0.  1.
          4   -1    0    0  501    0 -0.00000000000E+00 -0.00000000000E+00 -0.15094532464E+02  0.15161177735E+02  0.14200000000E+01 0.  1.
         11    1    1    2    0    0 -0.89657636785E+02  0.18000322996E+01  0.48932198779E+03  0.49747134559E+03  0.51100000000E-03 0.  1.
         22    1    1    2    0    0 -0.24269329945E+02  0.18911759165E+02  0.15348161358E+03  0.15653517406E+03  0.00000000000E+00 0.  1.
          4    1    1    2  501    0  0.11392696673E+03 -0.20711791465E+02  0.34239967639E+03  0.36145246831E+03  0.14200000000E+01 0.  1.
<mgrwt>
<rscale>  0 0.11580306E+03</rscale>
<asrwt>0</asrwt>
<pdfrwt beam="1">  1       11 0.10000000E+01 0.12053239E+03</pdfrwt>
<pdfrwt beam="2">  1        4 0.23281329E-02 0.11580306E+03</pdfrwt>
<totfact> 0.31003111E+03</totfact>
</mgrwt>
</event>
<event>
 5    1  0.1490736E-003  0.8820913E+02  0.7818608E-02  0.1316155E+00
         11   -1    0    0    0    0  0.00000000000E+00  0.00000000000E+00  0.10004381368E+04  0.10004381368E+04  0.51100000000E-03 0. -1.
          4   -1    0    0  501    0 -0.00000000000E+00 -0.00000000000E+00 -0.79685074600E+01  0.80940417061E+01  0.14200000000E+01 0. -1.
         11    1    1    2    0    0 -0.18267409188E+02 -0.14000834351E+02  0.73726503916E+02  0.77235477476E+02  0.51100000000E-03 0. -1.
         22    1    1    2    0    0 -0.63592897230E+02 -0.77962502940E+01  0.29885841668E+03  0.30564880389E+03  0.00000000000E+00 0. -1.
          4    1    1    2  501    0  0.81860306419E+02  0.21797084645E+02  0.61988470875E+03  0.62564789715E+03  0.14200000000E+01 0. -1.
<mgrwt>
<rscale>  0 0.84724489E+02</rscale>
<asrwt>0</asrwt>
<pdfrwt beam="1">  1       11 0.10000000E+01 0.88209126E+02</pdfrwt>
<pdfrwt beam="2">  1        4 0.12361996E-02 0.84724489E+02</pdfrwt>
<totfact> 0.76144428E+03</totfact>
</mgrwt>
</event>
<event>
 5    1  0.1490736E-003  0.1214095E+03  0.7818608E-02  0.1249003E+00
         11   -1    0    0    0    0  0.00000000000E+00  0.00000000000E+00  0.10001617480E+04  0.10001617480E+04  0.51100000000E-03 0. -1.
          4   -1    0    0  501    0 -0.00000000000E+00 -0.00000000000E+00 -0.14114984643E+02  0.14186232462E+02  0.14200000000E+01 0. -1.
         11    1    1    2    0    0  0.55940796213E+02  0.13202213842E+02  0.25161296906E+03  0.25809447365E+03  0.51100000000E-03 0. -1.
         22    1    1    2    0    0  0.44473749789E+02  0.45829185634E+02  0.26055696133E+03  0.26826881812E+03  0.00000000000E+00 0. -1.
          4    1    1    2  501    0 -0.10041454600E+03 -0.59031399476E+02  0.47387683293E+03  0.48798468865E+03  0.14200000000E+01 0. -1.
<mgrwt>
<rscale>  0 0.11648950E+03</rscale>
<asrwt>0</asrwt>
<pdfrwt beam="1">  1       11 0.10000000E+01 0.12140954E+03</pdfrwt>
<pdfrwt beam="2">  1        4 0.21774463E-02 0.11648950E+03</pdfrwt>
<totfact> 0.34412103E+03</totfact>
</mgrwt>
</event>
<event>
 5    1  0.1490736E-003  0.2233414E+03  0.7818608E-02  0.1142210E+00
         11   -1    0    0    0    0  0.00000000000E+00  0.00000000000E+00  0.10003855687E+04  0.10003855687E+04  0.51100000000E-03 0.  1.
          4   -1    0    0  501    0 -0.00000000000E+00 -0.00000000000E+00 -0.34392244282E+03  0.34392537428E+03  0.14200000000E+01 0.  1.
         11    1    1    2    0    0  0.14357424063E+03  0.81097334743E+02  0.67517242845E+03  0.69501665333E+03  0.51100000000E-03 0.  1.
         22    1    1    2    0    0  0.14337849737E+02  0.56095208407E+02  0.27927507496E+03  0.28521362841E+03  0.00000000000E+00 0.  1.
          4    1    1    2  501    0 -0.15791209037E+03 -0.13719254315E+03 -0.29798437757E+03  0.36408066119E+03  0.14200000000E+01 0.  1.
<mgrwt>
<rscale>  0 0.20918900E+03</rscale>
<asrwt>0</asrwt>
<pdfrwt beam="1">  1       11 0.10000000E+01 0.22334137E+03</pdfrwt>
<pdfrwt beam="2">  1        4 0.52931848E-01 0.20918900E+03</pdfrwt>
<totfact> 0.14562915E+01</totfact>
</mgrwt>
</event>
<event>
 5    1  0.1490736E-003  0.8100979E+02  0.7818608E-02  0.1349972E+00
         11   -1    0    0    0    0  0.00000000000E+00  0.00000000000E+00  0.10002813540E+04  0.10002813540E+04  0.51100000000E-03 0.  1.
          4   -1    0    0  501    0 -0.00000000000E+00 -0.00000000000E+00 -0.66144553883E+01  0.67651622363E+01  0.14200000000E+01 0.  1.
         11    1    1    2    0    0 -0.13886700156E+01  0.22636054037E+02  0.11931298640E+03  0.12144919955E+03  0.51100000000E-03 0.  1.
         22    1    1    2    0    0  0.45437042887E+02  0.35640317654E+02  0.23103850095E+03  0.23814606028E+03  0.00000000000E+00 0.  1.
          4    1    1    2  501    0 -0.44048372871E+02 -0.58276371691E+02  0.64331541123E+03  0.64745125637E+03  0.14200000000E+01 0.  1.
<mgrwt>
<rscale>  0 0.73064431E+02</rscale>
<asrwt>0</asrwt>
<pdfrwt beam="1">  1       11 0.10000000E+01 0.81009791E+02</pdfrwt>
<pdfrwt beam="2">  1        4 0.10295684E-02 0.73064431E+02</pdfrwt>
<totfact> 0.96624430E+03</totfact>
</mgrwt>
</event>
<event>
 5    1  0.1490736E-003  0.1305535E+03  0.7818608E-02  0.1527338E+00
         11   -1    0    0    0    0  0.00000000000E+00  0.00000000000E+00  0.10002933737E+04  0.10002933737E+04  0.51100000000E-03 0. -1.
         -4   -1    0    0    0  501 -0.00000000000E+00 -0.00000000000E+00 -0.42587152667E+02  0.42610819897E+02  0.14200000000E+01 0. -1.
         11    1    1    2    0    0 -0.11663291949E+03  0.92783107140E+02  0.41406299788E+03  0.44006830048E+03  0.51100000000E-03 0. -1.
         22    1    1    2    0    0  0.79144839664E+02 -0.92778933557E+02  0.55123248844E+03  0.56456097321E+03  0.00000000000E+00 0. -1.
         -4    1    1    2    0  501  0.37488079827E+02 -0.41735836054E-02 -0.75892652810E+01  0.38274919909E+02  0.14200000000E+01 0. -1.
<mgrwt>
<rscale>  0 0.37514964E+02</rscale>
<asrwt>0</asrwt>
<pdfrwt beam="1">  1       11 0.10000000E+01 0.13055355E+03</pdfrwt>
<pdfrwt beam="2">  1       -4 0.65556902E-02 0.37514964E+02</pdfrwt>
<totfact> 0.48808538E+02</totfact>
</mgrwt>
</event>
<event>
 5    1  0.1947119E-003  0.1949888E+03  0.7818608E-02  0.1156452E+00
         11   -1    0    0    0    0  0.00000000000E+00  0.00000000000E+00  0.10003691552E+04  0.10003691552E+04  0.51100000000E-03 0. -1.
          4   -1    0    0  501    0 -0.00000000000E+00 -0.00000000000E+00 -0.63009775635E+03  0.63009935642E+03  0.14200000000E+01 0. -1.
         11    1    1    2    0    0 -0.50204755362E+02  0.17525467213E+03  0.91462825211E+03  0.93261972804E+03  0.51100000000E-03 0. -1.
         22    1    1    2    0    0  0.50808868961E+01  0.11613755605E+02  0.61204951080E+02  0.62503926018E+02  0.00000000000E+00 0. -1.
          4    1    1    2  501    0  0.45123868466E+02 -0.18686842774E+03 -0.60556180433E+03  0.63534485758E+03  0.14200000000E+01 0. -1.
<mgrwt>
<rscale>  0 0.19224461E+03</rscale>
<asrwt>0</asrwt>
<pdfrwt beam="1">  1       11 0.10000000E+01 0.19498884E+03</pdfrwt>
<pdfrwt beam="2">  1        4 0.96974099E-01 0.19224461E+03</pdfrwt>
<totfact> 0.38610203E+00</totfact>
</mgrwt>
</event>
<event>
 5    1  0.1490736E-003  0.4487896E+02  0.7818608E-02  0.1486584E+00
         11   -1    0    0    0    0  0.00000000000E+00  0.00000000000E+00  0.99996275719E+03  0.99996275719E+03  0.51100000000E-03 0. -1.
          4   -1    0    0  501    0 -0.00000000000E+00 -0.00000000000E+00 -0.23275213603E+01  0.27264914602E+01  0.14200000000E+01 0. -1.
         11    1    1    2    0    0  0.32227708148E+02  0.12839520882E+02  0.20323242880E+03  0.20617201213E+03  0.51100000000E-03 0. -1.
         22    1    1    2    0    0  0.97190618510E+01 -0.30514314676E+01  0.60623459218E+02  0.61473369883E+02  0.00000000000E+00 0.  1.
          4    1    1    2  501    0 -0.41946769999E+02 -0.97880894144E+01  0.73377934781E+03  0.73504386664E+03  0.14200000000E+01 0. -1.
<mgrwt>
<rscale>  0 0.43097037E+02</rscale>
<asrwt>0</asrwt>
<pdfrwt beam="1">  1       11 0.10000000E+01 0.44878958E+02</pdfrwt>
<pdfrwt beam="2">  1        4 0.38883328E-03 0.43097037E+02</pdfrwt>
<totfact> 0.34402692E+04</totfact>
</mgrwt>
</event>
<event>
 5    1  0.1490736E-003  0.1490001E+03  0.7818608E-02  0.1306336E+00
         11   -1    0    0    0    0  0.00000000000E+00  0.00000000000E+00  0.10003178096E+04  0.10003178096E+04  0.51100000000E-03 0.  1.
          4   -1    0    0  501    0 -0.00000000000E+00 -0.00000000000E+00 -0.46212700946E+02  0.46234512312E+02  0.14200000000E+01 0.  1.
         11    1    1    2    0    0  0.12428194645E+03  0.33802744203E+02  0.14427994918E+03  0.19340457974E+03  0.51100000000E-03 0.  1.
         22    1    1    2    0    0 -0.15629696475E+03  0.48773573963E+02  0.65119499832E+03  0.67146297631E+03  0.00000000000E+00 0.  1.
          4    1    1    2  501    0  0.32015018306E+02 -0.82576318166E+02  0.15863016111E+03  0.18168476582E+03  0.14200000000E+01 0.  1.
<mgrwt>
<rscale>  0 0.88576668E+02</rscale>
<asrwt>0</asrwt>
<pdfrwt beam="1">  1       11 0.10000000E+01 0.14900009E+03</pdfrwt>
<pdfrwt beam="2">  1        4 0.71136615E-02 0.88576668E+02</pdfrwt>
<totfact> 0.50551937E+02</totfact>
</mgrwt>
</event>
<event>
 5    1  0.1490736E-003  0.1863310E+03  0.7818608E-02  0.1172345E+00
         11   -1    0    0    0    0  0.00000000000E+00  0.00000000000E+00  0.10000838887E+04  0.10000838887E+04  0.51100000000E-03 0. -1.
          4   -1    0    0  501    0 -0.00000000000E+00 -0.00000000000E+00 -0.33447314412E+02  0.33477443770E+02  0.14200000000E+01 0. -1.
         11    1    1    2    0    0 -0.66586229459E+02  0.11229674699E+03  0.33122974591E+03  0.35603009692E+03  0.51100000000E-03 0. -1.
         22    1    1    2    0    0 -0.38665182953E+02  0.27989569477E+02  0.24401844876E+03  0.24864314932E+03  0.00000000000E+00 0.  1.
          4    1    1    2  501    0  0.10525141241E+03 -0.14028631647E+03  0.39138837963E+03  0.42888808623E+03  0.14200000000E+01 0. -1.
<mgrwt>
<rscale>  0 0.17538565E+03</rscale>
<asrwt>0</asrwt>
<pdfrwt beam="1">  1       11 0.10000000E+01 0.18633102E+03</pdfrwt>
<pdfrwt beam="2">  1        4 0.51485676E-02 0.17538565E+03</pdfrwt>
<totfact> 0.94674628E+02</totfact>
</mgrwt>
</event>
<event>
 5    1  0.1490736E-003  0.2704553E+02  0.7818608E-02  0.1779158E+00
         11   -1    0    0    0    0  0.00000000000E+00  0.00000000000E+00  0.10001186458E+04  0.10001186458E+04  0.51100000000E-03 0.  1.
          4   -1    0    0  501    0 -0.00000000000E+00 -0.00000000000E+00 -0.18909986851E+01  0.23647993629E+01  0.14200000000E+01 0.  1.
         11    1    1    2    0    0  0.17308896425E+02 -0.16941924728E+02  0.11394464961E+03  0.11649038537E+03  0.51100000000E-03 0.  1.
         22    1    1    2    0    0 -0.81278989730E+01 -0.94977107657E+01  0.62795103318E+02  0.64027293026E+02  0.00000000000E+00 0.  1.
          4    1    1    2  501    0 -0.91809974523E+01  0.26439635494E+02  0.82148789414E+03  0.82196576672E+03  0.14200000000E+01 0.  1.
<mgrwt>
<rscale>  0 0.18399876E+02</rscale>
<asrwt>0</asrwt>
<pdfrwt beam="1">  1       11 0.10000000E+01 0.27045527E+02</pdfrwt>
<pdfrwt beam="2">  1        4 0.32748547E-03 0.18399876E+02</pdfrwt>
<totfact> 0.31343316E+04</totfact>
</mgrwt>
</event>
<event>
 5    1  0.1490736E-003  0.2771541E+03  0.7818608E-02  0.1101081E+00
         11   -1    0    0    0    0  0.00000000000E+00  0.00000000000E+00  0.10001465216E+04  0.10001465216E+04  0.51100000000E-03 0.  1.
         -4   -1    0    0    0  501 -0.00000000000E+00 -0.00000000000E+00 -0.10511447694E+03  0.10512406795E+03  0.14200000000E+01 0. -1.
         11    1    1    2    0    0  0.22141771151E+03 -0.12597002292E+03  0.73044291667E+03  0.77358975185E+03  0.51100000000E-03 0.  1.
         22    1    1    2    0    0  0.16100396319E+02 -0.31459110358E+01  0.17189575121E+02  0.23761334364E+02  0.00000000000E+00 0. -1.
         -4    1    1    2    0  501 -0.23751810783E+03  0.12911593395E+03  0.14739955284E+03  0.30791950332E+03  0.14200000000E+01 0. -1.
<mgrwt>
<rscale>  0 0.27034754E+03</rscale>
<asrwt>0</asrwt>
<pdfrwt beam="1">  1       11 0.10000000E+01 0.27715413E+03</pdfrwt>
<pdfrwt beam="2">  1       -4 0.16174642E-01 0.27034754E+03</pdfrwt>
<totfact> 0.14316828E+02</totfact>
</mgrwt>
</event>
<event>
 5    1  0.1490736E-003  0.1032512E+03  0.7818608E-02  0.1273604E+00
         11   -1    0    0    0    0  0.00000000000E+00  0.00000000000E+00  0.10002183484E+04  0.10002183484E+04  0.51100000000E-03 0.  1.
          4   -1    0    0  501    0 -0.00000000000E+00 -0.00000000000E+00 -0.45527443719E+02  0.45549583221E+02  0.14200000000E+01 0.  1.
         11    1    1    2    0    0 -0.56106895598E+02 -0.87304980825E+02  0.58424692562E+03  0.59339246162E+03  0.51100000000E-03 0.  1.
         22    1    1    2    0    0  0.78305003136E+02 -0.17147894640E+02  0.32767035748E+03  0.33733305052E+03  0.00000000000E+00 0.  1.
          4    1    1    2  501    0 -0.22198107537E+02  0.10445287547E+03  0.42773621553E+02  0.11504241945E+03  0.14200000000E+01 0.  1.
<mgrwt>
<rscale>  0 0.10325120E+03</rscale>
<asrwt>0</asrwt>
<pdfrwt beam="1">  1       11 0.10000000E+01 0.80160613E+02</pdfrwt>
<pdfrwt beam="2">  1        4 0.70075322E-02 0.10325120E+03</pdfrwt>
<totfact> 0.53076030E+02</totfact>
</mgrwt>
</event>
<event>
 5    1  0.1490736E-003  0.1546344E+03  0.7818608E-02  0.1202918E+00
         11   -1    0    0    0    0  0.00000000000E+00  0.00000000000E+00  0.10003968996E+04  0.10003968996E+04  0.51100000000E-03 0.  1.
          4   -1    0    0  501    0 -0.00000000000E+00 -0.00000000000E+00 -0.29174657654E+02  0.29209194601E+02  0.14200000000E+01 0.  1.
         11    1    1    2    0    0 -0.73881036405E+01  0.12759298818E+02  0.74542752688E+02  0.75986878869E+02  0.51100000000E-03 0.  1.
         22    1    1    2    0    0 -0.13983390540E+03  0.25947099076E+01  0.65849917565E+03  0.67318750579E+03  0.00000000000E+00 0.  1.
          4    1    1    2  501    0  0.14722200904E+03 -0.15354008725E+02  0.23818031365E+03  0.28043170958E+03  0.14200000000E+01 0.  1.
<mgrwt>
<rscale>  0 0.14802730E+03</rscale>
<asrwt>0</asrwt>
<pdfrwt beam="1">  1       11 0.10000000E+01 0.15463437E+03</pdfrwt>
<pdfrwt beam="2">  1        4 0.44929255E-02 0.14802730E+03</pdfrwt>
<totfact> 0.11501229E+03</totfact>
</mgrwt>
</event>
<event>
 5    1  0.1490736E-003  0.1554157E+03  0.7818608E-02  0.1193972E+00
         11   -1    0    0    0    0  0.00000000000E+00  0.00000000000E+00  0.10003694233E+04  0.10003694233E+04  0.51100000000E-03 0. -1.
          4   -1    0    0  501    0 -0.00000000000E+00 -0.00000000000E+00 -0.85736843692E+02  0.85748602124E+02  0.14200000000E+01 0. -1.
         11    1    1    2    0    0 -0.12569518471E+03  0.44527421394E+02  0.76614760455E+03  0.77766581684E+03  0.51100000000E-03 0. -1.
         22    1    1    2    0    0 -0.76886321837E+01  0.40256760534E+02  0.14465625395E+03  0.15035010356E+03  0.00000000000E+00 0. -1.
          4    1    1    2  501    0  0.13338381689E+03 -0.84784181928E+02  0.38287211206E+01  0.15810210504E+03  0.14200000000E+01 0. -1.
<mgrwt>
<rscale>  0 0.15541573E+03</rscale>
<asrwt>0</asrwt>
<pdfrwt beam="1">  1       11 0.10000000E+01 0.40984410E+02</pdfrwt>
<pdfrwt beam="2">  1        4 0.13196138E-01 0.15541573E+03</pdfrwt>
<totfact> 0.19372914E+02</totfact>
</mgrwt>
</event>
<event>
 5    1  0.1490736E-003  0.6304068E+02  0.7818608E-02  0.1385497E+00
         11   -1    0    0    0    0  0.00000000000E+00  0.00000000000E+00  0.10003894441E+04  0.10003894441E+04  0.51100000000E-03 0.  1.
          4   -1    0    0  501    0 -0.00000000000E+00 -0.00000000000E+00 -0.12660559031E+02  0.12739943288E+02  0.14200000000E+01 0.  1.
         11    1    1    2    0    0  0.11567992499E+01  0.29158944812E+02  0.53476996597E+02  0.60921026028E+02  0.51100000000E-03 0.  1.
         22    1    1    2    0    0  0.60298624216E+02  0.13744295037E+02  0.12470671460E+03  0.13919983619E+03  0.00000000000E+00 0.  1.
          4    1    1    2  501    0 -0.61455423466E+02 -0.42903239849E+02  0.80954517390E+03  0.81300852520E+03  0.14200000000E+01 0.  1.
<mgrwt>
<rscale>  0 0.63040676E+02</rscale>
<asrwt>0</asrwt>
<pdfrwt beam="1">  1       11 0.10000000E+01 0.29181897E+02</pdfrwt>
<pdfrwt beam="2">  1        4 0.19547232E-02 0.63040676E+02</pdfrwt>
<totfact> 0.35668013E+03</totfact>
</mgrwt>
</event>
<event>
 5    1  0.1490736E-003  0.5439435E+03  0.7818608E-02  0.1006419E+00
         11   -1    0    0    0    0  0.00000000000E+00  0.00000000000E+00  0.99968520481E+03  0.99968520481E+03  0.51100000000E-03 0.  1.
          4   -1    0    0  501    0 -0.00000000000E+00 -0.00000000000E+00 -0.33374243159E+03  0.33374545247E+03  0.14200000000E+01 0.  1.
         11    1    1    2    0    0  0.31964020001E+03  0.26242086744E+03  0.38248608130E+03  0.56332066491E+03  0.51100000000E-03 0.  1.
         22    1    1    2    0    0  0.11259325653E+03  0.42959902953E+02  0.20119306679E+03  0.23452386830E+03  0.00000000000E+00 0.  1.
          4    1    1    2  501    0 -0.43223345654E+03 -0.30538077039E+03  0.82263625131E+02  0.53558612407E+03  0.14200000000E+01 0.  1.
<mgrwt>
<rscale>  0 0.52923076E+03</rscale>
<asrwt>0</asrwt>
<pdfrwt beam="1">  1       11 0.10000000E+01 0.54394352E+03</pdfrwt>
<pdfrwt beam="2">  1        4 0.51329135E-01 0.52923076E+03</pdfrwt>
<totfact> 0.16136792E+01</totfact>
</mgrwt>
</event>
<event>
 5    1  0.1490736E-003  0.5612909E+02  0.7818608E-02  0.1425496E+00
         11   -1    0    0    0    0  0.00000000000E+00  0.00000000000E+00  0.10002963298E+04  0.10002963298E+04  0.51100000000E-03 0.  1.
         -4   -1    0    0    0  501 -0.00000000000E+00 -0.00000000000E+00 -0.44254327945E+01  0.46476720430E+01  0.14200000000E+01 0.  1.
         11    1    1    2    0    0 -0.22671405686E+02  0.30743746692E+01  0.67060006850E+02  0.70855408645E+02  0.51100000000E-03 0.  1.
         22    1    1    2    0    0 -0.27732568590E+02  0.15897250203E+02  0.14757860116E+03  0.15100086571E+03  0.00000000000E+00 0.  1.
         -4    1    1    2    0  501  0.50403974276E+02 -0.18971624872E+02  0.78123228894E+03  0.78308772744E+03  0.14200000000E+01 0.  1.
<mgrwt>
<rscale>  0 0.53874851E+02</rscale>
<asrwt>0</asrwt>
<pdfrwt beam="1">  1       11 0.10000000E+01 0.56129087E+02</pdfrwt>
<pdfrwt beam="2">  1       -4 0.69821549E-03 0.53874851E+02</pdfrwt>
<totfact> 0.15797923E+04</totfact>
</mgrwt>
</event>
<event>
 5    1  0.1490736E-003  0.1186061E+03  0.7818608E-02  0.1252414E+00
         11   -1    0    0    0    0  0.00000000000E+00  0.00000000000E+00  0.10001769766E+04  0.10001769766E+04  0.51100000000E-03 0. -1.
         -4   -1    0    0    0  501 -0.00000000000E+00 -0.00000000000E+00 -0.14544156503E+02  0.14613312026E+02  0.14200000000E+01 0.  1.
         11    1    1    2    0    0 -0.98861945624E+01  0.10438974378E+03  0.59269982552E+03  0.60190367885E+03  0.51100000000E-03 0. -1.
         22    1    1    2    0    0 -0.87203755474E+01  0.86037473715E+01  0.40640191016E+02  0.42446372570E+02  0.00000000000E+00 0. -1.
         -4    1    1    2    0  501  0.18606570110E+02 -0.11299349115E+03  0.35229280353E+03  0.37044023717E+03  0.14200000000E+01 0.  1.
<mgrwt>
<rscale>  0 0.11452401E+03</rscale>
<asrwt>0</asrwt>
<pdfrwt beam="1">  1       11 0.10000000E+01 0.11860612E+03</pdfrwt>
<pdfrwt beam="2">  1       -4 0.22433566E-02 0.11452401E+03</pdfrwt>
<totfact> 0.32761732E+03</totfact>
</mgrwt>
</event>
<event>
 5    1  0.1490736E-003  0.1036490E+03  0.7818608E-02  0.1272804E+00
         11   -1    0    0    0    0  0.00000000000E+00  0.00000000000E+00  0.10003017050E+04  0.10003017050E+04  0.51100000000E-03 0. -1.
          4   -1    0    0  501    0 -0.00000000000E+00 -0.00000000000E+00 -0.13012365884E+02  0.13089616721E+02  0.14200000000E+01 0. -1.
         11    1    1    2    0    0  0.87522604611E+02  0.52684745026E+02  0.32054422135E+03  0.33642902152E+03  0.51100000000E-03 0. -1.
         22    1    1    2    0    0 -0.13663453864E+01  0.10274645417E+02  0.52012850866E+02  0.53035571962E+02  0.00000000000E+00 0.  1.
          4    1    1    2  501    0 -0.86156259225E+02 -0.62959390443E+02  0.61473226689E+03  0.62392672823E+03  0.14200000000E+01 0. -1.
<mgrwt>
<rscale>  0 0.10364902E+03</rscale>
<asrwt>0</asrwt>
<pdfrwt beam="1">  1       11 0.10000000E+01 0.10365097E+02</pdfrwt>
<pdfrwt beam="2">  1        4 0.20085281E-02 0.10364902E+03</pdfrwt>
<totfact> 0.38088893E+03</totfact>
</mgrwt>
</event>
<event>
 5    1  0.1490736E-003  0.2485577E+02  0.7818608E-02  0.1822716E+00
         11   -1    0    0    0    0  0.00000000000E+00  0.00000000000E+00  0.10004306673E+04  0.10004306673E+04  0.51100000000E-03 0. -1.
          4   -1    0    0  501    0 -0.00000000000E+00 -0.00000000000E+00 -0.21401107716E+01  0.25683601996E+01  0.14200000000E+01 0. -1.
         11    1    1    2    0    0  0.12786221870E+02 -0.93410644148E+01  0.35349987845E+02  0.38734540078E+02  0.51100000000E-03 0. -1.
         22    1    1    2    0    0  0.41084005597E+01 -0.10284297490E+02  0.64085359892E+02  0.65035214173E+02  0.00000000000E+00 0. -1.
          4    1    1    2  501    0 -0.16894622430E+02  0.19625361905E+02  0.89885520880E+03  0.89922927326E+03  0.14200000000E+01 0. -1.
<mgrwt>
<rscale>  0 0.16604675E+02</rscale>
<asrwt>0</asrwt>
<pdfrwt beam="1">  1       11 0.10000000E+01 0.24855770E+02</pdfrwt>
<pdfrwt beam="2">  1        4 0.36242360E-03 0.16604675E+02</pdfrwt>
<totfact> 0.25906270E+04</totfact>
</mgrwt>
</event>
<event>
 5    1  0.1490736E-003  0.1424036E+03  0.7818608E-02  0.1212707E+00
         11   -1    0    0    0    0  0.00000000000E+00  0.00000000000E+00  0.10002611030E+04  0.10002611030E+04  0.51100000000E-03 0. -1.
          4   -1    0    0  501    0 -0.00000000000E+00 -0.00000000000E+00 -0.20282808490E+02  0.20332454850E+02  0.14200000000E+01 0. -1.
         11    1    1    2    0    0 -0.82973941037E+02  0.98795941516E+02  0.48461235029E+03  0.50149221630E+03  0.51100000000E-03 0. -1.
         22    1    1    2    0    0 -0.11030554542E+02  0.55645448180E+01  0.71724570142E+02  0.72780844009E+02  0.00000000000E+00 0. -1.
          4    1    1    2  501    0  0.94004495579E+02 -0.10436048633E+03  0.42364137404E+03  0.44632049751E+03  0.14200000000E+01 0. -1.
<mgrwt>
<rscale>  0 0.14046342E+03</rscale>
<asrwt>0</asrwt>
<pdfrwt beam="1">  1       11 0.10000000E+01 0.14240358E+03</pdfrwt>
<pdfrwt beam="2">  1        4 0.31251442E-02 0.14046342E+03</pdfrwt>
<totfact> 0.20279902E+03</totfact>
</mgrwt>
</event>
<event>
 5    1  0.1490736E-003  0.1207717E+03  0.7818608E-02  0.1241829E+00
         11   -1    0    0    0    0  0.00000000000E+00  0.00000000000E+00  0.10004466565E+04  0.10004466565E+04  0.51100000000E-03 0. -1.
          4   -1    0    0  501    0 -0.00000000000E+00 -0.00000000000E+00 -0.18947686198E+02  0.19000821357E+02  0.14200000000E+01 0. -1.
         11    1    1    2    0    0 -0.68913709020E+02 -0.98178662141E+02  0.34586012521E+03  0.36607017797E+03  0.51100000000E-03 0. -1.
         22    1    1    2    0    0 -0.22789385744E+02  0.15103367423E+02  0.12566791531E+03  0.12860751436E+03  0.00000000000E+00 0. -1.
          4    1    1    2  501    0  0.91703094765E+02  0.83075294718E+02  0.50997092978E+03  0.52476978553E+03  0.14200000000E+01 0. -1.
<mgrwt>
<rscale>  0 0.12077172E+03</rscale>
<asrwt>0</asrwt>
<pdfrwt beam="1">  1       11 0.10000000E+01 0.27339858E+02</pdfrwt>
<pdfrwt beam="2">  1        4 0.29204973E-02 0.12077172E+03</pdfrwt>
<totfact> 0.21972282E+03</totfact>
</mgrwt>
</event>
<event>
 5    1  0.1490736E-003  0.6738656E+02  0.7818608E-02  0.1520668E+00
         11   -1    0    0    0    0  0.00000000000E+00  0.00000000000E+00  0.10000709227E+04  0.10000709227E+04  0.51100000000E-03 0.  1.
         -4   -1    0    0    0  501 -0.00000000000E+00 -0.00000000000E+00 -0.13454166786E+02  0.13528895147E+02  0.14200000000E+01 0.  1.
         11    1    1    2    0    0 -0.57836314084E+02  0.18789911001E-01  0.66779048653E+02  0.88342973230E+02  0.51100000000E-03 0.  1.
         22    1    1    2    0    0 -0.80726363646E+01  0.20279833900E+02  0.92151538739E+02  0.94701347471E+02  0.00000000000E+00 0.  1.
         -4    1    1    2    0  501  0.65908950448E+02 -0.20298623811E+02  0.82768616854E+03  0.83055549716E+03  0.14200000000E+01 0.  1.
<mgrwt>
<rscale>  0 0.38356290E+02</rscale>
<asrwt>0</asrwt>
<pdfrwt beam="1">  1       11 0.10000000E+01 0.67386562E+02</pdfrwt>
<pdfrwt beam="2">  1       -4 0.20758449E-02 0.38356290E+02</pdfrwt>
<totfact> 0.28695691E+03</totfact>
</mgrwt>
</event>
<event>
 5    1  0.1490736E-003  0.1304663E+03  0.7818608E-02  0.1235244E+00
         11   -1    0    0    0    0  0.00000000000E+00  0.00000000000E+00  0.10001985094E+04  0.10001985094E+04  0.51100000000E-03 0. -1.
          4   -1    0    0  501    0 -0.00000000000E+00 -0.00000000000E+00 -0.18052292306E+02  0.18108055045E+02  0.14200000000E+01 0. -1.
         11    1    1    2    0    0 -0.19655881799E+02 -0.12180883438E+02  0.30230558530E+02  0.38060665784E+02  0.51100000000E-03 0. -1.
         22    1    1    2    0    0 -0.79561729501E+02 -0.63654465883E+02  0.31068523322E+03  0.32696677808E+03  0.00000000000E+00 0. -1.
          4    1    1    2  501    0  0.99217611300E+02  0.75835349321E+02  0.64123042536E+03  0.65327912059E+03  0.14200000000E+01 0. -1.
<mgrwt>
<rscale>  0 0.12488855E+03</rscale>
<asrwt>0</asrwt>
<pdfrwt beam="1">  1       11 0.10000000E+01 0.13046631E+03</pdfrwt>
<pdfrwt beam="2">  1        4 0.27821948E-02 0.12488855E+03</pdfrwt>
<totfact> 0.23839982E+03</totfact>
</mgrwt>
</event>
<event>
 5    1  0.1490736E-003  0.1458805E+03  0.7818608E-02  0.1225262E+00
         11   -1    0    0    0    0  0.00000000000E+00  0.00000000000E+00  0.10002370266E+04  0.10002370266E+04  0.51100000000E-03 0. -1.
          4   -1    0    0  501    0 -0.00000000000E+00 -0.00000000000E+00 -0.21050903298E+02  0.21098742372E+02  0.14200000000E+01 0. -1.
         11    1    1    2    0    0 -0.32223240058E+02  0.89244945772E+02  0.49071707058E+03  0.49980620334E+03  0.51100000000E-03 0. -1.
         22    1    1    2    0    0  0.24820722073E+02  0.42028186887E+02  0.17301805386E+03  0.17977119819E+03  0.00000000000E+00 0. -1.
          4    1    1    2  501    0  0.74025179848E+01 -0.13127313266E+03  0.31545099890E+03  0.34175836747E+03  0.14200000000E+01 0. -1.
<mgrwt>
<rscale>  0 0.13148935E+03</rscale>
<asrwt>0</asrwt>
<pdfrwt beam="1">  1       11 0.10000000E+01 0.14588053E+03</pdfrwt>
<pdfrwt beam="2">  1        4 0.32431264E-02 0.13148935E+03</pdfrwt>
<totfact> 0.18924205E+03</totfact>
</mgrwt>
</event>
<event>
 5    1  0.1490736E-003  0.1225804E+03  0.7818608E-02  0.1241597E+00
         11   -1    0    0    0    0  0.00000000000E+00  0.00000000000E+00  0.10002565256E+04  0.10002565256E+04  0.51100000000E-03 0.  1.
          4   -1    0    0  501    0 -0.00000000000E+00 -0.00000000000E+00 -0.14791553104E+02  0.14859557303E+02  0.14200000000E+01 0.  1.
         11    1    1    2    0    0 -0.47147291797E+02 -0.10070398208E+03  0.44677941517E+03  0.46040851964E+03  0.51100000000E-03 0.  1.
         22    1    1    2    0    0  0.53210918623E+00 -0.10853904877E+02  0.60737918247E+02  0.61702391398E+02  0.00000000000E+00 0. -1.
          4    1    1    2  501    0  0.46615182610E+02  0.11155788696E+03  0.47794763912E+03  0.49300517191E+03  0.14200000000E+01 0.  1.
<mgrwt>
<rscale>  0 0.12091383E+03</rscale>
<asrwt>0</asrwt>
<pdfrwt beam="1">  1       11 0.10000000E+01 0.12258042E+03</pdfrwt>
<pdfrwt beam="2">  1        4 0.22815172E-02 0.12091383E+03</pdfrwt>
<totfact> 0.32243562E+03</totfact>
</mgrwt>
</event>
<event>
 5    1  0.1490736E-003  0.3345704E+02  0.7818608E-02  0.1571745E+00
         11   -1    0    0    0    0  0.00000000000E+00  0.00000000000E+00  0.10002788809E+04  0.10002788809E+04  0.51100000000E-03 0.  1.
          4   -1    0    0  501    0 -0.00000000000E+00 -0.00000000000E+00 -0.22100691614E+01  0.26269384648E+01  0.14200000000E+01 0.  1.
         11    1    1    2    0    0 -0.14428952977E+01 -0.18148793962E+02  0.57490948506E+02  0.60304807682E+02  0.51100000000E-03 0.  1.
         22    1    1    2    0    0  0.14191536396E+01 -0.14345243763E+02  0.72780770653E+02  0.74194612962E+02  0.00000000000E+00 0.  1.
          4    1    1    2  501    0  0.23741658105E-01  0.32494037725E+02  0.86779709255E+03  0.86840639869E+03  0.14200000000E+01 0.  1.
<mgrwt>
<rscale>  0 0.32525059E+02</rscale>
<asrwt>0</asrwt>
<pdfrwt beam="1">  1       11 0.10000000E+01 0.33457037E+02</pdfrwt>
<pdfrwt beam="2">  1        4 0.37225882E-03 0.32525059E+02</pdfrwt>
<totfact> 0.33181584E+04</totfact>
</mgrwt>
</event>
<event>
 5    1  0.1490736E-003  0.7340967E+02  0.7818608E-02  0.1396998E+00
         11   -1    0    0    0    0  0.00000000000E+00  0.00000000000E+00  0.10000541507E+04  0.10000541507E+04  0.51100000000E-03 0. -1.
          4   -1    0    0  501    0 -0.00000000000E+00 -0.00000000000E+00 -0.13207900148E+02  0.13284013939E+02  0.14200000000E+01 0. -1.
         11    1    1    2    0    0  0.56949220423E+01 -0.73239471011E+02  0.37951261829E+03  0.38655695530E+03  0.51100000000E-03 0. -1.
         22    1    1    2    0    0  0.54069062929E+02  0.66155435655E+02  0.45559697117E+03  0.46353921665E+03  0.00000000000E+00 0. -1.
          4    1    1    2  501    0 -0.59763984972E+02  0.70840353552E+01  0.15173666106E+03  0.16324199266E+03  0.14200000000E+01 0. -1.
<mgrwt>
<rscale>  0 0.60199118E+02</rscale>
<asrwt>0</asrwt>
<pdfrwt beam="1">  1       11 0.10000000E+01 0.73409674E+02</pdfrwt>
<pdfrwt beam="2">  1        4 0.20380274E-02 0.60199118E+02</pdfrwt>
<totfact> 0.33121711E+03</totfact>
</mgrwt>
</event>
<event>
 5    1  0.1490736E-003  0.1223316E+03  0.7818608E-02  0.1243151E+00
         11   -1    0    0    0    0  0.00000000000E+00  0.00000000000E+00  0.10002952454E+04  0.10002952454E+04  0.51100000000E-03 0. -1.
          4   -1    0    0  501    0 -0.00000000000E+00 -0.00000000000E+00 -0.14766038044E+02  0.14834159212E+02  0.14200000000E+01 0. -1.
         11    1    1    2    0    0  0.86652673527E+02  0.27269171681E+02  0.29864431221E+03  0.31215495955E+03  0.51100000000E-03 0. -1.
         22    1    1    2    0    0  0.26508230461E+02  0.12538930067E+02  0.15172977818E+03  0.15453749265E+03  0.00000000000E+00 0. -1.
          4    1    1    2  501    0 -0.11316090399E+03 -0.39808101748E+02  0.53515511697E+03  0.54843695242E+03  0.14200000000E+01 0. -1.
<mgrwt>
<rscale>  0 0.11996704E+03</rscale>
<asrwt>0</asrwt>
<pdfrwt beam="1">  1       11 0.10000000E+01 0.12233161E+03</pdfrwt>
<pdfrwt beam="2">  1        4 0.22776880E-02 0.11996704E+03</pdfrwt>
<totfact> 0.32280405E+03</totfact>
</mgrwt>
</event>
<event>
 5    1  0.1490736E-003  0.2030527E+03  0.7818608E-02  0.1150733E+00
         11   -1    0    0    0    0  0.00000000000E+00  0.00000000000E+00  0.10003120731E+04  0.10003120731E+04  0.51100000000E-03 0.  1.
          4   -1    0    0  501    0 -0.00000000000E+00 -0.00000000000E+00 -0.66580648197E+02  0.66595789013E+02  0.14200000000E+01 0.  1.
         11    1    1    2    0    0  0.57809488212E+02  0.16558457788E+03  0.71281362179E+03  0.73407319034E+03  0.51100000000E-03 0.  1.
         22    1    1    2    0    0 -0.64752157811E+01  0.26494977878E+02  0.91791364803E+02  0.95757855681E+02  0.00000000000E+00 0. -1.
          4    1    1    2  501    0 -0.51334272431E+02 -0.19207955576E+03  0.12912643834E+03  0.23707681612E+03  0.14200000000E+01 0.  1.
<mgrwt>
<rscale>  0 0.19882600E+03</rscale>
<asrwt>0</asrwt>
<pdfrwt beam="1">  1       11 0.10000000E+01 0.20305265E+03</pdfrwt>
<pdfrwt beam="2">  1        4 0.10247616E-01 0.19882600E+03</pdfrwt>
<totfact> 0.30732705E+02</totfact>
</mgrwt>
</event>
<event>
 5    1  0.1490736E-003  0.1321074E+03  0.7818608E-02  0.1229904E+00
         11   -1    0    0    0    0  0.00000000000E+00  0.00000000000E+00  0.10001866831E+04  0.10001866831E+04  0.51100000000E-03 0. -1.
          4   -1    0    0  501    0 -0.00000000000E+00 -0.00000000000E+00 -0.17043783392E+02  0.17102834628E+02  0.14200000000E+01 0. -1.
         11    1    1    2    0    0 -0.72212611861E+00 -0.10618114287E+03  0.32832086266E+03  0.34506455255E+03  0.51100000000E-03 0. -1.
         22    1    1    2    0    0 -0.51213893441E+01 -0.22041410927E+02  0.12839989492E+03  0.13037862340E+03  0.00000000000E+00 0.  1.
          4    1    1    2  501    0  0.58435154627E+01  0.12822255380E+03  0.52642214214E+03  0.54184634179E+03  0.14200000000E+01 0. -1.
<mgrwt>
<rscale>  0 0.12836349E+03</rscale>
<asrwt>0</asrwt>
<pdfrwt beam="1">  1       11 0.10000000E+01 0.13210739E+03</pdfrwt>
<pdfrwt beam="2">  1        4 0.26272308E-02 0.12836349E+03</pdfrwt>
<totfact> 0.26192269E+03</totfact>
</mgrwt>
</event>
<event>
 5    1  0.1490736E-003  0.8384396E+02  0.7818608E-02  0.1318484E+00
         11   -1    0    0    0    0  0.00000000000E+00  0.00000000000E+00  0.10004161577E+04  0.10004161577E+04  0.51100000000E-03 0. -1.
          4   -1    0    0  501    0 -0.00000000000E+00 -0.00000000000E+00 -0.10172228064E+02  0.10270862855E+02  0.14200000000E+01 0. -1.
         11    1    1    2    0    0 -0.89242659476E+01  0.27816089239E+02  0.11907912638E+03  0.12261001461E+03  0.51100000000E-03 0. -1.
         22    1    1    2    0    0  0.84580865817E+02  0.10552932341E+02  0.36258037946E+03  0.37246452021E+03  0.00000000000E+00 0. -1.
          4    1    1    2  501    0 -0.75656599869E+02 -0.38369021580E+02  0.50858442383E+03  0.51561248577E+03  0.14200000000E+01 0. -1.
<mgrwt>
<rscale>  0 0.83843959E+02</rscale>
<asrwt>0</asrwt>
<pdfrwt beam="1">  1       11 0.10000000E+01 0.29212638E+02</pdfrwt>
<pdfrwt beam="2">  1        4 0.15732774E-02 0.83843959E+02</pdfrwt>
<totfact> 0.52837488E+03</totfact>
</mgrwt>
</event>
<event>
 5    1  0.1490736E-003  0.2168188E+03  0.7818608E-02  0.1148853E+00
         11   -1    0    0    0    0  0.00000000000E+00  0.00000000000E+00  0.10001897797E+04  0.10001897797E+04  0.51100000000E-03 0.  1.
          4   -1    0    0  501    0 -0.00000000000E+00 -0.00000000000E+00 -0.47399975353E+03  0.47400188053E+03  0.14200000000E+01 0.  1.
         11    1    1    2    0    0  0.13633658523E+03 -0.11311821703E+03  0.83487118641E+03  0.85345960268E+03  0.51100000000E-03 0.  1.
         22    1    1    2    0    0  0.36667735018E+02  0.10697512426E+02  0.13143234308E+03  0.13687008574E+03  0.00000000000E+00 0.  1.
          4    1    1    2  501    0 -0.17300432025E+03  0.10242070461E+03 -0.44011350333E+03  0.48386197182E+03  0.14200000000E+01 0.  1.
<mgrwt>
<rscale>  0 0.20105351E+03</rscale>
<asrwt>0</asrwt>
<pdfrwt beam="1">  1       11 0.10000000E+01 0.21681877E+03</pdfrwt>
<pdfrwt beam="2">  1        4 0.72937117E-01 0.20105351E+03</pdfrwt>
<totfact> 0.73401480E+00</totfact>
</mgrwt>
</event>
<event>
 5    1  0.1490736E-003  0.3392999E+03  0.7818608E-02  0.1071437E+00
         11   -1    0    0    0    0  0.00000000000E+00  0.00000000000E+00  0.99996454766E+03  0.99996454766E+03  0.51100000000E-03 0. -1.
         -4   -1    0    0    0  501 -0.00000000000E+00 -0.00000000000E+00 -0.12846757682E+03  0.12847542448E+03  0.14200000000E+01 0. -1.
         11    1    1    2    0    0  0.77343856861E+02  0.28761307329E+03  0.51436846615E+03  0.59437216547E+03  0.51100000000E-03 0. -1.
         22    1    1    2    0    0  0.37915537509E+01  0.31555061330E+02  0.13046621151E+03  0.13428153306E+03  0.00000000000E+00 0.  1.
         -4    1    1    2    0  501 -0.81135410612E+02 -0.31916813462E+03  0.22666229318E+03  0.39978627360E+03  0.14200000000E+01 0. -1.
<mgrwt>
<rscale>  0 0.32932244E+03</rscale>
<asrwt>0</asrwt>
<pdfrwt beam="1">  1       11 0.10000000E+01 0.33929994E+03</pdfrwt>
<pdfrwt beam="2">  1       -4 0.19764223E-01 0.32932244E+03</pdfrwt>
<totfact> 0.10131696E+02</totfact>
</mgrwt>
</event>
<event>
 5    1  0.1490736E-003  0.1368493E+03  0.7818608E-02  0.1219801E+00
         11   -1    0    0    0    0  0.00000000000E+00  0.00000000000E+00  0.10003264893E+04  0.10003264893E+04  0.51100000000E-03 0.  1.
         -4   -1    0    0    0  501 -0.00000000000E+00 -0.00000000000E+00 -0.25125662137E+02  0.25165756453E+02  0.14200000000E+01 0. -1.
         11    1    1    2    0    0  0.11827987236E+03  0.20848715242E+02  0.21044303302E+03  0.24230366749E+03  0.51100000000E-03 0.  1.
         22    1    1    2    0    0  0.14383664379E+02  0.56777658994E+01  0.15798839898E+02  0.22107242449E+02  0.00000000000E+00 0. -1.
         -4    1    1    2    0  501 -0.13266353674E+03 -0.26526481142E+02  0.74895895423E+03  0.76108133580E+03  0.14200000000E+01 0. -1.
<mgrwt>
<rscale>  0 0.13529702E+03</rscale>
<asrwt>0</asrwt>
<pdfrwt beam="1">  1       11 0.10000000E+01 0.13684935E+03</pdfrwt>
<pdfrwt beam="2">  1       -4 0.38699112E-02 0.13529702E+03</pdfrwt>
<totfact> 0.14386172E+03</totfact>
</mgrwt>
</event>
<event>
 5    1  0.1490736E-003  0.2985961E+03  0.7818608E-02  0.1095389E+00
         11   -1    0    0    0    0  0.00000000000E+00  0.00000000000E+00  0.10001242017E+04  0.10001242017E+04  0.51100000000E-03 0. -1.
         -4   -1    0    0    0  501 -0.00000000000E+00 -0.00000000000E+00 -0.14330592271E+03  0.14331295784E+03  0.14200000000E+01 0.  1.
         11    1    1    2    0    0  0.93137042564E+02  0.12728927033E+03  0.35456117818E+03  0.38806017074E+03  0.51100000000E-03 0. -1.
         22    1    1    2    0    0  0.12855301277E+03  0.44639598879E+02  0.44983969642E+03  0.46997268363E+03  0.00000000000E+00 0.  1.
         -4    1    1    2    0  501 -0.22169005534E+03 -0.17192886921E+03  0.52417404337E+02  0.28540430512E+03  0.14200000000E+01 0.  1.
<mgrwt>
<rscale>  0 0.28054952E+03</rscale>
<asrwt>0</asrwt>
<pdfrwt beam="1">  1       11 0.10000000E+01 0.29859607E+03</pdfrwt>
<pdfrwt beam="2">  1       -4 0.22050421E-01 0.28054952E+03</pdfrwt>
<totfact> 0.81878409E+01</totfact>
</mgrwt>
</event>
<event>
 5    1  0.1490736E-003  0.2062510E+03  0.7818608E-02  0.1159161E+00
         11   -1    0    0    0    0  0.00000000000E+00  0.00000000000E+00  0.10000933888E+04  0.10000933888E+04  0.51100000000E-03 0.  1.
         -4   -1    0    0    0  501 -0.00000000000E+00 -0.00000000000E+00 -0.51298237305E+02  0.51317887238E+02  0.14200000000E+01 0.  1.
         11    1    1    2    0    0 -0.85780487770E+02  0.86542807308E+02  0.59474572122E+03  0.60710001028E+03  0.51100000000E-03 0.  1.
         22    1    1    2    0    0 -0.64664966010E+02  0.28221885620E+02  0.15149968757E+03  0.16712327184E+03  0.00000000000E+00 0.  1.
         -4    1    1    2    0  501  0.15044545378E+03 -0.11476469293E+03  0.20254974275E+03  0.27718799396E+03  0.14200000000E+01 0.  1.
<mgrwt>
<rscale>  0 0.18922681E+03</rscale>
<asrwt>0</asrwt>
<pdfrwt beam="1">  1       11 0.10000000E+01 0.20625101E+03</pdfrwt>
<pdfrwt beam="2">  1       -4 0.78943625E-02 0.18922681E+03</pdfrwt>
<totfact> 0.47405537E+02</totfact>
</mgrwt>
</event>
<event>
 5    1  0.1490736E-003  0.1891001E+03  0.7818608E-02  0.1408811E+00
         11   -1    0    0    0    0  0.00000000000E+00  0.00000000000E+00  0.10000398190E+04  0.10000398190E+04  0.51100000000E-03 0.  1.
         -4   -1    0    0    0  501 -0.00000000000E+00 -0.00000000000E+00 -0.68023013814E+02  0.68037833654E+02  0.14200000000E+01 0.  1.
         11    1    1    2    0    0  0.24084391038E+02  0.17880946679E+03  0.36106939696E+03  0.40363844307E+03  0.51100000000E-03 0.  1.
         22    1    1    2    0    0  0.30383977440E+02 -0.19705335415E+03  0.57324910257E+03  0.60693306390E+03  0.00000000000E+00 0.  1.
         -4    1    1    2    0  501 -0.54468368478E+02  0.18243887359E+02 -0.23016943669E+01  0.57506145651E+02  0.14200000000E+01 0.  1.
<mgrwt>
<rscale>  0 0.57460064E+02</rscale>
<asrwt>0</asrwt>
<pdfrwt beam="1">  1       11 0.10000000E+01 0.18910006E+03</pdfrwt>
<pdfrwt beam="2">  1       -4 0.10466713E-01 0.57460064E+02</pdfrwt>
<totfact> 0.24930658E+02</totfact>
</mgrwt>
</event>
<event>
 5    1  0.1490736E-003  0.1673390E+03  0.7818608E-02  0.1185568E+00
         11   -1    0    0    0    0  0.00000000000E+00  0.00000000000E+00  0.10002974578E+04  0.10002974578E+04  0.51100000000E-03 0. -1.
          4   -1    0    0  501    0 -0.00000000000E+00 -0.00000000000E+00 -0.42773932246E+02  0.42797496186E+02  0.14200000000E+01 0.  1.
         11    1    1    2    0    0  0.50966401701E+02 -0.66125584028E+02  0.48335232596E+03  0.49050956971E+03  0.51100000000E-03 0. -1.
         22    1    1    2    0    0  0.64242549054E+02 -0.48895226757E+02  0.31395396135E+03  0.32416807085E+03  0.00000000000E+00 0. -1.
          4    1    1    2  501    0 -0.11520895075E+03  0.11502081078E+03  0.16021723827E+03  0.22841731345E+03  0.14200000000E+01 0.  1.
<mgrwt>
<rscale>  0 0.16280327E+03</rscale>
<asrwt>0</asrwt>
<pdfrwt beam="1">  1       11 0.10000000E+01 0.16733900E+03</pdfrwt>
<pdfrwt beam="2">  1        4 0.65844529E-02 0.16280327E+03</pdfrwt>
<totfact> 0.62765895E+02</totfact>
</mgrwt>
</event>
<event>
 5    1  0.1490736E-003  0.1803857E+03  0.7818608E-02  0.1169530E+00
         11   -1    0    0    0    0  0.00000000000E+00  0.00000000000E+00  0.10001446643E+04  0.10001446643E+04  0.51100000000E-03 0. -1.
          4   -1    0    0  501    0 -0.00000000000E+00 -0.00000000000E+00 -0.35735968147E+02  0.35764169492E+02  0.14200000000E+01 0. -1.
         11    1    1    2    0    0  0.13479192956E+03  0.92364142699E+02  0.58343352330E+03  0.60588338419E+03  0.51100000000E-03 0. -1.
         22    1    1    2    0    0  0.16889156797E+02  0.12076362894E+01  0.65841995203E+02  0.67984338895E+02  0.00000000000E+00 0.  1.
          4    1    1    2  501    0 -0.15168108636E+03 -0.93571778989E+02  0.31513317762E+03  0.36204111067E+03  0.14200000000E+01 0. -1.
<mgrwt>
<rscale>  0 0.17822695E+03</rscale>
<asrwt>0</asrwt>
<pdfrwt beam="1">  1       11 0.10000000E+01 0.18038572E+03</pdfrwt>
<pdfrwt beam="2">  1        4 0.55008836E-02 0.17822695E+03</pdfrwt>
<totfact> 0.85225162E+02</totfact>
</mgrwt>
</event>
<event>
 5    1  0.1490736E-003  0.1485529E+03  0.7818608E-02  0.1225308E+00
         11   -1    0    0    0    0  0.00000000000E+00  0.00000000000E+00  0.10007356392E+04  0.10007356392E+04  0.51100000000E-03 0. -1.
         -4   -1    0    0    0  501 -0.00000000000E+00 -0.00000000000E+00 -0.23483514759E+02  0.23526407831E+02  0.14200000000E+01 0.  1.
         11    1    1    2    0    0 -0.46399039495E+02 -0.40090259473E+02  0.31766369743E+03  0.32352793455E+03  0.51100000000E-03 0. -1.
         22    1    1    2    0    0  0.10579300976E+02 -0.86385400263E+02  0.40459354499E+03  0.41384815529E+03  0.00000000000E+00 0. -1.
         -4    1    1    2    0  501  0.35819738518E+02  0.12647565974E+03  0.25499488198E+03  0.28688595715E+03  0.14200000000E+01 0.  1.
<mgrwt>
<rscale>  0 0.13145784E+03</rscale>
<asrwt>0</asrwt>
<pdfrwt beam="1">  1       11 0.10000000E+01 0.14855293E+03</pdfrwt>
<pdfrwt beam="2">  1       -4 0.36188855E-02 0.13145784E+03</pdfrwt>
<totfact> 0.15922280E+03</totfact>
</mgrwt>
</event>
<event>
 5    1  0.1490736E-003  0.1322489E+03  0.7818608E-02  0.1224156E+00
         11   -1    0    0    0    0  0.00000000000E+00  0.00000000000E+00  0.10002655689E+04  0.10002655689E+04  0.51100000000E-03 0. -1.
          4   -1    0    0  501    0 -0.00000000000E+00 -0.00000000000E+00 -0.23143645276E+02  0.23187167068E+02  0.14200000000E+01 0. -1.
         11    1    1    2    0    0  0.73166745867E+00 -0.18505404026E+02  0.34818658249E+02  0.39437599800E+02  0.51100000000E-03 0. -1.
         22    1    1    2    0    0  0.12186398768E+03 -0.37637116638E+02  0.64599997749E+03  0.65847046628E+03  0.00000000000E+00 0. -1.
          4    1    1    2  501    0 -0.12259565514E+03  0.56142520664E+02  0.29630328790E+03  0.32554466991E+03  0.14200000000E+01 0. -1.
<mgrwt>
<rscale>  0 0.13224887E+03</rscale>
<asrwt>0</asrwt>
<pdfrwt beam="1">  1       11 0.10000000E+01 0.18519872E+02</pdfrwt>
<pdfrwt beam="2">  1        4 0.35649326E-02 0.13224887E+03</pdfrwt>
<totfact> 0.16320742E+03</totfact>
</mgrwt>
</event>
<event>
 5    1  0.1490736E-003  0.7391485E+02  0.7818608E-02  0.1567324E+00
         11   -1    0    0    0    0  0.00000000000E+00  0.00000000000E+00  0.10000178205E+04  0.10000178205E+04  0.51100000000E-03 0.  1.
          4   -1    0    0  501    0 -0.00000000000E+00 -0.00000000000E+00 -0.80086824148E+01  0.81335966228E+01  0.14200000000E+01 0.  1.
         11    1    1    2    0    0 -0.57410555478E+02 -0.51902513604E+02  0.28113350903E+03  0.29159199698E+03  0.51100000000E-03 0.  1.
         22    1    1    2    0    0 -0.48194497293E+01  0.13899135950E+02  0.68802753572E+02  0.70357884953E+02  0.00000000000E+00 0. -1.
          4    1    1    2  501    0  0.62230005208E+02  0.38003377653E+02  0.64207287548E+03  0.64620153520E+03  0.14200000000E+01 0.  1.
<mgrwt>
<rscale>  0 0.32978180E+02</rscale>
<asrwt>0</asrwt>
<pdfrwt beam="1">  1       11 0.10000000E+01 0.73914852E+02</pdfrwt>
<pdfrwt beam="2">  1        4 0.12418134E-02 0.32978180E+02</pdfrwt>
<totfact> 0.58687754E+03</totfact>
</mgrwt>
</event>
<event>
 5    1  0.2022446E-003  0.2064344E+03  0.7818608E-02  0.1145640E+00
         11   -1    0    0    0    0  0.00000000000E+00  0.00000000000E+00  0.10006057817E+04  0.10006057817E+04  0.51100000000E-03 0. -1.
         -4   -1    0    0    0  501 -0.00000000000E+00 -0.00000000000E+00 -0.90179418135E+02  0.90190597377E+02  0.14200000000E+01 0.  1.
         11    1    1    2    0    0  0.81924945813E+00  0.18820429288E+03  0.79219677239E+03  0.81424643273E+03  0.51100000000E-03 0. -1.
         22    1    1    2    0    0  0.67333499466E+01  0.16587040768E+02  0.61290804185E+02  0.63851629584E+02  0.00000000000E+00 0.  1.
         -4    1    1    2    0  501 -0.75525994047E+01 -0.20479133365E+03  0.56938787013E+02  0.21269831678E+03  0.14200000000E+01 0.  1.
<mgrwt>
<rscale>  0 0.20493547E+03</rscale>
<asrwt>0</asrwt>
<pdfrwt beam="1">  1       11 0.10000000E+01 0.20643441E+03</pdfrwt>
<pdfrwt beam="2">  1       -4 0.13883099E-01 0.20493547E+03</pdfrwt>
<totfact> 0.18267387E+02</totfact>
</mgrwt>
</event>
<event>
 5    1  0.1490736E-003  0.5919306E+02  0.7818608E-02  0.1408852E+00
         11   -1    0    0    0    0  0.00000000000E+00  0.00000000000E+00  0.10001772353E+04  0.10001772353E+04  0.51100000000E-03 0. -1.
          4   -1    0    0  501    0 -0.00000000000E+00 -0.00000000000E+00 -0.38231160590E+01  0.40783104836E+01  0.14200000000E+01 0. -1.
         11    1    1    2    0    0  0.26321341752E+02 -0.32383644148E+02  0.25037038572E+03  0.25382443437E+03  0.51100000000E-03 0. -1.
         22    1    1    2    0    0  0.49043248318E+01 -0.15819323619E+02  0.66825507797E+02  0.68847308546E+02  0.00000000000E+00 0. -1.
          4    1    1    2  501    0 -0.31225666584E+02  0.48202967766E+02  0.67915822570E+03  0.68158380284E+03  0.14200000000E+01 0. -1.
<mgrwt>
<rscale>  0 0.57450716E+02</rscale>
<asrwt>0</asrwt>
<pdfrwt beam="1">  1       11 0.10000000E+01 0.59193064E+02</pdfrwt>
<pdfrwt beam="2">  1        4 0.60798730E-03 0.57450716E+02</pdfrwt>
<totfact> 0.19691277E+04</totfact>
</mgrwt>
</event>
<event>
 5    1  0.1490736E-003  0.9874488E+02  0.7818608E-02  0.1289676E+00
         11   -1    0    0    0    0  0.00000000000E+00  0.00000000000E+00  0.10002312655E+04  0.10002312655E+04  0.51100000000E-03 0. -1.
          4   -1    0    0  501    0 -0.00000000000E+00 -0.00000000000E+00 -0.95968289155E+01  0.97013156445E+01  0.14200000000E+01 0. -1.
         11    1    1    2    0    0  0.58507536402E+02  0.27894325299E+02  0.31288958351E+03  0.31953265353E+03  0.51100000000E-03 0. -1.
         22    1    1    2    0    0  0.20856356912E+02  0.25509443072E+02  0.11694847988E+03  0.12150171297E+03  0.00000000000E+00 0. -1.
          4    1    1    2  501    0 -0.79363893314E+02 -0.53403768371E+02  0.56079637322E+03  0.56889821468E+03  0.14200000000E+01 0. -1.
<mgrwt>
<rscale>  0 0.95669255E+02</rscale>
<asrwt>0</asrwt>
<pdfrwt beam="1">  1       11 0.10000000E+01 0.98744882E+02</pdfrwt>
<pdfrwt beam="2">  1        4 0.14848935E-02 0.95669255E+02</pdfrwt>
<totfact> 0.59339768E+03</totfact>
</mgrwt>
</event>
<event>
 5    1  0.1490736E-003  0.4289231E+02  0.7818608E-02  0.1499415E+00
         11   -1    0    0    0    0  0.00000000000E+00  0.00000000000E+00  0.10003510228E+04  0.10003510228E+04  0.51100000000E-03 0. -1.
          4   -1    0    0  501    0 -0.00000000000E+00 -0.00000000000E+00 -0.22106401216E+01  0.26274188374E+01  0.14200000000E+01 0. -1.
         11    1    1    2    0    0  0.18985760014E+02  0.10990178189E+02  0.12320823877E+03  0.12514596758E+03  0.51100000000E-03 0. -1.
         22    1    1    2    0    0  0.20929754295E+02 -0.79734408984E+00  0.12293973758E+03  0.12471114405E+03  0.00000000000E+00 0. -1.
          4    1    1    2  501    0 -0.39915514309E+02 -0.10192834100E+02  0.75199240633E+03  0.75312133002E+03  0.14200000000E+01 0. -1.
<mgrwt>
<rscale>  0 0.41220851E+02</rscale>
<asrwt>0</asrwt>
<pdfrwt beam="1">  1       11 0.10000000E+01 0.42892307E+02</pdfrwt>
<pdfrwt beam="2">  1        4 0.37236656E-03 0.41220851E+02</pdfrwt>
<totfact> 0.36060131E+04</totfact>
</mgrwt>
</event>
<event>
 5    1  0.1490736E-003  0.9824788E+02  0.7818608E-02  0.1472037E+00
         11   -1    0    0    0    0  0.00000000000E+00  0.00000000000E+00  0.10000988923E+04  0.10000988923E+04  0.51100000000E-03 0.  1.
         -4   -1    0    0    0  501 -0.00000000000E+00 -0.00000000000E+00 -0.27534008159E+02  0.27570600380E+02  0.14200000000E+01 0.  1.
         11    1    1    2    0    0  0.53835938637E+02 -0.56456972805E+02  0.26300128626E+03  0.27432713071E+03  0.51100000000E-03 0.  1.
         22    1    1    2    0    0 -0.98765036843E+02  0.62614511204E+02  0.69632909060E+03  0.70608024468E+03  0.00000000000E+00 0.  1.
         -4    1    1    2    0  501  0.44929098206E+02 -0.61575383986E+01  0.13234507236E+02  0.47262117245E+02  0.14200000000E+01 0.  1.
<mgrwt>
<rscale>  0 0.45371308E+02</rscale>
<asrwt>0</asrwt>
<pdfrwt beam="1">  1       11 0.10000000E+01 0.98247882E+02</pdfrwt>
<pdfrwt beam="2">  1       -4 0.42393127E-02 0.45371308E+02</pdfrwt>
<totfact> 0.10097947E+03</totfact>
</mgrwt>
</event>
<event>
 5    1  0.1490736E-003  0.2075268E+03  0.7818608E-02  0.1143540E+00
         11   -1    0    0    0    0  0.00000000000E+00  0.00000000000E+00  0.10003392297E+04  0.10003392297E+04  0.51100000000E-03 0. -1.
         -4   -1    0    0    0  501 -0.00000000000E+00 -0.00000000000E+00 -0.49624065795E+03  0.49624268963E+03  0.14200000000E+01 0.  1.
         11    1    1    2    0    0 -0.15950504244E+03 -0.15399888939E+03  0.57090442427E+03  0.61244540830E+03  0.51100000000E-03 0. -1.
         22    1    1    2    0    0 -0.36186146717E+02  0.84366564621E+02  0.38025390491E+03  0.39117794753E+03  0.00000000000E+00 0.  1.
         -4    1    1    2    0  501  0.19569118916E+03  0.69632324773E+02 -0.44705975745E+03  0.49295856347E+03  0.14200000000E+01 0.  1.
<mgrwt>
<rscale>  0 0.20752677E+03</rscale>
<asrwt>0</asrwt>
<pdfrwt beam="1">  1       11 0.10000000E+01 0.91799534E+02</pdfrwt>
<pdfrwt beam="2">  1       -4 0.76370847E-01 0.20752677E+03</pdfrwt>
<totfact> 0.66406185E+00</totfact>
</mgrwt>
</event>
<event>
 5    1  0.1490736E-003  0.8085653E+02  0.7818608E-02  0.1339954E+00
         11   -1    0    0    0    0  0.00000000000E+00  0.00000000000E+00  0.10004589932E+04  0.10004589932E+04  0.51100000000E-03 0. -1.
          4   -1    0    0  501    0 -0.00000000000E+00 -0.00000000000E+00 -0.63892828502E+01  0.65451764942E+01  0.14200000000E+01 0. -1.
         11    1    1    2    0    0  0.48335413749E+02  0.16053531513E+02  0.30156576805E+03  0.30583646047E+03  0.51100000000E-03 0. -1.
         22    1    1    2    0    0  0.27246013713E+02 -0.58567539632E+01  0.10131226442E+03  0.10507531467E+03  0.00000000000E+00 0. -1.
          4    1    1    2  501    0 -0.75581427463E+02 -0.10196777550E+02  0.59119167793E+03  0.59609239460E+03  0.14200000000E+01 0. -1.
<mgrwt>
<rscale>  0 0.76279374E+02</rscale>
<asrwt>0</asrwt>
<pdfrwt beam="1">  1       11 0.10000000E+01 0.80856527E+02</pdfrwt>
<pdfrwt beam="2">  1        4 0.99549262E-03 0.76279374E+02</pdfrwt>
<totfact> 0.10266053E+04</totfact>
</mgrwt>
</event>
<event>
 5    1  0.1490736E-003  0.3832671E+02  0.7818608E-02  0.1538808E+00
         11   -1    0    0    0    0  0.00000000000E+00  0.00000000000E+00  0.99980532152E+03  0.99980532152E+03  0.51100000000E-03 0.  1.
          4   -1    0    0  501    0 -0.00000000000E+00 -0.00000000000E+00 -0.25096586893E+01  0.28835371918E+01  0.14200000000E+01 0.  1.
         11    1    1    2    0    0  0.14358014204E+02  0.20001046887E+02  0.88172452041E+02  0.91545484583E+02  0.51100000000E-03 0.  1.
         22    1    1    2    0    0 -0.62885793801E-02  0.13123344401E+02  0.68593633145E+02  0.69837731319E+02  0.00000000000E+00 0. -1.
          4    1    1    2  501    0 -0.14351725625E+02 -0.33124391288E+02  0.84052957764E+03  0.84130564281E+03  0.14200000000E+01 0.  1.
<mgrwt>
<rscale>  0 0.36127742E+02</rscale>
<asrwt>0</asrwt>
<pdfrwt beam="1">  1       11 0.10000000E+01 0.38326713E+02</pdfrwt>
<pdfrwt beam="2">  1        4 0.41485800E-03 0.36127742E+02</pdfrwt>
<totfact> 0.29528808E+04</totfact>
</mgrwt>
</event>
<event>
 5    1  0.1490736E-003  0.9882866E+02  0.7818608E-02  0.1563232E+00
         11   -1    0    0    0    0  0.00000000000E+00  0.00000000000E+00  0.10001149670E+04  0.10001149670E+04  0.51100000000E-03 0. -1.
          4   -1    0    0  501    0 -0.00000000000E+00 -0.00000000000E+00 -0.11409911911E+03  0.11410795495E+03  0.14200000000E+01 0. -1.
         11    1    1    2    0    0 -0.50697698336E+02  0.79247929687E+02  0.55986537011E+03  0.56771447368E+03  0.51100000000E-03 0. -1.
         22    1    1    2    0    0  0.83266816127E+02 -0.71955693303E+02  0.42664363936E+03  0.44060841966E+03  0.00000000000E+00 0. -1.
          4    1    1    2  501    0 -0.32569117791E+02 -0.72922363844E+01 -0.10049316156E+03  0.10590002863E+03  0.14200000000E+01 0. -1.
<mgrwt>
<rscale>  0 0.33405696E+02</rscale>
<asrwt>0</asrwt>
<pdfrwt beam="1">  1       11 0.10000000E+01 0.98828659E+02</pdfrwt>
<pdfrwt beam="2">  1        4 0.17556486E-01 0.33405696E+02</pdfrwt>
<totfact> 0.94500149E+01</totfact>
</mgrwt>
</event>
<event>
 5    1  0.1490736E-003  0.5669581E+02  0.7818608E-02  0.1435753E+00
         11   -1    0    0    0    0  0.00000000000E+00  0.00000000000E+00  0.10003076634E+04  0.10003076634E+04  0.51100000000E-03 0. -1.
          4   -1    0    0  501    0 -0.00000000000E+00 -0.00000000000E+00 -0.98540861013E+01  0.99558732862E+01  0.14200000000E+01 0. -1.
         11    1    1    2    0    0  0.21773750776E+01  0.30579875744E+02  0.30115775328E+02  0.42974756388E+02  0.51100000000E-03 0. -1.
         22    1    1    2    0    0  0.15021894121E+02  0.18284381941E+02  0.48354674600E+02  0.53834472986E+02  0.00000000000E+00 0. -1.
          4    1    1    2  501    0 -0.17199269199E+02 -0.48864257684E+02  0.91198312738E+03  0.91345430733E+03  0.14200000000E+01 0. -1.
<mgrwt>
<rscale>  0 0.51822263E+02</rscale>
<asrwt>0</asrwt>
<pdfrwt beam="1">  1       11 0.10000000E+01 0.56695814E+02</pdfrwt>
<pdfrwt beam="2">  1        4 0.15243894E-02 0.51822263E+02</pdfrwt>
<totfact> 0.49373320E+03</totfact>
</mgrwt>
</event>
<event>
 5    1  0.1490736E-003  0.1183133E+03  0.7818608E-02  0.1250310E+00
         11   -1    0    0    0    0  0.00000000000E+00  0.00000000000E+00  0.99999133845E+03  0.99999133845E+03  0.51100000000E-03 0.  1.
         -4   -1    0    0    0  501 -0.00000000000E+00 -0.00000000000E+00 -0.13659171663E+02  0.13732784514E+02  0.14200000000E+01 0.  1.
         11    1    1    2    0    0 -0.88500307248E+00 -0.94064918649E+02  0.44222797411E+03  0.45212229898E+03  0.51100000000E-03 0.  1.
         22    1    1    2    0    0 -0.51397624568E+01 -0.21500644869E+02  0.62735583233E+02  0.66516526454E+02  0.00000000000E+00 0.  1.
         -4    1    1    2    0  501  0.60247655293E+01  0.11556556352E+03  0.48136860944E+03  0.49508529753E+03  0.14200000000E+01 0.  1.
<mgrwt>
<rscale>  0 0.11573121E+03</rscale>
<asrwt>0</asrwt>
<pdfrwt beam="1">  1       11 0.10000000E+01 0.11831330E+03</pdfrwt>
<pdfrwt beam="2">  1       -4 0.21071328E-02 0.11573121E+03</pdfrwt>
<totfact> 0.36151409E+03</totfact>
</mgrwt>
</event>
<event>
 5    1  0.1490736E-003  0.9220487E+02  0.7818608E-02  0.1472752E+00
         11   -1    0    0    0    0  0.00000000000E+00  0.00000000000E+00  0.10001773700E+04  0.10001773700E+04  0.51100000000E-03 0. -1.
          4   -1    0    0  501    0 -0.00000000000E+00 -0.00000000000E+00 -0.12364301370E+02  0.12445575453E+02  0.14200000000E+01 0. -1.
         11    1    1    2    0    0  0.79908900338E+01  0.85588909328E+02  0.42027557810E+03  0.42897654629E+03  0.51100000000E-03 0. -1.
         22    1    1    2    0    0 -0.17552707876E+02  0.13607591647E+02  0.32239412244E+02  0.39148994956E+02  0.00000000000E+00 0. -1.
          4    1    1    2  501    0  0.95618178419E+01 -0.99196500975E+02  0.53529807829E+03  0.54449740421E+03  0.14200000000E+01 0. -1.
<mgrwt>
<rscale>  0 0.45255624E+02</rscale>
<asrwt>0</asrwt>
<pdfrwt beam="1">  1       11 0.10000000E+01 0.92204870E+02</pdfrwt>
<pdfrwt beam="2">  1        4 0.19088681E-02 0.45255624E+02</pdfrwt>
<totfact> 0.34032567E+03</totfact>
</mgrwt>
</event>
<event>
 5    1  0.1490736E-003  0.9515618E+02  0.7818608E-02  0.1290825E+00
         11   -1    0    0    0    0  0.00000000000E+00  0.00000000000E+00  0.99994964487E+03  0.99994964487E+03  0.51100000000E-03 0.  1.
          4   -1    0    0  501    0 -0.00000000000E+00 -0.00000000000E+00 -0.11547502483E+02  0.11634483813E+02  0.14200000000E+01 0.  1.
         11    1    1    2    0    0 -0.93124376459E+01 -0.95333879168E+02  0.55520528111E+03  0.56340764477E+03  0.51100000000E-03 0.  1.
         22    1    1    2    0    0  0.17871822367E+02  0.33021809772E+00  0.10028335488E+03  0.10186394036E+03  0.00000000000E+00 0.  1.
          4    1    1    2  501    0 -0.85593847211E+01  0.95003661070E+02  0.33291350639E+03  0.34631254355E+03  0.14200000000E+01 0.  1.
<mgrwt>
<rscale>  0 0.95156182E+02</rscale>
<asrwt>0</asrwt>
<pdfrwt beam="1">  1       11 0.10000000E+01 0.17874873E+02</pdfrwt>
<pdfrwt beam="2">  1        4 0.17832174E-02 0.95156182E+02</pdfrwt>
<totfact> 0.44893971E+03</totfact>
</mgrwt>
</event>
<event>
 5    1  0.1490736E-003  0.9689515E+02  0.7818608E-02  0.1297136E+00
         11   -1    0    0    0    0  0.00000000000E+00  0.00000000000E+00  0.10001611318E+04  0.10001611318E+04  0.51100000000E-03 0. -1.
         -4   -1    0    0    0  501 -0.00000000000E+00 -0.00000000000E+00 -0.89985804286E+01  0.91099313790E+01  0.14200000000E+01 0.  1.
         11    1    1    2    0    0 -0.69233874352E+02  0.40892579404E+02  0.40084355280E+03  0.40882892049E+03  0.51100000000E-03 0. -1.
         22    1    1    2    0    0 -0.15247707554E+02 -0.34888436278E+01  0.53937216147E+02  0.56159486298E+02  0.00000000000E+00 0. -1.
         -4    1    1    2    0  501  0.84481581906E+02 -0.37403735776E+02  0.53638178244E+03  0.54428265641E+03  0.14200000000E+01 0.  1.
<mgrwt>
<rscale>  0 0.92402346E+02</rscale>
<asrwt>0</asrwt>
<pdfrwt beam="1">  1       11 0.10000000E+01 0.96895153E+02</pdfrwt>
<pdfrwt beam="2">  1       -4 0.13932644E-02 0.92402346E+02</pdfrwt>
<totfact> 0.64850173E+03</totfact>
</mgrwt>
</event>
<event>
 5    1  0.1584481E-003  0.1849296E+03  0.7818608E-02  0.1167261E+00
         11   -1    0    0    0    0  0.00000000000E+00  0.00000000000E+00  0.10004658990E+04  0.10004658990E+04  0.51100000000E-03 0. -1.
          4   -1    0    0  501    0 -0.00000000000E+00 -0.00000000000E+00 -0.36574827780E+02  0.36602382807E+02  0.14200000000E+01 0. -1.
         11    1    1    2    0    0  0.15867229694E+03 -0.69299531489E+02  0.59528216032E+03  0.61995175076E+03  0.51100000000E-03 0. -1.
         22    1    1    2    0    0  0.10277111949E+02  0.56098365859E+01  0.45466924687E+02  0.46950298583E+02  0.00000000000E+00 0.  1.
          4    1    1    2  501    0 -0.16894940889E+03  0.63689694903E+02  0.32314198622E+03  0.37016623246E+03  0.14200000000E+01 0. -1.
<mgrwt>
<rscale>  0 0.18056106E+03</rscale>
<asrwt>0</asrwt>
<pdfrwt beam="1">  1       11 0.10000000E+01 0.18492959E+03</pdfrwt>
<pdfrwt beam="2">  1        4 0.56317161E-02 0.18056106E+03</pdfrwt>
<totfact> 0.82173566E+02</totfact>
</mgrwt>
</event>
<event>
 5    1  0.1490736E-003  0.3768980E+02  0.7818608E-02  0.1535049E+00
         11   -1    0    0    0    0  0.00000000000E+00  0.00000000000E+00  0.10000294571E+04  0.10000294571E+04  0.51100000000E-03 0. -1.
          4   -1    0    0  501    0 -0.00000000000E+00 -0.00000000000E+00 -0.31392944119E+01  0.34455143890E+01  0.14200000000E+01 0. -1.
         11    1    1    2    0    0 -0.13433480421E+00 -0.24515085115E+02  0.69567292557E+02  0.73760528998E+02  0.51100000000E-03 0. -1.
         22    1    1    2    0    0 -0.54056252828E+01 -0.11609329835E+02  0.49491584987E+02  0.51121564025E+02  0.00000000000E+00 0. -1.
          4    1    1    2  501    0  0.55399600870E+01  0.36124414950E+02  0.87783128518E+03  0.87859287850E+03  0.14200000000E+01 0. -1.
<mgrwt>
<rscale>  0 0.36574320E+02</rscale>
<asrwt>0</asrwt>
<pdfrwt beam="1">  1       11 0.10000000E+01 0.37689798E+02</pdfrwt>
<pdfrwt beam="2">  1        4 0.50661621E-03 0.36574320E+02</pdfrwt>
<totfact> 0.22274444E+04</totfact>
</mgrwt>
</event>
<event>
 5    1  0.1490736E-003  0.1277122E+03  0.7818608E-02  0.1230890E+00
         11   -1    0    0    0    0  0.00000000000E+00  0.00000000000E+00  0.10001515501E+04  0.10001515501E+04  0.51100000000E-03 0. -1.
          4   -1    0    0  501    0 -0.00000000000E+00 -0.00000000000E+00 -0.24410361594E+02  0.24451628844E+02  0.14200000000E+01 0. -1.
         11    1    1    2    0    0 -0.10734418906E+03  0.65476339569E+02  0.21851356086E+03  0.25210732288E+03  0.51100000000E-03 0. -1.
         22    1    1    2    0    0 -0.15149296811E+02 -0.10701437866E+02  0.83653558437E+02  0.85685120093E+02  0.00000000000E+00 0. -1.
          4    1    1    2  501    0  0.12249348587E+03 -0.54774901702E+02  0.67357406922E+03  0.68681073598E+03  0.14200000000E+01 0. -1.
<mgrwt>
<rscale>  0 0.12771221E+03</rscale>
<asrwt>0</asrwt>
<pdfrwt beam="1">  1       11 0.10000000E+01 0.18547829E+02</pdfrwt>
<pdfrwt beam="2">  1        4 0.37592617E-02 0.12771221E+03</pdfrwt>
<totfact> 0.14920885E+03</totfact>
</mgrwt>
</event>
<event>
 5    1  0.1490736E-003  0.9050843E+02  0.7818608E-02  0.1590449E+00
         11   -1    0    0    0    0  0.00000000000E+00  0.00000000000E+00  0.99994666609E+03  0.99994666609E+03  0.51100000000E-03 0. -1.
          4   -1    0    0  501    0 -0.00000000000E+00 -0.00000000000E+00 -0.11571541172E+02  0.11658343154E+02  0.14200000000E+01 0. -1.
         11    1    1    2    0    0 -0.77110796438E+02 -0.52247832923E+02  0.27205710782E+03  0.28756039520E+03  0.51100000000E-03 0. -1.
         22    1    1    2    0    0  0.87027423904E+01 -0.57192493371E+01  0.27359901513E+02  0.29274763003E+02  0.00000000000E+00 0.  1.
          4    1    1    2  501    0  0.68408054048E+02  0.57967082261E+02  0.68895811559E+03  0.69476985104E+03  0.14200000000E+01 0. -1.
<mgrwt>
<rscale>  0 0.30702663E+02</rscale>
<asrwt>0</asrwt>
<pdfrwt beam="1">  1       11 0.10000000E+01 0.90508426E+02</pdfrwt>
<pdfrwt beam="2">  1        4 0.17868964E-02 0.30702663E+02</pdfrwt>
<totfact> 0.33588138E+03</totfact>
</mgrwt>
</event>
<event>
 5    1  0.1610111E-003  0.2106387E+03  0.7818608E-02  0.1143056E+00
         11   -1    0    0    0    0  0.00000000000E+00  0.00000000000E+00  0.10003581642E+04  0.10003581642E+04  0.51100000000E-03 0.  1.
          4   -1    0    0  501    0 -0.00000000000E+00 -0.00000000000E+00 -0.16316490392E+03  0.16317108283E+03  0.14200000000E+01 0.  1.
         11    1    1    2    0    0  0.17991869094E+03  0.14145128296E+02  0.74525875250E+03  0.76679947065E+03  0.51100000000E-03 0.  1.
         22    1    1    2    0    0  0.28007917630E+02 -0.50789397192E+01  0.17154800580E+03  0.17389352309E+03  0.00000000000E+00 0.  1.
          4    1    1    2  501    0 -0.20792660857E+03 -0.90661885769E+01 -0.79613497994E+02  0.22283625331E+03  0.14200000000E+01 0.  1.
<mgrwt>
<rscale>  0 0.20812901E+03</rscale>
<asrwt>0</asrwt>
<pdfrwt beam="1">  1       11 0.10000000E+01 0.21063873E+03</pdfrwt>
<pdfrwt beam="2">  1        4 0.25111836E-01 0.20812901E+03</pdfrwt>
<totfact> 0.62862316E+01</totfact>
</mgrwt>
</event>
<event>
 5    1  0.1490736E-003  0.2106650E+03  0.7818608E-02  0.1152967E+00
         11   -1    0    0    0    0  0.00000000000E+00  0.00000000000E+00  0.10002661065E+04  0.10002661065E+04  0.51100000000E-03 0. -1.
         -4   -1    0    0    0  501 -0.00000000000E+00 -0.00000000000E+00 -0.27020611248E+03  0.27020984368E+03  0.14200000000E+01 0.  1.
         11    1    1    2    0    0  0.15008852355E+01 -0.90107107412E+02  0.45238786891E+03  0.46127684464E+03  0.51100000000E-03 0. -1.
         22    1    1    2    0    0 -0.78492540618E+02 -0.90372634738E+02  0.49914993924E+03  0.51330201040E+03  0.00000000000E+00 0. -1.
         -4    1    1    2    0  501  0.76991655383E+02  0.18047974215E+03 -0.22147781417E+03  0.29589709511E+03  0.14200000000E+01 0.  1.
<mgrwt>
<rscale>  0 0.19622097E+03</rscale>
<asrwt>0</asrwt>
<pdfrwt beam="1">  1       11 0.10000000E+01 0.21066501E+03</pdfrwt>
<pdfrwt beam="2">  1       -4 0.41581597E-01 0.19622097E+03</pdfrwt>
<totfact> 0.23704385E+01</totfact>
</mgrwt>
</event>
<event>
 5    1  0.1490736E-003  0.3912627E+03  0.7818608E-02  0.1049664E+00
         11   -1    0    0    0    0  0.00000000000E+00  0.00000000000E+00  0.10003999050E+04  0.10003999050E+04  0.51100000000E-03 0. -1.
         -4   -1    0    0    0  501 -0.00000000000E+00 -0.00000000000E+00 -0.49502008494E+03  0.49502212163E+03  0.14200000000E+01 0.  1.
         11    1    1    2    0    0  0.21692355505E+03 -0.30155417248E+03  0.81215310787E+03  0.89307525904E+03  0.51100000000E-03 0. -1.
         22    1    1    2    0    0  0.17566005677E+02 -0.18431586353E+01  0.65541197752E+02  0.67879381199E+02  0.00000000000E+00 0. -1.
         -4    1    1    2    0  501 -0.23448956073E+03  0.30339733112E+03 -0.37231448553E+03  0.53446738643E+03  0.14200000000E+01 0.  1.
<mgrwt>
<rscale>  0 0.38345444E+03</rscale>
<asrwt>0</asrwt>
<pdfrwt beam="1">  1       11 0.10000000E+01 0.39126273E+03</pdfrwt>
<pdfrwt beam="2">  1       -4 0.76187624E-01 0.38345444E+03</pdfrwt>
<totfact> 0.67969533E+00</totfact>
</mgrwt>
</event>
<event>
 5    1  0.1490736E-003  0.3925508E+02  0.7818608E-02  0.1513766E+00
         11   -1    0    0    0    0  0.00000000000E+00  0.00000000000E+00  0.10001065609E+04  0.10001065609E+04  0.51100000000E-03 0.  1.
          4   -1    0    0  501    0 -0.00000000000E+00 -0.00000000000E+00 -0.61485835185E+01  0.63104262363E+01  0.14200000000E+01 0.  1.
         11    1    1    2    0    0 -0.22708023113E+02 -0.11607521751E+02  0.54004826451E+02  0.59723614720E+02  0.51100000000E-03 0.  1.
         22    1    1    2    0    0  0.17156527479E+02  0.38499121981E+02  0.13856438802E+03  0.14483307100E+03  0.00000000000E+00 0. -1.
          4    1    1    2  501    0  0.55514956340E+01 -0.26891600230E+02  0.80138876290E+03  0.80186030141E+03  0.14200000000E+01 0.  1.
<mgrwt>
<rscale>  0 0.39255079E+02</rscale>
<asrwt>0</asrwt>
<pdfrwt beam="1">  1       11 0.10000000E+01 0.25502736E+02</pdfrwt>
<pdfrwt beam="2">  1        4 0.95856502E-03 0.39255079E+02</pdfrwt>
<totfact> 0.90514750E+03</totfact>
</mgrwt>
</event>
<event>
 5    1  0.1490736E-003  0.6311017E+02  0.7818608E-02  0.1391854E+00
         11   -1    0    0    0    0  0.00000000000E+00  0.00000000000E+00  0.10004938179E+04  0.10004938179E+04  0.51100000000E-03 0. -1.
         -4   -1    0    0    0  501 -0.00000000000E+00 -0.00000000000E+00 -0.43209585577E+01  0.45483054930E+01  0.14200000000E+01 0. -1.
         11    1    1    2    0    0  0.52558400169E+01 -0.37407835429E+02  0.20478902756E+03  0.20824388542E+03  0.51100000000E-03 0. -1.
         22    1    1    2    0    0 -0.78559368089E+01 -0.23968673062E+02  0.12081741321E+03  0.12342228472E+03  0.00000000000E+00 0. -1.
         -4    1    1    2    0  501  0.26000967921E+01  0.61376508491E+02  0.67056641858E+03  0.67337595326E+03  0.14200000000E+01 0. -1.
<mgrwt>
<rscale>  0 0.61447967E+02</rscale>
<asrwt>0</asrwt>
<pdfrwt beam="1">  1       11 0.10000000E+01 0.63110175E+02</pdfrwt>
<pdfrwt beam="2">  1       -4 0.68266552E-03 0.61447967E+02</pdfrwt>
<totfact> 0.16940152E+04</totfact>
</mgrwt>
</event>
<event>
 5    1  0.1490736E-003  0.1157606E+03  0.7818608E-02  0.1255903E+00
         11   -1    0    0    0    0  0.00000000000E+00  0.00000000000E+00  0.10002611549E+04  0.10002611549E+04  0.51100000000E-03 0.  1.
          4   -1    0    0  501    0 -0.00000000000E+00 -0.00000000000E+00 -0.13280425333E+02  0.13356125824E+02  0.14200000000E+01 0.  1.
         11    1    1    2    0    0 -0.57172791946E+02 -0.23880446288E+02  0.20370364297E+03  0.21291824255E+03  0.51100000000E-03 0.  1.
         22    1    1    2    0    0 -0.36583991052E+02 -0.38386995529E+02  0.22181719132E+03  0.22806756936E+03  0.00000000000E+00 0.  1.
          4    1    1    2  501    0  0.93756782998E+02  0.62267441817E+02  0.56145989532E+03  0.57263146885E+03  0.14200000000E+01 0.  1.
<mgrwt>
<rscale>  0 0.11255925E+03</rscale>
<asrwt>0</asrwt>
<pdfrwt beam="1">  1       11 0.10000000E+01 0.11576055E+03</pdfrwt>
<pdfrwt beam="2">  1        4 0.20495781E-02 0.11255925E+03</pdfrwt>
<totfact> 0.37525340E+03</totfact>
</mgrwt>
</event>
<event>
 5    1  0.1490736E-003  0.2018088E+03  0.7818608E-02  0.1152537E+00
         11   -1    0    0    0    0  0.00000000000E+00  0.00000000000E+00  0.99995948632E+03  0.99995948632E+03  0.51100000000E-03 0. -1.
          4   -1    0    0  501    0 -0.00000000000E+00 -0.00000000000E+00 -0.39696590089E+02  0.39721979617E+02  0.14200000000E+01 0. -1.
         11    1    1    2    0    0 -0.92873636727E+02  0.14837013709E+03  0.46488060563E+03  0.49674257666E+03  0.51100000000E-03 0. -1.
         22    1    1    2    0    0 -0.10606091424E+02  0.18926954494E+02  0.25140682010E+02  0.33208021224E+02  0.00000000000E+00 0. -1.
          4    1    1    2  501    0  0.10347972815E+03 -0.16729709158E+03  0.47024160859E+03  0.50973086805E+03  0.14200000000E+01 0. -1.
<mgrwt>
<rscale>  0 0.19671906E+03</rscale>
<asrwt>0</asrwt>
<pdfrwt beam="1">  1       11 0.10000000E+01 0.20180876E+03</pdfrwt>
<pdfrwt beam="2">  1        4 0.61089506E-02 0.19671906E+03</pdfrwt>
<totfact> 0.72774404E+02</totfact>
</mgrwt>
</event>
<event>
 5    1  0.1490736E-003  0.1024345E+03  0.7818608E-02  0.1275258E+00
         11   -1    0    0    0    0  0.00000000000E+00  0.00000000000E+00  0.10003675628E+04  0.10003675628E+04  0.51100000000E-03 0.  1.
          4   -1    0    0  501    0 -0.00000000000E+00 -0.00000000000E+00 -0.21877080837E+02  0.21923117159E+02  0.14200000000E+01 0.  1.
         11    1    1    2    0    0 -0.44933006093E+02 -0.84461435600E+02  0.15647445859E+03  0.18340383129E+03  0.51100000000E-03 0.  1.
         22    1    1    2    0    0  0.61590684685E+01 -0.38075029281E+02  0.21137520888E+03  0.21486535530E+03  0.00000000000E+00 0.  1.
          4    1    1    2  501    0  0.38773937624E+02  0.12253646488E+03  0.61064081451E+03  0.62402149339E+03  0.14200000000E+01 0.  1.
<mgrwt>
<rscale>  0 0.10243445E+03</rscale>
<asrwt>0</asrwt>
<pdfrwt beam="1">  1       11 0.10000000E+01 0.38569962E+02</pdfrwt>
<pdfrwt beam="2">  1        4 0.33705619E-02 0.10243445E+03</pdfrwt>
<totfact> 0.17052794E+03</totfact>
</mgrwt>
</event>
<event>
 5    1  0.1490736E-003  0.2133355E+03  0.7818608E-02  0.1138952E+00
         11   -1    0    0    0    0  0.00000000000E+00  0.00000000000E+00  0.10000602376E+04  0.10000602376E+04  0.51100000000E-03 0.  1.
          4   -1    0    0  501    0 -0.00000000000E+00 -0.00000000000E+00 -0.11954106016E+03  0.11954949378E+03  0.14200000000E+01 0.  1.
         11    1    1    2    0    0  0.18339228885E+03  0.58429206523E+02  0.78949755500E+03  0.81262112521E+03  0.51100000000E-03 0.  1.
         22    1    1    2    0    0  0.90140599230E+01  0.41159665129E+02  0.79560204937E+02  0.90028870478E+02  0.00000000000E+00 0.  1.
          4    1    1    2  501    0 -0.19240634877E+03 -0.99588871652E+02  0.11461417457E+02  0.21695973565E+03  0.14200000000E+01 0.  1.
<mgrwt>
<rscale>  0 0.21333546E+03</rscale>
<asrwt>0</asrwt>
<pdfrwt beam="1">  1       11 0.10000000E+01 0.42135155E+02</pdfrwt>
<pdfrwt beam="2">  1        4 0.18392766E-01 0.21333546E+03</pdfrwt>
<totfact> 0.11137745E+02</totfact>
</mgrwt>
</event>
<event>
 5    1  0.1490736E-003  0.7813630E+02  0.7818608E-02  0.1334425E+00
         11   -1    0    0    0    0  0.00000000000E+00  0.00000000000E+00  0.99995411076E+03  0.99995411076E+03  0.51100000000E-03 0. -1.
          4   -1    0    0  501    0 -0.00000000000E+00 -0.00000000000E+00 -0.87071948314E+01  0.88222243132E+01  0.14200000000E+01 0.  1.
         11    1    1    2    0    0  0.18965944355E+02  0.10540121208E+02  0.61101431336E+02  0.64839695496E+02  0.51100000000E-03 0. -1.
         22    1    1    2    0    0 -0.61249615963E+02  0.52591068071E+02  0.37333073215E+03  0.38195964638E+03  0.00000000000E+00 0. -1.
          4    1    1    2  501    0  0.42283671608E+02 -0.63131189278E+02  0.55681475244E+03  0.56197699319E+03  0.14200000000E+01 0.  1.
<mgrwt>
<rscale>  0 0.78136303E+02</rscale>
<asrwt>0</asrwt>
<pdfrwt beam="1">  1       11 0.10000000E+01 0.21697965E+02</pdfrwt>
<pdfrwt beam="2">  1        4 0.13484325E-02 0.78136303E+02</pdfrwt>
<totfact> 0.65607052E+03</totfact>
</mgrwt>
</event>
<event>
 5    1  0.1490736E-003  0.6464217E+02  0.7818608E-02  0.1386942E+00
         11   -1    0    0    0    0  0.00000000000E+00  0.00000000000E+00  0.10000273585E+04  0.10000273585E+04  0.51100000000E-03 0. -1.
          4   -1    0    0  501    0 -0.00000000000E+00 -0.00000000000E+00 -0.52941404316E+01  0.54812701913E+01  0.14200000000E+01 0. -1.
         11    1    1    2    0    0 -0.43949793214E+02 -0.69245545297E+01  0.16370142585E+03  0.16963988506E+03  0.51100000000E-03 0. -1.
         22    1    1    2    0    0 -0.15715902792E+02 -0.12206351807E+02  0.89128562258E+02  0.91322972111E+02  0.00000000000E+00 0.  1.
          4    1    1    2  501    0  0.59665696005E+02  0.19130906337E+02  0.74190322991E+03  0.74454577147E+03  0.14200000000E+01 0. -1.
<mgrwt>
<rscale>  0 0.62673784E+02</rscale>
<asrwt>0</asrwt>
<pdfrwt beam="1">  1       11 0.10000000E+01 0.64642168E+02</pdfrwt>
<pdfrwt beam="2">  1        4 0.82897795E-03 0.62673784E+02</pdfrwt>
<totfact> 0.12804616E+04</totfact>
</mgrwt>
</event>
<event>
 5    1  0.1490736E-003  0.1651105E+03  0.7818608E-02  0.1187535E+00
         11   -1    0    0    0    0  0.00000000000E+00  0.00000000000E+00  0.10003454162E+04  0.10003454162E+04  0.51100000000E-03 0.  1.
         -4   -1    0    0    0  501 -0.00000000000E+00 -0.00000000000E+00 -0.57420794133E+02  0.57438349548E+02  0.14200000000E+01 0. -1.
         11    1    1    2    0    0 -0.14600542102E+03 -0.16317016927E+02  0.75346175613E+03  0.76765125282E+03  0.51100000000E-03 0.  1.
         22    1    1    2    0    0 -0.14901142674E+02  0.10091289288E+02  0.10833142368E+03  0.10981609868E+03  0.00000000000E+00 0. -1.
         -4    1    1    2    0  501  0.16090656369E+03  0.62257276384E+01  0.81131442258E+02  0.18031641425E+03  0.14200000000E+01 0. -1.
<mgrwt>
<rscale>  0 0.16103322E+03</rscale>
<asrwt>0</asrwt>
<pdfrwt beam="1">  1       11 0.10000000E+01 0.16511047E+03</pdfrwt>
<pdfrwt beam="2">  1       -4 0.88384479E-02 0.16103322E+03</pdfrwt>
<totfact> 0.38477304E+02</totfact>
</mgrwt>
</event>
<event>
 5    1  0.1490736E-003  0.9563625E+02  0.7818608E-02  0.1522285E+00
         11   -1    0    0    0    0  0.00000000000E+00  0.00000000000E+00  0.10000469649E+04  0.10000469649E+04  0.51100000000E-03 0.  1.
          4   -1    0    0  501    0 -0.00000000000E+00 -0.00000000000E+00 -0.10699333252E+02  0.10793152090E+02  0.14200000000E+01 0.  1.
         11    1    1    2    0    0  0.93958912509E+02  0.22119127208E+02  0.44701082139E+03  0.45731412341E+03  0.51100000000E-03 0.  1.
         22    1    1    2    0    0 -0.57110750073E+01  0.14104120272E+02  0.66380020332E+02  0.68101759784E+02  0.00000000000E+00 0.  1.
          4    1    1    2  501    0 -0.88247837502E+02 -0.36223247480E+02  0.47595678995E+03  0.48542423382E+03  0.14200000000E+01 0.  1.
<mgrwt>
<rscale>  0 0.38149849E+02</rscale>
<asrwt>0</asrwt>
<pdfrwt beam="1">  1       11 0.10000000E+01 0.95636255E+02</pdfrwt>
<pdfrwt beam="2">  1        4 0.16534233E-02 0.38149849E+02</pdfrwt>
<totfact> 0.40217410E+03</totfact>
</mgrwt>
</event>
<event>
 5    1  0.1490736E-003  0.7186878E+02  0.7818608E-02  0.1353851E+00
         11   -1    0    0    0    0  0.00000000000E+00  0.00000000000E+00  0.10003003192E+04  0.10003003192E+04  0.51100000000E-03 0. -1.
          4   -1    0    0  501    0 -0.00000000000E+00 -0.00000000000E+00 -0.10499423706E+02  0.10595012891E+02  0.14200000000E+01 0. -1.
         11    1    1    2    0    0 -0.26909421040E+02  0.26686180073E+02  0.81160676687E+02  0.89573012610E+02  0.51100000000E-03 0. -1.
         22    1    1    2    0    0  0.22565705327E+02  0.60499303425E+02  0.35116144793E+03  0.35704865114E+03  0.00000000000E+00 0. -1.
          4    1    1    2  501    0  0.43437157128E+01 -0.87185483498E+02  0.55747877089E+03  0.56427366835E+03  0.14200000000E+01 0. -1.
<mgrwt>
<rscale>  0 0.71868776E+02</rscale>
<asrwt>0</asrwt>
<pdfrwt beam="1">  1       11 0.10000000E+01 0.37898161E+02</pdfrwt>
<pdfrwt beam="2">  1        4 0.16232138E-02 0.71868776E+02</pdfrwt>
<totfact> 0.48682518E+03</totfact>
</mgrwt>
</event>
<event>
 5    1  0.1490736E-003  0.3062644E+02  0.7818608E-02  0.1591266E+00
         11   -1    0    0    0    0  0.00000000000E+00  0.00000000000E+00  0.10003498302E+04  0.10003498302E+04  0.51100000000E-03 0. -1.
          4   -1    0    0  501    0 -0.00000000000E+00 -0.00000000000E+00 -0.71705771387E+01  0.73098273920E+01  0.14200000000E+01 0. -1.
         11    1    1    2    0    0 -0.20342918769E+02  0.18395156365E+02  0.30974050321E+02  0.41371583428E+02  0.51100000000E-03 0. -1.
         22    1    1    2    0    0  0.51511664752E+01  0.27677845875E+02  0.14903453342E+03  0.15167033269E+03  0.00000000000E+00 0. -1.
          4    1    1    2  501    0  0.15191752294E+02 -0.46073002240E+02  0.81317066936E+03  0.81461774150E+03  0.14200000000E+01 0. -1.
<mgrwt>
<rscale>  0 0.30626443E+02</rscale>
<asrwt>0</asrwt>
<pdfrwt beam="1">  1       11 0.10000000E+01 0.27426572E+02</pdfrwt>
<pdfrwt beam="2">  1        4 0.11143445E-02 0.30626443E+02</pdfrwt>
<totfact> 0.67117864E+03</totfact>
</mgrwt>
</event>
<event>
 5    1  0.1490736E-003  0.1500871E+03  0.7818608E-02  0.1205718E+00
         11   -1    0    0    0    0  0.00000000000E+00  0.00000000000E+00  0.10002163483E+04  0.10002163483E+04  0.51100000000E-03 0. -1.
         -4   -1    0    0    0  501 -0.00000000000E+00 -0.00000000000E+00 -0.23583376891E+02  0.23626088665E+02  0.14200000000E+01 0. -1.
         11    1    1    2    0    0  0.24853496925E+01 -0.13134394087E+03  0.55796137526E+03  0.57321750152E+03  0.51100000000E-03 0. -1.
         22    1    1    2    0    0 -0.12239661931E+02 -0.14132346883E+02  0.75120643557E+02  0.77412167268E+02  0.00000000000E+00 0.  1.
         -4    1    1    2    0  501  0.97543122382E+01  0.14547628775E+03  0.34355095259E+03  0.37321276818E+03  0.14200000000E+01 0. -1.
<mgrwt>
<rscale>  0 0.14580985E+03</rscale>
<asrwt>0</asrwt>
<pdfrwt beam="1">  1       11 0.10000000E+01 0.15008705E+03</pdfrwt>
<pdfrwt beam="2">  1       -4 0.36323605E-02 0.14580985E+03</pdfrwt>
<totfact> 0.16095742E+03</totfact>
</mgrwt>
</event>
<event>
 5    1  0.1490736E-003  0.2456606E+03  0.7818608E-02  0.1122210E+00
         11   -1    0    0    0    0  0.00000000000E+00  0.00000000000E+00  0.10001926393E+04  0.10001926393E+04  0.51100000000E-03 0.  1.
         -4   -1    0    0    0  501 -0.00000000000E+00 -0.00000000000E+00 -0.15612318754E+03  0.15612964513E+03  0.14200000000E+01 0. -1.
         11    1    1    2    0    0 -0.12740675330E+03 -0.41864409677E+02  0.61951818538E+03  0.63386740853E+03  0.51100000000E-03 0.  1.
         22    1    1    2    0    0 -0.98867688651E+02 -0.26591008688E+02  0.26365520931E+03  0.28283559005E+03  0.00000000000E+00 0.  1.
         -4    1    1    2    0  501  0.22627444195E+03  0.68455418364E+02 -0.39103942954E+02  0.23961928582E+03  0.14200000000E+01 0. -1.
<mgrwt>
<rscale>  0 0.23640703E+03</rscale>
<asrwt>0</asrwt>
<pdfrwt beam="1">  1       11 0.10000000E+01 0.24566062E+03</pdfrwt>
<pdfrwt beam="2">  1       -4 0.24024153E-01 0.23640703E+03</pdfrwt>
<totfact> 0.68951685E+01</totfact>
</mgrwt>
</event>
<event>
 5    1  0.1490736E-003  0.1474620E+03  0.7818608E-02  0.1208743E+00
         11   -1    0    0    0    0  0.00000000000E+00  0.00000000000E+00  0.10002594402E+04  0.10002594402E+04  0.51100000000E-03 0. -1.
         -4   -1    0    0    0  501 -0.00000000000E+00 -0.00000000000E+00 -0.22804624625E+02  0.22848792184E+02  0.14200000000E+01 0.  1.
         11    1    1    2    0    0 -0.18879107077E+02  0.23896288809E+02  0.14869107658E+03  0.15177776372E+03  0.51100000000E-03 0. -1.
         22    1    1    2    0    0 -0.10984505535E+03  0.39427608078E+02  0.48474737912E+03  0.49859852991E+03  0.00000000000E+00 0. -1.
         -4    1    1    2    0  501  0.12872416243E+03 -0.63323896887E+02  0.34401635983E+03  0.37273193871E+03  0.14200000000E+01 0.  1.
<mgrwt>
<rscale>  0 0.14346373E+03</rscale>
<asrwt>0</asrwt>
<pdfrwt beam="1">  1       11 0.10000000E+01 0.14746202E+03</pdfrwt>
<pdfrwt beam="2">  1       -4 0.35127898E-02 0.14346373E+03</pdfrwt>
<totfact> 0.16926644E+03</totfact>
</mgrwt>
</event>
<event>
 5    1  0.1490736E-003  0.1036322E+03  0.7818608E-02  0.1372593E+00
         11   -1    0    0    0    0  0.00000000000E+00  0.00000000000E+00  0.10001862171E+04  0.10001862171E+04  0.51100000000E-03 0.  1.
          4   -1    0    0  501    0 -0.00000000000E+00 -0.00000000000E+00 -0.17190343399E+02  0.17248892897E+02  0.14200000000E+01 0.  1.
         11    1    1    2    0    0  0.76883971439E+02  0.66386966001E+02  0.49383140847E+03  0.50417044173E+03  0.51100000000E-03 0.  1.
         22    1    1    2    0    0  0.29205722715E+02 -0.31021250942E+02  0.11048668176E+03  0.11841705576E+03  0.00000000000E+00 0.  1.
          4    1    1    2  501    0 -0.10608969415E+03 -0.35365715059E+02  0.37867778346E+03  0.39484761250E+03  0.14200000000E+01 0.  1.
<mgrwt>
<rscale>  0 0.66451440E+02</rscale>
<asrwt>0</asrwt>
<pdfrwt beam="1">  1       11 0.10000000E+01 0.10363221E+03</pdfrwt>
<pdfrwt beam="2">  1        4 0.26497428E-02 0.66451440E+02</pdfrwt>
<totfact> 0.22711206E+03</totfact>
</mgrwt>
</event>
<event>
 5    1  0.1490736E-003  0.1315019E+03  0.7818608E-02  0.1434577E+00
         11   -1    0    0    0    0  0.00000000000E+00  0.00000000000E+00  0.99987995617E+03  0.99987995617E+03  0.51100000000E-03 0. -1.
          4   -1    0    0  501    0 -0.00000000000E+00 -0.00000000000E+00 -0.21157578599E+02  0.21205177014E+02  0.14200000000E+01 0. -1.
         11    1    1    2    0    0 -0.88178267258E+02 -0.91214084058E+02  0.33754216936E+03  0.36059691075E+03  0.51100000000E-03 0. -1.
         22    1    1    2    0    0  0.92246289480E+01 -0.18421973323E+02  0.50277731551E+02  0.54335192742E+02  0.00000000000E+00 0. -1.
          4    1    1    2  501    0  0.78953638310E+02  0.10963605738E+03  0.59090247666E+03  0.60615302969E+03  0.14200000000E+01 0. -1.
<mgrwt>
<rscale>  0 0.52052129E+02</rscale>
<asrwt>0</asrwt>
<pdfrwt beam="1">  1       11 0.10000000E+01 0.13150190E+03</pdfrwt>
<pdfrwt beam="2">  1        4 0.32583598E-02 0.52052129E+02</pdfrwt>
<totfact> 0.15653289E+03</totfact>
</mgrwt>
</event>
<event>
 5    1  0.1490736E-003  0.1008436E+03  0.7818608E-02  0.1572500E+00
         11   -1    0    0    0    0  0.00000000000E+00  0.00000000000E+00  0.99988813080E+03  0.99988813080E+03  0.51100000000E-03 0.  1.
          4   -1    0    0  501    0 -0.00000000000E+00 -0.00000000000E+00 -0.11401466092E+02  0.11489553040E+02  0.14200000000E+01 0.  1.
         11    1    1    2    0    0 -0.75632473520E+02 -0.61875636751E+02  0.45058190887E+03  0.46105631118E+03  0.51100000000E-03 0.  1.
         22    1    1    2    0    0  0.65702870601E+00 -0.10419306022E+02  0.27925075357E+02  0.29812806952E+02  0.00000000000E+00 0.  1.
          4    1    1    2  501    0  0.74975444814E+02  0.72294942773E+02  0.50997968048E+03  0.52050856571E+03  0.14200000000E+01 0.  1.
<mgrwt>
<rscale>  0 0.32448605E+02</rscale>
<asrwt>0</asrwt>
<pdfrwt beam="1">  1       11 0.10000000E+01 0.10084363E+03</pdfrwt>
<pdfrwt beam="2">  1        4 0.17607281E-02 0.32448605E+02</pdfrwt>
<totfact> 0.34918414E+03</totfact>
</mgrwt>
</event>
<event>
 5    1  0.1490736E-003  0.3180737E+03  0.7818608E-02  0.1086770E+00
         11   -1    0    0    0    0  0.00000000000E+00  0.00000000000E+00  0.10000848747E+04  0.10000848747E+04  0.51100000000E-03 0. -1.
         -4   -1    0    0    0  501 -0.00000000000E+00 -0.00000000000E+00 -0.18169311927E+03  0.18169866810E+03  0.14200000000E+01 0.  1.
         11    1    1    2    0    0  0.20006800804E+03  0.60703130817E+02  0.46706100376E+03  0.51172068471E+03  0.51100000000E-03 0. -1.
         22    1    1    2    0    0  0.59049778597E+02  0.84354683439E+02  0.35852125810E+03  0.37301485423E+03  0.00000000000E+00 0. -1.
         -4    1    1    2    0  501 -0.25911778663E+03 -0.14505781426E+03 -0.71905064030E+01  0.29704800388E+03  0.14200000000E+01 0.  1.
<mgrwt>
<rscale>  0 0.29696096E+03</rscale>
<asrwt>0</asrwt>
<pdfrwt beam="1">  1       11 0.10000000E+01 0.31807374E+03</pdfrwt>
<pdfrwt beam="2">  1       -4 0.27955664E-01 0.29696096E+03</pdfrwt>
<totfact> 0.52715016E+01</totfact>
</mgrwt>
</event>
<event>
 5    1  0.1490736E-003  0.1428676E+03  0.7818608E-02  0.1334133E+00
         11   -1    0    0    0    0  0.00000000000E+00  0.00000000000E+00  0.10001931368E+04  0.10001931368E+04  0.51100000000E-03 0. -1.
          4   -1    0    0  501    0 -0.00000000000E+00 -0.00000000000E+00 -0.33498034660E+02  0.33528118439E+02  0.14200000000E+01 0. -1.
         11    1    1    2    0    0 -0.12766139488E+03  0.16274829697E+01  0.17525684229E+03  0.21682952109E+03  0.51100000000E-03 0. -1.
         22    1    1    2    0    0 -0.17546123307E+02 -0.39082849958E+02  0.91013315476E+02  0.10059204341E+03  0.00000000000E+00 0. -1.
          4    1    1    2  501    0  0.14520751819E+03  0.37455366989E+02  0.70042494437E+03  0.71629969073E+03  0.14200000000E+01 0. -1.
<mgrwt>
<rscale>  0 0.78235953E+02</rscale>
<asrwt>0</asrwt>
<pdfrwt beam="1">  1       11 0.10000000E+01 0.14286761E+03</pdfrwt>
<pdfrwt beam="2">  1        4 0.51569311E-02 0.78235953E+02</pdfrwt>
<totfact> 0.83023542E+02</totfact>
</mgrwt>
</event>
<event>
 5    1  0.1490736E-003  0.7577761E+02  0.7818608E-02  0.1348636E+00
         11   -1    0    0    0    0  0.00000000000E+00  0.00000000000E+00  0.99989946715E+03  0.99989946715E+03  0.51100000000E-03 0. -1.
          4   -1    0    0  501    0 -0.00000000000E+00 -0.00000000000E+00 -0.62161791233E+01  0.63763063676E+01  0.14200000000E+01 0. -1.
         11    1    1    2    0    0  0.10639498374E+02 -0.64819657606E+02  0.29366666243E+03  0.30092340481E+03  0.51100000000E-03 0. -1.
         22    1    1    2    0    0 -0.53586986112E+01 -0.84591423567E+01  0.39044599954E+02  0.40308231489E+02  0.00000000000E+00 0. -1.
          4    1    1    2  501    0 -0.52807997624E+01  0.73278799963E+02  0.66097202564E+03  0.66504413722E+03  0.14200000000E+01 0. -1.
<mgrwt>
<rscale>  0 0.73482554E+02</rscale>
<asrwt>0</asrwt>
<pdfrwt beam="1">  1       11 0.10000000E+01 0.75777605E+02</pdfrwt>
<pdfrwt beam="2">  1        4 0.96863287E-03 0.73482554E+02</pdfrwt>
<totfact> 0.10594264E+04</totfact>
</mgrwt>
</event>
<event>
 5    1  0.1490736E-003  0.1894409E+03  0.7818608E-02  0.1161861E+00
         11   -1    0    0    0    0  0.00000000000E+00  0.00000000000E+00  0.99982533144E+03  0.99982533144E+03  0.51100000000E-03 0. -1.
         -4   -1    0    0    0  501 -0.00000000000E+00 -0.00000000000E+00 -0.32213957385E+03  0.32214270353E+03  0.14200000000E+01 0. -1.
         11    1    1    2    0    0  0.44131305030E+02 -0.15253709945E+03  0.86986203711E+03  0.88423701709E+03  0.51100000000E-03 0. -1.
         22    1    1    2    0    0  0.12405138441E+02 -0.24949770545E+02  0.93011971319E+02  0.97095856341E+02  0.00000000000E+00 0. -1.
         -4    1    1    2    0  501 -0.56536443471E+02  0.17748686999E+03 -0.28518825084E+03  0.34063516154E+03  0.14200000000E+01 0. -1.
<mgrwt>
<rscale>  0 0.18627929E+03</rscale>
<asrwt>0</asrwt>
<pdfrwt beam="1">  1       11 0.10000000E+01 0.18944089E+03</pdfrwt>
<pdfrwt beam="2">  1       -4 0.49551595E-01 0.18627929E+03</pdfrwt>
<totfact> 0.16580569E+01</totfact>
</mgrwt>
</event>
<event>
 5    1  0.1490736E-003  0.2578763E+03  0.7818608E-02  0.1108426E+00
         11   -1    0    0    0    0  0.00000000000E+00  0.00000000000E+00  0.10001498316E+04  0.10001498316E+04  0.51100000000E-03 0. -1.
         -4   -1    0    0    0  501 -0.00000000000E+00 -0.00000000000E+00 -0.29510114437E+03  0.29510456081E+03  0.14200000000E+01 0.  1.
         11    1    1    2    0    0  0.20960881277E+03  0.32133101430E+02  0.55604596904E+03  0.59510966240E+03  0.51100000000E-03 0. -1.
         22    1    1    2    0    0  0.38960622004E+02  0.54698980634E+02  0.35783366442E+03  0.36408081512E+03  0.00000000000E+00 0.  1.
         -4    1    1    2    0  501 -0.24856943477E+03 -0.86832082065E+02 -0.20883094623E+03  0.33606391488E+03  0.14200000000E+01 0.  1.
<mgrwt>
<rscale>  0 0.25787632E+03</rscale>
<asrwt>0</asrwt>
<pdfrwt beam="1">  1       11 0.10000000E+01 0.67155853E+02</pdfrwt>
<pdfrwt beam="2">  1       -4 0.45407318E-01 0.25787632E+03</pdfrwt>
<totfact> 0.20166834E+01</totfact>
</mgrwt>
</event>
<event>
 5    1  0.1490736E-003  0.7330270E+02  0.7818608E-02  0.1520422E+00
         11   -1    0    0    0    0  0.00000000000E+00  0.00000000000E+00  0.10001191856E+04  0.10001191856E+04  0.51100000000E-03 0. -1.
          4   -1    0    0  501    0 -0.00000000000E+00 -0.00000000000E+00 -0.16721303629E+02  0.16781489655E+02  0.14200000000E+01 0. -1.
         11    1    1    2    0    0 -0.52525277608E+01  0.74795414375E+02  0.10740554194E+03  0.13098814259E+03  0.51100000000E-03 0. -1.
         22    1    1    2    0    0 -0.19297393154E+02 -0.56215978552E+01  0.26532322691E+02  0.33285971405E+02  0.00000000000E+00 0. -1.
          4    1    1    2  501    0  0.24549920914E+02 -0.69173816520E+02  0.84946001732E+03  0.85262656124E+03  0.14200000000E+01 0. -1.
<mgrwt>
<rscale>  0 0.38387845E+02</rscale>
<asrwt>0</asrwt>
<pdfrwt beam="1">  1       11 0.10000000E+01 0.73302699E+02</pdfrwt>
<pdfrwt beam="2">  1        4 0.25775226E-02 0.38387845E+02</pdfrwt>
<totfact> 0.20731564E+03</totfact>
</mgrwt>
</event>
<event>
 5    1  0.1490736E-003  0.6577102E+02  0.7818608E-02  0.1632094E+00
         11   -1    0    0    0    0  0.00000000000E+00  0.00000000000E+00  0.10002747667E+04  0.10002747667E+04  0.51100000000E-03 0.  1.
          4   -1    0    0  501    0 -0.00000000000E+00 -0.00000000000E+00 -0.17935901686E+02  0.17992025159E+02  0.14200000000E+01 0.  1.
         11    1    1    2    0    0 -0.54651923949E+02 -0.39318705944E+02  0.61618029360E+02  0.91266505197E+02  0.51100000000E-03 0.  1.
         22    1    1    2    0    0  0.84157428669E+01 -0.73796242583E+01  0.14113053312E+02  0.18012824764E+02  0.00000000000E+00 0.  1.
          4    1    1    2  501    0  0.46236181082E+02  0.46698330202E+02  0.90660778236E+03  0.90898746191E+03  0.14200000000E+01 0.  1.
<mgrwt>
<rscale>  0 0.27135717E+02</rscale>
<asrwt>0</asrwt>
<pdfrwt beam="1">  1       11 0.10000000E+01 0.65771015E+02</pdfrwt>
<pdfrwt beam="2">  1        4 0.27645235E-02 0.27135717E+02</pdfrwt>
<totfact> 0.16885955E+03</totfact>
</mgrwt>
</event>
<event>
 5    1  0.1490736E-003  0.7795279E+02  0.7818608E-02  0.1340348E+00
         11   -1    0    0    0    0  0.00000000000E+00  0.00000000000E+00  0.10004369354E+04  0.10004369354E+04  0.51100000000E-03 0. -1.
          4   -1    0    0  501    0 -0.00000000000E+00 -0.00000000000E+00 -0.82836006914E+01  0.84044298090E+01  0.14200000000E+01 0. -1.
         11    1    1    2    0    0  0.27932935655E+02  0.50572641940E+02  0.17063488484E+03  0.18015022878E+03  0.51100000000E-03 0. -1.
         22    1    1    2    0    0  0.16971118417E+02  0.10911837954E+02  0.58487920702E+02  0.61870218489E+02  0.00000000000E+00 0.  1.
          4    1    1    2  501    0 -0.44904054072E+02 -0.61484479894E+02  0.76303052917E+03  0.76682091794E+03  0.14200000000E+01 0. -1.
<mgrwt>
<rscale>  0 0.76149404E+02</rscale>
<asrwt>0</asrwt>
<pdfrwt beam="1">  1       11 0.10000000E+01 0.77952786E+02</pdfrwt>
<pdfrwt beam="2">  1        4 0.12843331E-02 0.76149404E+02</pdfrwt>
<totfact> 0.70159839E+03</totfact>
</mgrwt>
</event>
<event>
 5    1  0.1490736E-003  0.1687824E+03  0.7818608E-02  0.1181622E+00
         11   -1    0    0    0    0  0.00000000000E+00  0.00000000000E+00  0.10000641977E+04  0.10000641977E+04  0.51100000000E-03 0.  1.
          4   -1    0    0  501    0 -0.00000000000E+00 -0.00000000000E+00 -0.51906556379E+02  0.51925976112E+02  0.14200000000E+01 0.  1.
         11    1    1    2    0    0 -0.84079528386E+02 -0.11035635578E+03  0.71950633976E+03  0.73276003255E+03  0.51100000000E-03 0.  1.
         22    1    1    2    0    0 -0.24328507053E+02 -0.15917037683E+02  0.11270204069E+03  0.11639148731E+03  0.00000000000E+00 0.  1.
          4    1    1    2  501    0  0.10840803544E+03  0.12627339346E+03  0.11594926092E+03  0.20283865399E+03  0.14200000000E+01 0.  1.
<mgrwt>
<rscale>  0 0.16643103E+03</rscale>
<asrwt>0</asrwt>
<pdfrwt beam="1">  1       11 0.10000000E+01 0.16878245E+03</pdfrwt>
<pdfrwt beam="2">  1        4 0.79877080E-02 0.16643103E+03</pdfrwt>
<totfact> 0.45745163E+02</totfact>
</mgrwt>
</event>
<event>
 5    1  0.1490736E-003  0.1817911E+03  0.7818608E-02  0.1166081E+00
         11   -1    0    0    0    0  0.00000000000E+00  0.00000000000E+00  0.10002317028E+04  0.10002317028E+04  0.51100000000E-03 0.  1.
          4   -1    0    0  501    0 -0.00000000000E+00 -0.00000000000E+00 -0.58423174836E+02  0.58440429138E+02  0.14200000000E+01 0.  1.
         11    1    1    2    0    0  0.13373772259E+03  0.14019513400E+03  0.72937967723E+03  0.75467553797E+03  0.51100000000E-03 0.  1.
         22    1    1    2    0    0 -0.24940452292E+01 -0.18525553990E+02  0.77877098590E+02  0.80089068524E+02  0.00000000000E+00 0.  1.
          4    1    1    2  501    0 -0.13124367736E+03 -0.12166958001E+03  0.13455175214E+03  0.22390752545E+03  0.14200000000E+01 0.  1.
<mgrwt>
<rscale>  0 0.18179106E+03</rscale>
<asrwt>0</asrwt>
<pdfrwt beam="1">  1       11 0.10000000E+01 0.18692683E+02</pdfrwt>
<pdfrwt beam="2">  1        4 0.89916682E-02 0.18179106E+03</pdfrwt>
<totfact> 0.37940467E+02</totfact>
</mgrwt>
</event>
<event>
 5    1  0.1490736E-003  0.1238360E+03  0.7818608E-02  0.1241998E+00
         11   -1    0    0    0    0  0.00000000000E+00  0.00000000000E+00  0.10000753536E+04  0.10000753536E+04  0.51100000000E-03 0. -1.
          4   -1    0    0  501    0 -0.00000000000E+00 -0.00000000000E+00 -0.15002004254E+02  0.15069058750E+02  0.14200000000E+01 0. -1.
         11    1    1    2    0    0 -0.58366416105E+02  0.34170719660E+02  0.20331819435E+03  0.21427217450E+03  0.51100000000E-03 0. -1.
         22    1    1    2    0    0 -0.43946412400E+02  0.29789940827E+02  0.25596020249E+03  0.26140840269E+03  0.00000000000E+00 0. -1.
          4    1    1    2  501    0  0.10231282851E+03 -0.63960660488E+02  0.52579495251E+03  0.53946383517E+03  0.14200000000E+01 0. -1.
<mgrwt>
<rscale>  0 0.12066854E+03</rscale>
<asrwt>0</asrwt>
<pdfrwt beam="1">  1       11 0.10000000E+01 0.12383604E+03</pdfrwt>
<pdfrwt beam="2">  1        4 0.23134105E-02 0.12066854E+03</pdfrwt>
<totfact> 0.31547519E+03</totfact>
</mgrwt>
</event>
<event>
 5    1  0.1490736E-003  0.1299891E+03  0.7818608E-02  0.1450546E+00
         11   -1    0    0    0    0  0.00000000000E+00  0.00000000000E+00  0.10001939577E+04  0.10001939577E+04  0.51100000000E-03 0. -1.
         -4   -1    0    0    0  501 -0.00000000000E+00 -0.00000000000E+00 -0.23104970610E+02  0.23148565115E+02  0.14200000000E+01 0.  1.
         11    1    1    2    0    0 -0.56906246684E+02 -0.11184304385E+03  0.61601501580E+03  0.62866659451E+03  0.51100000000E-03 0. -1.
         22    1    1    2    0    0 -0.16666804958E+02 -0.80422876290E+01  0.36221145029E+02  0.40674711124E+02  0.00000000000E+00 0. -1.
         -4    1    1    2    0  501  0.73573051641E+02  0.11988533148E+03  0.32485282626E+03  0.35400121717E+03  0.14200000000E+01 0.  1.
<mgrwt>
<rscale>  0 0.49047763E+02</rscale>
<asrwt>0</asrwt>
<pdfrwt beam="1">  1       11 0.10000000E+01 0.12998914E+03</pdfrwt>
<pdfrwt beam="2">  1       -4 0.35587318E-02 0.49047763E+02</pdfrwt>
<totfact> 0.13477971E+03</totfact>
</mgrwt>
</event>
<event>
 5    1  0.1490736E-003  0.1965349E+03  0.7818608E-02  0.1156012E+00
         11   -1    0    0    0    0  0.00000000000E+00  0.00000000000E+00  0.10001705243E+04  0.10001705243E+04  0.51100000000E-03 0.  1.
          4   -1    0    0  501    0 -0.00000000000E+00 -0.00000000000E+00 -0.10742315853E+03  0.10743254344E+03  0.14200000000E+01 0.  1.
         11    1    1    2    0    0  0.15478189496E+03 -0.34232853604E+02  0.78698549859E+03  0.80279231328E+03  0.51100000000E-03 0.  1.
         22    1    1    2    0    0  0.31708192542E+02 -0.14434332814E+02  0.10651552454E+03  0.11206835595E+03  0.00000000000E+00 0.  1.
          4    1    1    2  501    0 -0.18649008750E+03  0.48667186417E+02 -0.75365739113E+00  0.19274239847E+03  0.14200000000E+01 0.  1.
<mgrwt>
<rscale>  0 0.19274093E+03</rscale>
<asrwt>0</asrwt>
<pdfrwt beam="1">  1       11 0.10000000E+01 0.19653490E+03</pdfrwt>
<pdfrwt beam="2">  1        4 0.16530257E-01 0.19274093E+03</pdfrwt>
<totfact> 0.13352861E+02</totfact>
</mgrwt>
</event>
<event>
 5    1  0.1490736E-003  0.7314878E+02  0.7818608E-02  0.1349701E+00
         11   -1    0    0    0    0  0.00000000000E+00  0.00000000000E+00  0.10002330188E+04  0.10002330188E+04  0.51100000000E-03 0. -1.
          4   -1    0    0  501    0 -0.00000000000E+00 -0.00000000000E+00 -0.88835217300E+01  0.89962969230E+01  0.14200000000E+01 0. -1.
         11    1    1    2    0    0  0.34380184769E+02  0.89837331828E+01  0.19715933533E+03  0.20033598797E+03  0.51100000000E-03 0. -1.
         22    1    1    2    0    0 -0.92756844872E+02  0.68673935733E+01  0.47694339678E+03  0.48592797522E+03  0.00000000000E+00 0. -1.
          4    1    1    2  501    0  0.58376660103E+02 -0.15851126756E+02  0.31724676497E+03  0.32296535255E+03  0.14200000000E+01 0. -1.
<mgrwt>
<rscale>  0 0.73148777E+02</rscale>
<asrwt>0</asrwt>
<pdfrwt beam="1">  1       11 0.10000000E+01 0.35534555E+02</pdfrwt>
<pdfrwt beam="2">  1        4 0.13757687E-02 0.73148777E+02</pdfrwt>
<totfact> 0.62689940E+03</totfact>
</mgrwt>
</event>
<event>
 5    1  0.1490736E-003  0.1532805E+03  0.7818608E-02  0.1197897E+00
         11   -1    0    0    0    0  0.00000000000E+00  0.00000000000E+00  0.10001779417E+04  0.10001779417E+04  0.51100000000E-03 0.  1.
         -4   -1    0    0    0  501 -0.00000000000E+00 -0.00000000000E+00 -0.23993180985E+02  0.24035164526E+02  0.14200000000E+01 0. -1.
         11    1    1    2    0    0 -0.21941170657E+02 -0.13648929689E+03  0.35651254403E+03  0.38237669540E+03  0.51100000000E-03 0.  1.
         22    1    1    2    0    0  0.33057343152E+01 -0.14473739953E+02  0.45821684312E+02  0.48166832787E+02  0.00000000000E+00 0.  1.
         -4    1    1    2    0  501  0.18635436342E+02  0.15096303685E+03  0.57385053238E+03  0.59366957805E+03  0.14200000000E+01 0. -1.
<mgrwt>
<rscale>  0 0.15211553E+03</rscale>
<asrwt>0</asrwt>
<pdfrwt beam="1">  1       11 0.10000000E+01 0.15328046E+03</pdfrwt>
<pdfrwt beam="2">  1       -4 0.36952230E-02 0.15211553E+03</pdfrwt>
<totfact> 0.15769688E+03</totfact>
</mgrwt>
</event>
<event>
 5    1  0.1490736E-003  0.1421930E+03  0.7818608E-02  0.1214673E+00
         11   -1    0    0    0    0  0.00000000000E+00  0.00000000000E+00  0.10000364629E+04  0.10000364629E+04  0.51100000000E-03 0.  1.
         -4   -1    0    0    0  501 -0.00000000000E+00 -0.00000000000E+00 -0.21460890588E+02  0.21507817761E+02  0.14200000000E+01 0. -1.
         11    1    1    2    0    0  0.46864397234E+00 -0.13880927064E+02  0.54133737366E+02  0.55887040401E+02  0.51100000000E-03 0.  1.
         22    1    1    2    0    0  0.86616472692E+02 -0.94455357548E+02  0.58465793386E+03  0.59853916124E+03  0.00000000000E+00 0.  1.
         -4    1    1    2    0  501 -0.87085116665E+02  0.10833628461E+03  0.33978390111E+03  0.36711807904E+03  0.14200000000E+01 0. -1.
<mgrwt>
<rscale>  0 0.13900570E+03</rscale>
<asrwt>0</asrwt>
<pdfrwt beam="1">  1       11 0.10000000E+01 0.14219302E+03</pdfrwt>
<pdfrwt beam="2">  1       -4 0.33054832E-02 0.13900570E+03</pdfrwt>
<totfact> 0.18535608E+03</totfact>
</mgrwt>
</event>
<event>
 5    1  0.1739452E-003  0.1631917E+03  0.7818608E-02  0.1186264E+00
         11   -1    0    0    0    0  0.00000000000E+00  0.00000000000E+00  0.10000821610E+04  0.10000821610E+04  0.51100000000E-03 0. -1.
          4   -1    0    0  501    0 -0.00000000000E+00 -0.00000000000E+00 -0.36237454288E+02  0.36265265659E+02  0.14200000000E+01 0. -1.
         11    1    1    2    0    0  0.24360716453E+02 -0.14888623417E+03  0.70470909242E+03  0.72067708454E+03  0.51100000000E-03 0. -1.
         22    1    1    2    0    0 -0.27712476630E+01 -0.11837866376E+02  0.47568606516E+02  0.49097731310E+02  0.00000000000E+00 0.  1.
          4    1    1    2  501    0 -0.21589468790E+02  0.16072410055E+03  0.21156700780E+03  0.26657261084E+03  0.14200000000E+01 0. -1.
<mgrwt>
<rscale>  0 0.16217385E+03</rscale>
<asrwt>0</asrwt>
<pdfrwt beam="1">  1       11 0.10000000E+01 0.16319170E+03</pdfrwt>
<pdfrwt beam="2">  1        4 0.55776679E-02 0.16217385E+03</pdfrwt>
<totfact> 0.82249687E+02</totfact>
</mgrwt>
</event>
<event>
 5    1  0.1490736E-003  0.8814607E+02  0.7818608E-02  0.1576810E+00
         11   -1    0    0    0    0  0.00000000000E+00  0.00000000000E+00  0.10003029241E+04  0.10003029241E+04  0.51100000000E-03 0.  1.
         -4   -1    0    0    0  501 -0.00000000000E+00 -0.00000000000E+00 -0.90987417970E+01  0.92088817067E+01  0.14200000000E+01 0.  1.
         11    1    1    2    0    0 -0.48640413878E+02 -0.70043754165E+02  0.48595952934E+03  0.49338492227E+03  0.51100000000E-03 0.  1.
         22    1    1    2    0    0  0.47304431887E+01 -0.10621939143E+02  0.31916109761E+02  0.33968231426E+02  0.00000000000E+00 0.  1.
         -4    1    1    2    0  501  0.43909970689E+02  0.80665693308E+02  0.47332854322E+03  0.48215865213E+03  0.14200000000E+01 0.  1.
<mgrwt>
<rscale>  0 0.32016656E+02</rscale>
<asrwt>0</asrwt>
<pdfrwt beam="1">  1       11 0.10000000E+01 0.88146067E+02</pdfrwt>
<pdfrwt beam="2">  1       -4 0.14087828E-02 0.32016656E+02</pdfrwt>
<totfact> 0.48315905E+03</totfact>
</mgrwt>
</event>
<event>
 5    1  0.1490736E-003  0.5508440E+02  0.7818608E-02  0.1419700E+00
         11   -1    0    0    0    0  0.00000000000E+00  0.00000000000E+00  0.10004117183E+04  0.10004117183E+04  0.51100000000E-03 0. -1.
          4   -1    0    0  501    0 -0.00000000000E+00 -0.00000000000E+00 -0.86774659936E+01  0.87928843999E+01  0.14200000000E+01 0. -1.
         11    1    1    2    0    0  0.22017980428E+01 -0.25567610939E+02  0.38270743651E+02  0.46078199439E+02  0.51100000000E-03 0. -1.
         22    1    1    2    0    0  0.24033674887E+02 -0.43775186884E+02  0.20485036333E+03  0.21084960487E+03  0.00000000000E+00 0. -1.
          4    1    1    2  501    0 -0.26235472930E+02  0.69342797823E+02  0.74861314528E+03  0.75227679835E+03  0.14200000000E+01 0. -1.
<mgrwt>
<rscale>  0 0.55084402E+02</rscale>
<asrwt>0</asrwt>
<pdfrwt beam="1">  1       11 0.10000000E+01 0.25662254E+02</pdfrwt>
<pdfrwt beam="2">  1        4 0.13445039E-02 0.55084402E+02</pdfrwt>
<totfact> 0.60484882E+03</totfact>
</mgrwt>
</event>
<event>
 5    1  0.1490736E-003  0.1988170E+03  0.7818608E-02  0.1160132E+00
         11   -1    0    0    0    0  0.00000000000E+00  0.00000000000E+00  0.10003851205E+04  0.10003851205E+04  0.51100000000E-03 0. -1.
         -4   -1    0    0    0  501 -0.00000000000E+00 -0.00000000000E+00 -0.40286383935E+02  0.40311401992E+02  0.14200000000E+01 0.  1.
         11    1    1    2    0    0  0.14790163968E+03  0.67947728776E+02  0.50972444115E+03  0.53508017602E+03  0.51100000000E-03 0. -1.
         22    1    1    2    0    0  0.32668459518E+02 -0.15068380364E+02  0.12156669359E+03  0.12677833145E+03  0.00000000000E+00 0. -1.
         -4    1    1    2    0  501 -0.18057009919E+03 -0.52879348412E+02  0.32880760184E+03  0.37883801504E+03  0.14200000000E+01 0.  1.
<mgrwt>
<rscale>  0 0.18815898E+03</rscale>
<asrwt>0</asrwt>
<pdfrwt beam="1">  1       11 0.10000000E+01 0.19881697E+03</pdfrwt>
<pdfrwt beam="2">  1       -4 0.62022947E-02 0.18815898E+03</pdfrwt>
<totfact> 0.70576835E+02</totfact>
</mgrwt>
</event>
<event>
 5    1  0.1490736E-003  0.2086465E+03  0.7818608E-02  0.1151296E+00
         11   -1    0    0    0    0  0.00000000000E+00  0.00000000000E+00  0.99982120019E+03  0.99982120019E+03  0.51100000000E-03 0.  1.
          4   -1    0    0  501    0 -0.00000000000E+00 -0.00000000000E+00 -0.14975489521E+04  0.14975496254E+04  0.14200000000E+01 0.  1.
         11    1    1    2    0    0  0.12072640388E+03  0.12892021806E+03  0.79702038722E+03  0.81635579551E+03  0.51100000000E-03 0.  1.
         22    1    1    2    0    0 -0.34752610774E+01  0.30828305021E+02  0.18523954791E+03  0.18781946635E+03  0.00000000000E+00 0.  1.
          4    1    1    2  501    0 -0.11725114280E+03 -0.15974852308E+03 -0.14799876871E+04  0.14931955637E+04  0.14200000000E+01 0.  1.
<mgrwt>
<rscale>  0 0.19816518E+03</rscale>
<asrwt>0</asrwt>
<pdfrwt beam="1">  1       11 0.10000000E+01 0.20864653E+03</pdfrwt>
<pdfrwt beam="2">  1        4 0.23035108E+00 0.19816518E+03</pdfrwt>
<totfact> 0.39810629E-01</totfact>
</mgrwt>
</event>
<event>
 5    1  0.1490736E-003  0.1559628E+03  0.7818608E-02  0.1198384E+00
         11   -1    0    0    0    0  0.00000000000E+00  0.00000000000E+00  0.99994587603E+03  0.99994587603E+03  0.51100000000E-03 0. -1.
          4   -1    0    0  501    0 -0.00000000000E+00 -0.00000000000E+00 -0.34462493536E+02  0.34491736122E+02  0.14200000000E+01 0. -1.
         11    1    1    2    0    0 -0.52597402665E+02  0.31917455030E+02  0.71434871653E+02  0.94276993965E+02  0.51100000000E-03 0. -1.
         22    1    1    2    0    0 -0.49981241800E+02  0.79852378949E+02  0.12628654444E+03  0.15755258888E+03  0.00000000000E+00 0. -1.
          4    1    1    2  501    0  0.10257864446E+03 -0.11176983398E+03  0.76776196641E+03  0.78260802931E+03  0.14200000000E+01 0. -1.
<mgrwt>
<rscale>  0 0.15171318E+03</rscale>
<asrwt>0</asrwt>
<pdfrwt beam="1">  1       11 0.10000000E+01 0.15596275E+03</pdfrwt>
<pdfrwt beam="2">  1        4 0.53039618E-02 0.15171318E+03</pdfrwt>
<totfact> 0.88385504E+02</totfact>
</mgrwt>
</event>
<event>
 5    1  0.1490736E-003  0.1010768E+03  0.7818608E-02  0.1319533E+00
         11   -1    0    0    0    0  0.00000000000E+00  0.00000000000E+00  0.10001337451E+04  0.10001337451E+04  0.51100000000E-03 0. -1.
          4   -1    0    0  501    0 -0.00000000000E+00 -0.00000000000E+00 -0.72655167175E+02  0.72669042358E+02  0.14200000000E+01 0. -1.
         11    1    1    2    0    0 -0.83173114804E+02 -0.15456195486E+02  0.45727710547E+03  0.46503657081E+03  0.51100000000E-03 0. -1.
         22    1    1    2    0    0  0.15778879040E+03 -0.21888449032E+02  0.49557008797E+03  0.52054406026E+03  0.00000000000E+00 0. -1.
          4    1    1    2  501    0 -0.74615675595E+02  0.37344644518E+02 -0.25368615486E+02  0.87222156419E+02  0.14200000000E+01 0. -1.
<mgrwt>
<rscale>  0 0.83451411E+02</rscale>
<asrwt>0</asrwt>
<pdfrwt beam="1">  1       11 0.10000000E+01 0.10107677E+03</pdfrwt>
<pdfrwt beam="2">  1        4 0.11180358E-01 0.83451411E+02</pdfrwt>
<totfact> 0.23711835E+02</totfact>
</mgrwt>
</event>
<event>
 5    1  0.2576532E-003  0.1527203E+03  0.7818608E-02  0.1198712E+00
         11   -1    0    0    0    0  0.00000000000E+00  0.00000000000E+00  0.10003362317E+04  0.10003362317E+04  0.51100000000E-03 0. -1.
          4   -1    0    0  501    0 -0.00000000000E+00 -0.00000000000E+00 -0.49779519435E+02  0.49799768626E+02  0.14200000000E+01 0. -1.
         11    1    1    2    0    0  0.69071159410E+02  0.12218490733E+03  0.79146030826E+03  0.80380930338E+03  0.51100000000E-03 0. -1.
         22    1    1    2    0    0  0.43834363460E+00  0.12355367100E+02  0.69025326844E+02  0.70123769061E+02  0.00000000000E+00 0.  1.
          4    1    1    2  501    0 -0.69509503044E+02 -0.13454027443E+03  0.90071077169E+02  0.17620292790E+03  0.14200000000E+01 0. -1.
<mgrwt>
<rscale>  0 0.15144198E+03</rscale>
<asrwt>0</asrwt>
<pdfrwt beam="1">  1       11 0.10000000E+01 0.15272029E+03</pdfrwt>
<pdfrwt beam="2">  1        4 0.76625981E-02 0.15144198E+03</pdfrwt>
<totfact> 0.48411522E+02</totfact>
</mgrwt>
</event>
<event>
 5    1  0.1490736E-003  0.3571330E+02  0.7818608E-02  0.1740550E+00
         11   -1    0    0    0    0  0.00000000000E+00  0.00000000000E+00  0.10002121211E+04  0.10002121211E+04  0.51100000000E-03 0. -1.
          4   -1    0    0  501    0 -0.00000000000E+00 -0.00000000000E+00 -0.40097855082E+01  0.42537959309E+01  0.14200000000E+01 0. -1.
         11    1    1    2    0    0 -0.37787284821E+02 -0.25165224859E+02  0.15603207199E+03  0.16250284590E+03  0.51100000000E-03 0. -1.
         22    1    1    2    0    0  0.73055068889E+01  0.88352784224E+01  0.63805881260E+02  0.64827641166E+02  0.00000000000E+00 0. -1.
          4    1    1    2  501    0  0.30481777932E+02  0.16329946437E+02  0.77636438230E+03  0.77713542992E+03  0.14200000000E+01 0. -1.
<mgrwt>
<rscale>  0 0.20242406E+02</rscale>
<asrwt>0</asrwt>
<pdfrwt beam="1">  1       11 0.10000000E+01 0.35713298E+02</pdfrwt>
<pdfrwt beam="2">  1        4 0.63587248E-03 0.20242406E+02</pdfrwt>
<totfact> 0.12870211E+04</totfact>
</mgrwt>
</event>
<event>
 5    1  0.1490736E-003  0.1951370E+03  0.7818608E-02  0.1166667E+00
         11   -1    0    0    0    0  0.00000000000E+00  0.00000000000E+00  0.10003609803E+04  0.10003609803E+04  0.51100000000E-03 0. -1.
          4   -1    0    0  501    0 -0.00000000000E+00 -0.00000000000E+00 -0.35717338078E+02  0.35745554120E+02  0.14200000000E+01 0. -1.
         11    1    1    2    0    0 -0.62806277635E+02  0.12295396544E+03  0.36928421178E+03  0.39425009219E+03  0.51100000000E-03 0. -1.
         22    1    1    2    0    0 -0.48288478864E+02  0.20160512943E+02  0.80159894397E+02  0.95727906813E+02  0.00000000000E+00 0. -1.
          4    1    1    2  501    0  0.11109475650E+03 -0.14311447838E+03  0.51519953601E+03  0.54612853537E+03  0.14200000000E+01 0. -1.
<mgrwt>
<rscale>  0 0.18117896E+03</rscale>
<asrwt>0</asrwt>
<pdfrwt beam="1">  1       11 0.10000000E+01 0.19513696E+03</pdfrwt>
<pdfrwt beam="2">  1        4 0.54992073E-02 0.18117896E+03</pdfrwt>
<totfact> 0.85459619E+02</totfact>
</mgrwt>
</event>
<event>
 5    1  0.1490736E-003  0.1200960E+03  0.7818608E-02  0.1245542E+00
         11   -1    0    0    0    0  0.00000000000E+00  0.00000000000E+00  0.10002780461E+04  0.10002780461E+04  0.51100000000E-03 0. -1.
          4   -1    0    0  501    0 -0.00000000000E+00 -0.00000000000E+00 -0.15231117607E+02  0.15297167828E+02  0.14200000000E+01 0.  1.
         11    1    1    2    0    0  0.68768047612E+02  0.65794283735E+02  0.54033796447E+03  0.54865567344E+03  0.51100000000E-03 0. -1.
         22    1    1    2    0    0  0.17116687004E+02  0.15882659121E+02  0.87294069549E+02  0.90363125296E+02  0.00000000000E+00 0. -1.
          4    1    1    2  501    0 -0.85884734616E+02 -0.81676942856E+02  0.35741489446E+03  0.37655641518E+03  0.14200000000E+01 0.  1.
<mgrwt>
<rscale>  0 0.11852986E+03</rscale>
<asrwt>0</asrwt>
<pdfrwt beam="1">  1       11 0.10000000E+01 0.12009602E+03</pdfrwt>
<pdfrwt beam="2">  1        4 0.23490601E-02 0.11852986E+03</pdfrwt>
<totfact> 0.30709225E+03</totfact>
</mgrwt>
</event>
<event>
 5    1  0.1490736E-003  0.1517040E+03  0.7818608E-02  0.1201717E+00
         11   -1    0    0    0    0  0.00000000000E+00  0.00000000000E+00  0.10003817674E+04  0.10003817674E+04  0.51100000000E-03 0. -1.
         -4   -1    0    0    0  501 -0.00000000000E+00 -0.00000000000E+00 -0.40914946651E+02  0.40939580597E+02  0.14200000000E+01 0.  1.
         11    1    1    2    0    0 -0.12450587858E+03 -0.18541524000E+02  0.74536201768E+03  0.75591668807E+03  0.51100000000E-03 0. -1.
         22    1    1    2    0    0 -0.23481162880E+02  0.13212844735E+01  0.85208522359E+02  0.88394587421E+02  0.00000000000E+00 0. -1.
         -4    1    1    2    0  501  0.14798704146E+03  0.17220239527E+02  0.12889628074E+03  0.19701007252E+03  0.14200000000E+01 0.  1.
<mgrwt>
<rscale>  0 0.14899234E+03</rscale>
<asrwt>0</asrwt>
<pdfrwt beam="1">  1       11 0.10000000E+01 0.15170401E+03</pdfrwt>
<pdfrwt beam="2">  1       -4 0.62989833E-02 0.14899234E+03</pdfrwt>
<totfact> 0.66668139E+02</totfact>
</mgrwt>
</event>
<event>
 5    1  0.1490736E-003  0.2007480E+03  0.7818608E-02  0.1149109E+00
         11   -1    0    0    0    0  0.00000000000E+00  0.00000000000E+00  0.10000811852E+04  0.10000811852E+04  0.51100000000E-03 0. -1.
          4   -1    0    0  501    0 -0.00000000000E+00 -0.00000000000E+00 -0.92738510549E+02  0.92749381339E+02  0.14200000000E+01 0. -1.
         11    1    1    2    0    0  0.19003330993E+02 -0.71432297867E+02  0.18838511558E+03  0.20236761485E+03  0.51100000000E-03 0. -1.
         22    1    1    2    0    0  0.13703936322E+03  0.15639069121E+03  0.72785246322E+02  0.22030780161E+03  0.00000000000E+00 0. -1.
          4    1    1    2  501    0 -0.15604269421E+03 -0.84958393344E+02  0.64617231276E+03  0.67015515009E+03  0.14200000000E+01 0. -1.
<mgrwt>
<rscale>  0 0.20074801E+03</rscale>
<asrwt>0</asrwt>
<pdfrwt beam="1">  1       11 0.10000000E+01 0.73916844E+02</pdfrwt>
<pdfrwt beam="2">  1        4 0.14269535E-01 0.20074801E+03</pdfrwt>
<totfact> 0.17374760E+02</totfact>
</mgrwt>
</event>
<event>
 5    1  0.1490736E-003  0.4983913E+02  0.7818608E-02  0.1451980E+00
         11   -1    0    0    0    0  0.00000000000E+00  0.00000000000E+00  0.10003163094E+04  0.10003163094E+04  0.51100000000E-03 0. -1.
          4   -1    0    0  501    0 -0.00000000000E+00 -0.00000000000E+00 -0.96987759929E+01  0.98021760727E+01  0.14200000000E+01 0. -1.
         11    1    1    2    0    0 -0.23097149352E+02 -0.30866153229E+02  0.40001974809E+02  0.55554979184E+02  0.51100000000E-03 0. -1.
         22    1    1    2    0    0 -0.79805219097E+01 -0.67186764446E+01  0.19035453823E+02  0.21706631368E+02  0.00000000000E+00 0.  1.
          4    1    1    2  501    0  0.31077671261E+02  0.37584829673E+02  0.93158010477E+03  0.93285687491E+03  0.14200000000E+01 0. -1.
<mgrwt>
<rscale>  0 0.48789932E+02</rscale>
<asrwt>0</asrwt>
<pdfrwt beam="1">  1       11 0.10000000E+01 0.49839126E+02</pdfrwt>
<pdfrwt beam="2">  1        4 0.15006252E-02 0.48789932E+02</pdfrwt>
<totfact> 0.49740718E+03</totfact>
</mgrwt>
</event>
<event>
 5    1  0.1490736E-003  0.1513268E+03  0.7818608E-02  0.1198852E+00
         11   -1    0    0    0    0  0.00000000000E+00  0.00000000000E+00  0.10003207482E+04  0.10003207482E+04  0.51100000000E-03 0.  1.
          4   -1    0    0  501    0 -0.00000000000E+00 -0.00000000000E+00 -0.32458229502E+02  0.32489276114E+02  0.14200000000E+01 0. -1.
         11    1    1    2    0    0  0.18077335861E+02  0.37413524874E+02  0.73221213163E+02  0.84189714174E+02  0.51100000000E-03 0.  1.
         22    1    1    2    0    0  0.12914197633E+03  0.32915549934E+02  0.56888351457E+03  0.58428549240E+03  0.00000000000E+00 0. -1.
          4    1    1    2  501    0 -0.14721931219E+03 -0.70329074808E+02  0.32575779099E+03  0.36433481776E+03  0.14200000000E+01 0. -1.
<mgrwt>
<rscale>  0 0.15132683E+03</rscale>
<asrwt>0</asrwt>
<pdfrwt beam="1">  1       11 0.10000000E+01 0.41551939E+02</pdfrwt>
<pdfrwt beam="2">  1        4 0.49976418E-02 0.15132683E+03</pdfrwt>
<totfact> 0.97256399E+02</totfact>
</mgrwt>
</event>
<event>
 5    1  0.1490736E-003  0.1552817E+03  0.7818608E-02  0.1205836E+00
         11   -1    0    0    0    0  0.00000000000E+00  0.00000000000E+00  0.10003307533E+04  0.10003307533E+04  0.51100000000E-03 0.  1.
          4   -1    0    0  501    0 -0.00000000000E+00 -0.00000000000E+00 -0.25124879729E+02  0.25164975291E+02  0.14200000000E+01 0.  1.
         11    1    1    2    0    0 -0.80616739817E+01  0.12014168740E+03  0.48474136176E+03  0.49947292563E+03  0.51100000000E-03 0.  1.
         22    1    1    2    0    0 -0.26341413847E+02  0.21449412421E+02  0.17850437818E+03  0.18170789858E+03  0.00000000000E+00 0.  1.
          4    1    1    2  501    0  0.34403087829E+02 -0.14159109982E+03  0.31196013360E+03  0.34431490434E+03  0.14200000000E+01 0.  1.
<mgrwt>
<rscale>  0 0.14571763E+03</rscale>
<asrwt>0</asrwt>
<pdfrwt beam="1">  1       11 0.10000000E+01 0.15528169E+03</pdfrwt>
<pdfrwt beam="2">  1        4 0.38698073E-02 0.14571763E+03</pdfrwt>
<totfact> 0.14556862E+03</totfact>
</mgrwt>
</event>
<event>
 5    1  0.1681478E-003  0.2244586E+03  0.7818608E-02  0.1131932E+00
         11   -1    0    0    0    0  0.00000000000E+00  0.00000000000E+00  0.99998676650E+03  0.99998676650E+03  0.51100000000E-03 0.  1.
          4   -1    0    0  501    0 -0.00000000000E+00 -0.00000000000E+00 -0.11983420550E+03  0.11984261849E+03  0.14200000000E+01 0.  1.
         11    1    1    2    0    0  0.16074973083E+03  0.12766293017E+03  0.76978136388E+03  0.79668164776E+03  0.51100000000E-03 0.  1.
         22    1    1    2    0    0  0.16777467701E+02  0.66847721662E+01  0.98556407658E+02  0.10019748047E+03  0.00000000000E+00 0. -1.
          4    1    1    2  501    0 -0.17752719853E+03 -0.13434770234E+03  0.11814789462E+02  0.22295025677E+03  0.14200000000E+01 0.  1.
<mgrwt>
<rscale>  0 0.22263699E+03</rscale>
<asrwt>0</asrwt>
<pdfrwt beam="1">  1       11 0.10000000E+01 0.22445865E+03</pdfrwt>
<pdfrwt beam="2">  1        4 0.18436512E-01 0.22263699E+03</pdfrwt>
<totfact> 0.11132843E+02</totfact>
</mgrwt>
</event>
<event>
 5    1  0.1490736E-003  0.4291987E+02  0.7818608E-02  0.1493242E+00
         11   -1    0    0    0    0  0.00000000000E+00  0.00000000000E+00  0.10002586154E+04  0.10002586154E+04  0.51100000000E-03 0.  1.
          4   -1    0    0  501    0 -0.00000000000E+00 -0.00000000000E+00 -0.22337635401E+01  0.26469037672E+01  0.14200000000E+01 0.  1.
         11    1    1    2    0    0 -0.62284975933E+01 -0.81531665215E+01  0.52444303689E+02  0.53438500131E+02  0.51100000000E-03 0.  1.
         22    1    1    2    0    0 -0.28881029872E+02 -0.15051705064E+02  0.19456689688E+03  0.19727378202E+03  0.00000000000E+00 0.  1.
          4    1    1    2  501    0  0.35109527465E+02  0.23204871586E+02  0.75101365129E+03  0.75219323702E+03  0.14200000000E+01 0.  1.
<mgrwt>
<rscale>  0 0.42108923E+02</rscale>
<asrwt>0</asrwt>
<pdfrwt beam="1">  1       11 0.10000000E+01 0.42919870E+02</pdfrwt>
<pdfrwt beam="2">  1        4 0.37561058E-03 0.42108923E+02</pdfrwt>
<totfact> 0.35871974E+04</totfact>
</mgrwt>
</event>
<event>
 5    1  0.1490736E-003  0.1042656E+03  0.7818608E-02  0.1271573E+00
         11   -1    0    0    0    0  0.00000000000E+00  0.00000000000E+00  0.10002152887E+04  0.10002152887E+04  0.51100000000E-03 0. -1.
          4   -1    0    0  501    0 -0.00000000000E+00 -0.00000000000E+00 -0.38449647606E+02  0.38475859977E+02  0.14200000000E+01 0. -1.
         11    1    1    2    0    0  0.91495466576E+02 -0.25286597869E+02  0.85733310806E+02  0.12791025376E+03  0.51100000000E-03 0. -1.
         22    1    1    2    0    0  0.54713719078E+02 -0.55676858403E+02  0.20821999922E+03  0.22237147230E+03  0.00000000000E+00 0. -1.
          4    1    1    2  501    0 -0.14620918565E+03  0.80963456272E+02  0.66781233112E+03  0.68840942266E+03  0.14200000000E+01 0. -1.
<mgrwt>
<rscale>  0 0.10426562E+03</rscale>
<asrwt>0</asrwt>
<pdfrwt beam="1">  1       11 0.10000000E+01 0.78060897E+02</pdfrwt>
<pdfrwt beam="2">  1        4 0.59186981E-02 0.10426562E+03</pdfrwt>
<totfact> 0.69921830E+02</totfact>
</mgrwt>
</event>
<event>
 5    1  0.1490736E-003  0.4823492E+02  0.7818608E-02  0.1463050E+00
         11   -1    0    0    0    0  0.00000000000E+00  0.00000000000E+00  0.10001097611E+04  0.10001097611E+04  0.51100000000E-03 0. -1.
          4   -1    0    0  501    0 -0.00000000000E+00 -0.00000000000E+00 -0.38912543422E+01  0.41422530531E+01  0.14200000000E+01 0. -1.
         11    1    1    2    0    0 -0.16117576000E+02  0.52313369783E+01  0.43320830997E+02  0.46517067204E+02  0.51100000000E-03 0. -1.
         22    1    1    2    0    0 -0.29701526497E+02  0.44901322426E+01  0.12681230885E+03  0.13032153943E+03  0.00000000000E+00 0. -1.
          4    1    1    2  501    0  0.45819102497E+02 -0.97214692209E+01  0.82608536694E+03  0.82741340755E+03  0.14200000000E+01 0. -1.
<mgrwt>
<rscale>  0 0.46860575E+02</rscale>
<asrwt>0</asrwt>
<pdfrwt beam="1">  1       11 0.10000000E+01 0.48234920E+02</pdfrwt>
<pdfrwt beam="2">  1        4 0.61810747E-03 0.46860575E+02</pdfrwt>
<totfact> 0.18104587E+04</totfact>
</mgrwt>
</event>
<event>
 5    1  0.1490736E-003  0.2359490E+03  0.7818608E-02  0.1238533E+00
         11   -1    0    0    0    0  0.00000000000E+00  0.00000000000E+00  0.10001858017E+04  0.10001858017E+04  0.51100000000E-03 0. -1.
          4   -1    0    0  501    0 -0.00000000000E+00 -0.00000000000E+00 -0.93048281527E+02  0.93059116131E+02  0.14200000000E+01 0. -1.
         11    1    1    2    0    0 -0.23775608647E+03  0.83866274911E+00  0.66109909225E+03  0.70255296582E+03  0.51100000000E-03 0. -1.
         22    1    1    2    0    0  0.94706003698E+01  0.63214605223E+02  0.73782999829E+02  0.97620231759E+02  0.00000000000E+00 0.  1.
          4    1    1    2  501    0  0.22828548610E+03 -0.64053267972E+02  0.17225542808E+03  0.29307172024E+03  0.14200000000E+01 0. -1.
<mgrwt>
<rscale>  0 0.12280944E+03</rscale>
<asrwt>0</asrwt>
<pdfrwt beam="1">  1       11 0.10000000E+01 0.23594903E+03</pdfrwt>
<pdfrwt beam="2">  1        4 0.14318691E-01 0.12280944E+03</pdfrwt>
<totfact> 0.16363154E+02</totfact>
</mgrwt>
</event>
<event>
 5    1  0.1490736E-003  0.2666454E+03  0.7818608E-02  0.1103215E+00
         11   -1    0    0    0    0  0.00000000000E+00  0.00000000000E+00  0.10002351603E+04  0.10002351603E+04  0.51100000000E-03 0. -1.
          4   -1    0    0  501    0 -0.00000000000E+00 -0.00000000000E+00 -0.11731150989E+03  0.11732010378E+03  0.14200000000E+01 0.  1.
         11    1    1    2    0    0  0.12263018439E+03 -0.22147968936E+03  0.67613414012E+03  0.72197561618E+03  0.51100000000E-03 0. -1.
         22    1    1    2    0    0  0.36109992364E+02  0.19108748507E+01  0.96492020392E+02  0.10304510173E+03  0.00000000000E+00 0.  1.
          4    1    1    2  501    0 -0.15874017675E+03  0.21956881451E+03  0.11029748989E+03  0.29253454616E+03  0.14200000000E+01 0.  1.
<mgrwt>
<rscale>  0 0.26664540E+03</rscale>
<asrwt>0</asrwt>
<pdfrwt beam="1">  1       11 0.10000000E+01 0.36160517E+02</pdfrwt>
<pdfrwt beam="2">  1        4 0.18052907E-01 0.26664540E+03</pdfrwt>
<totfact> 0.11743486E+02</totfact>
</mgrwt>
</event>
<event>
 5    1  0.1490736E-003  0.3635902E+02  0.7818608E-02  0.1536853E+00
         11   -1    0    0    0    0  0.00000000000E+00  0.00000000000E+00  0.10004639230E+04  0.10004639230E+04  0.51100000000E-03 0. -1.
          4   -1    0    0  501    0 -0.00000000000E+00 -0.00000000000E+00 -0.11469234109E+02  0.11556804535E+02  0.14200000000E+01 0. -1.
         11    1    1    2    0    0 -0.23862590306E+02 -0.26917049291E+02  0.22514478153E+02  0.42436452319E+02  0.51100000000E-03 0. -1.
         22    1    1    2    0    0  0.42845926128E+01 -0.17182116076E+02  0.87190073266E+02  0.88970173220E+02  0.00000000000E+00 0.  1.
          4    1    1    2  501    0  0.19577997693E+02  0.44099165366E+02  0.87929013750E+03  0.88061410202E+03  0.14200000000E+01 0. -1.
<mgrwt>
<rscale>  0 0.36359021E+02</rscale>
<asrwt>0</asrwt>
<pdfrwt beam="1">  1       11 0.10000000E+01 0.17708271E+02</pdfrwt>
<pdfrwt beam="2">  1        4 0.17721330E-02 0.36359021E+02</pdfrwt>
<totfact> 0.35782072E+03</totfact>
</mgrwt>
</event>
<event>
 5    1  0.1490736E-003  0.4677278E+02  0.7818608E-02  0.1566320E+00
         11   -1    0    0    0    0  0.00000000000E+00  0.00000000000E+00  0.10003551957E+04  0.10003551957E+04  0.51100000000E-03 0.  1.
          4   -1    0    0  501    0 -0.00000000000E+00 -0.00000000000E+00 -0.17435374780E+02  0.17493104176E+02  0.14200000000E+01 0.  1.
         11    1    1    2    0    0 -0.21607407186E+02  0.38207933484E+02  0.12613860032E+03  0.13355775050E+03  0.51100000000E-03 0.  1.
         22    1    1    2    0    0  0.54156495241E+02 -0.32464521240E+02  0.60909756361E+02  0.87731804587E+02  0.00000000000E+00 0.  1.
          4    1    1    2  501    0 -0.32549088055E+02 -0.57434122442E+01  0.79587146420E+03  0.79655874476E+03  0.14200000000E+01 0.  1.
<mgrwt>
<rscale>  0 0.33082417E+02</rscale>
<asrwt>0</asrwt>
<pdfrwt beam="1">  1       11 0.10000000E+01 0.46772780E+02</pdfrwt>
<pdfrwt beam="2">  1        4 0.26878379E-02 0.33082417E+02</pdfrwt>
<totfact> 0.18677600E+03</totfact>
</mgrwt>
</event>
<event>
 5    1  0.1490736E-003  0.1840066E+03  0.7818608E-02  0.1167746E+00
         11   -1    0    0    0    0  0.00000000000E+00  0.00000000000E+00  0.10001559246E+04  0.10001559246E+04  0.51100000000E-03 0. -1.
         -4   -1    0    0    0  501 -0.00000000000E+00 -0.00000000000E+00 -0.40569237546E+02  0.40594081281E+02  0.14200000000E+01 0.  1.
         11    1    1    2    0    0  0.15428848725E+03  0.24655683634E+01  0.64533380324E+03  0.66352598587E+03  0.51100000000E-03 0. -1.
         22    1    1    2    0    0  0.25744039501E+02 -0.52140349341E+01  0.61676521791E+02  0.67036818767E+02  0.00000000000E+00 0.  1.
         -4    1    1    2    0  501 -0.18003252675E+03  0.27484665707E+01  0.25257636198E+03  0.31018720120E+03  0.14200000000E+01 0.  1.
<mgrwt>
<rscale>  0 0.18005910E+03</rscale>
<asrwt>0</asrwt>
<pdfrwt beam="1">  1       11 0.10000000E+01 0.18400655E+03</pdfrwt>
<pdfrwt beam="2">  1       -4 0.62443831E-02 0.18005910E+03</pdfrwt>
<totfact> 0.69392441E+02</totfact>
</mgrwt>
</event>
<event>
 5    1  0.1490736E-003  0.1955812E+03  0.7818608E-02  0.1153522E+00
         11   -1    0    0    0    0  0.00000000000E+00  0.00000000000E+00  0.10001277708E+04  0.10001277708E+04  0.51100000000E-03 0. -1.
          4   -1    0    0  501    0 -0.00000000000E+00 -0.00000000000E+00 -0.19611303559E+03  0.19611817643E+03  0.14200000000E+01 0.  1.
         11    1    1    2    0    0 -0.12322898352E+03 -0.12426647643E+03  0.51780065654E+03  0.54657575821E+03  0.51100000000E-03 0. -1.
         22    1    1    2    0    0  0.13024686254E+03 -0.79505393534E+02  0.39150454458E+03  0.42019181480E+03  0.00000000000E+00 0. -1.
          4    1    1    2  501    0 -0.70178790178E+01  0.20377186997E+03 -0.10529046592E+03  0.22947837421E+03  0.14200000000E+01 0.  1.
<mgrwt>
<rscale>  0 0.19558117E+03</rscale>
<asrwt>0</asrwt>
<pdfrwt beam="1">  1       11 0.10000000E+01 0.15259539E+03</pdfrwt>
<pdfrwt beam="2">  1        4 0.30175563E-01 0.19558117E+03</pdfrwt>
<totfact> 0.44263047E+01</totfact>
</mgrwt>
</event>
<event>
 5    1  0.1490736E-003  0.1534028E+03  0.7818608E-02  0.1198154E+00
         11   -1    0    0    0    0  0.00000000000E+00  0.00000000000E+00  0.10003969586E+04  0.10003969586E+04  0.51100000000E-03 0. -1.
         -4   -1    0    0    0  501 -0.00000000000E+00 -0.00000000000E+00 -0.28870183855E+02  0.28905084602E+02  0.14200000000E+01 0.  1.
         11    1    1    2    0    0 -0.10637520642E+03 -0.88046222802E+02  0.67345557884E+03  0.68746653633E+03  0.51100000000E-03 0. -1.
         22    1    1    2    0    0 -0.10597440271E+02 -0.88556178315E+01  0.40710418093E+02  0.42989136405E+02  0.00000000000E+00 0.  1.
         -4    1    1    2    0  501  0.11697264670E+03  0.96901840633E+02  0.25736077784E+03  0.29884637050E+03  0.14200000000E+01 0.  1.
<mgrwt>
<rscale>  0 0.15190320E+03</rscale>
<asrwt>0</asrwt>
<pdfrwt beam="1">  1       11 0.10000000E+01 0.15340280E+03</pdfrwt>
<pdfrwt beam="2">  1       -4 0.44460930E-02 0.15190320E+03</pdfrwt>
<totfact> 0.11741876E+03</totfact>
</mgrwt>
</event>
<event>
 5    1  0.1490736E-003  0.9433894E+02  0.7818608E-02  0.1292672E+00
         11   -1    0    0    0    0  0.00000000000E+00  0.00000000000E+00  0.10000025331E+04  0.10000025331E+04  0.51100000000E-03 0.  1.
          4   -1    0    0  501    0 -0.00000000000E+00 -0.00000000000E+00 -0.12520281456E+02  0.12600549502E+02  0.14200000000E+01 0.  1.
         11    1    1    2    0    0  0.94644298255E+02  0.15625875580E+02  0.32999322464E+03  0.34365278914E+03  0.51100000000E-03 0.  1.
         22    1    1    2    0    0 -0.10976853135E+01 -0.28473670477E+02  0.13161205175E+03  0.13466137899E+03  0.00000000000E+00 0.  1.
          4    1    1    2  501    0 -0.93546612941E+02  0.12847794897E+02  0.52587697525E+03  0.53428891447E+03  0.14200000000E+01 0.  1.
<mgrwt>
<rscale>  0 0.94338942E+02</rscale>
<asrwt>0</asrwt>
<pdfrwt beam="1">  1       11 0.10000000E+01 0.28494821E+02</pdfrwt>
<pdfrwt beam="2">  1        4 0.19324540E-02 0.94338942E+02</pdfrwt>
<totfact> 0.39647067E+03</totfact>
</mgrwt>
</event>
<event>
 5    1  0.2161624E-003  0.3192030E+03  0.7818608E-02  0.1077336E+00
         11   -1    0    0    0    0  0.00000000000E+00  0.00000000000E+00  0.10002892259E+04  0.10002892259E+04  0.51100000000E-03 0. -1.
          4   -1    0    0  501    0 -0.00000000000E+00 -0.00000000000E+00 -0.30377218190E+03  0.30377550082E+03  0.14200000000E+01 0. -1.
         11    1    1    2    0    0  0.48065522759E+01  0.30749854109E+03  0.84261484268E+03  0.89698284756E+03  0.51100000000E-03 0. -1.
         22    1    1    2    0    0 -0.72317274048E+01  0.88518023694E+01  0.38937242384E+02  0.40580304717E+02  0.00000000000E+00 0.  1.
          4    1    1    2  501    0  0.24251751289E+01 -0.31635034346E+03 -0.18503504103E+03  0.36650157447E+03  0.14200000000E+01 0. -1.
<mgrwt>
<rscale>  0 0.31636283E+03</rscale>
<asrwt>0</asrwt>
<pdfrwt beam="1">  1       11 0.10000000E+01 0.31920305E+03</pdfrwt>
<pdfrwt beam="2">  1        4 0.46748030E-01 0.31636283E+03</pdfrwt>
<totfact> 0.19195971E+01</totfact>
</mgrwt>
</event>
<event>
 5    1  0.1490736E-003  0.3190029E+02  0.7818608E-02  0.1743117E+00
         11   -1    0    0    0    0  0.00000000000E+00  0.00000000000E+00  0.99979339622E+03  0.99979339622E+03  0.51100000000E-03 0. -1.
          4   -1    0    0  501    0 -0.00000000000E+00 -0.00000000000E+00 -0.25033755426E+01  0.28780703792E+01  0.14200000000E+01 0. -1.
         11    1    1    2    0    0 -0.10165838033E+02 -0.23369661075E+02  0.10445723512E+03  0.10752115741E+03  0.51100000000E-03 0. -1.
         22    1    1    2    0    0 -0.12600814618E+02 -0.12922462726E+01  0.47795205730E+02  0.49445243656E+02  0.00000000000E+00 0.  1.
          4    1    1    2  501    0  0.22766652652E+02  0.24661907347E+02  0.84503757983E+03  0.84570506553E+03  0.14200000000E+01 0. -1.
<mgrwt>
<rscale>  0 0.20111633E+02</rscale>
<asrwt>0</asrwt>
<pdfrwt beam="1">  1       11 0.10000000E+01 0.31900287E+02</pdfrwt>
<pdfrwt beam="2">  1        4 0.41394940E-03 0.20111633E+02</pdfrwt>
<totfact> 0.23520705E+04</totfact>
</mgrwt>
</event>
<event>
 5    1  0.1490736E-003  0.4769147E+02  0.7818608E-02  0.1469806E+00
         11   -1    0    0    0    0  0.00000000000E+00  0.00000000000E+00  0.10000747789E+04  0.10000747789E+04  0.51100000000E-03 0. -1.
          4   -1    0    0  501    0 -0.00000000000E+00 -0.00000000000E+00 -0.25398949174E+01  0.29098910961E+01  0.14200000000E+01 0. -1.
         11    1    1    2    0    0 -0.20321905825E+02 -0.24567243240E+02  0.19162070190E+03  0.19425504547E+03  0.51100000000E-03 0. -1.
         22    1    1    2    0    0 -0.12131801479E+01 -0.15755111604E+02  0.91611486459E+02  0.92964293140E+02  0.00000000000E+00 0. -1.
          4    1    1    2  501    0  0.21535085973E+02  0.40322354845E+02  0.71430269566E+03  0.71576533141E+03  0.14200000000E+01 0. -1.
<mgrwt>
<rscale>  0 0.45734764E+02</rscale>
<asrwt>0</asrwt>
<pdfrwt beam="1">  1       11 0.10000000E+01 0.47691466E+02</pdfrwt>
<pdfrwt beam="2">  1        4 0.41932320E-03 0.45734764E+02</pdfrwt>
<totfact> 0.31472462E+04</totfact>
</mgrwt>
</event>
<event>
 5    1  0.1490736E-003  0.1395442E+03  0.7818608E-02  0.1342035E+00
         11   -1    0    0    0    0  0.00000000000E+00  0.00000000000E+00  0.10001808787E+04  0.10001808787E+04  0.51100000000E-03 0. -1.
          4   -1    0    0  501    0 -0.00000000000E+00 -0.00000000000E+00 -0.47742907906E+02  0.47764020510E+02  0.14200000000E+01 0. -1.
         11    1    1    2    0    0 -0.12744649450E+03 -0.56834966222E+02  0.77580213188E+03  0.78825235184E+03  0.51100000000E-03 0. -1.
         22    1    1    2    0    0 -0.15854188530E+02  0.37757548026E+02  0.65886625426E+02  0.77575995881E+02  0.00000000000E+00 0. -1.
          4    1    1    2  501    0  0.14330068303E+03  0.19077418197E+02  0.11074921352E+03  0.18211655152E+03  0.14200000000E+01 0. -1.
<mgrwt>
<rscale>  0 0.75596128E+02</rscale>
<asrwt>0</asrwt>
<pdfrwt beam="1">  1       11 0.10000000E+01 0.13954416E+03</pdfrwt>
<pdfrwt beam="2">  1        4 0.73480930E-02 0.75596128E+02</pdfrwt>
<totfact> 0.46709746E+02</totfact>
</mgrwt>
</event>
<event>
 5    1  0.1490736E-003  0.1576843E+03  0.7818608E-02  0.1191336E+00
         11   -1    0    0    0    0  0.00000000000E+00  0.00000000000E+00  0.10000579412E+04  0.10000579412E+04  0.51100000000E-03 0.  1.
          4   -1    0    0  501    0 -0.00000000000E+00 -0.00000000000E+00 -0.45600283108E+02  0.45622387263E+02  0.14200000000E+01 0.  1.
         11    1    1    2    0    0 -0.70960775724E+02  0.15211464101E+03  0.32693152519E+03  0.36750308551E+03  0.51100000000E-03 0.  1.
         22    1    1    2    0    0 -0.66959965673E+02 -0.68900488934E+02  0.23259406550E+03  0.25165634044E+03  0.00000000000E+00 0.  1.
          4    1    1    2  501    0  0.13792074140E+03 -0.83214152073E+02  0.39493206741E+03  0.42652090252E+03  0.14200000000E+01 0.  1.
<mgrwt>
<rscale>  0 0.15768427E+03</rscale>
<asrwt>0</asrwt>
<pdfrwt beam="1">  1       11 0.10000000E+01 0.96077648E+02</pdfrwt>
<pdfrwt beam="2">  1        4 0.70176124E-02 0.15768427E+03</pdfrwt>
<totfact> 0.56281977E+02</totfact>
</mgrwt>
</event>
<event>
 5    1  0.1490736E-003  0.1503237E+03  0.7818608E-02  0.1200076E+00
         11   -1    0    0    0    0  0.00000000000E+00  0.00000000000E+00  0.10002117585E+04  0.10002117585E+04  0.51100000000E-03 0. -1.
          4   -1    0    0  501    0 -0.00000000000E+00 -0.00000000000E+00 -0.68176133714E+02  0.68190920277E+02  0.14200000000E+01 0. -1.
         11    1    1    2    0    0 -0.19814078163E+02 -0.27785589838E+02  0.75187152598E+00  0.34135055400E+02  0.51100000000E-03 0. -1.
         22    1    1    2    0    0 -0.48002775502E+02  0.14514470316E+03  0.80543687985E+02  0.17279622966E+03  0.00000000000E+00 0. -1.
          4    1    1    2  501    0  0.67816853665E+02 -0.11735911332E+03  0.85074006527E+03  0.86147139371E+03  0.14200000000E+01 0. -1.
<mgrwt>
<rscale>  0 0.15032367E+03</rscale>
<asrwt>0</asrwt>
<pdfrwt beam="1">  1       11 0.10000000E+01 0.34126791E+02</pdfrwt>
<pdfrwt beam="2">  1        4 0.10492072E-01 0.15032367E+03</pdfrwt>
<totfact> 0.28573836E+02</totfact>
</mgrwt>
</event>
<event>
 5    1  0.1490736E-003  0.1113023E+03  0.7818608E-02  0.1262218E+00
         11   -1    0    0    0    0  0.00000000000E+00  0.00000000000E+00  0.10001535955E+04  0.10001535955E+04  0.51100000000E-03 0.  1.
          4   -1    0    0  501    0 -0.00000000000E+00 -0.00000000000E+00 -0.16177830473E+02  0.16240030752E+02  0.14200000000E+01 0.  1.
         11    1    1    2    0    0 -0.64578898433E+02  0.37843784428E+02  0.15924977355E+03  0.17596328174E+03  0.51100000000E-03 0.  1.
         22    1    1    2    0    0 -0.36206367582E+02  0.39460040926E+01  0.81899427874E+02  0.89632518027E+02  0.00000000000E+00 0.  1.
          4    1    1    2  501    0  0.10078526601E+03 -0.41789788521E+02  0.74282656360E+03  0.75079782649E+03  0.14200000000E+01 0.  1.
<mgrwt>
<rscale>  0 0.10911495E+03</rscale>
<asrwt>0</asrwt>
<pdfrwt beam="1">  1       11 0.10000000E+01 0.11130225E+03</pdfrwt>
<pdfrwt beam="2">  1        4 0.24941421E-02 0.10911495E+03</pdfrwt>
<totfact> 0.27565770E+03</totfact>
</mgrwt>
</event>
<event>
 5    1  0.1490736E-003  0.9737547E+02  0.7818608E-02  0.1296236E+00
         11   -1    0    0    0    0  0.00000000000E+00  0.00000000000E+00  0.10002071743E+04  0.10002071743E+04  0.51100000000E-03 0. -1.
          4   -1    0    0  501    0 -0.00000000000E+00 -0.00000000000E+00 -0.10716170008E+02  0.10809842721E+02  0.14200000000E+01 0. -1.
         11    1    1    2    0    0  0.51746585707E+02  0.57277772296E+02  0.27543575427E+03  0.28604773563E+03  0.51100000000E-03 0. -1.
         22    1    1    2    0    0  0.14886654649E+02  0.72799462635E+01  0.27022494968E+02  0.31698980087E+02  0.00000000000E+00 0. -1.
          4    1    1    2  501    0 -0.66633240356E+02 -0.64557718559E+02  0.68703275501E+03  0.69327030126E+03  0.14200000000E+01 0. -1.
<mgrwt>
<rscale>  0 0.92788491E+02</rscale>
<asrwt>0</asrwt>
<pdfrwt beam="1">  1       11 0.10000000E+01 0.97375473E+02</pdfrwt>
<pdfrwt beam="2">  1        4 0.16562677E-02 0.92788491E+02</pdfrwt>
<totfact> 0.49964584E+03</totfact>
</mgrwt>
</event>
<event>
 5    1  0.1490736E-003  0.5288940E+02  0.7818608E-02  0.1625566E+00
         11   -1    0    0    0    0  0.00000000000E+00  0.00000000000E+00  0.10001654876E+04  0.10001654876E+04  0.51100000000E-03 0. -1.
          4   -1    0    0  501    0 -0.00000000000E+00 -0.00000000000E+00 -0.17395957409E+02  0.17453817181E+02  0.14200000000E+01 0. -1.
         11    1    1    2    0    0 -0.18554846609E+02 -0.35997681009E+02  0.11779349400E+02  0.42176633854E+02  0.51100000000E-03 0. -1.
         22    1    1    2    0    0 -0.12124769100E+02 -0.78688870114E+01  0.34276019611E+02  0.37199125378E+02  0.00000000000E+00 0.  1.
          4    1    1    2  501    0  0.30679615709E+02  0.43866568020E+02  0.93671416122E+03  0.93824354559E+03  0.14200000000E+01 0. -1.
<mgrwt>
<rscale>  0 0.27654278E+02</rscale>
<asrwt>0</asrwt>
<pdfrwt beam="1">  1       11 0.10000000E+01 0.52889395E+02</pdfrwt>
<pdfrwt beam="2">  1        4 0.26812730E-02 0.27654278E+02</pdfrwt>
<totfact> 0.17780479E+03</totfact>
</mgrwt>
</event>
<event>
 5    1  0.1490736E-003  0.1196631E+03  0.7818608E-02  0.1243654E+00
         11   -1    0    0    0    0  0.00000000000E+00  0.00000000000E+00  0.10004320550E+04  0.10004320550E+04  0.51100000000E-03 0.  1.
          4   -1    0    0  501    0 -0.00000000000E+00 -0.00000000000E+00 -0.67511479727E+02  0.67526411832E+02  0.14200000000E+01 0.  1.
         11    1    1    2    0    0  0.31891007874E+02  0.24454697427E+02  0.13559165802E+03  0.14142194431E+03  0.51100000000E-03 0.  1.
         22    1    1    2    0    0 -0.54918572277E+02 -0.13971773865E+03  0.79491060997E+03  0.80896228214E+03  0.00000000000E+00 0.  1.
          4    1    1    2  501    0  0.23027564403E+02  0.11526304123E+03  0.24183073037E+01  0.11757424040E+03  0.14200000000E+01 0.  1.
<mgrwt>
<rscale>  0 0.11966313E+03</rscale>
<asrwt>0</asrwt>
<pdfrwt beam="1">  1       11 0.10000000E+01 0.40187916E+02</pdfrwt>
<pdfrwt beam="2">  1        4 0.10392095E-01 0.11966313E+03</pdfrwt>
<totfact> 0.28208002E+02</totfact>
</mgrwt>
</event>
<event>
 5    1  0.1490736E-003  0.2129192E+03  0.7818608E-02  0.1148145E+00
         11   -1    0    0    0    0  0.00000000000E+00  0.00000000000E+00  0.99960668285E+03  0.99960668285E+03  0.51100000000E-03 0.  1.
          4   -1    0    0  501    0 -0.00000000000E+00 -0.00000000000E+00 -0.82071632011E+02  0.82083915482E+02  0.14200000000E+01 0.  1.
         11    1    1    2    0    0  0.61105073807E+02  0.15262267930E+03  0.67668881204E+03  0.69637293214E+03  0.51100000000E-03 0.  1.
         22    1    1    2    0    0 -0.17518883993E+02  0.44512229969E+02  0.16141495371E+03  0.16835390460E+03  0.00000000000E+00 0. -1.
          4    1    1    2  501    0 -0.43586189814E+02 -0.19713490926E+03  0.79431285094E+02  0.21696376159E+03  0.14200000000E+01 0.  1.
<mgrwt>
<rscale>  0 0.20190083E+03</rscale>
<asrwt>0</asrwt>
<pdfrwt beam="1">  1       11 0.10000000E+01 0.21291919E+03</pdfrwt>
<pdfrwt beam="2">  1        4 0.12622460E-01 0.20190083E+03</pdfrwt>
<totfact> 0.21525402E+02</totfact>
</mgrwt>
</event>
<event>
 5    1  0.1490736E-003  0.1703126E+03  0.7818608E-02  0.1177522E+00
         11   -1    0    0    0    0  0.00000000000E+00  0.00000000000E+00  0.10000658081E+04  0.10000658081E+04  0.51100000000E-03 0.  1.
          4   -1    0    0  501    0 -0.00000000000E+00 -0.00000000000E+00 -0.63454927499E+02  0.63470813954E+02  0.14200000000E+01 0.  1.
         11    1    1    2    0    0  0.20610587649E+03  0.11335241777E+02  0.63706824682E+03  0.66967460094E+03  0.51100000000E-03 0.  1.
         22    1    1    2    0    0 -0.45511215331E+02  0.11783871410E+02  0.19559324192E+03  0.20116373090E+03  0.00000000000E+00 0.  1.
          4    1    1    2  501    0 -0.16059466116E+03 -0.23119113187E+02  0.10394939188E+03  0.19269829023E+03  0.14200000000E+01 0.  1.
<mgrwt>
<rscale>  0 0.17031258E+03</rscale>
<asrwt>0</asrwt>
<pdfrwt beam="1">  1       11 0.10000000E+01 0.47012023E+02</pdfrwt>
<pdfrwt beam="2">  1        4 0.97642384E-02 0.17031258E+03</pdfrwt>
<totfact> 0.32762004E+02</totfact>
</mgrwt>
</event>
<event>
 5    1  0.1490736E-003  0.8569219E+02  0.7818608E-02  0.1313632E+00
         11   -1    0    0    0    0  0.00000000000E+00  0.00000000000E+00  0.10001678158E+04  0.10001678158E+04  0.51100000000E-03 0. -1.
          4   -1    0    0  501    0 -0.00000000000E+00 -0.00000000000E+00 -0.15614866087E+02  0.15679299822E+02  0.14200000000E+01 0. -1.
         11    1    1    2    0    0 -0.29836438710E+01  0.29043013944E+02  0.54675941860E+02  0.61982718626E+02  0.51100000000E-03 0. -1.
         22    1    1    2    0    0 -0.18063724974E+02 -0.89707939867E+02  0.18672847799E+03  0.20794551480E+03  0.00000000000E+00 0. -1.
          4    1    1    2  501    0  0.21047368845E+02  0.60664925923E+02  0.74314852982E+03  0.74591888215E+03  0.14200000000E+01 0. -1.
<mgrwt>
<rscale>  0 0.85692193E+02</rscale>
<asrwt>0</asrwt>
<pdfrwt beam="1">  1       11 0.10000000E+01 0.29195884E+02</pdfrwt>
<pdfrwt beam="2">  1        4 0.24077250E-02 0.85692193E+02</pdfrwt>
<totfact> 0.27759499E+03</totfact>
</mgrwt>
</event>
<event>
 5    1  0.1490736E-003  0.7377689E+02  0.7818608E-02  0.1360050E+00
         11   -1    0    0    0    0  0.00000000000E+00  0.00000000000E+00  0.99969790383E+03  0.99969790383E+03  0.51100000000E-03 0. -1.
          4   -1    0    0  501    0 -0.00000000000E+00 -0.00000000000E+00 -0.83678099811E+01  0.84874403609E+01  0.14200000000E+01 0. -1.
         11    1    1    2    0    0  0.47470554976E+02 -0.17062348899E+02  0.10378325658E+03  0.11539298803E+03  0.51100000000E-03 0. -1.
         22    1    1    2    0    0  0.17878837104E+02 -0.80216143702E+01  0.86506546474E+02  0.88698262081E+02  0.00000000000E+00 0.  1.
          4    1    1    2  501    0 -0.65349392080E+02  0.25083963269E+02  0.80104029080E+03  0.80409409408E+03  0.14200000000E+01 0. -1.
<mgrwt>
<rscale>  0 0.70012604E+02</rscale>
<asrwt>0</asrwt>
<pdfrwt beam="1">  1       11 0.10000000E+01 0.73776888E+02</pdfrwt>
<pdfrwt beam="2">  1        4 0.12962436E-02 0.70012604E+02</pdfrwt>
<totfact> 0.67824295E+03</totfact>
</mgrwt>
</event>
<event>
 5    1  0.1490736E-003  0.8352948E+02  0.7818608E-02  0.1335568E+00
         11   -1    0    0    0    0  0.00000000000E+00  0.00000000000E+00  0.99999847958E+03  0.99999847958E+03  0.51100000000E-03 0.  1.
          4   -1    0    0  501    0 -0.00000000000E+00 -0.00000000000E+00 -0.21360299524E+02  0.21407447203E+02  0.14200000000E+01 0.  1.
         11    1    1    2    0    0 -0.40525060051E+02 -0.10221615301E+02  0.17235340734E+02  0.45208615130E+02  0.51100000000E-03 0.  1.
         22    1    1    2    0    0 -0.33051071905E+02 -0.14862924501E+02  0.51463936370E+02  0.62942963272E+02  0.00000000000E+00 0. -1.
          4    1    1    2  501    0  0.73576131956E+02  0.25084539802E+02  0.90993890296E+03  0.91325434839E+03  0.14200000000E+01 0.  1.
<mgrwt>
<rscale>  0 0.77747654E+02</rscale>
<asrwt>0</asrwt>
<pdfrwt beam="1">  1       11 0.10000000E+01 0.83529475E+02</pdfrwt>
<pdfrwt beam="2">  1        4 0.32898991E-02 0.77747654E+02</pdfrwt>
<totfact> 0.16806235E+03</totfact>
</mgrwt>
</event>
<event>
 5    1  0.1490736E-003  0.6660475E+02  0.7818608E-02  0.1380550E+00
         11   -1    0    0    0    0  0.00000000000E+00  0.00000000000E+00  0.99984432474E+03  0.99984432474E+03  0.51100000000E-03 0.  1.
          4   -1    0    0  501    0 -0.00000000000E+00 -0.00000000000E+00 -0.70260955947E+01  0.71681531308E+01  0.14200000000E+01 0.  1.
         11    1    1    2    0    0  0.36271454595E+02 -0.40456120297E+02  0.15613153722E+03  0.16531597927E+03  0.51100000000E-03 0.  1.
         22    1    1    2    0    0  0.81052840298E+00 -0.12078718300E+02  0.28632969257E+02  0.31086963836E+02  0.00000000000E+00 0. -1.
          4    1    1    2  501    0 -0.37081982998E+02  0.52534838597E+02  0.80805372267E+03  0.81060953477E+03  0.14200000000E+01 0.  1.
<mgrwt>
<rscale>  0 0.64319508E+02</rscale>
<asrwt>0</asrwt>
<pdfrwt beam="1">  1       11 0.10000000E+01 0.66604754E+02</pdfrwt>
<pdfrwt beam="2">  1        4 0.10917728E-02 0.64319508E+02</pdfrwt>
<totfact> 0.85785188E+03</totfact>
</mgrwt>
</event>
<event>
 5    1  0.1490736E-003  0.8427986E+02  0.7818608E-02  0.1325954E+00
         11   -1    0    0    0    0  0.00000000000E+00  0.00000000000E+00  0.10002641844E+04  0.10002641844E+04  0.51100000000E-03 0. -1.
         -4   -1    0    0    0  501 -0.00000000000E+00 -0.00000000000E+00 -0.85792692058E+01  0.86959910364E+01  0.14200000000E+01 0.  1.
         11    1    1    2    0    0  0.44873238662E+02 -0.49792351191E+02  0.21007851036E+03  0.22051273501E+03  0.51100000000E-03 0. -1.
         22    1    1    2    0    0  0.10237485769E+01 -0.17057698136E+02  0.62911623812E+02  0.65191146159E+02  0.00000000000E+00 0. -1.
         -4    1    1    2    0  501 -0.45896987239E+02  0.66850049327E+02  0.71869478102E+03  0.72325629426E+03  0.14200000000E+01 0.  1.
<mgrwt>
<rscale>  0 0.81101658E+02</rscale>
<asrwt>0</asrwt>
<pdfrwt beam="1">  1       11 0.10000000E+01 0.84279857E+02</pdfrwt>
<pdfrwt beam="2">  1       -4 0.13292948E-02 0.81101658E+02</pdfrwt>
<totfact> 0.67604346E+03</totfact>
</mgrwt>
</event>
<event>
 5    1  0.1490736E-003  0.3305110E+02  0.7818608E-02  0.1592087E+00
         11   -1    0    0    0    0  0.00000000000E+00  0.00000000000E+00  0.10002503727E+04  0.10002503727E+04  0.51100000000E-03 0.  1.
          4   -1    0    0  501    0 -0.00000000000E+00 -0.00000000000E+00 -0.18833593941E+01  0.23586951069E+01  0.14200000000E+01 0.  1.
         11    1    1    2    0    0  0.29798045358E+01 -0.21574360838E+02  0.97532738321E+02  0.99934815381E+02  0.51100000000E-03 0.  1.
         22    1    1    2    0    0  0.92959758220E+01 -0.63647714472E+01  0.48447327399E+02  0.49740014215E+02  0.00000000000E+00 0.  1.
          4    1    1    2  501    0 -0.12275780358E+02  0.27939132286E+02  0.85238694756E+03  0.85293423819E+03  0.14200000000E+01 0.  1.
<mgrwt>
<rscale>  0 0.30550062E+02</rscale>
<asrwt>0</asrwt>
<pdfrwt beam="1">  1       11 0.10000000E+01 0.33051097E+02</pdfrwt>
<pdfrwt beam="2">  1        4 0.32647113E-03 0.30550062E+02</pdfrwt>
<totfact> 0.39039894E+04</totfact>
</mgrwt>
</event>
<event>
 5    1  0.1490736E-003  0.6621374E+02  0.7818608E-02  0.1390102E+00
         11   -1    0    0    0    0  0.00000000000E+00  0.00000000000E+00  0.99999939988E+03  0.99999939988E+03  0.51100000000E-03 0.  1.
          4   -1    0    0  501    0 -0.00000000000E+00 -0.00000000000E+00 -0.61643864314E+01  0.63258248534E+01  0.14200000000E+01 0.  1.
         11    1    1    2    0    0  0.20811215140E+02  0.28943258954E+02  0.14288077671E+03  0.14726077302E+03  0.51100000000E-03 0.  1.
         22    1    1    2    0    0  0.15005135044E+01  0.28758420329E+02  0.70415259792E+02  0.76076324123E+02  0.00000000000E+00 0.  1.
          4    1    1    2  501    0 -0.22311728645E+02 -0.57701679283E+02  0.78053897694E+03  0.78298812760E+03  0.14200000000E+01 0.  1.
<mgrwt>
<rscale>  0 0.61881447E+02</rscale>
<asrwt>0</asrwt>
<pdfrwt beam="1">  1       11 0.10000000E+01 0.66213743E+02</pdfrwt>
<pdfrwt beam="2">  1        4 0.96086243E-03 0.61881447E+02</pdfrwt>
<totfact> 0.10263466E+04</totfact>
</mgrwt>
</event>
<event>
 5    1  0.1490736E-003  0.7736329E+02  0.7818608E-02  0.1336705E+00
         11   -1    0    0    0    0  0.00000000000E+00  0.00000000000E+00  0.10003349426E+04  0.10003349426E+04  0.51100000000E-03 0.  1.
         -4   -1    0    0    0  501 -0.00000000000E+00 -0.00000000000E+00 -0.61553517089E+02  0.61569894153E+02  0.14200000000E+01 0. -1.
         11    1    1    2    0    0 -0.11971201691E+03 -0.21347062229E+02  0.63811681730E+03  0.64959967410E+03  0.51100000000E-03 0.  1.
         22    1    1    2    0    0  0.58075823687E+02 -0.23033566067E+02  0.32622616239E+03  0.33215486673E+03  0.00000000000E+00 0. -1.
         -4    1    1    2    0  501  0.61636193224E+02  0.44380628296E+02 -0.25561554195E+02  0.80150295920E+02  0.14200000000E+01 0. -1.
<mgrwt>
<rscale>  0 0.77363289E+02</rscale>
<asrwt>0</asrwt>
<pdfrwt beam="1">  1       11 0.10000000E+01 0.62476767E+02</pdfrwt>
<pdfrwt beam="2">  1       -4 0.94742812E-02 0.77363289E+02</pdfrwt>
<totfact> 0.30900771E+02</totfact>
</mgrwt>
</event>
<event>
 5    1  0.1490736E-003  0.1040170E+03  0.7818608E-02  0.1467783E+00
         11   -1    0    0    0    0  0.00000000000E+00  0.00000000000E+00  0.10000438841E+04  0.10000438841E+04  0.51100000000E-03 0.  1.
         -4   -1    0    0    0  501 -0.00000000000E+00 -0.00000000000E+00 -0.28012413166E+02  0.28048381261E+02  0.14200000000E+01 0. -1.
         11    1    1    2    0    0  0.19456838854E+01 -0.12671159287E+03  0.66581758795E+03  0.67777036958E+03  0.51100000000E-03 0.  1.
         22    1    1    2    0    0 -0.11658821729E+02  0.81701781038E+02  0.28995132313E+03  0.30146787380E+03  0.00000000000E+00 0. -1.
         -4    1    1    2    0  501  0.97131378437E+01  0.45009811831E+02  0.16262559806E+02  0.48854021936E+02  0.14200000000E+01 0. -1.
<mgrwt>
<rscale>  0 0.46067826E+02</rscale>
<asrwt>0</asrwt>
<pdfrwt beam="1">  1       11 0.10000000E+01 0.10401699E+03</pdfrwt>
<pdfrwt beam="2">  1       -4 0.43126355E-02 0.46067826E+02</pdfrwt>
<totfact> 0.98670191E+02</totfact>
</mgrwt>
</event>
<event>
 5    1  0.1490736E-003  0.2880551E+03  0.7818608E-02  0.1093576E+00
         11   -1    0    0    0    0  0.00000000000E+00  0.00000000000E+00  0.10001585886E+04  0.10001585886E+04  0.51100000000E-03 0. -1.
          4   -1    0    0  501    0 -0.00000000000E+00 -0.00000000000E+00 -0.21590147337E+03  0.21590614304E+03  0.14200000000E+01 0. -1.
         11    1    1    2    0    0  0.10475217100E+03 -0.24114120880E+03  0.77538321330E+03  0.81874368845E+03  0.51100000000E-03 0. -1.
         22    1    1    2    0    0  0.19667513961E+02 -0.14041817768E+02  0.97071425419E+02  0.10003422107E+03  0.00000000000E+00 0. -1.
          4    1    1    2  501    0 -0.12441968496E+03  0.25518302656E+03 -0.88197523499E+02  0.29728682212E+03  0.14200000000E+01 0. -1.
<mgrwt>
<rscale>  0 0.28390254E+03</rscale>
<asrwt>0</asrwt>
<pdfrwt beam="1">  1       11 0.10000000E+01 0.28805512E+03</pdfrwt>
<pdfrwt beam="2">  1        4 0.33221315E-01 0.28390254E+03</pdfrwt>
<totfact> 0.37726000E+01</totfact>
</mgrwt>
</event>
<event>
 5    1  0.1490736E-003  0.5846045E+02  0.7818608E-02  0.1531420E+00
         11   -1    0    0    0    0  0.00000000000E+00  0.00000000000E+00  0.10003807011E+04  0.10003807011E+04  0.51100000000E-03 0. -1.
          4   -1    0    0  501    0 -0.00000000000E+00 -0.00000000000E+00 -0.65337271099E+01  0.66862538052E+01  0.14200000000E+01 0. -1.
         11    1    1    2    0    0  0.53191066550E+02 -0.13819993508E+02  0.25731148984E+03  0.26311496458E+03  0.51100000000E-03 0. -1.
         22    1    1    2    0    0 -0.39619911383E+01 -0.23089357130E+02  0.56877528348E+02  0.61513161335E+02  0.00000000000E+00 0. -1.
          4    1    1    2  501    0 -0.49229075412E+02  0.36909350638E+02  0.67965795584E+03  0.68243882903E+03  0.14200000000E+01 0. -1.
<mgrwt>
<rscale>  0 0.37012775E+02</rscale>
<asrwt>0</asrwt>
<pdfrwt beam="1">  1       11 0.10000000E+01 0.58460448E+02</pdfrwt>
<pdfrwt beam="2">  1        4 0.10173863E-02 0.37012775E+02</pdfrwt>
<totfact> 0.81473834E+03</totfact>
</mgrwt>
</event>
<event>
 5    1  0.1490736E-003  0.1026215E+03  0.7818608E-02  0.1285193E+00
         11   -1    0    0    0    0  0.00000000000E+00  0.00000000000E+00  0.10001600154E+04  0.10001600154E+04  0.51100000000E-03 0. -1.
          4   -1    0    0  501    0 -0.00000000000E+00 -0.00000000000E+00 -0.99838590465E+01  0.10084336441E+02  0.14200000000E+01 0. -1.
         11    1    1    2    0    0  0.71935929157E+02 -0.46716759903E+02  0.44202433067E+03  0.45026963307E+03  0.51100000000E-03 0. -1.
         22    1    1    2    0    0  0.16116954918E+02  0.43928164801E+01  0.74415682090E+02  0.76267600023E+02  0.00000000000E+00 0.  1.
          4    1    1    2  501    0 -0.88052884075E+02  0.42323943423E+02  0.47373614357E+03  0.48370711873E+03  0.14200000000E+01 0. -1.
<mgrwt>
<rscale>  0 0.97706924E+02</rscale>
<asrwt>0</asrwt>
<pdfrwt beam="1">  1       11 0.10000000E+01 0.10262149E+03</pdfrwt>
<pdfrwt beam="2">  1        4 0.15440319E-02 0.97706924E+02</pdfrwt>
<totfact> 0.56181289E+03</totfact>
</mgrwt>
</event>
<event>
 5    1  0.1490736E-003  0.2590837E+03  0.7818608E-02  0.1117078E+00
         11   -1    0    0    0    0  0.00000000000E+00  0.00000000000E+00  0.10003489071E+04  0.10003489071E+04  0.51100000000E-03 0. -1.
         -4   -1    0    0    0  501 -0.00000000000E+00 -0.00000000000E+00 -0.71865539507E+02  0.71879567115E+02  0.14200000000E+01 0.  1.
         11    1    1    2    0    0  0.25700008912E+02 -0.26613073788E+02  0.14333908931E+03  0.14803661938E+03  0.51100000000E-03 0. -1.
         22    1    1    2    0    0  0.21812513811E+03  0.14685762839E+02  0.51834091331E+03  0.56255804138E+03  0.00000000000E+00 0. -1.
         -4    1    1    2    0  501 -0.24382514702E+03  0.11927310949E+02  0.26680336495E+03  0.36163381343E+03  0.14200000000E+01 0.  1.
<mgrwt>
<rscale>  0 0.24412083E+03</rscale>
<asrwt>0</asrwt>
<pdfrwt beam="1">  1       11 0.10000000E+01 0.25908367E+03</pdfrwt>
<pdfrwt beam="2">  1       -4 0.11061251E-01 0.24412083E+03</pdfrwt>
<totfact> 0.27568441E+02</totfact>
</mgrwt>
</event>
<event>
 5    1  0.2465260E-003  0.1714439E+03  0.7818608E-02  0.1182621E+00
         11   -1    0    0    0    0  0.00000000000E+00  0.00000000000E+00  0.99998682764E+03  0.99998682764E+03  0.51100000000E-03 0. -1.
         -4   -1    0    0    0  501 -0.00000000000E+00 -0.00000000000E+00 -0.14550069315E+03  0.14550762216E+03  0.14200000000E+01 0.  1.
         11    1    1    2    0    0 -0.42201068054E+02 -0.15216057275E+03  0.86935886335E+03  0.88358282200E+03  0.51100000000E-03 0. -1.
         22    1    1    2    0    0  0.91277028055E+01 -0.99975816624E+01  0.73194840049E+02  0.74436222415E+02  0.00000000000E+00 0.  1.
         -4    1    1    2    0  501  0.33073365248E+02  0.16215815441E+03 -0.88067568911E+02  0.18747540538E+03  0.14200000000E+01 0.  1.
<mgrwt>
<rscale>  0 0.16550266E+03</rscale>
<asrwt>0</asrwt>
<pdfrwt beam="1">  1       11 0.10000000E+01 0.17144388E+03</pdfrwt>
<pdfrwt beam="2">  1       -4 0.22385037E-01 0.16550266E+03</pdfrwt>
<totfact> 0.76219490E+01</totfact>
</mgrwt>
</event>
<event>
 5    1  0.1490736E-003  0.5277164E+02  0.7818608E-02  0.1521629E+00
         11   -1    0    0    0    0  0.00000000000E+00  0.00000000000E+00  0.10001325274E+04  0.10001325274E+04  0.51100000000E-03 0.  1.
          4   -1    0    0  501    0 -0.00000000000E+00 -0.00000000000E+00 -0.76717438010E+01  0.78020544056E+01  0.14200000000E+01 0.  1.
         11    1    1    2    0    0  0.22849721461E+02  0.42130419322E+02  0.10925379822E+03  0.11930412579E+03  0.51100000000E-03 0.  1.
         22    1    1    2    0    0  0.24030043068E+02 -0.13759040688E+02  0.10818688482E+03  0.11167433105E+03  0.00000000000E+00 0.  1.
          4    1    1    2  501    0 -0.46879764529E+02 -0.28371378635E+02  0.77502010054E+03  0.77695612495E+03  0.14200000000E+01 0.  1.
<mgrwt>
<rscale>  0 0.38233390E+02</rscale>
<asrwt>0</asrwt>
<pdfrwt beam="1">  1       11 0.10000000E+01 0.52771640E+02</pdfrwt>
<pdfrwt beam="2">  1        4 0.11905274E-02 0.38233390E+02</pdfrwt>
<totfact> 0.65361971E+03</totfact>
</mgrwt>
</event>
<event>
 5    1  0.1490736E-003  0.6799182E+02  0.7818608E-02  0.1378343E+00
         11   -1    0    0    0    0  0.00000000000E+00  0.00000000000E+00  0.10000376755E+04  0.10000376755E+04  0.51100000000E-03 0. -1.
         -4   -1    0    0    0  501 -0.00000000000E+00 -0.00000000000E+00 -0.46393616166E+01  0.48518116420E+01  0.14200000000E+01 0.  1.
         11    1    1    2    0    0  0.25620900753E+01  0.29082629506E+02  0.16002839866E+03  0.16266976370E+03  0.51100000000E-03 0. -1.
         22    1    1    2    0    0 -0.19449760655E+02  0.33567056642E+02  0.21576094207E+03  0.21922094928E+03  0.00000000000E+00 0. -1.
         -4    1    1    2    0  501  0.16887670579E+02 -0.62649686148E+02  0.61960897320E+03  0.62299877421E+03  0.14200000000E+01 0.  1.
<mgrwt>
<rscale>  0 0.64901410E+02</rscale>
<asrwt>0</asrwt>
<pdfrwt beam="1">  1       11 0.10000000E+01 0.67991823E+02</pdfrwt>
<pdfrwt beam="2">  1       -4 0.73019529E-03 0.64901410E+02</pdfrwt>
<totfact> 0.15575764E+04</totfact>
</mgrwt>
</event>
<event>
 5    1  0.1490736E-003  0.9740268E+02  0.7818608E-02  0.1577143E+00
         11   -1    0    0    0    0  0.00000000000E+00  0.00000000000E+00  0.10000966194E+04  0.10000966194E+04  0.51100000000E-03 0.  1.
          4   -1    0    0  501    0 -0.00000000000E+00 -0.00000000000E+00 -0.14378999142E+02  0.14448945163E+02  0.14200000000E+01 0.  1.
         11    1    1    2    0    0 -0.39882237448E+02 -0.98870338471E+02  0.58299289974E+03  0.59266065994E+03  0.51100000000E-03 0.  1.
         22    1    1    2    0    0  0.53989726687E+02  0.70201267637E+02  0.34165822429E+03  0.35294964342E+03  0.00000000000E+00 0.  1.
          4    1    1    2  501    0 -0.14107489239E+02  0.28669070835E+02  0.61066496205E+02  0.68935261180E+02  0.14200000000E+01 0.  1.
<mgrwt>
<rscale>  0 0.31983641E+02</rscale>
<asrwt>0</asrwt>
<pdfrwt beam="1">  1       11 0.10000000E+01 0.97402681E+02</pdfrwt>
<pdfrwt beam="2">  1        4 0.22178259E-02 0.31983641E+02</pdfrwt>
<totfact> 0.24670333E+03</totfact>
</mgrwt>
</event>
<event>
 5    1  0.1490736E-003  0.1521391E+03  0.7818608E-02  0.1395666E+00
         11   -1    0    0    0    0  0.00000000000E+00  0.00000000000E+00  0.10000794433E+04  0.10000794433E+04  0.51100000000E-03 0.  1.
          4   -1    0    0  501    0 -0.00000000000E+00 -0.00000000000E+00 -0.39138529612E+02  0.39164280923E+02  0.14200000000E+01 0.  1.
         11    1    1    2    0    0  0.13533362029E+03 -0.62944669893E+02  0.70568833555E+03  0.72129969305E+03  0.51100000000E-03 0.  1.
         22    1    1    2    0    0  0.20428310730E+02  0.12735035415E+02  0.49466618852E+02  0.55013120135E+02  0.00000000000E+00 0.  1.
          4    1    1    2  501    0 -0.15576193102E+03  0.50209634477E+02  0.20578595933E+03  0.26293091109E+03  0.14200000000E+01 0.  1.
<mgrwt>
<rscale>  0 0.60519139E+02</rscale>
<asrwt>0</asrwt>
<pdfrwt beam="1">  1       11 0.10000000E+01 0.15213914E+03</pdfrwt>
<pdfrwt beam="2">  1        4 0.60238490E-02 0.60519139E+02</pdfrwt>
<totfact> 0.61768159E+02</totfact>
</mgrwt>
</event>
<event>
 5    1  0.2481352E-003  0.3579302E+03  0.7818608E-02  0.1059924E+00
         11   -1    0    0    0    0  0.00000000000E+00  0.00000000000E+00  0.10003395928E+04  0.10003395928E+04  0.51100000000E-03 0. -1.
         -4   -1    0    0    0  501 -0.00000000000E+00 -0.00000000000E+00 -0.96787241363E+03  0.96787345530E+03  0.14200000000E+01 0.  1.
         11    1    1    2    0    0  0.28881007830E+03  0.18897437517E+03  0.88987444206E+03  0.95446272763E+03  0.51100000000E-03 0. -1.
         22    1    1    2    0    0  0.11966626333E+02  0.26509765404E+01  0.43303316047E+02  0.45004499809E+02  0.00000000000E+00 0.  1.
         -4    1    1    2    0  501 -0.30077670463E+03 -0.19162535171E+03 -0.90071057898E+03  0.96874582062E+03  0.14200000000E+01 0.  1.
<mgrwt>
<rscale>  0 0.35663555E+03</rscale>
<asrwt>0</asrwt>
<pdfrwt beam="1">  1       11 0.10000000E+01 0.35793018E+03</pdfrwt>
<pdfrwt beam="2">  1       -4 0.14895417E+00 0.35663555E+03</pdfrwt>
<totfact> 0.13544664E+00</totfact>
</mgrwt>
</event>
<event>
 5    1  0.1490736E-003  0.7235402E+02  0.7818608E-02  0.1372819E+00
         11   -1    0    0    0    0  0.00000000000E+00  0.00000000000E+00  0.99985120326E+03  0.99985120326E+03  0.51100000000E-03 0.  1.
          4   -1    0    0  501    0 -0.00000000000E+00 -0.00000000000E+00 -0.59668556144E+01  0.61334954082E+01  0.14200000000E+01 0.  1.
         11    1    1    2    0    0 -0.34403877706E+02  0.44312433786E+02  0.21291843908E+03  0.22018510460E+03  0.51100000000E-03 0.  1.
         22    1    1    2    0    0 -0.15998129232E+02 -0.11244936929E+01  0.73709112026E+02  0.75433665036E+02  0.00000000000E+00 0.  1.
          4    1    1    2  501    0  0.50402006938E+02 -0.43187940093E+02  0.70725679654E+03  0.71036592903E+03  0.14200000000E+01 0.  1.
<mgrwt>
<rscale>  0 0.66389584E+02</rscale>
<asrwt>0</asrwt>
<pdfrwt beam="1">  1       11 0.10000000E+01 0.72354018E+02</pdfrwt>
<pdfrwt beam="2">  1        4 0.93073526E-03 0.66389584E+02</pdfrwt>
<totfact> 0.10955828E+04</totfact>
</mgrwt>
</event>
<event>
 5    1  0.1490736E-003  0.1177252E+03  0.7818608E-02  0.1435359E+00
         11   -1    0    0    0    0  0.00000000000E+00  0.00000000000E+00  0.10001384444E+04  0.10001384444E+04  0.51100000000E-03 0.  1.
         -4   -1    0    0    0  501 -0.00000000000E+00 -0.00000000000E+00 -0.11990790393E+03  0.11991631175E+03  0.14200000000E+01 0. -1.
         11    1    1    2    0    0  0.77854828921E+02 -0.48162445385E+02  0.27551091207E+03  0.29032267945E+03  0.51100000000E-03 0.  1.
         22    1    1    2    0    0 -0.12436695360E+03  0.71143638639E+02  0.70361020295E+03  0.71805004990E+03  0.00000000000E+00 0.  1.
         -4    1    1    2    0  501  0.46512124677E+02 -0.22981193254E+02 -0.98890574529E+02  0.11168202683E+03  0.14200000000E+01 0. -1.
<mgrwt>
<rscale>  0 0.51899223E+02</rscale>
<asrwt>0</asrwt>
<pdfrwt beam="1">  1       11 0.10000000E+01 0.11772524E+03</pdfrwt>
<pdfrwt beam="2">  1       -4 0.18450648E-01 0.51899223E+02</pdfrwt>
<totfact> 0.93650219E+01</totfact>
</mgrwt>
</event>
<event>
 5    1  0.1888020E-003  0.5378112E+03  0.7818608E-02  0.1004355E+00
         11   -1    0    0    0    0  0.00000000000E+00  0.00000000000E+00  0.10003098958E+04  0.10003098958E+04  0.51100000000E-03 0.  1.
          4   -1    0    0  501    0 -0.00000000000E+00 -0.00000000000E+00 -0.37016265213E+03  0.37016537579E+03  0.14200000000E+01 0.  1.
         11    1    1    2    0    0  0.45446929330E+03  0.27180529420E+03  0.56788813853E+03  0.77647755562E+03  0.51100000000E-03 0.  1.
         22    1    1    2    0    0  0.13622013857E+02 -0.12690340777E+00  0.50863681931E+02  0.52656333955E+02  0.00000000000E+00 0. -1.
          4    1    1    2  501    0 -0.46809130715E+03 -0.27167839079E+03  0.11395423252E+02  0.54134138206E+03  0.14200000000E+01 0.  1.
<mgrwt>
<rscale>  0 0.53781120E+03</rscale>
<asrwt>0</asrwt>
<pdfrwt beam="1">  1       11 0.10000000E+01 0.13622605E+02</pdfrwt>
<pdfrwt beam="2">  1        4 0.56966034E-01 0.53781120E+03</pdfrwt>
<totfact> 0.12948459E+01</totfact>
</mgrwt>
</event>
<event>
 5    1  0.1490736E-003  0.4745275E+02  0.7818608E-02  0.1467774E+00
         11   -1    0    0    0    0  0.00000000000E+00  0.00000000000E+00  0.10000799044E+04  0.10000799044E+04  0.51100000000E-03 0. -1.
          4   -1    0    0  501    0 -0.00000000000E+00 -0.00000000000E+00 -0.31064220599E+01  0.34155904342E+01  0.14200000000E+01 0. -1.
         11    1    1    2    0    0 -0.67713504951E+01 -0.74366875823E+01  0.38155808475E+02  0.39459108332E+02  0.51100000000E-03 0. -1.
         22    1    1    2    0    0 -0.35795992086E+02 -0.10124495179E+02  0.17722515812E+03  0.18108731353E+03  0.00000000000E+00 0. -1.
          4    1    1    2  501    0  0.42567342581E+02  0.17561182761E+02  0.78159251579E+03  0.78294907301E+03  0.14200000000E+01 0. -1.
<mgrwt>
<rscale>  0 0.46069406E+02</rscale>
<asrwt>0</asrwt>
<pdfrwt beam="1">  1       11 0.10000000E+01 0.47452749E+02</pdfrwt>
<pdfrwt beam="2">  1        4 0.50181090E-03 0.46069406E+02</pdfrwt>
<totfact> 0.24353494E+04</totfact>
</mgrwt>
</event>
<event>
 5    1  0.1490736E-003  0.1555241E+03  0.7818608E-02  0.1633876E+00
         11   -1    0    0    0    0  0.00000000000E+00  0.00000000000E+00  0.10003091500E+04  0.10003091500E+04  0.51100000000E-03 0. -1.
         -4   -1    0    0    0  501 -0.00000000000E+00 -0.00000000000E+00 -0.36959018677E+03  0.36959291464E+03  0.14200000000E+01 0.  1.
         11    1    1    2    0    0  0.13812115801E+03 -0.68480413464E+02  0.69184406428E+03  0.70881254969E+03  0.51100000000E-03 0. -1.
         22    1    1    2    0    0 -0.13001512772E+03  0.94192162559E+02  0.27792581515E+03  0.32096550539E+03  0.00000000000E+00 0. -1.
         -4    1    1    2    0  501 -0.81060302835E+01 -0.25711749096E+02 -0.33905091615E+03  0.34012400961E+03  0.14200000000E+01 0.  1.
<mgrwt>
<rscale>  0 0.26996633E+02</rscale>
<asrwt>0</asrwt>
<pdfrwt beam="1">  1       11 0.10000000E+01 0.15552411E+03</pdfrwt>
<pdfrwt beam="2">  1       -4 0.56877893E-01 0.26996633E+02</pdfrwt>
<totfact> 0.10479906E+01</totfact>
</mgrwt>
</event>
<event>
 5    1  0.1490736E-003  0.1026488E+03  0.7818608E-02  0.1280341E+00
         11   -1    0    0    0    0  0.00000000000E+00  0.00000000000E+00  0.10004148047E+04  0.10004148047E+04  0.51100000000E-03 0.  1.
          4   -1    0    0  501    0 -0.00000000000E+00 -0.00000000000E+00 -0.10319996744E+02  0.10417232492E+02  0.14200000000E+01 0.  1.
         11    1    1    2    0    0  0.41087728048E+02 -0.33548839825E+02  0.30067716611E+03  0.30532029784E+03  0.51100000000E-03 0.  1.
         22    1    1    2    0    0  0.21033522351E+02 -0.44775146184E+02  0.25262019702E+03  0.25741831077E+03  0.00000000000E+00 0.  1.
          4    1    1    2  501    0 -0.62121250399E+02  0.78323986009E+02  0.43679744482E+03  0.44809342858E+03  0.14200000000E+01 0.  1.
<mgrwt>
<rscale>  0 0.99978562E+02</rscale>
<asrwt>0</asrwt>
<pdfrwt beam="1">  1       11 0.10000000E+01 0.10264877E+03</pdfrwt>
<pdfrwt beam="2">  1        4 0.15959107E-02 0.99978562E+02</pdfrwt>
<totfact> 0.53691414E+03</totfact>
</mgrwt>
</event>
<event>
 5    1  0.1490736E-003  0.1921085E+03  0.7818608E-02  0.1159994E+00
         11   -1    0    0    0    0  0.00000000000E+00  0.00000000000E+00  0.10002855306E+04  0.10002855306E+04  0.51100000000E-03 0. -1.
          4   -1    0    0  501    0 -0.00000000000E+00 -0.00000000000E+00 -0.37373215097E+02  0.37400181907E+02  0.14200000000E+01 0. -1.
         11    1    1    2    0    0 -0.83769043109E+02  0.19624852143E+02  0.14021110452E+03  0.16450392468E+03  0.51100000000E-03 0. -1.
         22    1    1    2    0    0 -0.10278375125E+03  0.60027483413E+01  0.25225525489E+03  0.27245778780E+03  0.00000000000E+00 0. -1.
          4    1    1    2  501    0  0.18655279436E+03 -0.25627600485E+02  0.57044595610E+03  0.60072400004E+03  0.14200000000E+01 0. -1.
<mgrwt>
<rscale>  0 0.18831021E+03</rscale>
<asrwt>0</asrwt>
<pdfrwt beam="1">  1       11 0.10000000E+01 0.19210855E+03</pdfrwt>
<pdfrwt beam="2">  1        4 0.57535195E-02 0.18831021E+03</pdfrwt>
<totfact> 0.79810032E+02</totfact>
</mgrwt>
</event>
<event>
 5    1  0.1490736E-003  0.4078943E+02  0.7818608E-02  0.1572427E+00
         11   -1    0    0    0    0  0.00000000000E+00  0.00000000000E+00  0.10003139556E+04  0.10003139556E+04  0.51100000000E-03 0. -1.
          4   -1    0    0  501    0 -0.00000000000E+00 -0.00000000000E+00 -0.76167531430E+01  0.77479886707E+01  0.14200000000E+01 0. -1.
         11    1    1    2    0    0 -0.39884002912E+02 -0.50542631882E+02  0.17772439726E+03  0.18902712162E+03  0.51100000000E-03 0. -1.
         22    1    1    2    0    0  0.16462946018E+02  0.19877091820E+02  0.10928010910E+03  0.11228655136E+03  0.00000000000E+00 0. -1.
          4    1    1    2  501    0  0.23421056894E+02  0.30665540062E+02  0.70569269613E+03  0.70674827133E+03  0.14200000000E+01 0. -1.
<mgrwt>
<rscale>  0 0.32455967E+02</rscale>
<asrwt>0</asrwt>
<pdfrwt beam="1">  1       11 0.10000000E+01 0.40789433E+02</pdfrwt>
<pdfrwt beam="2">  1        4 0.11823518E-02 0.32455967E+02</pdfrwt>
<totfact> 0.62735570E+03</totfact>
</mgrwt>
</event>
<event>
 5    1  0.1490736E-003  0.1088210E+03  0.7818608E-02  0.1262769E+00
         11   -1    0    0    0    0  0.00000000000E+00  0.00000000000E+00  0.10001008827E+04  0.10001008827E+04  0.51100000000E-03 0. -1.
          4   -1    0    0  501    0 -0.00000000000E+00 -0.00000000000E+00 -0.26979904204E+02  0.27017246915E+02  0.14200000000E+01 0. -1.
         11    1    1    2    0    0  0.71897498302E+02 -0.22947479731E+02  0.15248593614E+03  0.17014052371E+03  0.51100000000E-03 0. -1.
         22    1    1    2    0    0  0.11402700115E+02 -0.96314351585E+02  0.25176546141E+03  0.26980052530E+03  0.00000000000E+00 0. -1.
          4    1    1    2  501    0 -0.83300198417E+02  0.11926183132E+03  0.56886958096E+03  0.58717708062E+03  0.14200000000E+01 0. -1.
<mgrwt>
<rscale>  0 0.10882104E+03</rscale>
<asrwt>0</asrwt>
<pdfrwt beam="1">  1       11 0.10000000E+01 0.75470807E+02</pdfrwt>
<pdfrwt beam="2">  1        4 0.41541235E-02 0.10882104E+03</pdfrwt>
<totfact> 0.12402836E+03</totfact>
</mgrwt>
</event>
<event>
 5    1  0.1490736E-003  0.1572357E+03  0.7818608E-02  0.1193297E+00
         11   -1    0    0    0    0  0.00000000000E+00  0.00000000000E+00  0.10001138617E+04  0.10001138617E+04  0.51100000000E-03 0. -1.
          4   -1    0    0  501    0 -0.00000000000E+00 -0.00000000000E+00 -0.31403511496E+02  0.31435599792E+02  0.14200000000E+01 0.  1.
         11    1    1    2    0    0  0.13453600356E+03  0.41727539577E+02  0.20831342162E+03  0.25146690725E+03  0.51100000000E-03 0. -1.
         22    1    1    2    0    0  0.14895739757E+02  0.30124472596E+01  0.35930471172E+02  0.39012262945E+02  0.00000000000E+00 0. -1.
          4    1    1    2  501    0 -0.14943174332E+03 -0.44739986837E+02  0.72446645739E+03  0.74107029128E+03  0.14200000000E+01 0.  1.
<mgrwt>
<rscale>  0 0.15599208E+03</rscale>
<asrwt>0</asrwt>
<pdfrwt beam="1">  1       11 0.10000000E+01 0.15723571E+03</pdfrwt>
<pdfrwt beam="2">  1        4 0.48344056E-02 0.15599208E+03</pdfrwt>
<totfact> 0.10306211E+03</totfact>
</mgrwt>
</event>
<event>
 5    1  0.1490736E-003  0.3870436E+02  0.7818608E-02  0.1595709E+00
         11   -1    0    0    0    0  0.00000000000E+00  0.00000000000E+00  0.10003328848E+04  0.10003328848E+04  0.51100000000E-03 0.  1.
          4   -1    0    0  501    0 -0.00000000000E+00 -0.00000000000E+00 -0.11095369976E+02  0.11185867642E+02  0.14200000000E+01 0.  1.
         11    1    1    2    0    0  0.93212104428E+01  0.21877335417E+02  0.74801230252E+01  0.24928999375E+02  0.51100000000E-03 0.  1.
         22    1    1    2    0    0  0.23573084122E+02  0.21427281661E+00  0.67960416272E+02  0.71932985394E+02  0.00000000000E+00 0.  1.
          4    1    1    2  501    0 -0.32894294564E+02 -0.22091608234E+02  0.91379697556E+03  0.91465676771E+03  0.14200000000E+01 0.  1.
<mgrwt>
<rscale>  0 0.30216423E+02</rscale>
<asrwt>0</asrwt>
<pdfrwt beam="1">  1       11 0.10000000E+01 0.38704359E+02</pdfrwt>
<pdfrwt beam="2">  1        4 0.17145894E-02 0.30216423E+02</pdfrwt>
<totfact> 0.35524818E+03</totfact>
</mgrwt>
</event>
<event>
 5    1  0.1490736E-003  0.8618075E+02  0.7818608E-02  0.1322926E+00
         11   -1    0    0    0    0  0.00000000000E+00  0.00000000000E+00  0.10003988668E+04  0.10003988668E+04  0.51100000000E-03 0.  1.
          4   -1    0    0  501    0 -0.00000000000E+00 -0.00000000000E+00 -0.70191725555E+01  0.71613674227E+01  0.14200000000E+01 0.  1.
         11    1    1    2    0    0 -0.57245896541E+02  0.30091885354E+02  0.38672208976E+03  0.39209257701E+03  0.51100000000E-03 0.  1.
         22    1    1    2    0    0 -0.81779093991E+01  0.19650009209E+02  0.10738822812E+03  0.10947708712E+03  0.00000000000E+00 0. -1.
          4    1    1    2  501    0  0.65423805940E+02 -0.49741894563E+02  0.49926937640E+03  0.50599057014E+03  0.14200000000E+01 0.  1.
<mgrwt>
<rscale>  0 0.82198217E+02</rscale>
<asrwt>0</asrwt>
<pdfrwt beam="1">  1       11 0.10000000E+01 0.86180750E+02</pdfrwt>
<pdfrwt beam="2">  1        4 0.10913234E-02 0.82198217E+02</pdfrwt>
<totfact> 0.91123550E+03</totfact>
</mgrwt>
</event>
<event>
 5    1  0.1490736E-003  0.4151288E+02  0.7818608E-02  0.1497364E+00
         11   -1    0    0    0    0  0.00000000000E+00  0.00000000000E+00  0.99993661691E+03  0.99993661691E+03  0.51100000000E-03 0.  1.
          4   -1    0    0  501    0 -0.00000000000E+00 -0.00000000000E+00 -0.35179961417E+01  0.37937707960E+01  0.14200000000E+01 0.  1.
         11    1    1    2    0    0 -0.12266597537E+02 -0.19704159666E+01  0.45117582071E+02  0.46796882016E+02  0.51100000000E-03 0.  1.
         22    1    1    2    0    0  0.91521607191E+01  0.41367778479E+02  0.19271209292E+03  0.19731448477E+03  0.00000000000E+00 0.  1.
          4    1    1    2  501    0  0.31144368177E+01 -0.39397362512E+02  0.75858894578E+03  0.75961902093E+03  0.14200000000E+01 0.  1.
<mgrwt>
<rscale>  0 0.41512882E+02</rscale>
<asrwt>0</asrwt>
<pdfrwt beam="1">  1       11 0.10000000E+01 0.12423852E+02</pdfrwt>
<pdfrwt beam="2">  1        4 0.56248550E-03 0.41512882E+02</pdfrwt>
<totfact> 0.19980908E+04</totfact>
</mgrwt>
</event>
<event>
 5    1  0.1490736E-003  0.8068224E+02  0.7818608E-02  0.1334402E+00
         11   -1    0    0    0    0  0.00000000000E+00  0.00000000000E+00  0.10001164878E+04  0.10001164878E+04  0.51100000000E-03 0.  1.
          4   -1    0    0  501    0 -0.00000000000E+00 -0.00000000000E+00 -0.69562532727E+01  0.70997084161E+01  0.14200000000E+01 0.  1.
         11    1    1    2    0    0 -0.42367633828E+02 -0.23300853808E+02  0.17252296939E+03  0.17917064813E+03  0.51100000000E-03 0.  1.
         22    1    1    2    0    0 -0.29922795675E+02 -0.63400677789E+01  0.16969968701E+03  0.17243420175E+03  0.00000000000E+00 0.  1.
          4    1    1    2  501    0  0.72290429503E+02  0.29640921586E+02  0.65093757812E+03  0.65561134633E+03  0.14200000000E+01 0.  1.
<mgrwt>
<rscale>  0 0.78144141E+02</rscale>
<asrwt>0</asrwt>
<pdfrwt beam="1">  1       11 0.10000000E+01 0.80682240E+02</pdfrwt>
<pdfrwt beam="2">  1        4 0.10814313E-02 0.78144141E+02</pdfrwt>
<totfact> 0.91276124E+03</totfact>
</mgrwt>
</event>
<event>
 5    1  0.1490736E-003  0.1322753E+03  0.7818608E-02  0.1224118E+00
         11   -1    0    0    0    0  0.00000000000E+00  0.00000000000E+00  0.10000439106E+04  0.10000439106E+04  0.51100000000E-03 0.  1.
          4   -1    0    0  501    0 -0.00000000000E+00 -0.00000000000E+00 -0.33237485299E+02  0.33267804692E+02  0.14200000000E+01 0.  1.
         11    1    1    2    0    0  0.53317122237E+02  0.74649428572E+01  0.37680408659E+02  0.65713423990E+02  0.51100000000E-03 0.  1.
         22    1    1    2    0    0  0.97118685929E+02 -0.52644847701E+02  0.45090455103E+03  0.46423962917E+03  0.00000000000E+00 0.  1.
          4    1    1    2  501    0 -0.15043580817E+03  0.45179904844E+02  0.47822146565E+03  0.50335866218E+03  0.14200000000E+01 0.  1.
<mgrwt>
<rscale>  0 0.13227529E+03</rscale>
<asrwt>0</asrwt>
<pdfrwt beam="1">  1       11 0.10000000E+01 0.53837197E+02</pdfrwt>
<pdfrwt beam="2">  1        4 0.51160936E-02 0.13227529E+03</pdfrwt>
<totfact> 0.91792866E+02</totfact>
</mgrwt>
</event>
<event>
 5    1  0.1490736E-003  0.1746410E+03  0.7818608E-02  0.1175820E+00
         11   -1    0    0    0    0  0.00000000000E+00  0.00000000000E+00  0.99996923319E+03  0.99996923319E+03  0.51100000000E-03 0. -1.
         -4   -1    0    0    0  501 -0.00000000000E+00 -0.00000000000E+00 -0.30446388903E+02  0.30479484859E+02  0.14200000000E+01 0. -1.
         11    1    1    2    0    0  0.17729728362E+01  0.15954080092E+03  0.37370896583E+03  0.40634320683E+03  0.51100000000E-03 0. -1.
         22    1    1    2    0    0  0.57113112123E+01  0.12249246033E+02  0.53565095552E+02  0.55243846405E+02  0.00000000000E+00 0. -1.
         -4    1    1    2    0  501 -0.74842840485E+01 -0.17179004695E+03  0.54224878290E+03  0.56886166482E+03  0.14200000000E+01 0. -1.
<mgrwt>
<rscale>  0 0.17195886E+03</rscale>
<asrwt>0</asrwt>
<pdfrwt beam="1">  1       11 0.10000000E+01 0.17464102E+03</pdfrwt>
<pdfrwt beam="2">  1       -4 0.46865389E-02 0.17195886E+03</pdfrwt>
<totfact> 0.10988513E+03</totfact>
</mgrwt>
</event>
<event>
 5    1  0.1490736E-003  0.1289369E+03  0.7818608E-02  0.1232487E+00
         11   -1    0    0    0    0  0.00000000000E+00  0.00000000000E+00  0.10002049977E+04  0.10002049977E+04  0.51100000000E-03 0. -1.
          4   -1    0    0  501    0 -0.00000000000E+00 -0.00000000000E+00 -0.16366564369E+02  0.16428050074E+02  0.14200000000E+01 0. -1.
         11    1    1    2    0    0  0.10101137782E+03  0.52460211275E+02  0.39632002776E+03  0.41234080155E+03  0.51100000000E-03 0. -1.
         22    1    1    2    0    0  0.14624975648E+02 -0.78128781823E+00  0.67257948093E+02  0.68834089701E+02  0.00000000000E+00 0.  1.
          4    1    1    2  501    0 -0.11563635347E+03 -0.51678923456E+02  0.52026045744E+03  0.53545815648E+03  0.14200000000E+01 0. -1.
<mgrwt>
<rscale>  0 0.12666686E+03</rscale>
<asrwt>0</asrwt>
<pdfrwt beam="1">  1       11 0.10000000E+01 0.12893695E+03</pdfrwt>
<pdfrwt beam="2">  1        4 0.25232573E-02 0.12666686E+03</pdfrwt>
<totfact> 0.27822152E+03</totfact>
</mgrwt>
</event>
<event>
 5    1  0.1490736E-003  0.1264684E+03  0.7818608E-02  0.1232792E+00
         11   -1    0    0    0    0  0.00000000000E+00  0.00000000000E+00  0.99992132681E+03  0.99992132681E+03  0.51100000000E-03 0. -1.
          4   -1    0    0  501    0 -0.00000000000E+00 -0.00000000000E+00 -0.29977863388E+02  0.30011476027E+02  0.14200000000E+01 0. -1.
         11    1    1    2    0    0  0.26375288738E+02  0.13153311114E+02  0.64810913304E+02  0.71197752302E+02  0.51100000000E-03 0. -1.
         22    1    1    2    0    0 -0.97944236892E+01 -0.12904923630E+03  0.16651699310E+03  0.21089700120E+03  0.00000000000E+00 0. -1.
          4    1    1    2  501    0 -0.16580865049E+02  0.11589592519E+03  0.73861555702E+03  0.74783804933E+03  0.14200000000E+01 0. -1.
<mgrwt>
<rscale>  0 0.12646839E+03</rscale>
<asrwt>0</asrwt>
<pdfrwt beam="1">  1       11 0.10000000E+01 0.29473146E+02</pdfrwt>
<pdfrwt beam="2">  1        4 0.46142789E-02 0.12646839E+03</pdfrwt>
<totfact> 0.10755499E+03</totfact>
</mgrwt>
</event>
<event>
 5    1  0.1490736E-003  0.8350238E+02  0.7818608E-02  0.1319396E+00
         11   -1    0    0    0    0  0.00000000000E+00  0.00000000000E+00  0.10001774323E+04  0.10001774323E+04  0.51100000000E-03 0. -1.
          4   -1    0    0  501    0 -0.00000000000E+00 -0.00000000000E+00 -0.10142291830E+02  0.10241214945E+02  0.14200000000E+01 0. -1.
         11    1    1    2    0    0 -0.21509800250E+02 -0.75479507124E+02  0.46037868849E+03  0.46702073222E+03  0.51100000000E-03 0. -1.
         22    1    1    2    0    0 -0.31071588148E+02  0.26521626433E+01  0.15685528359E+03  0.15992516233E+03  0.00000000000E+00 0.  1.
          4    1    1    2  501    0  0.52581388398E+02  0.72827344481E+02  0.37280116843E+03  0.38347275273E+03  0.14200000000E+01 0. -1.
<mgrwt>
<rscale>  0 0.83502381E+02</rscale>
<asrwt>0</asrwt>
<pdfrwt beam="1">  1       11 0.10000000E+01 0.31184572E+02</pdfrwt>
<pdfrwt beam="2">  1        4 0.15683178E-02 0.83502381E+02</pdfrwt>
<totfact> 0.53042405E+03</totfact>
</mgrwt>
</event>
<event>
 5    1  0.1490736E-003  0.8261014E+02  0.7818608E-02  0.1321803E+00
         11   -1    0    0    0    0  0.00000000000E+00  0.00000000000E+00  0.10005278531E+04  0.10005278531E+04  0.51100000000E-03 0.  1.
          4   -1    0    0  501    0 -0.00000000000E+00 -0.00000000000E+00 -0.18461929849E+02  0.18516458995E+02  0.14200000000E+01 0.  1.
         11    1    1    2    0    0 -0.26065619192E+02  0.27568363978E+02  0.57507260593E+02  0.68894965109E+02  0.51100000000E-03 0.  1.
         22    1    1    2    0    0  0.85198824476E+02  0.13401100929E+02  0.15619904050E+03  0.17842805119E+03  0.00000000000E+00 0.  1.
          4    1    1    2  501    0 -0.59133205284E+02 -0.40969464906E+02  0.76835962216E+03  0.77172129579E+03  0.14200000000E+01 0.  1.
<mgrwt>
<rscale>  0 0.82610145E+02</rscale>
<asrwt>0</asrwt>
<pdfrwt beam="1">  1       11 0.10000000E+01 0.37939856E+02</pdfrwt>
<pdfrwt beam="2">  1        4 0.28460704E-02 0.82610145E+02</pdfrwt>
<totfact> 0.21293940E+03</totfact>
</mgrwt>
</event>
<event>
 5    1  0.1490736E-003  0.1462986E+03  0.7818608E-02  0.1209444E+00
         11   -1    0    0    0    0  0.00000000000E+00  0.00000000000E+00  0.10001121907E+04  0.10001121907E+04  0.51100000000E-03 0. -1.
          4   -1    0    0  501    0 -0.00000000000E+00 -0.00000000000E+00 -0.20913585045E+02  0.20961737510E+02  0.14200000000E+01 0. -1.
         11    1    1    2    0    0 -0.22258114549E+02  0.80228939421E+02  0.22365828475E+03  0.23865274924E+03  0.51100000000E-03 0. -1.
         22    1    1    2    0    0 -0.12908147416E+02  0.58296903931E+02  0.25308144203E+03  0.26002954751E+03  0.00000000000E+00 0. -1.
          4    1    1    2  501    0  0.35166261965E+02 -0.13852584335E+03  0.50245887890E+03  0.52239163149E+03  0.14200000000E+01 0. -1.
<mgrwt>
<rscale>  0 0.14292688E+03</rscale>
<asrwt>0</asrwt>
<pdfrwt beam="1">  1       11 0.10000000E+01 0.14629855E+03</pdfrwt>
<pdfrwt beam="2">  1        4 0.32216175E-02 0.14292688E+03</pdfrwt>
<totfact> 0.19388878E+03</totfact>
</mgrwt>
</event>
<event>
 5    1  0.1490736E-003  0.6259296E+02  0.7818608E-02  0.1404583E+00
         11   -1    0    0    0    0  0.00000000000E+00  0.00000000000E+00  0.10003411903E+04  0.10003411903E+04  0.51100000000E-03 0.  1.
          4   -1    0    0  501    0 -0.00000000000E+00 -0.00000000000E+00 -0.69895716420E+01  0.71323566750E+01  0.14200000000E+01 0.  1.
         11    1    1    2    0    0  0.36756595884E+02  0.26178571049E+02  0.92457528552E+02  0.10288226042E+03  0.51100000000E-03 0.  1.
         22    1    1    2    0    0  0.14522327015E+02  0.17748666387E+01  0.63577532564E+02  0.65239181329E+02  0.00000000000E+00 0.  1.
          4    1    1    2  501    0 -0.51278922899E+02 -0.27953437688E+02  0.83731655755E+03  0.83935210523E+03  0.14200000000E+01 0.  1.
<mgrwt>
<rscale>  0 0.58420365E+02</rscale>
<asrwt>0</asrwt>
<pdfrwt beam="1">  1       11 0.10000000E+01 0.62592962E+02</pdfrwt>
<pdfrwt beam="2">  1        4 0.10867503E-02 0.58420365E+02</pdfrwt>
<totfact> 0.84252755E+03</totfact>
</mgrwt>
</event>
<event>
 5    1  0.1490736E-003  0.2435305E+03  0.7818608E-02  0.1122661E+00
         11   -1    0    0    0    0  0.00000000000E+00  0.00000000000E+00  0.10006792273E+04  0.10006792273E+04  0.51100000000E-03 0. -1.
         -4   -1    0    0    0  501 -0.00000000000E+00 -0.00000000000E+00 -0.12903496430E+04  0.12903504243E+04  0.14200000000E+01 0.  1.
         11    1    1    2    0    0 -0.16103263853E+03  0.86620716541E+02  0.83883837652E+03  0.85853624334E+03  0.51100000000E-03 0. -1.
         22    1    1    2    0    0 -0.51680860999E+02  0.14996832106E+02  0.13596753202E+03  0.14622922461E+03  0.00000000000E+00 0. -1.
         -4    1    1    2    0  501  0.21271349953E+03 -0.10161754865E+03 -0.12644763242E+04  0.12862641836E+04  0.14200000000E+01 0.  1.
<mgrwt>
<rscale>  0 0.23574388E+03</rscale>
<asrwt>0</asrwt>
<pdfrwt beam="1">  1       11 0.10000000E+01 0.24353046E+03</pdfrwt>
<pdfrwt beam="2">  1       -4 0.19865030E+00 0.23574388E+03</pdfrwt>
<totfact> 0.61924745E-01</totfact>
</mgrwt>
</event>
<event>
 5    1  0.1490736E-003  0.7830831E+02  0.7818608E-02  0.1341593E+00
         11   -1    0    0    0    0  0.00000000000E+00  0.00000000000E+00  0.10002382328E+04  0.10002382328E+04  0.51100000000E-03 0. -1.
         -4   -1    0    0    0  501 -0.00000000000E+00 -0.00000000000E+00 -0.75855118930E+01  0.77172787094E+01  0.14200000000E+01 0. -1.
         11    1    1    2    0    0 -0.59721231589E+02 -0.19872215861E+02  0.18762725236E+03  0.19790279507E+03  0.51100000000E-03 0. -1.
         22    1    1    2    0    0 -0.11266929814E+02 -0.64962999774E+01  0.76158357201E+02  0.77260863264E+02  0.00000000000E+00 0. -1.
         -4    1    1    2    0  501  0.70988161403E+02  0.26368515839E+02  0.72886711138E+03  0.73279185321E+03  0.14200000000E+01 0. -1.
<mgrwt>
<rscale>  0 0.75740571E+02</rscale>
<asrwt>0</asrwt>
<pdfrwt beam="1">  1       11 0.10000000E+01 0.78308308E+02</pdfrwt>
<pdfrwt beam="2">  1       -4 0.11774957E-02 0.75740571E+02</pdfrwt>
<totfact> 0.79794538E+03</totfact>
</mgrwt>
</event>
<event>
 5    1  0.1490736E-003  0.8611164E+02  0.7818608E-02  0.1312551E+00
         11   -1    0    0    0    0  0.00000000000E+00  0.00000000000E+00  0.99987391938E+03  0.99987391938E+03  0.51100000000E-03 0.  1.
          4   -1    0    0  501    0 -0.00000000000E+00 -0.00000000000E+00 -0.10997558115E+02  0.11088854066E+02  0.14200000000E+01 0.  1.
         11    1    1    2    0    0 -0.37866211462E+02 -0.74929258789E+02  0.23301927707E+03  0.24768170558E+03  0.51100000000E-03 0.  1.
         22    1    1    2    0    0  0.51765690575E+01 -0.11773282776E+02  0.67538028197E+02  0.68751671305E+02  0.00000000000E+00 0. -1.
          4    1    1    2  501    0  0.32689642404E+02  0.86702541565E+02  0.68831905599E+03  0.69452939655E+03  0.14200000000E+01 0.  1.
<mgrwt>
<rscale>  0 0.86111644E+02</rscale>
<asrwt>0</asrwt>
<pdfrwt beam="1">  1       11 0.10000000E+01 0.12861067E+02</pdfrwt>
<pdfrwt beam="2">  1        4 0.16988181E-02 0.86111644E+02</pdfrwt>
<totfact> 0.47314976E+03</totfact>
</mgrwt>
</event>
<event>
 5    1  0.1490736E-003  0.1998954E+03  0.7818608E-02  0.1155824E+00
         11   -1    0    0    0    0  0.00000000000E+00  0.00000000000E+00  0.10006612070E+04  0.10006612070E+04  0.51100000000E-03 0. -1.
          4   -1    0    0  501    0 -0.00000000000E+00 -0.00000000000E+00 -0.98980418949E+02  0.98990604278E+02  0.14200000000E+01 0. -1.
         11    1    1    2    0    0 -0.74389317485E+02 -0.75497062227E+02  0.59962621895E+03  0.60892132448E+03  0.51100000000E-03 0. -1.
         22    1    1    2    0    0 -0.58068639639E+02 -0.64802980740E+02  0.28388724680E+03  0.29692315861E+03  0.00000000000E+00 0.  1.
          4    1    1    2  501    0  0.13245795712E+03  0.14030004297E+03  0.18167322311E+02  0.19380732819E+03  0.14200000000E+01 0. -1.
<mgrwt>
<rscale>  0 0.19295396E+03</rscale>
<asrwt>0</asrwt>
<pdfrwt beam="1">  1       11 0.10000000E+01 0.19989543E+03</pdfrwt>
<pdfrwt beam="2">  1        4 0.15238687E-01 0.19295396E+03</pdfrwt>
<totfact> 0.15420549E+02</totfact>
</mgrwt>
</event>
<event>
 5    1  0.1490736E-003  0.1379744E+03  0.7818608E-02  0.1219923E+00
         11   -1    0    0    0    0  0.00000000000E+00  0.00000000000E+00  0.99996925177E+03  0.99996925177E+03  0.51100000000E-03 0. -1.
         -4   -1    0    0    0  501 -0.00000000000E+00 -0.00000000000E+00 -0.19290076007E+02  0.19342270610E+02  0.14200000000E+01 0. -1.
         11    1    1    2    0    0  0.86924167603E+02 -0.10230480820E+02  0.40194177645E+03  0.41136074837E+03  0.51100000000E-03 0. -1.
         22    1    1    2    0    0  0.48259942527E+02  0.12472769357E+02  0.18729633003E+03  0.19381565280E+03  0.00000000000E+00 0. -1.
         -4    1    1    2    0  501 -0.13518411013E+03 -0.22422885372E+01  0.39144106929E+03  0.41413512121E+03  0.14200000000E+01 0. -1.
<mgrwt>
<rscale>  0 0.13521016E+03</rscale>
<asrwt>0</asrwt>
<pdfrwt beam="1">  1       11 0.10000000E+01 0.13797438E+03</pdfrwt>
<pdfrwt beam="2">  1       -4 0.29717051E-02 0.13521016E+03</pdfrwt>
<totfact> 0.21806877E+03</totfact>
</mgrwt>
</event>
<event>
 5    1  0.1490736E-003  0.1511224E+03  0.7818608E-02  0.1199100E+00
         11   -1    0    0    0    0  0.00000000000E+00  0.00000000000E+00  0.10002930371E+04  0.10002930371E+04  0.51100000000E-03 0. -1.
          4   -1    0    0  501    0 -0.00000000000E+00 -0.00000000000E+00 -0.33548526312E+02  0.33578564855E+02  0.14200000000E+01 0. -1.
         11    1    1    2    0    0  0.39456841836E+02  0.11533599051E+02  0.64754114860E+02  0.76700467185E+02  0.51100000000E-03 0. -1.
         22    1    1    2    0    0  0.12473458719E+03 -0.20852077717E+02  0.60118191717E+03  0.61433966494E+03  0.00000000000E+00 0. -1.
          4    1    1    2  501    0 -0.16419142903E+03  0.93184786653E+01  0.30080847874E+03  0.34283146982E+03  0.14200000000E+01 0. -1.
<mgrwt>
<rscale>  0 0.15112245E+03</rscale>
<asrwt>0</asrwt>
<pdfrwt beam="1">  1       11 0.10000000E+01 0.41108004E+02</pdfrwt>
<pdfrwt beam="2">  1        4 0.51652129E-02 0.15112245E+03</pdfrwt>
<totfact> 0.92200088E+02</totfact>
</mgrwt>
</event>
<event>
 5    1  0.1490736E-003  0.6768072E+02  0.7818608E-02  0.1726322E+00
         11   -1    0    0    0    0  0.00000000000E+00  0.00000000000E+00  0.10004306889E+04  0.10004306889E+04  0.51100000000E-03 0. -1.
          4   -1    0    0  501    0 -0.00000000000E+00 -0.00000000000E+00 -0.85836006527E+01  0.87002643733E+01  0.14200000000E+01 0. -1.
         11    1    1    2    0    0  0.16717950118E+02  0.62928881567E+02  0.20387165018E+03  0.21401678377E+03  0.51100000000E-03 0. -1.
         22    1    1    2    0    0 -0.37424239820E+02 -0.59793802459E+02  0.37320301938E+03  0.37981096115E+03  0.00000000000E+00 0. -1.
          4    1    1    2  501    0  0.20706289703E+02 -0.31350791079E+01  0.41477241871E+03  0.41530320837E+03  0.14200000000E+01 0. -1.
<mgrwt>
<rscale>  0 0.20990368E+02</rscale>
<asrwt>0</asrwt>
<pdfrwt beam="1">  1       11 0.10000000E+01 0.67680724E+02</pdfrwt>
<pdfrwt beam="2">  1        4 0.13301782E-02 0.20990368E+02</pdfrwt>
<totfact> 0.45371984E+03</totfact>
</mgrwt>
</event>
<event>
 5    1  0.1490736E-003  0.1976262E+03  0.7818608E-02  0.1165791E+00
         11   -1    0    0    0    0  0.00000000000E+00  0.00000000000E+00  0.10001278028E+04  0.10001278028E+04  0.51100000000E-03 0. -1.
          4   -1    0    0  501    0 -0.00000000000E+00 -0.00000000000E+00 -0.37568331531E+02  0.37595158386E+02  0.14200000000E+01 0. -1.
         11    1    1    2    0    0  0.44349159581E+02  0.16855225131E+02  0.13110233983E+03  0.13942298978E+03  0.51100000000E-03 0. -1.
         22    1    1    2    0    0  0.12996767294E+03 -0.69486943785E+02  0.26411371713E+03  0.30245013959E+03  0.00000000000E+00 0.  1.
          4    1    1    2  501    0 -0.17431683252E+03  0.52631718654E+02  0.56734341426E+03  0.59584983177E+03  0.14200000000E+01 0. -1.
<mgrwt>
<rscale>  0 0.18209468E+03</rscale>
<asrwt>0</asrwt>
<pdfrwt beam="1">  1       11 0.10000000E+01 0.19762624E+03</pdfrwt>
<pdfrwt beam="2">  1        4 0.57826232E-02 0.18209468E+03</pdfrwt>
<totfact> 0.78797935E+02</totfact>
</mgrwt>
</event>
<event>
 5    1  0.1490736E-003  0.9462042E+02  0.7818608E-02  0.1292033E+00
         11   -1    0    0    0    0  0.00000000000E+00  0.00000000000E+00  0.10000434690E+04  0.10000434690E+04  0.51100000000E-03 0. -1.
          4   -1    0    0  501    0 -0.00000000000E+00 -0.00000000000E+00 -0.14216301095E+02  0.14287043670E+02  0.14200000000E+01 0. -1.
         11    1    1    2    0    0 -0.77844740677E+02  0.54806489898E+02  0.25055688638E+03  0.26803415510E+03  0.51100000000E-03 0. -1.
         22    1    1    2    0    0 -0.14854008646E+02 -0.27112082542E+02  0.16350690693E+03  0.16640377161E+03  0.00000000000E+00 0. -1.
          4    1    1    2  501    0  0.92698749323E+02 -0.27694407355E+02  0.57176337456E+03  0.57989258593E+03  0.14200000000E+01 0. -1.
<mgrwt>
<rscale>  0 0.94620422E+02</rscale>
<asrwt>0</asrwt>
<pdfrwt beam="1">  1       11 0.10000000E+01 0.30914505E+02</pdfrwt>
<pdfrwt beam="2">  1        4 0.21927378E-02 0.94620422E+02</pdfrwt>
<totfact> 0.32695937E+03</totfact>
</mgrwt>
</event>
<event>
 5    1  0.1490736E-003  0.2426757E+03  0.7818608E-02  0.1121758E+00
         11   -1    0    0    0    0  0.00000000000E+00  0.00000000000E+00  0.10001079044E+04  0.10001079044E+04  0.51100000000E-03 0. -1.
          4   -1    0    0  501    0 -0.00000000000E+00 -0.00000000000E+00 -0.58510849869E+02  0.58528078324E+02  0.14200000000E+01 0. -1.
         11    1    1    2    0    0  0.20615692571E+03  0.18157548509E+02  0.43842592236E+03  0.48481714490E+03  0.51100000000E-03 0. -1.
         22    1    1    2    0    0  0.30866268133E+02 -0.13509516497E+02  0.10649729762E+03  0.11170008033E+03  0.00000000000E+00 0. -1.
          4    1    1    2  501    0 -0.23702319385E+03 -0.46480320116E+01  0.39667383458E+03  0.46211875753E+03  0.14200000000E+01 0. -1.
<mgrwt>
<rscale>  0 0.23707302E+03</rscale>
<asrwt>0</asrwt>
<pdfrwt beam="1">  1       11 0.10000000E+01 0.24267568E+03</pdfrwt>
<pdfrwt beam="2">  1        4 0.90040432E-02 0.23707302E+03</pdfrwt>
<totfact> 0.39027692E+02</totfact>
</mgrwt>
</event>
<event>
 5    1  0.1490736E-003  0.8916830E+02  0.7818608E-02  0.1304878E+00
         11   -1    0    0    0    0  0.00000000000E+00  0.00000000000E+00  0.99983553904E+03  0.99983553904E+03  0.51100000000E-03 0.  1.
          4   -1    0    0  501    0 -0.00000000000E+00 -0.00000000000E+00 -0.17555844513E+02  0.17613179059E+02  0.14200000000E+01 0.  1.
         11    1    1    2    0    0 -0.21750215630E+02  0.58707692989E+02  0.14208478568E+03  0.15526671059E+03  0.51100000000E-03 0.  1.
         22    1    1    2    0    0 -0.57366154877E+02 -0.82911512371E+02  0.32180713643E+03  0.33723141559E+03  0.00000000000E+00 0.  1.
          4    1    1    2  501    0  0.79116370506E+02  0.24203819382E+02  0.51838777242E+03  0.52495059192E+03  0.14200000000E+01 0.  1.
<mgrwt>
<rscale>  0 0.89168302E+02</rscale>
<asrwt>0</asrwt>
<pdfrwt beam="1">  1       11 0.10000000E+01 0.62607260E+02</pdfrwt>
<pdfrwt beam="2">  1        4 0.27049421E-02 0.89168302E+02</pdfrwt>
<totfact> 0.23389493E+03</totfact>
</mgrwt>
</event>
<event>
 5    1  0.1490736E-003  0.1436059E+03  0.7818608E-02  0.1213451E+00
         11   -1    0    0    0    0  0.00000000000E+00  0.00000000000E+00  0.10003817841E+04  0.10003817841E+04  0.51100000000E-03 0. -1.
         -4   -1    0    0    0  501 -0.00000000000E+00 -0.00000000000E+00 -0.20130371913E+02  0.20180393291E+02  0.14200000000E+01 0. -1.
         11    1    1    2    0    0  0.37697231782E+02  0.98510589669E+02  0.37156561619E+03  0.38624658535E+03  0.51100000000E-03 0. -1.
         22    1    1    2    0    0 -0.23503248244E+01  0.36852545182E+02  0.95218102300E+02  0.10212796443E+03  0.00000000000E+00 0. -1.
         -4    1    1    2    0  501 -0.35346906957E+02 -0.13536313485E+03  0.51346769366E+03  0.53218762758E+03  0.14200000000E+01 0. -1.
<mgrwt>
<rscale>  0 0.13990925E+03</rscale>
<asrwt>0</asrwt>
<pdfrwt beam="1">  1       11 0.10000000E+01 0.14360592E+03</pdfrwt>
<pdfrwt beam="2">  1       -4 0.31020894E-02 0.13990925E+03</pdfrwt>
<totfact> 0.20503655E+03</totfact>
</mgrwt>
</event>
<event>
 5    1  0.1490736E-003  0.1009555E+03  0.7818608E-02  0.1285662E+00
         11   -1    0    0    0    0  0.00000000000E+00  0.00000000000E+00  0.10002926353E+04  0.10002926353E+04  0.51100000000E-03 0. -1.
         -4   -1    0    0    0  501 -0.00000000000E+00 -0.00000000000E+00 -0.97978798874E+01  0.99002449610E+01  0.14200000000E+01 0. -1.
         11    1    1    2    0    0 -0.65917435362E+01  0.59807511065E+02  0.36208687519E+03  0.36705216884E+03  0.51100000000E-03 0. -1.
         22    1    1    2    0    0 -0.47885080013E+01  0.37006936132E+02  0.12818034354E+03  0.13350147415E+03  0.00000000000E+00 0. -1.
         -4    1    1    2    0  501  0.11380251538E+02 -0.96814447197E+02  0.50022753665E+03  0.50963923724E+03  0.14200000000E+01 0. -1.
<mgrwt>
<rscale>  0 0.97491352E+02</rscale>
<asrwt>0</asrwt>
<pdfrwt beam="1">  1       11 0.10000000E+01 0.10095545E+03</pdfrwt>
<pdfrwt beam="2">  1       -4 0.15157613E-02 0.97491352E+02</pdfrwt>
<totfact> 0.57749825E+03</totfact>
</mgrwt>
</event>
<event>
 5    1  0.1490736E-003  0.6672578E+02  0.7818608E-02  0.1375803E+00
         11   -1    0    0    0    0  0.00000000000E+00  0.00000000000E+00  0.10002196253E+04  0.10002196253E+04  0.51100000000E-03 0.  1.
          4   -1    0    0  501    0 -0.00000000000E+00 -0.00000000000E+00 -0.11400727308E+02  0.11488819920E+02  0.14200000000E+01 0.  1.
         11    1    1    2    0    0 -0.10750565561E+02 -0.71602375325E+01  0.16379830385E+02  0.20860069633E+02  0.51100000000E-03 0.  1.
         22    1    1    2    0    0 -0.27330042451E+02 -0.46211961875E+02  0.82093542820E+02  0.98090908924E+02  0.00000000000E+00 0.  1.
          4    1    1    2  501    0  0.38080608012E+02  0.53372199407E+02  0.89034552480E+03  0.89275746668E+03  0.14200000000E+01 0.  1.
<mgrwt>
<rscale>  0 0.65580033E+02</rscale>
<asrwt>0</asrwt>
<pdfrwt beam="1">  1       11 0.10000000E+01 0.66725783E+02</pdfrwt>
<pdfrwt beam="2">  1        4 0.17611986E-02 0.65580033E+02</pdfrwt>
<totfact> 0.42137987E+03</totfact>
</mgrwt>
</event>
<event>
 5    1  0.1490736E-003  0.7333629E+02  0.7818608E-02  0.1349102E+00
         11   -1    0    0    0    0  0.00000000000E+00  0.00000000000E+00  0.10000714759E+04  0.10000714759E+04  0.51100000000E-03 0.  1.
         -4   -1    0    0    0  501 -0.00000000000E+00 -0.00000000000E+00 -0.13561639617E+03  0.13562383017E+03  0.14200000000E+01 0.  1.
         11    1    1    2    0    0  0.95695355411E+02  0.91670200900E+02  0.70200894836E+03  0.71440716007E+03  0.51100000000E-03 0.  1.
         22    1    1    2    0    0 -0.33492154861E+02 -0.54433059368E+02  0.27778899091E+03  0.28504632230E+03  0.00000000000E+00 0. -1.
         -4    1    1    2    0  501 -0.62203200549E+02 -0.37237141532E+02 -0.11534285956E+03  0.13624182368E+03  0.14200000000E+01 0.  1.
<mgrwt>
<rscale>  0 0.73336287E+02</rscale>
<asrwt>0</asrwt>
<pdfrwt beam="1">  1       11 0.10000000E+01 0.63911520E+02</pdfrwt>
<pdfrwt beam="2">  1       -4 0.20866201E-01 0.73336287E+02</pdfrwt>
<totfact> 0.79185854E+01</totfact>
</mgrwt>
</event>
<event>
 5    1  0.1490736E-003  0.8178555E+02  0.7818608E-02  0.1334562E+00
         11   -1    0    0    0    0  0.00000000000E+00  0.00000000000E+00  0.10004441113E+04  0.10004441113E+04  0.51100000000E-03 0.  1.
          4   -1    0    0  501    0 -0.00000000000E+00 -0.00000000000E+00 -0.75804890058E+01  0.77123416397E+01  0.14200000000E+01 0.  1.
         11    1    1    2    0    0 -0.29282711841E+02  0.36573005252E+02  0.16913746796E+03  0.17550653833E+03  0.51100000000E-03 0.  1.
         22    1    1    2    0    0 -0.22857024832E+01  0.34837011502E+02  0.13233039425E+03  0.13685822974E+03  0.00000000000E+00 0. -1.
          4    1    1    2  501    0  0.31568414324E+02 -0.71410016754E+02  0.69139576006E+03  0.69579168485E+03  0.14200000000E+01 0.  1.
<mgrwt>
<rscale>  0 0.78089511E+02</rscale>
<asrwt>0</asrwt>
<pdfrwt beam="1">  1       11 0.10000000E+01 0.81785551E+02</pdfrwt>
<pdfrwt beam="2">  1        4 0.11769715E-02 0.78089511E+02</pdfrwt>
<totfact> 0.80423163E+03</totfact>
</mgrwt>
</event>
<event>
 5    1  0.1490736E-003  0.1006503E+03  0.7818608E-02  0.1289103E+00
         11   -1    0    0    0    0  0.00000000000E+00  0.00000000000E+00  0.10005375358E+04  0.10005375358E+04  0.51100000000E-03 0. -1.
          4   -1    0    0  501    0 -0.00000000000E+00 -0.00000000000E+00 -0.96720163313E+01  0.97756994590E+01  0.14200000000E+01 0. -1.
         11    1    1    2    0    0 -0.10167491499E+02  0.19566081962E+02  0.96193916878E+02  0.98688799220E+02  0.51100000000E-03 0. -1.
         22    1    1    2    0    0 -0.71797685738E+02  0.30249173604E+02  0.45358688935E+03  0.46022927587E+03  0.00000000000E+00 0. -1.
          4    1    1    2  501    0  0.81965177237E+02 -0.49815255565E+02  0.44108471323E+03  0.45139516016E+03  0.14200000000E+01 0. -1.
<mgrwt>
<rscale>  0 0.95926359E+02</rscale>
<asrwt>0</asrwt>
<pdfrwt beam="1">  1       11 0.10000000E+01 0.10065028E+03</pdfrwt>
<pdfrwt beam="2">  1        4 0.14968598E-02 0.95926359E+02</pdfrwt>
<totfact> 0.58656707E+03</totfact>
</mgrwt>
</event>
<event>
 5    1  0.1490736E-003  0.5539071E+02  0.7818608E-02  0.1424932E+00
         11   -1    0    0    0    0  0.00000000000E+00  0.00000000000E+00  0.10000799685E+04  0.10000799685E+04  0.51100000000E-03 0. -1.
          4   -1    0    0  501    0 -0.00000000000E+00 -0.00000000000E+00 -0.59010133573E+01  0.60694611494E+01  0.14200000000E+01 0. -1.
         11    1    1    2    0    0  0.27742092869E+02 -0.31729630754E+02  0.10418171197E+03  0.11238426177E+03  0.51100000000E-03 0. -1.
         22    1    1    2    0    0  0.29093312758E+01 -0.12694466954E+02  0.40253094187E+02  0.42307508687E+02  0.00000000000E+00 0.  1.
          4    1    1    2  501    0 -0.30651424145E+02  0.44424097709E+02  0.84974414898E+03  0.85145765918E+03  0.14200000000E+01 0. -1.
<mgrwt>
<rscale>  0 0.53990987E+02</rscale>
<asrwt>0</asrwt>
<pdfrwt beam="1">  1       11 0.10000000E+01 0.55390709E+02</pdfrwt>
<pdfrwt beam="2">  1        4 0.92095689E-03 0.53990987E+02</pdfrwt>
<totfact> 0.10532578E+04</totfact>
</mgrwt>
</event>
<event>
 5    1  0.1490736E-003  0.1027056E+03  0.7818608E-02  0.1274707E+00
         11   -1    0    0    0    0  0.00000000000E+00  0.00000000000E+00  0.10002313859E+04  0.10002313859E+04  0.51100000000E-03 0. -1.
          4   -1    0    0  501    0 -0.00000000000E+00 -0.00000000000E+00 -0.27063768915E+02  0.27100996068E+02  0.14200000000E+01 0.  1.
         11    1    1    2    0    0 -0.29779273725E+02  0.82782086469E+02  0.51169199439E+03  0.51919974587E+03  0.51100000000E-03 0. -1.
         22    1    1    2    0    0  0.68299710455E+02  0.23146756572E+02  0.31583953805E+03  0.32396795610E+03  0.00000000000E+00 0. -1.
          4    1    1    2  501    0 -0.38520436730E+02 -0.10592884304E+03  0.14563608451E+03  0.18416467996E+03  0.14200000000E+01 0.  1.
<mgrwt>
<rscale>  0 0.10270557E+03</rscale>
<asrwt>0</asrwt>
<pdfrwt beam="1">  1       11 0.10000000E+01 0.72115344E+02</pdfrwt>
<pdfrwt beam="2">  1        4 0.41675619E-02 0.10270557E+03</pdfrwt>
<totfact> 0.12216494E+03</totfact>
</mgrwt>
</event>
<event>
 5    1  0.1490736E-003  0.1974955E+03  0.7818608E-02  0.1164401E+00
         11   -1    0    0    0    0  0.00000000000E+00  0.00000000000E+00  0.10001863770E+04  0.10001863770E+04  0.51100000000E-03 0. -1.
         -4   -1    0    0    0  501 -0.00000000000E+00 -0.00000000000E+00 -0.47301368696E+02  0.47322678290E+02  0.14200000000E+01 0.  1.
         11    1    1    2    0    0  0.11041312529E+03 -0.23757202969E+01  0.30354816541E+03  0.32301422725E+03  0.51100000000E-03 0. -1.
         22    1    1    2    0    0  0.72329376196E+02  0.19629213511E+02  0.43888399323E+03  0.44523702024E+03  0.00000000000E+00 0. -1.
         -4    1    1    2    0  501 -0.18274250148E+03 -0.17253493214E+02  0.21045284963E+03  0.27925780776E+03  0.14200000000E+01 0.  1.
<mgrwt>
<rscale>  0 0.18356067E+03</rscale>
<asrwt>0</asrwt>
<pdfrwt beam="1">  1       11 0.10000000E+01 0.19749549E+03</pdfrwt>
<pdfrwt beam="2">  1       -4 0.72802068E-02 0.18356067E+03</pdfrwt>
<totfact> 0.54024899E+02</totfact>
</mgrwt>
</event>
<event>
 5    1  0.1490736E-003  0.4479622E+03  0.7818608E-02  0.1029680E+00
         11   -1    0    0    0    0  0.00000000000E+00  0.00000000000E+00  0.10003537055E+04  0.10003537055E+04  0.51100000000E-03 0. -1.
          4   -1    0    0  501    0 -0.00000000000E+00 -0.00000000000E+00 -0.78322864947E+03  0.78322993670E+03  0.14200000000E+01 0. -1.
         11    1    1    2    0    0  0.23888895711E+03 -0.35559298277E+03  0.81814108018E+03  0.92350913926E+03  0.51100000000E-03 0. -1.
         22    1    1    2    0    0  0.28935283319E+01 -0.16195164791E+02  0.61031133924E+02  0.63209613010E+02  0.00000000000E+00 0. -1.
          4    1    1    2  501    0 -0.24178248544E+03  0.37178814756E+03 -0.66204715806E+03  0.79686488994E+03  0.14200000000E+01 0. -1.
<mgrwt>
<rscale>  0 0.44349432E+03</rscale>
<asrwt>0</asrwt>
<pdfrwt beam="1">  1       11 0.10000000E+01 0.44796218E+03</pdfrwt>
<pdfrwt beam="2">  1        4 0.12053951E+00 0.44349432E+03</pdfrwt>
<totfact> 0.23169428E+00</totfact>
</mgrwt>
</event>
<event>
 5    1  0.1490736E-003  0.1806366E+03  0.7818608E-02  0.1369575E+00
         11   -1    0    0    0    0  0.00000000000E+00  0.00000000000E+00  0.99985629792E+03  0.99985629792E+03  0.51100000000E-03 0. -1.
         -4   -1    0    0    0  501 -0.00000000000E+00 -0.00000000000E+00 -0.40938555975E+02  0.40963175723E+02  0.14200000000E+01 0.  1.
         11    1    1    2    0    0  0.17367505506E+03  0.32166651527E+02  0.56926158236E+03  0.59603394817E+03  0.51100000000E-03 0. -1.
         22    1    1    2    0    0  0.14885680176E+02 -0.20162918806E+02  0.55790439041E+02  0.61161261085E+02  0.00000000000E+00 0.  1.
         -4    1    1    2    0  501 -0.18856073524E+03 -0.12003732721E+02  0.33386572055E+03  0.38362426439E+03  0.14200000000E+01 0.  1.
<mgrwt>
<rscale>  0 0.67285495E+02</rscale>
<asrwt>0</asrwt>
<pdfrwt beam="1">  1       11 0.10000000E+01 0.18063664E+03</pdfrwt>
<pdfrwt beam="2">  1       -4 0.62993052E-02 0.67285495E+02</pdfrwt>
<totfact> 0.58663877E+02</totfact>
</mgrwt>
</event>
<event>
 5    1  0.1490736E-003  0.1766356E+03  0.7818608E-02  0.1481656E+00
         11   -1    0    0    0    0  0.00000000000E+00  0.00000000000E+00  0.10000123282E+04  0.10000123282E+04  0.51100000000E-03 0. -1.
         -4   -1    0    0    0  501 -0.00000000000E+00 -0.00000000000E+00 -0.42783810865E+02  0.42807369368E+02  0.14200000000E+01 0.  1.
         11    1    1    2    0    0 -0.85942537596E+02  0.15107640455E+03  0.68988766376E+03  0.71144584361E+03  0.51100000000E-03 0. -1.
         22    1    1    2    0    0 -0.74385082304E+01  0.79469812721E+01  0.10045751402E+02  0.14812259694E+02  0.00000000000E+00 0. -1.
         -4    1    1    2    0  501  0.93381045827E+02 -0.15902338582E+03  0.25729510213E+03  0.31656159422E+03  0.14200000000E+01 0.  1.
<mgrwt>
<rscale>  0 0.43849312E+02</rscale>
<asrwt>0</asrwt>
<pdfrwt beam="1">  1       11 0.10000000E+01 0.17663557E+03</pdfrwt>
<pdfrwt beam="2">  1       -4 0.65840955E-02 0.43849312E+02</pdfrwt>
<totfact> 0.50194053E+02</totfact>
</mgrwt>
</event>
<event>
 5    1  0.1490736E-003  0.3361685E+03  0.7818608E-02  0.1073977E+00
         11   -1    0    0    0    0  0.00000000000E+00  0.00000000000E+00  0.10001214374E+04  0.10001214374E+04  0.51100000000E-03 0. -1.
         -4   -1    0    0    0  501 -0.00000000000E+00 -0.00000000000E+00 -0.52279762109E+03  0.52279954956E+03  0.14200000000E+01 0.  1.
         11    1    1    2    0    0 -0.57908739265E+02 -0.12352633323E+03  0.26453236774E+03  0.29763996820E+03  0.51100000000E-03 0. -1.
         22    1    1    2    0    0 -0.10381480603E+03 -0.15682826817E+03  0.65263137014E+03  0.67919093409E+03  0.00000000000E+00 0. -1.
         -4    1    1    2    0  501  0.16172354529E+03  0.28035460141E+03 -0.43983992155E+03  0.54609008471E+03  0.14200000000E+01 0.  1.
<mgrwt>
<rscale>  0 0.32365912E+03</rscale>
<asrwt>0</asrwt>
<pdfrwt beam="1">  1       11 0.10000000E+01 0.33616854E+03</pdfrwt>
<pdfrwt beam="2">  1       -4 0.80440394E-01 0.32365912E+03</pdfrwt>
<totfact> 0.59922724E+00</totfact>
</mgrwt>
</event>
<event>
 5    1  0.1490736E-003  0.4626859E+02  0.7818608E-02  0.1474131E+00
         11   -1    0    0    0    0  0.00000000000E+00  0.00000000000E+00  0.10002408685E+04  0.10002408685E+04  0.51100000000E-03 0. -1.
          4   -1    0    0  501    0 -0.00000000000E+00 -0.00000000000E+00 -0.43785970910E+01  0.46030981399E+01  0.14200000000E+01 0. -1.
         11    1    1    2    0    0  0.50106935967E+01  0.11862618329E+02  0.38680214525E+02  0.40767484101E+02  0.51100000000E-03 0. -1.
         22    1    1    2    0    0  0.26537977827E+02  0.20242070692E+02  0.94522250860E+02  0.10024201515E+03  0.00000000000E+00 0. -1.
          4    1    1    2  501    0 -0.31548671424E+02 -0.32104689021E+02  0.86265980600E+03  0.86383446737E+03  0.14200000000E+01 0. -1.
<mgrwt>
<rscale>  0 0.45033833E+02</rscale>
<asrwt>0</asrwt>
<pdfrwt beam="1">  1       11 0.10000000E+01 0.46268586E+02</pdfrwt>
<pdfrwt beam="2">  1        4 0.69114358E-03 0.45033833E+02</pdfrwt>
<totfact> 0.15207551E+04</totfact>
</mgrwt>
</event>
<event>
 5    1  0.1490736E-003  0.4875900E+02  0.7818608E-02  0.1459872E+00
         11   -1    0    0    0    0  0.00000000000E+00  0.00000000000E+00  0.10000260048E+04  0.10000260048E+04  0.51100000000E-03 0.  1.
          4   -1    0    0  501    0 -0.00000000000E+00 -0.00000000000E+00 -0.29408873119E+01  0.32657645631E+01  0.14200000000E+01 0.  1.
         11    1    1    2    0    0  0.83006370903E+01 -0.34791986628E+02  0.19092921737E+03  0.19425073733E+03  0.51100000000E-03 0.  1.
         22    1    1    2    0    0  0.88472620064E+01 -0.93783373492E+01  0.59449989575E+02  0.60831969530E+02  0.00000000000E+00 0.  1.
          4    1    1    2  501    0 -0.17147899097E+02  0.44170323977E+02  0.74670591058E+03  0.74820906253E+03  0.14200000000E+01 0.  1.
<mgrwt>
<rscale>  0 0.47403421E+02</rscale>
<asrwt>0</asrwt>
<pdfrwt beam="1">  1       11 0.10000000E+01 0.48759000E+02</pdfrwt>
<pdfrwt beam="2">  1        4 0.47752472E-03 0.47403421E+02</pdfrwt>
<totfact> 0.26396637E+04</totfact>
</mgrwt>
</event>
<event>
 5    1  0.1490736E-003  0.8823629E+02  0.7818608E-02  0.1312872E+00
         11   -1    0    0    0    0  0.00000000000E+00  0.00000000000E+00  0.10003859979E+04  0.10003859979E+04  0.51100000000E-03 0.  1.
          4   -1    0    0  501    0 -0.00000000000E+00 -0.00000000000E+00 -0.96015175601E+01  0.97059538149E+01  0.14200000000E+01 0.  1.
         11    1    1    2    0    0 -0.18995563941E+02 -0.43148083507E+02  0.13084814322E+03  0.13908208060E+03  0.51100000000E-03 0.  1.
         22    1    1    2    0    0 -0.30243866756E+02 -0.27330330520E+02  0.13579552119E+03  0.14178174078E+03  0.00000000000E+00 0.  1.
          4    1    1    2  501    0  0.49239430697E+02  0.70478414026E+02  0.72414081588E+03  0.72922813029E+03  0.14200000000E+01 0.  1.
<mgrwt>
<rscale>  0 0.85986887E+02</rscale>
<asrwt>0</asrwt>
<pdfrwt beam="1">  1       11 0.10000000E+01 0.88236287E+02</pdfrwt>
<pdfrwt beam="2">  1        4 0.14858409E-02 0.85986887E+02</pdfrwt>
<totfact> 0.57926359E+03</totfact>
</mgrwt>
</event>
<event>
 5    1  0.1490736E-003  0.9053849E+02  0.7818608E-02  0.1301553E+00
         11   -1    0    0    0    0  0.00000000000E+00  0.00000000000E+00  0.10001148222E+04  0.10001148222E+04  0.51100000000E-03 0.  1.
         -4   -1    0    0    0  501 -0.00000000000E+00 -0.00000000000E+00 -0.45998569316E+03  0.45998788497E+03  0.14200000000E+01 0.  1.
         11    1    1    2    0    0 -0.11568866578E+03 -0.80053687164E+02  0.53080610917E+03  0.54913348628E+03  0.51100000000E-03 0.  1.
         22    1    1    2    0    0  0.25555272969E+02  0.86475350347E+02  0.45110974321E+03  0.46003375813E+03  0.00000000000E+00 0.  1.
         -4    1    1    2    0  501  0.90133392813E+02 -0.64216631827E+01 -0.44178672334E+03  0.45093546277E+03  0.14200000000E+01 0.  1.
<mgrwt>
<rscale>  0 0.90538490E+02</rscale>
<asrwt>0</asrwt>
<pdfrwt beam="1">  1       11 0.10000000E+01 0.90172380E+02</pdfrwt>
<pdfrwt beam="2">  1       -4 0.70775399E-01 0.90538490E+02</pdfrwt>
<totfact> 0.75276176E+00</totfact>
</mgrwt>
</event>
<event>
 5    1  0.1490736E-003  0.1087174E+03  0.7818608E-02  0.1608911E+00
         11   -1    0    0    0    0  0.00000000000E+00  0.00000000000E+00  0.10001380300E+04  0.10001380300E+04  0.51100000000E-03 0.  1.
         -4   -1    0    0    0  501 -0.00000000000E+00 -0.00000000000E+00 -0.50302458748E+02  0.50322497515E+02  0.14200000000E+01 0. -1.
         11    1    1    2    0    0 -0.41047327546E+02  0.10993449913E+03  0.51245156373E+03  0.52571578098E+03  0.51100000000E-03 0.  1.
         22    1    1    2    0    0  0.56885123875E+02 -0.85631021624E+02  0.46997685804E+03  0.48108921862E+03  0.00000000000E+00 0.  1.
         -4    1    1    2    0  501 -0.15837796329E+02 -0.24303477510E+02 -0.32592850524E+02  0.43655527908E+02  0.14200000000E+01 0. -1.
<mgrwt>
<rscale>  0 0.29043264E+02</rscale>
<asrwt>0</asrwt>
<pdfrwt beam="1">  1       11 0.10000000E+01 0.10871741E+03</pdfrwt>
<pdfrwt beam="2">  1       -4 0.77415270E-02 0.29043264E+02</pdfrwt>
<totfact> 0.35269394E+02</totfact>
</mgrwt>
</event>
<event>
 5    1  0.1490736E-003  0.4409566E+02  0.7818608E-02  0.1480067E+00
         11   -1    0    0    0    0  0.00000000000E+00  0.00000000000E+00  0.10002278602E+04  0.10002278602E+04  0.51100000000E-03 0. -1.
          4   -1    0    0  501    0 -0.00000000000E+00 -0.00000000000E+00 -0.54315030136E+01  0.56140560192E+01  0.14200000000E+01 0. -1.
         11    1    1    2    0    0 -0.32864918593E+02 -0.78919209761E+01  0.16974369211E+03  0.17307601308E+03  0.51100000000E-03 0. -1.
         22    1    1    2    0    0  0.39040378262E+02 -0.28564291432E+02  0.17220492332E+03  0.17887035947E+03  0.00000000000E+00 0. -1.
          4    1    1    2  501    0 -0.61754596692E+01  0.36456212409E+02  0.65284774176E+03  0.65389554368E+03  0.14200000000E+01 0. -1.
<mgrwt>
<rscale>  0 0.44095661E+02</rscale>
<asrwt>0</asrwt>
<pdfrwt beam="1">  1       11 0.10000000E+01 0.33799208E+02</pdfrwt>
<pdfrwt beam="2">  1        4 0.84992952E-03 0.44095661E+02</pdfrwt>
<totfact> 0.11178725E+04</totfact>
</mgrwt>
</event>
<event>
 5    1  0.1490736E-003  0.3640924E+03  0.7818608E-02  0.1056975E+00
         11   -1    0    0    0    0  0.00000000000E+00  0.00000000000E+00  0.10002796169E+04  0.10002796169E+04  0.51100000000E-03 0. -1.
          4   -1    0    0  501    0 -0.00000000000E+00 -0.00000000000E+00 -0.21597234327E+03  0.21597701141E+03  0.14200000000E+01 0. -1.
         11    1    1    2    0    0 -0.31101803943E+03  0.98828984573E+02  0.48712349789E+03  0.58633496505E+03  0.51100000000E-03 0. -1.
         22    1    1    2    0    0 -0.20346040377E+02  0.93317117886E+02  0.21908001552E+03  0.23899393099E+03  0.00000000000E+00 0.  1.
          4    1    1    2  501    0  0.33136407980E+03 -0.19214610246E+03  0.78103760169E+02  0.39092773223E+03  0.14200000000E+01 0. -1.
<mgrwt>
<rscale>  0 0.36409237E+03</rscale>
<asrwt>0</asrwt>
<pdfrwt beam="1">  1       11 0.10000000E+01 0.95509402E+02</pdfrwt>
<pdfrwt beam="2">  1        4 0.33236241E-01 0.36409237E+03</pdfrwt>
<totfact> 0.38239554E+01</totfact>
</mgrwt>
</event>
<event>
 5    1  0.1490736E-003  0.1097573E+03  0.7818608E-02  0.1268528E+00
         11   -1    0    0    0    0  0.00000000000E+00  0.00000000000E+00  0.10000874305E+04  0.10000874305E+04  0.51100000000E-03 0. -1.
         -4   -1    0    0    0  501 -0.00000000000E+00 -0.00000000000E+00 -0.12348698593E+02  0.12430074696E+02  0.14200000000E+01 0.  1.
         11    1    1    2    0    0 -0.36425069290E+02 -0.18808631936E+02  0.13927434030E+03  0.14518227225E+03  0.51100000000E-03 0. -1.
         22    1    1    2    0    0 -0.35185402003E+02 -0.59076537512E+02  0.23660521987E+03  0.24639415550E+03  0.00000000000E+00 0. -1.
         -4    1    1    2    0  501  0.71610471293E+02  0.77885169447E+02  0.61185917177E+03  0.62094107748E+03  0.14200000000E+01 0.  1.
<mgrwt>
<rscale>  0 0.10581198E+03</rscale>
<asrwt>0</asrwt>
<pdfrwt beam="1">  1       11 0.10000000E+01 0.10975725E+03</pdfrwt>
<pdfrwt beam="2">  1       -4 0.19063036E-02 0.10581198E+03</pdfrwt>
<totfact> 0.41429521E+03</totfact>
</mgrwt>
</event>
<event>
 5    1  0.1490736E-003  0.3188706E+03  0.7818608E-02  0.1077985E+00
         11   -1    0    0    0    0  0.00000000000E+00  0.00000000000E+00  0.10003714172E+04  0.10003714172E+04  0.51100000000E-03 0. -1.
          4   -1    0    0  501    0 -0.00000000000E+00 -0.00000000000E+00 -0.12401202110E+03  0.12402015069E+03  0.14200000000E+01 0. -1.
         11    1    1    2    0    0 -0.29207881155E+03  0.88062104198E+02  0.64336758794E+03  0.71203006929E+03  0.51100000000E-03 0. -1.
         22    1    1    2    0    0 -0.11703882177E+02 -0.48503714277E+01  0.42304374126E+02  0.44160695547E+02  0.00000000000E+00 0. -1.
          4    1    1    2  501    0  0.30378269373E+03 -0.83211732770E+02  0.19068743403E+03  0.36820080306E+03  0.14200000000E+01 0. -1.
<mgrwt>
<rscale>  0 0.31497640E+03</rscale>
<asrwt>0</asrwt>
<pdfrwt beam="1">  1       11 0.10000000E+01 0.31887056E+03</pdfrwt>
<pdfrwt beam="2">  1        4 0.19086561E-01 0.31497640E+03</pdfrwt>
<totfact> 0.10760318E+02</totfact>
</mgrwt>
</event>
<event>
 5    1  0.1490736E-003  0.2527032E+03  0.7818608E-02  0.1111608E+00
         11   -1    0    0    0    0  0.00000000000E+00  0.00000000000E+00  0.10003431709E+04  0.10003431709E+04  0.51100000000E-03 0.  1.
          4   -1    0    0  501    0 -0.00000000000E+00 -0.00000000000E+00 -0.15248269403E+03  0.15248930578E+03  0.14200000000E+01 0.  1.
         11    1    1    2    0    0  0.29404083362E+03  0.22680091306E+02  0.48458429972E+03  0.56727095987E+03  0.51100000000E-03 0.  1.
         22    1    1    2    0    0 -0.54406325065E+02 -0.64988886904E+02  0.32908746589E+03  0.33982666734E+03  0.00000000000E+00 0.  1.
          4    1    1    2  501    0 -0.23963450856E+03  0.42308795598E+02  0.34188711286E+02  0.24573484949E+03  0.14200000000E+01 0.  1.
<mgrwt>
<rscale>  0 0.25270315E+03</rscale>
<asrwt>0</asrwt>
<pdfrwt beam="1">  1       11 0.10000000E+01 0.84756142E+02</pdfrwt>
<pdfrwt beam="2">  1        4 0.23467512E-01 0.25270315E+03</pdfrwt>
<totfact> 0.72383598E+01</totfact>
</mgrwt>
</event>
<event>
 5    1  0.1490736E-003  0.1004040E+03  0.7818608E-02  0.1588438E+00
         11   -1    0    0    0    0  0.00000000000E+00  0.00000000000E+00  0.10002920689E+04  0.10002920689E+04  0.51100000000E-03 0.  1.
          4   -1    0    0  501    0 -0.00000000000E+00 -0.00000000000E+00 -0.18509888228E+02  0.18564276507E+02  0.14200000000E+01 0.  1.
         11    1    1    2    0    0 -0.43624969607E+02 -0.74535095689E+02  0.33812627490E+03  0.34898136948E+03  0.51100000000E-03 0.  1.
         22    1    1    2    0    0  0.44272808858E+02  0.10538715214E+03  0.62133701130E+03  0.63176436672E+03  0.00000000000E+00 0.  1.
          4    1    1    2  501    0 -0.64783925093E+00 -0.30852056452E+02  0.22318894427E+02  0.38110609171E+02  0.14200000000E+01 0.  1.
<mgrwt>
<rscale>  0 0.30891512E+02</rscale>
<asrwt>0</asrwt>
<pdfrwt beam="1">  1       11 0.10000000E+01 0.10040398E+03</pdfrwt>
<pdfrwt beam="2">  1        4 0.28527692E-02 0.30891512E+02</pdfrwt>
<totfact> 0.16743740E+03</totfact>
</mgrwt>
</event>
<event>
 5    1  0.1490736E-003  0.1333461E+03  0.7818608E-02  0.1222573E+00
         11   -1    0    0    0    0  0.00000000000E+00  0.00000000000E+00  0.10001804034E+04  0.10001804034E+04  0.51100000000E-03 0. -1.
          4   -1    0    0  501    0 -0.00000000000E+00 -0.00000000000E+00 -0.98689575789E+02  0.98699791132E+02  0.14200000000E+01 0. -1.
         11    1    1    2    0    0 -0.98538549100E+02 -0.83453892581E+02  0.44057533481E+02  0.13643849934E+03  0.51100000000E-03 0. -1.
         22    1    1    2    0    0  0.88480685705E+02 -0.88309051812E+02  0.74833881527E+03  0.75870831207E+03  0.00000000000E+00 0. -1.
          4    1    1    2  501    0  0.10057863394E+02  0.17176294439E+03  0.10909447889E+03  0.20373338314E+03  0.14200000000E+01 0. -1.
<mgrwt>
<rscale>  0 0.13334613E+03</rscale>
<asrwt>0</asrwt>
<pdfrwt beam="1">  1       11 0.10000000E+01 0.12500928E+03</pdfrwt>
<pdfrwt beam="2">  1        4 0.15186614E-01 0.13334613E+03</pdfrwt>
<totfact> 0.14913853E+02</totfact>
</mgrwt>
</event>
<event>
 5    1  0.1490736E-003  0.4315510E+02  0.7818608E-02  0.1505644E+00
         11   -1    0    0    0    0  0.00000000000E+00  0.00000000000E+00  0.10004992975E+04  0.10004992975E+04  0.51100000000E-03 0. -1.
          4   -1    0    0  501    0 -0.00000000000E+00 -0.00000000000E+00 -0.98263167779E+01  0.99283886618E+01  0.14200000000E+01 0. -1.
         11    1    1    2    0    0  0.89873596200E+01 -0.95418856277E+01  0.42799536211E+01  0.13789061517E+02  0.51100000000E-03 0. -1.
         22    1    1    2    0    0  0.13376218908E+02 -0.24014897801E+02  0.35542301312E+02  0.44932101345E+02  0.00000000000E+00 0. -1.
          4    1    1    2  501    0 -0.22363578528E+02  0.33556783429E+02  0.95085072578E+03  0.95170652329E+03  0.14200000000E+01 0. -1.
<mgrwt>
<rscale>  0 0.40351007E+02</rscale>
<asrwt>0</asrwt>
<pdfrwt beam="1">  1       11 0.10000000E+01 0.43155104E+02</pdfrwt>
<pdfrwt beam="2">  1        4 0.15204290E-02 0.40351007E+02</pdfrwt>
<totfact> 0.46285656E+03</totfact>
</mgrwt>
</event>
<event>
 5    1  0.1490736E-003  0.1252250E+03  0.7818608E-02  0.1234718E+00
         11   -1    0    0    0    0  0.00000000000E+00  0.00000000000E+00  0.10000861467E+04  0.10000861467E+04  0.51100000000E-03 0. -1.
          4   -1    0    0  501    0 -0.00000000000E+00 -0.00000000000E+00 -0.26650809089E+02  0.26688612274E+02  0.14200000000E+01 0. -1.
         11    1    1    2    0    0  0.10546085541E+03 -0.41683302660E+02  0.46086720545E+03  0.47461360158E+03  0.51100000000E-03 0. -1.
         22    1    1    2    0    0  0.31123714668E+02  0.49686494849E+02  0.24153480020E+03  0.24854877407E+03  0.00000000000E+00 0. -1.
          4    1    1    2  501    0 -0.13658457008E+03 -0.80031921887E+01  0.27103333193E+03  0.30361238329E+03  0.14200000000E+01 0. -1.
<mgrwt>
<rscale>  0 0.12522496E+03</rscale>
<asrwt>0</asrwt>
<pdfrwt beam="1">  1       11 0.10000000E+01 0.58629629E+02</pdfrwt>
<pdfrwt beam="2">  1        4 0.41034633E-02 0.12522496E+03</pdfrwt>
<totfact> 0.12944946E+03</totfact>
</mgrwt>
</event>
<event>
 5    1  0.1490736E-003  0.1171413E+03  0.7818608E-02  0.1247889E+00
         11   -1    0    0    0    0  0.00000000000E+00  0.00000000000E+00  0.10006688648E+04  0.10006688648E+04  0.51100000000E-03 0.  1.
          4   -1    0    0  501    0 -0.00000000000E+00 -0.00000000000E+00 -0.23891133221E+02  0.23933295774E+02  0.14200000000E+01 0.  1.
         11    1    1    2    0    0  0.45600958342E+02 -0.28597308752E+02  0.82583860269E+02  0.98576606995E+02  0.51100000000E-03 0.  1.
         22    1    1    2    0    0  0.42314476380E+02 -0.81493863522E+02  0.47479722037E+03  0.48359504255E+03  0.00000000000E+00 0.  1.
          4    1    1    2  501    0 -0.87915434722E+02  0.11009117227E+03  0.41939665096E+03  0.44243051106E+03  0.14200000000E+01 0.  1.
<mgrwt>
<rscale>  0 0.11714129E+03</rscale>
<asrwt>0</asrwt>
<pdfrwt beam="1">  1       11 0.10000000E+01 0.53826168E+02</pdfrwt>
<pdfrwt beam="2">  1        4 0.36813403E-02 0.11714129E+03</pdfrwt>
<totfact> 0.15200335E+03</totfact>
</mgrwt>
</event>
<event>
 5    1  0.1490736E-003  0.1154931E+03  0.7818608E-02  0.1253867E+00
         11   -1    0    0    0    0  0.00000000000E+00  0.00000000000E+00  0.10003138158E+04  0.10003138158E+04  0.51100000000E-03 0. -1.
          4   -1    0    0  501    0 -0.00000000000E+00 -0.00000000000E+00 -0.14015018144E+02  0.14086771581E+02  0.14200000000E+01 0. -1.
         11    1    1    2    0    0  0.91443100126E+02 -0.24565531747E+02  0.28754298354E+03  0.30273135499E+03  0.51100000000E-03 0. -1.
         22    1    1    2    0    0  0.16042052640E+02 -0.12483767623E+02  0.79212175280E+02  0.81778729628E+02  0.00000000000E+00 0.  1.
          4    1    1    2  501    0 -0.10748515277E+03  0.37049299370E+02  0.61954363886E+03  0.62989050279E+03  0.14200000000E+01 0. -1.
<mgrwt>
<rscale>  0 0.11370015E+03</rscale>
<asrwt>0</asrwt>
<pdfrwt beam="1">  1       11 0.10000000E+01 0.11549311E+03</pdfrwt>
<pdfrwt beam="2">  1        4 0.21624320E-02 0.11370015E+03</pdfrwt>
<totfact> 0.34622670E+03</totfact>
</mgrwt>
</event>
<event>
 5    1  0.1490736E-003  0.1919572E+03  0.7818608E-02  0.1160922E+00
         11   -1    0    0    0    0  0.00000000000E+00  0.00000000000E+00  0.10002157810E+04  0.10002157810E+04  0.51100000000E-03 0. -1.
          4   -1    0    0  501    0 -0.00000000000E+00 -0.00000000000E+00 -0.93326775649E+02  0.93337577925E+02  0.14200000000E+01 0. -1.
         11    1    1    2    0    0 -0.33607028267E+02 -0.70801422979E+02  0.38807033465E+03  0.39590511298E+03  0.51100000000E-03 0. -1.
         22    1    1    2    0    0 -0.10931890645E+01 -0.11324812407E+03  0.49623443236E+03  0.50899405156E+03  0.00000000000E+00 0. -1.
          4    1    1    2  501    0  0.34700217332E+02  0.18404954705E+03  0.22584238384E+02  0.18865419443E+03  0.14200000000E+01 0. -1.
<mgrwt>
<rscale>  0 0.18729751E+03</rscale>
<asrwt>0</asrwt>
<pdfrwt beam="1">  1       11 0.10000000E+01 0.19195723E+03</pdfrwt>
<pdfrwt beam="2">  1        4 0.14361972E-01 0.18729751E+03</pdfrwt>
<totfact> 0.17058761E+02</totfact>
</mgrwt>
</event>
<event>
 5    1  0.1666341E-003  0.2193304E+03  0.7818608E-02  0.1135195E+00
         11   -1    0    0    0    0  0.00000000000E+00  0.00000000000E+00  0.10001095547E+04  0.10001095547E+04  0.51100000000E-03 0. -1.
          4   -1    0    0  501    0 -0.00000000000E+00 -0.00000000000E+00 -0.49993407807E+02  0.50013570400E+02  0.14200000000E+01 0. -1.
         11    1    1    2    0    0  0.19433207224E+01 -0.20736988688E+03  0.55005658355E+03  0.58785056910E+03  0.51100000000E-03 0. -1.
         22    1    1    2    0    0  0.50941200188E+01 -0.10760700625E+02  0.34755833685E+02  0.36738409217E+02  0.00000000000E+00 0.  1.
          4    1    1    2  501    0 -0.70374407412E+01  0.21813058751E+03  0.36530372966E+03  0.42553414678E+03  0.14200000000E+01 0. -1.
<mgrwt>
<rscale>  0 0.21824870E+03</rscale>
<asrwt>0</asrwt>
<pdfrwt beam="1">  1       11 0.10000000E+01 0.21933041E+03</pdfrwt>
<pdfrwt beam="2">  1        4 0.76937646E-02 0.21824870E+03</pdfrwt>
<totfact> 0.50338384E+02</totfact>
</mgrwt>
</event>
<event>
 5    1  0.1490736E-003  0.6471967E+02  0.7818608E-02  0.1392350E+00
         11   -1    0    0    0    0  0.00000000000E+00  0.00000000000E+00  0.10005247896E+04  0.10005247896E+04  0.51100000000E-03 0.  1.
          4   -1    0    0  501    0 -0.00000000000E+00 -0.00000000000E+00 -0.43978152399E+01  0.46213827892E+01  0.14200000000E+01 0.  1.
         11    1    1    2    0    0 -0.16965964259E+02  0.98763059517E+00  0.94059901449E+02  0.95582866761E+02  0.51100000000E-03 0.  1.
         22    1    1    2    0    0 -0.33280757747E+02  0.34142360791E+02  0.24191089859E+03  0.24656478356E+03  0.00000000000E+00 0.  1.
          4    1    1    2  501    0  0.50246722006E+02 -0.35129991386E+02  0.66015617433E+03  0.66299852207E+03  0.14200000000E+01 0.  1.
<mgrwt>
<rscale>  0 0.61325898E+02</rscale>
<asrwt>0</asrwt>
<pdfrwt beam="1">  1       11 0.10000000E+01 0.64719674E+02</pdfrwt>
<pdfrwt beam="2">  1        4 0.69422609E-03 0.61325898E+02</pdfrwt>
<totfact> 0.16519391E+04</totfact>
</mgrwt>
</event>
<event>
 5    1  0.1490736E-003  0.4493698E+02  0.7818608E-02  0.1502732E+00
         11   -1    0    0    0    0  0.00000000000E+00  0.00000000000E+00  0.10004559752E+04  0.10004559752E+04  0.51100000000E-03 0.  1.
          4   -1    0    0  501    0 -0.00000000000E+00 -0.00000000000E+00 -0.69351383934E+01  0.70790214391E+01  0.14200000000E+01 0.  1.
         11    1    1    2    0    0 -0.17582634331E+02 -0.21674286028E+02  0.55319478423E+02  0.61961023217E+02  0.51100000000E-03 0.  1.
         22    1    1    2    0    0 -0.15210457752E+02 -0.24818936237E+01  0.15108975263E+02  0.21582376016E+02  0.00000000000E+00 0.  1.
          4    1    1    2  501    0  0.32793092082E+02  0.24156179651E+02  0.92309238317E+03  0.92399159745E+03  0.14200000000E+01 0.  1.
<mgrwt>
<rscale>  0 0.40754439E+02</rscale>
<asrwt>0</asrwt>
<pdfrwt beam="1">  1       11 0.10000000E+01 0.44936983E+02</pdfrwt>
<pdfrwt beam="2">  1        4 0.10785814E-02 0.40754439E+02</pdfrwt>
<totfact> 0.77026057E+03</totfact>
</mgrwt>
</event>
<event>
 5    1  0.1490736E-003  0.5111489E+02  0.7818608E-02  0.1500496E+00
         11   -1    0    0    0    0  0.00000000000E+00  0.00000000000E+00  0.10004039552E+04  0.10004039552E+04  0.51100000000E-03 0. -1.
          4   -1    0    0  501    0 -0.00000000000E+00 -0.00000000000E+00 -0.52670126287E+01  0.54550730545E+01  0.14200000000E+01 0. -1.
         11    1    1    2    0    0 -0.43824912316E+02  0.21024379194E+02  0.22752088066E+03  0.23265510653E+03  0.51100000000E-03 0. -1.
         22    1    1    2    0    0 -0.11072869809E+02 -0.31068893574E+02  0.18481616284E+03  0.18773624754E+03  0.00000000000E+00 0. -1.
          4    1    1    2  501    0  0.54897782125E+02  0.10044514380E+02  0.58279989904E+03  0.58546767414E+03  0.14200000000E+01 0. -1.
<mgrwt>
<rscale>  0 0.41067954E+02</rscale>
<asrwt>0</asrwt>
<pdfrwt beam="1">  1       11 0.10000000E+01 0.51114889E+02</pdfrwt>
<pdfrwt beam="2">  1        4 0.82518652E-03 0.41067954E+02</pdfrwt>
<totfact> 0.11421434E+04</totfact>
</mgrwt>
</event>
<event>
 5    1  0.1490736E-003  0.1058508E+03  0.7818608E-02  0.1283665E+00
         11   -1    0    0    0    0  0.00000000000E+00  0.00000000000E+00  0.10001152202E+04  0.10001152202E+04  0.51100000000E-03 0.  1.
          4   -1    0    0  501    0 -0.00000000000E+00 -0.00000000000E+00 -0.10806380511E+02  0.10899277947E+02  0.14200000000E+01 0.  1.
         11    1    1    2    0    0 -0.48719506249E+02  0.58721353707E+02  0.28491632633E+03  0.29495609958E+03  0.51100000000E-03 0.  1.
         22    1    1    2    0    0 -0.29298050935E+02  0.12510366070E+01  0.12725737859E+03  0.13059242431E+03  0.00000000000E+00 0.  1.
          4    1    1    2  501    0  0.78017557183E+02 -0.59972390314E+02  0.57713513479E+03  0.58546597428E+03  0.14200000000E+01 0.  1.
<mgrwt>
<rscale>  0 0.98414649E+02</rscale>
<asrwt>0</asrwt>
<pdfrwt beam="1">  1       11 0.10000000E+01 0.10585076E+03</pdfrwt>
<pdfrwt beam="2">  1        4 0.16699359E-02 0.98414649E+02</pdfrwt>
<totfact> 0.49954072E+03</totfact>
</mgrwt>
</event>
<event>
 5    1  0.1490736E-003  0.1829391E+03  0.7818608E-02  0.1169249E+00
         11   -1    0    0    0    0  0.00000000000E+00  0.00000000000E+00  0.10002733280E+04  0.10002733280E+04  0.51100000000E-03 0.  1.
          4   -1    0    0  501    0 -0.00000000000E+00 -0.00000000000E+00 -0.16543983551E+03  0.16544592945E+03  0.14200000000E+01 0.  1.
         11    1    1    2    0    0  0.11924242779E+03 -0.24767086086E+02  0.72703613092E+03  0.73716599270E+03  0.51100000000E-03 0.  1.
         22    1    1    2    0    0  0.53812250878E+02 -0.19020487313E+02  0.21356393918E+03  0.22105902696E+03  0.00000000000E+00 0.  1.
          4    1    1    2  501    0 -0.17305467867E+03  0.43787573398E+02 -0.10576657758E+03  0.20749423781E+03  0.14200000000E+01 0.  1.
<mgrwt>
<rscale>  0 0.17851412E+03</rscale>
<asrwt>0</asrwt>
<pdfrwt beam="1">  1       11 0.10000000E+01 0.18293905E+03</pdfrwt>
<pdfrwt beam="2">  1        4 0.25459785E-01 0.17851412E+03</pdfrwt>
<totfact> 0.60506804E+01</totfact>
</mgrwt>
</event>
<event>
 5    1  0.1490736E-003  0.3744945E+02  0.7818608E-02  0.1533663E+00
         11   -1    0    0    0    0  0.00000000000E+00  0.00000000000E+00  0.10004253504E+04  0.10004253504E+04  0.51100000000E-03 0.  1.
          4   -1    0    0  501    0 -0.00000000000E+00 -0.00000000000E+00 -0.27031688510E+01  0.30534442581E+01  0.14200000000E+01 0.  1.
         11    1    1    2    0    0  0.68607350883E+01  0.14188904315E+02  0.58377566952E+02  0.60467636096E+02  0.51100000000E-03 0.  1.
         22    1    1    2    0    0  0.16332737134E+02  0.14270594542E+02  0.80190398269E+02  0.83071704843E+02  0.00000000000E+00 0.  1.
          4    1    1    2  501    0 -0.23193472222E+02 -0.28459498857E+02  0.85915421630E+03  0.85993945369E+03  0.14200000000E+01 0.  1.
<mgrwt>
<rscale>  0 0.36740939E+02</rscale>
<asrwt>0</asrwt>
<pdfrwt beam="1">  1       11 0.10000000E+01 0.37449451E+02</pdfrwt>
<pdfrwt beam="2">  1        4 0.44308229E-03 0.36740939E+02</pdfrwt>
<totfact> 0.27033816E+04</totfact>
</mgrwt>
</event>
<event>
 5    1  0.1490736E-003  0.7276919E+02  0.7818608E-02  0.1378142E+00
         11   -1    0    0    0    0  0.00000000000E+00  0.00000000000E+00  0.10002271042E+04  0.10002271042E+04  0.51100000000E-03 0.  1.
          4   -1    0    0  501    0 -0.00000000000E+00 -0.00000000000E+00 -0.80847067393E+01  0.82084641110E+01  0.14200000000E+01 0.  1.
         11    1    1    2    0    0 -0.19216053500E+02  0.10783269978E+02  0.68709842599E+02  0.72156621967E+02  0.51100000000E-03 0.  1.
         22    1    1    2    0    0 -0.44531512805E+02 -0.23165813274E+02  0.11802018338E+03  0.12825160515E+03  0.00000000000E+00 0.  1.
          4    1    1    2  501    0  0.63747566304E+02  0.12382543296E+02  0.80541237146E+03  0.80802734118E+03  0.14200000000E+01 0.  1.
<mgrwt>
<rscale>  0 0.64954569E+02</rscale>
<asrwt>0</asrwt>
<pdfrwt beam="1">  1       11 0.10000000E+01 0.72769189E+02</pdfrwt>
<pdfrwt beam="2">  1        4 0.12536830E-02 0.64954569E+02</pdfrwt>
<totfact> 0.69999619E+03</totfact>
</mgrwt>
</event>
<event>
 5    1  0.1490736E-003  0.1761000E+03  0.7818608E-02  0.1173315E+00
         11   -1    0    0    0    0  0.00000000000E+00  0.00000000000E+00  0.10000769985E+04  0.10000769985E+04  0.51100000000E-03 0. -1.
          4   -1    0    0  501    0 -0.00000000000E+00 -0.00000000000E+00 -0.31478001446E+02  0.31510013885E+02  0.14200000000E+01 0. -1.
         11    1    1    2    0    0 -0.14530638252E+03 -0.69401034673E+02  0.53402747472E+03  0.55777754721E+03  0.51100000000E-03 0. -1.
         22    1    1    2    0    0 -0.96567508141E+01 -0.10642211994E+02  0.33743820481E+02  0.36676353868E+02  0.00000000000E+00 0. -1.
          4    1    1    2  501    0  0.15496313333E+03  0.80043246667E+02  0.40082770185E+03  0.43713311131E+03  0.14200000000E+01 0. -1.
<mgrwt>
<rscale>  0 0.17442050E+03</rscale>
<asrwt>0</asrwt>
<pdfrwt beam="1">  1       11 0.10000000E+01 0.17609996E+03</pdfrwt>
<pdfrwt beam="2">  1        4 0.48456824E-02 0.17442050E+03</pdfrwt>
<totfact> 0.10433927E+03</totfact>
</mgrwt>
</event>
<event>
 5    1  0.1490736E-003  0.6961230E+02  0.7818608E-02  0.1461174E+00
         11   -1    0    0    0    0  0.00000000000E+00  0.00000000000E+00  0.10003952781E+04  0.10003952781E+04  0.51100000000E-03 0.  1.
          4   -1    0    0  501    0 -0.00000000000E+00 -0.00000000000E+00 -0.11418817260E+02  0.11506771381E+02  0.14200000000E+01 0.  1.
         11    1    1    2    0    0 -0.55888964356E+02 -0.48328557090E+02  0.23699735848E+03  0.24824780703E+03  0.51100000000E-03 0.  1.
         22    1    1    2    0    0  0.72980672861E+02  0.43763219965E+01  0.28238820962E+03  0.29169921450E+03  0.00000000000E+00 0.  1.
          4    1    1    2  501    0 -0.17091708505E+02  0.43952235094E+02  0.46959089271E+03  0.47195502793E+03  0.14200000000E+01 0.  1.
<mgrwt>
<rscale>  0 0.47179888E+02</rscale>
<asrwt>0</asrwt>
<pdfrwt beam="1">  1       11 0.10000000E+01 0.69612298E+02</pdfrwt>
<pdfrwt beam="2">  1        4 0.17642814E-02 0.47179888E+02</pdfrwt>
<totfact> 0.38716364E+03</totfact>
</mgrwt>
</event>
<event>
 5    1  0.1490736E-003  0.2985319E+03  0.7818608E-02  0.1096339E+00
         11   -1    0    0    0    0  0.00000000000E+00  0.00000000000E+00  0.10000027854E+04  0.10000027854E+04  0.51100000000E-03 0.  1.
          4   -1    0    0  501    0 -0.00000000000E+00 -0.00000000000E+00 -0.83849867854E+02  0.83861890863E+02  0.14200000000E+01 0.  1.
         11    1    1    2    0    0 -0.13865097021E+03  0.17072504123E+02  0.25347777656E+03  0.28942450682E+03  0.51100000000E-03 0.  1.
         22    1    1    2    0    0 -0.13398173372E+03 -0.75437520379E+02  0.17730523802E+03  0.23468930926E+03  0.00000000000E+00 0.  1.
          4    1    1    2  501    0  0.27263270393E+03  0.58365016256E+02  0.48536990294E+03  0.55975086016E+03  0.14200000000E+01 0.  1.
<mgrwt>
<rscale>  0 0.27881371E+03</rscale>
<asrwt>0</asrwt>
<pdfrwt beam="1">  1       11 0.10000000E+01 0.29853189E+03</pdfrwt>
<pdfrwt beam="2">  1        4 0.12901018E-01 0.27881371E+03</pdfrwt>
<totfact> 0.21396838E+02</totfact>
</mgrwt>
</event>
<event>
 5    1  0.1490736E-003  0.1481103E+03  0.7818608E-02  0.1202814E+00
         11   -1    0    0    0    0  0.00000000000E+00  0.00000000000E+00  0.10000751862E+04  0.10000751862E+04  0.51100000000E-03 0.  1.
          4   -1    0    0  501    0 -0.00000000000E+00 -0.00000000000E+00 -0.45320049713E+02  0.45342290481E+02  0.14200000000E+01 0.  1.
         11    1    1    2    0    0  0.44823687209E+02 -0.14415557997E+02  0.27936088880E+01  0.47167525886E+02  0.51100000000E-03 0.  1.
         22    1    1    2    0    0 -0.11355911277E+03 -0.11012747128E+03  0.50429336748E+03  0.52852202651E+03  0.00000000000E+00 0.  1.
          4    1    1    2  501    0  0.68735425560E+02  0.12454302927E+03  0.44766816010E+03  0.46972792427E+03  0.14200000000E+01 0.  1.
<mgrwt>
<rscale>  0 0.14811028E+03</rscale>
<asrwt>0</asrwt>
<pdfrwt beam="1">  1       11 0.10000000E+01 0.47084748E+02</pdfrwt>
<pdfrwt beam="2">  1        4 0.69746279E-02 0.14811028E+03</pdfrwt>
<totfact> 0.56368887E+02</totfact>
</mgrwt>
</event>
<event>
 5    1  0.1490736E-003  0.1577427E+03  0.7818608E-02  0.1344913E+00
         11   -1    0    0    0    0  0.00000000000E+00  0.00000000000E+00  0.10000484840E+04  0.10000484840E+04  0.51100000000E-03 0.  1.
          4   -1    0    0  501    0 -0.00000000000E+00 -0.00000000000E+00 -0.42602677626E+02  0.42626336236E+02  0.14200000000E+01 0.  1.
         11    1    1    2    0    0 -0.16074210924E+03  0.72709900502E+02  0.23595901724E+03  0.29462079548E+03  0.51100000000E-03 0.  1.
         22    1    1    2    0    0  0.13411829337E+02 -0.32695823357E+02  0.64356072568E+02  0.73420692639E+02  0.00000000000E+00 0. -1.
          4    1    1    2  501    0  0.14733027990E+03 -0.40014077145E+02  0.65713071657E+03  0.67463333212E+03  0.14200000000E+01 0.  1.
<mgrwt>
<rscale>  0 0.74664600E+02</rscale>
<asrwt>0</asrwt>
<pdfrwt beam="1">  1       11 0.10000000E+01 0.15774272E+03</pdfrwt>
<pdfrwt beam="2">  1        4 0.65564732E-02 0.74664600E+02</pdfrwt>
<totfact> 0.56053935E+02</totfact>
</mgrwt>
</event>
<event>
 5    1  0.1490736E-003  0.8031391E+02  0.7818608E-02  0.1339158E+00
         11   -1    0    0    0    0  0.00000000000E+00  0.00000000000E+00  0.99995985213E+03  0.99995985213E+03  0.51100000000E-03 0.  1.
          4   -1    0    0  501    0 -0.00000000000E+00 -0.00000000000E+00 -0.62801610238E+01  0.64386972661E+01  0.14200000000E+01 0.  1.
         11    1    1    2    0    0  0.40505575851E+02 -0.29462389270E+02  0.26239708029E+03  0.26713472593E+03  0.51100000000E-03 0.  1.
         22    1    1    2    0    0  0.30221362237E+02  0.22955923056E+00  0.15487867016E+03  0.15779982859E+03  0.00000000000E+00 0.  1.
          4    1    1    2  501    0 -0.70726938088E+02  0.29232830040E+02  0.57640394065E+03  0.58146399486E+03  0.14200000000E+01 0.  1.
<mgrwt>
<rscale>  0 0.76543285E+02</rscale>
<asrwt>0</asrwt>
<pdfrwt beam="1">  1       11 0.10000000E+01 0.80313907E+02</pdfrwt>
<pdfrwt beam="2">  1        4 0.97841196E-03 0.76543285E+02</pdfrwt>
<totfact> 0.10542446E+04</totfact>
</mgrwt>
</event>
<event>
 5    1  0.1490736E-003  0.1388176E+03  0.7818608E-02  0.1223226E+00
         11   -1    0    0    0    0  0.00000000000E+00  0.00000000000E+00  0.99983299510E+03  0.99983299510E+03  0.51100000000E-03 0. -1.
          4   -1    0    0  501    0 -0.00000000000E+00 -0.00000000000E+00 -0.19128193581E+02  0.19180828702E+02  0.14200000000E+01 0. -1.
         11    1    1    2    0    0  0.58315510925E+02  0.25331280418E+02  0.22380919360E+03  0.23266483989E+03  0.51100000000E-03 0. -1.
         22    1    1    2    0    0  0.72852728937E+02 -0.40397942576E+01  0.37389879745E+03  0.38095163838E+03  0.00000000000E+00 0. -1.
          4    1    1    2  501    0 -0.13116823986E+03 -0.21291486161E+02  0.38299681047E+03  0.40539734553E+03  0.14200000000E+01 0. -1.
<mgrwt>
<rscale>  0 0.13289263E+03</rscale>
<asrwt>0</asrwt>
<pdfrwt beam="1">  1       11 0.10000000E+01 0.13881765E+03</pdfrwt>
<pdfrwt beam="2">  1        4 0.29464332E-02 0.13289263E+03</pdfrwt>
<totfact> 0.22036061E+03</totfact>
</mgrwt>
</event>
<event>
 5    1  0.1490736E-003  0.4274016E+02  0.7818608E-02  0.1610322E+00
         11   -1    0    0    0    0  0.00000000000E+00  0.00000000000E+00  0.99974304281E+03  0.99974304281E+03  0.51100000000E-03 0. -1.
          4   -1    0    0  501    0 -0.00000000000E+00 -0.00000000000E+00 -0.43411781119E+01  0.45675187355E+01  0.14200000000E+01 0. -1.
         11    1    1    2    0    0  0.10747938799E+02 -0.34451803701E+02  0.10777501765E+03  0.11365693730E+03  0.51100000000E-03 0. -1.
         22    1    1    2    0    0  0.19512901146E+02  0.13596764056E+01  0.10941746784E+03  0.11115207735E+03  0.00000000000E+00 0.  1.
          4    1    1    2  501    0 -0.30260839945E+02  0.33092127295E+02  0.77820937921E+03  0.77950154689E+03  0.14200000000E+01 0. -1.
<mgrwt>
<rscale>  0 0.28921750E+02</rscale>
<asrwt>0</asrwt>
<pdfrwt beam="1">  1       11 0.10000000E+01 0.42740161E+02</pdfrwt>
<pdfrwt beam="2">  1        4 0.68518582E-03 0.28921750E+02</pdfrwt>
<totfact> 0.13297194E+04</totfact>
</mgrwt>
</event>
<event>
 5    1  0.1490736E-003  0.8003644E+02  0.7818608E-02  0.1335805E+00
         11   -1    0    0    0    0  0.00000000000E+00  0.00000000000E+00  0.10003342622E+04  0.10003342622E+04  0.51100000000E-03 0. -1.
          4   -1    0    0  501    0 -0.00000000000E+00 -0.00000000000E+00 -0.68386365554E+01  0.69845078521E+01  0.14200000000E+01 0. -1.
         11    1    1    2    0    0  0.21142953725E+01 -0.17694872158E+02  0.64155250483E+02  0.66584344334E+02  0.51100000000E-03 0. -1.
         22    1    1    2    0    0  0.38241136150E+02 -0.48649888041E+02  0.27943523136E+03  0.28620489972E+03  0.00000000000E+00 0.  1.
          4    1    1    2  501    0 -0.40355431522E+02  0.66344760199E+02  0.64990514382E+03  0.65452952602E+03  0.14200000000E+01 0. -1.
<mgrwt>
<rscale>  0 0.77667268E+02</rscale>
<asrwt>0</asrwt>
<pdfrwt beam="1">  1       11 0.10000000E+01 0.80036439E+02</pdfrwt>
<pdfrwt beam="2">  1        4 0.10637518E-02 0.77667268E+02</pdfrwt>
<totfact> 0.93411234E+03</totfact>
</mgrwt>
</event>
<event>
 5    1  0.1490736E-003  0.1083097E+03  0.7818608E-02  0.1267795E+00
         11   -1    0    0    0    0  0.00000000000E+00  0.00000000000E+00  0.10002679189E+04  0.10002679189E+04  0.51100000000E-03 0. -1.
         -4   -1    0    0    0  501 -0.00000000000E+00 -0.00000000000E+00 -0.11679769100E+02  0.11765772658E+02  0.14200000000E+01 0.  1.
         11    1    1    2    0    0  0.64652219392E+02 -0.72467974246E+02  0.51116926050E+03  0.52031291513E+03  0.51100000000E-03 0. -1.
         22    1    1    2    0    0  0.11006679172E+02 -0.20287788855E+01  0.57856004436E+02  0.58928602389E+02  0.00000000000E+00 0. -1.
         -4    1    1    2    0  501 -0.75658898563E+02  0.74496753131E+02  0.41956288482E+03  0.43279217400E+03  0.14200000000E+01 0.  1.
<mgrwt>
<rscale>  0 0.10618875E+03</rscale>
<asrwt>0</asrwt>
<pdfrwt beam="1">  1       11 0.10000000E+01 0.10830966E+03</pdfrwt>
<pdfrwt beam="2">  1       -4 0.18040639E-02 0.10618875E+03</pdfrwt>
<totfact> 0.45102639E+03</totfact>
</mgrwt>
</event>
<event>
 5    1  0.1490736E-003  0.1230062E+03  0.7818608E-02  0.1240900E+00
         11   -1    0    0    0    0  0.00000000000E+00  0.00000000000E+00  0.10001028623E+04  0.10001028623E+04  0.51100000000E-03 0. -1.
          4   -1    0    0  501    0 -0.00000000000E+00 -0.00000000000E+00 -0.16062009570E+02  0.16124656630E+02  0.14200000000E+01 0. -1.
         11    1    1    2    0    0 -0.60838767648E+02 -0.80140715183E+02  0.52842222176E+03  0.53791628933E+03  0.51100000000E-03 0. -1.
         22    1    1    2    0    0 -0.19449983270E+02 -0.10829076580E+02  0.10364044855E+03  0.10600430805E+03  0.00000000000E+00 0. -1.
          4    1    1    2  501    0  0.80288750917E+02  0.90969791763E+02  0.35197818246E+03  0.37230692159E+03  0.14200000000E+01 0. -1.
<mgrwt>
<rscale>  0 0.12134168E+03</rscale>
<asrwt>0</asrwt>
<pdfrwt beam="1">  1       11 0.10000000E+01 0.12300616E+03</pdfrwt>
<pdfrwt beam="2">  1        4 0.24762296E-02 0.12134168E+03</pdfrwt>
<totfact> 0.28424471E+03</totfact>
</mgrwt>
</event>
<event>
 5    1  0.1490736E-003  0.4537525E+02  0.7818608E-02  0.1497088E+00
         11   -1    0    0    0    0  0.00000000000E+00  0.00000000000E+00  0.10004594722E+04  0.10004594722E+04  0.51100000000E-03 0. -1.
          4   -1    0    0  501    0 -0.00000000000E+00 -0.00000000000E+00 -0.62898530682E+01  0.64481510233E+01  0.14200000000E+01 0. -1.
         11    1    1    2    0    0 -0.14027881698E+02 -0.24504009845E+02  0.35237651789E+02  0.45154402524E+02  0.51100000000E-03 0. -1.
         22    1    1    2    0    0 -0.67076714364E+01 -0.11476971385E+02  0.46162219404E+02  0.48038153884E+02  0.00000000000E+00 0.  1.
          4    1    1    2  501    0  0.20735553134E+02  0.35980981230E+02  0.91276974794E+03  0.91371506682E+03  0.14200000000E+01 0. -1.
<mgrwt>
<rscale>  0 0.41552504E+02</rscale>
<asrwt>0</asrwt>
<pdfrwt beam="1">  1       11 0.10000000E+01 0.45375253E+02</pdfrwt>
<pdfrwt beam="2">  1        4 0.98037421E-03 0.41552504E+02</pdfrwt>
<totfact> 0.89115438E+03</totfact>
</mgrwt>
</event>
<event>
 5    1  0.1490736E-003  0.2156213E+03  0.7818608E-02  0.1151184E+00
         11   -1    0    0    0    0  0.00000000000E+00  0.00000000000E+00  0.10003851176E+04  0.10003851176E+04  0.51100000000E-03 0.  1.
          4   -1    0    0  501    0 -0.00000000000E+00 -0.00000000000E+00 -0.43159415558E+02  0.43182769148E+02  0.14200000000E+01 0.  1.
         11    1    1    2    0    0  0.10974563588E+03  0.84653913727E+02  0.25610046615E+03  0.29120068418E+03  0.51100000000E-03 0.  1.
         22    1    1    2    0    0  0.73933464452E+02 -0.99430972022E+01  0.19503984446E+03  0.20881945138E+03  0.00000000000E+00 0.  1.
          4    1    1    2  501    0 -0.18367910033E+03 -0.74710816525E+02  0.50608539144E+03  0.54354775120E+03  0.14200000000E+01 0.  1.
<mgrwt>
<rscale>  0 0.19829709E+03</rscale>
<asrwt>0</asrwt>
<pdfrwt beam="1">  1       11 0.10000000E+01 0.21562133E+03</pdfrwt>
<pdfrwt beam="2">  1        4 0.66443417E-02 0.19829709E+03</pdfrwt>
<totfact> 0.63450291E+02</totfact>
</mgrwt>
</event>
<event>
 5    1  0.1490736E-003  0.8940278E+02  0.7818608E-02  0.1319430E+00
         11   -1    0    0    0    0  0.00000000000E+00  0.00000000000E+00  0.10003633466E+04  0.10003633466E+04  0.51100000000E-03 0.  1.
          4   -1    0    0  501    0 -0.00000000000E+00 -0.00000000000E+00 -0.10814403443E+02  0.10907232547E+02  0.14200000000E+01 0.  1.
         11    1    1    2    0    0 -0.52713840077E+01 -0.72840869199E+02  0.19602939574E+03  0.20919154789E+03  0.51100000000E-03 0.  1.
         22    1    1    2    0    0  0.11525156983E+02 -0.10402159032E+02  0.27966747070E+02  0.31987077042E+02  0.00000000000E+00 0. -1.
          4    1    1    2  501    0 -0.62537729753E+01  0.83243028231E+02  0.76555280037E+03  0.77009195423E+03  0.14200000000E+01 0.  1.
<mgrwt>
<rscale>  0 0.83489687E+02</rscale>
<asrwt>0</asrwt>
<pdfrwt beam="1">  1       11 0.10000000E+01 0.89402780E+02</pdfrwt>
<pdfrwt beam="2">  1        4 0.16715797E-02 0.83489687E+02</pdfrwt>
<totfact> 0.48162887E+03</totfact>
</mgrwt>
</event>
<event>
 5    1  0.1490736E-003  0.1079656E+03  0.7818608E-02  0.1504333E+00
         11   -1    0    0    0    0  0.00000000000E+00  0.00000000000E+00  0.10000012018E+04  0.10000012018E+04  0.51100000000E-03 0.  1.
          4   -1    0    0  501    0 -0.00000000000E+00 -0.00000000000E+00 -0.14054842679E+02  0.14126393834E+02  0.14200000000E+01 0.  1.
         11    1    1    2    0    0  0.28964407864E+02  0.10585318281E+03  0.54624912075E+03  0.55716419049E+03  0.51100000000E-03 0.  1.
         22    1    1    2    0    0  0.12873084202E+02 -0.81105432895E+01  0.29294438557E+02  0.33010018777E+02  0.00000000000E+00 0. -1.
          4    1    1    2  501    0 -0.41837492066E+02 -0.97742639525E+02  0.41040279982E+03  0.42395338638E+03  0.14200000000E+01 0.  1.
<mgrwt>
<rscale>  0 0.40531982E+02</rscale>
<asrwt>0</asrwt>
<pdfrwt beam="1">  1       11 0.10000000E+01 0.10796556E+03</pdfrwt>
<pdfrwt beam="2">  1        4 0.21678675E-02 0.40531982E+02</pdfrwt>
<totfact> 0.27300595E+03</totfact>
</mgrwt>
</event>
<event>
 5    1  0.1490736E-003  0.3494977E+02  0.7818608E-02  0.1647663E+00
         11   -1    0    0    0    0  0.00000000000E+00  0.00000000000E+00  0.10003981685E+04  0.10003981685E+04  0.51100000000E-03 0. -1.
          4   -1    0    0  501    0 -0.00000000000E+00 -0.00000000000E+00 -0.71812400209E+01  0.73202874423E+01  0.14200000000E+01 0. -1.
         11    1    1    2    0    0  0.29222150910E+02  0.34418413778E+02  0.23191844211E+03  0.23627256527E+03  0.51100000000E-03 0. -1.
         22    1    1    2    0    0  0.83623299352E+00 -0.19239927567E+02  0.15061947183E+02  0.24448647229E+02  0.00000000000E+00 0. -1.
          4    1    1    2  501    0 -0.30058383904E+02 -0.15178486211E+02  0.74623653916E+03  0.74699724341E+03  0.14200000000E+01 0. -1.
<mgrwt>
<rscale>  0 0.25954206E+02</rscale>
<asrwt>0</asrwt>
<pdfrwt beam="1">  1       11 0.10000000E+01 0.34949768E+02</pdfrwt>
<pdfrwt beam="2">  1        4 0.11160238E-02 0.25954206E+02</pdfrwt>
<totfact> 0.63265902E+03</totfact>
</mgrwt>
</event>
<event>
 5    1  0.1490736E-003  0.4421713E+02  0.7818608E-02  0.1605406E+00
         11   -1    0    0    0    0  0.00000000000E+00  0.00000000000E+00  0.10003437875E+04  0.10003437875E+04  0.51100000000E-03 0. -1.
          4   -1    0    0  501    0 -0.00000000000E+00 -0.00000000000E+00 -0.38505206269E+01  0.41040113423E+01  0.14200000000E+01 0. -1.
         11    1    1    2    0    0 -0.31454521626E+02  0.17815964701E+02  0.14270026807E+03  0.14720788715E+03  0.51100000000E-03 0. -1.
         22    1    1    2    0    0  0.17842321048E+01  0.19387483011E+02  0.96078039124E+02  0.98030850163E+02  0.00000000000E+00 0. -1.
          4    1    1    2  501    0  0.29670289521E+02 -0.37203447711E+02  0.75771495966E+03  0.75920906152E+03  0.14200000000E+01 0. -1.
<mgrwt>
<rscale>  0 0.29348336E+02</rscale>
<asrwt>0</asrwt>
<pdfrwt beam="1">  1       11 0.10000000E+01 0.44217128E+02</pdfrwt>
<pdfrwt beam="2">  1        4 0.61217497E-03 0.29348336E+02</pdfrwt>
<totfact> 0.15713580E+04</totfact>
</mgrwt>
</event>
<event>
 5    1  0.1490736E-003  0.6841421E+02  0.7818608E-02  0.1546139E+00
         11   -1    0    0    0    0  0.00000000000E+00  0.00000000000E+00  0.10001792641E+04  0.10001792641E+04  0.51100000000E-03 0.  1.
          4   -1    0    0  501    0 -0.00000000000E+00 -0.00000000000E+00 -0.97169315367E+01  0.98201404516E+01  0.14200000000E+01 0.  1.
         11    1    1    2    0    0 -0.70183630974E+02  0.24932135299E+02  0.24985543020E+03  0.26072032799E+03  0.51100000000E-03 0.  1.
         22    1    1    2    0    0  0.34495325516E+01 -0.17858025816E+02  0.27196142965E+02  0.32717557259E+02  0.00000000000E+00 0. -1.
          4    1    1    2  501    0  0.66734098422E+02 -0.70741094836E+01  0.71341075942E+03  0.71656151932E+03  0.14200000000E+01 0.  1.
<mgrwt>
<rscale>  0 0.35278810E+02</rscale>
<asrwt>0</asrwt>
<pdfrwt beam="1">  1       11 0.10000000E+01 0.68414208E+02</pdfrwt>
<pdfrwt beam="2">  1        4 0.15031986E-02 0.35278810E+02</pdfrwt>
<totfact> 0.45254490E+03</totfact>
</mgrwt>
</event>
<event>
 5    1  0.1490736E-003  0.1702916E+03  0.7818608E-02  0.1182163E+00
         11   -1    0    0    0    0  0.00000000000E+00  0.00000000000E+00  0.10005490284E+04  0.10005490284E+04  0.51100000000E-03 0. -1.
          4   -1    0    0  501    0 -0.00000000000E+00 -0.00000000000E+00 -0.78381552269E+02  0.78394413935E+02  0.14200000000E+01 0. -1.
         11    1    1    2    0    0  0.97950381661E+01  0.12502312857E+03  0.70567031169E+03  0.71672680587E+03  0.51100000000E-03 0. -1.
         22    1    1    2    0    0  0.22094967172E+02  0.37804862132E+02  0.18902464751E+03  0.19403018461E+03  0.00000000000E+00 0.  1.
          4    1    1    2  501    0 -0.31890005338E+02 -0.16282799070E+03  0.27472516918E+02  0.16818645184E+03  0.14200000000E+01 0. -1.
<mgrwt>
<rscale>  0 0.16592752E+03</rscale>
<asrwt>0</asrwt>
<pdfrwt beam="1">  1       11 0.10000000E+01 0.17029159E+03</pdfrwt>
<pdfrwt beam="2">  1        4 0.12066388E-01 0.16592752E+03</pdfrwt>
<totfact> 0.22773048E+02</totfact>
</mgrwt>
</event>
<event>
 5    1  0.1490736E-003  0.1707699E+03  0.7818608E-02  0.1179650E+00
         11   -1    0    0    0    0  0.00000000000E+00  0.00000000000E+00  0.10000801819E+04  0.10000801819E+04  0.51100000000E-03 0. -1.
         -4   -1    0    0    0  501 -0.00000000000E+00 -0.00000000000E+00 -0.50137989204E+02  0.50158093678E+02  0.14200000000E+01 0.  1.
         11    1    1    2    0    0 -0.14415060450E+03  0.24257959509E+02  0.75102281772E+03  0.76511640821E+03  0.51100000000E-03 0. -1.
         22    1    1    2    0    0 -0.21299032465E+02  0.64600564748E+01  0.69065114747E+02  0.72562877483E+02  0.00000000000E+00 0. -1.
         -4    1    1    2    0  501  0.16544963697E+03 -0.30718015984E+02  0.12985426021E+03  0.21255898987E+03  0.14200000000E+01 0.  1.
<mgrwt>
<rscale>  0 0.16828308E+03</rscale>
<asrwt>0</asrwt>
<pdfrwt beam="1">  1       11 0.10000000E+01 0.17076993E+03</pdfrwt>
<pdfrwt beam="2">  1       -4 0.77157792E-02 0.16828308E+03</pdfrwt>
<totfact> 0.48523058E+02</totfact>
</mgrwt>
</event>
<event>
 5    1  0.1490736E-003  0.4797501E+02  0.7818608E-02  0.1462918E+00
         11   -1    0    0    0    0  0.00000000000E+00  0.00000000000E+00  0.10001960170E+04  0.10001960170E+04  0.51100000000E-03 0. -1.
          4   -1    0    0  501    0 -0.00000000000E+00 -0.00000000000E+00 -0.40022558499E+01  0.42466989402E+01  0.14200000000E+01 0. -1.
         11    1    1    2    0    0 -0.25208508526E+02  0.16846748802E+02  0.89358329381E+02  0.94362030909E+02  0.51100000000E-03 0. -1.
         22    1    1    2    0    0 -0.11161326299E+02  0.12703672285E+02  0.73196437297E+02  0.75124409663E+02  0.00000000000E+00 0. -1.
          4    1    1    2  501    0  0.36369834825E+02 -0.29550421086E+02  0.83363899444E+03  0.83495627533E+03  0.14200000000E+01 0. -1.
<mgrwt>
<rscale>  0 0.46882925E+02</rscale>
<asrwt>0</asrwt>
<pdfrwt beam="1">  1       11 0.10000000E+01 0.47975008E+02</pdfrwt>
<pdfrwt beam="2">  1        4 0.63473690E-03 0.46882925E+02</pdfrwt>
<totfact> 0.17422433E+04</totfact>
</mgrwt>
</event>
<event>
 5    1  0.1490736E-003  0.2770130E+03  0.7818608E-02  0.1098389E+00
         11   -1    0    0    0    0  0.00000000000E+00  0.00000000000E+00  0.10001153142E+04  0.10001153142E+04  0.51100000000E-03 0. -1.
          4   -1    0    0  501    0 -0.00000000000E+00 -0.00000000000E+00 -0.11454077246E+03  0.11454957423E+03  0.14200000000E+01 0.  1.
         11    1    1    2    0    0 -0.25519922434E+03 -0.63795545506E+01  0.70735291064E+03  0.75200763494E+03  0.51100000000E-03 0. -1.
         22    1    1    2    0    0 -0.19899800647E+02  0.87283023003E+01  0.58904287315E+02  0.62784555354E+02  0.00000000000E+00 0.  1.
          4    1    1    2  501    0  0.27509902499E+03 -0.23487477497E+01  0.11931734381E+03  0.29987269816E+03  0.14200000000E+01 0.  1.
<mgrwt>
<rscale>  0 0.27511272E+03</rscale>
<asrwt>0</asrwt>
<pdfrwt beam="1">  1       11 0.10000000E+01 0.27701303E+03</pdfrwt>
<pdfrwt beam="2">  1        4 0.17624444E-01 0.27511272E+03</pdfrwt>
<totfact> 0.12295204E+02</totfact>
</mgrwt>
</event>
<event>
 5    1  0.1490736E-003  0.3274941E+02  0.7818608E-02  0.1656055E+00
         11   -1    0    0    0    0  0.00000000000E+00  0.00000000000E+00  0.99994167988E+03  0.99994167988E+03  0.51100000000E-03 0.  1.
          4   -1    0    0  501    0 -0.00000000000E+00 -0.00000000000E+00 -0.25450589515E+02  0.25490172747E+02  0.14200000000E+01 0.  1.
         11    1    1    2    0    0  0.28295412843E+02 -0.21943336004E+02 -0.72611353757E+01  0.36535797106E+02  0.51100000000E-03 0.  1.
         22    1    1    2    0    0 -0.17421003199E+02 -0.89832122490E+01  0.25899925552E+02  0.32480695781E+02  0.00000000000E+00 0. -1.
          4    1    1    2  501    0 -0.10874409644E+02  0.30926548253E+02  0.95585230019E+03  0.95641535974E+03  0.14200000000E+01 0.  1.
<mgrwt>
<rscale>  0 0.25347895E+02</rscale>
<asrwt>0</asrwt>
<pdfrwt beam="1">  1       11 0.10000000E+01 0.32749406E+02</pdfrwt>
<pdfrwt beam="2">  1        4 0.39183691E-02 0.25347895E+02</pdfrwt>
<totfact> 0.97742408E+02</totfact>
</mgrwt>
</event>
<event>
 5    1  0.1490736E-003  0.1479385E+03  0.7818608E-02  0.1208223E+00
         11   -1    0    0    0    0  0.00000000000E+00  0.00000000000E+00  0.10003278212E+04  0.10003278212E+04  0.51100000000E-03 0. -1.
         -4   -1    0    0    0  501 -0.00000000000E+00 -0.00000000000E+00 -0.44409520822E+02  0.44432217361E+02  0.14200000000E+01 0.  1.
         11    1    1    2    0    0  0.11604614558E+03 -0.94336304250E+01  0.67817851120E+03  0.68810013394E+03  0.51100000000E-03 0. -1.
         22    1    1    2    0    0  0.24915559080E+02 -0.19281621006E+02  0.17999700641E+03  0.18273338039E+03  0.00000000000E+00 0.  1.
         -4    1    1    2    0  501 -0.14096170466E+03  0.28715251431E+02  0.97742782765E+02  0.17392652422E+03  0.14200000000E+01 0.  1.
<mgrwt>
<rscale>  0 0.14386377E+03</rscale>
<asrwt>0</asrwt>
<pdfrwt beam="1">  1       11 0.10000000E+01 0.14793847E+03</pdfrwt>
<pdfrwt beam="2">  1       -4 0.68362975E-02 0.14386377E+03</pdfrwt>
<totfact> 0.58021070E+02</totfact>
</mgrwt>
</event>
<event>
 5    1  0.1490736E-003  0.8212506E+02  0.7818608E-02  0.1327237E+00
         11   -1    0    0    0    0  0.00000000000E+00  0.00000000000E+00  0.10003528775E+04  0.10003528775E+04  0.51100000000E-03 0. -1.
          4   -1    0    0  501    0 -0.00000000000E+00 -0.00000000000E+00 -0.70752014602E+01  0.72162923792E+01  0.14200000000E+01 0. -1.
         11    1    1    2    0    0 -0.10898053565E+02  0.12733229187E+02  0.54924801174E+02  0.57425050991E+02  0.51100000000E-03 0. -1.
         22    1    1    2    0    0 -0.54368021632E+02  0.34612019213E+02  0.30932939717E+03  0.31597238741E+03  0.00000000000E+00 0. -1.
          4    1    1    2  501    0  0.65266075197E+02 -0.47345248400E+02  0.62902347772E+03  0.63417173150E+03  0.14200000000E+01 0. -1.
<mgrwt>
<rscale>  0 0.80642728E+02</rscale>
<asrwt>0</asrwt>
<pdfrwt beam="1">  1       11 0.10000000E+01 0.82125063E+02</pdfrwt>
<pdfrwt beam="2">  1        4 0.10998111E-02 0.80642728E+02</pdfrwt>
<totfact> 0.89672716E+03</totfact>
</mgrwt>
</event>
<event>
 5    1  0.1490736E-003  0.6985726E+02  0.7818608E-02  0.1508289E+00
         11   -1    0    0    0    0  0.00000000000E+00  0.00000000000E+00  0.10001061365E+04  0.10001061365E+04  0.51100000000E-03 0. -1.
          4   -1    0    0  501    0 -0.00000000000E+00 -0.00000000000E+00 -0.11005591398E+02  0.11096821257E+02  0.14200000000E+01 0. -1.
         11    1    1    2    0    0  0.42902018026E+01  0.53032954797E+02  0.79074160097E+02  0.95308042270E+02  0.51100000000E-03 0. -1.
         22    1    1    2    0    0 -0.10996763850E+02  0.20072044795E+02  0.10184738018E+03  0.10438728202E+03  0.00000000000E+00 0.  1.
          4    1    1    2  501    0  0.67065620472E+01 -0.73104999592E+02  0.80817900483E+03  0.81150763347E+03  0.14200000000E+01 0. -1.
<mgrwt>
<rscale>  0 0.39989425E+02</rscale>
<asrwt>0</asrwt>
<pdfrwt beam="1">  1       11 0.10000000E+01 0.69857259E+02</pdfrwt>
<pdfrwt beam="2">  1        4 0.17004435E-02 0.39989425E+02</pdfrwt>
<totfact> 0.39098510E+03</totfact>
</mgrwt>
</event>
<event>
 5    1  0.1490736E-003  0.1474536E+03  0.7818608E-02  0.1623402E+00
         11   -1    0    0    0    0  0.00000000000E+00  0.00000000000E+00  0.10002866171E+04  0.10002866171E+04  0.51100000000E-03 0.  1.
         -4   -1    0    0    0  501 -0.00000000000E+00 -0.00000000000E+00 -0.25602226136E+03  0.25602619926E+03  0.14200000000E+01 0. -1.
         11    1    1    2    0    0  0.11350826144E+03  0.73411205441E+02  0.27407563793E+03  0.30559906055E+03  0.51100000000E-03 0.  1.
         22    1    1    2    0    0 -0.11687916289E+03 -0.10099905127E+03  0.70120966395E+03  0.71802265974E+03  0.00000000000E+00 0.  1.
         -4    1    1    2    0  501  0.33709014459E+01  0.27587845834E+02 -0.23102094617E+03  0.23269109605E+03  0.14200000000E+01 0. -1.
<mgrwt>
<rscale>  0 0.27829276E+02</rscale>
<asrwt>0</asrwt>
<pdfrwt beam="1">  1       11 0.10000000E+01 0.14745357E+03</pdfrwt>
<pdfrwt beam="2">  1       -4 0.39399709E-01 0.27829276E+02</pdfrwt>
<totfact> 0.21465787E+01</totfact>
</mgrwt>
</event>
<event>
 5    1  0.1490736E-003  0.3603645E+02  0.7818608E-02  0.1576184E+00
         11   -1    0    0    0    0  0.00000000000E+00  0.00000000000E+00  0.10003690388E+04  0.10003690388E+04  0.51100000000E-03 0. -1.
          4   -1    0    0  501    0 -0.00000000000E+00 -0.00000000000E+00 -0.65701441091E+01  0.67218445098E+01  0.14200000000E+01 0. -1.
         11    1    1    2    0    0 -0.33849163665E+02 -0.30065046823E+02  0.18412385705E+03  0.18960819512E+03  0.51100000000E-03 0. -1.
         22    1    1    2    0    0  0.28019391064E+02 -0.53936965047E+01  0.55088614878E+02  0.62039775361E+02  0.00000000000E+00 0. -1.
          4    1    1    2  501    0  0.58297726008E+01  0.35458743328E+02  0.75458642271E+03  0.75544291278E+03  0.14200000000E+01 0. -1.
<mgrwt>
<rscale>  0 0.32078883E+02</rscale>
<asrwt>0</asrwt>
<pdfrwt beam="1">  1       11 0.10000000E+01 0.36036452E+02</pdfrwt>
<pdfrwt beam="2">  1        4 0.10229155E-02 0.32078883E+02</pdfrwt>
<totfact> 0.77203395E+03</totfact>
</mgrwt>
</event>
<event>
 5    1  0.1490736E-003  0.2528772E+02  0.7818608E-02  0.1767064E+00
         11   -1    0    0    0    0  0.00000000000E+00  0.00000000000E+00  0.10002800235E+04  0.10002800235E+04  0.51100000000E-03 0.  1.
          4   -1    0    0  501    0 -0.00000000000E+00 -0.00000000000E+00 -0.17029027531E+01  0.22172680908E+01  0.14200000000E+01 0.  1.
         11    1    1    2    0    0  0.47494139186E+01  0.18176903723E+02  0.85384175571E+02  0.87426621802E+02  0.51100000000E-03 0.  1.
         22    1    1    2    0    0  0.14115432699E+02  0.13255775075E+01  0.69044901982E+02  0.70485467195E+02  0.00000000000E+00 0.  1.
          4    1    1    2  501    0 -0.18864846618E+02 -0.19502481231E+02  0.84414804322E+03  0.84458520262E+03  0.14200000000E+01 0.  1.
<mgrwt>
<rscale>  0 0.18949465E+02</rscale>
<asrwt>0</asrwt>
<pdfrwt beam="1">  1       11 0.10000000E+01 0.25287717E+02</pdfrwt>
<pdfrwt beam="2">  1        4 0.30171359E-03 0.18949465E+02</pdfrwt>
<totfact> 0.35623793E+04</totfact>
</mgrwt>
</event>
<event>
 5    1  0.1490736E-003  0.5630948E+02  0.7818608E-02  0.1422690E+00
         11   -1    0    0    0    0  0.00000000000E+00  0.00000000000E+00  0.10001697800E+04  0.10001697800E+04  0.51100000000E-03 0.  1.
          4   -1    0    0  501    0 -0.00000000000E+00 -0.00000000000E+00 -0.84210791104E+01  0.85399633128E+01  0.14200000000E+01 0.  1.
         11    1    1    2    0    0  0.19427514021E+02 -0.41427739595E+01  0.24817966348E+02  0.31788713894E+02  0.51100000000E-03 0.  1.
         22    1    1    2    0    0  0.34992477126E+02  0.55192719637E+01  0.71097507128E+02  0.79434195018E+02  0.00000000000E+00 0.  1.
          4    1    1    2  501    0 -0.54419991148E+02 -0.13764980041E+01  0.89583322745E+03  0.89748683443E+03  0.14200000000E+01 0.  1.
<mgrwt>
<rscale>  0 0.54455914E+02</rscale>
<asrwt>0</asrwt>
<pdfrwt beam="1">  1       11 0.10000000E+01 0.56309479E+02</pdfrwt>
<pdfrwt beam="2">  1        4 0.13049946E-02 0.54455914E+02</pdfrwt>
<totfact> 0.63041015E+03</totfact>
</mgrwt>
</event>
<event>
 5    1  0.1490736E-003  0.1216928E+03  0.7818608E-02  0.1252921E+00
         11   -1    0    0    0    0  0.00000000000E+00  0.00000000000E+00  0.10000178523E+04  0.10000178523E+04  0.51100000000E-03 0. -1.
         -4   -1    0    0    0  501 -0.00000000000E+00 -0.00000000000E+00 -0.15720119159E+02  0.15784123237E+02  0.14200000000E+01 0.  1.
         11    1    1    2    0    0 -0.27869244848E+02 -0.69962337269E+02  0.42635666194E+03  0.43295661055E+03  0.51100000000E-03 0. -1.
         22    1    1    2    0    0 -0.41407765522E+02 -0.20858657352E+02  0.25291549205E+03  0.25713018638E+03  0.00000000000E+00 0.  1.
         -4    1    1    2    0  501  0.69277010370E+02  0.90820994621E+02  0.30502557915E+03  0.32571517859E+03  0.14200000000E+01 0.  1.
<mgrwt>
<rscale>  0 0.11423561E+03</rscale>
<asrwt>0</asrwt>
<pdfrwt beam="1">  1       11 0.10000000E+01 0.12169276E+03</pdfrwt>
<pdfrwt beam="2">  1       -4 0.24235240E-02 0.11423561E+03</pdfrwt>
<totfact> 0.29064146E+03</totfact>
</mgrwt>
</event>
<event>
 5    1  0.1490736E-003  0.8027822E+02  0.7818608E-02  0.1344107E+00
         11   -1    0    0    0    0  0.00000000000E+00  0.00000000000E+00  0.10000770080E+04  0.10000770080E+04  0.51100000000E-03 0. -1.
          4   -1    0    0  501    0 -0.00000000000E+00 -0.00000000000E+00 -0.77697616115E+01  0.78984552603E+01  0.14200000000E+01 0. -1.
         11    1    1    2    0    0 -0.54294991119E+02 -0.37760459017E+02  0.23170923505E+03  0.24096258617E+03  0.51100000000E-03 0. -1.
         22    1    1    2    0    0 -0.17598993496E+00 -0.13663807773E+02  0.35256793657E+02  0.37812327544E+02  0.00000000000E+00 0. -1.
          4    1    1    2  501    0  0.54470981054E+02  0.51424266790E+02  0.72534121767E+03  0.72920054953E+03  0.14200000000E+01 0. -1.
<mgrwt>
<rscale>  0 0.74923690E+02</rscale>
<asrwt>0</asrwt>
<pdfrwt beam="1">  1       11 0.10000000E+01 0.80278216E+02</pdfrwt>
<pdfrwt beam="2">  1        4 0.12054178E-02 0.74923690E+02</pdfrwt>
<totfact> 0.76849285E+03</totfact>
</mgrwt>
</event>
<event>
 5    1  0.1490736E-003  0.1384231E+03  0.7818608E-02  0.1231329E+00
         11   -1    0    0    0    0  0.00000000000E+00  0.00000000000E+00  0.10004462887E+04  0.10004462887E+04  0.51100000000E-03 0. -1.
          4   -1    0    0  501    0 -0.00000000000E+00 -0.00000000000E+00 -0.20421109853E+02  0.20470420798E+02  0.14200000000E+01 0. -1.
         11    1    1    2    0    0  0.75709009046E+01  0.44633788823E+02  0.17310868443E+03  0.17893046211E+03  0.51100000000E-03 0. -1.
         22    1    1    2    0    0  0.72587457740E+02  0.54409366748E+02  0.52268479972E+03  0.53049855615E+03  0.00000000000E+00 0. -1.
          4    1    1    2  501    0 -0.80158358645E+02 -0.99043155570E+02  0.28423169467E+03  0.31148769122E+03  0.14200000000E+01 0. -1.
<mgrwt>
<rscale>  0 0.12742420E+03</rscale>
<asrwt>0</asrwt>
<pdfrwt beam="1">  1       11 0.10000000E+01 0.13842312E+03</pdfrwt>
<pdfrwt beam="2">  1        4 0.31469836E-02 0.12742420E+03</pdfrwt>
<totfact> 0.19732948E+03</totfact>
</mgrwt>
</event>
<event>
 5    1  0.1490736E-003  0.2559767E+03  0.7818608E-02  0.1312562E+00
         11   -1    0    0    0    0  0.00000000000E+00  0.00000000000E+00  0.10004216471E+04  0.10004216471E+04  0.51100000000E-03 0. -1.
         -4   -1    0    0    0  501 -0.00000000000E+00 -0.00000000000E+00 -0.93786793386E+02  0.93797542685E+02  0.14200000000E+01 0.  1.
         11    1    1    2    0    0  0.19547734299E+03 -0.15687967912E+03  0.65809680048E+03  0.70421163307E+03  0.51100000000E-03 0. -1.
         22    1    1    2    0    0  0.25094301701E+01 -0.28855945632E+02  0.27265100177E+02  0.39778744648E+02  0.00000000000E+00 0.  1.
         -4    1    1    2    0  501 -0.19798677316E+03  0.18573562476E+03  0.22127295307E+03  0.35022881208E+03  0.14200000000E+01 0.  1.
<mgrwt>
<rscale>  0 0.86107163E+02</rscale>
<asrwt>0</asrwt>
<pdfrwt beam="1">  1       11 0.10000000E+01 0.25597675E+03</pdfrwt>
<pdfrwt beam="2">  1       -4 0.14435726E-01 0.86107163E+02</pdfrwt>
<totfact> 0.15419737E+02</totfact>
</mgrwt>
</event>
<event>
 5    1  0.1490736E-003  0.6263331E+02  0.7818608E-02  0.1396964E+00
         11   -1    0    0    0    0  0.00000000000E+00  0.00000000000E+00  0.10000162768E+04  0.10000162768E+04  0.51100000000E-03 0.  1.
          4   -1    0    0  501    0 -0.00000000000E+00 -0.00000000000E+00 -0.46861890952E+01  0.48966078295E+01  0.14200000000E+01 0.  1.
         11    1    1    2    0    0  0.39439303713E+02  0.15207565969E+02  0.16957070682E+03  0.17475970174E+03  0.51100000000E-03 0.  1.
         22    1    1    2    0    0  0.12180749079E+02  0.15748252213E+02  0.10410613382E+03  0.10599276011E+03  0.00000000000E+00 0.  1.
          4    1    1    2  501    0 -0.51620052792E+02 -0.30955818182E+02  0.72165324703E+03  0.72416042275E+03  0.14200000000E+01 0.  1.
<mgrwt>
<rscale>  0 0.60207217E+02</rscale>
<asrwt>0</asrwt>
<pdfrwt beam="1">  1       11 0.10000000E+01 0.62633312E+02</pdfrwt>
<pdfrwt beam="2">  1        4 0.73722776E-03 0.60207217E+02</pdfrwt>
<totfact> 0.15049669E+04</totfact>
</mgrwt>
</event>
<event>
 5    1  0.1490736E-003  0.1868602E+03  0.7818608E-02  0.1161324E+00
         11   -1    0    0    0    0  0.00000000000E+00  0.00000000000E+00  0.10004029726E+04  0.10004029726E+04  0.51100000000E-03 0. -1.
          4   -1    0    0  501    0 -0.00000000000E+00 -0.00000000000E+00 -0.14548854132E+03  0.14549547091E+03  0.14200000000E+01 0.  1.
         11    1    1    2    0    0 -0.67817417438E+02  0.10112735541E+03  0.45852732708E+03  0.47441885903E+03  0.51100000000E-03 0. -1.
         22    1    1    2    0    0 -0.11008321122E+03 -0.10203558505E+02  0.45100233155E+03  0.46435496020E+03  0.00000000000E+00 0. -1.
          4    1    1    2  501    0  0.17790062865E+03 -0.90923796909E+02 -0.54615227366E+02  0.20712462427E+03  0.14200000000E+01 0.  1.
<mgrwt>
<rscale>  0 0.18686022E+03</rscale>
<asrwt>0</asrwt>
<pdfrwt beam="1">  1       11 0.10000000E+01 0.11055508E+03</pdfrwt>
<pdfrwt beam="2">  1        4 0.22392482E-01 0.18686022E+03</pdfrwt>
<totfact> 0.77003332E+01</totfact>
</mgrwt>
</event>
<event>
 5    1  0.1490736E-003  0.2982213E+02  0.7818608E-02  0.1674350E+00
         11   -1    0    0    0    0  0.00000000000E+00  0.00000000000E+00  0.10001342494E+04  0.10001342494E+04  0.51100000000E-03 0.  1.
          4   -1    0    0  501    0 -0.00000000000E+00 -0.00000000000E+00 -0.27450280758E+01  0.30905629159E+01  0.14200000000E+01 0.  1.
         11    1    1    2    0    0 -0.22547786180E+02  0.68290430038E+01  0.77632324777E+02  0.81128394169E+02  0.51100000000E-03 0.  1.
         22    1    1    2    0    0 -0.70952621575E+01 -0.18105219122E+02  0.10919085727E+03  0.11090890413E+03  0.00000000000E+00 0.  1.
          4    1    1    2  501    0  0.29643048337E+02  0.11276176119E+02  0.81056603930E+03  0.81118751404E+03  0.14200000000E+01 0.  1.
<mgrwt>
<rscale>  0 0.24095099E+02</rscale>
<asrwt>0</asrwt>
<pdfrwt beam="1">  1       11 0.10000000E+01 0.29822126E+02</pdfrwt>
<pdfrwt beam="2">  1        4 0.44902942E-03 0.24095099E+02</pdfrwt>
<totfact> 0.22645620E+04</totfact>
</mgrwt>
</event>
<event>
 5    1  0.1490736E-003  0.6771252E+02  0.7818608E-02  0.1368049E+00
         11   -1    0    0    0    0  0.00000000000E+00  0.00000000000E+00  0.10003729862E+04  0.10003729862E+04  0.51100000000E-03 0. -1.
         -4   -1    0    0    0  501 -0.00000000000E+00 -0.00000000000E+00 -0.12471581227E+02  0.12552160703E+02  0.14200000000E+01 0. -1.
         11    1    1    2    0    0 -0.62298437005E+02  0.39840266360E+02  0.36535600267E+03  0.37276447090E+03  0.51100000000E-03 0. -1.
         22    1    1    2    0    0  0.55732097964E+01 -0.76789117821E+02  0.40740525013E+03  0.41461628901E+03  0.00000000000E+00 0. -1.
         -4    1    1    2    0  501  0.56725227208E+02  0.36948851461E+02  0.21514015220E+03  0.22554438701E+03  0.14200000000E+01 0. -1.
<mgrwt>
<rscale>  0 0.67712520E+02</rscale>
<asrwt>0</asrwt>
<pdfrwt beam="1">  1       11 0.10000000E+01 0.67494841E+02</pdfrwt>
<pdfrwt beam="2">  1       -4 0.19256987E-02 0.67712520E+02</pdfrwt>
<totfact> 0.37091018E+03</totfact>
</mgrwt>
</event>
<event>
 5    1  0.1490736E-003  0.2189456E+03  0.7818608E-02  0.1136885E+00
         11   -1    0    0    0    0  0.00000000000E+00  0.00000000000E+00  0.10003966634E+04  0.10003966634E+04  0.51100000000E-03 0.  1.
         -4   -1    0    0    0  501 -0.00000000000E+00 -0.00000000000E+00 -0.50040205239E+02  0.50060348983E+02  0.14200000000E+01 0. -1.
         11    1    1    2    0    0 -0.72427264514E+02 -0.15397121546E+03  0.42842782781E+03  0.46098074524E+03  0.51100000000E-03 0.  1.
         22    1    1    2    0    0 -0.14172146087E+02 -0.43925772589E+02  0.17334486683E+03  0.17938440868E+03  0.00000000000E+00 0.  1.
         -4    1    1    2    0  501  0.86599410601E+02  0.19789698805E+03  0.34858376356E+03  0.41009185850E+03  0.14200000000E+01 0. -1.
<mgrwt>
<rscale>  0 0.21602012E+03</rscale>
<asrwt>0</asrwt>
<pdfrwt beam="1">  1       11 0.10000000E+01 0.21894555E+03</pdfrwt>
<pdfrwt beam="2">  1       -4 0.77031743E-02 0.21602012E+03</pdfrwt>
<totfact> 0.50174658E+02</totfact>
</mgrwt>
</event>
<event>
 5    1  0.1490736E-003  0.3319857E+03  0.7818608E-02  0.1077879E+00
         11   -1    0    0    0    0  0.00000000000E+00  0.00000000000E+00  0.10000246611E+04  0.10000246611E+04  0.51100000000E-03 0.  1.
         -4   -1    0    0    0  501 -0.00000000000E+00 -0.00000000000E+00 -0.19383917407E+03  0.19384437522E+03  0.14200000000E+01 0. -1.
         11    1    1    2    0    0 -0.70888020756E+02 -0.20700004912E+03  0.51436194446E+03  0.55896542088E+03  0.51100000000E-03 0.  1.
         22    1    1    2    0    0 -0.94621552182E+02 -0.61246861564E+02  0.29908478628E+03  0.31961871906E+03  0.00000000000E+00 0.  1.
         -4    1    1    2    0  501  0.16550957294E+03  0.26824691069E+03 -0.72612437079E+01  0.31528489638E+03  0.14200000000E+01 0. -1.
<mgrwt>
<rscale>  0 0.31520127E+03</rscale>
<asrwt>0</asrwt>
<pdfrwt beam="1">  1       11 0.10000000E+01 0.33198570E+03</pdfrwt>
<pdfrwt beam="2">  1       -4 0.29822624E-01 0.31520127E+03</pdfrwt>
<totfact> 0.46768305E+01</totfact>
</mgrwt>
</event>
<event>
 5    1  0.1490736E-003  0.1404883E+03  0.7818608E-02  0.1217104E+00
         11   -1    0    0    0    0  0.00000000000E+00  0.00000000000E+00  0.10001522586E+04  0.10001522586E+04  0.51100000000E-03 0.  1.
          4   -1    0    0  501    0 -0.00000000000E+00 -0.00000000000E+00 -0.24235623567E+02  0.24277187845E+02  0.14200000000E+01 0.  1.
         11    1    1    2    0    0  0.79123926395E+02  0.46436915393E+02  0.14524369927E+03  0.17179265123E+03  0.51100000000E-03 0.  1.
         22    1    1    2    0    0  0.33830038561E+02  0.31484654215E+02  0.11524039464E+03  0.12416160243E+03  0.00000000000E+00 0. -1.
          4    1    1    2  501    0 -0.11295396496E+03 -0.77921569608E+02  0.71543254111E+03  0.72847519278E+03  0.14200000000E+01 0.  1.
<mgrwt>
<rscale>  0 0.13723114E+03</rscale>
<asrwt>0</asrwt>
<pdfrwt beam="1">  1       11 0.10000000E+01 0.14048828E+03</pdfrwt>
<pdfrwt beam="2">  1        4 0.37324004E-02 0.13723114E+03</pdfrwt>
<totfact> 0.15269438E+03</totfact>
</mgrwt>
</event>
<event>
 5    1  0.1490736E-003  0.9342301E+02  0.7818608E-02  0.1312560E+00
         11   -1    0    0    0    0  0.00000000000E+00  0.00000000000E+00  0.10000037335E+04  0.10000037335E+04  0.51100000000E-03 0.  1.
         -4   -1    0    0    0  501 -0.00000000000E+00 -0.00000000000E+00 -0.80487978379E+01  0.81730989616E+01  0.14200000000E+01 0. -1.
         11    1    1    2    0    0 -0.18342911994E+02  0.27222028526E+02  0.13473814535E+03  0.13867901453E+03  0.51100000000E-03 0.  1.
         22    1    1    2    0    0  0.10590683768E+02  0.58524657540E+02  0.34036085832E+03  0.34551817897E+03  0.00000000000E+00 0.  1.
         -4    1    1    2    0  501  0.77522282259E+01 -0.85746686067E+02  0.51685593200E+03  0.52397963897E+03  0.14200000000E+01 0. -1.
<mgrwt>
<rscale>  0 0.86108116E+02</rscale>
<asrwt>0</asrwt>
<pdfrwt beam="1">  1       11 0.10000000E+01 0.93423011E+02</pdfrwt>
<pdfrwt beam="2">  1       -4 0.12479204E-02 0.86108116E+02</pdfrwt>
<totfact> 0.75351181E+03</totfact>
</mgrwt>
</event>
<event>
 5    1  0.1490736E-003  0.1075947E+03  0.7818608E-02  0.1274370E+00
         11   -1    0    0    0    0  0.00000000000E+00  0.00000000000E+00  0.10001134109E+04  0.10001134109E+04  0.51100000000E-03 0.  1.
          4   -1    0    0  501    0 -0.00000000000E+00 -0.00000000000E+00 -0.11517207153E+02  0.11604415565E+02  0.14200000000E+01 0.  1.
         11    1    1    2    0    0 -0.39752618606E+02 -0.77980052934E+02  0.31007042964E+03  0.32218757065E+03  0.51100000000E-03 0.  1.
         22    1    1    2    0    0  0.50207105320E+01 -0.18841215220E+02  0.90893979303E+02  0.92961897564E+02  0.00000000000E+00 0.  1.
          4    1    1    2  501    0  0.34731908074E+02  0.96821268154E+02  0.58763179476E+03  0.59656835821E+03  0.14200000000E+01 0.  1.
<mgrwt>
<rscale>  0 0.10287215E+03</rscale>
<asrwt>0</asrwt>
<pdfrwt beam="1">  1       11 0.10000000E+01 0.10759472E+03</pdfrwt>
<pdfrwt beam="2">  1        4 0.17788656E-02 0.10287215E+03</pdfrwt>
<totfact> 0.45786309E+03</totfact>
</mgrwt>
</event>
<event>
 5    1  0.1490736E-003  0.3630250E+02  0.7818608E-02  0.1543964E+00
         11   -1    0    0    0    0  0.00000000000E+00  0.00000000000E+00  0.10002004943E+04  0.10002004943E+04  0.51100000000E-03 0.  1.
         -4   -1    0    0    0  501 -0.00000000000E+00 -0.00000000000E+00 -0.19748890877E+01  0.24324035250E+01  0.14200000000E+01 0.  1.
         11    1    1    2    0    0 -0.72380595657E+01  0.11628763632E+02  0.56494291322E+02  0.58131081205E+02  0.51100000000E-03 0.  1.
         22    1    1    2    0    0 -0.50244959481E+01  0.21685374414E+02  0.12286567197E+03  0.12486582547E+03  0.00000000000E+00 0.  1.
         -4    1    1    2    0  501  0.12262555514E+02 -0.33314138046E+02  0.81886564194E+03  0.81963599117E+03  0.14200000000E+01 0.  1.
<mgrwt>
<rscale>  0 0.35527714E+02</rscale>
<asrwt>0</asrwt>
<pdfrwt beam="1">  1       11 0.10000000E+01 0.36302499E+02</pdfrwt>
<pdfrwt beam="2">  1       -4 0.33916802E-03 0.35527714E+02</pdfrwt>
<totfact> 0.39115528E+04</totfact>
</mgrwt>
</event>
<event>
 5    1  0.1490736E-003  0.4440710E+02  0.7818608E-02  0.1478077E+00
         11   -1    0    0    0    0  0.00000000000E+00  0.00000000000E+00  0.99983790432E+03  0.99983790432E+03  0.51100000000E-03 0. -1.
          4   -1    0    0  501    0 -0.00000000000E+00 -0.00000000000E+00 -0.49387621959E+01  0.51388492902E+01  0.14200000000E+01 0. -1.
         11    1    1    2    0    0  0.88564062001E+01 -0.16908874996E+02  0.81344261649E+02  0.83553784402E+02  0.51100000000E-03 0. -1.
         22    1    1    2    0    0 -0.20483063898E+02  0.42975660864E+02  0.15087470816E+03  0.15820758798E+03  0.00000000000E+00 0. -1.
          4    1    1    2  501    0  0.11626657698E+02 -0.26066785867E+02  0.76268017232E+03  0.76321538123E+03  0.14200000000E+01 0. -1.
<mgrwt>
<rscale>  0 0.44407096E+02</rscale>
<asrwt>0</asrwt>
<pdfrwt beam="1">  1       11 0.10000000E+01 0.19087859E+02</pdfrwt>
<pdfrwt beam="2">  1        4 0.77515276E-03 0.44407096E+02</pdfrwt>
<totfact> 0.12813847E+04</totfact>
</mgrwt>
</event>
<event>
 5    1  0.1490736E-003  0.1332234E+03  0.7818608E-02  0.1230092E+00
         11   -1    0    0    0    0  0.00000000000E+00  0.00000000000E+00  0.10002848807E+04  0.10002848807E+04  0.51100000000E-03 0.  1.
          4   -1    0    0  501    0 -0.00000000000E+00 -0.00000000000E+00 -0.36171602791E+02  0.36199464753E+02  0.14200000000E+01 0.  1.
         11    1    1    2    0    0 -0.14118387333E+02 -0.47139293072E+02  0.24473041615E+02  0.54957907333E+02  0.51100000000E-03 0.  1.
         22    1    1    2    0    0  0.58073410523E+01 -0.80822320637E+02  0.85440446543E+02  0.11775416183E+03  0.00000000000E+00 0.  1.
          4    1    1    2  501    0  0.83110462804E+01  0.12796161371E+03  0.85419978973E+03  0.86377227627E+03  0.14200000000E+01 0.  1.
<mgrwt>
<rscale>  0 0.12823909E+03</rscale>
<asrwt>0</asrwt>
<pdfrwt beam="1">  1       11 0.10000000E+01 0.13322344E+03</pdfrwt>
<pdfrwt beam="2">  1        4 0.55686685E-02 0.12823909E+03</pdfrwt>
<totfact> 0.79685513E+02</totfact>
</mgrwt>
</event>
<event>
 5    1  0.1490736E-003  0.1031142E+03  0.7818608E-02  0.1285220E+00
         11   -1    0    0    0    0  0.00000000000E+00  0.00000000000E+00  0.10003019339E+04  0.10003019339E+04  0.51100000000E-03 0. -1.
          4   -1    0    0  501    0 -0.00000000000E+00 -0.00000000000E+00 -0.21119621201E+02  0.21167304970E+02  0.14200000000E+01 0. -1.
         11    1    1    2    0    0 -0.71639955799E+02  0.49117932691E+02  0.10362381495E+03  0.13521371825E+03  0.51100000000E-03 0. -1.
         22    1    1    2    0    0 -0.10937119919E+01  0.16089877265E+02  0.22844673966E+02  0.27963538491E+02  0.00000000000E+00 0. -1.
          4    1    1    2  501    0  0.72733667791E+02 -0.65207809956E+02  0.85271382376E+03  0.85829198210E+03  0.14200000000E+01 0. -1.
<mgrwt>
<rscale>  0 0.97694735E+02</rscale>
<asrwt>0</asrwt>
<pdfrwt beam="1">  1       11 0.10000000E+01 0.10311420E+03</pdfrwt>
<pdfrwt beam="2">  1        4 0.32539001E-02 0.97694735E+02</pdfrwt>
<totfact> 0.17862654E+03</totfact>
</mgrwt>
</event>
<event>
 5    1  0.1490736E-003  0.1394621E+03  0.7818608E-02  0.1647574E+00
         11   -1    0    0    0    0  0.00000000000E+00  0.00000000000E+00  0.10001562248E+04  0.10001562248E+04  0.51100000000E-03 0.  1.
          4   -1    0    0  501    0 -0.00000000000E+00 -0.00000000000E+00 -0.63922338655E+02  0.63938108974E+02  0.14200000000E+01 0.  1.
         11    1    1    2    0    0 -0.67668137842E+02 -0.11583974424E+03  0.21720294534E+03  0.25529383598E+03  0.51100000000E-03 0.  1.
         22    1    1    2    0    0  0.48524607846E+02  0.13331741469E+03  0.75288647080E+03  0.76613719956E+03  0.00000000000E+00 0.  1.
          4    1    1    2  501    0  0.19143529996E+02 -0.17477670448E+02 -0.33855529999E+02  0.42663298237E+02  0.14200000000E+01 0.  1.
<mgrwt>
<rscale>  0 0.25960742E+02</rscale>
<asrwt>0</asrwt>
<pdfrwt beam="1">  1       11 0.10000000E+01 0.13946214E+03</pdfrwt>
<pdfrwt beam="2">  1        4 0.98370329E-02 0.25960742E+02</pdfrwt>
<totfact> 0.23373548E+02</totfact>
</mgrwt>
</event>
<event>
 5    1  0.1490736E-003  0.8338257E+02  0.7818608E-02  0.1599710E+00
         11   -1    0    0    0    0  0.00000000000E+00  0.00000000000E+00  0.10001635990E+04  0.10001635990E+04  0.51100000000E-03 0. -1.
          4   -1    0    0  501    0 -0.00000000000E+00 -0.00000000000E+00 -0.62191559097E+02  0.62207768188E+02  0.14200000000E+01 0. -1.
         11    1    1    2    0    0  0.99662121728E+01  0.74441733945E+02 -0.32685789211E+02  0.81910060154E+02  0.51100000000E-03 0. -1.
         22    1    1    2    0    0  0.78049854822E+01  0.73004666438E+01  0.61472896151E+01  0.12328981353E+02  0.00000000000E+00 0.  1.
          4    1    1    2  501    0 -0.17771197655E+02 -0.81742200589E+02  0.96451053953E+03  0.96813232571E+03  0.14200000000E+01 0. -1.
<mgrwt>
<rscale>  0 0.29853787E+02</rscale>
<asrwt>0</asrwt>
<pdfrwt beam="1">  1       11 0.10000000E+01 0.83382570E+02</pdfrwt>
<pdfrwt beam="2">  1        4 0.95708218E-02 0.29853787E+02</pdfrwt>
<totfact> 0.25278039E+02</totfact>
</mgrwt>
</event>
<event>
 5    1  0.1490736E-003  0.2148747E+02  0.7818608E-02  0.1747590E+00
         11   -1    0    0    0    0  0.00000000000E+00  0.00000000000E+00  0.99996999214E+03  0.99996999214E+03  0.51100000000E-03 0.  1.
          4   -1    0    0  501    0 -0.00000000000E+00 -0.00000000000E+00 -0.27212182284E+01  0.30694345809E+01  0.14200000000E+01 0.  1.
         11    1    1    2    0    0 -0.22695584722E+02 -0.10879930922E+02  0.99525879786E+02  0.10265896556E+03  0.51100000000E-03 0.  1.
         22    1    1    2    0    0  0.21960305280E+01  0.18233384538E+02  0.69974051068E+02  0.72343947118E+02  0.00000000000E+00 0.  1.
          4    1    1    2  501    0  0.20499554194E+02 -0.73534536160E+01  0.82774884306E+03  0.82803651404E+03  0.14200000000E+01 0.  1.
<mgrwt>
<rscale>  0 0.19886712E+02</rscale>
<asrwt>0</asrwt>
<pdfrwt beam="1">  1       11 0.10000000E+01 0.21487473E+02</pdfrwt>
<pdfrwt beam="2">  1        4 0.44549901E-03 0.19886712E+02</pdfrwt>
<totfact> 0.21108749E+04</totfact>
</mgrwt>
</event>
<event>
 5    1  0.1490736E-003  0.1667474E+03  0.7818608E-02  0.1200280E+00
         11   -1    0    0    0    0  0.00000000000E+00  0.00000000000E+00  0.10000180014E+04  0.10000180014E+04  0.51100000000E-03 0. -1.
          4   -1    0    0  501    0 -0.00000000000E+00 -0.00000000000E+00 -0.57318603366E+02  0.57336190071E+02  0.14200000000E+01 0. -1.
         11    1    1    2    0    0  0.48314857289E+02 -0.29762325741E+02  0.27660745542E+03  0.28236820973E+03  0.51100000000E-03 0. -1.
         22    1    1    2    0    0  0.78993398944E+01 -0.10946786509E+03  0.60166102120E+03  0.61158940270E+03  0.00000000000E+00 0. -1.
          4    1    1    2  501    0 -0.56214197183E+02  0.13923019083E+03  0.64430921369E+02  0.16339657901E+03  0.14200000000E+01 0. -1.
<mgrwt>
<rscale>  0 0.15015691E+03</rscale>
<asrwt>0</asrwt>
<pdfrwt beam="1">  1       11 0.10000000E+01 0.16674740E+03</pdfrwt>
<pdfrwt beam="2">  1        4 0.88198356E-02 0.15015691E+03</pdfrwt>
<totfact> 0.38268838E+02</totfact>
</mgrwt>
</event>
<event>
 5    1  0.1490736E-003  0.1913557E+03  0.7818608E-02  0.1159275E+00
         11   -1    0    0    0    0  0.00000000000E+00  0.00000000000E+00  0.10003906471E+04  0.10003906471E+04  0.51100000000E-03 0. -1.
          4   -1    0    0  501    0 -0.00000000000E+00 -0.00000000000E+00 -0.49490043339E+02  0.49510410922E+02  0.14200000000E+01 0. -1.
         11    1    1    2    0    0  0.15695743813E+03  0.99036088829E+01  0.16237065718E+03  0.22604855489E+03  0.51100000000E-03 0. -1.
         22    1    1    2    0    0  0.32137785960E+02 -0.10331861342E+02  0.42749451710E+02  0.54471095699E+02  0.00000000000E+00 0.  1.
          4    1    1    2  501    0 -0.18909522409E+03  0.42825245876E+00  0.74578049489E+03  0.76938140746E+03  0.14200000000E+01 0. -1.
<mgrwt>
<rscale>  0 0.18910104E+03</rscale>
<asrwt>0</asrwt>
<pdfrwt beam="1">  1       11 0.10000000E+01 0.19135573E+03</pdfrwt>
<pdfrwt beam="2">  1        4 0.76184718E-02 0.18910104E+03</pdfrwt>
<totfact> 0.50292625E+02</totfact>
</mgrwt>
</event>
<event>
 5    1  0.1490736E-003  0.1314893E+03  0.7818608E-02  0.1227293E+00
         11   -1    0    0    0    0  0.00000000000E+00  0.00000000000E+00  0.10002670257E+04  0.10002670257E+04  0.51100000000E-03 0.  1.
          4   -1    0    0  501    0 -0.00000000000E+00 -0.00000000000E+00 -0.17341618944E+02  0.17399659411E+02  0.14200000000E+01 0.  1.
         11    1    1    2    0    0 -0.10748864131E+03  0.49263821976E+02  0.50012483002E+03  0.51391203310E+03  0.51100000000E-03 0.  1.
         22    1    1    2    0    0 -0.13226641788E+02 -0.74275728839E+00  0.56999663390E+02  0.58518863351E+02  0.00000000000E+00 0.  1.
          4    1    1    2  501    0  0.12071528310E+03 -0.48521064687E+02  0.42580091331E+03  0.44523578862E+03  0.14200000000E+01 0.  1.
<mgrwt>
<rscale>  0 0.13010953E+03</rscale>
<asrwt>0</asrwt>
<pdfrwt beam="1">  1       11 0.10000000E+01 0.13148928E+03</pdfrwt>
<pdfrwt beam="2">  1        4 0.26731971E-02 0.13010953E+03</pdfrwt>
<totfact> 0.25555946E+03</totfact>
</mgrwt>
</event>
<event>
 5    1  0.1490736E-003  0.1421247E+03  0.7818608E-02  0.1465583E+00
         11   -1    0    0    0    0  0.00000000000E+00  0.00000000000E+00  0.10000131704E+04  0.10000131704E+04  0.51100000000E-03 0. -1.
          4   -1    0    0  501    0 -0.00000000000E+00 -0.00000000000E+00 -0.24995225269E+02  0.25035528479E+02  0.14200000000E+01 0. -1.
         11    1    1    2    0    0  0.50274401940E+02  0.12645142078E+03  0.35920242378E+03  0.38411438213E+03  0.51100000000E-03 0. -1.
         22    1    1    2    0    0 -0.68727601384E+01  0.13523704282E+02  0.11323627779E+02  0.18930133531E+02  0.00000000000E+00 0. -1.
          4    1    1    2  501    0 -0.43401641802E+02 -0.13997512507E+03  0.60449189358E+03  0.62200418323E+03  0.14200000000E+01 0. -1.
<mgrwt>
<rscale>  0 0.46434056E+02</rscale>
<asrwt>0</asrwt>
<pdfrwt beam="1">  1       11 0.10000000E+01 0.14212468E+03</pdfrwt>
<pdfrwt beam="2">  1        4 0.38486476E-02 0.46434056E+02</pdfrwt>
<totfact> 0.11791781E+03</totfact>
</mgrwt>
</event>
<event>
 5    1  0.1490736E-003  0.3823086E+02  0.7818608E-02  0.1543465E+00
         11   -1    0    0    0    0  0.00000000000E+00  0.00000000000E+00  0.10002622310E+04  0.10002622310E+04  0.51100000000E-03 0. -1.
          4   -1    0    0  501    0 -0.00000000000E+00 -0.00000000000E+00 -0.23027965047E+01  0.27054152624E+01  0.14200000000E+01 0. -1.
         11    1    1    2    0    0 -0.54986030937E+01 -0.93563066569E+01  0.33982546558E+02  0.35673359543E+02  0.51100000000E-03 0. -1.
         22    1    1    2    0    0 -0.24840525375E+02 -0.91861341413E+01  0.13610051908E+03  0.13865348195E+03  0.00000000000E+00 0. -1.
          4    1    1    2  501    0  0.30339128469E+02  0.18542440798E+02  0.82787636884E+03  0.82864080476E+03  0.14200000000E+01 0. -1.
<mgrwt>
<rscale>  0 0.35585126E+02</rscale>
<asrwt>0</asrwt>
<pdfrwt beam="1">  1       11 0.10000000E+01 0.38230857E+02</pdfrwt>
<pdfrwt beam="2">  1        4 0.38542563E-03 0.35585126E+02</pdfrwt>
<totfact> 0.32624531E+04</totfact>
</mgrwt>
</event>
<event>
 5    1  0.1490736E-003  0.1666849E+03  0.7818608E-02  0.1190908E+00
         11   -1    0    0    0    0  0.00000000000E+00  0.00000000000E+00  0.10002016997E+04  0.10002016997E+04  0.51100000000E-03 0. -1.
          4   -1    0    0  501    0 -0.00000000000E+00 -0.00000000000E+00 -0.26696930195E+02  0.26734668164E+02  0.14200000000E+01 0. -1.
         11    1    1    2    0    0 -0.27700461922E+02 -0.13576648963E+03  0.31895680742E+03  0.34775465532E+03  0.51100000000E-03 0. -1.
         22    1    1    2    0    0  0.24864804573E+01 -0.20259761865E+02  0.12119281491E+03  0.12289971083E+03  0.00000000000E+00 0.  1.
          4    1    1    2  501    0  0.25213981465E+02  0.15602625149E+03  0.53335514722E+03  0.55628200176E+03  0.14200000000E+01 0. -1.
<mgrwt>
<rscale>  0 0.15805680E+03</rscale>
<asrwt>0</asrwt>
<pdfrwt beam="1">  1       11 0.10000000E+01 0.16668486E+03</pdfrwt>
<pdfrwt beam="2">  1        4 0.41110294E-02 0.15805680E+03</pdfrwt>
<totfact> 0.13389318E+03</totfact>
</mgrwt>
</event>
<event>
 5    1  0.1490736E-003  0.3510489E+03  0.7818608E-02  0.1076029E+00
         11   -1    0    0    0    0  0.00000000000E+00  0.00000000000E+00  0.10002281519E+04  0.10002281519E+04  0.51100000000E-03 0. -1.
          4   -1    0    0  501    0 -0.00000000000E+00 -0.00000000000E+00 -0.25302774593E+03  0.25303173044E+03  0.14200000000E+01 0. -1.
         11    1    1    2    0    0 -0.15633703027E+03 -0.18536410219E+03  0.54919253378E+03  0.60034453156E+03  0.51100000000E-03 0. -1.
         22    1    1    2    0    0 -0.10702212835E+03  0.50481126660E+01  0.29942239500E+03  0.31801413494E+03  0.00000000000E+00 0.  1.
          4    1    1    2  501    0  0.26335915862E+03  0.18031598953E+03 -0.10141452284E+03  0.33490121581E+03  0.14200000000E+01 0. -1.
<mgrwt>
<rscale>  0 0.31917694E+03</rscale>
<asrwt>0</asrwt>
<pdfrwt beam="1">  1       11 0.10000000E+01 0.35104892E+03</pdfrwt>
<pdfrwt beam="2">  1        4 0.38936610E-01 0.31917694E+03</pdfrwt>
<totfact> 0.27786758E+01</totfact>
</mgrwt>
</event>
<event>
 5    1  0.1490736E-003  0.9955257E+02  0.7818608E-02  0.1289164E+00
         11   -1    0    0    0    0  0.00000000000E+00  0.00000000000E+00  0.10001533277E+04  0.10001533277E+04  0.51100000000E-03 0. -1.
          4   -1    0    0  501    0 -0.00000000000E+00 -0.00000000000E+00 -0.10656525844E+02  0.10750718258E+02  0.14200000000E+01 0. -1.
         11    1    1    2    0    0 -0.50718855326E+02  0.38427656836E+02  0.18015346314E+03  0.19106113519E+03  0.51100000000E-03 0. -1.
         22    1    1    2    0    0 -0.19260512705E+02  0.27127422127E+02  0.15681835581E+03  0.16030864324E+03  0.00000000000E+00 0. -1.
          4    1    1    2  501    0  0.69979368031E+02 -0.65555078963E+02  0.65252498291E+03  0.65953426754E+03  0.14200000000E+01 0. -1.
<mgrwt>
<rscale>  0 0.95898888E+02</rscale>
<asrwt>0</asrwt>
<pdfrwt beam="1">  1       11 0.10000000E+01 0.99552571E+02</pdfrwt>
<pdfrwt beam="2">  1        4 0.16470411E-02 0.95898888E+02</pdfrwt>
<totfact> 0.50738985E+03</totfact>
</mgrwt>
</event>
<event>
 5    1  0.1490736E-003  0.2413936E+03  0.7818608E-02  0.1121821E+00
         11   -1    0    0    0    0  0.00000000000E+00  0.00000000000E+00  0.10001990408E+04  0.10001990408E+04  0.51100000000E-03 0. -1.
          4   -1    0    0  501    0 -0.00000000000E+00 -0.00000000000E+00 -0.64330973482E+02  0.64346643651E+02  0.14200000000E+01 0.  1.
         11    1    1    2    0    0 -0.22585473725E+03 -0.28778082324E+02  0.61602344792E+03  0.65675218214E+03  0.51100000000E-03 0. -1.
         22    1    1    2    0    0 -0.10291442397E+02  0.89590349075E+01  0.33059055419E+02  0.35764217289E+02  0.00000000000E+00 0. -1.
          4    1    1    2  501    0  0.23614617964E+03  0.19819047417E+02  0.28678556394E+03  0.37202928498E+03  0.14200000000E+01 0.  1.
<mgrwt>
<rscale>  0 0.23698065E+03</rscale>
<asrwt>0</asrwt>
<pdfrwt beam="1">  1       11 0.10000000E+01 0.24139359E+03</pdfrwt>
<pdfrwt beam="2">  1        4 0.99003257E-02 0.23698065E+03</pdfrwt>
<totfact> 0.33223754E+02</totfact>
</mgrwt>
</event>
<event>
 5    1  0.1490736E-003  0.2410659E+03  0.7818608E-02  0.1119085E+00
         11   -1    0    0    0    0  0.00000000000E+00  0.00000000000E+00  0.10002959700E+04  0.10002959700E+04  0.51100000000E-03 0. -1.
         -4   -1    0    0    0  501 -0.00000000000E+00 -0.00000000000E+00 -0.10997300771E+03  0.10998217503E+03  0.14200000000E+01 0.  1.
         11    1    1    2    0    0 -0.53625710471E+02 -0.23675683162E+03  0.73688060552E+03  0.77583667156E+03  0.51100000000E-03 0. -1.
         22    1    1    2    0    0 -0.23055085947E+02  0.83697906056E+01  0.78335078218E+02  0.82085168345E+02  0.00000000000E+00 0. -1.
         -4    1    1    2    0  501  0.76680796418E+02  0.22838704101E+03  0.75107278543E+02  0.25235630512E+03  0.14200000000E+01 0.  1.
<mgrwt>
<rscale>  0 0.24106593E+03</rscale>
<asrwt>0</asrwt>
<pdfrwt beam="1">  1       11 0.10000000E+01 0.24527339E+02</pdfrwt>
<pdfrwt beam="2">  1       -4 0.16924714E-01 0.24106593E+03</pdfrwt>
<totfact> 0.13071634E+02</totfact>
</mgrwt>
</event>
<event>
 5    1  0.1490736E-003  0.1129878E+03  0.7818608E-02  0.1543480E+00
         11   -1    0    0    0    0  0.00000000000E+00  0.00000000000E+00  0.10002566384E+04  0.10002566384E+04  0.51100000000E-03 0. -1.
          4   -1    0    0  501    0 -0.00000000000E+00 -0.00000000000E+00 -0.15326910367E+02  0.15392549541E+02  0.14200000000E+01 0. -1.
         11    1    1    2    0    0  0.74620304834E+02 -0.80267360282E+02  0.56500542333E+03  0.57553641710E+03  0.51100000000E-03 0. -1.
         22    1    1    2    0    0  0.11056472723E+02 -0.18209073794E+01  0.19658960280E+02  0.22628212745E+02  0.00000000000E+00 0.  1.
          4    1    1    2  501    0 -0.85676777557E+02  0.82088267662E+02  0.40026534446E+03  0.41748455813E+03  0.14200000000E+01 0. -1.
<mgrwt>
<rscale>  0 0.35583355E+02</rscale>
<asrwt>0</asrwt>
<pdfrwt beam="1">  1       11 0.10000000E+01 0.11298781E+03</pdfrwt>
<pdfrwt beam="2">  1        4 0.23637193E-02 0.35583355E+02</pdfrwt>
<totfact> 0.23132225E+03</totfact>
</mgrwt>
</event>
<event>
 5    1  0.1490736E-003  0.3495627E+02  0.7818608E-02  0.1659102E+00
         11   -1    0    0    0    0  0.00000000000E+00  0.00000000000E+00  0.10001843850E+04  0.10001843850E+04  0.51100000000E-03 0.  1.
          4   -1    0    0  501    0 -0.00000000000E+00 -0.00000000000E+00 -0.34234326174E+01  0.37062502460E+01  0.14200000000E+01 0.  1.
         11    1    1    2    0    0  0.21629667944E+02  0.71335508048E+01  0.52257163281E+02  0.57004747143E+02  0.51100000000E-03 0.  1.
         22    1    1    2    0    0  0.15651477825E+02 -0.90009476905E+01  0.10423228975E+03  0.10578447922E+03  0.00000000000E+00 0.  1.
          4    1    1    2  501    0 -0.37281145769E+02  0.18673968858E+01  0.84027149934E+03  0.84110140887E+03  0.14200000000E+01 0.  1.
<mgrwt>
<rscale>  0 0.25132816E+02</rscale>
<asrwt>0</asrwt>
<pdfrwt beam="1">  1       11 0.10000000E+01 0.34956273E+02</pdfrwt>
<pdfrwt beam="2">  1        4 0.54861581E-03 0.25132816E+02</pdfrwt>
<totfact> 0.17332267E+04</totfact>
</mgrwt>
</event>
<event>
 5    1  0.1490736E-003  0.1785437E+03  0.7818608E-02  0.1169220E+00
         11   -1    0    0    0    0  0.00000000000E+00  0.00000000000E+00  0.10004559515E+04  0.10004559515E+04  0.51100000000E-03 0. -1.
         -4   -1    0    0    0  501 -0.00000000000E+00 -0.00000000000E+00 -0.82105259321E+03  0.82105382114E+03  0.14200000000E+01 0.  1.
         11    1    1    2    0    0 -0.33972499473E+02 -0.34571976576E+02  0.84971776603E+02  0.97824102880E+02  0.51100000000E-03 0. -1.
         22    1    1    2    0    0 -0.10556422913E+03  0.14604102740E+03  0.89013144889E+03  0.90818818780E+03  0.00000000000E+00 0. -1.
         -4    1    1    2    0  501  0.13953672861E+03 -0.11146905083E+03 -0.79569986723E+03  0.81549748193E+03  0.14200000000E+01 0.  1.
<mgrwt>
<rscale>  0 0.17854367E+03</rscale>
<asrwt>0</asrwt>
<pdfrwt beam="1">  1       11 0.10000000E+01 0.48470117E+02</pdfrwt>
<pdfrwt beam="2">  1       -4 0.12637355E+00 0.17854367E+03</pdfrwt>
<totfact> 0.20522632E+00</totfact>
</mgrwt>
</event>
<event>
 5    1  0.1490736E-003  0.1948177E+03  0.7818608E-02  0.1156917E+00
         11   -1    0    0    0    0  0.00000000000E+00  0.00000000000E+00  0.10002224009E+04  0.10002224009E+04  0.51100000000E-03 0. -1.
         -4   -1    0    0    0  501 -0.00000000000E+00 -0.00000000000E+00 -0.54704399933E+02  0.54722826791E+02  0.14200000000E+01 0.  1.
         11    1    1    2    0    0  0.10046589227E+02  0.36833920407E+02  0.21725187570E+03  0.22058116225E+03  0.51100000000E-03 0. -1.
         22    1    1    2    0    0  0.29781197317E+02  0.15070086744E+03  0.55527725649E+03  0.57613410134E+03  0.00000000000E+00 0. -1.
         -4    1    1    2    0  501 -0.39827786544E+02 -0.18753478785E+03  0.17298886880E+03  0.25822996411E+03  0.14200000000E+01 0.  1.
<mgrwt>
<rscale>  0 0.19172263E+03</rscale>
<asrwt>0</asrwt>
<pdfrwt beam="1">  1       11 0.10000000E+01 0.19481774E+03</pdfrwt>
<pdfrwt beam="2">  1       -4 0.84194283E-02 0.19172263E+03</pdfrwt>
<totfact> 0.42640162E+02</totfact>
</mgrwt>
</event>
<event>
 5    1  0.1490736E-003  0.7847347E+02  0.7818608E-02  0.1342432E+00
         11   -1    0    0    0    0  0.00000000000E+00  0.00000000000E+00  0.10002986968E+04  0.10002986968E+04  0.51100000000E-03 0. -1.
          4   -1    0    0  501    0 -0.00000000000E+00 -0.00000000000E+00 -0.68004041711E+01  0.69470782989E+01  0.14200000000E+01 0. -1.
         11    1    1    2    0    0 -0.35041755884E+02 -0.42284333893E+02  0.21198273347E+03  0.21898074993E+03  0.51100000000E-03 0. -1.
         22    1    1    2    0    0 -0.23758142692E+01 -0.23237514827E+02  0.10577532509E+03  0.10832380157E+03  0.00000000000E+00 0.  1.
          4    1    1    2  501    0  0.37417570153E+02  0.65521848720E+02  0.67574023411E+03  0.67994122365E+03  0.14200000000E+01 0. -1.
<mgrwt>
<rscale>  0 0.75466573E+02</rscale>
<asrwt>0</asrwt>
<pdfrwt beam="1">  1       11 0.10000000E+01 0.78473471E+02</pdfrwt>
<pdfrwt beam="2">  1        4 0.10578920E-02 0.75466573E+02</pdfrwt>
<totfact> 0.93538336E+03</totfact>
</mgrwt>
</event>
<event>
 5    1  0.1490736E-003  0.1782874E+03  0.7818608E-02  0.1299759E+00
         11   -1    0    0    0    0  0.00000000000E+00  0.00000000000E+00  0.99998439749E+03  0.99998439749E+03  0.51100000000E-03 0. -1.
          4   -1    0    0  501    0 -0.00000000000E+00 -0.00000000000E+00 -0.15340441152E+03  0.15341098355E+03  0.14200000000E+01 0. -1.
         11    1    1    2    0    0 -0.21312169296E+03  0.16839982112E+02  0.77002842811E+03  0.79915469160E+03  0.51100000000E-03 0. -1.
         22    1    1    2    0    0  0.12384276072E+03 -0.35841058309E+02  0.17669667421E+03  0.21873117181E+03  0.00000000000E+00 0. -1.
          4    1    1    2  501    0  0.89278932236E+02  0.19001076197E+02 -0.10014511636E+03  0.13550951763E+03  0.14200000000E+01 0. -1.
<mgrwt>
<rscale>  0 0.91289567E+02</rscale>
<asrwt>0</asrwt>
<pdfrwt beam="1">  1       11 0.10000000E+01 0.17828741E+03</pdfrwt>
<pdfrwt beam="2">  1        4 0.23600893E-01 0.91289567E+02</pdfrwt>
<totfact> 0.65152851E+01</totfact>
</mgrwt>
</event>
<event>
 5    1  0.1490736E-003  0.2191787E+03  0.7818608E-02  0.1139624E+00
         11   -1    0    0    0    0  0.00000000000E+00  0.00000000000E+00  0.99998131580E+03  0.99998131580E+03  0.51100000000E-03 0.  1.
          4   -1    0    0  501    0 -0.00000000000E+00 -0.00000000000E+00 -0.46694848187E+02  0.46716434444E+02  0.14200000000E+01 0.  1.
         11    1    1    2    0    0  0.17799877552E+03 -0.64487666075E+00  0.38757143077E+03  0.42649219677E+03  0.51100000000E-03 0.  1.
         22    1    1    2    0    0  0.33395409605E+02 -0.20667911040E+02  0.12353105755E+03  0.12962383310E+03  0.00000000000E+00 0.  1.
          4    1    1    2  501    0 -0.21139418512E+03  0.21312787701E+02  0.44218397929E+03  0.49058172037E+03  0.14200000000E+01 0.  1.
<mgrwt>
<rscale>  0 0.21247059E+03</rscale>
<asrwt>0</asrwt>
<pdfrwt beam="1">  1       11 0.10000000E+01 0.21917866E+03</pdfrwt>
<pdfrwt beam="2">  1        4 0.71854264E-02 0.21247059E+03</pdfrwt>
<totfact> 0.56219627E+02</totfact>
</mgrwt>
</event>
<event>
 5    1  0.1490736E-003  0.1183739E+03  0.7818608E-02  0.1608206E+00
         11   -1    0    0    0    0  0.00000000000E+00  0.00000000000E+00  0.10001767205E+04  0.10001767205E+04  0.51100000000E-03 0. -1.
         -4   -1    0    0    0  501 -0.00000000000E+00 -0.00000000000E+00 -0.51665912575E+02  0.51685422724E+02  0.14200000000E+01 0. -1.
         11    1    1    2    0    0 -0.10976059905E+03 -0.15476668913E+02  0.62576980681E+03  0.63551142201E+03  0.51100000000E-03 0. -1.
         22    1    1    2    0    0  0.13859758194E+03  0.11806243883E+02  0.34990476855E+03  0.37653953865E+03  0.00000000000E+00 0. -1.
         -4    1    1    2    0  501 -0.28836982892E+02  0.36704250297E+01 -0.27163767389E+02  0.39811182612E+02  0.14200000000E+01 0. -1.
<mgrwt>
<rscale>  0 0.29104295E+02</rscale>
<asrwt>0</asrwt>
<pdfrwt beam="1">  1       11 0.10000000E+01 0.11837388E+03</pdfrwt>
<pdfrwt beam="2">  1       -4 0.79515850E-02 0.29104295E+02</pdfrwt>
<totfact> 0.33817247E+02</totfact>
</mgrwt>
</event>
<event>
 5    1  0.1490736E-003  0.2372927E+03  0.7818608E-02  0.1124257E+00
         11   -1    0    0    0    0  0.00000000000E+00  0.00000000000E+00  0.10002162876E+04  0.10002162876E+04  0.51100000000E-03 0.  1.
          4   -1    0    0  501    0 -0.00000000000E+00 -0.00000000000E+00 -0.58154264838E+02  0.58171598902E+02  0.14200000000E+01 0.  1.
         11    1    1    2    0    0 -0.49317344721E+02 -0.20055585175E+03  0.48729853976E+03  0.52925864850E+03  0.51100000000E-03 0.  1.
         22    1    1    2    0    0 -0.16934200556E+02 -0.23258432396E+02  0.10318111802E+03  0.10711706186E+03  0.00000000000E+00 0. -1.
          4    1    1    2  501    0  0.66251545277E+02  0.22381428414E+03  0.35158236494E+03  0.42201217610E+03  0.14200000000E+01 0.  1.
<mgrwt>
<rscale>  0 0.23341833E+03</rscale>
<asrwt>0</asrwt>
<pdfrwt beam="1">  1       11 0.10000000E+01 0.23729269E+03</pdfrwt>
<pdfrwt beam="2">  1        4 0.89501560E-02 0.23341833E+03</pdfrwt>
<totfact> 0.39359072E+02</totfact>
</mgrwt>
</event>
<event>
 5    1  0.1490736E-003  0.1765564E+03  0.7818608E-02  0.1171178E+00
         11   -1    0    0    0    0  0.00000000000E+00  0.00000000000E+00  0.10003541123E+04  0.10003541123E+04  0.51100000000E-03 0.  1.
          4   -1    0    0  501    0 -0.00000000000E+00 -0.00000000000E+00 -0.63454043343E+02  0.63469930018E+02  0.14200000000E+01 0.  1.
         11    1    1    2    0    0  0.15420087731E+03  0.13506319156E+02  0.64321233448E+03  0.66157572389E+03  0.51100000000E-03 0.  1.
         22    1    1    2    0    0  0.24578977997E+02 -0.57960381698E+02  0.16751521842E+03  0.17895496754E+03  0.00000000000E+00 0.  1.
          4    1    1    2  501    0 -0.17877985531E+03  0.44454062543E+02  0.12617251607E+03  0.22329335090E+03  0.14200000000E+01 0.  1.
<mgrwt>
<rscale>  0 0.17655639E+03</rscale>
<asrwt>0</asrwt>
<pdfrwt beam="1">  1       11 0.10000000E+01 0.62956588E+02</pdfrwt>
<pdfrwt beam="2">  1        4 0.97669172E-02 0.17655639E+03</pdfrwt>
<totfact> 0.32887047E+02</totfact>
</mgrwt>
</event>
<event>
 5    1  0.1490736E-003  0.1608325E+03  0.7818608E-02  0.1187760E+00
         11   -1    0    0    0    0  0.00000000000E+00  0.00000000000E+00  0.99994592452E+03  0.99994592452E+03  0.51100000000E-03 0. -1.
          4   -1    0    0  501    0 -0.00000000000E+00 -0.00000000000E+00 -0.27347419578E+03  0.27347788240E+03  0.14200000000E+01 0. -1.
         11    1    1    2    0    0  0.74914362110E+02  0.14429777636E+03  0.81376611666E+03  0.82984896369E+03  0.51100000000E-03 0. -1.
         22    1    1    2    0    0 -0.39226372675E+02  0.12622047045E+02  0.15072422536E+03  0.15625561268E+03  0.00000000000E+00 0.  1.
          4    1    1    2  501    0 -0.35687989435E+02 -0.15691982340E+03 -0.23801861329E+03  0.28731923054E+03  0.14200000000E+01 0. -1.
<mgrwt>
<rscale>  0 0.16083252E+03</rscale>
<asrwt>0</asrwt>
<pdfrwt beam="1">  1       11 0.10000000E+01 0.41207091E+02</pdfrwt>
<pdfrwt beam="2">  1        4 0.42071038E-01 0.16083252E+03</pdfrwt>
<totfact> 0.22860380E+01</totfact>
</mgrwt>
</event>
<event>
 5    1  0.1490736E-003  0.3180025E+02  0.7818608E-02  0.1579001E+00
         11   -1    0    0    0    0  0.00000000000E+00  0.00000000000E+00  0.10000892118E+04  0.10000892118E+04  0.51100000000E-03 0. -1.
          4   -1    0    0  501    0 -0.00000000000E+00 -0.00000000000E+00 -0.19251496238E+01  0.23921958687E+01  0.14200000000E+01 0. -1.
         11    1    1    2    0    0 -0.80711035346E+01  0.63465204866E+01  0.59965985358E+02  0.60838642611E+02  0.51100000000E-03 0. -1.
         22    1    1    2    0    0 -0.26929062469E+02 -0.15276113416E+02  0.18460575034E+03  0.18718391252E+03  0.00000000000E+00 0. -1.
          4    1    1    2  501    0  0.35000166004E+02  0.89295929292E+01  0.75359232647E+03  0.75445885253E+03  0.14200000000E+01 0. -1.
<mgrwt>
<rscale>  0 0.31800247E+02</rscale>
<asrwt>0</asrwt>
<pdfrwt beam="1">  1       11 0.10000000E+01 0.10267480E+02</pdfrwt>
<pdfrwt beam="2">  1        4 0.33221067E-03 0.31800247E+02</pdfrwt>
<totfact> 0.38672421E+04</totfact>
</mgrwt>
</event>
<event>
 5    1  0.1490736E-003  0.5576279E+02  0.7818608E-02  0.1498223E+00
         11   -1    0    0    0    0  0.00000000000E+00  0.00000000000E+00  0.10000717284E+04  0.10000717284E+04  0.51100000000E-03 0. -1.
          4   -1    0    0  501    0 -0.00000000000E+00 -0.00000000000E+00 -0.70405247523E+01  0.71822969020E+01  0.14200000000E+01 0. -1.
         11    1    1    2    0    0  0.46641659843E+02  0.77294084821E+01  0.23696711611E+03  0.24163733632E+03  0.51100000000E-03 0. -1.
         22    1    1    2    0    0  0.39446060711E+01  0.30457914927E+02  0.67715591314E+02  0.74354864035E+02  0.00000000000E+00 0. -1.
          4    1    1    2  501    0 -0.50586265914E+02 -0.38187323409E+02  0.68834849622E+03  0.69126182494E+03  0.14200000000E+01 0. -1.
<mgrwt>
<rscale>  0 0.41390302E+02</rscale>
<asrwt>0</asrwt>
<pdfrwt beam="1">  1       11 0.10000000E+01 0.55762791E+02</pdfrwt>
<pdfrwt beam="2">  1        4 0.10942192E-02 0.41390302E+02</pdfrwt>
<totfact> 0.75764910E+03</totfact>
</mgrwt>
</event>
<event>
 5    1  0.1490736E-003  0.1007636E+03  0.7818608E-02  0.1288036E+00
         11   -1    0    0    0    0  0.00000000000E+00  0.00000000000E+00  0.10001019485E+04  0.10001019485E+04  0.51100000000E-03 0. -1.
         -4   -1    0    0    0  501 -0.00000000000E+00 -0.00000000000E+00 -0.97811935098E+01  0.98837314045E+01  0.14200000000E+01 0.  1.
         11    1    1    2    0    0 -0.95125686143E+01 -0.84448887759E+02  0.42912839530E+03  0.43746232210E+03  0.51100000000E-03 0. -1.
         22    1    1    2    0    0 -0.14734790400E+00 -0.11463380233E+02  0.22290430367E+02  0.25065795095E+02  0.00000000000E+00 0.  1.
         -4    1    1    2    0  501  0.96599165183E+01  0.95912267992E+02  0.53890192930E+03  0.54745756268E+03  0.14200000000E+01 0.  1.
<mgrwt>
<rscale>  0 0.96407954E+02</rscale>
<asrwt>0</asrwt>
<pdfrwt beam="1">  1       11 0.10000000E+01 0.10076360E+03</pdfrwt>
<pdfrwt beam="2">  1       -4 0.15129183E-02 0.96407954E+02</pdfrwt>
<totfact> 0.57777880E+03</totfact>
</mgrwt>
</event>
<event>
 5    1  0.1490736E-003  0.7355012E+02  0.7818608E-02  0.1348421E+00
         11   -1    0    0    0    0  0.00000000000E+00  0.00000000000E+00  0.10004967227E+04  0.10004967227E+04  0.51100000000E-03 0. -1.
          4   -1    0    0  501    0 -0.00000000000E+00 -0.00000000000E+00 -0.85538940477E+02  0.85550726109E+02  0.14200000000E+01 0. -1.
         11    1    1    2    0    0 -0.56904540843E+02 -0.35738939433E+02  0.18983902948E+03  0.20138087217E+03  0.51100000000E-03 0. -1.
         22    1    1    2    0    0  0.97534228823E+02  0.95411686477E+02  0.78133432792E+03  0.79315802189E+03  0.00000000000E+00 0. -1.
          4    1    1    2  501    0 -0.40629687980E+02 -0.59672747044E+02 -0.56215575227E+02  0.91508554699E+02  0.14200000000E+01 0. -1.
<mgrwt>
<rscale>  0 0.73550123E+02</rscale>
<asrwt>0</asrwt>
<pdfrwt beam="1">  1       11 0.10000000E+01 0.67196715E+02</pdfrwt>
<pdfrwt beam="2">  1        4 0.13167358E-01 0.73550123E+02</pdfrwt>
<totfact> 0.17648669E+02</totfact>
</mgrwt>
</event>
<event>
 5    1  0.1490736E-003  0.1376432E+03  0.7818608E-02  0.1216536E+00
         11   -1    0    0    0    0  0.00000000000E+00  0.00000000000E+00  0.10002823268E+04  0.10002823268E+04  0.51100000000E-03 0.  1.
          4   -1    0    0  501    0 -0.00000000000E+00 -0.00000000000E+00 -0.91027588198E+02  0.91038663287E+02  0.14200000000E+01 0.  1.
         11    1    1    2    0    0 -0.84732916169E+02  0.90522871636E+02  0.58221865481E+03  0.59527524674E+03  0.51100000000E-03 0.  1.
         22    1    1    2    0    0 -0.58741786761E+02 -0.92028431415E+02  0.33499339852E+03  0.35233564502E+03  0.00000000000E+00 0.  1.
          4    1    1    2  501    0  0.14347470293E+03  0.15055597791E+01 -0.79573147683E+01  0.14371009829E+03  0.14200000000E+01 0.  1.
<mgrwt>
<rscale>  0 0.13764322E+03</rscale>
<asrwt>0</asrwt>
<pdfrwt beam="1">  1       11 0.10000000E+01 0.10917797E+03</pdfrwt>
<pdfrwt beam="2">  1        4 0.14009127E-01 0.13764322E+03</pdfrwt>
<totfact> 0.17225698E+02</totfact>
</mgrwt>
</event>
<event>
 5    1  0.1490736E-003  0.1506147E+03  0.7818608E-02  0.1302000E+00
         11   -1    0    0    0    0  0.00000000000E+00  0.00000000000E+00  0.99999258430E+03  0.99999258431E+03  0.51100000000E-03 0.  1.
          4   -1    0    0  501    0 -0.00000000000E+00 -0.00000000000E+00 -0.14396480660E+03  0.14397180953E+03  0.14200000000E+01 0.  1.
         11    1    1    2    0    0  0.12827682341E+03 -0.71739229562E+01  0.23252087090E+03  0.26565459529E+03  0.51100000000E-03 0.  1.
         22    1    1    2    0    0 -0.14220054236E+03  0.96436079969E+02  0.72345381447E+03  0.74357671658E+03  0.00000000000E+00 0.  1.
          4    1    1    2  501    0  0.13923718952E+02 -0.89262157013E+02 -0.99946907670E+02  0.13473308197E+03  0.14200000000E+01 0.  1.
<mgrwt>
<rscale>  0 0.90352748E+02</rscale>
<asrwt>0</asrwt>
<pdfrwt beam="1">  1       11 0.10000000E+01 0.15061471E+03</pdfrwt>
<pdfrwt beam="2">  1        4 0.22148883E-01 0.90352748E+02</pdfrwt>
<totfact> 0.73002956E+01</totfact>
</mgrwt>
</event>
<event>
 5    1  0.1490736E-003  0.1115175E+03  0.7818608E-02  0.1260753E+00
         11   -1    0    0    0    0  0.00000000000E+00  0.00000000000E+00  0.10002199270E+04  0.10002199270E+04  0.51100000000E-03 0.  1.
          4   -1    0    0  501    0 -0.00000000000E+00 -0.00000000000E+00 -0.12216946932E+02  0.12299194784E+02  0.14200000000E+01 0.  1.
         11    1    1    2    0    0 -0.83141359217E+02 -0.56114540952E+02  0.46525152184E+03  0.47594149419E+03  0.51100000000E-03 0.  1.
         22    1    1    2    0    0 -0.11025077297E+02 -0.53322298969E+00  0.42265224215E+02  0.43682786473E+02  0.00000000000E+00 0. -1.
          4    1    1    2  501    0  0.94166436515E+02  0.56647763942E+02  0.48048623401E+03  0.49289484112E+03  0.14200000000E+01 0.  1.
<mgrwt>
<rscale>  0 0.10990133E+03</rscale>
<asrwt>0</asrwt>
<pdfrwt beam="1">  1       11 0.10000000E+01 0.11151747E+03</pdfrwt>
<pdfrwt beam="2">  1        4 0.18863493E-02 0.10990133E+03</pdfrwt>
<totfact> 0.42420855E+03</totfact>
</mgrwt>
</event>
<event>
 5    1  0.1490736E-003  0.1151614E+03  0.7818608E-02  0.1256777E+00
         11   -1    0    0    0    0  0.00000000000E+00  0.00000000000E+00  0.10001025305E+04  0.10001025305E+04  0.51100000000E-03 0. -1.
         -4   -1    0    0    0  501 -0.00000000000E+00 -0.00000000000E+00 -0.12991972819E+02  0.13069344196E+02  0.14200000000E+01 0. -1.
         11    1    1    2    0    0 -0.51103116757E+01  0.89426415954E+02  0.31243693702E+03  0.32502313575E+03  0.51100000000E-03 0. -1.
         22    1    1    2    0    0 -0.63311470053E+01  0.22053002345E+02  0.13844885378E+03  0.14033710646E+03  0.00000000000E+00 0. -1.
         -4    1    1    2    0  501  0.11441458681E+02 -0.11147941830E+03  0.53622476689E+03  0.54781163251E+03  0.14200000000E+01 0. -1.
<mgrwt>
<rscale>  0 0.11207401E+03</rscale>
<asrwt>0</asrwt>
<pdfrwt beam="1">  1       11 0.10000000E+01 0.11516145E+03</pdfrwt>
<pdfrwt beam="2">  1       -4 0.20049997E-02 0.11207401E+03</pdfrwt>
<totfact> 0.38781776E+03</totfact>
</mgrwt>
</event>
<event>
 5    1  0.1490736E-003  0.1112670E+03  0.7818608E-02  0.1262445E+00
         11   -1    0    0    0    0  0.00000000000E+00  0.00000000000E+00  0.10001460197E+04  0.10001460197E+04  0.51100000000E-03 0.  1.
         -4   -1    0    0    0  501 -0.00000000000E+00 -0.00000000000E+00 -0.12164668553E+02  0.12247267491E+02  0.14200000000E+01 0. -1.
         11    1    1    2    0    0  0.81047374887E+02  0.39855448672E+02  0.35601387041E+03  0.36729145061E+03  0.51100000000E-03 0.  1.
         22    1    1    2    0    0  0.20511745514E+02 -0.31703714564E+00  0.10217071060E+03  0.10420981874E+03  0.00000000000E+00 0.  1.
         -4    1    1    2    0  501 -0.10155912040E+03 -0.39538411526E+02  0.52979677008E+03  0.54089201779E+03  0.14200000000E+01 0. -1.
<mgrwt>
<rscale>  0 0.10899338E+03</rscale>
<asrwt>0</asrwt>
<pdfrwt beam="1">  1       11 0.10000000E+01 0.11126696E+03</pdfrwt>
<pdfrwt beam="2">  1       -4 0.18781929E-02 0.10899338E+03</pdfrwt>
<totfact> 0.42632747E+03</totfact>
</mgrwt>
</event>
<event>
 5    1  0.1490736E-003  0.1355039E+03  0.7818608E-02  0.1228747E+00
         11   -1    0    0    0    0  0.00000000000E+00  0.00000000000E+00  0.99991878448E+03  0.99991878448E+03  0.51100000000E-03 0.  1.
          4   -1    0    0  501    0 -0.00000000000E+00 -0.00000000000E+00 -0.18428244571E+02  0.18482873099E+02  0.14200000000E+01 0.  1.
         11    1    1    2    0    0  0.71651508185E+02 -0.80639940922E+02  0.50553958360E+03  0.51692069922E+03  0.51100000000E-03 0.  1.
         22    1    1    2    0    0 -0.94878287493E+00 -0.27408821437E+02  0.11169053342E+03  0.11500834290E+03  0.00000000000E+00 0.  1.
          4    1    1    2  501    0 -0.70702725310E+02  0.10804876236E+03  0.36426042290E+03  0.38647261546E+03  0.14200000000E+01 0.  1.
<mgrwt>
<rscale>  0 0.12913337E+03</rscale>
<asrwt>0</asrwt>
<pdfrwt beam="1">  1       11 0.10000000E+01 0.13550386E+03</pdfrwt>
<pdfrwt beam="2">  1        4 0.28391636E-02 0.12913337E+03</pdfrwt>
<totfact> 0.23234572E+03</totfact>
</mgrwt>
</event>
<event>
 5    1  0.1490736E-003  0.1652587E+03  0.7818608E-02  0.1191339E+00
         11   -1    0    0    0    0  0.00000000000E+00  0.00000000000E+00  0.99992107866E+03  0.99992107866E+03  0.51100000000E-03 0. -1.
          4   -1    0    0  501    0 -0.00000000000E+00 -0.00000000000E+00 -0.26383760961E+02  0.26421946227E+02  0.14200000000E+01 0. -1.
         11    1    1    2    0    0  0.10136934293E+03 -0.58490144155E+02  0.47672007500E+03  0.49087561617E+03  0.51100000000E-03 0. -1.
         22    1    1    2    0    0  0.33982370019E+02 -0.22389341433E+02  0.78563703277E+02  0.88477904329E+02  0.00000000000E+00 0. -1.
          4    1    1    2  501    0 -0.13535171295E+03  0.80879485588E+02  0.41825353943E+03  0.44698950438E+03  0.14200000000E+01 0. -1.
<mgrwt>
<rscale>  0 0.15768194E+03</rscale>
<asrwt>0</asrwt>
<pdfrwt beam="1">  1       11 0.10000000E+01 0.16525867E+03</pdfrwt>
<pdfrwt beam="2">  1        4 0.40617343E-02 0.15768194E+03</pdfrwt>
<totfact> 0.13644434E+03</totfact>
</mgrwt>
</event>
<event>
 5    1  0.1490736E-003  0.1699979E+03  0.7818608E-02  0.1180333E+00
         11   -1    0    0    0    0  0.00000000000E+00  0.00000000000E+00  0.10003068312E+04  0.10003068312E+04  0.51100000000E-03 0. -1.
          4   -1    0    0  501    0 -0.00000000000E+00 -0.00000000000E+00 -0.31026508690E+02  0.31058986485E+02  0.14200000000E+01 0. -1.
         11    1    1    2    0    0 -0.14932992474E+03  0.26550253175E+02  0.57876329496E+03  0.59830702316E+03  0.51100000000E-03 0. -1.
         22    1    1    2    0    0 -0.17034931788E+02 -0.59710871058E+01  0.56847635040E+02  0.59644751587E+02  0.00000000000E+00 0. -1.
          4    1    1    2  501    0  0.16636485653E+03 -0.20579166070E+02  0.33366939246E+03  0.37341404289E+03  0.14200000000E+01 0. -1.
<mgrwt>
<rscale>  0 0.16763885E+03</rscale>
<asrwt>0</asrwt>
<pdfrwt beam="1">  1       11 0.10000000E+01 0.16999789E+03</pdfrwt>
<pdfrwt beam="2">  1        4 0.47773501E-02 0.16763885E+03</pdfrwt>
<totfact> 0.10615440E+03</totfact>
</mgrwt>
</event>
<event>
 5    1  0.1490736E-003  0.3936419E+02  0.7818608E-02  0.1712189E+00
         11   -1    0    0    0    0  0.00000000000E+00  0.00000000000E+00  0.99998112157E+03  0.99998112157E+03  0.51100000000E-03 0. -1.
          4   -1    0    0  501    0 -0.00000000000E+00 -0.00000000000E+00 -0.42911537286E+01  0.45200000357E+01  0.14200000000E+01 0. -1.
         11    1    1    2    0    0 -0.27066142411E+02 -0.36041782398E+02  0.16390644825E+03  0.16999091130E+03  0.51100000000E-03 0. -1.
         22    1    1    2    0    0 -0.29392253739E+01  0.11671999623E+02  0.39741744192E+02  0.41524460893E+02  0.00000000000E+00 0. -1.
          4    1    1    2  501    0  0.30005367785E+02  0.24369782775E+02  0.79204177539E+03  0.79298574942E+03  0.14200000000E+01 0. -1.
<mgrwt>
<rscale>  0 0.21774081E+02</rscale>
<asrwt>0</asrwt>
<pdfrwt beam="1">  1       11 0.10000000E+01 0.39364191E+02</pdfrwt>
<pdfrwt beam="2">  1        4 0.67784580E-03 0.21774081E+02</pdfrwt>
<totfact> 0.12112817E+04</totfact>
</mgrwt>
</event>
<event>
 5    1  0.1490736E-003  0.1034585E+03  0.7818608E-02  0.1403140E+00
         11   -1    0    0    0    0  0.00000000000E+00  0.00000000000E+00  0.10001568340E+04  0.10001568340E+04  0.51100000000E-03 0. -1.
          4   -1    0    0  501    0 -0.00000000000E+00 -0.00000000000E+00 -0.16621889522E+02  0.16682434213E+02  0.14200000000E+01 0. -1.
         11    1    1    2    0    0 -0.65049206426E+02  0.71839189253E+02  0.51725544470E+03  0.52625608161E+03  0.51100000000E-03 0. -1.
         22    1    1    2    0    0 -0.33067989141E+02 -0.44217900955E+01  0.95649343401E+02  0.10130074544E+03  0.00000000000E+00 0. -1.
          4    1    1    2  501    0  0.98117195567E+02 -0.67417399157E+02  0.37063015638E+03  0.38928244115E+03  0.14200000000E+01 0. -1.
<mgrwt>
<rscale>  0 0.58753227E+02</rscale>
<asrwt>0</asrwt>
<pdfrwt beam="1">  1       11 0.10000000E+01 0.10345854E+03</pdfrwt>
<pdfrwt beam="2">  1        4 0.25623503E-02 0.58753227E+02</pdfrwt>
<totfact> 0.23255469E+03</totfact>
</mgrwt>
</event>
<event>
 5    1  0.1490736E-003  0.1867839E+03  0.7818608E-02  0.1272220E+00
         11   -1    0    0    0    0  0.00000000000E+00  0.00000000000E+00  0.10000296481E+04  0.10000296481E+04  0.51100000000E-03 0.  1.
          4   -1    0    0  501    0 -0.00000000000E+00 -0.00000000000E+00 -0.11939590890E+03  0.11940435277E+03  0.14200000000E+01 0.  1.
         11    1    1    2    0    0  0.10036241805E+02 -0.13431455111E+03 -0.46883023363E+02  0.14261536618E+03  0.51100000000E-03 0.  1.
         22    1    1    2    0    0  0.69895076528E+01 -0.57415394718E+02  0.44261204730E+02  0.72831552311E+02  0.00000000000E+00 0. -1.
          4    1    1    2  501    0 -0.17025749458E+02  0.19172994583E+03  0.88325555780E+03  0.90398708235E+03  0.14200000000E+01 0.  1.
<mgrwt>
<rscale>  0 0.10394109E+03</rscale>
<asrwt>0</asrwt>
<pdfrwt beam="1">  1       11 0.10000000E+01 0.18678388E+03</pdfrwt>
<pdfrwt beam="2">  1        4 0.18369873E-01 0.10394109E+03</pdfrwt>
<totfact> 0.10366708E+02</totfact>
</mgrwt>
</event>
<event>
 5    1  0.1490736E-003  0.1902314E+03  0.7818608E-02  0.1629821E+00
         11   -1    0    0    0    0  0.00000000000E+00  0.00000000000E+00  0.10003147442E+04  0.10003147442E+04  0.51100000000E-03 0. -1.
         -4   -1    0    0    0  501 -0.00000000000E+00 -0.00000000000E+00 -0.12145276173E+04  0.12145284474E+04  0.14200000000E+01 0. -1.
         11    1    1    2    0    0  0.32489171303E+02  0.16241156963E+03 -0.22018618264E+03  0.27552680310E+03  0.51100000000E-03 0. -1.
         22    1    1    2    0    0 -0.27366336131E+02 -0.18920392368E+03  0.96305439260E+03  0.98184561118E+03  0.00000000000E+00 0. -1.
         -4    1    1    2    0  501 -0.51228351723E+01  0.26792354047E+02 -0.95708108297E+03  0.95747077734E+03  0.14200000000E+01 0. -1.
<mgrwt>
<rscale>  0 0.27314649E+02</rscale>
<asrwt>0</asrwt>
<pdfrwt beam="1">  1       11 0.10000000E+01 0.19023141E+03</pdfrwt>
<pdfrwt beam="2">  1       -4 0.18690935E+00 0.27314649E+02</pdfrwt>
<totfact> 0.73361774E-01</totfact>
</mgrwt>
</event>
<event>
 5    1  0.1490736E-003  0.2235273E+02  0.7818608E-02  0.1831998E+00
         11   -1    0    0    0    0  0.00000000000E+00  0.00000000000E+00  0.10002451369E+04  0.10002451369E+04  0.51100000000E-03 0.  1.
          4   -1    0    0  501    0 -0.00000000000E+00 -0.00000000000E+00 -0.19348748606E+01  0.24000293178E+01  0.14200000000E+01 0.  1.
         11    1    1    2    0    0 -0.15617239230E+02 -0.89022377804E+01  0.55246938557E+02  0.58097953655E+02  0.51100000000E-03 0.  1.
         22    1    1    2    0    0  0.40903540651E+01 -0.11066578384E+02  0.58273305728E+02  0.59455683613E+02  0.00000000000E+00 0.  1.
          4    1    1    2  501    0  0.11526885165E+02  0.19968816164E+02  0.88479001778E+03  0.88509152897E+03  0.14200000000E+01 0.  1.
<mgrwt>
<rscale>  0 0.16255951E+02</rscale>
<asrwt>0</asrwt>
<pdfrwt beam="1">  1       11 0.10000000E+01 0.22352729E+02</pdfrwt>
<pdfrwt beam="2">  1        4 0.33361345E-03 0.16255951E+02</pdfrwt>
<totfact> 0.28764967E+04</totfact>
</mgrwt>
</event>
<event>
 5    1  0.1490736E-003  0.9760771E+02  0.7818608E-02  0.1295761E+00
         11   -1    0    0    0    0  0.00000000000E+00  0.00000000000E+00  0.99986768608E+03  0.99986768608E+03  0.51100000000E-03 0. -1.
          4   -1    0    0  501    0 -0.00000000000E+00 -0.00000000000E+00 -0.93677731624E+01  0.94747862257E+01  0.14200000000E+01 0. -1.
         11    1    1    2    0    0 -0.42285843387E+02 -0.61956251803E+02  0.32251621735E+03  0.33112441792E+03  0.51100000000E-03 0. -1.
         22    1    1    2    0    0 -0.21894563492E+02 -0.53237774375E+01  0.88676205322E+02  0.91494174170E+02  0.00000000000E+00 0.  1.
          4    1    1    2  501    0  0.64180406879E+02  0.67280029241E+02  0.57930749024E+03  0.58672388021E+03  0.14200000000E+01 0. -1.
<mgrwt>
<rscale>  0 0.92993244E+02</rscale>
<asrwt>0</asrwt>
<pdfrwt beam="1">  1       11 0.10000000E+01 0.97607714E+02</pdfrwt>
<pdfrwt beam="2">  1        4 0.14493134E-02 0.92993244E+02</pdfrwt>
<totfact> 0.61184899E+03</totfact>
</mgrwt>
</event>
<event>
 5    1  0.1490736E-003  0.2377928E+03  0.7818608E-02  0.1124996E+00
         11   -1    0    0    0    0  0.00000000000E+00  0.00000000000E+00  0.10002009703E+04  0.10002009703E+04  0.51100000000E-03 0. -1.
         -4   -1    0    0    0  501 -0.00000000000E+00 -0.00000000000E+00 -0.84794771574E+02  0.84806660624E+02  0.14200000000E+01 0.  1.
         11    1    1    2    0    0 -0.99936639978E+02 -0.14327971216E+03  0.60434714234E+03  0.62908813085E+03  0.51100000000E-03 0. -1.
         22    1    1    2    0    0 -0.97944472811E+01 -0.61522576393E+02  0.17705652679E+03  0.18769648980E+03  0.00000000000E+00 0.  1.
         -4    1    1    2    0  501  0.10973108726E+03  0.20480228855E+03  0.13400252962E+03  0.26822301029E+03  0.14200000000E+01 0.  1.
<mgrwt>
<rscale>  0 0.23235082E+03</rscale>
<asrwt>0</asrwt>
<pdfrwt beam="1">  1       11 0.10000000E+01 0.23779281E+03</pdfrwt>
<pdfrwt beam="2">  1       -4 0.13048963E-01 0.23235082E+03</pdfrwt>
<totfact> 0.20611824E+02</totfact>
</mgrwt>
</event>
<event>
 5    1  0.1490736E-003  0.1900784E+03  0.7818608E-02  0.1168112E+00
         11   -1    0    0    0    0  0.00000000000E+00  0.00000000000E+00  0.99977792218E+03  0.99977792218E+03  0.51100000000E-03 0. -1.
          4   -1    0    0  501    0 -0.00000000000E+00 -0.00000000000E+00 -0.13553208175E+03  0.13553952037E+03  0.14200000000E+01 0. -1.
         11    1    1    2    0    0 -0.10573510494E+03 -0.11482219845E+03  0.85236108214E+03  0.86653532185E+03  0.51100000000E-03 0. -1.
         22    1    1    2    0    0 -0.27342290391E+02 -0.58989344740E+01  0.73649199061E+02  0.78781995368E+02  0.00000000000E+00 0. -1.
          4    1    1    2  501    0  0.13307739533E+03  0.12072113292E+03 -0.61764440770E+02  0.19000012533E+03  0.14200000000E+01 0. -1.
<mgrwt>
<rscale>  0 0.17968083E+03</rscale>
<asrwt>0</asrwt>
<pdfrwt beam="1">  1       11 0.10000000E+01 0.19007838E+03</pdfrwt>
<pdfrwt beam="2">  1        4 0.20847108E-01 0.17968083E+03</pdfrwt>
<totfact> 0.87433776E+01</totfact>
</mgrwt>
</event>
<event>
 5    1  0.1490736E-003  0.6817192E+02  0.7818608E-02  0.1585290E+00
         11   -1    0    0    0    0  0.00000000000E+00  0.00000000000E+00  0.10002132621E+04  0.10002132621E+04  0.51100000000E-03 0.  1.
          4   -1    0    0  501    0 -0.00000000000E+00 -0.00000000000E+00 -0.89894232972E+01  0.91008862874E+01  0.14200000000E+01 0.  1.
         11    1    1    2    0    0 -0.47632194376E+02  0.34743405194E+02  0.12269018007E+03  0.13612057314E+03  0.51100000000E-03 0.  1.
         22    1    1    2    0    0 -0.14219727762E+02 -0.11654080329E+01  0.63253795540E+02  0.64842898483E+02  0.00000000000E+00 0.  1.
          4    1    1    2  501    0  0.61851922137E+02 -0.33577997161E+02  0.80527986323E+03  0.80835067680E+03  0.14200000000E+01 0.  1.
<mgrwt>
<rscale>  0 0.31190494E+02</rscale>
<asrwt>0</asrwt>
<pdfrwt beam="1">  1       11 0.10000000E+01 0.68171924E+02</pdfrwt>
<pdfrwt beam="2">  1        4 0.13919366E-02 0.31190494E+02</pdfrwt>
<totfact> 0.48770212E+03</totfact>
</mgrwt>
</event>
<event>
 5    1  0.1490736E-003  0.4929517E+03  0.7818608E-02  0.1017549E+00
         11   -1    0    0    0    0  0.00000000000E+00  0.00000000000E+00  0.99979952942E+03  0.99979952942E+03  0.51100000000E-03 0. -1.
         -4   -1    0    0    0  501 -0.00000000000E+00 -0.00000000000E+00 -0.65379798348E+03  0.65379952555E+03  0.14200000000E+01 0.  1.
         11    1    1    2    0    0  0.38635720998E+03 -0.22592568035E+03  0.80162281594E+03  0.91810317817E+03  0.51100000000E-03 0. -1.
         22    1    1    2    0    0  0.33801062523E+02 -0.17965258851E+02  0.29963421706E+02  0.48611408061E+02  0.00000000000E+00 0. -1.
         -4    1    1    2    0  501 -0.42015827250E+03  0.24389093920E+03 -0.48558469171E+03  0.68688446874E+03  0.14200000000E+01 0.  1.
<mgrwt>
<rscale>  0 0.48581661E+03</rscale>
<asrwt>0</asrwt>
<pdfrwt beam="1">  1       11 0.10000000E+01 0.49295174E+03</pdfrwt>
<pdfrwt beam="2">  1       -4 0.10056433E+00 0.48581661E+03</pdfrwt>
<totfact> 0.35974634E+00</totfact>
</mgrwt>
</event>
<event>
 5    1  0.1490736E-003  0.1449213E+03  0.7818608E-02  0.1657733E+00
         11   -1    0    0    0    0  0.00000000000E+00  0.00000000000E+00  0.10000922873E+04  0.10000922873E+04  0.51100000000E-03 0. -1.
          4   -1    0    0  501    0 -0.00000000000E+00 -0.00000000000E+00 -0.49544565577E+02  0.49564910756E+02  0.14200000000E+01 0. -1.
         11    1    1    2    0    0  0.14109166170E+03 -0.59529054454E+02  0.44035411416E+03  0.46622131137E+03  0.51100000000E-03 0. -1.
         22    1    1    2    0    0 -0.11953349687E+03  0.72557391969E+02  0.53201170260E+03  0.55008116102E+03  0.00000000000E+00 0. -1.
          4    1    1    2  501    0 -0.21558164825E+02 -0.13028337514E+02 -0.21818095072E+02  0.33354725626E+02  0.14200000000E+01 0. -1.
<mgrwt>
<rscale>  0 0.25229119E+02</rscale>
<asrwt>0</asrwt>
<pdfrwt beam="1">  1       11 0.10000000E+01 0.14492133E+03</pdfrwt>
<pdfrwt beam="2">  1        4 0.76245868E-02 0.25229119E+02</pdfrwt>
<totfact> 0.34839704E+02</totfact>
</mgrwt>
</event>
<event>
 5    1  0.1490736E-003  0.6683552E+02  0.7818608E-02  0.1396115E+00
         11   -1    0    0    0    0  0.00000000000E+00  0.00000000000E+00  0.10006590679E+04  0.10006590679E+04  0.51100000000E-03 0. -1.
          4   -1    0    0  501    0 -0.00000000000E+00 -0.00000000000E+00 -0.61233970607E+01  0.62858882875E+01  0.14200000000E+01 0. -1.
         11    1    1    2    0    0 -0.22562340620E+02 -0.33721121978E+02  0.15173702034E+03  0.15706780900E+03  0.51100000000E-03 0. -1.
         22    1    1    2    0    0  0.63732162035E+01 -0.24462943628E+02  0.65104464037E+02  0.69840136979E+02  0.00000000000E+00 0. -1.
          4    1    1    2  501    0  0.16189124417E+02  0.58184065606E+02  0.77769418642E+03  0.78003701017E+03  0.14200000000E+01 0. -1.
<mgrwt>
<rscale>  0 0.60411006E+02</rscale>
<asrwt>0</asrwt>
<pdfrwt beam="1">  1       11 0.10000000E+01 0.66835519E+02</pdfrwt>
<pdfrwt beam="2">  1        4 0.95526706E-03 0.60411006E+02</pdfrwt>
<totfact> 0.10286848E+04</totfact>
</mgrwt>
</event>
<event>
 5    1  0.1490736E-003  0.7280024E+02  0.7818608E-02  0.1350822E+00
         11   -1    0    0    0    0  0.00000000000E+00  0.00000000000E+00  0.10000305884E+04  0.10000305884E+04  0.51100000000E-03 0. -1.
          4   -1    0    0  501    0 -0.00000000000E+00 -0.00000000000E+00 -0.11430315761E+02  0.11518182078E+02  0.14200000000E+01 0. -1.
         11    1    1    2    0    0  0.31549901146E+01  0.17224629132E+02  0.38688169789E+02  0.42466649187E+02  0.51100000000E-03 0. -1.
         22    1    1    2    0    0 -0.71329049361E+02  0.13994675036E+02  0.16141806452E+03  0.17702959008E+03  0.00000000000E+00 0. -1.
          4    1    1    2  501    0  0.68174059247E+02 -0.31219304168E+02  0.78849403837E+03  0.79205253124E+03  0.14200000000E+01 0. -1.
<mgrwt>
<rscale>  0 0.72800238E+02</rscale>
<asrwt>0</asrwt>
<pdfrwt beam="1">  1       11 0.10000000E+01 0.17511200E+02</pdfrwt>
<pdfrwt beam="2">  1        4 0.17654006E-02 0.72800238E+02</pdfrwt>
<totfact> 0.43011906E+03</totfact>
</mgrwt>
</event>
<event>
 5    1  0.1490736E-003  0.1753065E+03  0.7818608E-02  0.1176237E+00
         11   -1    0    0    0    0  0.00000000000E+00  0.00000000000E+00  0.10003398125E+04  0.10003398125E+04  0.51100000000E-03 0. -1.
          4   -1    0    0  501    0 -0.00000000000E+00 -0.00000000000E+00 -0.32139034774E+02  0.32170389432E+02  0.14200000000E+01 0. -1.
         11    1    1    2    0    0 -0.36849135975E+01  0.14223325671E+03  0.46310553114E+03  0.48446941170E+03  0.51100000000E-03 0. -1.
         22    1    1    2    0    0  0.85956739356E+01  0.29244767498E+02  0.15741816509E+03  0.16034219886E+03  0.00000000000E+00 0. -1.
          4    1    1    2  501    0 -0.49107603381E+01 -0.17147802420E+03  0.34767708152E+03  0.38769859139E+03  0.14200000000E+01 0. -1.
<mgrwt>
<rscale>  0 0.17155420E+03</rscale>
<asrwt>0</asrwt>
<pdfrwt beam="1">  1       11 0.10000000E+01 0.17530646E+03</pdfrwt>
<pdfrwt beam="2">  1        4 0.49486372E-02 0.17155420E+03</pdfrwt>
<totfact> 0.10062220E+03</totfact>
</mgrwt>
</event>
<event>
 5    1  0.1490736E-003  0.1310339E+03  0.7818608E-02  0.1228787E+00
         11   -1    0    0    0    0  0.00000000000E+00  0.00000000000E+00  0.99961239323E+03  0.99961239323E+03  0.51100000000E-03 0.  1.
          4   -1    0    0  501    0 -0.00000000000E+00 -0.00000000000E+00 -0.18991703769E+02  0.19044716119E+02  0.14200000000E+01 0. -1.
         11    1    1    2    0    0  0.52410259619E+02  0.10233228072E+03  0.59206439910E+03  0.60312435174E+03  0.51100000000E-03 0.  1.
         22    1    1    2    0    0 -0.56502956439E+00  0.15899132151E+02  0.70470550534E+02  0.72244031962E+02  0.00000000000E+00 0. -1.
          4    1    1    2  501    0 -0.51845230055E+02 -0.11823141287E+03  0.31808573983E+03  0.34328872564E+03  0.14200000000E+01 0. -1.
<mgrwt>
<rscale>  0 0.12910698E+03</rscale>
<asrwt>0</asrwt>
<pdfrwt beam="1">  1       11 0.10000000E+01 0.13103394E+03</pdfrwt>
<pdfrwt beam="2">  1        4 0.29248218E-02 0.12910698E+03</pdfrwt>
<totfact> 0.22179756E+03</totfact>
</mgrwt>
</event>
<event>
 5    1  0.1490736E-003  0.7095774E+02  0.7818608E-02  0.1461820E+00
         11   -1    0    0    0    0  0.00000000000E+00  0.00000000000E+00  0.10001333985E+04  0.10001333985E+04  0.51100000000E-03 0.  1.
          4   -1    0    0  501    0 -0.00000000000E+00 -0.00000000000E+00 -0.87541196234E+01  0.88685404876E+01  0.14200000000E+01 0.  1.
         11    1    1    2    0    0  0.96508491670E+01  0.63155521547E+02  0.22699821276E+03  0.23581761467E+03  0.51100000000E-03 0.  1.
         22    1    1    2    0    0 -0.29323923842E+02  0.10706164753E+02  0.10971887957E+03  0.11407342814E+03  0.00000000000E+00 0.  1.
          4    1    1    2  501    0  0.19673074675E+02 -0.73861686300E+02  0.65466218654E+03  0.65911089617E+03  0.14200000000E+01 0.  1.
<mgrwt>
<rscale>  0 0.47069580E+02</rscale>
<asrwt>0</asrwt>
<pdfrwt beam="1">  1       11 0.10000000E+01 0.70957739E+02</pdfrwt>
<pdfrwt beam="2">  1        4 0.13558476E-02 0.47069580E+02</pdfrwt>
<totfact> 0.57276136E+03</totfact>
</mgrwt>
</event>
<event>
 5    1  0.1490736E-003  0.1752411E+03  0.7818608E-02  0.1189910E+00
         11   -1    0    0    0    0  0.00000000000E+00  0.00000000000E+00  0.10001646732E+04  0.10001646732E+04  0.51100000000E-03 0. -1.
          4   -1    0    0  501    0 -0.00000000000E+00 -0.00000000000E+00 -0.28850337618E+02  0.28885262344E+02  0.14200000000E+01 0. -1.
         11    1    1    2    0    0  0.36643548026E+02 -0.31363244345E+02  0.27931859962E+03  0.28345243481E+03  0.51100000000E-03 0. -1.
         22    1    1    2    0    0  0.11769077184E+03 -0.65541024839E+01  0.32274770647E+03  0.34359883013E+03  0.00000000000E+00 0. -1.
          4    1    1    2  501    0 -0.15433431987E+03  0.37917346829E+02  0.36924802948E+03  0.40199867059E+03  0.14200000000E+01 0. -1.
<mgrwt>
<rscale>  0 0.15893025E+03</rscale>
<asrwt>0</asrwt>
<pdfrwt beam="1">  1       11 0.10000000E+01 0.17524113E+03</pdfrwt>
<pdfrwt beam="2">  1        4 0.44420088E-02 0.15893025E+03</pdfrwt>
<totfact> 0.11839980E+03</totfact>
</mgrwt>
</event>
<event>
 5    1  0.1490736E-003  0.1620960E+03  0.7818608E-02  0.1186351E+00
         11   -1    0    0    0    0  0.00000000000E+00  0.00000000000E+00  0.10001711383E+04  0.10001711383E+04  0.51100000000E-03 0. -1.
          4   -1    0    0  501    0 -0.00000000000E+00 -0.00000000000E+00 -0.26302095403E+03  0.26302478716E+03  0.14200000000E+01 0.  1.
         11    1    1    2    0    0  0.19699929514E+03 -0.11567536542E+03  0.69429711558E+03  0.73091586188E+03  0.51100000000E-03 0. -1.
         22    1    1    2    0    0 -0.85335733927E+02  0.12572068696E+01  0.25369951097E+03  0.26766996455E+03  0.00000000000E+00 0.  1.
          4    1    1    2  501    0 -0.11166356121E+03  0.11441815855E+03 -0.21084644226E+03  0.26461009906E+03  0.14200000000E+01 0.  1.
<mgrwt>
<rscale>  0 0.16209598E+03</rscale>
<asrwt>0</asrwt>
<pdfrwt beam="1">  1       11 0.10000000E+01 0.85344994E+02</pdfrwt>
<pdfrwt beam="2">  1        4 0.40472059E-01 0.16209598E+03</pdfrwt>
<totfact> 0.24700079E+01</totfact>
</mgrwt>
</event>
<event>
 5    1  0.1490736E-003  0.8280482E+02  0.7818608E-02  0.1371185E+00
         11   -1    0    0    0    0  0.00000000000E+00  0.00000000000E+00  0.10001529009E+04  0.10001529009E+04  0.51100000000E-03 0. -1.
          4   -1    0    0  501    0 -0.00000000000E+00 -0.00000000000E+00 -0.17870031920E+02  0.17926361617E+02  0.14200000000E+01 0. -1.
         11    1    1    2    0    0 -0.11455853545E+03 -0.46433929810E+02  0.40185061360E+03  0.42043273366E+03  0.51100000000E-03 0. -1.
         22    1    1    2    0    0  0.70740004482E+02 -0.40175732119E+01  0.37434807264E+03  0.38099444696E+03  0.00000000000E+00 0. -1.
          4    1    1    2  501    0  0.43818530966E+02  0.50451503022E+02  0.20608418276E+03  0.21665208191E+03  0.14200000000E+01 0. -1.
<mgrwt>
<rscale>  0 0.66838868E+02</rscale>
<asrwt>0</asrwt>
<pdfrwt beam="1">  1       11 0.10000000E+01 0.82804815E+02</pdfrwt>
<pdfrwt beam="2">  1        4 0.27540672E-02 0.66838868E+02</pdfrwt>
<totfact> 0.21431636E+03</totfact>
</mgrwt>
</event>
<event>
 5    1  0.1490736E-003  0.1520214E+03  0.7818608E-02  0.1198011E+00
         11   -1    0    0    0    0  0.00000000000E+00  0.00000000000E+00  0.10004795769E+04  0.10004795769E+04  0.51100000000E-03 0.  1.
          4   -1    0    0  501    0 -0.00000000000E+00 -0.00000000000E+00 -0.12391768968E+03  0.12392582546E+03  0.14200000000E+01 0.  1.
         11    1    1    2    0    0  0.71683300229E+02  0.10678879918E+03  0.62076135863E+02  0.14281382918E+03  0.51100000000E-03 0.  1.
         22    1    1    2    0    0 -0.90393827612E+02 -0.24715793062E+03  0.79648257545E+03  0.83883405971E+03  0.00000000000E+00 0.  1.
          4    1    1    2  501    0  0.18710527382E+02  0.14036913144E+03  0.18003175868E+02  0.14275751342E+03  0.14200000000E+01 0.  1.
<mgrwt>
<rscale>  0 0.15202144E+03</rscale>
<asrwt>0</asrwt>
<pdfrwt beam="1">  1       11 0.10000000E+01 0.12861711E+03</pdfrwt>
<pdfrwt beam="2">  1        4 0.19074106E-01 0.15202144E+03</pdfrwt>
<totfact> 0.10102913E+02</totfact>
</mgrwt>
</event>
<event>
 5    1  0.1490736E-003  0.1427020E+03  0.7818608E-02  0.1213273E+00
         11   -1    0    0    0    0  0.00000000000E+00  0.00000000000E+00  0.10001477331E+04  0.10001477331E+04  0.51100000000E-03 0. -1.
          4   -1    0    0  501    0 -0.00000000000E+00 -0.00000000000E+00 -0.33578496000E+02  0.33608507757E+02  0.14200000000E+01 0. -1.
         11    1    1    2    0    0  0.10372364056E+03  0.56972870576E+02  0.68833392600E+03  0.69843259895E+03  0.51100000000E-03 0. -1.
         22    1    1    2    0    0  0.24248196016E+02 -0.11422292674E+00  0.12665085540E+03  0.12895125912E+03  0.00000000000E+00 0.  1.
          4    1    1    2  501    0 -0.12797183658E+03 -0.56858647650E+02  0.15158445575E+03  0.20637238283E+03  0.14200000000E+01 0. -1.
<mgrwt>
<rscale>  0 0.14004183E+03</rscale>
<asrwt>0</asrwt>
<pdfrwt beam="1">  1       11 0.10000000E+01 0.14270198E+03</pdfrwt>
<pdfrwt beam="2">  1        4 0.51690720E-02 0.14004183E+03</pdfrwt>
<totfact> 0.91057404E+02</totfact>
</mgrwt>
</event>
<event>
 5    1  0.1490736E-003  0.7004746E+02  0.7818608E-02  0.1484403E+00
         11   -1    0    0    0    0  0.00000000000E+00  0.00000000000E+00  0.10001096162E+04  0.10001096162E+04  0.51100000000E-03 0.  1.
          4   -1    0    0  501    0 -0.00000000000E+00 -0.00000000000E+00 -0.10106318126E+02  0.10205589942E+02  0.14200000000E+01 0.  1.
         11    1    1    2    0    0 -0.37695325577E+02  0.50240937894E+02  0.14904800237E+03  0.16174175843E+03  0.51100000000E-03 0.  1.
         22    1    1    2    0    0 -0.24276409106E+02 -0.11630152964E+02  0.86496009240E+02  0.90587880599E+02  0.00000000000E+00 0. -1.
          4    1    1    2  501    0  0.61971734683E+02 -0.38610784930E+02  0.75445928642E+03  0.75798556706E+03  0.14200000000E+01 0.  1.
<mgrwt>
<rscale>  0 0.43427612E+02</rscale>
<asrwt>0</asrwt>
<pdfrwt beam="1">  1       11 0.10000000E+01 0.70047460E+02</pdfrwt>
<pdfrwt beam="2">  1        4 0.15627032E-02 0.43427612E+02</pdfrwt>
<totfact> 0.45371603E+03</totfact>
</mgrwt>
</event>
<event>
 5    1  0.1490736E-003  0.3005014E+03  0.7818608E-02  0.1084990E+00
         11   -1    0    0    0    0  0.00000000000E+00  0.00000000000E+00  0.10002401777E+04  0.10002401777E+04  0.51100000000E-03 0.  1.
          4   -1    0    0  501    0 -0.00000000000E+00 -0.00000000000E+00 -0.11068860275E+03  0.11069771081E+03  0.14200000000E+01 0.  1.
         11    1    1    2    0    0 -0.15652417472E+03 -0.25023938251E+03  0.25265015097E+03  0.38852498583E+03  0.51100000000E-03 0.  1.
         22    1    1    2    0    0 -0.27494103208E+02 -0.47596748489E+00  0.79465328286E+02  0.84088588143E+02  0.00000000000E+00 0. -1.
          4    1    1    2  501    0  0.18401827793E+03  0.25071534999E+03  0.55743609564E+03  0.63832431448E+03  0.14200000000E+01 0.  1.
<mgrwt>
<rscale>  0 0.30050137E+03</rscale>
<asrwt>0</asrwt>
<pdfrwt beam="1">  1       11 0.10000000E+01 0.27498223E+02</pdfrwt>
<pdfrwt beam="2">  1        4 0.17033884E-01 0.30050137E+03</pdfrwt>
<totfact> 0.13167368E+02</totfact>
</mgrwt>
</event>
<event>
 5    1  0.1517987E-003  0.1895791E+03  0.7818608E-02  0.1163599E+00
         11   -1    0    0    0    0  0.00000000000E+00  0.00000000000E+00  0.10001806252E+04  0.10001806252E+04  0.51100000000E-03 0.  1.
          4   -1    0    0  501    0 -0.00000000000E+00 -0.00000000000E+00 -0.45003702050E+02  0.45026099078E+02  0.14200000000E+01 0.  1.
         11    1    1    2    0    0  0.15555129299E+03 -0.84067576265E+02  0.68847018167E+03  0.71081274129E+03  0.51100000000E-03 0.  1.
         22    1    1    2    0    0  0.11307323696E+02  0.55550089591E+01  0.41206606272E+02  0.43089419747E+02  0.00000000000E+00 0. -1.
          4    1    1    2  501    0 -0.16685861669E+03  0.78512567306E+02  0.22550013522E+03  0.29130456325E+03  0.14200000000E+01 0.  1.
<mgrwt>
<rscale>  0 0.18441268E+03</rscale>
<asrwt>0</asrwt>
<pdfrwt beam="1">  1       11 0.10000000E+01 0.18957915E+03</pdfrwt>
<pdfrwt beam="2">  1        4 0.69266976E-02 0.18441268E+03</pdfrwt>
<totfact> 0.58694136E+02</totfact>
</mgrwt>
</event>
<event>
 5    1  0.1490736E-003  0.1291297E+03  0.7818608E-02  0.1236138E+00
         11   -1    0    0    0    0  0.00000000000E+00  0.00000000000E+00  0.10002819679E+04  0.10002819679E+04  0.51100000000E-03 0. -1.
          4   -1    0    0  501    0 -0.00000000000E+00 -0.00000000000E+00 -0.18509700777E+02  0.18564089604E+02  0.14200000000E+01 0. -1.
         11    1    1    2    0    0 -0.10081918780E+03 -0.22409598728E+02  0.60303903459E+03  0.61181923473E+03  0.51100000000E-03 0. -1.
         22    1    1    2    0    0 -0.22492448922E+02  0.66802625577E+01  0.82324581195E+02  0.85602995481E+02  0.00000000000E+00 0. -1.
          4    1    1    2  501    0  0.12331163672E+03  0.15729336171E+02  0.29640865136E+03  0.32142382732E+03  0.14200000000E+01 0. -1.
<mgrwt>
<rscale>  0 0.12431890E+03</rscale>
<asrwt>0</asrwt>
<pdfrwt beam="1">  1       11 0.10000000E+01 0.12912971E+03</pdfrwt>
<pdfrwt beam="2">  1        4 0.28527116E-02 0.12431890E+03</pdfrwt>
<totfact> 0.22909022E+03</totfact>
</mgrwt>
</event>
<event>
 5    1  0.1490736E-003  0.7931284E+02  0.7818608E-02  0.1331013E+00
         11   -1    0    0    0    0  0.00000000000E+00  0.00000000000E+00  0.10000620400E+04  0.10000620400E+04  0.51100000000E-03 0. -1.
          4   -1    0    0  501    0 -0.00000000000E+00 -0.00000000000E+00 -0.25388202477E+02  0.25427882826E+02  0.14200000000E+01 0. -1.
         11    1    1    2    0    0  0.11587196944E+02 -0.14855622581E+01 -0.26976543705E+01  0.11989469029E+02  0.51100000000E-03 0. -1.
         22    1    1    2    0    0  0.20387572457E+02 -0.76189139910E+02  0.80480207558E+02  0.11268319289E+03  0.00000000000E+00 0. -1.
          4    1    1    2  501    0 -0.31974769401E+02  0.77674702168E+02  0.89689128437E+03  0.90081726095E+03  0.14200000000E+01 0. -1.
<mgrwt>
<rscale>  0 0.79312843E+02</rscale>
<asrwt>0</asrwt>
<pdfrwt beam="1">  1       11 0.10000000E+01 0.11682045E+02</pdfrwt>
<pdfrwt beam="2">  1        4 0.39092496E-02 0.79312843E+02</pdfrwt>
<totfact> 0.12889764E+03</totfact>
</mgrwt>
</event>
<event>
 5    1  0.1490736E-003  0.2087525E+03  0.7818608E-02  0.1145950E+00
         11   -1    0    0    0    0  0.00000000000E+00  0.00000000000E+00  0.99977579561E+03  0.99977579561E+03  0.51100000000E-03 0.  1.
          4   -1    0    0  501    0 -0.00000000000E+00 -0.00000000000E+00 -0.45280673661E+02  0.45302933759E+02  0.14200000000E+01 0.  1.
         11    1    1    2    0    0  0.12743414723E+03  0.14673711008E+03  0.31788928155E+03  0.37259205128E+03  0.51100000000E-03 0.  1.
         22    1    1    2    0    0  0.15638292070E+01  0.12012166464E+02  0.39304680266E+02  0.41129011606E+02  0.00000000000E+00 0. -1.
          4    1    1    2  501    0 -0.12899797644E+03 -0.15874927654E+03  0.59730116014E+03  0.63135766648E+03  0.14200000000E+01 0.  1.
<mgrwt>
<rscale>  0 0.20455764E+03</rscale>
<asrwt>0</asrwt>
<pdfrwt beam="1">  1       11 0.10000000E+01 0.20875246E+03</pdfrwt>
<pdfrwt beam="2">  1        4 0.69664849E-02 0.20455764E+03</pdfrwt>
<totfact> 0.58903960E+02</totfact>
</mgrwt>
</event>
<event>
 5    1  0.1490736E-003  0.9600476E+02  0.7818608E-02  0.1302541E+00
         11   -1    0    0    0    0  0.00000000000E+00  0.00000000000E+00  0.10002439559E+04  0.10002439559E+04  0.51100000000E-03 0. -1.
          4   -1    0    0  501    0 -0.00000000000E+00 -0.00000000000E+00 -0.93782125127E+01  0.94851077976E+01  0.14200000000E+01 0. -1.
         11    1    1    2    0    0  0.47899625141E+02  0.84005896199E+00  0.12949384435E+03  0.13807148697E+03  0.51100000000E-03 0. -1.
         22    1    1    2    0    0  0.41958842780E+02 -0.76662862153E+01  0.23584579318E+03  0.23967176428E+03  0.00000000000E+00 0. -1.
          4    1    1    2  501    0 -0.89858467921E+02  0.68262272533E+01  0.62552610586E+03  0.63198581246E+03  0.14200000000E+01 0. -1.
<mgrwt>
<rscale>  0 0.90128564E+02</rscale>
<asrwt>0</asrwt>
<pdfrwt beam="1">  1       11 0.10000000E+01 0.96004756E+02</pdfrwt>
<pdfrwt beam="2">  1        4 0.14514561E-02 0.90128564E+02</pdfrwt>
<totfact> 0.60636652E+03</totfact>
</mgrwt>
</event>
<event>
 5    1  0.1490736E-003  0.9641588E+02  0.7818608E-02  0.1507839E+00
         11   -1    0    0    0    0  0.00000000000E+00  0.00000000000E+00  0.10000748867E+04  0.10000748867E+04  0.51100000000E-03 0.  1.
          4   -1    0    0  501    0 -0.00000000000E+00 -0.00000000000E+00 -0.16117348199E+02  0.16179780992E+02  0.14200000000E+01 0.  1.
         11    1    1    2    0    0 -0.63907471341E+02 -0.58281490296E+02  0.14529613402E+03  0.16909128767E+03  0.51100000000E-03 0.  1.
         22    1    1    2    0    0 -0.16629945903E+02  0.41265101565E+00  0.61932142781E+02  0.64127339654E+02  0.00000000000E+00 0. -1.
          4    1    1    2  501    0  0.80537417244E+02  0.57868839281E+02  0.77672926173E+03  0.78303604040E+03  0.14200000000E+01 0.  1.
<mgrwt>
<rscale>  0 0.40050688E+02</rscale>
<asrwt>0</asrwt>
<pdfrwt beam="1">  1       11 0.10000000E+01 0.96415884E+02</pdfrwt>
<pdfrwt beam="2">  1        4 0.24846581E-02 0.40050688E+02</pdfrwt>
<totfact> 0.22162525E+03</totfact>
</mgrwt>
</event>
<event>
 5    1  0.1490736E-003  0.1281686E+03  0.7818608E-02  0.1230199E+00
         11   -1    0    0    0    0  0.00000000000E+00  0.00000000000E+00  0.99987719707E+03  0.99987719707E+03  0.51100000000E-03 0. -1.
          4   -1    0    0  501    0 -0.00000000000E+00 -0.00000000000E+00 -0.27923440476E+02  0.27959523029E+02  0.14200000000E+01 0. -1.
         11    1    1    2    0    0 -0.30159987524E+02 -0.24111655640E+02  0.13795453037E+03  0.14325658531E+03  0.51100000000E-03 0. -1.
         22    1    1    2    0    0  0.10656890948E+02 -0.10978333478E+03  0.63130953437E+03  0.64087259116E+03  0.00000000000E+00 0. -1.
          4    1    1    2  501    0  0.19503096576E+02  0.13389499042E+03  0.20268969185E+03  0.24370754362E+03  0.14200000000E+01 0. -1.
<mgrwt>
<rscale>  0 0.12816858E+03</rscale>
<asrwt>0</asrwt>
<pdfrwt beam="1">  1       11 0.10000000E+01 0.38613428E+02</pdfrwt>
<pdfrwt beam="2">  1        4 0.42982390E-02 0.12816858E+03</pdfrwt>
<totfact> 0.12070411E+03</totfact>
</mgrwt>
</event>
<event>
 5    1  0.1490736E-003  0.2760471E+03  0.7818608E-02  0.1105600E+00
         11   -1    0    0    0    0  0.00000000000E+00  0.00000000000E+00  0.10001843493E+04  0.10001843493E+04  0.51100000000E-03 0. -1.
         -4   -1    0    0    0  501 -0.00000000000E+00 -0.00000000000E+00 -0.30435998923E+03  0.30436330174E+03  0.14200000000E+01 0. -1.
         11    1    1    2    0    0  0.20068265347E+03  0.37823666140E+02  0.63750639547E+03  0.66941658284E+03  0.51100000000E-03 0. -1.
         22    1    1    2    0    0  0.61861566618E+02 -0.33441395117E+02  0.28172454496E+03  0.29036855816E+03  0.00000000000E+00 0.  1.
         -4    1    1    2    0  501 -0.26254422009E+03 -0.43822710229E+01 -0.22340658034E+03  0.34476251006E+03  0.14200000000E+01 0. -1.
<mgrwt>
<rscale>  0 0.26258463E+03</rscale>
<asrwt>0</asrwt>
<pdfrwt beam="1">  1       11 0.10000000E+01 0.27604709E+03</pdfrwt>
<pdfrwt beam="2">  1       -4 0.46833577E-01 0.26258463E+03</pdfrwt>
<totfact> 0.18953073E+01</totfact>
</mgrwt>
</event>
<event>
 5    1  0.1490736E-003  0.3641680E+03  0.7818608E-02  0.1058531E+00
         11   -1    0    0    0    0  0.00000000000E+00  0.00000000000E+00  0.99974160945E+03  0.99974160945E+03  0.51100000000E-03 0. -1.
          4   -1    0    0  501    0 -0.00000000000E+00 -0.00000000000E+00 -0.35176000781E+03  0.35176287396E+03  0.14200000000E+01 0. -1.
         11    1    1    2    0    0  0.23702626059E+03 -0.23059961887E+03  0.74685002172E+03  0.81678796966E+03  0.51100000000E-03 0. -1.
         22    1    1    2    0    0  0.15679895216E+02 -0.25981739917E+02  0.11291808417E+03  0.11692477777E+03  0.00000000000E+00 0.  1.
          4    1    1    2  501    0 -0.25270615581E+03  0.25658135879E+03 -0.21178650426E+03  0.41779173598E+03  0.14200000000E+01 0. -1.
<mgrwt>
<rscale>  0 0.36013388E+03</rscale>
<asrwt>0</asrwt>
<pdfrwt beam="1">  1       11 0.10000000E+01 0.36416795E+03</pdfrwt>
<pdfrwt beam="2">  1        4 0.54103237E-01 0.36013388E+03</pdfrwt>
<totfact> 0.14251545E+01</totfact>
</mgrwt>
</event>
<event>
 5    1  0.1490736E-003  0.1746090E+02  0.7818608E-02  0.1801110E+00
         11   -1    0    0    0    0  0.00000000000E+00  0.00000000000E+00  0.10001796065E+04  0.10001796065E+04  0.51100000000E-03 0. -1.
         -4   -1    0    0    0  501 -0.00000000000E+00 -0.00000000000E+00 -0.17807650465E+01  0.22776136966E+01  0.14200000000E+01 0. -1.
         11    1    1    2    0    0 -0.13389511905E+02  0.25593161371E+01  0.45992903897E+02  0.47970577830E+02  0.51100000000E-03 0. -1.
         22    1    1    2    0    0  0.13158490562E+01  0.17206121850E+02  0.83185206023E+02  0.84956227488E+02  0.00000000000E+00 0. -1.
         -4    1    1    2    0  501  0.12073662849E+02 -0.19765437987E+02  0.86922073152E+03  0.86953041487E+03  0.14200000000E+01 0. -1.
<mgrwt>
<rscale>  0 0.17460905E+02</rscale>
<asrwt>0</asrwt>
<pdfrwt beam="1">  1       11 0.10000000E+01 0.13631923E+02</pdfrwt>
<pdfrwt beam="2">  1       -4 0.31231660E-03 0.17460905E+02</pdfrwt>
<totfact> 0.32652534E+04</totfact>
</mgrwt>
</event>
<event>
 5    1  0.1490736E-003  0.1070480E+03  0.7818608E-02  0.1536412E+00
         11   -1    0    0    0    0  0.00000000000E+00  0.00000000000E+00  0.10003252976E+04  0.10003252976E+04  0.51100000000E-03 0. -1.
          4   -1    0    0  501    0 -0.00000000000E+00 -0.00000000000E+00 -0.16703050246E+02  0.16763301808E+02  0.14200000000E+01 0. -1.
         11    1    1    2    0    0  0.91043448444E+02 -0.54580278998E+02  0.22515724306E+03  0.24892509006E+03  0.51100000000E-03 0. -1.
         22    1    1    2    0    0 -0.57851237698E+01 -0.10949682703E+02  0.46434158294E+02  0.48057197846E+02  0.00000000000E+00 0.  1.
          4    1    1    2  501    0 -0.85258324674E+02  0.65529961701E+02  0.71203084602E+03  0.72010631152E+03  0.14200000000E+01 0. -1.
<mgrwt>
<rscale>  0 0.36411494E+02</rscale>
<asrwt>0</asrwt>
<pdfrwt beam="1">  1       11 0.10000000E+01 0.10704796E+03</pdfrwt>
<pdfrwt beam="2">  1        4 0.25752497E-02 0.36411494E+02</pdfrwt>
<totfact> 0.20464089E+03</totfact>
</mgrwt>
</event>
<event>
 5    1  0.1490736E-003  0.5521760E+02  0.7818608E-02  0.1419073E+00
         11   -1    0    0    0    0  0.00000000000E+00  0.00000000000E+00  0.10002577571E+04  0.10002577571E+04  0.51100000000E-03 0. -1.
          4   -1    0    0  501    0 -0.00000000000E+00 -0.00000000000E+00 -0.15119954195E+02  0.15186487904E+02  0.14200000000E+01 0. -1.
         11    1    1    2    0    0  0.21026062401E+02  0.29457338176E+02  0.41263347471E+02  0.54886190588E+02  0.51100000000E-03 0. -1.
         22    1    1    2    0    0  0.44725852709E+02 -0.32129055724E+02  0.10033374653E+03  0.11445321671E+03  0.00000000000E+00 0. -1.
          4    1    1    2  501    0 -0.65751915111E+02  0.26717175483E+01  0.84354070892E+03  0.84610483772E+03  0.14200000000E+01 0. -1.
<mgrwt>
<rscale>  0 0.55217600E+02</rscale>
<asrwt>0</asrwt>
<pdfrwt beam="1">  1       11 0.10000000E+01 0.36191593E+02</pdfrwt>
<pdfrwt beam="2">  1        4 0.23319432E-02 0.55217600E+02</pdfrwt>
<totfact> 0.26454259E+03</totfact>
</mgrwt>
</event>
<event>
 5    1  0.1490736E-003  0.2256210E+03  0.7818608E-02  0.1133033E+00
         11   -1    0    0    0    0  0.00000000000E+00  0.00000000000E+00  0.10001617444E+04  0.10001617444E+04  0.51100000000E-03 0.  1.
         -4   -1    0    0    0  501 -0.00000000000E+00 -0.00000000000E+00 -0.56909691669E+02  0.56927404700E+02  0.14200000000E+01 0. -1.
         11    1    1    2    0    0 -0.19306030989E+03 -0.83874296982E+02  0.60695304538E+03  0.64241667182E+03  0.51100000000E-03 0.  1.
         22    1    1    2    0    0 -0.13698505813E+02  0.54302117775E+01  0.54523362244E+02  0.56479494437E+02  0.00000000000E+00 0.  1.
         -4    1    1    2    0  501  0.20675881570E+03  0.78444085204E+02  0.28177564509E+03  0.35819298282E+03  0.14200000000E+01 0. -1.
<mgrwt>
<rscale>  0 0.22114407E+03</rscale>
<asrwt>0</asrwt>
<pdfrwt beam="1">  1       11 0.10000000E+01 0.22562095E+03</pdfrwt>
<pdfrwt beam="2">  1       -4 0.87581934E-02 0.22114407E+03</pdfrwt>
<totfact> 0.40574971E+02</totfact>
</mgrwt>
</event>
<event>
 5    1  0.1490736E-003  0.1846307E+03  0.7818608E-02  0.1207603E+00
         11   -1    0    0    0    0  0.00000000000E+00  0.00000000000E+00  0.10000903511E+04  0.10000903511E+04  0.51100000000E-03 0.  1.
         -4   -1    0    0    0  501 -0.00000000000E+00 -0.00000000000E+00 -0.62717500523E+03  0.62717661275E+03  0.14200000000E+01 0. -1.
         11    1    1    2    0    0  0.56836749644E+02 -0.16949767185E+03  0.49737081171E+03  0.52852398357E+03  0.51100000000E-03 0.  1.
         22    1    1    2    0    0  0.81633786693E+02  0.21022259401E+03  0.45165446873E+03  0.50482608222E+03  0.00000000000E+00 0.  1.
         -4    1    1    2    0  501 -0.13847053634E+03 -0.40724922161E+02 -0.57610993456E+03  0.59391689807E+03  0.14200000000E+01 0. -1.
<mgrwt>
<rscale>  0 0.14434204E+03</rscale>
<asrwt>0</asrwt>
<pdfrwt beam="1">  1       11 0.10000000E+01 0.18463067E+03</pdfrwt>
<pdfrwt beam="2">  1       -4 0.96497379E-01 0.14434204E+03</pdfrwt>
<totfact> 0.38722087E+00</totfact>
</mgrwt>
</event>
<event>
 5    1  0.1490736E-003  0.4715681E+02  0.7818608E-02  0.1656120E+00
         11   -1    0    0    0    0  0.00000000000E+00  0.00000000000E+00  0.99970661626E+03  0.99970661626E+03  0.51100000000E-03 0. -1.
          4   -1    0    0  501    0 -0.00000000000E+00 -0.00000000000E+00 -0.54816559376E+01  0.56625923231E+01  0.14200000000E+01 0. -1.
         11    1    1    2    0    0  0.51701105794E+02  0.19900633127E+02  0.20297929294E+03  0.21040350021E+03  0.51100000000E-03 0. -1.
         22    1    1    2    0    0 -0.12895828787E+02  0.43631291301E+01  0.38634705133E+02  0.40963150960E+02  0.00000000000E+00 0. -1.
          4    1    1    2  501    0 -0.38805277007E+02 -0.24263762257E+02  0.75261096225E+03  0.75400255741E+03  0.14200000000E+01 0. -1.
<mgrwt>
<rscale>  0 0.25343254E+02</rscale>
<asrwt>0</asrwt>
<pdfrwt beam="1">  1       11 0.10000000E+01 0.47156809E+02</pdfrwt>
<pdfrwt beam="2">  1        4 0.85707589E-03 0.25343254E+02</pdfrwt>
<totfact> 0.91838268E+03</totfact>
</mgrwt>
</event>
<event>
 5    1  0.1490736E-003  0.3369656E+02  0.7818608E-02  0.1580697E+00
         11   -1    0    0    0    0  0.00000000000E+00  0.00000000000E+00  0.10001587622E+04  0.10001587622E+04  0.51100000000E-03 0. -1.
          4   -1    0    0  501    0 -0.00000000000E+00 -0.00000000000E+00 -0.21912984828E+01  0.26111662223E+01  0.14200000000E+01 0. -1.
         11    1    1    2    0    0  0.19635877348E+02  0.12582688785E+02  0.97309628545E+02  0.10006525643E+03  0.51100000000E-03 0. -1.
         22    1    1    2    0    0  0.25557453550E+01  0.99170744535E+01  0.34962297509E+02  0.36431338806E+02  0.00000000000E+00 0.  1.
          4    1    1    2  501    0 -0.22191622703E+02 -0.22499763238E+02  0.86569553765E+03  0.86627333317E+03  0.14200000000E+01 0. -1.
<mgrwt>
<rscale>  0 0.31634220E+02</rscale>
<asrwt>0</asrwt>
<pdfrwt beam="1">  1       11 0.10000000E+01 0.33696559E+02</pdfrwt>
<pdfrwt beam="2">  1        4 0.36955656E-03 0.31634220E+02</pdfrwt>
<totfact> 0.33183436E+04</totfact>
</mgrwt>
</event>
<event>
 5    1  0.1490736E-003  0.2651717E+02  0.7818608E-02  0.1687961E+00
         11   -1    0    0    0    0  0.00000000000E+00  0.00000000000E+00  0.10001480740E+04  0.10001480740E+04  0.51100000000E-03 0. -1.
          4   -1    0    0  501    0 -0.00000000000E+00 -0.00000000000E+00 -0.28220451084E+01  0.31591673894E+01  0.14200000000E+01 0. -1.
         11    1    1    2    0    0  0.10912958368E+02  0.39483056509E+02  0.22575693945E+03  0.22944323943E+03  0.51100000000E-03 0. -1.
         22    1    1    2    0    0 -0.14021881301E+02 -0.14685434172E+02  0.11236424280E+03  0.11418405402E+03  0.00000000000E+00 0. -1.
          4    1    1    2  501    0  0.31089229326E+01 -0.24797622337E+02  0.65920484665E+03  0.65967994794E+03  0.14200000000E+01 0. -1.
<mgrwt>
<rscale>  0 0.23220478E+02</rscale>
<asrwt>0</asrwt>
<pdfrwt beam="1">  1       11 0.10000000E+01 0.26517168E+02</pdfrwt>
<pdfrwt beam="2">  1        4 0.46023894E-03 0.23220478E+02</pdfrwt>
<totfact> 0.21540608E+04</totfact>
</mgrwt>
</event>
<event>
 5    1  0.1490736E-003  0.1202778E+03  0.7818608E-02  0.1242639E+00
         11   -1    0    0    0    0  0.00000000000E+00  0.00000000000E+00  0.10000939536E+04  0.10000939536E+04  0.51100000000E-03 0. -1.
          4   -1    0    0  501    0 -0.00000000000E+00 -0.00000000000E+00 -0.75809706333E+02  0.75823004255E+02  0.14200000000E+01 0. -1.
         11    1    1    2    0    0  0.13144989636E+03  0.79708565950E+02  0.77315301237E+03  0.78828808901E+03  0.51100000000E-03 0. -1.
         22    1    1    2    0    0 -0.42105004156E+02 -0.24364323567E+01  0.16349778451E+03  0.16884991299E+03  0.00000000000E+00 0.  1.
          4    1    1    2  501    0 -0.89344892204E+02 -0.77272133593E+02 -0.12366549656E+02  0.11877895581E+03  0.14200000000E+01 0. -1.
<mgrwt>
<rscale>  0 0.12027780E+03</rscale>
<asrwt>0</asrwt>
<pdfrwt beam="1">  1       11 0.10000000E+01 0.42175438E+02</pdfrwt>
<pdfrwt beam="2">  1        4 0.11665228E-01 0.12027780E+03</pdfrwt>
<totfact> 0.23209121E+02</totfact>
</mgrwt>
</event>
<event>
 5    1  0.1490736E-003  0.7388706E+02  0.7818608E-02  0.1600355E+00
         11   -1    0    0    0    0  0.00000000000E+00  0.00000000000E+00  0.10000490642E+04  0.10000490642E+04  0.51100000000E-03 0.  1.
          4   -1    0    0  501    0 -0.00000000000E+00 -0.00000000000E+00 -0.29448375611E+02  0.29482591917E+02  0.14200000000E+01 0.  1.
         11    1    1    2    0    0 -0.58734348178E+02 -0.48715244954E+02  0.36186816493E+02  0.84453445371E+02  0.51100000000E-03 0.  1.
         22    1    1    2    0    0 -0.47210348250E+01  0.11046885384E+02  0.54584180413E+01  0.13195308788E+02  0.00000000000E+00 0. -1.
          4    1    1    2  501    0  0.63455383003E+02  0.37668359570E+02  0.92895545403E+03  0.93188290194E+03  0.14200000000E+01 0.  1.
<mgrwt>
<rscale>  0 0.29795946E+02</rscale>
<asrwt>0</asrwt>
<pdfrwt beam="1">  1       11 0.10000000E+01 0.73887055E+02</pdfrwt>
<pdfrwt beam="2">  1        4 0.45334512E-02 0.29795946E+02</pdfrwt>
<totfact> 0.81920272E+02</totfact>
</mgrwt>
</event>
<event>
 5    1  0.1490736E-003  0.8550712E+02  0.7818608E-02  0.1324727E+00
         11   -1    0    0    0    0  0.00000000000E+00  0.00000000000E+00  0.99995157789E+03  0.99995157789E+03  0.51100000000E-03 0. -1.
          4   -1    0    0  501    0 -0.00000000000E+00 -0.00000000000E+00 -0.74314036148E+02  0.74327601661E+02  0.14200000000E+01 0. -1.
         11    1    1    2    0    0  0.79579851211E+02 -0.62222508271E+02  0.53863285294E+03  0.54802367058E+03  0.51100000000E-03 0. -1.
         22    1    1    2    0    0 -0.86169452734E+02 -0.19042200635E+02  0.42658215133E+03  0.43561463683E+03  0.00000000000E+00 0. -1.
          4    1    1    2  501    0  0.65896015232E+01  0.81264708906E+02 -0.39577462525E+02  0.90640872137E+02  0.14200000000E+01 0. -1.
<mgrwt>
<rscale>  0 0.81543805E+02</rscale>
<asrwt>0</asrwt>
<pdfrwt beam="1">  1       11 0.10000000E+01 0.85507122E+02</pdfrwt>
<pdfrwt beam="2">  1        4 0.11433496E-01 0.81543805E+02</pdfrwt>
<totfact> 0.22756867E+02</totfact>
</mgrwt>
</event>
<event>
 5    1  0.1490736E-003  0.1525092E+03  0.7818608E-02  0.1557381E+00
         11   -1    0    0    0    0  0.00000000000E+00  0.00000000000E+00  0.10003273627E+04  0.10003273627E+04  0.51100000000E-03 0.  1.
          4   -1    0    0  501    0 -0.00000000000E+00 -0.00000000000E+00 -0.47568946131E+02  0.47590135911E+02  0.14200000000E+01 0.  1.
         11    1    1    2    0    0 -0.75444265926E+02  0.11811169804E+03  0.40029496408E+03  0.42412058278E+03  0.51100000000E-03 0.  1.
         22    1    1    2    0    0  0.67724296455E+02 -0.15122473247E+03  0.56402158489E+03  0.58785699644E+03  0.00000000000E+00 0.  1.
          4    1    1    2  501    0  0.77199694712E+01  0.33113034421E+02 -0.11558132439E+02  0.35939919347E+02  0.14200000000E+01 0.  1.
<mgrwt>
<rscale>  0 0.34030683E+02</rscale>
<asrwt>0</asrwt>
<pdfrwt beam="1">  1       11 0.10000000E+01 0.15250921E+03</pdfrwt>
<pdfrwt beam="2">  1        4 0.73224030E-02 0.34030683E+02</pdfrwt>
<totfact> 0.40034240E+02</totfact>
</mgrwt>
</event>
<event>
 5    1  0.1490736E-003  0.4346191E+03  0.7818608E-02  0.1032411E+00
         11   -1    0    0    0    0  0.00000000000E+00  0.00000000000E+00  0.10003157576E+04  0.10003157576E+04  0.51100000000E-03 0. -1.
         -4   -1    0    0    0  501 -0.00000000000E+00 -0.00000000000E+00 -0.54628532759E+03  0.54628717314E+03  0.14200000000E+01 0.  1.
         11    1    1    2    0    0  0.31981049871E+02 -0.11387372193E+03  0.29078105301E+03  0.31391660180E+03  0.51100000000E-03 0. -1.
         22    1    1    2    0    0 -0.31348385047E+03 -0.23022920484E+03  0.52927326878E+03  0.65681641599E+03  0.00000000000E+00 0. -1.
         -4    1    1    2    0  501  0.28150280060E+03  0.34410292677E+03 -0.36602389175E+03  0.57586991299E+03  0.14200000000E+01 0.  1.
<mgrwt>
<rscale>  0 0.43461913E+03</rscale>
<asrwt>0</asrwt>
<pdfrwt beam="1">  1       11 0.10000000E+01 0.11827938E+03</pdfrwt>
<pdfrwt beam="2">  1       -4 0.84070651E-01 0.43461913E+03</pdfrwt>
<totfact> 0.54538794E+00</totfact>
</mgrwt>
</event>
<event>
 5    1  0.1490736E-003  0.1498635E+03  0.7818608E-02  0.1211564E+00
         11   -1    0    0    0    0  0.00000000000E+00  0.00000000000E+00  0.10001942120E+04  0.10001942120E+04  0.51100000000E-03 0.  1.
          4   -1    0    0  501    0 -0.00000000000E+00 -0.00000000000E+00 -0.21341546743E+02  0.21388735760E+02  0.14200000000E+01 0.  1.
         11    1    1    2    0    0 -0.11994919095E+03 -0.32047595340E+02  0.35994045689E+03  0.38075187364E+03  0.51100000000E-03 0.  1.
         22    1    1    2    0    0 -0.10404062410E+02 -0.22517280833E+02  0.97811332424E+02  0.10090752797E+03  0.00000000000E+00 0.  1.
          4    1    1    2  501    0  0.13035325336E+03  0.54564876173E+02  0.52110087594E+03  0.53992354614E+03  0.14200000000E+01 0.  1.
<mgrwt>
<rscale>  0 0.14131990E+03</rscale>
<asrwt>0</asrwt>
<pdfrwt beam="1">  1       11 0.10000000E+01 0.14986353E+03</pdfrwt>
<pdfrwt beam="2">  1        4 0.32876606E-02 0.14131990E+03</pdfrwt>
<totfact> 0.18744655E+03</totfact>
</mgrwt>
</event>
<event>
 5    1  0.1490736E-003  0.1167682E+03  0.7818608E-02  0.1264303E+00
         11   -1    0    0    0    0  0.00000000000E+00  0.00000000000E+00  0.99993198265E+03  0.99993198265E+03  0.51100000000E-03 0.  1.
          4   -1    0    0  501    0 -0.00000000000E+00 -0.00000000000E+00 -0.28904534009E+02  0.28939393329E+02  0.14200000000E+01 0.  1.
         11    1    1    2    0    0  0.10828332048E+02 -0.78729441060E+02  0.49396736269E+02  0.93571444463E+02  0.51100000000E-03 0.  1.
         22    1    1    2    0    0  0.11592036393E+02 -0.26916709594E+02  0.58426246337E+02  0.65364446178E+02  0.00000000000E+00 0.  1.
          4    1    1    2  501    0 -0.22420368441E+02  0.10564615065E+03  0.86320446603E+03  0.86993548534E+03  0.14200000000E+01 0.  1.
<mgrwt>
<rscale>  0 0.10800833E+03</rscale>
<asrwt>0</asrwt>
<pdfrwt beam="1">  1       11 0.10000000E+01 0.11676824E+03</pdfrwt>
<pdfrwt beam="2">  1        4 0.44493077E-02 0.10800833E+03</pdfrwt>
<totfact> 0.11108549E+03</totfact>
</mgrwt>
</event>
<event>
 5    1  0.1490736E-003  0.1140629E+03  0.7818608E-02  0.1333469E+00
         11   -1    0    0    0    0  0.00000000000E+00  0.00000000000E+00  0.10001620905E+04  0.10001620905E+04  0.51100000000E-03 0. -1.
          4   -1    0    0  501    0 -0.00000000000E+00 -0.00000000000E+00 -0.23101879060E+02  0.23145479388E+02  0.14200000000E+01 0. -1.
         11    1    1    2    0    0  0.62331603880E+02  0.83955373268E+02  0.36979439844E+03  0.38429367762E+03  0.51100000000E-03 0. -1.
         22    1    1    2    0    0 -0.33447125141E+02  0.42357014733E+02  0.83247487403E+02  0.99211748479E+02  0.00000000000E+00 0. -1.
          4    1    1    2  501    0 -0.28884478739E+02 -0.12631238800E+03  0.52401832559E+03  0.53980214378E+03  0.14200000000E+01 0. -1.
<mgrwt>
<rscale>  0 0.78463512E+02</rscale>
<asrwt>0</asrwt>
<pdfrwt beam="1">  1       11 0.10000000E+01 0.11406292E+03</pdfrwt>
<pdfrwt beam="2">  1        4 0.35581432E-02 0.78463512E+02</pdfrwt>
<totfact> 0.14902305E+03</totfact>
</mgrwt>
</event>
<event>
 5    1  0.1498758E-003  0.1052955E+03  0.7818608E-02  0.1274176E+00
         11   -1    0    0    0    0  0.00000000000E+00  0.00000000000E+00  0.10000733053E+04  0.10000733053E+04  0.51100000000E-03 0.  1.
          4   -1    0    0  501    0 -0.00000000000E+00 -0.00000000000E+00 -0.10840109771E+02  0.10932720606E+02  0.14200000000E+01 0.  1.
         11    1    1    2    0    0 -0.88605482293E+01  0.94327695581E+02  0.47167792710E+03  0.48109904426E+03  0.51100000000E-03 0.  1.
         22    1    1    2    0    0 -0.74369032140E+01  0.73321099015E+01  0.60697476166E+02  0.61589373905E+02  0.00000000000E+00 0.  1.
          4    1    1    2  501    0  0.16297451443E+02 -0.10165980548E+03  0.45685779225E+03  0.46831760774E+03  0.14200000000E+01 0.  1.
<mgrwt>
<rscale>  0 0.10296766E+03</rscale>
<asrwt>0</asrwt>
<pdfrwt beam="1">  1       11 0.10000000E+01 0.10529553E+03</pdfrwt>
<pdfrwt beam="2">  1        4 0.16750334E-02 0.10296766E+03</pdfrwt>
<totfact> 0.50188565E+03</totfact>
</mgrwt>
</event>
<event>
 5    1  0.1490736E-003  0.2147829E+03  0.7818608E-02  0.1141145E+00
         11   -1    0    0    0    0  0.00000000000E+00  0.00000000000E+00  0.10006612606E+04  0.10006612606E+04  0.51100000000E-03 0.  1.
         -4   -1    0    0    0  501 -0.00000000000E+00 -0.00000000000E+00 -0.95644647792E+02  0.95655188313E+02  0.14200000000E+01 0. -1.
         11    1    1    2    0    0 -0.13471455582E+03 -0.93202977945E+02  0.64395767163E+03  0.66446692129E+03  0.51100000000E-03 0.  1.
         22    1    1    2    0    0 -0.50459804246E+02 -0.69595022451E+01  0.20880588947E+03  0.21492911853E+03  0.00000000000E+00 0.  1.
         -4    1    1    2    0  501  0.18517436007E+03  0.10016248019E+03  0.52253051708E+02  0.21692040908E+03  0.14200000000E+01 0. -1.
<mgrwt>
<rscale>  0 0.21053285E+03</rscale>
<asrwt>0</asrwt>
<pdfrwt beam="1">  1       11 0.10000000E+01 0.21478292E+03</pdfrwt>
<pdfrwt beam="2">  1       -4 0.14725180E-01 0.21053285E+03</pdfrwt>
<totfact> 0.16519534E+02</totfact>
</mgrwt>
</event>
<event>
 5    1  0.1490736E-003  0.1187089E+03  0.7818608E-02  0.1259375E+00
         11   -1    0    0    0    0  0.00000000000E+00  0.00000000000E+00  0.10001941002E+04  0.10001941002E+04  0.51100000000E-03 0. -1.
          4   -1    0    0  501    0 -0.00000000000E+00 -0.00000000000E+00 -0.15420943507E+02  0.15486184122E+02  0.14200000000E+01 0. -1.
         11    1    1    2    0    0 -0.16368529696E+02  0.25370138497E+02  0.59597710704E+02  0.66809129714E+02  0.51100000000E-03 0. -1.
         22    1    1    2    0    0  0.18016757897E+02  0.85256116796E+02  0.25146593147E+03  0.26613591209E+03  0.00000000000E+00 0. -1.
          4    1    1    2  501    0 -0.16482282011E+01 -0.11062625529E+03  0.67370951451E+03  0.68273524251E+03  0.14200000000E+01 0. -1.
<mgrwt>
<rscale>  0 0.11064765E+03</rscale>
<asrwt>0</asrwt>
<pdfrwt beam="1">  1       11 0.10000000E+01 0.11870894E+03</pdfrwt>
<pdfrwt beam="2">  1        4 0.23780103E-02 0.11064765E+03</pdfrwt>
<totfact> 0.29751722E+03</totfact>
</mgrwt>
</event>
<event>
 5    1  0.1490736E-003  0.1676771E+03  0.7818608E-02  0.1185136E+00
         11   -1    0    0    0    0  0.00000000000E+00  0.00000000000E+00  0.10000905178E+04  0.10000905178E+04  0.51100000000E-03 0. -1.
          4   -1    0    0  501    0 -0.00000000000E+00 -0.00000000000E+00 -0.43625031684E+02  0.43648136151E+02  0.14200000000E+01 0. -1.
         11    1    1    2    0    0  0.47295047483E+02  0.12358068303E+03  0.70091467863E+03  0.71329544612E+03  0.51100000000E-03 0. -1.
         22    1    1    2    0    0  0.23386406152E+01  0.31877098928E+02  0.10002707067E+03  0.10500968309E+03  0.00000000000E+00 0. -1.
          4    1    1    2  501    0 -0.49633688098E+02 -0.15545778195E+03  0.15552373682E+03  0.22543352474E+03  0.14200000000E+01 0. -1.
<mgrwt>
<rscale>  0 0.16319510E+03</rscale>
<asrwt>0</asrwt>
<pdfrwt beam="1">  1       11 0.10000000E+01 0.16767707E+03</pdfrwt>
<pdfrwt beam="2">  1        4 0.67140056E-02 0.16319510E+03</pdfrwt>
<totfact> 0.60808634E+02</totfact>
</mgrwt>
</event>
<event>
 5    1  0.1490736E-003  0.3357291E+02  0.7818608E-02  0.1576189E+00
         11   -1    0    0    0    0  0.00000000000E+00  0.00000000000E+00  0.10002554435E+04  0.10002554435E+04  0.51100000000E-03 0.  1.
          4   -1    0    0  501    0 -0.00000000000E+00 -0.00000000000E+00 -0.12008466730E+02  0.12092132698E+02  0.14200000000E+01 0.  1.
         11    1    1    2    0    0  0.12453294889E+02  0.64580056627E+01  0.90477016625E+01  0.16692851654E+02  0.51100000000E-03 0.  1.
         22    1    1    2    0    0  0.11561700275E+02  0.14762008963E+02  0.30722565346E+01  0.19000752145E+02  0.00000000000E+00 0.  1.
          4    1    1    2  501    0 -0.24014995164E+02 -0.21220014625E+02  0.97612701855E+03  0.97665397238E+03  0.14200000000E+01 0.  1.
<mgrwt>
<rscale>  0 0.32078426E+02</rscale>
<asrwt>0</asrwt>
<pdfrwt beam="1">  1       11 0.10000000E+01 0.33572905E+02</pdfrwt>
<pdfrwt beam="2">  1        4 0.18544433E-02 0.32078426E+02</pdfrwt>
<totfact> 0.32223037E+03</totfact>
</mgrwt>
</event>
<event>
 5    1  0.1490736E-003  0.7692154E+02  0.7818608E-02  0.1338022E+00
         11   -1    0    0    0    0  0.00000000000E+00  0.00000000000E+00  0.10003627541E+04  0.10003627541E+04  0.51100000000E-03 0. -1.
          4   -1    0    0  501    0 -0.00000000000E+00 -0.00000000000E+00 -0.18910615668E+02  0.18963854696E+02  0.14200000000E+01 0. -1.
         11    1    1    2    0    0  0.49476978674E+02  0.38775080267E+02  0.33352511547E+03  0.33939723175E+03  0.51100000000E-03 0. -1.
         22    1    1    2    0    0  0.13460366072E+01 -0.96220353446E+02  0.53387465953E+03  0.54247794454E+03  0.00000000000E+00 0. -1.
          4    1    1    2  501    0 -0.50823015281E+02  0.57445273179E+02  0.11405236345E+03  0.13745143251E+03  0.14200000000E+01 0. -1.
<mgrwt>
<rscale>  0 0.76921540E+02</rscale>
<asrwt>0</asrwt>
<pdfrwt beam="1">  1       11 0.10000000E+01 0.62860785E+02</pdfrwt>
<pdfrwt beam="2">  1        4 0.29145551E-02 0.76921540E+02</pdfrwt>
<totfact> 0.20232779E+03</totfact>
</mgrwt>
</event>
<event>
 5    1  0.1490736E-003  0.6360036E+02  0.7818608E-02  0.1383315E+00
         11   -1    0    0    0    0  0.00000000000E+00  0.00000000000E+00  0.99992712923E+03  0.99992712923E+03  0.51100000000E-03 0. -1.
          4   -1    0    0  501    0 -0.00000000000E+00 -0.00000000000E+00 -0.63969320722E+01  0.65526437364E+01  0.14200000000E+01 0. -1.
         11    1    1    2    0    0  0.19188381514E+02  0.35282212888E+01  0.80867352159E+02  0.83187565033E+02  0.51100000000E-03 0. -1.
         22    1    1    2    0    0  0.16830812832E+02 -0.60491294371E+02  0.27504948347E+03  0.28212531136E+03  0.00000000000E+00 0. -1.
          4    1    1    2  501    0 -0.36019194346E+02  0.56963073082E+02  0.63761336153E+03  0.64116689657E+03  0.14200000000E+01 0. -1.
<mgrwt>
<rscale>  0 0.63600361E+02</rscale>
<asrwt>0</asrwt>
<pdfrwt beam="1">  1       11 0.10000000E+01 0.19510067E+02</pdfrwt>
<pdfrwt beam="2">  1        4 0.99612615E-03 0.63600361E+02</pdfrwt>
<totfact> 0.97998564E+03</totfact>
</mgrwt>
</event>
<event>
 5    1  0.1490736E-003  0.1549260E+03  0.7818608E-02  0.1197365E+00
         11   -1    0    0    0    0  0.00000000000E+00  0.00000000000E+00  0.99992756267E+03  0.99992756267E+03  0.51100000000E-03 0. -1.
         -4   -1    0    0    0  501 -0.00000000000E+00 -0.00000000000E+00 -0.28905503131E+02  0.28940361284E+02  0.14200000000E+01 0.  1.
         11    1    1    2    0    0 -0.13185390425E+03 -0.34821993755E+02  0.62083095318E+03  0.63563283092E+03  0.51100000000E-03 0. -1.
         22    1    1    2    0    0 -0.12904399325E+02 -0.13312573268E+02  0.87634375134E+02  0.89574169458E+02  0.00000000000E+00 0.  1.
         -4    1    1    2    0  501  0.14475830358E+03  0.48134567023E+02  0.26255673123E+03  0.30366092358E+03  0.14200000000E+01 0.  1.
<mgrwt>
<rscale>  0 0.15255792E+03</rscale>
<asrwt>0</asrwt>
<pdfrwt beam="1">  1       11 0.10000000E+01 0.15492602E+03</pdfrwt>
<pdfrwt beam="2">  1       -4 0.44494370E-02 0.15255792E+03</pdfrwt>
<totfact> 0.11735413E+03</totfact>
</mgrwt>
</event>
<event>
 5    1  0.1490736E-003  0.2252520E+03  0.7818608E-02  0.1322752E+00
         11   -1    0    0    0    0  0.00000000000E+00  0.00000000000E+00  0.10002858928E+04  0.10002858928E+04  0.51100000000E-03 0. -1.
          4   -1    0    0  501    0 -0.00000000000E+00 -0.00000000000E+00 -0.66337812592E+02  0.66353008821E+02  0.14200000000E+01 0. -1.
         11    1    1    2    0    0  0.13507169941E+03  0.17755150933E+03  0.27812559438E+03  0.35654277261E+03  0.51100000000E-03 0. -1.
         22    1    1    2    0    0  0.25024120186E+02 -0.16622018855E+02  0.23135333400E+02  0.37917565236E+02  0.00000000000E+00 0.  1.
          4    1    1    2  501    0 -0.16009581960E+03 -0.16092949048E+03  0.63268715246E+03  0.67217856381E+03  0.14200000000E+01 0. -1.
<mgrwt>
<rscale>  0 0.82262169E+02</rscale>
<asrwt>0</asrwt>
<pdfrwt beam="1">  1       11 0.10000000E+01 0.22525205E+03</pdfrwt>
<pdfrwt beam="2">  1        4 0.10209982E-01 0.82262169E+02</pdfrwt>
<totfact> 0.27547778E+02</totfact>
</mgrwt>
</event>
<event>
 5    1  0.1490736E-003  0.3587298E+03  0.7818608E-02  0.1065538E+00
         11   -1    0    0    0    0  0.00000000000E+00  0.00000000000E+00  0.10001475660E+04  0.10001475660E+04  0.51100000000E-03 0.  1.
         -4   -1    0    0    0  501 -0.00000000000E+00 -0.00000000000E+00 -0.19808235503E+03  0.19808744477E+03  0.14200000000E+01 0. -1.
         11    1    1    2    0    0  0.24789229457E+02 -0.25662773252E+03  0.59006603409E+03  0.64393339996E+03  0.51100000000E-03 0.  1.
         22    1    1    2    0    0 -0.51514009875E+02 -0.85296524267E+02  0.18517643060E+03  0.21028433303E+03  0.00000000000E+00 0.  1.
         -4    1    1    2    0  501  0.26724780418E+02  0.34192425679E+03  0.26822746228E+02  0.34401727774E+03  0.14200000000E+01 0. -1.
<mgrwt>
<rscale>  0 0.34297001E+03</rscale>
<asrwt>0</asrwt>
<pdfrwt beam="1">  1       11 0.10000000E+01 0.35872978E+03</pdfrwt>
<pdfrwt beam="2">  1       -4 0.30479174E-01 0.34297001E+03</pdfrwt>
<totfact> 0.45083841E+01</totfact>
</mgrwt>
</event>
<event>
 5    1  0.1490736E-003  0.1896012E+03  0.7818608E-02  0.1158822E+00
         11   -1    0    0    0    0  0.00000000000E+00  0.00000000000E+00  0.10000316621E+04  0.10000316621E+04  0.51100000000E-03 0. -1.
          4   -1    0    0  501    0 -0.00000000000E+00 -0.00000000000E+00 -0.50583798877E+02  0.50603726234E+02  0.14200000000E+01 0. -1.
         11    1    1    2    0    0  0.35351059052E+02  0.16315001513E+02  0.10947622658E+03  0.11619346297E+03  0.51100000000E-03 0. -1.
         22    1    1    2    0    0 -0.10193226572E+02  0.17793611936E+03  0.59310229811E+03  0.61930243054E+03  0.00000000000E+00 0. -1.
          4    1    1    2  501    0 -0.25157832481E+02 -0.19425112087E+03  0.24686933852E+03  0.31513949482E+03  0.14200000000E+01 0. -1.
<mgrwt>
<rscale>  0 0.18960117E+03</rscale>
<asrwt>0</asrwt>
<pdfrwt beam="1">  1       11 0.10000000E+01 0.38934261E+02</pdfrwt>
<pdfrwt beam="2">  1        4 0.77839796E-02 0.18960117E+03</pdfrwt>
<totfact> 0.48542427E+02</totfact>
</mgrwt>
</event>
<event>
 5    1  0.1490736E-003  0.1490553E+03  0.7818608E-02  0.1201639E+00
         11   -1    0    0    0    0  0.00000000000E+00  0.00000000000E+00  0.10003189376E+04  0.10003189376E+04  0.51100000000E-03 0.  1.
         -4   -1    0    0    0  501 -0.00000000000E+00 -0.00000000000E+00 -0.12953085215E+03  0.12953863539E+03  0.14200000000E+01 0.  1.
         11    1    1    2    0    0 -0.47449304366E+02 -0.18834251016E+03  0.70025463665E+03  0.72669174605E+03  0.51100000000E-03 0.  1.
         22    1    1    2    0    0  0.16223304184E+02  0.45631433113E+02  0.23754819110E+03  0.24243466415E+03  0.00000000000E+00 0.  1.
         -4    1    1    2    0  501  0.31226000182E+02  0.14271107705E+03 -0.67014742316E+02  0.16073116278E+03  0.14200000000E+01 0.  1.
<mgrwt>
<rscale>  0 0.14905530E+03</rscale>
<asrwt>0</asrwt>
<pdfrwt beam="1">  1       11 0.10000000E+01 0.48429570E+02</pdfrwt>
<pdfrwt beam="2">  1       -4 0.19934855E-01 0.14905530E+03</pdfrwt>
<totfact> 0.93136365E+01</totfact>
</mgrwt>
</event>
<event>
 5    1  0.1490736E-003  0.1474533E+03  0.7818608E-02  0.1206841E+00
         11   -1    0    0    0    0  0.00000000000E+00  0.00000000000E+00  0.10000391523E+04  0.10000391523E+04  0.51100000000E-03 0.  1.
          4   -1    0    0  501    0 -0.00000000000E+00 -0.00000000000E+00 -0.21724810796E+02  0.21771169103E+02  0.14200000000E+01 0.  1.
         11    1    1    2    0    0 -0.87729608770E+02 -0.71391744766E+02  0.33999335451E+03  0.35831375439E+03  0.51100000000E-03 0.  1.
         22    1    1    2    0    0 -0.15627535912E+02 -0.30199614119E+02  0.86050167636E+02  0.92524958372E+02  0.00000000000E+00 0. -1.
          4    1    1    2  501    0  0.10335714468E+03  0.10159135888E+03  0.55227081938E+03  0.57097160866E+03  0.14200000000E+01 0.  1.
<mgrwt>
<rscale>  0 0.14493281E+03</rscale>
<asrwt>0</asrwt>
<pdfrwt beam="1">  1       11 0.10000000E+01 0.14745325E+03</pdfrwt>
<pdfrwt beam="2">  1        4 0.33460531E-02 0.14493281E+03</pdfrwt>
<totfact> 0.18307021E+03</totfact>
</mgrwt>
</event>
<event>
 5    1  0.1490736E-003  0.1557066E+03  0.7818608E-02  0.1376918E+00
         11   -1    0    0    0    0  0.00000000000E+00  0.00000000000E+00  0.99998584398E+03  0.99998584398E+03  0.51100000000E-03 0.  1.
          4   -1    0    0  501    0 -0.00000000000E+00 -0.00000000000E+00 -0.97667082778E+02  0.97677405055E+02  0.14200000000E+01 0.  1.
         11    1    1    2    0    0 -0.51243842635E+02  0.14564705931E+03  0.13316524487E+03  0.20389207865E+03  0.51100000000E-03 0.  1.
         22    1    1    2    0    0 -0.12861637703E+02 -0.15789746122E+03  0.80421539274E+03  0.81967031659E+03  0.00000000000E+00 0.  1.
          4    1    1    2  501    0  0.64105480338E+02  0.12250401905E+02 -0.35061876406E+02  0.74100853797E+02  0.14200000000E+01 0.  1.
<mgrwt>
<rscale>  0 0.65280942E+02</rscale>
<asrwt>0</asrwt>
<pdfrwt beam="1">  1       11 0.10000000E+01 0.15570659E+03</pdfrwt>
<pdfrwt beam="2">  1        4 0.15026363E-01 0.65280942E+02</pdfrwt>
<totfact> 0.13833317E+02</totfact>
</mgrwt>
</event>
<event>
 5    1  0.1935601E-003  0.1718061E+03  0.7818608E-02  0.1180353E+00
         11   -1    0    0    0    0  0.00000000000E+00  0.00000000000E+00  0.10004405194E+04  0.10004405194E+04  0.51100000000E-03 0. -1.
          4   -1    0    0  501    0 -0.00000000000E+00 -0.00000000000E+00 -0.16884591828E+03  0.16885188930E+03  0.14200000000E+01 0. -1.
         11    1    1    2    0    0 -0.11382442019E+03 -0.11095013744E+03  0.90648352537E+03  0.92031424709E+03  0.51100000000E-03 0. -1.
         22    1    1    2    0    0 -0.35036151929E+00 -0.11762693959E+02  0.42657080274E+02  0.44250539204E+02  0.00000000000E+00 0.  1.
          4    1    1    2  501    0  0.11417478171E+03  0.12271283139E+03 -0.11754600457E+03  0.20472762236E+03  0.14200000000E+01 0. -1.
<mgrwt>
<rscale>  0 0.16761962E+03</rscale>
<asrwt>0</asrwt>
<pdfrwt beam="1">  1       11 0.10000000E+01 0.17180610E+03</pdfrwt>
<pdfrwt beam="2">  1        4 0.25988275E-01 0.16761962E+03</pdfrwt>
<totfact> 0.57927665E+01</totfact>
</mgrwt>
</event>
<event>
 5    1  0.1490736E-003  0.1169962E+03  0.7818608E-02  0.1598039E+00
         11   -1    0    0    0    0  0.00000000000E+00  0.00000000000E+00  0.10006141790E+04  0.10006141790E+04  0.51100000000E-03 0. -1.
          4   -1    0    0  501    0 -0.00000000000E+00 -0.00000000000E+00 -0.18073947221E+02  0.18129643354E+02  0.14200000000E+01 0. -1.
         11    1    1    2    0    0 -0.50314622442E+02  0.12268939560E+03  0.48535042677E+03  0.50313942977E+03  0.51100000000E-03 0. -1.
         22    1    1    2    0    0  0.50516425710E+02 -0.92719157018E+02  0.41079256769E+03  0.42414535835E+03  0.00000000000E+00 0. -1.
          4    1    1    2  501    0 -0.20180326860E+00 -0.29970238587E+02  0.86397237330E+02  0.91459034238E+02  0.14200000000E+01 0. -1.
<mgrwt>
<rscale>  0 0.30004538E+02</rscale>
<asrwt>0</asrwt>
<pdfrwt beam="1">  1       11 0.10000000E+01 0.11699623E+03</pdfrwt>
<pdfrwt beam="2">  1        4 0.27866795E-02 0.30004538E+02</pdfrwt>
<totfact> 0.17199021E+03</totfact>
</mgrwt>
</event>
<event>
 5    1  0.1490736E-003  0.1741391E+03  0.7818608E-02  0.1177148E+00
         11   -1    0    0    0    0  0.00000000000E+00  0.00000000000E+00  0.10000546850E+04  0.10000546850E+04  0.51100000000E-03 0. -1.
          4   -1    0    0  501    0 -0.00000000000E+00 -0.00000000000E+00 -0.13481628422E+03  0.13482376234E+03  0.14200000000E+01 0. -1.
         11    1    1    2    0    0 -0.72853238608E+02  0.11815756441E+03  0.79236292450E+03  0.80443011414E+03  0.51100000000E-03 0. -1.
         22    1    1    2    0    0 -0.51205867544E+01  0.33656299032E+02  0.14221089148E+03  0.14622894559E+03  0.00000000000E+00 0.  1.
          4    1    1    2  501    0  0.77973825362E+02 -0.15181386344E+03 -0.69335415199E+02  0.18421938762E+03  0.14200000000E+01 0. -1.
<mgrwt>
<rscale>  0 0.17067332E+03</rscale>
<asrwt>0</asrwt>
<pdfrwt beam="1">  1       11 0.10000000E+01 0.17413911E+03</pdfrwt>
<pdfrwt beam="2">  1        4 0.20742753E-01 0.17067332E+03</pdfrwt>
<totfact> 0.87817663E+01</totfact>
</mgrwt>
</event>
<event>
 5    1  0.1490736E-003  0.2689450E+03  0.7818608E-02  0.1101885E+00
         11   -1    0    0    0    0  0.00000000000E+00  0.00000000000E+00  0.10001703763E+04  0.10001703763E+04  0.51100000000E-03 0. -1.
         -4   -1    0    0    0  501 -0.00000000000E+00 -0.00000000000E+00 -0.33562837917E+03  0.33563138307E+03  0.14200000000E+01 0.  1.
         11    1    1    2    0    0 -0.40934490536E+02  0.21667544927E+02  0.43079069064E+02  0.63252835591E+02  0.51100000000E-03 0. -1.
         22    1    1    2    0    0 -0.32219735129E+02 -0.27982355539E+03  0.86529467020E+03  0.90998582393E+03  0.00000000000E+00 0. -1.
         -4    1    1    2    0  501  0.73154225664E+02  0.25815601046E+03 -0.24383174216E+03  0.36256309982E+03  0.14200000000E+01 0.  1.
<mgrwt>
<rscale>  0 0.26894496E+03</rscale>
<asrwt>0</asrwt>
<pdfrwt beam="1">  1       11 0.10000000E+01 0.46315386E+02</pdfrwt>
<pdfrwt beam="2">  1       -4 0.51644240E-01 0.26894496E+03</pdfrwt>
<totfact> 0.15515030E+01</totfact>
</mgrwt>
</event>
<event>
 5    1  0.1490736E-003  0.1481277E+03  0.7818608E-02  0.1202793E+00
         11   -1    0    0    0    0  0.00000000000E+00  0.00000000000E+00  0.10002280276E+04  0.10002280276E+04  0.51100000000E-03 0. -1.
          4   -1    0    0  501    0 -0.00000000000E+00 -0.00000000000E+00 -0.39643431905E+02  0.39668855456E+02  0.14200000000E+01 0. -1.
         11    1    1    2    0    0  0.14659451880E+02  0.66156537174E+01 -0.31754844922E+00  0.16086243837E+02  0.51100000000E-03 0. -1.
         22    1    1    2    0    0 -0.81699079179E+01 -0.15319703722E+03  0.75825077093E+03  0.77361509243E+03  0.00000000000E+00 0. -1.
          4    1    1    2  501    0 -0.64895439616E+01  0.14658138351E+03  0.20265137322E+03  0.25019554680E+03  0.14200000000E+01 0. -1.
<mgrwt>
<rscale>  0 0.14812765E+03</rscale>
<asrwt>0</asrwt>
<pdfrwt beam="1">  1       11 0.10000000E+01 0.16083117E+02</pdfrwt>
<pdfrwt beam="2">  1        4 0.61024137E-02 0.14812765E+03</pdfrwt>
<totfact> 0.70150165E+02</totfact>
</mgrwt>
</event>
<event>
 5    1  0.1490736E-003  0.2343602E+03  0.7818608E-02  0.1142449E+00
         11   -1    0    0    0    0  0.00000000000E+00  0.00000000000E+00  0.10001247018E+04  0.10001247018E+04  0.51100000000E-03 0. -1.
          4   -1    0    0  501    0 -0.00000000000E+00 -0.00000000000E+00 -0.60141777359E+02  0.60158538745E+02  0.14200000000E+01 0. -1.
         11    1    1    2    0    0 -0.84796130596E+02 -0.66330690103E+02  0.20980355145E+03  0.23581279527E+03  0.51100000000E-03 0. -1.
         22    1    1    2    0    0 -0.10578868987E+03 -0.19168740641E+02  0.50904533977E+03  0.52027477881E+03  0.00000000000E+00 0.  1.
          4    1    1    2  501    0  0.19058482047E+03  0.85499430745E+02  0.22113403325E+03  0.30419566649E+03  0.14200000000E+01 0. -1.
<mgrwt>
<rscale>  0 0.20888931E+03</rscale>
<asrwt>0</asrwt>
<pdfrwt beam="1">  1       11 0.10000000E+01 0.23436017E+03</pdfrwt>
<pdfrwt beam="2">  1        4 0.92551017E-02 0.20888931E+03</pdfrwt>
<totfact> 0.36729137E+02</totfact>
</mgrwt>
</event>
<event>
 5    1  0.1490736E-003  0.4290386E+02  0.7818608E-02  0.1487868E+00
         11   -1    0    0    0    0  0.00000000000E+00  0.00000000000E+00  0.99999102594E+03  0.99999102594E+03  0.51100000000E-03 0. -1.
          4   -1    0    0  501    0 -0.00000000000E+00 -0.00000000000E+00 -0.85097674769E+01  0.86274296584E+01  0.14200000000E+01 0. -1.
         11    1    1    2    0    0  0.20514033354E+02  0.95295312533E+01  0.30716250746E+02  0.38146108458E+02  0.51100000000E-03 0. -1.
         22    1    1    2    0    0 -0.39356930430E+01 -0.43947066843E+02  0.10552203340E+03  0.11437540774E+03  0.00000000000E+00 0. -1.
          4    1    1    2  501    0 -0.16578340311E+02  0.34417535590E+02  0.85524297433E+03  0.85609693940E+03  0.14200000000E+01 0. -1.
<mgrwt>
<rscale>  0 0.42903865E+02</rscale>
<asrwt>0</asrwt>
<pdfrwt beam="1">  1       11 0.10000000E+01 0.22619417E+02</pdfrwt>
<pdfrwt beam="2">  1        4 0.13183116E-02 0.42903865E+02</pdfrwt>
<totfact> 0.58184835E+03</totfact>
</mgrwt>
</event>
<event>
 5    1  0.1490736E-003  0.3541025E+02  0.7818608E-02  0.1644557E+00
         11   -1    0    0    0    0  0.00000000000E+00  0.00000000000E+00  0.10001284674E+04  0.10001284674E+04  0.51100000000E-03 0. -1.
          4   -1    0    0  501    0 -0.00000000000E+00 -0.00000000000E+00 -0.36968051143E+01  0.39601474787E+01  0.14200000000E+01 0. -1.
         11    1    1    2    0    0  0.11466409770E+02  0.22223589283E+02  0.72729075408E+02  0.76908288783E+02  0.51100000000E-03 0. -1.
         22    1    1    2    0    0  0.19345982470E+02  0.20714153043E-01  0.69802107977E+02  0.72433429747E+02  0.00000000000E+00 0.  1.
          4    1    1    2  501    0 -0.30812392240E+02 -0.22244303436E+02  0.85390047889E+03  0.85474689634E+03  0.14200000000E+01 0. -1.
<mgrwt>
<rscale>  0 0.26183901E+02</rscale>
<asrwt>0</asrwt>
<pdfrwt beam="1">  1       11 0.10000000E+01 0.35410248E+02</pdfrwt>
<pdfrwt beam="2">  1        4 0.58914956E-03 0.26183901E+02</pdfrwt>
<totfact> 0.15907874E+04</totfact>
</mgrwt>
</event>
<event>
 5    1  0.1490736E-003  0.8906826E+02  0.7818608E-02  0.1317577E+00
         11   -1    0    0    0    0  0.00000000000E+00  0.00000000000E+00  0.10001112810E+04  0.10001112810E+04  0.51100000000E-03 0. -1.
          4   -1    0    0  501    0 -0.00000000000E+00 -0.00000000000E+00 -0.80716377618E+01  0.81955924836E+01  0.14200000000E+01 0. -1.
         11    1    1    2    0    0  0.49588462969E+02  0.24491996772E+02  0.19083730051E+03  0.19869008237E+03  0.51100000000E-03 0. -1.
         22    1    1    2    0    0  0.17876869445E+02  0.25842910729E+02  0.17774020613E+03  0.18049659102E+03  0.00000000000E+00 0. -1.
          4    1    1    2  501    0 -0.67465332415E+02 -0.50334907501E+02  0.62346213661E+03  0.62912020010E+03  0.14200000000E+01 0. -1.
<mgrwt>
<rscale>  0 0.84185452E+02</rscale>
<asrwt>0</asrwt>
<pdfrwt beam="1">  1       11 0.10000000E+01 0.89068260E+02</pdfrwt>
<pdfrwt beam="2">  1        4 0.12515422E-02 0.84185452E+02</pdfrwt>
<totfact> 0.74639460E+03</totfact>
</mgrwt>
</event>
<event>
 5    1  0.1490736E-003  0.1505947E+03  0.7818608E-02  0.1222526E+00
         11   -1    0    0    0    0  0.00000000000E+00  0.00000000000E+00  0.10004422779E+04  0.10004422779E+04  0.51100000000E-03 0. -1.
          4   -1    0    0  501    0 -0.00000000000E+00 -0.00000000000E+00 -0.29484816728E+02  0.29518990794E+02  0.14200000000E+01 0. -1.
         11    1    1    2    0    0 -0.90053058886E+01  0.90683592778E+02  0.44174173102E+03  0.45104364141E+03  0.51100000000E-03 0. -1.
         22    1    1    2    0    0 -0.51412548780E+02  0.28218053217E+02  0.35340577605E+03  0.35823895830E+03  0.00000000000E+00 0. -1.
          4    1    1    2  501    0  0.60417854668E+02 -0.11890164599E+03  0.17580995412E+03  0.22067866900E+03  0.14200000000E+01 0. -1.
<mgrwt>
<rscale>  0 0.13337892E+03</rscale>
<asrwt>0</asrwt>
<pdfrwt beam="1">  1       11 0.10000000E+01 0.15059472E+03</pdfrwt>
<pdfrwt beam="2">  1        4 0.45408392E-02 0.13337892E+03</pdfrwt>
<totfact> 0.11128563E+03</totfact>
</mgrwt>
</event>
<event>
 5    1  0.1490736E-003  0.2718056E+03  0.7818608E-02  0.1663065E+00
         11   -1    0    0    0    0  0.00000000000E+00  0.00000000000E+00  0.10003937346E+04  0.10003937346E+04  0.51100000000E-03 0. -1.
          4   -1    0    0  501    0 -0.00000000000E+00 -0.00000000000E+00 -0.92158838066E+02  0.92169777225E+02  0.14200000000E+01 0. -1.
         11    1    1    2    0    0  0.27730238400E+03 -0.43392659980E+02  0.58857151172E+03  0.65207051729E+03  0.51100000000E-03 0. -1.
         22    1    1    2    0    0 -0.25774759990E+03  0.28113228441E+02  0.32430306117E+03  0.41520676096E+03  0.00000000000E+00 0. -1.
          4    1    1    2  501    0 -0.19554784106E+02  0.15279431540E+02 -0.46396763855E+01  0.25286233539E+02  0.14200000000E+01 0. -1.
<mgrwt>
<rscale>  0 0.24856931E+02</rscale>
<asrwt>0</asrwt>
<pdfrwt beam="1">  1       11 0.10000000E+01 0.27180561E+03</pdfrwt>
<pdfrwt beam="2">  1        4 0.14184784E-01 0.24856931E+02</pdfrwt>
<totfact> 0.12712459E+02</totfact>
</mgrwt>
</event>
<event>
 5    1  0.1490736E-003  0.4939707E+02  0.7818608E-02  0.1578362E+00
         11   -1    0    0    0    0  0.00000000000E+00  0.00000000000E+00  0.10003787160E+04  0.10003787160E+04  0.51100000000E-03 0.  1.
          4   -1    0    0  501    0 -0.00000000000E+00 -0.00000000000E+00 -0.81900914997E+01  0.83122799985E+01  0.14200000000E+01 0.  1.
         11    1    1    2    0    0 -0.35929300658E+02 -0.24564524641E+02  0.85475448193E+02  0.95918625723E+02  0.51100000000E-03 0.  1.
         22    1    1    2    0    0  0.90669099260E+01 -0.18435561289E+02  0.43897951777E+02  0.48467607181E+02  0.00000000000E+00 0.  1.
          4    1    1    2  501    0  0.26862390732E+02  0.43000085930E+02  0.86281522451E+03  0.86430476308E+03  0.14200000000E+01 0.  1.
<mgrwt>
<rscale>  0 0.31863138E+02</rscale>
<asrwt>0</asrwt>
<pdfrwt beam="1">  1       11 0.10000000E+01 0.49397070E+02</pdfrwt>
<pdfrwt beam="2">  1        4 0.12699715E-02 0.31863138E+02</pdfrwt>
<totfact> 0.56170305E+03</totfact>
</mgrwt>
</event>
<event>
 5    1  0.1490736E-003  0.1689647E+03  0.7818608E-02  0.1404008E+00
         11   -1    0    0    0    0  0.00000000000E+00  0.00000000000E+00  0.99985039979E+03  0.99985039979E+03  0.51100000000E-03 0. -1.
          4   -1    0    0  501    0 -0.00000000000E+00 -0.00000000000E+00 -0.34449210838E+02  0.34478464690E+02  0.14200000000E+01 0.  1.
         11    1    1    2    0    0  0.58335658170E+02  0.15697929007E+03  0.33892617890E+03  0.37804298865E+03  0.51100000000E-03 0. -1.
         22    1    1    2    0    0  0.19533725891E+02 -0.54881809578E+01  0.32019777546E+02  0.37907159370E+02  0.00000000000E+00 0.  1.
          4    1    1    2  501    0 -0.77869384061E+02 -0.15149110911E+03  0.59445523250E+03  0.61837871645E+03  0.14200000000E+01 0.  1.
<mgrwt>
<rscale>  0 0.58552737E+02</rscale>
<asrwt>0</asrwt>
<pdfrwt beam="1">  1       11 0.10000000E+01 0.16896468E+03</pdfrwt>
<pdfrwt beam="2">  1        4 0.53014131E-02 0.58552737E+02</pdfrwt>
<totfact> 0.75169992E+02</totfact>
</mgrwt>
</event>
<event>
 5    1  0.1490736E-003  0.1330522E+03  0.7818608E-02  0.1272354E+00
         11   -1    0    0    0    0  0.00000000000E+00  0.00000000000E+00  0.10003020519E+04  0.10003020519E+04  0.51100000000E-03 0. -1.
          4   -1    0    0  501    0 -0.00000000000E+00 -0.00000000000E+00 -0.39028498488E+02  0.39054322350E+02  0.14200000000E+01 0. -1.
         11    1    1    2    0    0  0.24928296696E+01 -0.17868895722E+03  0.51340139125E+03  0.54361470378E+03  0.51100000000E-03 0. -1.
         22    1    1    2    0    0 -0.58206879550E+02  0.91032088637E+02  0.24706835001E+03  0.26966210628E+03  0.00000000000E+00 0. -1.
          4    1    1    2  501    0  0.55714049881E+02  0.87656868587E+02  0.20080381213E+03  0.22607956416E+03  0.14200000000E+01 0. -1.
<mgrwt>
<rscale>  0 0.10387395E+03</rscale>
<asrwt>0</asrwt>
<pdfrwt beam="1">  1       11 0.10000000E+01 0.13305219E+03</pdfrwt>
<pdfrwt beam="2">  1        4 0.60082625E-02 0.10387395E+03</pdfrwt>
<totfact> 0.68204756E+02</totfact>
</mgrwt>
</event>
<event>
 5    1  0.1490736E-003  0.2065522E+03  0.7818608E-02  0.1149431E+00
         11   -1    0    0    0    0  0.00000000000E+00  0.00000000000E+00  0.10000842818E+04  0.10000842818E+04  0.51100000000E-03 0. -1.
         -4   -1    0    0    0  501 -0.00000000000E+00 -0.00000000000E+00 -0.89794013557E+02  0.89805240775E+02  0.14200000000E+01 0.  1.
         11    1    1    2    0    0 -0.32831598999E+02  0.13548984857E+03  0.49752955896E+03  0.51669243753E+03  0.51100000000E-03 0. -1.
         22    1    1    2    0    0 -0.29225580460E+02  0.55018417755E+02  0.36088747650E+03  0.36622524700E+03  0.00000000000E+00 0. -1.
         -4    1    1    2    0  501  0.62057179459E+02 -0.19050826633E+03  0.51873232770E+02  0.20697183803E+03  0.14200000000E+01 0.  1.
<mgrwt>
<rscale>  0 0.20036594E+03</rscale>
<asrwt>0</asrwt>
<pdfrwt beam="1">  1       11 0.10000000E+01 0.20655225E+03</pdfrwt>
<pdfrwt beam="2">  1       -4 0.13816569E-01 0.20036594E+03</pdfrwt>
<totfact> 0.18379740E+02</totfact>
</mgrwt>
</event>
<event>
 5    1  0.1490736E-003  0.1958071E+03  0.7818608E-02  0.1160612E+00
         11   -1    0    0    0    0  0.00000000000E+00  0.00000000000E+00  0.10000432879E+04  0.10000432879E+04  0.51100000000E-03 0.  1.
         -4   -1    0    0    0  501 -0.00000000000E+00 -0.00000000000E+00 -0.43718434531E+02  0.43741489662E+02  0.14200000000E+01 0. -1.
         11    1    1    2    0    0 -0.77145609652E+02  0.10990597233E+03  0.54267128471E+03  0.55903746841E+03  0.51100000000E-03 0.  1.
         22    1    1    2    0    0 -0.51656262132E+02  0.26530460626E+02  0.15244901135E+03  0.16313471678E+03  0.00000000000E+00 0.  1.
         -4    1    1    2    0  501  0.12880187178E+03 -0.13643643296E+03  0.26120455735E+03  0.32161259240E+03  0.14200000000E+01 0. -1.
<mgrwt>
<rscale>  0 0.18763486E+03</rscale>
<asrwt>0</asrwt>
<pdfrwt beam="1">  1       11 0.10000000E+01 0.19580715E+03</pdfrwt>
<pdfrwt beam="2">  1       -4 0.67280551E-02 0.18763486E+03</pdfrwt>
<totfact> 0.61718087E+02</totfact>
</mgrwt>
</event>
<event>
 5    1  0.1490736E-003  0.1655806E+03  0.7818608E-02  0.1185826E+00
         11   -1    0    0    0    0  0.00000000000E+00  0.00000000000E+00  0.10002696538E+04  0.10002696538E+04  0.51100000000E-03 0. -1.
          4   -1    0    0  501    0 -0.00000000000E+00 -0.00000000000E+00 -0.32977171615E+02  0.33007730121E+02  0.14200000000E+01 0. -1.
         11    1    1    2    0    0  0.11514727737E+03 -0.14228821545E+02  0.47044996058E+03  0.48454568438E+03  0.51100000000E-03 0. -1.
         22    1    1    2    0    0  0.42953184502E+02 -0.23598998397E+02  0.23858587451E+03  0.24356746150E+03  0.00000000000E+00 0. -1.
          4    1    1    2  501    0 -0.15810046187E+03  0.37827819942E+02  0.25825664708E+03  0.30516423802E+03  0.14200000000E+01 0. -1.
<mgrwt>
<rscale>  0 0.16256911E+03</rscale>
<asrwt>0</asrwt>
<pdfrwt beam="1">  1       11 0.10000000E+01 0.16558061E+03</pdfrwt>
<pdfrwt beam="2">  1        4 0.50772078E-02 0.16256911E+03</pdfrwt>
<totfact> 0.95807651E+02</totfact>
</mgrwt>
</event>
<event>
 5    1  0.1490736E-003  0.4441595E+02  0.7818608E-02  0.1555260E+00
         11   -1    0    0    0    0  0.00000000000E+00  0.00000000000E+00  0.10002560468E+04  0.10002560468E+04  0.51100000000E-03 0. -1.
          4   -1    0    0  501    0 -0.00000000000E+00 -0.00000000000E+00 -0.11898004258E+02  0.11982441542E+02  0.14200000000E+01 0. -1.
         11    1    1    2    0    0  0.42142175355E+02 -0.43097594708E+02  0.90484813100E+02  0.10872381071E+03  0.51100000000E-03 0. -1.
         22    1    1    2    0    0 -0.79514718693E+01  0.41419210626E+02  0.18203227018E+03  0.18685428628E+03  0.00000000000E+00 0. -1.
          4    1    1    2  501    0 -0.34190703486E+02  0.16783840826E+01  0.71584095923E+03  0.71666039132E+03  0.14200000000E+01 0. -1.
<mgrwt>
<rscale>  0 0.34261313E+02</rscale>
<asrwt>0</asrwt>
<pdfrwt beam="1">  1       11 0.10000000E+01 0.44415952E+02</pdfrwt>
<pdfrwt beam="2">  1        4 0.18375052E-02 0.34261313E+02</pdfrwt>
<totfact> 0.33319128E+03</totfact>
</mgrwt>
</event>
<event>
 5    1  0.1490736E-003  0.1807001E+03  0.7818608E-02  0.1171149E+00
         11   -1    0    0    0    0  0.00000000000E+00  0.00000000000E+00  0.10001408828E+04  0.10001408828E+04  0.51100000000E-03 0.  1.
         -4   -1    0    0    0  501 -0.00000000000E+00 -0.00000000000E+00 -0.40570450100E+02  0.40595293093E+02  0.14200000000E+01 0. -1.
         11    1    1    2    0    0  0.12355499784E+03 -0.33795417651E+02  0.47146769231E+03  0.48855885279E+03  0.51100000000E-03 0.  1.
         22    1    1    2    0    0  0.40845171683E+02 -0.30648909999E+02  0.25322989479E+03  0.25832743437E+03  0.00000000000E+00 0.  1.
         -4    1    1    2    0  501 -0.16440016952E+03  0.64444327650E+02  0.23487284557E+03  0.29384988870E+03  0.14200000000E+01 0. -1.
<mgrwt>
<rscale>  0 0.17658568E+03</rscale>
<asrwt>0</asrwt>
<pdfrwt beam="1">  1       11 0.10000000E+01 0.18070012E+03</pdfrwt>
<pdfrwt beam="2">  1       -4 0.62444757E-02 0.17658568E+03</pdfrwt>
<totfact> 0.69211071E+02</totfact>
</mgrwt>
</event>
<event>
 5    1  0.1490736E-003  0.6220243E+02  0.7818608E-02  0.1399750E+00
         11   -1    0    0    0    0  0.00000000000E+00  0.00000000000E+00  0.10003326999E+04  0.10003326999E+04  0.51100000000E-03 0. -1.
         -4   -1    0    0    0  501 -0.00000000000E+00 -0.00000000000E+00 -0.25586450819E+02  0.25625824192E+02  0.14200000000E+01 0. -1.
         11    1    1    2    0    0  0.33227650045E+02 -0.85110886081E+02  0.14917896863E+03  0.17493514323E+03  0.51100000000E-03 0. -1.
         22    1    1    2    0    0 -0.50430320991E+02  0.26538322364E+02  0.58998411257E+02  0.82026290664E+02  0.00000000000E+00 0. -1.
         -4    1    1    2    0  501  0.17202670946E+02  0.58572563717E+02  0.76656886917E+03  0.76899709017E+03  0.14200000000E+01 0. -1.
<mgrwt>
<rscale>  0 0.59545291E+02</rscale>
<asrwt>0</asrwt>
<pdfrwt beam="1">  1       11 0.10000000E+01 0.62202430E+02</pdfrwt>
<pdfrwt beam="2">  1       -4 0.39407939E-02 0.59545291E+02</pdfrwt>
<totfact> 0.12014309E+03</totfact>
</mgrwt>
</event>
<event>
 5    1  0.1490736E-003  0.1685910E+03  0.7818608E-02  0.1179325E+00
         11   -1    0    0    0    0  0.00000000000E+00  0.00000000000E+00  0.99993306437E+03  0.99993306437E+03  0.51100000000E-03 0. -1.
          4   -1    0    0  501    0 -0.00000000000E+00 -0.00000000000E+00 -0.10271768179E+03  0.10272749658E+03  0.14200000000E+01 0. -1.
         11    1    1    2    0    0 -0.16153823612E+03  0.54857536263E+02  0.86390252948E+03  0.88058590237E+03  0.51100000000E-03 0. -1.
         22    1    1    2    0    0 -0.92410401550E+00 -0.10400689324E+02  0.51597973611E+02  0.52643890314E+02  0.00000000000E+00 0. -1.
          4    1    1    2  501    0  0.16246234013E+03 -0.44456846939E+02 -0.18285120512E+02  0.16943076826E+03  0.14200000000E+01 0. -1.
<mgrwt>
<rscale>  0 0.16859099E+03</rscale>
<asrwt>0</asrwt>
<pdfrwt beam="1">  1       11 0.10000000E+01 0.10441662E+02</pdfrwt>
<pdfrwt beam="2">  1        4 0.15802495E-01 0.16859099E+03</pdfrwt>
<totfact> 0.14266133E+02</totfact>
</mgrwt>
</event>
<event>
 5    1  0.1490736E-003  0.3182086E+02  0.7818608E-02  0.1590455E+00
         11   -1    0    0    0    0  0.00000000000E+00  0.00000000000E+00  0.10003109891E+04  0.10003109891E+04  0.51100000000E-03 0. -1.
          4   -1    0    0  501    0 -0.00000000000E+00 -0.00000000000E+00 -0.21038701547E+01  0.25382414439E+01  0.14200000000E+01 0. -1.
         11    1    1    2    0    0  0.37469488547E+01 -0.21082772323E+02  0.82818084407E+02  0.85541557267E+02  0.51100000000E-03 0. -1.
         22    1    1    2    0    0  0.70940057586E+01 -0.76065291873E+01  0.38468371028E+02  0.39849714849E+02  0.00000000000E+00 0. -1.
          4    1    1    2  501    0 -0.10840954613E+02  0.28689301510E+02  0.87692066351E+03  0.87745795843E+03  0.14200000000E+01 0. -1.
<mgrwt>
<rscale>  0 0.30702096E+02</rscale>
<asrwt>0</asrwt>
<pdfrwt beam="1">  1       11 0.10000000E+01 0.31820856E+02</pdfrwt>
<pdfrwt beam="2">  1        4 0.35727410E-03 0.30702096E+02</pdfrwt>
<totfact> 0.34424837E+04</totfact>
</mgrwt>
</event>
<event>
 5    1  0.1490736E-003  0.3285377E+02  0.7818608E-02  0.1568530E+00
         11   -1    0    0    0    0  0.00000000000E+00  0.00000000000E+00  0.99981006710E+03  0.99981006710E+03  0.51100000000E-03 0. -1.
          4   -1    0    0  501    0 -0.00000000000E+00 -0.00000000000E+00 -0.50030530477E+01  0.52006672454E+01  0.14200000000E+01 0. -1.
         11    1    1    2    0    0 -0.21725420216E+02 -0.19445089304E+02  0.63144860166E+02  0.69551267042E+02  0.51100000000E-03 0. -1.
         22    1    1    2    0    0 -0.88366670595E+01  0.34182133781E+02  0.20603489192E+03  0.20903799090E+03  0.00000000000E+00 0. -1.
          4    1    1    2  501    0  0.30562087275E+02 -0.14737044478E+02  0.72562726197E+03  0.72642147640E+03  0.14200000000E+01 0. -1.
<mgrwt>
<rscale>  0 0.32853767E+02</rscale>
<asrwt>0</asrwt>
<pdfrwt beam="1">  1       11 0.10000000E+01 0.29156581E+02</pdfrwt>
<pdfrwt beam="2">  1        4 0.78483001E-03 0.32853767E+02</pdfrwt>
<totfact> 0.11430379E+04</totfact>
</mgrwt>
</event>
<event>
 5    1  0.1490736E-003  0.1445213E+03  0.7818608E-02  0.1213274E+00
         11   -1    0    0    0    0  0.00000000000E+00  0.00000000000E+00  0.10004293254E+04  0.10004293254E+04  0.51100000000E-03 0. -1.
         -4   -1    0    0    0  501 -0.00000000000E+00 -0.00000000000E+00 -0.22446101833E+02  0.22490973467E+02  0.14200000000E+01 0. -1.
         11    1    1    2    0    0  0.66964466898E+02  0.94580432411E+02  0.58595010787E+03  0.59729994721E+03  0.51100000000E-03 0. -1.
         22    1    1    2    0    0  0.71002238789E+01  0.24263265844E+02  0.71224122819E+02  0.75577740903E+02  0.00000000000E+00 0. -1.
         -4    1    1    2    0  501 -0.74064690777E+02 -0.11884369826E+03  0.32080899290E+03  0.35004261078E+03  0.14200000000E+01 0. -1.
<mgrwt>
<rscale>  0 0.14004078E+03</rscale>
<asrwt>0</asrwt>
<pdfrwt beam="1">  1       11 0.10000000E+01 0.14452133E+03</pdfrwt>
<pdfrwt beam="2">  1       -4 0.34582596E-02 0.14004078E+03</pdfrwt>
<totfact> 0.17282405E+03</totfact>
</mgrwt>
</event>
<event>
 5    1  0.1490736E-003  0.2025493E+03  0.7818608E-02  0.1147606E+00
         11   -1    0    0    0    0  0.00000000000E+00  0.00000000000E+00  0.10004297502E+04  0.10004297502E+04  0.51100000000E-03 0. -1.
          4   -1    0    0  501    0 -0.00000000000E+00 -0.00000000000E+00 -0.12451886828E+03  0.12452696478E+03  0.14200000000E+01 0. -1.
         11    1    1    2    0    0 -0.19728303857E+03 -0.23533377939E+02  0.79788673756E+03  0.82225158142E+03  0.51100000000E-03 0. -1.
         22    1    1    2    0    0 -0.16814495794E+01 -0.17012541997E+02  0.97247306023E+02  0.98738505086E+02  0.00000000000E+00 0. -1.
          4    1    1    2  501    0  0.19896448815E+03  0.40545919935E+02 -0.19223161700E+02  0.20396662843E+03  0.14200000000E+01 0. -1.
<mgrwt>
<rscale>  0 0.20254932E+03</rscale>
<asrwt>0</asrwt>
<pdfrwt beam="1">  1       11 0.10000000E+01 0.17095434E+02</pdfrwt>
<pdfrwt beam="2">  1        4 0.19165682E-01 0.20254932E+03</pdfrwt>
<totfact> 0.10293562E+02</totfact>
</mgrwt>
</event>
<event>
 5    1  0.1490736E-003  0.3509073E+02  0.7818608E-02  0.1573675E+00
         11   -1    0    0    0    0  0.00000000000E+00  0.00000000000E+00  0.10002393170E+04  0.10002393170E+04  0.51100000000E-03 0.  1.
          4   -1    0    0  501    0 -0.00000000000E+00 -0.00000000000E+00 -0.17305865538E+01  0.22385999688E+01  0.14200000000E+01 0.  1.
         11    1    1    2    0    0 -0.11867673072E+02  0.49010408784E+01  0.68023165694E+02  0.69224366643E+02  0.51100000000E-03 0.  1.
         22    1    1    2    0    0 -0.74999194296E+01  0.20946776117E+02  0.11529347065E+03  0.11742061401E+03  0.00000000000E+00 0.  1.
          4    1    1    2  501    0  0.19367592502E+02 -0.25847816996E+02  0.81519209414E+03  0.81583293635E+03  0.14200000000E+01 0.  1.
<mgrwt>
<rscale>  0 0.32330012E+02</rscale>
<asrwt>0</asrwt>
<pdfrwt beam="1">  1       11 0.10000000E+01 0.35090734E+02</pdfrwt>
<pdfrwt beam="2">  1        4 0.30547265E-03 0.32330012E+02</pdfrwt>
<totfact> 0.43823307E+04</totfact>
</mgrwt>
</event>
<event>
 5    1  0.1490736E-003  0.5391486E+02  0.7818608E-02  0.1425301E+00
         11   -1    0    0    0    0  0.00000000000E+00  0.00000000000E+00  0.10001839989E+04  0.10001839989E+04  0.51100000000E-03 0. -1.
          4   -1    0    0  501    0 -0.00000000000E+00 -0.00000000000E+00 -0.10727045523E+02  0.10820624088E+02  0.14200000000E+01 0. -1.
         11    1    1    2    0    0 -0.44358357054E+02  0.16038178597E+02  0.81433088224E+02  0.94107570743E+02  0.51100000000E-03 0. -1.
         22    1    1    2    0    0  0.21456462095E+02  0.48518179702E+02  0.26679000462E+03  0.27201341896E+03  0.00000000000E+00 0. -1.
          4    1    1    2  501    0  0.22901894959E+02 -0.64556358299E+02  0.64123386050E+03  0.64488363326E+03  0.14200000000E+01 0. -1.
<mgrwt>
<rscale>  0 0.53914863E+02</rscale>
<asrwt>0</asrwt>
<pdfrwt beam="1">  1       11 0.10000000E+01 0.47168732E+02</pdfrwt>
<pdfrwt beam="2">  1        4 0.16578955E-02 0.53914863E+02</pdfrwt>
<totfact> 0.43990796E+03</totfact>
</mgrwt>
</event>
<event>
 5    1  0.1490736E-003  0.7792670E+02  0.7818608E-02  0.1399287E+00
         11   -1    0    0    0    0  0.00000000000E+00  0.00000000000E+00  0.10000971834E+04  0.10000971834E+04  0.51100000000E-03 0. -1.
          4   -1    0    0  501    0 -0.00000000000E+00 -0.00000000000E+00 -0.11734366451E+02  0.11819972758E+02  0.14200000000E+01 0. -1.
         11    1    1    2    0    0  0.54300787888E+02 -0.43404965493E+02  0.34694302068E+03  0.35383898343E+03  0.51100000000E-03 0. -1.
         22    1    1    2    0    0  0.37374778243E+02  0.26227595925E+02  0.12026075434E+03  0.12863673609E+03  0.00000000000E+00 0. -1.
          4    1    1    2  501    0 -0.91675566131E+02  0.17177369568E+02  0.52115904198E+03  0.52944143669E+03  0.14200000000E+01 0. -1.
<mgrwt>
<rscale>  0 0.59654505E+02</rscale>
<asrwt>0</asrwt>
<pdfrwt beam="1">  1       11 0.10000000E+01 0.77926700E+02</pdfrwt>
<pdfrwt beam="2">  1        4 0.18121258E-02 0.59654505E+02</pdfrwt>
<totfact> 0.39464451E+03</totfact>
</mgrwt>
</event>
<event>
 5    1  0.1490736E-003  0.1247805E+03  0.7818608E-02  0.1248074E+00
         11   -1    0    0    0    0  0.00000000000E+00  0.00000000000E+00  0.10001755153E+04  0.10001755153E+04  0.51100000000E-03 0. -1.
         -4   -1    0    0    0  501 -0.00000000000E+00 -0.00000000000E+00 -0.15462034502E+02  0.15527102464E+02  0.14200000000E+01 0.  1.
         11    1    1    2    0    0 -0.15249725736E+01  0.10679479867E+03  0.34120495734E+03  0.35753080634E+03  0.51100000000E-03 0. -1.
         22    1    1    2    0    0  0.14887072540E+02  0.94636910177E+01  0.45114766107E+02  0.48440979525E+02  0.00000000000E+00 0.  1.
         -4    1    1    2    0  501 -0.13362099967E+02 -0.11625848968E+03  0.59839375731E+03  0.60973083186E+03  0.14200000000E+01 0.  1.
<mgrwt>
<rscale>  0 0.11703247E+03</rscale>
<asrwt>0</asrwt>
<pdfrwt beam="1">  1       11 0.10000000E+01 0.12478046E+03</pdfrwt>
<pdfrwt beam="2">  1       -4 0.23842756E-02 0.11703247E+03</pdfrwt>
<totfact> 0.29940573E+03</totfact>
</mgrwt>
</event>
<event>
 5    1  0.1490736E-003  0.1289120E+03  0.7818608E-02  0.1229079E+00
         11   -1    0    0    0    0  0.00000000000E+00  0.00000000000E+00  0.10000240629E+04  0.10000240629E+04  0.51100000000E-03 0. -1.
          4   -1    0    0  501    0 -0.00000000000E+00 -0.00000000000E+00 -0.23742341022E+02  0.23784767336E+02  0.14200000000E+01 0. -1.
         11    1    1    2    0    0  0.19749530165E+02 -0.33908229346E+02  0.80970203691E+02  0.89977696377E+02  0.51100000000E-03 0. -1.
         22    1    1    2    0    0 -0.26736381420E+02 -0.10788511053E+03  0.53771904962E+03  0.54908633883E+03  0.00000000000E+00 0. -1.
          4    1    1    2  501    0  0.69868512549E+01  0.14179333988E+03  0.35759246855E+03  0.38474479501E+03  0.14200000000E+01 0. -1.
<mgrwt>
<rscale>  0 0.12891203E+03</rscale>
<asrwt>0</asrwt>
<pdfrwt beam="1">  1       11 0.10000000E+01 0.39240457E+02</pdfrwt>
<pdfrwt beam="2">  1        4 0.36560968E-02 0.12891203E+03</pdfrwt>
<totfact> 0.15616006E+03</totfact>
</mgrwt>
</event>
<event>
 5    1  0.1490736E-003  0.8144480E+02  0.7818608E-02  0.1325001E+00
         11   -1    0    0    0    0  0.00000000000E+00  0.00000000000E+00  0.10000109952E+04  0.10000109952E+04  0.51100000000E-03 0. -1.
          4   -1    0    0  501    0 -0.00000000000E+00 -0.00000000000E+00 -0.11286205675E+02  0.11375185209E+02  0.14200000000E+01 0. -1.
         11    1    1    2    0    0 -0.75328318516E+02  0.16825869244E+02  0.42194526008E+03  0.42894669593E+03  0.51100000000E-03 0. -1.
         22    1    1    2    0    0 -0.10644917938E+02 -0.41868613175E+02  0.22576949354E+03  0.22986552430E+03  0.00000000000E+00 0. -1.
          4    1    1    2  501    0  0.85973236455E+02  0.25042743931E+02  0.34101003591E+03  0.35257396018E+03  0.14200000000E+01 0. -1.
<mgrwt>
<rscale>  0 0.81444803E+02</rscale>
<asrwt>0</asrwt>
<pdfrwt beam="1">  1       11 0.10000000E+01 0.43200637E+02</pdfrwt>
<pdfrwt beam="2">  1        4 0.17432806E-02 0.81444803E+02</pdfrwt>
<totfact> 0.44949084E+03</totfact>
</mgrwt>
</event>
<event>
 5    1  0.1490736E-003  0.1163642E+03  0.7818608E-02  0.1251441E+00
         11   -1    0    0    0    0  0.00000000000E+00  0.00000000000E+00  0.99990569079E+03  0.99990569079E+03  0.51100000000E-03 0. -1.
          4   -1    0    0  501    0 -0.00000000000E+00 -0.00000000000E+00 -0.59340200339E+02  0.59357188076E+02  0.14200000000E+01 0. -1.
         11    1    1    2    0    0 -0.76588940673E+02 -0.87605648516E+02  0.37513341484E+03  0.39276671755E+03  0.51100000000E-03 0. -1.
         22    1    1    2    0    0 -0.43463332733E+02  0.11103704333E+03  0.52392114457E+03  0.53731894812E+03  0.00000000000E+00 0. -1.
          4    1    1    2  501    0  0.12005227341E+03 -0.23431394814E+02  0.41510931043E+02  0.12917721320E+03  0.14200000000E+01 0. -1.
<mgrwt>
<rscale>  0 0.11508052E+03</rscale>
<asrwt>0</asrwt>
<pdfrwt beam="1">  1       11 0.10000000E+01 0.11636415E+03</pdfrwt>
<pdfrwt beam="2">  1        4 0.91297845E-02 0.11508052E+03</pdfrwt>
<totfact> 0.34862584E+02</totfact>
</mgrwt>
</event>
<event>
 5    1  0.1490736E-003  0.1776550E+03  0.7818608E-02  0.1170092E+00
         11   -1    0    0    0    0  0.00000000000E+00  0.00000000000E+00  0.10002369198E+04  0.10002369198E+04  0.51100000000E-03 0. -1.
         -4   -1    0    0    0  501 -0.00000000000E+00 -0.00000000000E+00 -0.51526362960E+02  0.51545925929E+02  0.14200000000E+01 0.  1.
         11    1    1    2    0    0 -0.10413343378E+03  0.15010404203E+03  0.73861291310E+03  0.76087057432E+03  0.51100000000E-03 0. -1.
         22    1    1    2    0    0 -0.58339444652E+01 -0.12162126335E+02  0.52990731537E+02  0.54680616802E+02  0.00000000000E+00 0. -1.
         -4    1    1    2    0  501  0.10996737824E+03 -0.13794191569E+03  0.15710691223E+03  0.23623165464E+03  0.14200000000E+01 0.  1.
<mgrwt>
<rscale>  0 0.17765495E+03</rscale>
<asrwt>0</asrwt>
<pdfrwt beam="1">  1       11 0.10000000E+01 0.13488967E+02</pdfrwt>
<pdfrwt beam="2">  1       -4 0.79305934E-02 0.17765495E+03</pdfrwt>
<totfact> 0.46676063E+02</totfact>
</mgrwt>
</event>
<event>
 5    1  0.1490736E-003  0.6983571E+02  0.7818608E-02  0.1364742E+00
         11   -1    0    0    0    0  0.00000000000E+00  0.00000000000E+00  0.99989652308E+03  0.99989652308E+03  0.51100000000E-03 0. -1.
          4   -1    0    0  501    0 -0.00000000000E+00 -0.00000000000E+00 -0.48993875111E+01  0.51010193083E+01  0.14200000000E+01 0. -1.
         11    1    1    2    0    0 -0.44108734244E+02 -0.20067194968E+02  0.27989092067E+03  0.28405492466E+03  0.51100000000E-03 0. -1.
         22    1    1    2    0    0 -0.14436857197E+02 -0.15756551027E+02  0.11980843063E+03  0.12169943220E+03  0.00000000000E+00 0.  1.
          4    1    1    2  501    0  0.58545591440E+02  0.35823745995E+02  0.59529778426E+03  0.59924318553E+03  0.14200000000E+01 0. -1.
<mgrwt>
<rscale>  0 0.68650881E+02</rscale>
<asrwt>0</asrwt>
<pdfrwt beam="1">  1       11 0.10000000E+01 0.69835712E+02</pdfrwt>
<pdfrwt beam="2">  1        4 0.76925999E-03 0.68650881E+02</pdfrwt>
<totfact> 0.14640979E+04</totfact>
</mgrwt>
</event>
<event>
 5    1  0.1490736E-003  0.1005335E+03  0.7818608E-02  0.1287134E+00
         11   -1    0    0    0    0  0.00000000000E+00  0.00000000000E+00  0.10003140150E+04  0.10003140150E+04  0.51100000000E-03 0.  1.
          4   -1    0    0  501    0 -0.00000000000E+00 -0.00000000000E+00 -0.97985295623E+01  0.99008879189E+01  0.14200000000E+01 0.  1.
         11    1    1    2    0    0  0.37711043167E+02 -0.51871743361E+02  0.33911647508E+03  0.34512720004E+03  0.51100000000E-03 0.  1.
         22    1    1    2    0    0  0.27885853891E+02 -0.19322669410E+02  0.11045269812E+03  0.11554559672E+03  0.00000000000E+00 0.  1.
          4    1    1    2  501    0 -0.65596897058E+02  0.71194412771E+02  0.54094631219E+03  0.54954210611E+03  0.14200000000E+01 0.  1.
<mgrwt>
<rscale>  0 0.96817425E+02</rscale>
<asrwt>0</asrwt>
<pdfrwt beam="1">  1       11 0.10000000E+01 0.10053350E+03</pdfrwt>
<pdfrwt beam="2">  1        4 0.15158932E-02 0.96817425E+02</pdfrwt>
<totfact> 0.57657822E+03</totfact>
</mgrwt>
</event>
<event>
 5    1  0.1490736E-003  0.1192597E+03  0.7818608E-02  0.1445373E+00
         11   -1    0    0    0    0  0.00000000000E+00  0.00000000000E+00  0.10001716916E+04  0.10001716916E+04  0.51100000000E-03 0. -1.
          4   -1    0    0  501    0 -0.00000000000E+00 -0.00000000000E+00 -0.17190092911E+02  0.17248643259E+02  0.14200000000E+01 0. -1.
         11    1    1    2    0    0 -0.24331198245E+02  0.11925781831E+03  0.41149970169E+03  0.42912287160E+03  0.51100000000E-03 0. -1.
         22    1    1    2    0    0 -0.18790671769E+02 -0.92777175744E+01  0.68880257265E+02  0.71997605723E+02  0.00000000000E+00 0. -1.
          4    1    1    2  501    0  0.43121870014E+02 -0.10998010074E+03  0.50260163972E+03  0.51629985753E+03  0.14200000000E+01 0. -1.
<mgrwt>
<rscale>  0 0.49994152E+02</rscale>
<asrwt>0</asrwt>
<pdfrwt beam="1">  1       11 0.10000000E+01 0.11925972E+03</pdfrwt>
<pdfrwt beam="2">  1        4 0.26496659E-02 0.49994152E+02</pdfrwt>
<totfact> 0.21272038E+03</totfact>
</mgrwt>
</event>
<event>
 5    1  0.1490736E-003  0.5593052E+02  0.7818608E-02  0.1435215E+00
         11   -1    0    0    0    0  0.00000000000E+00  0.00000000000E+00  0.10001409094E+04  0.10001409094E+04  0.51100000000E-03 0. -1.
         -4   -1    0    0    0  501 -0.00000000000E+00 -0.00000000000E+00 -0.40421871103E+01  0.42843525339E+01  0.14200000000E+01 0. -1.
         11    1    1    2    0    0 -0.30306306636E+02  0.44715775854E+01  0.15718665723E+03  0.16014403654E+03  0.51100000000E-03 0. -1.
         22    1    1    2    0    0 -0.21150080284E+02 -0.11303282119E+02  0.78092909142E+02  0.81692059228E+02  0.00000000000E+00 0. -1.
         -4    1    1    2    0  501  0.51456386921E+02  0.68317045333E+01  0.76081915596E+03  0.76258916620E+03  0.14200000000E+01 0. -1.
<mgrwt>
<rscale>  0 0.51927337E+02</rscale>
<asrwt>0</asrwt>
<pdfrwt beam="1">  1       11 0.10000000E+01 0.55930518E+02</pdfrwt>
<pdfrwt beam="2">  1       -4 0.64067084E-03 0.51927337E+02</pdfrwt>
<totfact> 0.17720991E+04</totfact>
</mgrwt>
</event>
<event>
 5    1  0.1490736E-003  0.1250367E+03  0.7818608E-02  0.1235012E+00
         11   -1    0    0    0    0  0.00000000000E+00  0.00000000000E+00  0.10001734003E+04  0.10001734003E+04  0.51100000000E-03 0. -1.
          4   -1    0    0  501    0 -0.00000000000E+00 -0.00000000000E+00 -0.31724178101E+02  0.31755942376E+02  0.14200000000E+01 0. -1.
         11    1    1    2    0    0  0.38179045772E+02 -0.31565202218E+02  0.23129267917E+03  0.23653816809E+03  0.51100000000E-03 0. -1.
         22    1    1    2    0    0 -0.49297761087E+02 -0.99277579859E+02  0.58043198954E+03  0.59092097746E+03  0.00000000000E+00 0. -1.
          4    1    1    2  501    0  0.11118715316E+02  0.13084278208E+03  0.15672455352E+03  0.20447019717E+03  0.14200000000E+01 0. -1.
<mgrwt>
<rscale>  0 0.12503666E+03</rscale>
<asrwt>0</asrwt>
<pdfrwt beam="1">  1       11 0.10000000E+01 0.49537880E+02</pdfrwt>
<pdfrwt beam="2">  1        4 0.48840103E-02 0.12503666E+03</pdfrwt>
<totfact> 0.98029268E+02</totfact>
</mgrwt>
</event>
<event>
 5    1  0.1490736E-003  0.5714016E+02  0.7818608E-02  0.1575032E+00
         11   -1    0    0    0    0  0.00000000000E+00  0.00000000000E+00  0.10001418521E+04  0.10001418521E+04  0.51100000000E-03 0.  1.
          4   -1    0    0  501    0 -0.00000000000E+00 -0.00000000000E+00 -0.66300889891E+01  0.67804483630E+01  0.14200000000E+01 0.  1.
         11    1    1    2    0    0 -0.16264144750E+02 -0.48137572367E+02  0.30385076707E+03  0.30806985722E+03  0.51100000000E-03 0.  1.
         22    1    1    2    0    0 -0.17694308465E+02 -0.39644709660E+01  0.22966604474E+02  0.29262100115E+02  0.00000000000E+00 0.  1.
          4    1    1    2  501    0  0.33958453215E+02  0.52102043333E+02  0.66669439159E+03  0.66959034315E+03  0.14200000000E+01 0.  1.
<mgrwt>
<rscale>  0 0.32193815E+02</rscale>
<asrwt>0</asrwt>
<pdfrwt beam="1">  1       11 0.10000000E+01 0.57140159E+02</pdfrwt>
<pdfrwt beam="2">  1        4 0.10318037E-02 0.32193815E+02</pdfrwt>
<totfact> 0.76326819E+03</totfact>
</mgrwt>
</event>
<event>
 5    1  0.1490736E-003  0.1409574E+03  0.7818608E-02  0.1646552E+00
         11   -1    0    0    0    0  0.00000000000E+00  0.00000000000E+00  0.10002671023E+04  0.10002671023E+04  0.51100000000E-03 0.  1.
          4   -1    0    0  501    0 -0.00000000000E+00 -0.00000000000E+00 -0.39774324182E+03  0.39774577661E+03  0.14200000000E+01 0.  1.
         11    1    1    2    0    0 -0.80087471340E+02  0.12270635322E+03  0.41545587422E+03  0.44053880148E+03  0.51100000000E-03 0.  1.
         22    1    1    2    0    0  0.94277609627E+02 -0.10092334166E+03  0.56348229917E+03  0.58016040028E+03  0.00000000000E+00 0.  1.
          4    1    1    2  501    0 -0.14190138288E+02 -0.21783011561E+02 -0.37641431290E+03  0.37731367716E+03  0.14200000000E+01 0.  1.
<mgrwt>
<rscale>  0 0.26036052E+02</rscale>
<asrwt>0</asrwt>
<pdfrwt beam="1">  1       11 0.10000000E+01 0.14095738E+03</pdfrwt>
<pdfrwt beam="2">  1        4 0.61207883E-01 0.26036052E+02</pdfrwt>
<totfact> 0.89966900E+00</totfact>
</mgrwt>
</event>
<event>
 5    1  0.1490736E-003  0.6561529E+02  0.7818608E-02  0.1563156E+00
         11   -1    0    0    0    0  0.00000000000E+00  0.00000000000E+00  0.10001120140E+04  0.10001120140E+04  0.51100000000E-03 0. -1.
          4   -1    0    0  501    0 -0.00000000000E+00 -0.00000000000E+00 -0.12064858156E+02  0.12148135755E+02  0.14200000000E+01 0. -1.
         11    1    1    2    0    0 -0.25823733029E+02  0.49361779917E+02  0.70128797054E+02  0.89562819744E+02  0.51100000000E-03 0. -1.
         22    1    1    2    0    0  0.75943819742E+01  0.15222245654E+02  0.66648405716E+02  0.68785182887E+02  0.00000000000E+00 0.  1.
          4    1    1    2  501    0  0.18229351055E+02 -0.64584025571E+02  0.85126995304E+03  0.85391214709E+03  0.14200000000E+01 0. -1.
<mgrwt>
<rscale>  0 0.33413706E+02</rscale>
<asrwt>0</asrwt>
<pdfrwt beam="1">  1       11 0.10000000E+01 0.65615286E+02</pdfrwt>
<pdfrwt beam="2">  1        4 0.18628241E-02 0.33413706E+02</pdfrwt>
<totfact> 0.32404970E+03</totfact>
</mgrwt>
</event>
<event>
 5    1  0.1490736E-003  0.1901827E+03  0.7818608E-02  0.1163672E+00
         11   -1    0    0    0    0  0.00000000000E+00  0.00000000000E+00  0.10002704463E+04  0.10002704463E+04  0.51100000000E-03 0.  1.
          4   -1    0    0  501    0 -0.00000000000E+00 -0.00000000000E+00 -0.12777036743E+03  0.12777825790E+03  0.14200000000E+01 0.  1.
         11    1    1    2    0    0 -0.11654107238E+02  0.16433315031E+03  0.78275345615E+03  0.79990260383E+03  0.51100000000E-03 0.  1.
         22    1    1    2    0    0  0.15513958222E+02  0.19956513350E+02  0.13581001219E+03  0.13814233506E+03  0.00000000000E+00 0. -1.
          4    1    1    2  501    0 -0.38598509845E+01 -0.18428966366E+03 -0.46063389468E+02  0.19000376531E+03  0.14200000000E+01 0.  1.
<mgrwt>
<rscale>  0 0.18433555E+03</rscale>
<asrwt>0</asrwt>
<pdfrwt beam="1">  1       11 0.10000000E+01 0.19018271E+03</pdfrwt>
<pdfrwt beam="2">  1        4 0.19662980E-01 0.18433555E+03</pdfrwt>
<totfact> 0.97439832E+01</totfact>
</mgrwt>
</event>
<event>
 5    1  0.1490736E-003  0.1091527E+03  0.7818608E-02  0.1271262E+00
         11   -1    0    0    0    0  0.00000000000E+00  0.00000000000E+00  0.99978663369E+03  0.99978663369E+03  0.51100000000E-03 0. -1.
          4   -1    0    0  501    0 -0.00000000000E+00 -0.00000000000E+00 -0.11469545141E+02  0.11557113210E+02  0.14200000000E+01 0. -1.
         11    1    1    2    0    0  0.41168291434E+02  0.72483307727E+02  0.43616168386E+03  0.44405593407E+03  0.51100000000E-03 0. -1.
         22    1    1    2    0    0  0.23952148197E+02  0.91338374535E+01  0.11775853542E+03  0.12051640989E+03  0.00000000000E+00 0. -1.
          4    1    1    2  501    0 -0.65120439631E+02 -0.81617145180E+02  0.43439686927E+03  0.44677140293E+03  0.14200000000E+01 0. -1.
<mgrwt>
<rscale>  0 0.10442244E+03</rscale>
<asrwt>0</asrwt>
<pdfrwt beam="1">  1       11 0.10000000E+01 0.10915275E+03</pdfrwt>
<pdfrwt beam="2">  1        4 0.17709810E-02 0.10442244E+03</pdfrwt>
<totfact> 0.46237619E+03</totfact>
</mgrwt>
</event>
<event>
 5    1  0.1490736E-003  0.6309250E+02  0.7818608E-02  0.1636177E+00
         11   -1    0    0    0    0  0.00000000000E+00  0.00000000000E+00  0.10001887313E+04  0.10001887313E+04  0.51100000000E-03 0.  1.
          4   -1    0    0  501    0 -0.00000000000E+00 -0.00000000000E+00 -0.13226273912E+02  0.13302282571E+02  0.14200000000E+01 0.  1.
         11    1    1    2    0    0  0.43861922981E+02 -0.58037544883E+02  0.11508083516E+03  0.13614633130E+03  0.51100000000E-03 0.  1.
         22    1    1    2    0    0 -0.35673724938E+01  0.10824035935E+02  0.18646041456E+02  0.21853163670E+02  0.00000000000E+00 0.  1.
          4    1    1    2  501    0 -0.40294550487E+02  0.47213508948E+02  0.85323558078E+03  0.85549151892E+03  0.14200000000E+01 0.  1.
<mgrwt>
<rscale>  0 0.26818486E+02</rscale>
<asrwt>0</asrwt>
<pdfrwt beam="1">  1       11 0.10000000E+01 0.63092501E+02</pdfrwt>
<pdfrwt beam="2">  1        4 0.20411208E-02 0.26818486E+02</pdfrwt>
<totfact> 0.26427862E+03</totfact>
</mgrwt>
</event>
<event>
 5    1  0.1490736E-003  0.2063937E+03  0.7818608E-02  0.1144454E+00
         11   -1    0    0    0    0  0.00000000000E+00  0.00000000000E+00  0.10001106683E+04  0.10001106683E+04  0.51100000000E-03 0. -1.
          4   -1    0    0  501    0 -0.00000000000E+00 -0.00000000000E+00 -0.48955990630E+02  0.48976580307E+02  0.14200000000E+01 0. -1.
         11    1    1    2    0    0 -0.30525841878E+02  0.19947367106E+03  0.32667979709E+03  0.38398080980E+03  0.51100000000E-03 0. -1.
         22    1    1    2    0    0 -0.35785125194E+01  0.11668369310E+02  0.65128050499E+02  0.66261750324E+02  0.00000000000E+00 0. -1.
          4    1    1    2  501    0  0.34104354397E+02 -0.21114204037E+03  0.55934683004E+03  0.59884468844E+03  0.14200000000E+01 0. -1.
<mgrwt>
<rscale>  0 0.20639369E+03</rscale>
<asrwt>0</asrwt>
<pdfrwt beam="1">  1       11 0.10000000E+01 0.12204778E+02</pdfrwt>
<pdfrwt beam="2">  1        4 0.75341857E-02 0.20639369E+03</pdfrwt>
<totfact> 0.51780371E+02</totfact>
</mgrwt>
</event>
<event>
 5    1  0.1490736E-003  0.2548567E+03  0.7818608E-02  0.1111222E+00
         11   -1    0    0    0    0  0.00000000000E+00  0.00000000000E+00  0.99988726336E+03  0.99988726336E+03  0.51100000000E-03 0. -1.
         -4   -1    0    0    0  501 -0.00000000000E+00 -0.00000000000E+00 -0.89331181017E+02  0.89342466397E+02  0.14200000000E+01 0.  1.
         11    1    1    2    0    0 -0.17728238437E+03 -0.15464322754E+03  0.67698792601E+03  0.71669813980E+03  0.51100000000E-03 0. -1.
         22    1    1    2    0    0 -0.87734565411E+01 -0.17270020441E+02  0.66042798542E+02  0.68824983726E+02  0.00000000000E+00 0.  1.
         -4    1    1    2    0  501  0.18605584091E+03  0.17191324798E+03  0.16752535780E+03  0.30370660624E+03  0.14200000000E+01 0.  1.
<mgrwt>
<rscale>  0 0.25332382E+03</rscale>
<asrwt>0</asrwt>
<pdfrwt beam="1">  1       11 0.10000000E+01 0.25485667E+03</pdfrwt>
<pdfrwt beam="2">  1       -4 0.13742654E-01 0.25332382E+03</pdfrwt>
<totfact> 0.18983741E+02</totfact>
</mgrwt>
</event>
<event>
 5    1  0.1490736E-003  0.6539909E+02  0.7818608E-02  0.1393418E+00
         11   -1    0    0    0    0  0.00000000000E+00  0.00000000000E+00  0.10004385874E+04  0.10004385874E+04  0.51100000000E-03 0.  1.
          4   -1    0    0  501    0 -0.00000000000E+00 -0.00000000000E+00 -0.55196059809E+01  0.56993376970E+01  0.14200000000E+01 0.  1.
         11    1    1    2    0    0  0.53024941361E+01 -0.50383927419E+02  0.16707563301E+03  0.17458786822E+03  0.51100000000E-03 0.  1.
         22    1    1    2    0    0 -0.83862676812E+01 -0.10586194941E+02  0.72852793466E+02  0.74094038389E+02  0.00000000000E+00 0.  1.
          4    1    1    2  501    0  0.30837735451E+01  0.60970122360E+02  0.75499055496E+03  0.75745601850E+03  0.14200000000E+01 0.  1.
<mgrwt>
<rscale>  0 0.61064571E+02</rscale>
<asrwt>0</asrwt>
<pdfrwt beam="1">  1       11 0.10000000E+01 0.65399089E+02</pdfrwt>
<pdfrwt beam="2">  1        4 0.86345170E-03 0.61064571E+02</pdfrwt>
<totfact> 0.11975058E+04</totfact>
</mgrwt>
</event>
<event>
 5    1  0.1490736E-003  0.1126780E+03  0.7818608E-02  0.1277521E+00
         11   -1    0    0    0    0  0.00000000000E+00  0.00000000000E+00  0.99989215877E+03  0.99989215877E+03  0.51100000000E-03 0. -1.
          4   -1    0    0  501    0 -0.00000000000E+00 -0.00000000000E+00 -0.12254121078E+02  0.12336121084E+02  0.14200000000E+01 0. -1.
         11    1    1    2    0    0  0.53514958444E+01 -0.74364657202E+02  0.28705465038E+03  0.29657901654E+03  0.51100000000E-03 0. -1.
         22    1    1    2    0    0 -0.27239005476E+02 -0.24564369532E+02  0.98690925515E+02  0.10528661097E+03  0.00000000000E+00 0. -1.
          4    1    1    2  501    0  0.21887509632E+02  0.98929026734E+02  0.60189246180E+03  0.61036265235E+03  0.14200000000E+01 0. -1.
<mgrwt>
<rscale>  0 0.10133130E+03</rscale>
<asrwt>0</asrwt>
<pdfrwt beam="1">  1       11 0.10000000E+01 0.11267801E+03</pdfrwt>
<pdfrwt beam="2">  1        4 0.18914306E-02 0.10133130E+03</pdfrwt>
<totfact> 0.41566040E+03</totfact>
</mgrwt>
</event>
<event>
 5    1  0.1490736E-003  0.7949220E+02  0.7818608E-02  0.1330499E+00
         11   -1    0    0    0    0  0.00000000000E+00  0.00000000000E+00  0.10008337307E+04  0.10008337307E+04  0.51100000000E-03 0.  1.
          4   -1    0    0  501    0 -0.00000000000E+00 -0.00000000000E+00 -0.17667496029E+02  0.17724469412E+02  0.14200000000E+01 0.  1.
         11    1    1    2    0    0  0.31670325144E+02  0.10469612161E+03  0.52837585482E+03  0.53957884626E+03  0.51100000000E-03 0.  1.
         22    1    1    2    0    0 -0.61238835064E+02 -0.35573630166E+02  0.27764674476E+03  0.28653689633E+03  0.00000000000E+00 0.  1.
          4    1    1    2  501    0  0.29568509920E+02 -0.69122491443E+02  0.17714363504E+03  0.19244245747E+03  0.14200000000E+01 0.  1.
<mgrwt>
<rscale>  0 0.79492197E+02</rscale>
<asrwt>0</asrwt>
<pdfrwt beam="1">  1       11 0.10000000E+01 0.70821452E+02</pdfrwt>
<pdfrwt beam="2">  1        4 0.27248062E-02 0.79492197E+02</pdfrwt>
<totfact> 0.22597927E+03</totfact>
</mgrwt>
</event>
<event>
 5    1  0.1490736E-003  0.2400987E+03  0.7818608E-02  0.1122743E+00
         11   -1    0    0    0    0  0.00000000000E+00  0.00000000000E+00  0.10001707608E+04  0.10001707608E+04  0.51100000000E-03 0.  1.
         -4   -1    0    0    0  501 -0.00000000000E+00 -0.00000000000E+00 -0.10552464296E+03  0.10553419670E+03  0.14200000000E+01 0. -1.
         11    1    1    2    0    0  0.18239615785E+03 -0.11625430669E+03  0.78436262136E+03  0.81363882897E+03  0.51100000000E-03 0.  1.
         22    1    1    2    0    0  0.20543574655E+02 -0.34622024682E+01  0.41780086287E+02  0.46686196201E+02  0.00000000000E+00 0. -1.
         -4    1    1    2    0  501 -0.20293973250E+03  0.11971650916E+03  0.68503410225E+02  0.24537993236E+03  0.14200000000E+01 0. -1.
<mgrwt>
<rscale>  0 0.23562384E+03</rscale>
<asrwt>0</asrwt>
<pdfrwt beam="1">  1       11 0.10000000E+01 0.24009868E+03</pdfrwt>
<pdfrwt beam="2">  1       -4 0.16238145E-01 0.23562384E+03</pdfrwt>
<totfact> 0.14045083E+02</totfact>
</mgrwt>
</event>
<event>
 5    1  0.2078672E-003  0.1755270E+03  0.7818608E-02  0.1173074E+00
         11   -1    0    0    0    0  0.00000000000E+00  0.00000000000E+00  0.10001377454E+04  0.10001377454E+04  0.51100000000E-03 0. -1.
          4   -1    0    0  501    0 -0.00000000000E+00 -0.00000000000E+00 -0.34521995360E+02  0.34551187587E+02  0.14200000000E+01 0. -1.
         11    1    1    2    0    0 -0.13951285218E+03  0.87694234230E+02  0.62202667664E+03  0.64348372247E+03  0.51100000000E-03 0. -1.
         22    1    1    2    0    0 -0.61020631640E+01  0.87442354435E+01  0.35323341246E+02  0.36897632243E+02  0.00000000000E+00 0. -1.
          4    1    1    2  501    0  0.14561491534E+03 -0.96438469673E+02  0.30826573220E+03  0.35430757832E+03  0.14200000000E+01 0. -1.
<mgrwt>
<rscale>  0 0.17465995E+03</rscale>
<asrwt>0</asrwt>
<pdfrwt beam="1">  1       11 0.10000000E+01 0.17552704E+03</pdfrwt>
<pdfrwt beam="2">  1        4 0.53141311E-02 0.17465995E+03</pdfrwt>
<totfact> 0.89889962E+02</totfact>
</mgrwt>
</event>
<event>
 5    1  0.1490736E-003  0.6041751E+02  0.7818608E-02  0.1554977E+00
         11   -1    0    0    0    0  0.00000000000E+00  0.00000000000E+00  0.10003299887E+04  0.10003299887E+04  0.51100000000E-03 0.  1.
          4   -1    0    0  501    0 -0.00000000000E+00 -0.00000000000E+00 -0.70556162118E+01  0.71970910880E+01  0.14200000000E+01 0.  1.
         11    1    1    2    0    0 -0.15300391321E+02  0.51549266895E+02  0.21729014520E+03  0.22384466957E+03  0.51100000000E-03 0.  1.
         22    1    1    2    0    0 -0.19342181571E+02  0.21246137005E+01  0.35810715295E+02  0.40755874438E+02  0.00000000000E+00 0. -1.
          4    1    1    2  501    0  0.34642572891E+02 -0.53673880596E+02  0.74017351198E+03  0.74292653577E+03  0.14200000000E+01 0.  1.
<mgrwt>
<rscale>  0 0.34292263E+02</rscale>
<asrwt>0</asrwt>
<pdfrwt beam="1">  1       11 0.10000000E+01 0.60417506E+02</pdfrwt>
<pdfrwt beam="2">  1        4 0.10968014E-02 0.34292263E+02</pdfrwt>
<totfact> 0.71263342E+03</totfact>
</mgrwt>
</event>
<event>
 5    1  0.1490736E-003  0.7882895E+02  0.7818608E-02  0.1332408E+00
         11   -1    0    0    0    0  0.00000000000E+00  0.00000000000E+00  0.10000936701E+04  0.10000936701E+04  0.51100000000E-03 0. -1.
          4   -1    0    0  501    0 -0.00000000000E+00 -0.00000000000E+00 -0.10264436986E+02  0.10362194103E+02  0.14200000000E+01 0. -1.
         11    1    1    2    0    0 -0.33356739625E+01 -0.76620728131E+02  0.20604435431E+03  0.21985481265E+03  0.51100000000E-03 0. -1.
         22    1    1    2    0    0  0.12313944564E+02 -0.94858722602E+01  0.78756486516E+02  0.80275769517E+02  0.00000000000E+00 0. -1.
          4    1    1    2  501    0 -0.89782706010E+01  0.86106600391E+02  0.70502839225E+03  0.71032528200E+03  0.14200000000E+01 0. -1.
<mgrwt>
<rscale>  0 0.78828950E+02</rscale>
<asrwt>0</asrwt>
<pdfrwt beam="1">  1       11 0.10000000E+01 0.15543970E+02</pdfrwt>
<pdfrwt beam="2">  1        4 0.15868901E-02 0.78828950E+02</pdfrwt>
<totfact> 0.51444967E+03</totfact>
</mgrwt>
</event>
<event>
 5    1  0.1490736E-003  0.1444631E+03  0.7818608E-02  0.1221328E+00
         11   -1    0    0    0    0  0.00000000000E+00  0.00000000000E+00  0.10003836285E+04  0.10003836285E+04  0.51100000000E-03 0. -1.
         -4   -1    0    0    0  501 -0.00000000000E+00 -0.00000000000E+00 -0.19438653921E+02  0.19490450643E+02  0.14200000000E+01 0.  1.
         11    1    1    2    0    0 -0.10882806081E+03 -0.33561748880E+02  0.38957299630E+03  0.40587813104E+03  0.51100000000E-03 0. -1.
         22    1    1    2    0    0 -0.24198928881E+02  0.15776065845E+02  0.14637851739E+03  0.14920168486E+03  0.00000000000E+00 0.  1.
         -4    1    1    2    0  501  0.13302698969E+03  0.17785683035E+02  0.44499346085E+03  0.46479426320E+03  0.14200000000E+01 0.  1.
<mgrwt>
<rscale>  0 0.13421821E+03</rscale>
<asrwt>0</asrwt>
<pdfrwt beam="1">  1       11 0.10000000E+01 0.14446306E+03</pdfrwt>
<pdfrwt beam="2">  1       -4 0.29957728E-02 0.13421821E+03</pdfrwt>
<totfact> 0.21506519E+03</totfact>
</mgrwt>
</event>
<event>
 5    1  0.1490736E-003  0.1177626E+03  0.7818608E-02  0.1251681E+00
         11   -1    0    0    0    0  0.00000000000E+00  0.00000000000E+00  0.99993540411E+03  0.99993540411E+03  0.51100000000E-03 0.  1.
         -4   -1    0    0    0  501 -0.00000000000E+00 -0.00000000000E+00 -0.14614492142E+02  0.14683316403E+02  0.14200000000E+01 0. -1.
         11    1    1    2    0    0  0.96644081532E+02  0.41279832983E+02  0.57375212738E+03  0.58329718564E+03  0.51100000000E-03 0.  1.
         22    1    1    2    0    0  0.12033088118E+02 -0.38757693378E+01  0.64099065443E+02  0.65333811983E+02  0.00000000000E+00 0. -1.
         -4    1    1    2    0  501 -0.10867716965E+03 -0.37404063645E+02  0.34746971914E+03  0.36598772288E+03  0.14200000000E+01 0. -1.
<mgrwt>
<rscale>  0 0.11494263E+03</rscale>
<asrwt>0</asrwt>
<pdfrwt beam="1">  1       11 0.10000000E+01 0.11776259E+03</pdfrwt>
<pdfrwt beam="2">  1       -4 0.22536095E-02 0.11494263E+03</pdfrwt>
<totfact> 0.32554360E+03</totfact>
</mgrwt>
</event>
<event>
 5    1  0.1490736E-003  0.1102369E+03  0.7818608E-02  0.1271882E+00
         11   -1    0    0    0    0  0.00000000000E+00  0.00000000000E+00  0.10001366303E+04  0.10001366303E+04  0.51100000000E-03 0. -1.
          4   -1    0    0  501    0 -0.00000000000E+00 -0.00000000000E+00 -0.15473665828E+02  0.15538685085E+02  0.14200000000E+01 0. -1.
         11    1    1    2    0    0  0.48444768970E+02 -0.54974601044E+02  0.13038221604E+03  0.14956144109E+03  0.51100000000E-03 0. -1.
         22    1    1    2    0    0  0.29097671689E+02 -0.14481378882E+02  0.11381288884E+03  0.11836282566E+03  0.00000000000E+00 0. -1.
          4    1    1    2  501    0 -0.77542440659E+02  0.69455979926E+02  0.74046785960E+03  0.74775104865E+03  0.14200000000E+01 0. -1.
<mgrwt>
<rscale>  0 0.10411042E+03</rscale>
<asrwt>0</asrwt>
<pdfrwt beam="1">  1       11 0.10000000E+01 0.11023685E+03</pdfrwt>
<pdfrwt beam="2">  1        4 0.23859689E-02 0.10411042E+03</pdfrwt>
<totfact> 0.29255933E+03</totfact>
</mgrwt>
</event>
<event>
 5    1  0.1490736E-003  0.1483444E+03  0.7818608E-02  0.1202522E+00
         11   -1    0    0    0    0  0.00000000000E+00  0.00000000000E+00  0.10000596484E+04  0.10000596484E+04  0.51100000000E-03 0.  1.
         -4   -1    0    0    0  501 -0.00000000000E+00 -0.00000000000E+00 -0.16371243008E+03  0.16371858832E+03  0.14200000000E+01 0. -1.
         11    1    1    2    0    0 -0.70176514910E+02 -0.32006116114E+02  0.33804347235E+03  0.34673119836E+03  0.51100000000E-03 0.  1.
         22    1    1    2    0    0 -0.72030268802E+02  0.83984811920E+02  0.61563121254E+03  0.62549468272E+03  0.00000000000E+00 0.  1.
         -4    1    1    2    0  501  0.14220678371E+03 -0.51978695806E+02 -0.11732746655E+03  0.19155235566E+03  0.14200000000E+01 0. -1.
<mgrwt>
<rscale>  0 0.14834436E+03</rscale>
<asrwt>0</asrwt>
<pdfrwt beam="1">  1       11 0.10000000E+01 0.77130634E+02</pdfrwt>
<pdfrwt beam="2">  1       -4 0.25188581E-01 0.14834436E+03</pdfrwt>
<totfact> 0.60731022E+01</totfact>
</mgrwt>
</event>
<event>
 5    1  0.1490736E-003  0.1935926E+03  0.7818608E-02  0.1155260E+00
         11   -1    0    0    0    0  0.00000000000E+00  0.00000000000E+00  0.10000885578E+04  0.10000885578E+04  0.51100000000E-03 0. -1.
          4   -1    0    0  501    0 -0.00000000000E+00 -0.00000000000E+00 -0.24450862992E+03  0.24451275325E+03  0.14200000000E+01 0.  1.
         11    1    1    2    0    0  0.14168533204E+03 -0.12357939048E+03  0.86306344710E+03  0.88330352246E+03  0.51100000000E-03 0. -1.
         22    1    1    2    0    0  0.13271701800E+02  0.70787720440E+01  0.86053756276E+02  0.87358434347E+02  0.00000000000E+00 0. -1.
          4    1    1    2  501    0 -0.15495703384E+03  0.11650061844E+03 -0.19353727546E+03  0.27393935428E+03  0.14200000000E+01 0.  1.
<mgrwt>
<rscale>  0 0.19359261E+03</rscale>
<asrwt>0</asrwt>
<pdfrwt beam="1">  1       11 0.10000000E+01 0.15041512E+02</pdfrwt>
<pdfrwt beam="2">  1        4 0.37620437E-01 0.19359261E+03</pdfrwt>
<totfact> 0.28873781E+01</totfact>
</mgrwt>
</event>
<event>
 5    1  0.1490736E-003  0.3840546E+02  0.7818608E-02  0.1531438E+00
         11   -1    0    0    0    0  0.00000000000E+00  0.00000000000E+00  0.10000234512E+04  0.10000234512E+04  0.51100000000E-03 0. -1.
          4   -1    0    0  501    0 -0.00000000000E+00 -0.00000000000E+00 -0.21458181469E+01  0.25731178596E+01  0.14200000000E+01 0. -1.
         11    1    1    2    0    0 -0.24711266106E+02 -0.84248075217E+01  0.12217327109E+03  0.12493171024E+03  0.51100000000E-03 0. -1.
         22    1    1    2    0    0 -0.76131855375E+01 -0.95444417295E+01  0.66297774104E+02  0.67412549374E+02  0.00000000000E+00 0. -1.
          4    1    1    2  501    0  0.32324451643E+02  0.17969249251E+02  0.80940658784E+03  0.81025230943E+03  0.14200000000E+01 0. -1.
<mgrwt>
<rscale>  0 0.37010546E+02</rscale>
<asrwt>0</asrwt>
<pdfrwt beam="1">  1       11 0.10000000E+01 0.38405460E+02</pdfrwt>
<pdfrwt beam="2">  1        4 0.36308113E-03 0.37010546E+02</pdfrwt>
<totfact> 0.36020136E+04</totfact>
</mgrwt>
</event>
<event>
 5    1  0.1490736E-003  0.1045581E+03  0.7818608E-02  0.1499150E+00
         11   -1    0    0    0    0  0.00000000000E+00  0.00000000000E+00  0.10000936956E+04  0.10000936956E+04  0.51100000000E-03 0.  1.
         -4   -1    0    0    0  501 -0.00000000000E+00 -0.00000000000E+00 -0.43394484997E+02  0.43417712148E+02  0.14200000000E+01 0. -1.
         11    1    1    2    0    0 -0.43549913283E+02  0.70016700830E+02  0.26323896936E+03  0.27585084436E+03  0.51100000000E-03 0.  1.
         22    1    1    2    0    0  0.58288814349E+02 -0.10852646034E+03  0.71189218175E+03  0.72247218418E+03  0.00000000000E+00 0.  1.
         -4    1    1    2    0  501 -0.14738901066E+02  0.38509759512E+02 -0.18431940529E+02  0.45188379192E+02  0.14200000000E+01 0. -1.
<mgrwt>
<rscale>  0 0.41258371E+02</rscale>
<asrwt>0</asrwt>
<pdfrwt beam="1">  1       11 0.10000000E+01 0.10455814E+03</pdfrwt>
<pdfrwt beam="2">  1       -4 0.66785644E-02 0.41258371E+02</pdfrwt>
<totfact> 0.48419783E+02</totfact>
</mgrwt>
</event>
<event>
 5    1  0.1490736E-003  0.5801146E+02  0.7818608E-02  0.1406371E+00
         11   -1    0    0    0    0  0.00000000000E+00  0.00000000000E+00  0.10003891997E+04  0.10003891997E+04  0.51100000000E-03 0.  1.
          4   -1    0    0  501    0 -0.00000000000E+00 -0.00000000000E+00 -0.19221493727E+02  0.19273874055E+02  0.14200000000E+01 0.  1.
         11    1    1    2    0    0  0.75346110997E+00  0.21756638501E+02  0.27307749096E+01  0.21940286105E+02  0.51100000000E-03 0.  1.
         22    1    1    2    0    0 -0.42313402984E+02  0.37593048155E+02  0.89890016893E+02  0.10622559239E+03  0.00000000000E+00 0.  1.
          4    1    1    2  501    0  0.41559941874E+02 -0.59349686655E+02  0.88854691419E+03  0.89149719528E+03  0.14200000000E+01 0.  1.
<mgrwt>
<rscale>  0 0.58011458E+02</rscale>
<asrwt>0</asrwt>
<pdfrwt beam="1">  1       11 0.10000000E+01 0.21769692E+02</pdfrwt>
<pdfrwt beam="2">  1        4 0.29624121E-02 0.58011458E+02</pdfrwt>
<totfact> 0.18570464E+03</totfact>
</mgrwt>
</event>
<event>
 5    1  0.1490736E-003  0.2569140E+03  0.7818608E-02  0.1109858E+00
         11   -1    0    0    0    0  0.00000000000E+00  0.00000000000E+00  0.10001993656E+04  0.10001993656E+04  0.51100000000E-03 0.  1.
          4   -1    0    0  501    0 -0.00000000000E+00 -0.00000000000E+00 -0.65863965830E+02  0.65879271359E+02  0.14200000000E+01 0.  1.
         11    1    1    2    0    0 -0.23518886948E+03  0.43845133330E+02  0.39512567991E+03  0.46190962641E+03  0.51100000000E-03 0.  1.
         22    1    1    2    0    0 -0.15379002136E+02  0.62523072329E+01  0.41442847224E+02  0.44644312499E+02  0.00000000000E+00 0. -1.
          4    1    1    2  501    0  0.25056787162E+03 -0.50097440563E+02  0.49776687267E+03  0.55952469809E+03  0.14200000000E+01 0.  1.
<mgrwt>
<rscale>  0 0.25553088E+03</rscale>
<asrwt>0</asrwt>
<pdfrwt beam="1">  1       11 0.10000000E+01 0.25691402E+03</pdfrwt>
<pdfrwt beam="2">  1        4 0.10136193E-01 0.25553088E+03</pdfrwt>
<totfact> 0.32168680E+02</totfact>
</mgrwt>
</event>
<event>
 5    1  0.1490736E-003  0.8012932E+02  0.7818608E-02  0.1331808E+00
         11   -1    0    0    0    0  0.00000000000E+00  0.00000000000E+00  0.10004329998E+04  0.10004329998E+04  0.51100000000E-03 0.  1.
          4   -1    0    0  501    0 -0.00000000000E+00 -0.00000000000E+00 -0.84486160597E+01  0.85671181458E+01  0.14200000000E+01 0.  1.
         11    1    1    2    0    0 -0.20698494339E+02  0.64247608763E+02  0.22060345088E+03  0.23069907985E+03  0.51100000000E-03 0.  1.
         22    1    1    2    0    0 -0.38250004056E+01  0.10874680729E+02  0.22695689417E+02  0.25455522528E+02  0.00000000000E+00 0. -1.
          4    1    1    2  501    0  0.24523494744E+02 -0.75122289492E+02  0.74868524348E+03  0.75284551561E+03  0.14200000000E+01 0.  1.
<mgrwt>
<rscale>  0 0.79036552E+02</rscale>
<asrwt>0</asrwt>
<pdfrwt beam="1">  1       11 0.10000000E+01 0.80129325E+02</pdfrwt>
<pdfrwt beam="2">  1        4 0.13095469E-02 0.79036552E+02</pdfrwt>
<totfact> 0.68733319E+03</totfact>
</mgrwt>
</event>
<event>
 5    1  0.1490736E-003  0.7949738E+02  0.7818608E-02  0.1330484E+00
         11   -1    0    0    0    0  0.00000000000E+00  0.00000000000E+00  0.10003089297E+04  0.10003089297E+04  0.51100000000E-03 0. -1.
          4   -1    0    0  501    0 -0.00000000000E+00 -0.00000000000E+00 -0.23866037388E+02  0.23908244197E+02  0.14200000000E+01 0. -1.
         11    1    1    2    0    0 -0.38429925664E+02  0.66874312689E+02  0.70292814141E+02  0.10435570231E+03  0.51100000000E-03 0. -1.
         22    1    1    2    0    0 -0.43837746085E+02  0.11324418278E+00  0.14904877164E+03  0.15536182650E+03  0.00000000000E+00 0. -1.
          4    1    1    2  501    0  0.82267671749E+02 -0.66987556872E+02  0.75710130654E+03  0.76449964510E+03  0.14200000000E+01 0. -1.
<mgrwt>
<rscale>  0 0.79497380E+02</rscale>
<asrwt>0</asrwt>
<pdfrwt beam="1">  1       11 0.10000000E+01 0.43837892E+02</pdfrwt>
<pdfrwt beam="2">  1        4 0.36761575E-02 0.79497380E+02</pdfrwt>
<totfact> 0.14198005E+03</totfact>
</mgrwt>
</event>
<event>
 5    1  0.1490736E-003  0.1255640E+03  0.7818608E-02  0.1237388E+00
         11   -1    0    0    0    0  0.00000000000E+00  0.00000000000E+00  0.10003752692E+04  0.10003752692E+04  0.51100000000E-03 0. -1.
         -4   -1    0    0    0  501 -0.00000000000E+00 -0.00000000000E+00 -0.18484129043E+02  0.18538592894E+02  0.14200000000E+01 0.  1.
         11    1    1    2    0    0 -0.10326576156E+03 -0.14952693159E+02  0.60351427182E+03  0.61246785779E+03  0.51100000000E-03 0. -1.
         22    1    1    2    0    0 -0.17417823935E+02 -0.11365790691E+02  0.96079389057E+02  0.98304683460E+02  0.00000000000E+00 0. -1.
         -4    1    1    2    0  501  0.12068358549E+03  0.26318483850E+02  0.28229747929E+03  0.30814132085E+03  0.14200000000E+01 0.  1.
<mgrwt>
<rscale>  0 0.12352816E+03</rscale>
<asrwt>0</asrwt>
<pdfrwt beam="1">  1       11 0.10000000E+01 0.12556399E+03</pdfrwt>
<pdfrwt beam="2">  1       -4 0.28490479E-02 0.12352816E+03</pdfrwt>
<totfact> 0.22929151E+03</totfact>
</mgrwt>
</event>
<event>
 5    1  0.1490736E-003  0.1239875E+03  0.7818608E-02  0.1246022E+00
         11   -1    0    0    0    0  0.00000000000E+00  0.00000000000E+00  0.10000210936E+04  0.10000210936E+04  0.51100000000E-03 0.  1.
          4   -1    0    0  501    0 -0.00000000000E+00 -0.00000000000E+00 -0.16086275745E+02  0.16148828668E+02  0.14200000000E+01 0.  1.
         11    1    1    2    0    0  0.88695163599E+02 -0.38131140583E+02  0.54253459734E+03  0.55105771498E+03  0.51100000000E-03 0.  1.
         22    1    1    2    0    0  0.25522244527E+02  0.75692921140E+01  0.11236715239E+03  0.11547751333E+03  0.00000000000E+00 0. -1.
          4    1    1    2  501    0 -0.11421740813E+03  0.30561848469E+02  0.32903306817E+03  0.34963469400E+03  0.14200000000E+01 0.  1.
<mgrwt>
<rscale>  0 0.11824407E+03</rscale>
<asrwt>0</asrwt>
<pdfrwt beam="1">  1       11 0.10000000E+01 0.12398753E+03</pdfrwt>
<pdfrwt beam="2">  1        4 0.24797532E-02 0.11824407E+03</pdfrwt>
<totfact> 0.28228589E+03</totfact>
</mgrwt>
</event>
<event>
 5    1  0.1490736E-003  0.9329177E+02  0.7818608E-02  0.1302048E+00
         11   -1    0    0    0    0  0.00000000000E+00  0.00000000000E+00  0.10003255170E+04  0.10003255170E+04  0.51100000000E-03 0. -1.
          4   -1    0    0  501    0 -0.00000000000E+00 -0.00000000000E+00 -0.83734146969E+01  0.84929661300E+01  0.14200000000E+01 0. -1.
         11    1    1    2    0    0 -0.30586337337E+02  0.66025418630E+02  0.38017580931E+03  0.38707689924E+03  0.51100000000E-03 0. -1.
         22    1    1    2    0    0 -0.17775408139E+02  0.10257971033E+02  0.10932481820E+03  0.11123446849E+03  0.00000000000E+00 0.  1.
          4    1    1    2  501    0  0.48361745475E+02 -0.76283389662E+02  0.50245147475E+03  0.51050711537E+03  0.14200000000E+01 0. -1.
<mgrwt>
<rscale>  0 0.90332886E+02</rscale>
<asrwt>0</asrwt>
<pdfrwt beam="1">  1       11 0.10000000E+01 0.93291773E+02</pdfrwt>
<pdfrwt beam="2">  1        4 0.12979138E-02 0.90332886E+02</pdfrwt>
<totfact> 0.71802515E+03</totfact>
</mgrwt>
</event>
<event>
 5    1  0.1490736E-003  0.1096227E+03  0.7818608E-02  0.1274598E+00
         11   -1    0    0    0    0  0.00000000000E+00  0.00000000000E+00  0.10003415228E+04  0.10003415228E+04  0.51100000000E-03 0. -1.
          4   -1    0    0  501    0 -0.00000000000E+00 -0.00000000000E+00 -0.12570771457E+02  0.12650719151E+02  0.14200000000E+01 0. -1.
         11    1    1    2    0    0  0.16826589402E+02 -0.44478252005E+02  0.10633873496E+03  0.11648766272E+03  0.51100000000E-03 0. -1.
         22    1    1    2    0    0 -0.46108417678E+01 -0.57542798514E+02  0.23687879473E+03  0.24381139620E+03  0.00000000000E+00 0. -1.
          4    1    1    2  501    0 -0.12215747634E+02  0.10202105052E+03  0.64455322166E+03  0.65269318304E+03  0.14200000000E+01 0. -1.
<mgrwt>
<rscale>  0 0.10275960E+03</rscale>
<asrwt>0</asrwt>
<pdfrwt beam="1">  1       11 0.10000000E+01 0.10962271E+03</pdfrwt>
<pdfrwt beam="2">  1        4 0.19408548E-02 0.10275960E+03</pdfrwt>
<totfact> 0.40071509E+03</totfact>
</mgrwt>
</event>
<event>
 5    1  0.1490736E-003  0.1856918E+03  0.7818608E-02  0.1162405E+00
         11   -1    0    0    0    0  0.00000000000E+00  0.00000000000E+00  0.99988588208E+03  0.99988588208E+03  0.51100000000E-03 0. -1.
          4   -1    0    0  501    0 -0.00000000000E+00 -0.00000000000E+00 -0.68914522376E+02  0.68929150541E+02  0.14200000000E+01 0. -1.
         11    1    1    2    0    0 -0.75498998731E+02  0.33304639642E+02  0.10077311517E+03  0.13024791197E+03  0.51100000000E-03 0. -1.
         22    1    1    2    0    0 -0.25963759863E+02  0.14119477049E+03  0.65726635978E+03  0.67276232634E+03  0.00000000000E+00 0.  1.
          4    1    1    2  501    0  0.10146275859E+03 -0.17449941013E+03  0.17293188475E+03  0.26580479432E+03  0.14200000000E+01 0. -1.
<mgrwt>
<rscale>  0 0.18569176E+03</rscale>
<asrwt>0</asrwt>
<pdfrwt beam="1">  1       11 0.10000000E+01 0.82518511E+02</pdfrwt>
<pdfrwt beam="2">  1        4 0.10602227E-01 0.18569176E+03</pdfrwt>
<totfact> 0.28779918E+02</totfact>
</mgrwt>
</event>
<event>
 5    1  0.1490736E-003  0.1978939E+03  0.7818608E-02  0.1151528E+00
         11   -1    0    0    0    0  0.00000000000E+00  0.00000000000E+00  0.10001900575E+04  0.10001900575E+04  0.51100000000E-03 0. -1.
         -4   -1    0    0    0  501 -0.00000000000E+00 -0.00000000000E+00 -0.68107864752E+02  0.68122666133E+02  0.14200000000E+01 0.  1.
         11    1    1    2    0    0  0.46523744758E+02 -0.39282499266E+02  0.83162215454E+02  0.10307049847E+03  0.51100000000E-03 0. -1.
         22    1    1    2    0    0  0.98246022825E+02 -0.11717427301E+03  0.66913470567E+03  0.68638425505E+03  0.00000000000E+00 0. -1.
         -4    1    1    2    0  501 -0.14476976758E+03  0.15645677228E+03  0.17978527161E+03  0.27885797010E+03  0.14200000000E+01 0.  1.
<mgrwt>
<rscale>  0 0.19789391E+03</rscale>
<asrwt>0</asrwt>
<pdfrwt beam="1">  1       11 0.10000000E+01 0.60889878E+02</pdfrwt>
<pdfrwt beam="2">  1       -4 0.10481341E-01 0.19789391E+03</pdfrwt>
<totfact> 0.29559570E+02</totfact>
</mgrwt>
</event>
<event>
 5    1  0.1490736E-003  0.2146937E+03  0.7818608E-02  0.1147191E+00
         11   -1    0    0    0    0  0.00000000000E+00  0.00000000000E+00  0.10000777199E+04  0.10000777199E+04  0.51100000000E-03 0.  1.
          4   -1    0    0  501    0 -0.00000000000E+00 -0.00000000000E+00 -0.73491439869E+02  0.73505157193E+02  0.14200000000E+01 0.  1.
         11    1    1    2    0    0  0.78114976159E+02  0.16277866052E+03  0.69670419496E+03  0.71971909597E+03  0.51100000000E-03 0.  1.
         22    1    1    2    0    0 -0.15309052792E+02  0.30309132450E+02  0.11640322517E+03  0.12125477903E+03  0.00000000000E+00 0.  1.
          4    1    1    2  501    0 -0.62805923368E+02 -0.19308779297E+03  0.11347885987E+03  0.23260900207E+03  0.14200000000E+01 0.  1.
<mgrwt>
<rscale>  0 0.20305048E+03</rscale>
<asrwt>0</asrwt>
<pdfrwt beam="1">  1       11 0.10000000E+01 0.21469369E+03</pdfrwt>
<pdfrwt beam="2">  1        4 0.11308387E-01 0.20305048E+03</pdfrwt>
<totfact> 0.26032007E+02</totfact>
</mgrwt>
</event>
<event>
 5    1  0.1490736E-003  0.2768175E+02  0.7818608E-02  0.1625225E+00
         11   -1    0    0    0    0  0.00000000000E+00  0.00000000000E+00  0.10001287918E+04  0.10001287918E+04  0.51100000000E-03 0.  1.
          4   -1    0    0  501    0 -0.00000000000E+00 -0.00000000000E+00 -0.36045249764E+01  0.38741451064E+01  0.14200000000E+01 0.  1.
         11    1    1    2    0    0  0.12491419179E+02  0.11588125070E+02  0.34150616319E+02  0.38165230131E+02  0.51100000000E-03 0.  1.
         22    1    1    2    0    0  0.38326459639E+01  0.25484191539E+02  0.13297095906E+03  0.13544522563E+03  0.00000000000E+00 0.  1.
          4    1    1    2  501    0 -0.16324065143E+02 -0.37072316609E+02  0.82940269145E+03  0.83039248115E+03  0.14200000000E+01 0.  1.
<mgrwt>
<rscale>  0 0.27681752E+02</rscale>
<asrwt>0</asrwt>
<pdfrwt beam="1">  1       11 0.10000000E+01 0.17038794E+02</pdfrwt>
<pdfrwt beam="2">  1        4 0.57543394E-03 0.27681752E+02</pdfrwt>
<totfact> 0.16801860E+04</totfact>
</mgrwt>
</event>
<event>
 5    1  0.1490736E-003  0.8362524E+02  0.7818608E-02  0.1324064E+00
         11   -1    0    0    0    0  0.00000000000E+00  0.00000000000E+00  0.10002536660E+04  0.10002536660E+04  0.51100000000E-03 0. -1.
          4   -1    0    0  501    0 -0.00000000000E+00 -0.00000000000E+00 -0.75269213795E+01  0.76596961724E+01  0.14200000000E+01 0. -1.
         11    1    1    2    0    0 -0.19750059238E+02 -0.44317596508E+02  0.19056916823E+03  0.19664872763E+03  0.51100000000E-03 0. -1.
         22    1    1    2    0    0 -0.25978172284E+02 -0.23472768065E+02  0.15182189989E+03  0.15580669293E+03  0.00000000000E+00 0. -1.
          4    1    1    2  501    0  0.45728231522E+02  0.67790364573E+02  0.65033567654E+03  0.65545794165E+03  0.14200000000E+01 0. -1.
<mgrwt>
<rscale>  0 0.81783990E+02</rscale>
<asrwt>0</asrwt>
<pdfrwt beam="1">  1       11 0.10000000E+01 0.83625235E+02</pdfrwt>
<pdfrwt beam="2">  1        4 0.11685752E-02 0.81783990E+02</pdfrwt>
<totfact> 0.82169957E+03</totfact>
</mgrwt>
</event>
<event>
 5    1  0.1490736E-003  0.7780872E+02  0.7818608E-02  0.1357943E+00
         11   -1    0    0    0    0  0.00000000000E+00  0.00000000000E+00  0.10001573780E+04  0.10001573780E+04  0.51100000000E-03 0.  1.
          4   -1    0    0  501    0 -0.00000000000E+00 -0.00000000000E+00 -0.13250708650E+02  0.13326577945E+02  0.14200000000E+01 0.  1.
         11    1    1    2    0    0  0.17960561490E+02  0.30799001241E+02  0.83046196928E+02  0.90376053637E+02  0.51100000000E-03 0.  1.
         22    1    1    2    0    0  0.36334786316E+01  0.36440427917E+02  0.32722260043E+02  0.49110622640E+02  0.00000000000E+00 0.  1.
          4    1    1    2  501    0 -0.21594040122E+02 -0.67239429158E+02  0.87113821240E+03  0.87399727969E+03  0.14200000000E+01 0.  1.
<mgrwt>
<rscale>  0 0.70636108E+02</rscale>
<asrwt>0</asrwt>
<pdfrwt beam="1">  1       11 0.10000000E+01 0.77808722E+02</pdfrwt>
<pdfrwt beam="2">  1        4 0.20448059E-02 0.70636108E+02</pdfrwt>
<totfact> 0.34189155E+03</totfact>
</mgrwt>
</event>
<event>
 5    1  0.1490736E-003  0.5913082E+02  0.7818608E-02  0.1408955E+00
         11   -1    0    0    0    0  0.00000000000E+00  0.00000000000E+00  0.10000175879E+04  0.10000175879E+04  0.51100000000E-03 0. -1.
         -4   -1    0    0    0  501 -0.00000000000E+00 -0.00000000000E+00 -0.13752101035E+02  0.13825219090E+02  0.14200000000E+01 0. -1.
         11    1    1    2    0    0  0.21852677823E+02 -0.27701849661E+02  0.41878260367E+02  0.54760576095E+02  0.51100000000E-03 0. -1.
         22    1    1    2    0    0  0.10065685896E+02 -0.20017618402E+02  0.12955478976E+02  0.25881798905E+02  0.00000000000E+00 0. -1.
         -4    1    1    2    0  501 -0.31918363719E+02  0.47719468063E+02  0.93143174748E+03  0.93320043195E+03  0.14200000000E+01 0. -1.
<mgrwt>
<rscale>  0 0.57427746E+02</rscale>
<asrwt>0</asrwt>
<pdfrwt beam="1">  1       11 0.10000000E+01 0.59130818E+02</pdfrwt>
<pdfrwt beam="2">  1       -4 0.21214471E-02 0.57427746E+02</pdfrwt>
<totfact> 0.30821361E+03</totfact>
</mgrwt>
</event>
<event>
 5    1  0.1490736E-003  0.8842156E+02  0.7818608E-02  0.1320509E+00
         11   -1    0    0    0    0  0.00000000000E+00  0.00000000000E+00  0.10002619379E+04  0.10002619379E+04  0.51100000000E-03 0. -1.
          4   -1    0    0  501    0 -0.00000000000E+00 -0.00000000000E+00 -0.87363917264E+01  0.88510417690E+01  0.14200000000E+01 0. -1.
         11    1    1    2    0    0  0.89261073308E+01  0.55348350477E+02  0.16620667093E+03  0.17540744783E+03  0.51100000000E-03 0. -1.
         22    1    1    2    0    0 -0.13579070479E+02  0.27597321156E+02  0.13819755273E+03  0.14157883624E+03  0.00000000000E+00 0. -1.
          4    1    1    2  501    0  0.46529631483E+01 -0.82945671634E+02  0.68712132251E+03  0.69212669560E+03  0.14200000000E+01 0. -1.
<mgrwt>
<rscale>  0 0.83088212E+02</rscale>
<asrwt>0</asrwt>
<pdfrwt beam="1">  1       11 0.10000000E+01 0.88421564E+02</pdfrwt>
<pdfrwt beam="2">  1        4 0.13533114E-02 0.83088212E+02</pdfrwt>
<totfact> 0.66172158E+03</totfact>
</mgrwt>
</event>
<event>
 5    1  0.1490736E-003  0.5112481E+03  0.7818608E-02  0.1019530E+00
         11   -1    0    0    0    0  0.00000000000E+00  0.00000000000E+00  0.10001723299E+04  0.10001723299E+04  0.51100000000E-03 0. -1.
         -4   -1    0    0    0  501 -0.00000000000E+00 -0.00000000000E+00 -0.29029385990E+03  0.29029733292E+03  0.14200000000E+01 0.  1.
         11    1    1    2    0    0 -0.10904935195E+03  0.17348171921E+03  0.13584613076E+03  0.24584922067E+03  0.51100000000E-03 0. -1.
         22    1    1    2    0    0 -0.19815531571E+03  0.19346439261E+03  0.48404322320E+03  0.55766642563E+03  0.00000000000E+00 0. -1.
         -4    1    1    2    0  501  0.30720466766E+03 -0.36694611182E+03  0.89989116069E+02  0.48695401654E+03  0.14200000000E+01 0.  1.
<mgrwt>
<rscale>  0 0.47856679E+03</rscale>
<asrwt>0</asrwt>
<pdfrwt beam="1">  1       11 0.10000000E+01 0.51124806E+03</pdfrwt>
<pdfrwt beam="2">  1       -4 0.44668634E-01 0.47856679E+03</pdfrwt>
<totfact> 0.21449199E+01</totfact>
</mgrwt>
</event>
<event>
 5    1  0.1490736E-003  0.5361960E+02  0.7818608E-02  0.1454897E+00
         11   -1    0    0    0    0  0.00000000000E+00  0.00000000000E+00  0.10003469991E+04  0.10003469991E+04  0.51100000000E-03 0. -1.
          4   -1    0    0  501    0 -0.00000000000E+00 -0.00000000000E+00 -0.57491575041E+01  0.59219263763E+01  0.14200000000E+01 0. -1.
         11    1    1    2    0    0 -0.65696396387E+01  0.35132085081E+02  0.72006900607E+02  0.80389161598E+02  0.51100000000E-03 0. -1.
         22    1    1    2    0    0 -0.12713786355E+02  0.90969948170E+01  0.62154807797E+02  0.64090684272E+02  0.00000000000E+00 0. -1.
          4    1    1    2  501    0  0.19283425994E+02 -0.44229079898E+02  0.86043613324E+03  0.86178907965E+03  0.14200000000E+01 0. -1.
<mgrwt>
<rscale>  0 0.48270886E+02</rscale>
<asrwt>0</asrwt>
<pdfrwt beam="1">  1       11 0.10000000E+01 0.53619603E+02</pdfrwt>
<pdfrwt beam="2">  1        4 0.89816474E-03 0.48270886E+02</pdfrwt>
<totfact> 0.10588027E+04</totfact>
</mgrwt>
</event>
<event>
 5    1  0.1490736E-003  0.6026299E+02  0.7818608E-02  0.1417995E+00
         11   -1    0    0    0    0  0.00000000000E+00  0.00000000000E+00  0.10004035068E+04  0.10004035068E+04  0.51100000000E-03 0. -1.
          4   -1    0    0  501    0 -0.00000000000E+00 -0.00000000000E+00 -0.83961574328E+01  0.85153895763E+01  0.14200000000E+01 0. -1.
         11    1    1    2    0    0 -0.34158452197E+02  0.17122729775E+02  0.81056616603E+02  0.89611175792E+02  0.51100000000E-03 0. -1.
         22    1    1    2    0    0 -0.20268864776E+02 -0.66311961234E+01  0.31088178724E+02  0.37699794399E+02  0.00000000000E+00 0. -1.
          4    1    1    2  501    0  0.54427316973E+02 -0.10491533652E+02  0.87986255404E+03  0.88160792618E+03  0.14200000000E+01 0. -1.
<mgrwt>
<rscale>  0 0.55447466E+02</rscale>
<asrwt>0</asrwt>
<pdfrwt beam="1">  1       11 0.10000000E+01 0.60262990E+02</pdfrwt>
<pdfrwt beam="2">  1        4 0.13014907E-02 0.55447466E+02</pdfrwt>
<totfact> 0.63591834E+03</totfact>
</mgrwt>
</event>
<event>
 5    1  0.1622584E-003  0.2205673E+03  0.7818608E-02  0.1136227E+00
         11   -1    0    0    0    0  0.00000000000E+00  0.00000000000E+00  0.10002621326E+04  0.10002621326E+04  0.51100000000E-03 0. -1.
         -4   -1    0    0    0  501 -0.00000000000E+00 -0.00000000000E+00 -0.10483044474E+03  0.10484006174E+03  0.14200000000E+01 0.  1.
         11    1    1    2    0    0 -0.20681150416E+03  0.29438660978E+01  0.82678065510E+03  0.85225930106E+03  0.51100000000E-03 0. -1.
         22    1    1    2    0    0 -0.98137062650E+01  0.75797366803E+01  0.30105188616E+02  0.32558925357E+02  0.00000000000E+00 0.  1.
         -4    1    1    2    0  501  0.21662521042E+03 -0.10523602778E+02  0.38545844097E+02  0.22028396788E+03  0.14200000000E+01 0.  1.
<mgrwt>
<rscale>  0 0.21688533E+03</rscale>
<asrwt>0</asrwt>
<pdfrwt beam="1">  1       11 0.10000000E+01 0.22056732E+03</pdfrwt>
<pdfrwt beam="2">  1       -4 0.16132805E-01 0.21688533E+03</pdfrwt>
<totfact> 0.14098975E+02</totfact>
</mgrwt>
</event>
<event>
 5    1  0.1490736E-003  0.1651642E+03  0.7818608E-02  0.1189649E+00
         11   -1    0    0    0    0  0.00000000000E+00  0.00000000000E+00  0.10000381293E+04  0.10000381293E+04  0.51100000000E-03 0.  1.
          4   -1    0    0  501    0 -0.00000000000E+00 -0.00000000000E+00 -0.26282432927E+02  0.26320765197E+02  0.14200000000E+01 0.  1.
         11    1    1    2    0    0  0.13017221672E+03  0.12620143219E+02  0.45801807982E+03  0.47632408658E+03  0.51100000000E-03 0.  1.
         22    1    1    2    0    0  0.28392967519E+02  0.10487761561E+01  0.46013813176E+02  0.54078938034E+02  0.00000000000E+00 0. -1.
          4    1    1    2  501    0 -0.15856518423E+03 -0.13668919376E+02  0.46972380342E+03  0.49595586992E+03  0.14200000000E+01 0.  1.
<mgrwt>
<rscale>  0 0.15915958E+03</rscale>
<asrwt>0</asrwt>
<pdfrwt beam="1">  1       11 0.10000000E+01 0.16516422E+03</pdfrwt>
<pdfrwt beam="2">  1        4 0.40466316E-02 0.15915958E+03</pdfrwt>
<totfact> 0.13745436E+03</totfact>
</mgrwt>
</event>
<event>
 5    1  0.1490736E-003  0.3813563E+02  0.7818608E-02  0.1528803E+00
         11   -1    0    0    0    0  0.00000000000E+00  0.00000000000E+00  0.10002404684E+04  0.10002404684E+04  0.51100000000E-03 0.  1.
          4   -1    0    0  501    0 -0.00000000000E+00 -0.00000000000E+00 -0.37841928752E+01  0.40418455830E+01  0.14200000000E+01 0.  1.
         11    1    1    2    0    0  0.18422625918E+02  0.10232967305E+02  0.49783572944E+02  0.54060252505E+02  0.51100000000E-03 0.  1.
         22    1    1    2    0    0  0.10841382590E+02  0.12905753596E+02  0.49845692447E+02  0.52618315327E+02  0.00000000000E+00 0.  1.
          4    1    1    2  501    0 -0.29264008508E+02 -0.23138720901E+02  0.89682701014E+03  0.89760374616E+03  0.14200000000E+01 0.  1.
<mgrwt>
<rscale>  0 0.37333618E+02</rscale>
<asrwt>0</asrwt>
<pdfrwt beam="1">  1       11 0.10000000E+01 0.38135630E+02</pdfrwt>
<pdfrwt beam="2">  1        4 0.60222526E-03 0.37333618E+02</pdfrwt>
<totfact> 0.17489235E+04</totfact>
</mgrwt>
</event>
<event>
 5    1  0.1490736E-003  0.1099294E+03  0.7818608E-02  0.1262418E+00
         11   -1    0    0    0    0  0.00000000000E+00  0.00000000000E+00  0.99994943451E+03  0.99994943451E+03  0.51100000000E-03 0. -1.
          4   -1    0    0  501    0 -0.00000000000E+00 -0.00000000000E+00 -0.14052616582E+02  0.14124179014E+02  0.14200000000E+01 0. -1.
         11    1    1    2    0    0  0.45644306546E+02 -0.86052407345E+02  0.27271749912E+03  0.28959152933E+03  0.51100000000E-03 0. -1.
         22    1    1    2    0    0  0.88961089431E+01 -0.83198711534E+01  0.26015518825E+02  0.28725741593E+02  0.00000000000E+00 0.  1.
          4    1    1    2  501    0 -0.54540415489E+02  0.94372278498E+02  0.68716379998E+03  0.69575634260E+03  0.14200000000E+01 0. -1.
<mgrwt>
<rscale>  0 0.10900826E+03</rscale>
<asrwt>0</asrwt>
<pdfrwt beam="1">  1       11 0.10000000E+01 0.10992938E+03</pdfrwt>
<pdfrwt beam="2">  1        4 0.21674137E-02 0.10900826E+03</pdfrwt>
<totfact> 0.34225114E+03</totfact>
</mgrwt>
</event>
<event>
 5    1  0.1490736E-003  0.5165716E+02  0.7818608E-02  0.1436603E+00
         11   -1    0    0    0    0  0.00000000000E+00  0.00000000000E+00  0.10005944011E+04  0.10005944011E+04  0.51100000000E-03 0. -1.
          4   -1    0    0  501    0 -0.00000000000E+00 -0.00000000000E+00 -0.97624618456E+01  0.98651944374E+01  0.14200000000E+01 0. -1.
         11    1    1    2    0    0 -0.71483305756E+01  0.13686314294E+02  0.10790683489E+02  0.18837533793E+02  0.51100000000E-03 0. -1.
         22    1    1    2    0    0 -0.27771358515E+02  0.41034669429E+02  0.13028659543E+03  0.13939042076E+03  0.00000000000E+00 0. -1.
          4    1    1    2  501    0  0.34919689091E+02 -0.54720983723E+02  0.84975466031E+03  0.85223164096E+03  0.14200000000E+01 0. -1.
<mgrwt>
<rscale>  0 0.51657158E+02</rscale>
<asrwt>0</asrwt>
<pdfrwt beam="1">  1       11 0.10000000E+01 0.15440663E+02</pdfrwt>
<pdfrwt beam="2">  1        4 0.15107947E-02 0.51657158E+02</pdfrwt>
<totfact> 0.49995840E+03</totfact>
</mgrwt>
</event>
<event>
 5    1  0.1490736E-003  0.2412363E+03  0.7818608E-02  0.1120622E+00
         11   -1    0    0    0    0  0.00000000000E+00  0.00000000000E+00  0.10002154740E+04  0.10002154740E+04  0.51100000000E-03 0.  1.
          4   -1    0    0  501    0 -0.00000000000E+00 -0.00000000000E+00 -0.70050295999E+02  0.70064687037E+02  0.14200000000E+01 0.  1.
         11    1    1    2    0    0  0.29686107888E+02 -0.11925037461E+02  0.71958693797E+02  0.78749762750E+02  0.51100000000E-03 0.  1.
         22    1    1    2    0    0  0.20802753811E+03 -0.10359335104E+02  0.62087804333E+03  0.65488343782E+03  0.00000000000E+00 0.  1.
          4    1    1    2  501    0 -0.23771364600E+03  0.22284372565E+02  0.23732844091E+03  0.33664696050E+03  0.14200000000E+01 0.  1.
<mgrwt>
<rscale>  0 0.23876010E+03</rscale>
<asrwt>0</asrwt>
<pdfrwt beam="1">  1       11 0.10000000E+01 0.24123625E+03</pdfrwt>
<pdfrwt beam="2">  1        4 0.10780475E-01 0.23876010E+03</pdfrwt>
<totfact> 0.28747239E+02</totfact>
</mgrwt>
</event>
<event>
 5    1  0.1490736E-003  0.2535329E+03  0.7818608E-02  0.1112340E+00
         11   -1    0    0    0    0  0.00000000000E+00  0.00000000000E+00  0.10002756411E+04  0.10002756411E+04  0.51100000000E-03 0.  1.
         -4   -1    0    0    0  501 -0.00000000000E+00 -0.00000000000E+00 -0.76340942430E+02  0.76354147832E+02  0.14200000000E+01 0.  1.
         11    1    1    2    0    0  0.75365405821E+02  0.21527629142E+03  0.62900916982E+03  0.66908621399E+03  0.51100000000E-03 0.  1.
         22    1    1    2    0    0  0.15798311446E+02  0.19151233142E+02  0.53106617041E+02  0.58623111048E+02  0.00000000000E+00 0.  1.
         -4    1    1    2    0  501 -0.91163717266E+02 -0.23442752456E+03  0.24181891184E+03  0.34892046392E+03  0.14200000000E+01 0.  1.
<mgrwt>
<rscale>  0 0.25153350E+03</rscale>
<asrwt>0</asrwt>
<pdfrwt beam="1">  1       11 0.10000000E+01 0.25353287E+03</pdfrwt>
<pdfrwt beam="2">  1       -4 0.11749091E-01 0.25153350E+03</pdfrwt>
<totfact> 0.24920673E+02</totfact>
</mgrwt>
</event>
<event>
 5    1  0.1490736E-003  0.1944389E+03  0.7818608E-02  0.1164700E+00
         11   -1    0    0    0    0  0.00000000000E+00  0.00000000000E+00  0.10002657996E+04  0.10002657996E+04  0.51100000000E-03 0. -1.
         -4   -1    0    0    0  501 -0.00000000000E+00 -0.00000000000E+00 -0.77080372548E+02  0.77093451292E+02  0.14200000000E+01 0. -1.
         11    1    1    2    0    0 -0.24448410962E+02  0.44646165678E+02  0.15208086592E+03  0.16037329792E+03  0.51100000000E-03 0. -1.
         22    1    1    2    0    0  0.99507172879E+01  0.13801811012E+03  0.71069498042E+03  0.72404100070E+03  0.00000000000E+00 0. -1.
         -4    1    1    2    0  501  0.14497693675E+02 -0.18266427580E+03  0.60409580754E+02  0.19294495231E+03  0.14200000000E+01 0. -1.
<mgrwt>
<rscale>  0 0.18324420E+03</rscale>
<asrwt>0</asrwt>
<pdfrwt beam="1">  1       11 0.10000000E+01 0.19443891E+03</pdfrwt>
<pdfrwt beam="2">  1       -4 0.11862754E-01 0.18324420E+03</pdfrwt>
<totfact> 0.23710458E+02</totfact>
</mgrwt>
</event>
<event>
 5    1  0.1490736E-003  0.1800247E+03  0.7818608E-02  0.1167779E+00
         11   -1    0    0    0    0  0.00000000000E+00  0.00000000000E+00  0.10005774806E+04  0.10005774806E+04  0.51100000000E-03 0.  1.
          4   -1    0    0  501    0 -0.00000000000E+00 -0.00000000000E+00 -0.31016298579E+03  0.31016623632E+03  0.14200000000E+01 0. -1.
         11    1    1    2    0    0 -0.17892800141E+03 -0.35765524371E+02  0.92687118683E+03  0.94466110294E+03  0.51100000000E-03 0.  1.
         22    1    1    2    0    0  0.66688584415E+01 -0.16357220406E+02  0.35681160801E+02  0.39814288496E+02  0.00000000000E+00 0.  1.
          4    1    1    2  501    0  0.17225914297E+03  0.52122744778E+02 -0.27213785284E+03  0.32626832547E+03  0.14200000000E+01 0. -1.
<mgrwt>
<rscale>  0 0.18002474E+03</rscale>
<asrwt>0</asrwt>
<pdfrwt beam="1">  1       11 0.10000000E+01 0.17664437E+02</pdfrwt>
<pdfrwt beam="2">  1        4 0.47745265E-01 0.18002474E+03</pdfrwt>
<totfact> 0.17849655E+01</totfact>
</mgrwt>
</event>
<event>
 5    1  0.1490736E-003  0.5842584E+02  0.7818608E-02  0.1425618E+00
         11   -1    0    0    0    0  0.00000000000E+00  0.00000000000E+00  0.10002424681E+04  0.10002424681E+04  0.51100000000E-03 0. -1.
          4   -1    0    0  501    0 -0.00000000000E+00 -0.00000000000E+00 -0.45874913600E+01  0.48022366641E+01  0.14200000000E+01 0. -1.
         11    1    1    2    0    0  0.33976104024E+02  0.24467717181E+02  0.13690200120E+03  0.14316145697E+03  0.51100000000E-03 0. -1.
         22    1    1    2    0    0  0.32387515810E+01  0.14427417748E+02  0.86470934480E+02  0.87726064568E+02  0.00000000000E+00 0. -1.
          4    1    1    2  501    0 -0.37214855605E+02 -0.38895134929E+02  0.77228204103E+03  0.77415718320E+03  0.14200000000E+01 0. -1.
<mgrwt>
<rscale>  0 0.53849730E+02</rscale>
<asrwt>0</asrwt>
<pdfrwt beam="1">  1       11 0.10000000E+01 0.58425844E+02</pdfrwt>
<pdfrwt beam="2">  1        4 0.72253944E-03 0.53849730E+02</pdfrwt>
<totfact> 0.15024612E+04</totfact>
</mgrwt>
</event>
<event>
 5    1  0.1490736E-003  0.2870251E+03  0.7818608E-02  0.1095165E+00
         11   -1    0    0    0    0  0.00000000000E+00  0.00000000000E+00  0.10001795057E+04  0.10001795057E+04  0.51100000000E-03 0. -1.
         -4   -1    0    0    0  501 -0.00000000000E+00 -0.00000000000E+00 -0.12005492967E+03  0.12006332720E+03  0.14200000000E+01 0.  1.
         11    1    1    2    0    0  0.15100342474E+03 -0.13617381914E+03  0.49526169351E+03  0.53537789305E+03  0.51100000000E-03 0. -1.
         22    1    1    2    0    0  0.75492372521E+02 -0.30071371490E+02  0.26890345154E+03  0.28091360228E+03  0.00000000000E+00 0.  1.
         -4    1    1    2    0  501 -0.22649579726E+03  0.16624519063E+03  0.11595943098E+03  0.30395133758E+03  0.14200000000E+01 0.  1.
<mgrwt>
<rscale>  0 0.28096232E+03</rscale>
<asrwt>0</asrwt>
<pdfrwt beam="1">  1       11 0.10000000E+01 0.28702515E+03</pdfrwt>
<pdfrwt beam="2">  1       -4 0.18474028E-01 0.28096232E+03</pdfrwt>
<totfact> 0.11314212E+02</totfact>
</mgrwt>
</event>
<event>
 5    1  0.1490736E-003  0.5639263E+02  0.7818608E-02  0.1432332E+00
         11   -1    0    0    0    0  0.00000000000E+00  0.00000000000E+00  0.99997987875E+03  0.99997987875E+03  0.51100000000E-03 0. -1.
          4   -1    0    0  501    0 -0.00000000000E+00 -0.00000000000E+00 -0.41929800673E+01  0.44269043184E+01  0.14200000000E+01 0. -1.
         11    1    1    2    0    0  0.11547558719E+02 -0.80226611828E+01  0.36470046980E+02  0.39086743684E+02  0.51100000000E-03 0. -1.
         22    1    1    2    0    0  0.40507195185E+02  0.13900746728E+01  0.19314105636E+03  0.19734799928E+03  0.00000000000E+00 0. -1.
          4    1    1    2  501    0 -0.52054753904E+02  0.66325865099E+01  0.76617579534E+03  0.76797204010E+03  0.14200000000E+01 0. -1.
<mgrwt>
<rscale>  0 0.52494809E+02</rscale>
<asrwt>0</asrwt>
<pdfrwt beam="1">  1       11 0.10000000E+01 0.56392632E+02</pdfrwt>
<pdfrwt beam="2">  1        4 0.66313222E-03 0.52494809E+02</pdfrwt>
<totfact> 0.16906242E+04</totfact>
</mgrwt>
</event>
<event>
 5    1  0.1490736E-003  0.2640474E+02  0.7818608E-02  0.1641608E+00
         11   -1    0    0    0    0  0.00000000000E+00  0.00000000000E+00  0.10002513715E+04  0.10002513715E+04  0.51100000000E-03 0.  1.
          4   -1    0    0  501    0 -0.00000000000E+00 -0.00000000000E+00 -0.26321059447E+01  0.29907159183E+01  0.14200000000E+01 0.  1.
         11    1    1    2    0    0  0.33913009253E+01  0.22657038220E+02  0.11705273936E+03  0.11927357669E+03  0.51100000000E-03 0.  1.
         22    1    1    2    0    0  0.24405298532E+02  0.53088933664E+01  0.13071942525E+03  0.13308407525E+03  0.00000000000E+00 0.  1.
          4    1    1    2  501    0 -0.27796599457E+02 -0.27965931586E+02  0.74984710095E+03  0.75088443550E+03  0.14200000000E+01 0.  1.
<mgrwt>
<rscale>  0 0.26404736E+02</rscale>
<asrwt>0</asrwt>
<pdfrwt beam="1">  1       11 0.10000000E+01 0.22909448E+02</pdfrwt>
<pdfrwt beam="2">  1        4 0.43271102E-03 0.26404736E+02</pdfrwt>
<totfact> 0.24754620E+04</totfact>
</mgrwt>
</event>
<event>
 5    1  0.1490736E-003  0.8290979E+02  0.7818608E-02  0.1483038E+00
         11   -1    0    0    0    0  0.00000000000E+00  0.00000000000E+00  0.10005648494E+04  0.10005648494E+04  0.51100000000E-03 0. -1.
          4   -1    0    0  501    0 -0.00000000000E+00 -0.00000000000E+00 -0.11520947673E+02  0.11608127984E+02  0.14200000000E+01 0. -1.
         11    1    1    2    0    0 -0.63177828001E+02 -0.23809355553E+02  0.24452715270E+03  0.25367666777E+03  0.51100000000E-03 0. -1.
         22    1    1    2    0    0  0.76517559088E+02  0.65332604748E+02  0.55216090326E+03  0.56125301708E+03  0.00000000000E+00 0. -1.
          4    1    1    2  501    0 -0.13339731087E+02 -0.41523249194E+02  0.19235584576E+03  0.19724329252E+03  0.14200000000E+01 0. -1.
<mgrwt>
<rscale>  0 0.43636511E+02</rscale>
<asrwt>0</asrwt>
<pdfrwt beam="1">  1       11 0.10000000E+01 0.82909788E+02</pdfrwt>
<pdfrwt beam="2">  1        4 0.17802421E-02 0.43636511E+02</pdfrwt>
<totfact> 0.37411416E+03</totfact>
</mgrwt>
</event>
<event>
 5    1  0.1490736E-003  0.9347742E+02  0.7818608E-02  0.1299619E+00
         11   -1    0    0    0    0  0.00000000000E+00  0.00000000000E+00  0.99990268352E+03  0.99990268352E+03  0.51100000000E-03 0. -1.
          4   -1    0    0  501    0 -0.00000000000E+00 -0.00000000000E+00 -0.87900876536E+01  0.89040463250E+01  0.14200000000E+01 0. -1.
         11    1    1    2    0    0  0.73794718876E+00  0.50589765168E+02  0.26108465196E+03  0.26594184401E+03  0.51100000000E-03 0. -1.
         22    1    1    2    0    0 -0.87720017704E+01  0.40393415435E+02  0.14609025240E+03  0.15182535320E+03  0.00000000000E+00 0. -1.
          4    1    1    2  501    0  0.80340545816E+01 -0.90983180604E+02  0.58393769150E+03  0.59103953264E+03  0.14200000000E+01 0. -1.
<mgrwt>
<rscale>  0 0.91348243E+02</rscale>
<asrwt>0</asrwt>
<pdfrwt beam="1">  1       11 0.10000000E+01 0.93477421E+02</pdfrwt>
<pdfrwt beam="2">  1        4 0.13610323E-02 0.91348243E+02</pdfrwt>
<totfact> 0.67013102E+03</totfact>
</mgrwt>
</event>
<event>
 5    1  0.1490736E-003  0.2666344E+03  0.7818608E-02  0.1103221E+00
         11   -1    0    0    0    0  0.00000000000E+00  0.00000000000E+00  0.10000695997E+04  0.10000695997E+04  0.51100000000E-03 0. -1.
          4   -1    0    0  501    0 -0.00000000000E+00 -0.00000000000E+00 -0.40280113211E+03  0.40280363507E+03  0.14200000000E+01 0. -1.
         11    1    1    2    0    0 -0.20402272812E+03  0.15684176680E+03  0.56590430971E+03  0.62166896428E+03  0.51100000000E-03 0. -1.
         22    1    1    2    0    0 -0.64596777737E+02 -0.21962456408E+03  0.31246607468E+03  0.38735350866E+03  0.00000000000E+00 0. -1.
          4    1    1    2  501    0  0.26861950586E+03  0.62782797286E+02 -0.28110191680E+03  0.39385076183E+03  0.14200000000E+01 0. -1.
<mgrwt>
<rscale>  0 0.26663444E+03</rscale>
<asrwt>0</asrwt>
<pdfrwt beam="1">  1       11 0.10000000E+01 0.22892727E+03</pdfrwt>
<pdfrwt beam="2">  1        4 0.61973986E-01 0.26663444E+03</pdfrwt>
<totfact> 0.10560365E+01</totfact>
</mgrwt>
</event>
<event>
 5    1  0.1490736E-003  0.5371115E+02  0.7818608E-02  0.1435254E+00
         11   -1    0    0    0    0  0.00000000000E+00  0.00000000000E+00  0.10002047783E+04  0.10002047783E+04  0.51100000000E-03 0.  1.
          4   -1    0    0  501    0 -0.00000000000E+00 -0.00000000000E+00 -0.70433034043E+01  0.71850207269E+01  0.14200000000E+01 0.  1.
         11    1    1    2    0    0 -0.17206925226E+02 -0.32402655742E+02  0.62154368864E+02  0.72174621190E+02  0.51100000000E-03 0.  1.
         22    1    1    2    0    0 -0.11437661350E+02 -0.10877049697E+02  0.44994664262E+02  0.47682807377E+02  0.00000000000E+00 0.  1.
          4    1    1    2  501    0  0.28644586576E+02  0.43279705439E+02  0.88601244176E+03  0.88753237045E+03  0.14200000000E+01 0.  1.
<mgrwt>
<rscale>  0 0.51919762E+02</rscale>
<asrwt>0</asrwt>
<pdfrwt beam="1">  1       11 0.10000000E+01 0.53711152E+02</pdfrwt>
<pdfrwt beam="2">  1        4 0.10947881E-02 0.51919762E+02</pdfrwt>
<totfact> 0.80755009E+03</totfact>
</mgrwt>
</event>
<event>
 5    1  0.1490736E-003  0.1347746E+03  0.7818608E-02  0.1225771E+00
         11   -1    0    0    0    0  0.00000000000E+00  0.00000000000E+00  0.10000668996E+04  0.10000668996E+04  0.51100000000E-03 0. -1.
         -4   -1    0    0    0  501 -0.00000000000E+00 -0.00000000000E+00 -0.18954977467E+02  0.19008092245E+02  0.14200000000E+01 0. -1.
         11    1    1    2    0    0 -0.89806990384E+02 -0.57323886680E+02  0.50813843401E+03  0.51918781922E+03  0.51100000000E-03 0. -1.
         22    1    1    2    0    0 -0.11837293578E+02 -0.25528859797E+02  0.12226594078E+03  0.12546236279E+03  0.00000000000E+00 0.  1.
         -4    1    1    2    0  501  0.10164428396E+03  0.82852746477E+02  0.35070754738E+03  0.37442480988E+03  0.14200000000E+01 0. -1.
<mgrwt>
<rscale>  0 0.13114173E+03</rscale>
<asrwt>0</asrwt>
<pdfrwt beam="1">  1       11 0.10000000E+01 0.13477456E+03</pdfrwt>
<pdfrwt beam="2">  1       -4 0.29205090E-02 0.13114173E+03</pdfrwt>
<totfact> 0.22291622E+03</totfact>
</mgrwt>
</event>
<event>
 5    1  0.1490736E-003  0.3043572E+02  0.7818608E-02  0.1628827E+00
         11   -1    0    0    0    0  0.00000000000E+00  0.00000000000E+00  0.10002303925E+04  0.10002303925E+04  0.51100000000E-03 0.  1.
          4   -1    0    0  501    0 -0.00000000000E+00 -0.00000000000E+00 -0.43937943063E+01  0.46175565406E+01  0.14200000000E+01 0.  1.
         11    1    1    2    0    0  0.74695696653E+01 -0.12332542245E+02  0.13442855463E+02  0.19712849426E+02  0.51100000000E-03 0.  1.
         22    1    1    2    0    0  0.34678740627E+01 -0.12742474816E+02  0.36012616582E+02  0.38357598570E+02  0.00000000000E+00 0. -1.
          4    1    1    2  501    0 -0.10937443728E+02  0.25075017061E+02  0.94638112617E+03  0.94677750106E+03  0.14200000000E+01 0.  1.
<mgrwt>
<rscale>  0 0.27393440E+02</rscale>
<asrwt>0</asrwt>
<pdfrwt beam="1">  1       11 0.10000000E+01 0.30435723E+02</pdfrwt>
<pdfrwt beam="2">  1        4 0.69341807E-03 0.27393440E+02</pdfrwt>
<totfact> 0.12814645E+04</totfact>
</mgrwt>
</event>
<event>
 5    1  0.1490736E-003  0.9777299E+02  0.7818608E-02  0.1295711E+00
         11   -1    0    0    0    0  0.00000000000E+00  0.00000000000E+00  0.10001264827E+04  0.10001264827E+04  0.51100000000E-03 0. -1.
          4   -1    0    0  501    0 -0.00000000000E+00 -0.00000000000E+00 -0.91263628181E+01  0.92361733574E+01  0.14200000000E+01 0. -1.
         11    1    1    2    0    0  0.46722870413E+02 -0.83442354892E+01  0.28137839260E+03  0.28535320693E+03  0.51100000000E-03 0. -1.
         22    1    1    2    0    0  0.35026629987E+02 -0.36004034663E+02  0.27431357733E+03  0.27887469234E+03  0.00000000000E+00 0. -1.
          4    1    1    2  501    0 -0.81749500401E+02  0.44348270152E+02  0.43530814995E+03  0.44513475679E+03  0.14200000000E+01 0. -1.
<mgrwt>
<rscale>  0 0.93014871E+02</rscale>
<asrwt>0</asrwt>
<pdfrwt beam="1">  1       11 0.10000000E+01 0.97772986E+02</pdfrwt>
<pdfrwt beam="2">  1        4 0.14127590E-02 0.93014871E+02</pdfrwt>
<totfact> 0.63594859E+03</totfact>
</mgrwt>
</event>
<event>
 5    1  0.1490736E-003  0.1742087E+03  0.7818608E-02  0.1173529E+00
         11   -1    0    0    0    0  0.00000000000E+00  0.00000000000E+00  0.10000401958E+04  0.10000401958E+04  0.51100000000E-03 0. -1.
          4   -1    0    0  501    0 -0.00000000000E+00 -0.00000000000E+00 -0.68195534051E+02  0.68210316408E+02  0.14200000000E+01 0. -1.
         11    1    1    2    0    0  0.12352715200E+03 -0.10617930606E+03  0.64774725858E+03  0.66791430087E+03  0.51100000000E-03 0. -1.
         22    1    1    2    0    0  0.32384151957E+02  0.21826789775E+02  0.20063109813E+03  0.20439662323E+03  0.00000000000E+00 0.  1.
          4    1    1    2  501    0 -0.15591130396E+03  0.84352516287E+02  0.83466305028E+02  0.19593958809E+03  0.14200000000E+01 0. -1.
<mgrwt>
<rscale>  0 0.17420872E+03</rscale>
<asrwt>0</asrwt>
<pdfrwt beam="1">  1       11 0.10000000E+01 0.39053067E+02</pdfrwt>
<pdfrwt beam="2">  1        4 0.10493257E-01 0.17420872E+03</pdfrwt>
<totfact> 0.29075155E+02</totfact>
</mgrwt>
</event>
<event>
 5    1  0.1490736E-003  0.4430301E+02  0.7818608E-02  0.1478740E+00
         11   -1    0    0    0    0  0.00000000000E+00  0.00000000000E+00  0.10001707624E+04  0.10001707624E+04  0.51100000000E-03 0. -1.
          4   -1    0    0  501    0 -0.00000000000E+00 -0.00000000000E+00 -0.61141569016E+01  0.62768873351E+01  0.14200000000E+01 0. -1.
         11    1    1    2    0    0 -0.29043483444E+02  0.29238246891E+01  0.12737771652E+03  0.13067959040E+03  0.51100000000E-03 0. -1.
         22    1    1    2    0    0  0.30083986580E+02 -0.36607079750E+02  0.13082088694E+03  0.13913744642E+03  0.00000000000E+00 0. -1.
          4    1    1    2  501    0 -0.10405031357E+01  0.33683255061E+02  0.73585800205E+03  0.73663061292E+03  0.14200000000E+01 0. -1.
<mgrwt>
<rscale>  0 0.44303009E+02</rscale>
<asrwt>0</asrwt>
<pdfrwt beam="1">  1       11 0.10000000E+01 0.29190299E+02</pdfrwt>
<pdfrwt beam="2">  1        4 0.95339754E-03 0.44303009E+02</pdfrwt>
<totfact> 0.94620593E+03</totfact>
</mgrwt>
</event>
<event>
 5    1  0.1490736E-003  0.6732836E+02  0.7818608E-02  0.1556233E+00
         11   -1    0    0    0    0  0.00000000000E+00  0.00000000000E+00  0.99999120531E+03  0.99999120531E+03  0.51100000000E-03 0. -1.
          4   -1    0    0  501    0 -0.00000000000E+00 -0.00000000000E+00 -0.13077105091E+02  0.13153975732E+02  0.14200000000E+01 0. -1.
         11    1    1    2    0    0  0.12625217947E+02 -0.63962662510E+02  0.10651109853E+03  0.12488087297E+03  0.51100000000E-03 0. -1.
         22    1    1    2    0    0 -0.16895891804E+02 -0.38221590792E+01  0.26477159016E+02  0.31640480550E+02  0.00000000000E+00 0. -1.
          4    1    1    2  501    0  0.42706738569E+01  0.67784821589E+02  0.85392584267E+03  0.85662382752E+03  0.14200000000E+01 0. -1.
<mgrwt>
<rscale>  0 0.34155171E+02</rscale>
<asrwt>0</asrwt>
<pdfrwt beam="1">  1       11 0.10000000E+01 0.67328356E+02</pdfrwt>
<pdfrwt beam="2">  1        4 0.20178352E-02 0.34155171E+02</pdfrwt>
<totfact> 0.28961098E+03</totfact>
</mgrwt>
</event>
<event>
 5    1  0.1490736E-003  0.1226646E+03  0.7818608E-02  0.1243766E+00
         11   -1    0    0    0    0  0.00000000000E+00  0.00000000000E+00  0.10002349036E+04  0.10002349036E+04  0.51100000000E-03 0.  1.
          4   -1    0    0  501    0 -0.00000000000E+00 -0.00000000000E+00 -0.15842594114E+02  0.15906105377E+02  0.14200000000E+01 0.  1.
         11    1    1    2    0    0 -0.34356264902E+02 -0.10033932588E+03  0.59590562232E+03  0.60527005871E+03  0.51100000000E-03 0.  1.
         22    1    1    2    0    0 -0.13575684924E+00 -0.14165349717E+02  0.42069755307E+02  0.44390763388E+02  0.00000000000E+00 0. -1.
          4    1    1    2  501    0  0.34492021751E+02  0.11450467560E+03  0.34641693188E+03  0.36648018690E+03  0.14200000000E+01 0.  1.
<mgrwt>
<rscale>  0 0.11959530E+03</rscale>
<asrwt>0</asrwt>
<pdfrwt beam="1">  1       11 0.10000000E+01 0.12266459E+03</pdfrwt>
<pdfrwt beam="2">  1        4 0.24428588E-02 0.11959530E+03</pdfrwt>
<totfact> 0.28951668E+03</totfact>
</mgrwt>
</event>
<event>
 5    1  0.1490736E-003  0.2602319E+03  0.7818608E-02  0.1107004E+00
         11   -1    0    0    0    0  0.00000000000E+00  0.00000000000E+00  0.10003204336E+04  0.10003204336E+04  0.51100000000E-03 0.  1.
          4   -1    0    0  501    0 -0.00000000000E+00 -0.00000000000E+00 -0.71262019461E+02  0.71276165846E+02  0.14200000000E+01 0.  1.
         11    1    1    2    0    0  0.48044472323E+02 -0.25550124950E+03  0.48058343803E+03  0.54639692599E+03  0.51100000000E-03 0.  1.
         22    1    1    2    0    0 -0.11077609438E+02 -0.24268776363E+01  0.31777226310E+02  0.33740113780E+02  0.00000000000E+00 0. -1.
          4    1    1    2  501    0 -0.36966862886E+02  0.25792812714E+03  0.41669774983E+03  0.49145955971E+03  0.14200000000E+01 0.  1.
<mgrwt>
<rscale>  0 0.26023190E+03</rscale>
<asrwt>0</asrwt>
<pdfrwt beam="1">  1       11 0.10000000E+01 0.11340334E+02</pdfrwt>
<pdfrwt beam="2">  1        4 0.10968066E-01 0.26023190E+03</pdfrwt>
<totfact> 0.28153908E+02</totfact>
</mgrwt>
</event>
<event>
 5    1  0.1490736E-003  0.1245459E+03  0.7818608E-02  0.1243032E+00
         11   -1    0    0    0    0  0.00000000000E+00  0.00000000000E+00  0.10000358372E+04  0.10000358372E+04  0.51100000000E-03 0. -1.
         -4   -1    0    0    0  501 -0.00000000000E+00 -0.00000000000E+00 -0.15137221731E+02  0.15203679874E+02  0.14200000000E+01 0. -1.
         11    1    1    2    0    0  0.90784135377E+02  0.56686951464E+02  0.46622100369E+03  0.47834840230E+03  0.51100000000E-03 0. -1.
         22    1    1    2    0    0  0.16735331514E+02 -0.33289370668E+01  0.95726837786E+02  0.97235696199E+02  0.00000000000E+00 0. -1.
         -4    1    1    2    0  501 -0.10751946689E+03 -0.53358014397E+02  0.42295077403E+03  0.43965541861E+03  0.14200000000E+01 0. -1.
<mgrwt>
<rscale>  0 0.12003970E+03</rscale>
<asrwt>0</asrwt>
<pdfrwt beam="1">  1       11 0.10000000E+01 0.12454589E+03</pdfrwt>
<pdfrwt beam="2">  1       -4 0.23340766E-02 0.12003970E+03</pdfrwt>
<totfact> 0.31086897E+03</totfact>
</mgrwt>
</event>
<event>
 5    1  0.1490736E-003  0.1854121E+03  0.7818608E-02  0.1162666E+00
         11   -1    0    0    0    0  0.00000000000E+00  0.00000000000E+00  0.10001453255E+04  0.10001453255E+04  0.51100000000E-03 0. -1.
         -4   -1    0    0    0  501 -0.00000000000E+00 -0.00000000000E+00 -0.69092027286E+02  0.69106617878E+02  0.14200000000E+01 0.  1.
         11    1    1    2    0    0 -0.36493315420E+02 -0.35773472045E+02  0.27553879718E+02  0.58057899207E+02  0.51100000000E-03 0. -1.
         22    1    1    2    0    0 -0.20372363588E+02 -0.15073629851E+03  0.74367790197E+03  0.75907396660E+03  0.00000000000E+00 0. -1.
         -4    1    1    2    0  501  0.56865679008E+02  0.18650977056E+03  0.15982151648E+03  0.25212007753E+03  0.14200000000E+01 0.  1.
<mgrwt>
<rscale>  0 0.18541207E+03</rscale>
<asrwt>0</asrwt>
<pdfrwt beam="1">  1       11 0.10000000E+01 0.51102896E+02</pdfrwt>
<pdfrwt beam="2">  1       -4 0.10632287E-01 0.18541207E+03</pdfrwt>
<totfact> 0.28636449E+02</totfact>
</mgrwt>
</event>
<event>
 5    1  0.1490736E-003  0.1089344E+03  0.7818608E-02  0.1269177E+00
         11   -1    0    0    0    0  0.00000000000E+00  0.00000000000E+00  0.10004111186E+04  0.10004111186E+04  0.51100000000E-03 0. -1.
          4   -1    0    0  501    0 -0.00000000000E+00 -0.00000000000E+00 -0.11563635052E+02  0.11650495939E+02  0.14200000000E+01 0. -1.
         11    1    1    2    0    0 -0.83740642692E+02  0.23004095076E+02  0.42344054900E+03  0.43225407131E+03  0.51100000000E-03 0. -1.
         22    1    1    2    0    0 -0.13999080536E+02  0.16631095795E+02  0.13007960315E+03  0.13188354999E+03  0.00000000000E+00 0. -1.
          4    1    1    2  501    0  0.97739723228E+02 -0.39635190871E+02  0.43532733140E+03  0.44792399323E+03  0.14200000000E+01 0. -1.
<mgrwt>
<rscale>  0 0.10547994E+03</rscale>
<asrwt>0</asrwt>
<pdfrwt beam="1">  1       11 0.10000000E+01 0.10893437E+03</pdfrwt>
<pdfrwt beam="2">  1        4 0.17865140E-02 0.10547994E+03</pdfrwt>
<totfact> 0.45718839E+03</totfact>
</mgrwt>
</event>
<event>
 5    1  0.1490736E-003  0.1053340E+03  0.7818608E-02  0.1274572E+00
         11   -1    0    0    0    0  0.00000000000E+00  0.00000000000E+00  0.10002110397E+04  0.10002110397E+04  0.51100000000E-03 0. -1.
          4   -1    0    0  501    0 -0.00000000000E+00 -0.00000000000E+00 -0.11008836188E+02  0.11100039379E+02  0.14200000000E+01 0. -1.
         11    1    1    2    0    0  0.46399008220E+02 -0.53802983567E+02  0.39602682058E+03  0.40234919115E+03  0.51100000000E-03 0. -1.
         22    1    1    2    0    0  0.31642427875E+02 -0.13052817469E+02  0.17749032340E+03  0.18076070974E+03  0.00000000000E+00 0. -1.
          4    1    1    2  501    0 -0.78041436095E+02  0.66855801037E+02  0.41568505959E+03  0.42820117824E+03  0.14200000000E+01 0. -1.
<mgrwt>
<rscale>  0 0.10277247E+03</rscale>
<asrwt>0</asrwt>
<pdfrwt beam="1">  1       11 0.10000000E+01 0.10533396E+03</pdfrwt>
<pdfrwt beam="2">  1        4 0.17011192E-02 0.10277247E+03</pdfrwt>
<totfact> 0.49002817E+03</totfact>
</mgrwt>
</event>
<event>
 5    1  0.1490736E-003  0.4245011E+02  0.7818608E-02  0.1499438E+00
         11   -1    0    0    0    0  0.00000000000E+00  0.00000000000E+00  0.10000360669E+04  0.10000360669E+04  0.51100000000E-03 0. -1.
          4   -1    0    0  501    0 -0.00000000000E+00 -0.00000000000E+00 -0.42843521062E+01  0.45135432833E+01  0.14200000000E+01 0. -1.
         11    1    1    2    0    0 -0.20686718586E+02  0.12473078812E+02  0.57995098191E+02  0.62824751773E+02  0.51100000000E-03 0. -1.
         22    1    1    2    0    0 -0.97854118276E+01  0.15245457549E+02  0.53035011442E+02  0.56043649945E+02  0.00000000000E+00 0.  1.
          4    1    1    2  501    0  0.30472130414E+02 -0.27718536361E+02  0.88472160512E+03  0.88568120842E+03  0.14200000000E+01 0. -1.
<mgrwt>
<rscale>  0 0.41217525E+02</rscale>
<asrwt>0</asrwt>
<pdfrwt beam="1">  1       11 0.10000000E+01 0.42450108E+02</pdfrwt>
<pdfrwt beam="2">  1        4 0.67686313E-03 0.41217525E+02</pdfrwt>
<totfact> 0.15251162E+04</totfact>
</mgrwt>
</event>
<event>
 5    1  0.1490736E-003  0.2627553E+03  0.7818608E-02  0.1105499E+00
         11   -1    0    0    0    0  0.00000000000E+00  0.00000000000E+00  0.10001856738E+04  0.10001856738E+04  0.51100000000E-03 0.  1.
         -4   -1    0    0    0  501 -0.00000000000E+00 -0.00000000000E+00 -0.27102493490E+03  0.27102865483E+03  0.14200000000E+01 0. -1.
         11    1    1    2    0    0  0.94860349451E+01 -0.68378194371E+02  0.32571504519E+03  0.33295022599E+03  0.51100000000E-03 0.  1.
         22    1    1    2    0    0  0.24298980700E+03 -0.15306343508E+02  0.57317155806E+03  0.62273908294E+03  0.00000000000E+00 0.  1.
         -4    1    1    2    0  501 -0.25247584195E+03  0.83684537879E+02 -0.16972586433E+03  0.31552501972E+03  0.14200000000E+01 0. -1.
<mgrwt>
<rscale>  0 0.26275533E+03</rscale>
<asrwt>0</asrwt>
<pdfrwt beam="1">  1       11 0.10000000E+01 0.69033052E+02</pdfrwt>
<pdfrwt beam="2">  1       -4 0.41704248E-01 0.26275533E+03</pdfrwt>
<totfact> 0.23970059E+01</totfact>
</mgrwt>
</event>
<event>
 5    1  0.1490736E-003  0.9106801E+02  0.7818608E-02  0.1304488E+00
         11   -1    0    0    0    0  0.00000000000E+00  0.00000000000E+00  0.10004536679E+04  0.10004536679E+04  0.51100000000E-03 0.  1.
          4   -1    0    0  501    0 -0.00000000000E+00 -0.00000000000E+00 -0.81612726776E+01  0.82838862690E+01  0.14200000000E+01 0.  1.
         11    1    1    2    0    0  0.10865516310E+02  0.12457938248E+02  0.73753572394E+02  0.75583391768E+02  0.51100000000E-03 0.  1.
         22    1    1    2    0    0  0.69798208681E+02  0.25892659105E+02  0.37403322341E+03  0.38136999351E+03  0.00000000000E+00 0.  1.
          4    1    1    2  501    0 -0.80663724991E+02 -0.38350597353E+02  0.54450559938E+03  0.55178416886E+03  0.14200000000E+01 0.  1.
<mgrwt>
<rscale>  0 0.89327606E+02</rscale>
<asrwt>0</asrwt>
<pdfrwt beam="1">  1       11 0.10000000E+01 0.91068007E+02</pdfrwt>
<pdfrwt beam="2">  1        4 0.12656636E-02 0.89327606E+02</pdfrwt>
<totfact> 0.74384509E+03</totfact>
</mgrwt>
</event>
<event>
 5    1  0.1490736E-003  0.5217147E+02  0.7818608E-02  0.1450755E+00
         11   -1    0    0    0    0  0.00000000000E+00  0.00000000000E+00  0.10004352554E+04  0.10004352554E+04  0.51100000000E-03 0. -1.
          4   -1    0    0  501    0 -0.00000000000E+00 -0.00000000000E+00 -0.45278738913E+01  0.47453179004E+01  0.14200000000E+01 0. -1.
         11    1    1    2    0    0  0.18478482438E+02  0.25370203464E+02  0.77291360031E+02  0.83420955837E+02  0.51100000000E-03 0. -1.
         22    1    1    2    0    0  0.12939049295E+02  0.12218560062E+02  0.92828323849E+02  0.94518833654E+02  0.00000000000E+00 0. -1.
          4    1    1    2  501    0 -0.31417531733E+02 -0.37588763526E+02  0.82578769766E+03  0.82724078384E+03  0.14200000000E+01 0. -1.
<mgrwt>
<rscale>  0 0.49010130E+02</rscale>
<asrwt>0</asrwt>
<pdfrwt beam="1">  1       11 0.10000000E+01 0.52171466E+02</pdfrwt>
<pdfrwt beam="2">  1        4 0.71371046E-03 0.49010130E+02</pdfrwt>
<totfact> 0.14885019E+04</totfact>
</mgrwt>
</event>
<event>
 5    1  0.1490736E-003  0.1043472E+03  0.7818608E-02  0.1274257E+00
         11   -1    0    0    0    0  0.00000000000E+00  0.00000000000E+00  0.10001916112E+04  0.10001916112E+04  0.51100000000E-03 0.  1.
         -4   -1    0    0    0  501 -0.00000000000E+00 -0.00000000000E+00 -0.10808985102E+02  0.10901860343E+02  0.14200000000E+01 0. -1.
         11    1    1    2    0    0 -0.62186072080E+02  0.57250155647E+02  0.47377222998E+03  0.48125337795E+03  0.51100000000E-03 0.  1.
         22    1    1    2    0    0 -0.17046805501E+02  0.84332289372E+01  0.76804195062E+02  0.79123936373E+02  0.00000000000E+00 0.  1.
         -4    1    1    2    0  501  0.79232877581E+02 -0.65683384584E+02  0.43880620110E+03  0.45071615727E+03  0.14200000000E+01 0. -1.
<mgrwt>
<rscale>  0 0.10292800E+03</rscale>
<asrwt>0</asrwt>
<pdfrwt beam="1">  1       11 0.10000000E+01 0.10434718E+03</pdfrwt>
<pdfrwt beam="2">  1       -4 0.16704625E-02 0.10292800E+03</pdfrwt>
<totfact> 0.50393693E+03</totfact>
</mgrwt>
</event>
<event>
 5    1  0.1490736E-003  0.2644445E+02  0.7818608E-02  0.1641082E+00
         11   -1    0    0    0    0  0.00000000000E+00  0.00000000000E+00  0.10001037137E+04  0.10001037137E+04  0.51100000000E-03 0. -1.
          4   -1    0    0  501    0 -0.00000000000E+00 -0.00000000000E+00 -0.14112468993E+02  0.14183729449E+02  0.14200000000E+01 0. -1.
         11    1    1    2    0    0  0.17874369798E+01 -0.10176566442E+02  0.11456087084E+01  0.10395665206E+02  0.51100000000E-03 0. -1.
         22    1    1    2    0    0 -0.26026437214E+02  0.49534381201E+01  0.93726018563E+01  0.28102627081E+02  0.00000000000E+00 0. -1.
          4    1    1    2  501    0  0.24239000235E+02  0.52231283218E+01  0.97547303413E+03  0.97578915085E+03  0.14200000000E+01 0. -1.
<mgrwt>
<rscale>  0 0.26444446E+02</rscale>
<asrwt>0</asrwt>
<pdfrwt beam="1">  1       11 0.10000000E+01 0.10332354E+02</pdfrwt>
<pdfrwt beam="2">  1        4 0.21769339E-02 0.26444446E+02</pdfrwt>
<totfact> 0.23913895E+03</totfact>
</mgrwt>
</event>
<event>
 5    1  0.1490736E-003  0.1551698E+03  0.7818608E-02  0.1201745E+00
         11   -1    0    0    0    0  0.00000000000E+00  0.00000000000E+00  0.10000435893E+04  0.10000435893E+04  0.51100000000E-03 0. -1.
          4   -1    0    0  501    0 -0.00000000000E+00 -0.00000000000E+00 -0.23127492597E+02  0.23171044729E+02  0.14200000000E+01 0. -1.
         11    1    1    2    0    0 -0.10880668704E+03 -0.68527876048E+02  0.38953599682E+03  0.41021123553E+03  0.51100000000E-03 0. -1.
         22    1    1    2    0    0 -0.10069092738E+02 -0.21241311722E+02  0.12586701128E+03  0.12804329144E+03  0.00000000000E+00 0.  1.
          4    1    1    2  501    0  0.11887577978E+03  0.89769187770E+02  0.46151308865E+03  0.48496010711E+03  0.14200000000E+01 0. -1.
<mgrwt>
<rscale>  0 0.14896971E+03</rscale>
<asrwt>0</asrwt>
<pdfrwt beam="1">  1       11 0.10000000E+01 0.15516983E+03</pdfrwt>
<pdfrwt beam="2">  1        4 0.35616586E-02 0.14896971E+03</pdfrwt>
<totfact> 0.16661209E+03</totfact>
</mgrwt>
</event>
<event>
 5    1  0.1490736E-003  0.3259323E+03  0.7818608E-02  0.1073514E+00
         11   -1    0    0    0    0  0.00000000000E+00  0.00000000000E+00  0.10002142731E+04  0.10002142731E+04  0.51100000000E-03 0.  1.
          4   -1    0    0  501    0 -0.00000000000E+00 -0.00000000000E+00 -0.10599987446E+03  0.10600938537E+03  0.14200000000E+01 0.  1.
         11    1    1    2    0    0 -0.18449209556E+03 -0.25051044653E+03  0.44171373964E+03  0.54028126465E+03  0.51100000000E-03 0.  1.
         22    1    1    2    0    0 -0.10363303922E+02 -0.91987644640E+01  0.30424861292E+02  0.33431833938E+02  0.00000000000E+00 0. -1.
          4    1    1    2  501    0  0.19485539948E+03  0.25970921099E+03  0.42207579774E+03  0.53251055991E+03  0.14200000000E+01 0.  1.
<mgrwt>
<rscale>  0 0.32468372E+03</rscale>
<asrwt>0</asrwt>
<pdfrwt beam="1">  1       11 0.10000000E+01 0.32593230E+03</pdfrwt>
<pdfrwt beam="2">  1        4 0.16311976E-01 0.32468372E+03</pdfrwt>
<totfact> 0.14321223E+02</totfact>
</mgrwt>
</event>
<event>
 5    1  0.1490736E-003  0.2248830E+03  0.7818608E-02  0.1314523E+00
         11   -1    0    0    0    0  0.00000000000E+00  0.00000000000E+00  0.10002203448E+04  0.10002203448E+04  0.51100000000E-03 0. -1.
          4   -1    0    0  501    0 -0.00000000000E+00 -0.00000000000E+00 -0.59991668130E+02  0.60008471443E+02  0.14200000000E+01 0. -1.
         11    1    1    2    0    0 -0.20863776661E+03 -0.10986980675E+03  0.50747251278E+03  0.55957970238E+03  0.51100000000E-03 0. -1.
         22    1    1    2    0    0  0.30844011530E+02 -0.98913222663E+01  0.28836156199E+02  0.43367213511E+02  0.00000000000E+00 0. -1.
          4    1    1    2  501    0  0.17779375508E+03  0.11976112902E+03  0.40392000768E+03  0.45728190033E+03  0.14200000000E+01 0. -1.
<mgrwt>
<rscale>  0 0.85348575E+02</rscale>
<asrwt>0</asrwt>
<pdfrwt beam="1">  1       11 0.10000000E+01 0.22488296E+03</pdfrwt>
<pdfrwt beam="2">  1        4 0.92328912E-02 0.85348575E+02</pdfrwt>
<totfact> 0.32749398E+02</totfact>
</mgrwt>
</event>
<event>
 5    1  0.1490736E-003  0.4170586E+02  0.7818608E-02  0.1512069E+00
         11   -1    0    0    0    0  0.00000000000E+00  0.00000000000E+00  0.10002191850E+04  0.10002191850E+04  0.51100000000E-03 0. -1.
         -4   -1    0    0    0  501 -0.00000000000E+00 -0.00000000000E+00 -0.31950145977E+01  0.34963578592E+01  0.14200000000E+01 0. -1.
         11    1    1    2    0    0 -0.12526821869E+02  0.12844362133E+02  0.92020539051E+02  0.93753285341E+02  0.51100000000E-03 0. -1.
         22    1    1    2    0    0 -0.17012617493E+02  0.13311326879E+02  0.55708339242E+02  0.59749808689E+02  0.00000000000E+00 0. -1.
         -4    1    1    2    0  501  0.29539439362E+02 -0.26155689012E+02  0.84929529208E+03  0.85021244880E+03  0.14200000000E+01 0. -1.
<mgrwt>
<rscale>  0 0.39480564E+02</rscale>
<asrwt>0</asrwt>
<pdfrwt beam="1">  1       11 0.10000000E+01 0.41705856E+02</pdfrwt>
<pdfrwt beam="2">  1       -4 0.51491132E-03 0.39480564E+02</pdfrwt>
<totfact> 0.22326248E+04</totfact>
</mgrwt>
</event>
<event>
 5    1  0.1490736E-003  0.2594116E+03  0.7818608E-02  0.1254205E+00
         11   -1    0    0    0    0  0.00000000000E+00  0.00000000000E+00  0.10001239679E+04  0.10001239679E+04  0.51100000000E-03 0. -1.
          4   -1    0    0  501    0 -0.00000000000E+00 -0.00000000000E+00 -0.97302050788E+02  0.97312411786E+02  0.14200000000E+01 0. -1.
         11    1    1    2    0    0 -0.24545532095E+03  0.86307654907E+02  0.21940111197E+03  0.34034419903E+03  0.51100000000E-03 0. -1.
         22    1    1    2    0    0 -0.12224555779E+02 -0.48139659566E+02  0.42911861427E+02  0.65637599273E+02  0.00000000000E+00 0.  1.
          4    1    1    2  501    0  0.25767987673E+03 -0.38167995341E+02  0.64050894376E+03  0.69145458143E+03  0.14200000000E+01 0. -1.
<mgrwt>
<rscale>  0 0.11351004E+03</rscale>
<asrwt>0</asrwt>
<pdfrwt beam="1">  1       11 0.10000000E+01 0.25941163E+03</pdfrwt>
<pdfrwt beam="2">  1        4 0.14972276E-01 0.11351004E+03</pdfrwt>
<totfact> 0.15000370E+02</totfact>
</mgrwt>
</event>
<event>
 5    1  0.1490736E-003  0.2671880E+02  0.7818608E-02  0.1702117E+00
         11   -1    0    0    0    0  0.00000000000E+00  0.00000000000E+00  0.10001289175E+04  0.10001289175E+04  0.51100000000E-03 0. -1.
          4   -1    0    0  501    0 -0.00000000000E+00 -0.00000000000E+00 -0.22956971510E+01  0.26993750035E+01  0.14200000000E+01 0. -1.
         11    1    1    2    0    0  0.94629976507E+00 -0.25361342257E+02  0.11283537815E+03  0.11565429403E+03  0.51100000000E-03 0. -1.
         22    1    1    2    0    0 -0.18345220369E+02  0.35426257650E+01  0.10325006958E+03  0.10492699451E+03  0.00000000000E+00 0. -1.
          4    1    1    2  501    0  0.17398920604E+02  0.21818716492E+02  0.78174777260E+03  0.78224700395E+03  0.14200000000E+01 0. -1.
<mgrwt>
<rscale>  0 0.22358942E+02</rscale>
<asrwt>0</asrwt>
<pdfrwt beam="1">  1       11 0.10000000E+01 0.26718803E+02</pdfrwt>
<pdfrwt beam="2">  1        4 0.38436340E-03 0.22358942E+02</pdfrwt>
<totfact> 0.27335490E+04</totfact>
</mgrwt>
</event>
<event>
 5    1  0.1490736E-003  0.4471655E+02  0.7818608E-02  0.1483410E+00
         11   -1    0    0    0    0  0.00000000000E+00  0.00000000000E+00  0.99991732730E+03  0.99991732730E+03  0.51100000000E-03 0. -1.
          4   -1    0    0  501    0 -0.00000000000E+00 -0.00000000000E+00 -0.27430193449E+01  0.30887789054E+01  0.14200000000E+01 0. -1.
         11    1    1    2    0    0  0.14028614946E+02  0.67691089832E+00  0.52067718573E+02  0.53928726698E+02  0.51100000000E-03 0. -1.
         22    1    1    2    0    0  0.27915717283E+02  0.11062961392E+02  0.16202029310E+03  0.16477940333E+03  0.00000000000E+00 0. -1.
          4    1    1    2  501    0 -0.41944332229E+02 -0.11739872290E+02  0.78308629628E+03  0.78429797617E+03  0.14200000000E+01 0. -1.
<mgrwt>
<rscale>  0 0.43579445E+02</rscale>
<asrwt>0</asrwt>
<pdfrwt beam="1">  1       11 0.10000000E+01 0.44716545E+02</pdfrwt>
<pdfrwt beam="2">  1        4 0.44864032E-03 0.43579445E+02</pdfrwt>
<totfact> 0.28116906E+04</totfact>
</mgrwt>
</event>
<event>
 5    1  0.1490736E-003  0.1884913E+03  0.7818608E-02  0.1160992E+00
         11   -1    0    0    0    0  0.00000000000E+00  0.00000000000E+00  0.10000014812E+04  0.10000014812E+04  0.51100000000E-03 0. -1.
          4   -1    0    0  501    0 -0.00000000000E+00 -0.00000000000E+00 -0.36228373271E+02  0.36256191607E+02  0.14200000000E+01 0. -1.
         11    1    1    2    0    0  0.12011147077E+03 -0.12209144076E+03  0.53163101501E+03  0.55853793196E+03  0.51100000000E-03 0. -1.
         22    1    1    2    0    0  0.82530354515E+01 -0.14187800783E+02  0.35860744480E+02  0.39438550682E+02  0.00000000000E+00 0.  1.
          4    1    1    2  501    0 -0.12836450622E+03  0.13627924154E+03  0.39628134846E+03  0.43828119019E+03  0.14200000000E+01 0. -1.
<mgrwt>
<rscale>  0 0.18722044E+03</rscale>
<asrwt>0</asrwt>
<pdfrwt beam="1">  1       11 0.10000000E+01 0.18849132E+03</pdfrwt>
<pdfrwt beam="2">  1        4 0.55758214E-02 0.18722044E+03</pdfrwt>
<totfact> 0.83931691E+02</totfact>
</mgrwt>
</event>
<event>
 5    1  0.1490736E-003  0.3622774E+02  0.7818608E-02  0.1537961E+00
         11   -1    0    0    0    0  0.00000000000E+00  0.00000000000E+00  0.10003196489E+04  0.10003196489E+04  0.51100000000E-03 0. -1.
          4   -1    0    0  501    0 -0.00000000000E+00 -0.00000000000E+00 -0.32705292766E+01  0.35654960032E+01  0.14200000000E+01 0. -1.
         11    1    1    2    0    0 -0.10381667218E+02 -0.61247360137E+01  0.28003344925E+02  0.30487353652E+02  0.51100000000E-03 0. -1.
         22    1    1    2    0    0  0.27887352595E+02  0.26567051561E+02  0.18890497924E+03  0.19279160730E+03  0.00000000000E+00 0. -1.
          4    1    1    2  501    0 -0.17505685378E+02 -0.20442315547E+02  0.78014079549E+03  0.78060618398E+03  0.14200000000E+01 0. -1.
<mgrwt>
<rscale>  0 0.36227736E+02</rscale>
<asrwt>0</asrwt>
<pdfrwt beam="1">  1       11 0.10000000E+01 0.12053694E+02</pdfrwt>
<pdfrwt beam="2">  1        4 0.52609372E-03 0.36227736E+02</pdfrwt>
<totfact> 0.21031580E+04</totfact>
</mgrwt>
</event>
<event>
 5    1  0.1490736E-003  0.5343637E+02  0.7818608E-02  0.1517035E+00
         11   -1    0    0    0    0  0.00000000000E+00  0.00000000000E+00  0.10001830976E+04  0.10001830976E+04  0.51100000000E-03 0. -1.
          4   -1    0    0  501    0 -0.00000000000E+00 -0.00000000000E+00 -0.69671267176E+01  0.71103624872E+01  0.14200000000E+01 0. -1.
         11    1    1    2    0    0  0.38660297270E+02 -0.68648963649E+01  0.12805212051E+03  0.13393689168E+03  0.51100000000E-03 0. -1.
         22    1    1    2    0    0  0.11370583316E+02 -0.25805973213E+02  0.63650336290E+02  0.69617553305E+02  0.00000000000E+00 0. -1.
          4    1    1    2  501    0 -0.50030880585E+02  0.32670869578E+02  0.80151351412E+03  0.80373901514E+03  0.14200000000E+01 0. -1.
<mgrwt>
<rscale>  0 0.38825706E+02</rscale>
<asrwt>0</asrwt>
<pdfrwt beam="1">  1       11 0.10000000E+01 0.53436375E+02</pdfrwt>
<pdfrwt beam="2">  1        4 0.10831596E-02 0.38825706E+02</pdfrwt>
<totfact> 0.75436938E+03</totfact>
</mgrwt>
</event>
<event>
 5    1  0.1490736E-003  0.2436425E+03  0.7818608E-02  0.1128165E+00
         11   -1    0    0    0    0  0.00000000000E+00  0.00000000000E+00  0.99993999399E+03  0.99993999399E+03  0.51100000000E-03 0. -1.
          4   -1    0    0  501    0 -0.00000000000E+00 -0.00000000000E+00 -0.14731883714E+03  0.14732568064E+03  0.14200000000E+01 0.  1.
         11    1    1    2    0    0 -0.67058441394E+02  0.26784885303E+02  0.42633167825E+03  0.43240370549E+03  0.51100000000E-03 0. -1.
         22    1    1    2    0    0 -0.11547034596E+03  0.10957860226E+03  0.45794807920E+03  0.48482709713E+03  0.00000000000E+00 0. -1.
          4    1    1    2  501    0  0.18252878735E+03 -0.13636348756E+03 -0.31658600598E+02  0.23003487201E+03  0.14200000000E+01 0.  1.
<mgrwt>
<rscale>  0 0.22784595E+03</rscale>
<asrwt>0</asrwt>
<pdfrwt beam="1">  1       11 0.10000000E+01 0.24364248E+03</pdfrwt>
<pdfrwt beam="2">  1        4 0.22663680E-01 0.22784595E+03</pdfrwt>
<totfact> 0.76582088E+01</totfact>
</mgrwt>
</event>
<event>
 5    1  0.1490736E-003  0.1643700E+03  0.7818608E-02  0.1185031E+00
         11   -1    0    0    0    0  0.00000000000E+00  0.00000000000E+00  0.10001110155E+04  0.10001110155E+04  0.51100000000E-03 0. -1.
          4   -1    0    0  501    0 -0.00000000000E+00 -0.00000000000E+00 -0.31084181750E+02  0.31116599349E+02  0.14200000000E+01 0. -1.
         11    1    1    2    0    0  0.55136876811E+02 -0.13845573189E+03  0.62745298385E+03  0.64490876240E+03  0.51100000000E-03 0. -1.
         22    1    1    2    0    0  0.83114164685E+00 -0.14937397386E+02  0.49342777036E+02  0.51560898777E+02  0.00000000000E+00 0. -1.
          4    1    1    2  501    0 -0.55968018458E+02  0.15339312927E+03  0.29223107285E+03  0.33475795366E+03  0.14200000000E+01 0. -1.
<mgrwt>
<rscale>  0 0.16329081E+03</rscale>
<asrwt>0</asrwt>
<pdfrwt beam="1">  1       11 0.10000000E+01 0.16436997E+03</pdfrwt>
<pdfrwt beam="2">  1        4 0.47852841E-02 0.16329081E+03</pdfrwt>
<totfact> 0.10547340E+03</totfact>
</mgrwt>
</event>
<event>
 5    1  0.1490736E-003  0.1092206E+03  0.7818608E-02  0.1262020E+00
         11   -1    0    0    0    0  0.00000000000E+00  0.00000000000E+00  0.10003578229E+04  0.10003578229E+04  0.51100000000E-03 0.  1.
          4   -1    0    0  501    0 -0.00000000000E+00 -0.00000000000E+00 -0.25839037927E+02  0.25878026992E+02  0.14200000000E+01 0.  1.
         11    1    1    2    0    0  0.81124579844E+00  0.56142475542E+02  0.56168181478E+02  0.79419772668E+02  0.51100000000E-03 0.  1.
         22    1    1    2    0    0  0.10559795816E+03 -0.59940074303E+02  0.55813842584E+03  0.57119370066E+03  0.00000000000E+00 0.  1.
          4    1    1    2  501    0 -0.10640920396E+03  0.37975987605E+01  0.36021217768E+03  0.37562237659E+03  0.14200000000E+01 0.  1.
<mgrwt>
<rscale>  0 0.10922062E+03</rscale>
<asrwt>0</asrwt>
<pdfrwt beam="1">  1       11 0.10000000E+01 0.56148364E+02</pdfrwt>
<pdfrwt beam="2">  1        4 0.39797367E-02 0.10922062E+03</pdfrwt>
<totfact> 0.13281980E+03</totfact>
</mgrwt>
</event>
<event>
 5    1  0.1490736E-003  0.9989717E+02  0.7818608E-02  0.1280512E+00
         11   -1    0    0    0    0  0.00000000000E+00  0.00000000000E+00  0.10004487970E+04  0.10004487970E+04  0.51100000000E-03 0.  1.
          4   -1    0    0  501    0 -0.00000000000E+00 -0.00000000000E+00 -0.33607855054E+02  0.33637840617E+02  0.14200000000E+01 0.  1.
         11    1    1    2    0    0 -0.51228110613E+01 -0.47445156666E+02  0.16452464696E+03  0.17130570785E+03  0.51100000000E-03 0.  1.
         22    1    1    2    0    0  0.39056059930E+02  0.13574911844E+03  0.73041829004E+03  0.74395166335E+03  0.00000000000E+00 0.  1.
          4    1    1    2  501    0 -0.33933248868E+02 -0.88303961771E+02  0.71898004952E+02  0.11882926643E+03  0.14200000000E+01 0.  1.
<mgrwt>
<rscale>  0 0.99897174E+02</rscale>
<asrwt>0</asrwt>
<pdfrwt beam="1">  1       11 0.10000000E+01 0.47720919E+02</pdfrwt>
<pdfrwt beam="2">  1        4 0.51751447E-02 0.99897174E+02</pdfrwt>
<totfact> 0.86152196E+02</totfact>
</mgrwt>
</event>
<event>
 5    1  0.1490736E-003  0.1886143E+03  0.7818608E-02  0.1161804E+00
         11   -1    0    0    0    0  0.00000000000E+00  0.00000000000E+00  0.10000034066E+04  0.10000034066E+04  0.51100000000E-03 0.  1.
         -4   -1    0    0    0  501 -0.00000000000E+00 -0.00000000000E+00 -0.45929628960E+02  0.45951574689E+02  0.14200000000E+01 0. -1.
         11    1    1    2    0    0  0.12134792875E+03 -0.11162900513E+03  0.66849510500E+03  0.68852891007E+03  0.51100000000E-03 0.  1.
         22    1    1    2    0    0  0.10606712565E+02 -0.19933167427E+02  0.64243511492E+02  0.68095978471E+02  0.00000000000E+00 0.  1.
         -4    1    1    2    0  501 -0.13195464131E+03  0.13156217256E+03  0.22133516118E+03  0.28933009278E+03  0.14200000000E+01 0. -1.
<mgrwt>
<rscale>  0 0.18634014E+03</rscale>
<asrwt>0</asrwt>
<pdfrwt beam="1">  1       11 0.10000000E+01 0.18861427E+03</pdfrwt>
<pdfrwt beam="2">  1       -4 0.70678863E-02 0.18634014E+03</pdfrwt>
<totfact> 0.56845856E+02</totfact>
</mgrwt>
</event>
<event>
 5    1  0.1490736E-003  0.1250503E+03  0.7818608E-02  0.1234991E+00
         11   -1    0    0    0    0  0.00000000000E+00  0.00000000000E+00  0.10001263380E+04  0.10001263380E+04  0.51100000000E-03 0. -1.
          4   -1    0    0  501    0 -0.00000000000E+00 -0.00000000000E+00 -0.28169427958E+02  0.28205195824E+02  0.14200000000E+01 0. -1.
         11    1    1    2    0    0 -0.63895665501E+01  0.11438295895E+03  0.60563107549E+03  0.61637106313E+03  0.51100000000E-03 0. -1.
         22    1    1    2    0    0 -0.44014718434E+02  0.59380305093E+01  0.17388199431E+03  0.17946449117E+03  0.00000000000E+00 0.  1.
          4    1    1    2  501    0  0.50404284984E+02 -0.12032098946E+03  0.19244384023E+03  0.23249597952E+03  0.14200000000E+01 0. -1.
<mgrwt>
<rscale>  0 0.12505032E+03</rscale>
<asrwt>0</asrwt>
<pdfrwt beam="1">  1       11 0.10000000E+01 0.44413462E+02</pdfrwt>
<pdfrwt beam="2">  1        4 0.43371348E-02 0.12505032E+03</pdfrwt>
<totfact> 0.11851079E+03</totfact>
</mgrwt>
</event>
<event>
 5    1  0.1490736E-003  0.3542354E+02  0.7818608E-02  0.1563903E+00
         11   -1    0    0    0    0  0.00000000000E+00  0.00000000000E+00  0.10003543784E+04  0.10003543784E+04  0.51100000000E-03 0.  1.
          4   -1    0    0  501    0 -0.00000000000E+00 -0.00000000000E+00 -0.31795815957E+01  0.34822606341E+01  0.14200000000E+01 0.  1.
         11    1    1    2    0    0  0.13285605676E+02 -0.14542964104E+02  0.52668649820E+02  0.56231590741E+02  0.51100000000E-03 0.  1.
         22    1    1    2    0    0  0.15490063215E+02 -0.22251966637E+01  0.48148839499E+02  0.50628097967E+02  0.00000000000E+00 0.  1.
          4    1    1    2  501    0 -0.28775668891E+02  0.16768160767E+02  0.89635730749E+03  0.89697695033E+03  0.14200000000E+01 0.  1.
<mgrwt>
<rscale>  0 0.33335068E+02</rscale>
<asrwt>0</asrwt>
<pdfrwt beam="1">  1       11 0.10000000E+01 0.35423536E+02</pdfrwt>
<pdfrwt beam="2">  1        4 0.51270854E-03 0.33335068E+02</pdfrwt>
<totfact> 0.21202523E+04</totfact>
</mgrwt>
</event>
<event>
 5    1  0.1490736E-003  0.1080592E+03  0.7818608E-02  0.1266150E+00
         11   -1    0    0    0    0  0.00000000000E+00  0.00000000000E+00  0.10002890157E+04  0.10002890157E+04  0.51100000000E-03 0. -1.
         -4   -1    0    0    0  501 -0.00000000000E+00 -0.00000000000E+00 -0.11899420894E+02  0.11983848197E+02  0.14200000000E+01 0. -1.
         11    1    1    2    0    0 -0.40317718419E+02 -0.88160753533E+02  0.38084659074E+03  0.39299104641E+03  0.51100000000E-03 0. -1.
         22    1    1    2    0    0 -0.25245265899E+01 -0.99224288399E+01  0.25513545915E+02  0.27491250494E+02  0.00000000000E+00 0. -1.
         -4    1    1    2    0  501  0.42842245009E+02  0.98083182373E+02  0.58202945812E+03  0.59179056696E+03  0.14200000000E+01 0. -1.
<mgrwt>
<rscale>  0 0.10704104E+03</rscale>
<asrwt>0</asrwt>
<pdfrwt beam="1">  1       11 0.10000000E+01 0.10805925E+03</pdfrwt>
<pdfrwt beam="2">  1       -4 0.18377830E-02 0.10704104E+03</pdfrwt>
<totfact> 0.43915375E+03</totfact>
</mgrwt>
</event>
<event>
 5    1  0.1490736E-003  0.8102024E+02  0.7818608E-02  0.1516263E+00
         11   -1    0    0    0    0  0.00000000000E+00  0.00000000000E+00  0.10002646770E+04  0.10002646770E+04  0.51100000000E-03 0.  1.
         -4   -1    0    0    0  501 -0.00000000000E+00 -0.00000000000E+00 -0.10916548611E+02  0.11008516411E+02  0.14200000000E+01 0.  1.
         11    1    1    2    0    0  0.72208844006E+02 -0.32503043662E+02  0.38320165647E+03  0.39129793575E+03  0.51100000000E-03 0.  1.
         22    1    1    2    0    0 -0.58885447950E+01 -0.17748241063E+02  0.17949275431E+02  0.25920098556E+02  0.00000000000E+00 0.  1.
         -4    1    1    2    0  501 -0.66320299211E+02  0.50251284725E+02  0.58819719650E+03  0.59405515911E+03  0.14200000000E+01 0.  1.
<mgrwt>
<rscale>  0 0.38926571E+02</rscale>
<asrwt>0</asrwt>
<pdfrwt beam="1">  1       11 0.10000000E+01 0.81020238E+02</pdfrwt>
<pdfrwt beam="2">  1       -4 0.16870674E-02 0.38926571E+02</pdfrwt>
<totfact> 0.39258361E+03</totfact>
</mgrwt>
</event>
<event>
 5    1  0.1490736E-003  0.2533380E+03  0.7818608E-02  0.1118603E+00
         11   -1    0    0    0    0  0.00000000000E+00  0.00000000000E+00  0.10001958675E+04  0.10001958675E+04  0.51100000000E-03 0.  1.
          4   -1    0    0  501    0 -0.00000000000E+00 -0.00000000000E+00 -0.31181293765E+03  0.31181617098E+03  0.14200000000E+01 0.  1.
         11    1    1    2    0    0  0.16183691067E+03  0.49161913610E+02  0.52033747368E+03  0.54713724596E+03  0.51100000000E-03 0.  1.
         22    1    1    2    0    0  0.75966027522E+02 -0.54332434080E+01  0.41342506154E+03  0.42038153977E+03  0.00000000000E+00 0.  1.
          4    1    1    2  501    0 -0.23780293819E+03 -0.43728670202E+02 -0.24537960541E+03  0.34449325271E+03  0.14200000000E+01 0.  1.
<mgrwt>
<rscale>  0 0.24179423E+03</rscale>
<asrwt>0</asrwt>
<pdfrwt beam="1">  1       11 0.10000000E+01 0.25333797E+03</pdfrwt>
<pdfrwt beam="2">  1        4 0.47980942E-01 0.24179423E+03</pdfrwt>
<totfact> 0.17962797E+01</totfact>
</mgrwt>
</event>
<event>
 5    1  0.1490736E-003  0.1928153E+03  0.7818608E-02  0.1166278E+00
         11   -1    0    0    0    0  0.00000000000E+00  0.00000000000E+00  0.10002295781E+04  0.10002295781E+04  0.51100000000E-03 0. -1.
         -4   -1    0    0    0  501 -0.00000000000E+00 -0.00000000000E+00 -0.13305701714E+03  0.13306459413E+03  0.14200000000E+01 0.  1.
         11    1    1    2    0    0 -0.38384562241E+02 -0.69656911069E+02  0.30965609171E+03  0.31970667026E+03  0.51100000000E-03 0. -1.
         22    1    1    2    0    0  0.11370539537E+02 -0.10990201865E+03  0.61365504030E+03  0.62352245458E+03  0.00000000000E+00 0. -1.
         -4    1    1    2    0  501  0.27014022704E+02  0.17955892972E+03 -0.56138571080E+02  0.19006504736E+03  0.14200000000E+01 0.  1.
<mgrwt>
<rscale>  0 0.18158520E+03</rscale>
<asrwt>0</asrwt>
<pdfrwt beam="1">  1       11 0.10000000E+01 0.19281529E+03</pdfrwt>
<pdfrwt beam="2">  1       -4 0.20475670E-01 0.18158520E+03</pdfrwt>
<totfact> 0.90423367E+01</totfact>
</mgrwt>
</event>
<event>
 5    1  0.1490736E-003  0.1311003E+03  0.7818608E-02  0.1231819E+00
         11   -1    0    0    0    0  0.00000000000E+00  0.00000000000E+00  0.10006471974E+04  0.10006471974E+04  0.51100000000E-03 0.  1.
          4   -1    0    0  501    0 -0.00000000000E+00 -0.00000000000E+00 -0.18377491454E+02  0.18432270401E+02  0.14200000000E+01 0. -1.
         11    1    1    2    0    0  0.15610252849E+02  0.18211129401E+02  0.88856852967E+02  0.92037305195E+02  0.51100000000E-03 0.  1.
         22    1    1    2    0    0  0.18481939336E+02  0.10422615829E+03  0.56621098647E+03  0.57602044699E+03  0.00000000000E+00 0.  1.
          4    1    1    2  501    0 -0.34092192184E+02 -0.12243728770E+03  0.32720186652E+03  0.35102171563E+03  0.14200000000E+01 0. -1.
<mgrwt>
<rscale>  0 0.12710304E+03</rscale>
<asrwt>0</asrwt>
<pdfrwt beam="1">  1       11 0.10000000E+01 0.13110029E+03</pdfrwt>
<pdfrwt beam="2">  1        4 0.28334302E-02 0.12710304E+03</pdfrwt>
<totfact> 0.23243195E+03</totfact>
</mgrwt>
</event>
<event>
 5    1  0.1490736E-003  0.4828883E+02  0.7818608E-02  0.1462879E+00
         11   -1    0    0    0    0  0.00000000000E+00  0.00000000000E+00  0.10006772212E+04  0.10006772212E+04  0.51100000000E-03 0. -1.
          4   -1    0    0  501    0 -0.00000000000E+00 -0.00000000000E+00 -0.42173255523E+01  0.44499702037E+01  0.14200000000E+01 0. -1.
         11    1    1    2    0    0  0.16319417320E+02  0.28931938218E+02  0.93993513491E+02  0.99690325555E+02  0.51100000000E-03 0. -1.
         22    1    1    2    0    0  0.11021853381E+02  0.91347056895E+01  0.60685483621E+02  0.62351038663E+02  0.00000000000E+00 0. -1.
          4    1    1    2  501    0 -0.27341270701E+02 -0.38066643908E+02  0.84178089855E+03  0.84308582720E+03  0.14200000000E+01 0. -1.
<mgrwt>
<rscale>  0 0.46889560E+02</rscale>
<asrwt>0</asrwt>
<pdfrwt beam="1">  1       11 0.10000000E+01 0.48288835E+02</pdfrwt>
<pdfrwt beam="2">  1        4 0.66724411E-03 0.46889560E+02</pdfrwt>
<totfact> 0.16203137E+04</totfact>
</mgrwt>
</event>
<event>
 5    1  0.1490736E-003  0.1393840E+03  0.7818608E-02  0.1215567E+00
         11   -1    0    0    0    0  0.00000000000E+00  0.00000000000E+00  0.99993891136E+03  0.99993891136E+03  0.51100000000E-03 0.  1.
          4   -1    0    0  501    0 -0.00000000000E+00 -0.00000000000E+00 -0.23495783434E+02  0.23538654150E+02  0.14200000000E+01 0.  1.
         11    1    1    2    0    0  0.10735421789E+03 -0.65209962871E+02  0.23621352012E+03  0.26753335202E+03  0.51100000000E-03 0.  1.
         22    1    1    2    0    0  0.12240501335E+02 -0.43287833521E+01  0.36403848844E+02  0.38649818226E+02  0.00000000000E+00 0. -1.
          4    1    1    2  501    0 -0.11959471923E+03  0.69538746223E+02  0.70382575896E+03  0.71729439526E+03  0.14200000000E+01 0.  1.
<mgrwt>
<rscale>  0 0.13834938E+03</rscale>
<asrwt>0</asrwt>
<pdfrwt beam="1">  1       11 0.10000000E+01 0.13938402E+03</pdfrwt>
<pdfrwt beam="2">  1        4 0.36178901E-02 0.13834938E+03</pdfrwt>
<totfact> 0.16061945E+03</totfact>
</mgrwt>
</event>
<event>
 5    1  0.1490736E-003  0.1145373E+03  0.7818608E-02  0.1485709E+00
         11   -1    0    0    0    0  0.00000000000E+00  0.00000000000E+00  0.10000671906E+04  0.10000671906E+04  0.51100000000E-03 0.  1.
          4   -1    0    0  501    0 -0.00000000000E+00 -0.00000000000E+00 -0.80923101604E+02  0.80935559386E+02  0.14200000000E+01 0. -1.
         11    1    1    2    0    0  0.11313546950E+03  0.91765827901E+02  0.41394795967E+03  0.43883198943E+03  0.51100000000E-03 0.  1.
         22    1    1    2    0    0 -0.82990849649E+02 -0.60813441800E+02  0.56168968129E+03  0.57103507239E+03  0.00000000000E+00 0. -1.
          4    1    1    2  501    0 -0.30144619856E+02 -0.30952386101E+02 -0.56493551989E+02  0.71135688145E+02  0.14200000000E+01 0. -1.
<mgrwt>
<rscale>  0 0.43229211E+02</rscale>
<asrwt>0</asrwt>
<pdfrwt beam="1">  1       11 0.10000000E+01 0.11453729E+03</pdfrwt>
<pdfrwt beam="2">  1        4 0.12451580E-01 0.43229211E+02</pdfrwt>
<totfact> 0.17743129E+02</totfact>
</mgrwt>
</event>
<event>
 5    1  0.1490736E-003  0.1194502E+03  0.7818608E-02  0.1254034E+00
         11   -1    0    0    0    0  0.00000000000E+00  0.00000000000E+00  0.10002115821E+04  0.10002115821E+04  0.51100000000E-03 0. -1.
          4   -1    0    0  501    0 -0.00000000000E+00 -0.00000000000E+00 -0.13563800433E+02  0.13637928076E+02  0.14200000000E+01 0. -1.
         11    1    1    2    0    0  0.43597561601E+02  0.83712941193E+02  0.42294237166E+03  0.43334611299E+03  0.51100000000E-03 0. -1.
         22    1    1    2    0    0 -0.73030036683E+01  0.23930415910E+02  0.10462741083E+03  0.10757738501E+03  0.00000000000E+00 0.  1.
          4    1    1    2  501    0 -0.36294557932E+02 -0.10764335710E+03  0.45907799920E+03  0.47292601220E+03  0.14200000000E+01 0. -1.
<mgrwt>
<rscale>  0 0.11360635E+03</rscale>
<asrwt>0</asrwt>
<pdfrwt beam="1">  1       11 0.10000000E+01 0.11945022E+03</pdfrwt>
<pdfrwt beam="2">  1        4 0.20929609E-02 0.11360635E+03</pdfrwt>
<totfact> 0.36400743E+03</totfact>
</mgrwt>
</event>
<event>
 5    1  0.1490736E-003  0.1528061E+03  0.7818608E-02  0.1202115E+00
         11   -1    0    0    0    0  0.00000000000E+00  0.00000000000E+00  0.10002504227E+04  0.10002504227E+04  0.51100000000E-03 0. -1.
         -4   -1    0    0    0  501 -0.00000000000E+00 -0.00000000000E+00 -0.34826218512E+02  0.34855155944E+02  0.14200000000E+01 0.  1.
         11    1    1    2    0    0 -0.75831377385E+02  0.89977904566E+02  0.63882994572E+03  0.64957687817E+03  0.51100000000E-03 0. -1.
         22    1    1    2    0    0 -0.32538795986E+02  0.11791937411E+02  0.15349153448E+03  0.15734507997E+03  0.00000000000E+00 0.  1.
         -4    1    1    2    0  501  0.10837017337E+03 -0.10176984198E+03  0.17310272396E+03  0.22818362048E+03  0.14200000000E+01 0.  1.
<mgrwt>
<rscale>  0 0.14867149E+03</rscale>
<asrwt>0</asrwt>
<pdfrwt beam="1">  1       11 0.10000000E+01 0.15280615E+03</pdfrwt>
<pdfrwt beam="2">  1       -4 0.53615254E-02 0.14867149E+03</pdfrwt>
<totfact> 0.86599296E+02</totfact>
</mgrwt>
</event>
<event>
 5    1  0.1490736E-003  0.1858684E+03  0.7818608E-02  0.1162241E+00
         11   -1    0    0    0    0  0.00000000000E+00  0.00000000000E+00  0.10000103254E+04  0.10000103254E+04  0.51100000000E-03 0.  1.
         -4   -1    0    0    0  501 -0.00000000000E+00 -0.00000000000E+00 -0.13710100815E+03  0.13710836166E+03  0.14200000000E+01 0.  1.
         11    1    1    2    0    0  0.26306387967E+02  0.14456365341E+03  0.67948807988E+02  0.16188797498E+03  0.51100000000E-03 0.  1.
         22    1    1    2    0    0 -0.20609010804E+03 -0.94469937739E+02  0.74963694081E+03  0.78316872052E+03  0.00000000000E+00 0.  1.
         -4    1    1    2    0  501  0.17978372007E+03 -0.50093715669E+02  0.45323568469E+02  0.19206199158E+03  0.14200000000E+01 0.  1.
<mgrwt>
<rscale>  0 0.18586840E+03</rscale>
<asrwt>0</asrwt>
<pdfrwt beam="1">  1       11 0.10000000E+01 0.14693773E+03</pdfrwt>
<pdfrwt beam="2">  1       -4 0.21093323E-01 0.18586840E+03</pdfrwt>
<totfact> 0.85850802E+01</totfact>
</mgrwt>
</event>
<event>
 5    1  0.1490736E-003  0.7637316E+02  0.7818608E-02  0.1382261E+00
         11   -1    0    0    0    0  0.00000000000E+00  0.00000000000E+00  0.10000840280E+04  0.10000840280E+04  0.51100000000E-03 0. -1.
          4   -1    0    0  501    0 -0.00000000000E+00 -0.00000000000E+00 -0.12636231255E+02  0.12715767391E+02  0.14200000000E+01 0. -1.
         11    1    1    2    0    0 -0.63769825324E+02 -0.45243062333E+01  0.19793678567E+03  0.20800488237E+03  0.51100000000E-03 0. -1.
         22    1    1    2    0    0 -0.12133496715E+02  0.52013201577E+02  0.15383668427E+03  0.16284446661E+03  0.00000000000E+00 0. -1.
          4    1    1    2  501    0  0.75903322039E+02 -0.47488895343E+02  0.63567432686E+03  0.64195044646E+03  0.14200000000E+01 0. -1.
<mgrwt>
<rscale>  0 0.63873074E+02</rscale>
<asrwt>0</asrwt>
<pdfrwt beam="1">  1       11 0.10000000E+01 0.76373158E+02</pdfrwt>
<pdfrwt beam="2">  1        4 0.19503951E-02 0.63873074E+02</pdfrwt>
<totfact> 0.35896808E+03</totfact>
</mgrwt>
</event>
<event>
 5    1  0.1490736E-003  0.2842582E+02  0.7818608E-02  0.1643141E+00
         11   -1    0    0    0    0  0.00000000000E+00  0.00000000000E+00  0.10003622730E+04  0.10003622730E+04  0.51100000000E-03 0.  1.
          4   -1    0    0  501    0 -0.00000000000E+00 -0.00000000000E+00 -0.15430337735E+01  0.20969867015E+01  0.14200000000E+01 0.  1.
         11    1    1    2    0    0  0.86299538607E+01 -0.84884133442E+01  0.40889233729E+02  0.42643389874E+02  0.51100000000E-03 0.  1.
         22    1    1    2    0    0  0.15632388150E+02 -0.15347901544E+01  0.81968217249E+02  0.83459665582E+02  0.00000000000E+00 0.  1.
          4    1    1    2  501    0 -0.24262342011E+02  0.10023203499E+02  0.87596178829E+03  0.87635620429E+03  0.14200000000E+01 0.  1.
<mgrwt>
<rscale>  0 0.26289584E+02</rscale>
<asrwt>0</asrwt>
<pdfrwt beam="1">  1       11 0.10000000E+01 0.28425822E+02</pdfrwt>
<pdfrwt beam="2">  1        4 0.28018056E-03 0.26289584E+02</pdfrwt>
<totfact> 0.45625169E+04</totfact>
</mgrwt>
</event>
<event>
 5    1  0.1490736E-003  0.8343461E+02  0.7818608E-02  0.1319578E+00
         11   -1    0    0    0    0  0.00000000000E+00  0.00000000000E+00  0.10001442191E+04  0.10001442191E+04  0.51100000000E-03 0. -1.
          4   -1    0    0  501    0 -0.00000000000E+00 -0.00000000000E+00 -0.10610176477E+02  0.10704776731E+02  0.14200000000E+01 0. -1.
         11    1    1    2    0    0  0.51885994075E+02 -0.71331070499E+02  0.33702687087E+03  0.34837822792E+03  0.51100000000E-03 0. -1.
         22    1    1    2    0    0 -0.32974482542E+02 -0.71207923188E+01  0.19764637379E+03  0.20050464148E+03  0.00000000000E+00 0. -1.
          4    1    1    2  501    0 -0.18911511533E+02  0.78451862818E+02  0.45486079797E+03  0.46196612644E+03  0.14200000000E+01 0. -1.
<mgrwt>
<rscale>  0 0.83434610E+02</rscale>
<asrwt>0</asrwt>
<pdfrwt beam="1">  1       11 0.10000000E+01 0.33734584E+02</pdfrwt>
<pdfrwt beam="2">  1        4 0.16399258E-02 0.83434610E+02</pdfrwt>
<totfact> 0.49570163E+03</totfact>
</mgrwt>
</event>
<event>
 5    1  0.1490736E-003  0.2371673E+02  0.7818608E-02  0.1680149E+00
         11   -1    0    0    0    0  0.00000000000E+00  0.00000000000E+00  0.10003330526E+04  0.10003330526E+04  0.51100000000E-03 0. -1.
          4   -1    0    0  501    0 -0.00000000000E+00 -0.00000000000E+00 -0.30359403488E+01  0.33516165952E+01  0.14200000000E+01 0. -1.
         11    1    1    2    0    0  0.64766771733E-01  0.10413754596E+02  0.11992544849E+02  0.15883060528E+02  0.51100000000E-03 0. -1.
         22    1    1    2    0    0 -0.23620180064E+02  0.59109874086E+00  0.13187441851E+03  0.13397434292E+03  0.00000000000E+00 0. -1.
          4    1    1    2  501    0  0.23555413293E+02 -0.11004853337E+02  0.85343014891E+03  0.85382726576E+03  0.14200000000E+01 0. -1.
<mgrwt>
<rscale>  0 0.23716728E+02</rscale>
<asrwt>0</asrwt>
<pdfrwt beam="1">  1       11 0.10000000E+01 0.10413961E+02</pdfrwt>
<pdfrwt beam="2">  1        4 0.49159172E-03 0.23716728E+02</pdfrwt>
<totfact> 0.19792532E+04</totfact>
</mgrwt>
</event>
<event>
 5    1  0.1490736E-003  0.6716604E+02  0.7818608E-02  0.1377699E+00
         11   -1    0    0    0    0  0.00000000000E+00  0.00000000000E+00  0.10001901884E+04  0.10001901884E+04  0.51100000000E-03 0.  1.
          4   -1    0    0  501    0 -0.00000000000E+00 -0.00000000000E+00 -0.91710403183E+01  0.92803222207E+01  0.14200000000E+01 0.  1.
         11    1    1    2    0    0  0.16107963419E+02 -0.25949710987E+02  0.54337746166E+02  0.62333334938E+02  0.51100000000E-03 0.  1.
         22    1    1    2    0    0  0.31166310209E+02 -0.18744206933E+02  0.78760201864E+02  0.86751677697E+02  0.00000000000E+00 0.  1.
          4    1    1    2  501    0 -0.47274273628E+02  0.44693917920E+02  0.85792120002E+03  0.86038549796E+03  0.14200000000E+01 0.  1.
<mgrwt>
<rscale>  0 0.65072418E+02</rscale>
<asrwt>0</asrwt>
<pdfrwt beam="1">  1       11 0.10000000E+01 0.67166042E+02</pdfrwt>
<pdfrwt beam="2">  1        4 0.14196830E-02 0.65072418E+02</pdfrwt>
<totfact> 0.58154084E+03</totfact>
</mgrwt>
</event>
<event>
 5    1  0.1490736E-003  0.1933965E+03  0.7818608E-02  0.1167516E+00
         11   -1    0    0    0    0  0.00000000000E+00  0.00000000000E+00  0.10003061359E+04  0.10003061359E+04  0.51100000000E-03 0. -1.
          4   -1    0    0  501    0 -0.00000000000E+00 -0.00000000000E+00 -0.21045425284E+03  0.21045904338E+03  0.14200000000E+01 0. -1.
         11    1    1    2    0    0  0.13200263381E+03  0.29159594597E+02  0.66183513351E+03  0.67550034880E+03  0.51100000000E-03 0. -1.
         22    1    1    2    0    0  0.30053851913E+02  0.49850354807E+02  0.28824246628E+03  0.29406123726E+03  0.00000000000E+00 0.  1.
          4    1    1    2  501    0 -0.16205648572E+03 -0.79009949404E+02 -0.16022571675E+03  0.24120359321E+03  0.14200000000E+01 0. -1.
<mgrwt>
<rscale>  0 0.18029668E+03</rscale>
<asrwt>0</asrwt>
<pdfrwt beam="1">  1       11 0.10000000E+01 0.19339654E+03</pdfrwt>
<pdfrwt beam="2">  1        4 0.32387935E-01 0.18029668E+03</pdfrwt>
<totfact> 0.38422436E+01</totfact>
</mgrwt>
</event>
<event>
 5    1  0.1490736E-003  0.7915374E+02  0.7818608E-02  0.1331470E+00
         11   -1    0    0    0    0  0.00000000000E+00  0.00000000000E+00  0.10003314441E+04  0.10003314441E+04  0.51100000000E-03 0. -1.
          4   -1    0    0  501    0 -0.00000000000E+00 -0.00000000000E+00 -0.20993243856E+02  0.21041214024E+02  0.14200000000E+01 0. -1.
         11    1    1    2    0    0  0.36584690349E+01 -0.84243505156E+02  0.44624917927E+03  0.45414610265E+03  0.51100000000E-03 0. -1.
         22    1    1    2    0    0  0.69520447519E+02  0.54108062026E+02  0.42030754393E+03  0.42944057387E+03  0.00000000000E+00 0. -1.
          4    1    1    2  501    0 -0.73178916554E+02  0.30135443130E+02  0.11278147702E+03  0.13778598158E+03  0.14200000000E+01 0. -1.
<mgrwt>
<rscale>  0 0.79153744E+02</rscale>
<asrwt>0</asrwt>
<pdfrwt beam="1">  1       11 0.10000000E+01 0.76513981E+02</pdfrwt>
<pdfrwt beam="2">  1        4 0.32345690E-02 0.79153744E+02</pdfrwt>
<totfact> 0.17316178E+03</totfact>
</mgrwt>
</event>
<event>
 5    1  0.1490736E-003  0.1961394E+03  0.7818608E-02  0.1153038E+00
         11   -1    0    0    0    0  0.00000000000E+00  0.00000000000E+00  0.10001497832E+04  0.10001497832E+04  0.51100000000E-03 0. -1.
          4   -1    0    0  501    0 -0.00000000000E+00 -0.00000000000E+00 -0.10436852523E+03  0.10437818478E+03  0.14200000000E+01 0. -1.
         11    1    1    2    0    0 -0.47826690856E+01  0.16079925032E+03  0.24669219036E+03  0.29451028778E+03  0.51100000000E-03 0. -1.
         22    1    1    2    0    0 -0.17961042681E+03 -0.51692603430E+02  0.53619528961E+03  0.56783573264E+03  0.00000000000E+00 0. -1.
          4    1    1    2  501    0  0.18439309590E+03 -0.10910664689E+03  0.11289377802E+03  0.24218194756E+03  0.14200000000E+01 0. -1.
<mgrwt>
<rscale>  0 0.19613940E+03</rscale>
<asrwt>0</asrwt>
<pdfrwt beam="1">  1       11 0.10000000E+01 0.16087036E+03</pdfrwt>
<pdfrwt beam="2">  1        4 0.16059921E-01 0.19613940E+03</pdfrwt>
<totfact> 0.14077575E+02</totfact>
</mgrwt>
</event>
<event>
 5    1  0.1490736E-003  0.6416910E+02  0.7818608E-02  0.1438936E+00
         11   -1    0    0    0    0  0.00000000000E+00  0.00000000000E+00  0.10001391376E+04  0.10001391376E+04  0.51100000000E-03 0. -1.
          4   -1    0    0  501    0 -0.00000000000E+00 -0.00000000000E+00 -0.12213829186E+02  0.12296097892E+02  0.14200000000E+01 0. -1.
         11    1    1    2    0    0 -0.36045447552E+02 -0.33709219710E+02  0.12532551069E+03  0.13469249947E+03  0.51100000000E-03 0. -1.
         22    1    1    2    0    0 -0.34501106839E+02  0.21879707630E+02  0.63891792621E+02  0.75836726877E+02  0.00000000000E+00 0. -1.
          4    1    1    2  501    0  0.70546554391E+02  0.11829512080E+02  0.79870800514E+03  0.80190600918E+03  0.14200000000E+01 0. -1.
<mgrwt>
<rscale>  0 0.51207458E+02</rscale>
<asrwt>0</asrwt>
<pdfrwt beam="1">  1       11 0.10000000E+01 0.64169098E+02</pdfrwt>
<pdfrwt beam="2">  1        4 0.18857188E-02 0.51207458E+02</pdfrwt>
<totfact> 0.35792709E+03</totfact>
</mgrwt>
</event>
<event>
 5    1  0.1490736E-003  0.3711526E+03  0.7818608E-02  0.1054718E+00
         11   -1    0    0    0    0  0.00000000000E+00  0.00000000000E+00  0.10004911211E+04  0.10004911211E+04  0.51100000000E-03 0. -1.
         -4   -1    0    0    0  501 -0.00000000000E+00 -0.00000000000E+00 -0.13781284157E+03  0.13782015710E+03  0.14200000000E+01 0. -1.
         11    1    1    2    0    0 -0.35434280647E+03  0.22879023719E+02  0.36975913908E+03  0.51264421888E+03  0.51100000000E-03 0. -1.
         22    1    1    2    0    0 -0.14678838464E+02  0.30714471776E+01  0.25316658470E+02  0.29425079142E+02  0.00000000000E+00 0. -1.
         -4    1    1    2    0  501  0.36902164493E+03 -0.25950470896E+02  0.46760248196E+03  0.59624198015E+03  0.14200000000E+01 0. -1.
<mgrwt>
<rscale>  0 0.36993569E+03</rscale>
<asrwt>0</asrwt>
<pdfrwt beam="1">  1       11 0.10000000E+01 0.37115258E+03</pdfrwt>
<pdfrwt beam="2">  1       -4 0.21213028E-01 0.36993569E+03</pdfrwt>
<totfact> 0.89718929E+01</totfact>
</mgrwt>
</event>
<event>
 5    1  0.1490736E-003  0.1947976E+03  0.7818608E-02  0.1156508E+00
         11   -1    0    0    0    0  0.00000000000E+00  0.00000000000E+00  0.99999648161E+03  0.99999648161E+03  0.51100000000E-03 0. -1.
         -4   -1    0    0    0  501 -0.00000000000E+00 -0.00000000000E+00 -0.48983529936E+02  0.49004108042E+02  0.14200000000E+01 0.  1.
         11    1    1    2    0    0 -0.16791341591E+03 -0.58040768850E+02  0.67299761118E+03  0.69605274997E+03  0.51100000000E-03 0. -1.
         22    1    1    2    0    0 -0.16565620184E+02  0.41940680457E+01  0.59686392414E+02  0.62084421703E+02  0.00000000000E+00 0.  1.
         -4    1    1    2    0  501  0.18447903610E+03  0.53846700804E+02  0.21832894808E+03  0.29086341798E+03  0.14200000000E+01 0.  1.
<mgrwt>
<rscale>  0 0.19218220E+03</rscale>
<asrwt>0</asrwt>
<pdfrwt beam="1">  1       11 0.10000000E+01 0.19479764E+03</pdfrwt>
<pdfrwt beam="2">  1       -4 0.75375614E-02 0.19218220E+03</pdfrwt>
<totfact> 0.51297067E+02</totfact>
</mgrwt>
</event>
<event>
 5    1  0.1490736E-003  0.5555082E+02  0.7818608E-02  0.1417512E+00
         11   -1    0    0    0    0  0.00000000000E+00  0.00000000000E+00  0.10002419593E+04  0.10002419593E+04  0.51100000000E-03 0. -1.
          4   -1    0    0  501    0 -0.00000000000E+00 -0.00000000000E+00 -0.84539655175E+01  0.85723936546E+01  0.14200000000E+01 0.  1.
         11    1    1    2    0    0  0.27518631507E+02  0.44949573327E+02  0.16813963172E+03  0.17620634204E+03  0.51100000000E-03 0. -1.
         22    1    1    2    0    0  0.41928208135E+02 -0.15832236836E+02  0.24338839262E+03  0.24748039118E+03  0.00000000000E+00 0. -1.
          4    1    1    2  501    0 -0.69446839642E+02 -0.29117336492E+02  0.58025996941E+03  0.58512761968E+03  0.14200000000E+01 0.  1.
<mgrwt>
<rscale>  0 0.55550821E+02</rscale>
<asrwt>0</asrwt>
<pdfrwt beam="1">  1       11 0.10000000E+01 0.44817791E+02</pdfrwt>
<pdfrwt beam="2">  1        4 0.13101144E-02 0.55550821E+02</pdfrwt>
<totfact> 0.63000575E+03</totfact>
</mgrwt>
</event>
<event>
 5    1  0.1490736E-003  0.1096962E+03  0.7818608E-02  0.1386356E+00
         11   -1    0    0    0    0  0.00000000000E+00  0.00000000000E+00  0.10005164304E+04  0.10005164304E+04  0.51100000000E-03 0. -1.
          4   -1    0    0  501    0 -0.00000000000E+00 -0.00000000000E+00 -0.19916876917E+02  0.19967433138E+02  0.14200000000E+01 0. -1.
         11    1    1    2    0    0  0.56486685587E+02  0.85628920194E+02  0.21387419708E+03  0.23720292958E+03  0.51100000000E-03 0. -1.
         22    1    1    2    0    0  0.32869397241E+02 -0.14621485377E+02  0.88745825688E+02  0.95760151873E+02  0.00000000000E+00 0. -1.
          4    1    1    2  501    0 -0.89356082828E+02 -0.71007434817E+02  0.67797953076E+03  0.68752078213E+03  0.14200000000E+01 0. -1.
<mgrwt>
<rscale>  0 0.62822177E+02</rscale>
<asrwt>0</asrwt>
<pdfrwt beam="1">  1       11 0.10000000E+01 0.10969620E+03</pdfrwt>
<pdfrwt beam="2">  1        4 0.30696857E-02 0.62822177E+02</pdfrwt>
<totfact> 0.17896602E+03</totfact>
</mgrwt>
</event>
<event>
 5    1  0.1490736E-003  0.6541411E+02  0.7818608E-02  0.1394291E+00
         11   -1    0    0    0    0  0.00000000000E+00  0.00000000000E+00  0.10001348717E+04  0.10001348717E+04  0.51100000000E-03 0.  1.
          4   -1    0    0  501    0 -0.00000000000E+00 -0.00000000000E+00 -0.46250366798E+01  0.48381157788E+01  0.14200000000E+01 0.  1.
         11    1    1    2    0    0  0.23242803951E+02  0.14221869622E+02  0.11822465476E+03  0.12132418764E+03  0.51100000000E-03 0.  1.
         22    1    1    2    0    0  0.37211842045E+02 -0.74270207500E+01  0.19516229205E+03  0.19881700648E+03  0.00000000000E+00 0.  1.
          4    1    1    2  501    0 -0.60454645995E+02 -0.67948488716E+01  0.68212288822E+03  0.68483179338E+03  0.14200000000E+01 0.  1.
<mgrwt>
<rscale>  0 0.60851874E+02</rscale>
<asrwt>0</asrwt>
<pdfrwt beam="1">  1       11 0.10000000E+01 0.65414110E+02</pdfrwt>
<pdfrwt beam="2">  1        4 0.72811052E-03 0.60851874E+02</pdfrwt>
<totfact> 0.15371762E+04</totfact>
</mgrwt>
</event>
<event>
 5    1  0.1490736E-003  0.2126759E+03  0.7818608E-02  0.1143072E+00
         11   -1    0    0    0    0  0.00000000000E+00  0.00000000000E+00  0.10000452195E+04  0.10000452195E+04  0.51100000000E-03 0.  1.
         -4   -1    0    0    0  501 -0.00000000000E+00 -0.00000000000E+00 -0.51293174626E+02  0.51312826498E+02  0.14200000000E+01 0. -1.
         11    1    1    2    0    0  0.12745738361E+03  0.10927354484E+03  0.59179322575E+03  0.61514657951E+03  0.51100000000E-03 0.  1.
         22    1    1    2    0    0  0.33077197539E+02  0.23149871688E+02  0.81752707811E+02  0.91178521542E+02  0.00000000000E+00 0.  1.
         -4    1    1    2    0  501 -0.16053458115E+03 -0.13242341653E+03  0.27520611128E+03  0.34503294491E+03  0.14200000000E+01 0. -1.
<mgrwt>
<rscale>  0 0.20810894E+03</rscale>
<asrwt>0</asrwt>
<pdfrwt beam="1">  1       11 0.10000000E+01 0.21267587E+03</pdfrwt>
<pdfrwt beam="2">  1       -4 0.78932036E-02 0.20810894E+03</pdfrwt>
<totfact> 0.47962438E+02</totfact>
</mgrwt>
</event>
<event>
 5    1  0.1490736E-003  0.1097824E+03  0.7818608E-02  0.1260973E+00
         11   -1    0    0    0    0  0.00000000000E+00  0.00000000000E+00  0.10003012878E+04  0.10003012878E+04  0.51100000000E-03 0. -1.
          4   -1    0    0  501    0 -0.00000000000E+00 -0.00000000000E+00 -0.18358309113E+02  0.18413145128E+02  0.14200000000E+01 0. -1.
         11    1    1    2    0    0 -0.92400126323E+02  0.53890851101E+02  0.38538872291E+03  0.39995809146E+03  0.51100000000E-03 0. -1.
         22    1    1    2    0    0  0.21606029135E+02  0.38881226231E+02  0.22309824846E+03  0.22748933758E+03  0.00000000000E+00 0.  1.
          4    1    1    2  501    0  0.70794097188E+02 -0.92772077331E+02  0.37345600733E+03  0.39126700390E+03  0.14200000000E+01 0. -1.
<mgrwt>
<rscale>  0 0.10978240E+03</rscale>
<asrwt>0</asrwt>
<pdfrwt beam="1">  1       11 0.10000000E+01 0.44481122E+02</pdfrwt>
<pdfrwt beam="2">  1        4 0.28295031E-02 0.10978240E+03</pdfrwt>
<totfact> 0.22693013E+03</totfact>
</mgrwt>
</event>
<event>
 5    1  0.1490736E-003  0.1558802E+03  0.7818608E-02  0.1197117E+00
         11   -1    0    0    0    0  0.00000000000E+00  0.00000000000E+00  0.99996028884E+03  0.99996028884E+03  0.51100000000E-03 0.  1.
         -4   -1    0    0    0  501 -0.00000000000E+00 -0.00000000000E+00 -0.26495384141E+02  0.26533408766E+02  0.14200000000E+01 0. -1.
         11    1    1    2    0    0  0.61786141518E+02 -0.72313921331E+02  0.45465369420E+03  0.46449629939E+03  0.51100000000E-03 0.  1.
         22    1    1    2    0    0  0.25840041711E+02 -0.52811870570E+02  0.20022530326E+03  0.20867911610E+03  0.00000000000E+00 0.  1.
         -4    1    1    2    0  501 -0.87626183229E+02  0.12512579190E+03  0.31858590724E+03  0.35331828212E+03  0.14200000000E+01 0. -1.
<mgrwt>
<rscale>  0 0.15276396E+03</rscale>
<asrwt>0</asrwt>
<pdfrwt beam="1">  1       11 0.10000000E+01 0.15588021E+03</pdfrwt>
<pdfrwt beam="2">  1       -4 0.40790534E-02 0.15276396E+03</pdfrwt>
<totfact> 0.13486111E+03</totfact>
</mgrwt>
</event>
<event>
 5    1  0.1490736E-003  0.8553005E+02  0.7818608E-02  0.1321044E+00
         11   -1    0    0    0    0  0.00000000000E+00  0.00000000000E+00  0.99996785425E+03  0.99996785425E+03  0.51100000000E-03 0.  1.
          4   -1    0    0  501    0 -0.00000000000E+00 -0.00000000000E+00 -0.72389745154E+01  0.73769337827E+01  0.14200000000E+01 0.  1.
         11    1    1    2    0    0  0.67265546938E+02 -0.31696059883E+02  0.36886424263E+03  0.37628463098E+03  0.51100000000E-03 0.  1.
         22    1    1    2    0    0  0.10592664457E+02  0.32912333278E+01  0.48290896473E+02  0.49548435286E+02  0.00000000000E+00 0. -1.
          4    1    1    2  501    0 -0.77858211395E+02  0.28404826555E+02  0.57557374063E+03  0.58151172177E+03  0.14200000000E+01 0.  1.
<mgrwt>
<rscale>  0 0.82889997E+02</rscale>
<asrwt>0</asrwt>
<pdfrwt beam="1">  1       11 0.10000000E+01 0.85530055E+02</pdfrwt>
<pdfrwt beam="2">  1        4 0.11243420E-02 0.82889997E+02</pdfrwt>
<totfact> 0.87324325E+03</totfact>
</mgrwt>
</event>
<event>
 5    1  0.1490736E-003  0.1432643E+03  0.7818608E-02  0.1684511E+00
         11   -1    0    0    0    0  0.00000000000E+00  0.00000000000E+00  0.99992425555E+03  0.99992425555E+03  0.51100000000E-03 0.  1.
          4   -1    0    0  501    0 -0.00000000000E+00 -0.00000000000E+00 -0.29362544150E+02  0.29396860359E+02  0.14200000000E+01 0.  1.
         11    1    1    2    0    0  0.10236442038E+03  0.10787123717E+03  0.56538770764E+03  0.58461777113E+03  0.51100000000E-03 0.  1.
         22    1    1    2    0    0 -0.79388213284E+02 -0.11227631201E+03  0.39657454847E+03  0.41973781238E+03  0.00000000000E+00 0.  1.
          4    1    1    2  501    0 -0.22976207094E+02  0.44050748382E+01  0.85994552894E+01  0.24965532400E+02  0.14200000000E+01 0.  1.
<mgrwt>
<rscale>  0 0.23437730E+02</rscale>
<asrwt>0</asrwt>
<pdfrwt beam="1">  1       11 0.10000000E+01 0.14326435E+03</pdfrwt>
<pdfrwt beam="2">  1        4 0.45196893E-02 0.23437730E+02</pdfrwt>
<totfact> 0.76807233E+02</totfact>
</mgrwt>
</event>
<event>
 5    1  0.1490736E-003  0.7573899E+03  0.7818608E-02  0.9623828E-01
         11   -1    0    0    0    0  0.00000000000E+00  0.00000000000E+00  0.10002608307E+04  0.10002608307E+04  0.51100000000E-03 0. -1.
          4   -1    0    0  501    0 -0.00000000000E+00 -0.00000000000E+00 -0.87590626292E+03  0.87590741396E+03  0.14200000000E+01 0. -1.
         11    1    1    2    0    0 -0.24991986843E+03 -0.70850932760E+03  0.57162875174E+03  0.94403645996E+03  0.51100000000E-03 0. -1.
         22    1    1    2    0    0  0.18728855945E+02 -0.14581574442E+02  0.27822233962E+02  0.36571424102E+02  0.00000000000E+00 0. -1.
          4    1    1    2  501    0  0.23119101249E+03  0.72309090204E+03 -0.47509641788E+03  0.89556036064E+03  0.14200000000E+01 0. -1.
<mgrwt>
<rscale>  0 0.75738988E+03</rscale>
<asrwt>0</asrwt>
<pdfrwt beam="1">  1       11 0.10000000E+01 0.23735888E+02</pdfrwt>
<pdfrwt beam="2">  1        4 0.13479012E+00 0.75738988E+03</pdfrwt>
<totfact> 0.17404542E+00</totfact>
</mgrwt>
</event>
<event>
 5    1  0.1490736E-003  0.3691173E+02  0.7818608E-02  0.1558007E+00
         11   -1    0    0    0    0  0.00000000000E+00  0.00000000000E+00  0.10001369140E+04  0.10001369140E+04  0.51100000000E-03 0. -1.
          4   -1    0    0  501    0 -0.00000000000E+00 -0.00000000000E+00 -0.27005283374E+01  0.30511068977E+01  0.14200000000E+01 0. -1.
         11    1    1    2    0    0 -0.99005593208E+01 -0.23248930868E+02  0.76664351774E+02  0.80721476043E+02  0.51100000000E-03 0. -1.
         22    1    1    2    0    0 -0.96837755118E+01 -0.44624303121E+01  0.54738157659E+02  0.55766967789E+02  0.00000000000E+00 0.  1.
          4    1    1    2  501    0  0.19584334833E+02  0.27711361180E+02  0.86603387624E+03  0.86669957708E+03  0.14200000000E+01 0. -1.
<mgrwt>
<rscale>  0 0.33962952E+02</rscale>
<asrwt>0</asrwt>
<pdfrwt beam="1">  1       11 0.10000000E+01 0.36911730E+02</pdfrwt>
<pdfrwt beam="2">  1        4 0.44257160E-03 0.33962952E+02</pdfrwt>
<totfact> 0.26341861E+04</totfact>
</mgrwt>
</event>
<event>
 5    1  0.3152819E-003  0.1740890E+03  0.7818608E-02  0.1176249E+00
         11   -1    0    0    0    0  0.00000000000E+00  0.00000000000E+00  0.10000664681E+04  0.10000664681E+04  0.51100000000E-03 0. -1.
         -4   -1    0    0    0  501 -0.00000000000E+00 -0.00000000000E+00 -0.29493365156E+03  0.29493706994E+03  0.14200000000E+01 0.  1.
         11    1    1    2    0    0 -0.53179099843E+01  0.15820768320E+03  0.89320840629E+03  0.90712689755E+03  0.51100000000E-03 0. -1.
         22    1    1    2    0    0  0.80907469121E+01  0.13305814183E+02  0.73465725309E+02  0.75098053716E+02  0.00000000000E+00 0.  1.
         -4    1    1    2    0  501 -0.27728369278E+01 -0.17151349738E+03 -0.26154131510E+03  0.31277858673E+03  0.14200000000E+01 0.  1.
<mgrwt>
<rscale>  0 0.17154179E+03</rscale>
<asrwt>0</asrwt>
<pdfrwt beam="1">  1       11 0.10000000E+01 0.17408900E+03</pdfrwt>
<pdfrwt beam="2">  1       -4 0.45377763E-01 0.17154179E+03</pdfrwt>
<totfact> 0.19727304E+01</totfact>
</mgrwt>
</event>
<event>
 5    1  0.1490736E-003  0.2377224E+02  0.7818608E-02  0.1679290E+00
         11   -1    0    0    0    0  0.00000000000E+00  0.00000000000E+00  0.10002478257E+04  0.10002478257E+04  0.51100000000E-03 0. -1.
          4   -1    0    0  501    0 -0.00000000000E+00 -0.00000000000E+00 -0.29856678970E+01  0.33061477268E+01  0.14200000000E+01 0. -1.
         11    1    1    2    0    0 -0.12906800027E+02  0.26460150318E+01  0.23429970658E+02  0.26880297762E+02  0.51100000000E-03 0. -1.
         22    1    1    2    0    0 -0.18507666731E+02  0.12420134479E+02  0.11535327519E+03  0.11748689955E+03  0.00000000000E+00 0. -1.
          4    1    1    2  501    0  0.31414466758E+02 -0.15066149511E+02  0.85847891198E+03  0.85918677614E+03  0.14200000000E+01 0. -1.
<mgrwt>
<rscale>  0 0.23772245E+02</rscale>
<asrwt>0</asrwt>
<pdfrwt beam="1">  1       11 0.10000000E+01 0.13175244E+02</pdfrwt>
<pdfrwt beam="2">  1        4 0.48418330E-03 0.23772245E+02</pdfrwt>
<totfact> 0.20242187E+04</totfact>
</mgrwt>
</event>
<event>
 5    1  0.1490736E-003  0.6661720E+02  0.7818608E-02  0.1469907E+00
         11   -1    0    0    0    0  0.00000000000E+00  0.00000000000E+00  0.10001776650E+04  0.10001776650E+04  0.51100000000E-03 0.  1.
          4   -1    0    0  501    0 -0.00000000000E+00 -0.00000000000E+00 -0.70713552402E+01  0.72125213992E+01  0.14200000000E+01 0.  1.
         11    1    1    2    0    0 -0.16275837163E+02 -0.71481039840E+02  0.43877820299E+03  0.44486037512E+03  0.51100000000E-03 0.  1.
         22    1    1    2    0    0  0.30050493399E+02  0.89976016258E+01  0.16071976703E+03  0.16375235113E+03  0.00000000000E+00 0.  1.
          4    1    1    2  501    0 -0.13774656236E+02  0.62483438214E+02  0.39360833972E+03  0.39877746013E+03  0.14200000000E+01 0.  1.
<mgrwt>
<rscale>  0 0.45718287E+02</rscale>
<asrwt>0</asrwt>
<pdfrwt beam="1">  1       11 0.10000000E+01 0.66617198E+02</pdfrwt>
<pdfrwt beam="2">  1        4 0.10990325E-02 0.45718287E+02</pdfrwt>
<totfact> 0.77486055E+03</totfact>
</mgrwt>
</event>
<event>
 5    1  0.1490736E-003  0.2400188E+03  0.7818608E-02  0.1119780E+00
         11   -1    0    0    0    0  0.00000000000E+00  0.00000000000E+00  0.10001642486E+04  0.10001642486E+04  0.51100000000E-03 0.  1.
          4   -1    0    0  501    0 -0.00000000000E+00 -0.00000000000E+00 -0.10393682879E+03  0.10394652846E+03  0.14200000000E+01 0.  1.
         11    1    1    2    0    0  0.22020227909E+03 -0.68633566703E+02  0.76216735849E+03  0.79630314111E+03  0.51100000000E-03 0.  1.
         22    1    1    2    0    0  0.15413371213E+02  0.12579408917E+02  0.45968190628E+02  0.50088802047E+02  0.00000000000E+00 0.  1.
          4    1    1    2  501    0 -0.23561565030E+03  0.56054157786E+02  0.88091870712E+02  0.25771883392E+03  0.14200000000E+01 0.  1.
<mgrwt>
<rscale>  0 0.24001876E+03</rscale>
<asrwt>0</asrwt>
<pdfrwt beam="1">  1       11 0.10000000E+01 0.19895063E+02</pdfrwt>
<pdfrwt beam="2">  1        4 0.15993731E-01 0.24001876E+03</pdfrwt>
<totfact> 0.14452817E+02</totfact>
</mgrwt>
</event>
<event>
 5    1  0.1490736E-003  0.3836054E+02  0.7818608E-02  0.1546983E+00
         11   -1    0    0    0    0  0.00000000000E+00  0.00000000000E+00  0.10001425032E+04  0.10001425032E+04  0.51100000000E-03 0. -1.
          4   -1    0    0  501    0 -0.00000000000E+00 -0.00000000000E+00 -0.25404897355E+01  0.29104102969E+01  0.14200000000E+01 0. -1.
         11    1    1    2    0    0  0.14780717887E+02  0.39618328243E+01  0.39279905947E+02  0.42155388173E+02  0.51100000000E-03 0. -1.
         22    1    1    2    0    0  0.20364034328E+02 -0.31507483259E+01  0.11431251507E+03  0.11615494914E+03  0.00000000000E+00 0. -1.
          4    1    1    2  501    0 -0.35144752215E+02 -0.81108449840E+00  0.84400959246E+03  0.84474257619E+03  0.14200000000E+01 0. -1.
<mgrwt>
<rscale>  0 0.35182778E+02</rscale>
<asrwt>0</asrwt>
<pdfrwt beam="1">  1       11 0.10000000E+01 0.38360541E+02</pdfrwt>
<pdfrwt beam="2">  1        4 0.41943730E-03 0.35182778E+02</pdfrwt>
<totfact> 0.28799732E+04</totfact>
</mgrwt>
</event>
<event>
 5    1  0.1490736E-003  0.1230624E+03  0.7818608E-02  0.1238129E+00
         11   -1    0    0    0    0  0.00000000000E+00  0.00000000000E+00  0.10003766420E+04  0.10003766420E+04  0.51100000000E-03 0.  1.
          4   -1    0    0  501    0 -0.00000000000E+00 -0.00000000000E+00 -0.21432033027E+03  0.21432503439E+03  0.14200000000E+01 0.  1.
         11    1    1    2    0    0  0.88134260755E+02 -0.21666173404E+02  0.69784494353E+02  0.11448557394E+03  0.51100000000E-03 0.  1.
         22    1    1    2    0    0 -0.14997902399E+03  0.12639129576E+03  0.87699363602E+03  0.89865805783E+03  0.00000000000E+00 0.  1.
          4    1    1    2  501    0  0.61844763236E+02 -0.10472512236E+03 -0.16072181860E+03  0.20155804466E+03  0.14200000000E+01 0.  1.
<mgrwt>
<rscale>  0 0.12306242E+03</rscale>
<asrwt>0</asrwt>
<pdfrwt beam="1">  1       11 0.10000000E+01 0.90758356E+02</pdfrwt>
<pdfrwt beam="2">  1        4 0.32985216E-01 0.12306242E+03</pdfrwt>
<totfact> 0.35975974E+01</totfact>
</mgrwt>
</event>
<event>
 5    1  0.1570989E-003  0.2578703E+03  0.7818608E-02  0.1108430E+00
         11   -1    0    0    0    0  0.00000000000E+00  0.00000000000E+00  0.10002630247E+04  0.10002630247E+04  0.51100000000E-03 0. -1.
          4   -1    0    0  501    0 -0.00000000000E+00 -0.00000000000E+00 -0.38766360740E+03  0.38766620810E+03  0.14200000000E+01 0. -1.
         11    1    1    2    0    0  0.24298470520E+03  0.74087362742E+02  0.89479030662E+03  0.93015063141E+03  0.51100000000E-03 0. -1.
         22    1    1    2    0    0  0.67155136443E+01 -0.89119186819E+01  0.41974131759E+02  0.43432109723E+02  0.00000000000E+00 0.  1.
          4    1    1    2  501    0 -0.24970021885E+03 -0.65175444060E+02 -0.32416502112E+03  0.41434649162E+03  0.14200000000E+01 0. -1.
<mgrwt>
<rscale>  0 0.25787034E+03</rscale>
<asrwt>0</asrwt>
<pdfrwt beam="1">  1       11 0.10000000E+01 0.11158872E+02</pdfrwt>
<pdfrwt beam="2">  1        4 0.59656518E-01 0.25787034E+03</pdfrwt>
<totfact> 0.11439175E+01</totfact>
</mgrwt>
</event>
<event>
 5    1  0.1490736E-003  0.2613380E+02  0.7818608E-02  0.1752965E+00
         11   -1    0    0    0    0  0.00000000000E+00  0.00000000000E+00  0.99994609321E+03  0.99994609321E+03  0.51100000000E-03 0.  1.
          4   -1    0    0  501    0 -0.00000000000E+00 -0.00000000000E+00 -0.22581978618E+01  0.26675564817E+01  0.14200000000E+01 0.  1.
         11    1    1    2    0    0  0.13054809227E+02 -0.12202414407E+02  0.66044490131E+02  0.68419307495E+02  0.51100000000E-03 0.  1.
         22    1    1    2    0    0  0.13946084607E+02  0.46789113546E+01  0.50366411030E+02  0.52470571251E+02  0.00000000000E+00 0. -1.
          4    1    1    2  501    0 -0.27000893834E+02  0.75235030524E+01  0.88127699419E+03  0.88172377094E+03  0.14200000000E+01 0.  1.
<mgrwt>
<rscale>  0 0.19621324E+02</rscale>
<asrwt>0</asrwt>
<pdfrwt beam="1">  1       11 0.10000000E+01 0.26133803E+02</pdfrwt>
<pdfrwt beam="2">  1        4 0.37896130E-03 0.19621324E+02</pdfrwt>
<totfact> 0.26329811E+04</totfact>
</mgrwt>
</event>
<event>
 5    1  0.1490736E-003  0.5917328E+02  0.7818608E-02  0.1588153E+00
         11   -1    0    0    0    0  0.00000000000E+00  0.00000000000E+00  0.10004124519E+04  0.10004124519E+04  0.51100000000E-03 0.  1.
          4   -1    0    0  501    0 -0.00000000000E+00 -0.00000000000E+00 -0.72103385960E+01  0.73488354634E+01  0.14200000000E+01 0.  1.
         11    1    1    2    0    0 -0.26805623182E+01 -0.55105619898E+02  0.14844505876E+03  0.15836587457E+03  0.51100000000E-03 0.  1.
         22    1    1    2    0    0  0.15656564260E+02 -0.39632471636E+01  0.54928972421E+02  0.57254059627E+02  0.00000000000E+00 0.  1.
          4    1    1    2  501    0 -0.12976001942E+02  0.59068867062E+02  0.78982808208E+03  0.79214135312E+03  0.14200000000E+01 0.  1.
<mgrwt>
<rscale>  0 0.30918387E+02</rscale>
<asrwt>0</asrwt>
<pdfrwt beam="1">  1       11 0.10000000E+01 0.59173283E+02</pdfrwt>
<pdfrwt beam="2">  1        4 0.11204759E-02 0.30918387E+02</pdfrwt>
<totfact> 0.66792222E+03</totfact>
</mgrwt>
</event>
<event>
 5    1  0.1490736E-003  0.3859830E+02  0.7818608E-02  0.1712199E+00
         11   -1    0    0    0    0  0.00000000000E+00  0.00000000000E+00  0.10004100335E+04  0.10004100335E+04  0.51100000000E-03 0. -1.
          4   -1    0    0  501    0 -0.00000000000E+00 -0.00000000000E+00 -0.45742622944E+01  0.47896007703E+01  0.14200000000E+01 0. -1.
         11    1    1    2    0    0 -0.34430287547E+02  0.13137550584E+01  0.76961628215E+02  0.84322374674E+02  0.51100000000E-03 0. -1.
         22    1    1    2    0    0 -0.34394525026E+01 -0.11782465624E+02  0.68243851819E+02  0.69338875394E+02  0.00000000000E+00 0. -1.
          4    1    1    2  501    0  0.37869740050E+02  0.10468710566E+02  0.85063029122E+03  0.85153838425E+03  0.14200000000E+01 0. -1.
<mgrwt>
<rscale>  0 0.21773471E+02</rscale>
<asrwt>0</asrwt>
<pdfrwt beam="1">  1       11 0.10000000E+01 0.38598299E+02</pdfrwt>
<pdfrwt beam="2">  1        4 0.72067004E-03 0.21773471E+02</pdfrwt>
<totfact> 0.11100211E+04</totfact>
</mgrwt>
</event>
<event>
 5    1  0.1490736E-003  0.1106150E+03  0.7818608E-02  0.1350612E+00
         11   -1    0    0    0    0  0.00000000000E+00  0.00000000000E+00  0.10000166305E+04  0.10000166305E+04  0.51100000000E-03 0. -1.
         -4   -1    0    0    0  501 -0.00000000000E+00 -0.00000000000E+00 -0.49134937705E+02  0.49155452427E+02  0.14200000000E+01 0. -1.
         11    1    1    2    0    0  0.78150678775E+02  0.38578188871E+02  0.17643284359E+03  0.19678504401E+03  0.51100000000E-03 0. -1.
         22    1    1    2    0    0 -0.65652273276E+02 -0.11034963887E+03  0.76863922370E+03  0.77929039517E+03  0.00000000000E+00 0. -1.
         -4    1    1    2    0  501 -0.12498405499E+02  0.71771449998E+02  0.58096254740E+01  0.73096643719E+02  0.14200000000E+01 0. -1.
<mgrwt>
<rscale>  0 0.72865407E+02</rscale>
<asrwt>0</asrwt>
<pdfrwt beam="1">  1       11 0.10000000E+01 0.11061503E+03</pdfrwt>
<pdfrwt beam="2">  1       -4 0.75610023E-02 0.72865407E+02</pdfrwt>
<totfact> 0.44306083E+02</totfact>
</mgrwt>
</event>
<event>
 5    1  0.1490736E-003  0.5787621E+02  0.7818608E-02  0.1417112E+00
         11   -1    0    0    0    0  0.00000000000E+00  0.00000000000E+00  0.10002289644E+04  0.10002289644E+04  0.51100000000E-03 0. -1.
          4   -1    0    0  501    0 -0.00000000000E+00 -0.00000000000E+00 -0.36730468224E+01  0.39379782833E+01  0.14200000000E+01 0. -1.
         11    1    1    2    0    0 -0.32014218562E+02  0.22642952957E+02  0.21851641052E+03  0.22200683588E+03  0.51100000000E-03 0. -1.
         22    1    1    2    0    0 -0.66555225429E+01  0.17332968652E+02  0.91192701435E+02  0.93063615756E+02  0.00000000000E+00 0. -1.
          4    1    1    2  501    0  0.38669741105E+02 -0.39975921609E+02  0.68684680565E+03  0.68909649108E+03  0.14200000000E+01 0. -1.
<mgrwt>
<rscale>  0 0.55636675E+02</rscale>
<asrwt>0</asrwt>
<pdfrwt beam="1">  1       11 0.10000000E+01 0.57876208E+02</pdfrwt>
<pdfrwt beam="2">  1        4 0.58567506E-03 0.55636675E+02</pdfrwt>
<totfact> 0.20603433E+04</totfact>
</mgrwt>
</event>
<event>
 5    1  0.1490736E-003  0.1062445E+03  0.7818608E-02  0.1267687E+00
         11   -1    0    0    0    0  0.00000000000E+00  0.00000000000E+00  0.10002851809E+04  0.10002851809E+04  0.51100000000E-03 0. -1.
         -4   -1    0    0    0  501 -0.00000000000E+00 -0.00000000000E+00 -0.15314582438E+02  0.15380274226E+02  0.14200000000E+01 0. -1.
         11    1    1    2    0    0 -0.15192202595E+02 -0.16573426619E+02  0.54943208851E+02  0.59365290269E+02  0.51100000000E-03 0. -1.
         22    1    1    2    0    0  0.53286608673E+02 -0.86280468233E+02  0.60031618596E+03  0.60882124222E+03  0.00000000000E+00 0. -1.
         -4    1    1    2    0  501 -0.38094406079E+02  0.10285389485E+03  0.32971120370E+03  0.34747892268E+03  0.14200000000E+01 0. -1.
<mgrwt>
<rscale>  0 0.10624447E+03</rscale>
<asrwt>0</asrwt>
<pdfrwt beam="1">  1       11 0.10000000E+01 0.22482927E+02</pdfrwt>
<pdfrwt beam="2">  1       -4 0.23618937E-02 0.10624447E+03</pdfrwt>
<totfact> 0.29833583E+03</totfact>
</mgrwt>
</event>
<event>
 5    1  0.1490736E-003  0.2585853E+02  0.7818608E-02  0.1648968E+00
         11   -1    0    0    0    0  0.00000000000E+00  0.00000000000E+00  0.99996715271E+03  0.99996715271E+03  0.51100000000E-03 0. -1.
          4   -1    0    0  501    0 -0.00000000000E+00 -0.00000000000E+00 -0.23821564342E+01  0.27732777137E+01  0.14200000000E+01 0. -1.
         11    1    1    2    0    0  0.13050872546E+02  0.27504218319E+01  0.39020568315E+02  0.41237056713E+02  0.51100000000E-03 0. -1.
         22    1    1    2    0    0  0.16561462112E+02 -0.18511783106E+02  0.13572077485E+03  0.13797498638E+03  0.00000000000E+00 0. -1.
          4    1    1    2  501    0 -0.29612334658E+02  0.15761361274E+02  0.82284365311E+03  0.82352838733E+03  0.14200000000E+01 0. -1.
<mgrwt>
<rscale>  0 0.25858535E+02</rscale>
<asrwt>0</asrwt>
<pdfrwt beam="1">  1       11 0.10000000E+01 0.13337551E+02</pdfrwt>
<pdfrwt beam="2">  1        4 0.39663637E-03 0.25858535E+02</pdfrwt>
<totfact> 0.27770062E+04</totfact>
</mgrwt>
</event>
<event>
 5    1  0.1490736E-003  0.1128224E+03  0.7818608E-02  0.1265886E+00
         11   -1    0    0    0    0  0.00000000000E+00  0.00000000000E+00  0.10002239461E+04  0.10002239461E+04  0.51100000000E-03 0. -1.
         -4   -1    0    0    0  501 -0.00000000000E+00 -0.00000000000E+00 -0.12528425832E+02  0.12608642029E+02  0.14200000000E+01 0. -1.
         11    1    1    2    0    0  0.73733815200E+02  0.66064060167E+02  0.37639941832E+03  0.38920130738E+03  0.51100000000E-03 0. -1.
         22    1    1    2    0    0 -0.11555880767E+01  0.12787583981E+02  0.31572318134E+02  0.34083265105E+02  0.00000000000E+00 0. -1.
         -4    1    1    2    0  501 -0.72578227123E+02 -0.78851644148E+02  0.57972378378E+03  0.58954801562E+03  0.14200000000E+01 0. -1.
<mgrwt>
<rscale>  0 0.10717834E+03</rscale>
<asrwt>0</asrwt>
<pdfrwt beam="1">  1       11 0.10000000E+01 0.11282239E+03</pdfrwt>
<pdfrwt beam="2">  1       -4 0.19341311E-02 0.10717834E+03</pdfrwt>
<totfact> 0.40624619E+03</totfact>
</mgrwt>
</event>
<event>
 5    1  0.1490736E-003  0.1569707E+03  0.7818608E-02  0.1197460E+00
         11   -1    0    0    0    0  0.00000000000E+00  0.00000000000E+00  0.10004145347E+04  0.10004145347E+04  0.51100000000E-03 0. -1.
         -4   -1    0    0    0  501 -0.00000000000E+00 -0.00000000000E+00 -0.32186561853E+02  0.32217870257E+02  0.14200000000E+01 0.  1.
         11    1    1    2    0    0 -0.28019238323E+02 -0.14382953345E+02  0.92667760879E+02  0.97873699070E+02  0.51100000000E-03 0. -1.
         22    1    1    2    0    0 -0.10797213430E+03 -0.54566633782E+02  0.65834518177E+03  0.66936826760E+03  0.00000000000E+00 0. -1.
         -4    1    1    2    0  501  0.13599137262E+03  0.68949587127E+02  0.21721503020E+03  0.26539043830E+03  0.14200000000E+01 0.  1.
<mgrwt>
<rscale>  0 0.15247857E+03</rscale>
<asrwt>0</asrwt>
<pdfrwt beam="1">  1       11 0.10000000E+01 0.15697068E+03</pdfrwt>
<pdfrwt beam="2">  1       -4 0.49563182E-02 0.15247857E+03</pdfrwt>
<totfact> 0.98676952E+02</totfact>
</mgrwt>
</event>
<event>
 5    1  0.1490736E-003  0.2893340E+03  0.7818608E-02  0.1090697E+00
         11   -1    0    0    0    0  0.00000000000E+00  0.00000000000E+00  0.10005046814E+04  0.10005046814E+04  0.51100000000E-03 0. -1.
         -4   -1    0    0    0  501 -0.00000000000E+00 -0.00000000000E+00 -0.12868091924E+03  0.12868875389E+03  0.14200000000E+01 0.  1.
         11    1    1    2    0    0  0.26077772857E+03  0.10797075758E+03  0.67497536941E+03  0.73161086482E+03  0.51100000000E-03 0. -1.
         22    1    1    2    0    0  0.12983473906E+02 -0.77341437631E+01  0.83384502804E+02  0.84742922314E+02  0.00000000000E+00 0.  1.
         -4    1    1    2    0  501 -0.27376120248E+03 -0.10023661381E+03  0.11346388993E+03  0.31283964814E+03  0.14200000000E+01 0.  1.
<mgrwt>
<rscale>  0 0.28933404E+03</rscale>
<asrwt>0</asrwt>
<pdfrwt beam="1">  1       11 0.10000000E+01 0.15112497E+02</pdfrwt>
<pdfrwt beam="2">  1       -4 0.19807736E-01 0.28933404E+03</pdfrwt>
<totfact> 0.99915223E+01</totfact>
</mgrwt>
</event>
<event>
 5    1  0.1490736E-003  0.3367081E+02  0.7818608E-02  0.1584678E+00
         11   -1    0    0    0    0  0.00000000000E+00  0.00000000000E+00  0.10003374081E+04  0.10003374081E+04  0.51100000000E-03 0. -1.
          4   -1    0    0  501    0 -0.00000000000E+00 -0.00000000000E+00 -0.55093482670E+01  0.56894040397E+01  0.14200000000E+01 0. -1.
         11    1    1    2    0    0 -0.40456124930E+02  0.29533802443E+02  0.25804506217E+03  0.26286155604E+03  0.51100000000E-03 0. -1.
         22    1    1    2    0    0  0.28972880324E+02  0.41544297863E+00  0.72062837312E+02  0.77670154555E+02  0.00000000000E+00 0. -1.
          4    1    1    2  501    0  0.11483244606E+02 -0.29949245422E+02  0.66472016032E+03  0.66549510151E+03  0.14200000000E+01 0. -1.
<mgrwt>
<rscale>  0 0.31249117E+02</rscale>
<asrwt>0</asrwt>
<pdfrwt beam="1">  1       11 0.10000000E+01 0.33670808E+02</pdfrwt>
<pdfrwt beam="2">  1        4 0.86181067E-03 0.31249117E+02</pdfrwt>
<totfact> 0.98148095E+03</totfact>
</mgrwt>
</event>
<event>
 5    1  0.1490736E-003  0.1616831E+03  0.7818608E-02  0.1199381E+00
         11   -1    0    0    0    0  0.00000000000E+00  0.00000000000E+00  0.10001358404E+04  0.10001358404E+04  0.51100000000E-03 0. -1.
          4   -1    0    0  501    0 -0.00000000000E+00 -0.00000000000E+00 -0.33779083492E+02  0.33808917190E+02  0.14200000000E+01 0. -1.
         11    1    1    2    0    0  0.99643188559E+02 -0.52178083352E+02  0.58375628303E+03  0.59449366304E+03  0.51100000000E-03 0. -1.
         22    1    1    2    0    0  0.15685219358E+02 -0.45114620506E+02  0.18360386510E+03  0.18971487651E+03  0.00000000000E+00 0. -1.
          4    1    1    2  501    0 -0.11532840792E+03  0.97292703858E+02  0.19899660875E+03  0.24973621802E+03  0.14200000000E+01 0. -1.
<mgrwt>
<rscale>  0 0.15089244E+03</rscale>
<asrwt>0</asrwt>
<pdfrwt beam="1">  1       11 0.10000000E+01 0.16168314E+03</pdfrwt>
<pdfrwt beam="2">  1        4 0.51998606E-02 0.15089244E+03</pdfrwt>
<totfact> 0.91189791E+02</totfact>
</mgrwt>
</event>
<event>
 5    1  0.1490736E-003  0.1071519E+03  0.7818608E-02  0.1730783E+00
         11   -1    0    0    0    0  0.00000000000E+00  0.00000000000E+00  0.10002343632E+04  0.10002343632E+04  0.51100000000E-03 0. -1.
          4   -1    0    0  501    0 -0.00000000000E+00 -0.00000000000E+00 -0.94121976796E+02  0.94132687819E+02  0.14200000000E+01 0.  1.
         11    1    1    2    0    0  0.94700025188E+02 -0.69901461446E+02  0.57193798488E+03  0.58392411120E+03  0.51100000000E-03 0. -1.
         22    1    1    2    0    0 -0.80066231363E+02  0.55256948246E+02  0.41538411211E+03  0.42662383000E+03  0.00000000000E+00 0.  1.
          4    1    1    2  501    0 -0.14633793825E+02  0.14644513200E+02 -0.81209710554E+02  0.83819109854E+02  0.14200000000E+01 0.  1.
<mgrwt>
<rscale>  0 0.20751532E+02</rscale>
<asrwt>0</asrwt>
<pdfrwt beam="1">  1       11 0.10000000E+01 0.10715191E+03</pdfrwt>
<pdfrwt beam="2">  1        4 0.14484599E-01 0.20751532E+02</pdfrwt>
<totfact> 0.11744762E+02</totfact>
</mgrwt>
</event>
<event>
 5    1  0.1490736E-003  0.2081797E+02  0.7818608E-02  0.1739719E+00
         11   -1    0    0    0    0  0.00000000000E+00  0.00000000000E+00  0.10003128373E+04  0.10003128373E+04  0.51100000000E-03 0. -1.
          4   -1    0    0  501    0 -0.00000000000E+00 -0.00000000000E+00 -0.29600764192E+01  0.32830553464E+01  0.14200000000E+01 0. -1.
         11    1    1    2    0    0  0.90240941207E+01  0.48025435554E+01  0.19220602708E+02  0.21769939550E+02  0.51100000000E-03 0. -1.
         22    1    1    2    0    0  0.67567811729E+01  0.78635537451E+01  0.13701487765E+02  0.17181977078E+02  0.00000000000E+00 0. -1.
          4    1    1    2  501    0 -0.15780875294E+02 -0.12666097301E+02  0.96443067043E+03  0.96464397604E+03  0.14200000000E+01 0. -1.
<mgrwt>
<rscale>  0 0.20285030E+02</rscale>
<asrwt>0</asrwt>
<pdfrwt beam="1">  1       11 0.10000000E+01 0.20817967E+02</pdfrwt>
<pdfrwt beam="2">  1        4 0.48046868E-03 0.20285030E+02</pdfrwt>
<totfact> 0.19144209E+04</totfact>
</mgrwt>
</event>
