<event>
 5    1  0.6729100E-004  0.3229571E+03  0.7818608E-02  0.1074296E+00
         11   -1    0    0    0    0  0.00000000000E+00  0.00000000000E+00  0.10003809674E+04  0.10003809674E+04  0.51100000000E-03 0. -1.
          2   -1    0    0  501    0 -0.00000000000E+00 -0.00000000000E+00 -0.60022858045E+03  0.60022858045E+03  0.25500000000E-02 0. -1.
         11    1    1    2    0    0 -0.24994327576E+03 -0.15448883295E+03  0.68723851997E+03  0.74741904173E+03  0.51100000000E-03 0. -1.
         22    1    1    2    0    0 -0.48072896862E+01 -0.47266673406E+02  0.23416611501E+03  0.23893726764E+03  0.00000000000E+00 0.  1.
          2    1    1    2  501    0  0.25475056545E+03  0.20175550636E+03 -0.52125224801E+03  0.61425323850E+03  0.25500000000E-02 0. -1.
<mgrwt>
<rscale>  0 0.32295709E+03</rscale>
<asrwt>0</asrwt>
<pdfrwt beam="1">  1       11 0.10000000E+01 0.47510509E+02</pdfrwt>
<pdfrwt beam="2">  1        2 0.92378036E-01 0.32295709E+03</pdfrwt>
<totfact> 0.62612717E+01</totfact>
</mgrwt>
</event>
<event>
 5    1  0.6729100E-004  0.3985044E+03  0.7818608E-02  0.1044299E+00
         11   -1    0    0    0    0  0.00000000000E+00  0.00000000000E+00  0.10000321565E+04  0.10000321565E+04  0.51100000000E-03 0. -1.
          2   -1    0    0  501    0 -0.00000000000E+00 -0.00000000000E+00 -0.60584876659E+03  0.60584876659E+03  0.25500000000E-02 0. -1.
         11    1    1    2    0    0  0.32658486500E+03 -0.23986971728E+03  0.82422531247E+03  0.91844570935E+03  0.51100000000E-03 0. -1.
         22    1    1    2    0    0 -0.11672054717E+02 -0.34572211135E+01  0.57109567299E+02  0.58392567303E+02  0.00000000000E+00 0.  1.
          2    1    1    2  501    0 -0.31491281028E+03  0.24332693840E+03 -0.48715148982E+03  0.62904264647E+03  0.25500000000E-02 0. -1.
<mgrwt>
<rscale>  0 0.39850437E+03</rscale>
<asrwt>0</asrwt>
<pdfrwt beam="1">  1       11 0.10000000E+01 0.12173300E+02</pdfrwt>
<pdfrwt beam="2">  1        2 0.93210497E-01 0.39850437E+03</pdfrwt>
<totfact> 0.61645693E+01</totfact>
</mgrwt>
</event>
<event>
 5    1  0.6729100E-004  0.1640452E+03  0.7818608E-02  0.1295796E+00
         11   -1    0    0    0    0  0.00000000000E+00  0.00000000000E+00  0.10000881606E+04  0.10000881606E+04  0.51100000000E-03 0. -1.
         -2   -1    0    0    0  501 -0.00000000000E+00 -0.00000000000E+00 -0.18713069363E+03  0.18713069364E+03  0.25500000000E-02 0.  1.
         11    1    1    2    0    0 -0.96033321261E+02 -0.13566494296E+03  0.93401788301E+03  0.94869214254E+03  0.51100000000E-03 0. -1.
         22    1    1    2    0    0 -0.15944030899E+02  0.50228701506E+02 -0.72319570510E+02  0.89483265783E+02  0.00000000000E+00 0. -1.
         -2    1    1    2    0  501  0.11197735216E+03  0.85436241455E+02 -0.48740845505E+02  0.14904344594E+03  0.25500000000E-02 0.  1.
<mgrwt>
<rscale>  0 0.92978170E+02</rscale>
<asrwt>0</asrwt>
<pdfrwt beam="1">  1       11 0.10000000E+01 0.16404520E+03</pdfrwt>
<pdfrwt beam="2">  1       -2 0.28791875E-01 0.92978170E+02</pdfrwt>
<totfact> 0.87100008E+01</totfact>
</mgrwt>
</event>
<event>
 5    1  0.6729100E-004  0.2497402E+03  0.7818608E-02  0.1113469E+00
         11   -1    0    0    0    0  0.00000000000E+00  0.00000000000E+00  0.10001216111E+04  0.10001216111E+04  0.51100000000E-03 0. -1.
          2   -1    0    0  501    0 -0.00000000000E+00 -0.00000000000E+00 -0.20503149208E+03  0.20503149209E+03  0.25500000000E-02 0. -1.
         11    1    1    2    0    0 -0.25169453014E+03 -0.60620175842E+01  0.78281861692E+03  0.82230886627E+03  0.51100000000E-03 0. -1.
         22    1    1    2    0    0  0.33432584664E+01 -0.18830975148E+02  0.11232487603E+03  0.11394147961E+03  0.00000000000E+00 0. -1.
          2    1    1    2  501    0  0.24835127167E+03  0.24892992732E+02 -0.10005337395E+03  0.26890275728E+03  0.25500000000E-02 0. -1.
<mgrwt>
<rscale>  0 0.24974017E+03</rscale>
<asrwt>0</asrwt>
<pdfrwt beam="1">  1       11 0.10000000E+01 0.19125454E+02</pdfrwt>
<pdfrwt beam="2">  1        2 0.31547142E-01 0.24974017E+03</pdfrwt>
<totfact> 0.20515550E+02</totfact>
</mgrwt>
</event>
<event>
 5    1  0.6729100E-004  0.2167943E+03  0.7818608E-02  0.1147423E+00
         11   -1    0    0    0    0  0.00000000000E+00  0.00000000000E+00  0.10000467646E+04  0.10000467646E+04  0.51100000000E-03 0.  1.
          2   -1    0    0  501    0 -0.00000000000E+00 -0.00000000000E+00 -0.29967238333E+03  0.29967238334E+03  0.25500000000E-02 0.  1.
         11    1    1    2    0    0  0.91136243357E+02  0.12912242429E+03  0.70001444700E+03  0.71763405808E+03  0.51100000000E-03 0.  1.
         22    1    1    2    0    0 -0.11877446528E+02  0.57515050945E+02  0.25209309927E+03  0.25884355414E+03  0.00000000000E+00 0. -1.
          2    1    1    2  501    0 -0.79258796829E+02 -0.18663747523E+03 -0.25173316501E+03  0.32324153571E+03  0.25500000000E-02 0.  1.
<mgrwt>
<rscale>  0 0.20276958E+03</rscale>
<asrwt>0</asrwt>
<pdfrwt beam="1">  1       11 0.10000000E+01 0.21679425E+03</pdfrwt>
<pdfrwt beam="2">  1        2 0.46105598E-01 0.20276958E+03</pdfrwt>
<totfact> 0.13578324E+02</totfact>
</mgrwt>
</event>
<event>
 5    1  0.6729100E-004  0.1034113E+03  0.7818608E-02  0.1273282E+00
         11   -1    0    0    0    0  0.00000000000E+00  0.00000000000E+00  0.10001875876E+04  0.10001875876E+04  0.51100000000E-03 0. -1.
          2   -1    0    0  501    0 -0.00000000000E+00 -0.00000000000E+00 -0.65067648550E+02  0.65067648600E+02  0.25500000000E-02 0. -1.
         11    1    1    2    0    0  0.98325604555E+02  0.11303797167E+02  0.43006694688E+00  0.98974164807E+02  0.51100000000E-03 0. -1.
         22    1    1    2    0    0  0.70158421363E+02  0.10486898853E+02  0.20009413003E+03  0.21229658502E+03  0.00000000000E+00 0. -1.
          2    1    1    2  501    0 -0.16848402592E+03 -0.21790696019E+02  0.73459574203E+03  0.75398448634E+03  0.25500000000E-02 0. -1.
<mgrwt>
<rscale>  0 0.10341134E+03</rscale>
<asrwt>0</asrwt>
<pdfrwt beam="1">  1       11 0.10000000E+01 0.70937854E+02</pdfrwt>
<pdfrwt beam="2">  1        2 0.10012285E-01 0.10341134E+03</pdfrwt>
<totfact> 0.74749268E+02</totfact>
</mgrwt>
</event>
<event>
 5    1  0.6729100E-004  0.1758013E+03  0.7818608E-02  0.1171930E+00
         11   -1    0    0    0    0  0.00000000000E+00  0.00000000000E+00  0.10000963489E+04  0.10000963489E+04  0.51100000000E-03 0. -1.
          2   -1    0    0  501    0 -0.00000000000E+00 -0.00000000000E+00 -0.57065433199E+02  0.57065433256E+02  0.25500000000E-02 0. -1.
         11    1    1    2    0    0 -0.78446595127E+02 -0.11833276555E+03  0.49613044470E+03  0.51604450375E+03  0.51100000000E-03 0. -1.
         22    1    1    2    0    0 -0.80227644549E+02  0.58084820918E+01  0.25690304649E+03  0.26920139062E+03  0.00000000000E+00 0.  1.
          2    1    1    2  501    0  0.15867423968E+03  0.11252428346E+03  0.18999742451E+03  0.27191588779E+03  0.25500000000E-02 0. -1.
<mgrwt>
<rscale>  0 0.17580131E+03</rscale>
<asrwt>0</asrwt>
<pdfrwt beam="1">  1       11 0.10000000E+01 0.80437637E+02</pdfrwt>
<pdfrwt beam="2">  1        2 0.87801430E-02 0.17580131E+03</pdfrwt>
<totfact> 0.90706980E+02</totfact>
</mgrwt>
</event>
<event>
 5    1  0.6729100E-004  0.1629121E+03  0.7818608E-02  0.1188960E+00
         11   -1    0    0    0    0  0.00000000000E+00  0.00000000000E+00  0.99996183086E+03  0.99996183086E+03  0.51100000000E-03 0. -1.
          2   -1    0    0  501    0 -0.00000000000E+00 -0.00000000000E+00 -0.26079387490E+02  0.26079387614E+02  0.25500000000E-02 0. -1.
         11    1    1    2    0    0  0.65964091774E+02  0.13511909954E+03  0.46162358085E+03  0.48549434895E+03  0.51100000000E-03 0. -1.
         22    1    1    2    0    0 -0.27099042681E+01  0.11592923585E+02  0.52050131384E+02  0.53394340857E+02  0.00000000000E+00 0.  1.
          2    1    1    2  501    0 -0.63254187506E+02 -0.14671202313E+03  0.46020873113E+03  0.48715252866E+03  0.25500000000E-02 0. -1.
<mgrwt>
<rscale>  0 0.15976705E+03</rscale>
<asrwt>0</asrwt>
<pdfrwt beam="1">  1       11 0.10000000E+01 0.16291205E+03</pdfrwt>
<pdfrwt beam="2">  1        2 0.40120602E-02 0.15976705E+03</pdfrwt>
<totfact> 0.24836404E+03</totfact>
</mgrwt>
</event>
<event>
 5    1  0.6729100E-004  0.3527318E+03  0.7818608E-02  0.1223533E+00
         11   -1    0    0    0    0  0.00000000000E+00  0.00000000000E+00  0.10000470059E+04  0.10000470059E+04  0.51100000000E-03 0.  1.
          2   -1    0    0  501    0 -0.00000000000E+00 -0.00000000000E+00 -0.79629687973E+03  0.79629687974E+03  0.25500000000E-02 0.  1.
         11    1    1    2    0    0  0.12839451253E+03 -0.32525987766E+03 -0.20851439712E+03  0.40713313875E+03  0.51100000000E-03 0.  1.
         22    1    1    2    0    0  0.75795433109E+00  0.35564822156E+03  0.85553308377E+03  0.92651124625E+03  0.00000000000E+00 0.  1.
          2    1    1    2  501    0 -0.12915246686E+03 -0.30388343893E+02 -0.44326856050E+03  0.46269950062E+03  0.25500000000E-02 0.  1.
<mgrwt>
<rscale>  0 0.13267935E+03</rscale>
<asrwt>0</asrwt>
<pdfrwt beam="1">  1       11 0.10000000E+01 0.35273176E+03</pdfrwt>
<pdfrwt beam="2">  1        2 0.12251297E+00 0.13267935E+03</pdfrwt>
<totfact> 0.45753353E+01</totfact>
</mgrwt>
</event>
<event>
 5    1  0.6729100E-004  0.2267361E+03  0.7818608E-02  0.1128958E+00
         11   -1    0    0    0    0  0.00000000000E+00  0.00000000000E+00  0.10002095042E+04  0.10002095042E+04  0.51100000000E-03 0.  1.
          2   -1    0    0  501    0 -0.00000000000E+00 -0.00000000000E+00 -0.23260436055E+03  0.23260436056E+03  0.25500000000E-02 0.  1.
         11    1    1    2    0    0  0.71374242935E+02 -0.32484672058E+03  0.56441801126E+03  0.65512393168E+03  0.51100000000E-03 0.  1.
         22    1    1    2    0    0  0.60057107916E+02  0.15160589141E+03  0.29859887459E+03  0.34022417672E+03  0.00000000000E+00 0.  1.
          2    1    1    2  501    0 -0.13143135085E+03  0.17324082917E+03 -0.95411742216E+02  0.23746575635E+03  0.25500000000E-02 0.  1.
<mgrwt>
<rscale>  0 0.22673611E+03</rscale>
<asrwt>0</asrwt>
<pdfrwt beam="1">  1       11 0.10000000E+01 0.16306809E+03</pdfrwt>
<pdfrwt beam="2">  1        2 0.35792782E-01 0.22673611E+03</pdfrwt>
<totfact> 0.17853268E+02</totfact>
</mgrwt>
</event>
<event>
 5    1  0.6729100E-004  0.1067766E+03  0.7818608E-02  0.1266658E+00
         11   -1    0    0    0    0  0.00000000000E+00  0.00000000000E+00  0.10004861565E+04  0.10004861565E+04  0.51100000000E-03 0.  1.
          2   -1    0    0  501    0 -0.00000000000E+00 -0.00000000000E+00 -0.20959183772E+02  0.20959183927E+02  0.25500000000E-02 0.  1.
         11    1    1    2    0    0 -0.85696174730E+02  0.62654832213E+02  0.38531610725E+03  0.39967232187E+03  0.51100000000E-03 0.  1.
         22    1    1    2    0    0 -0.29057058728E+02 -0.54926854884E+02  0.28914354331E+03  0.29574526317E+03  0.00000000000E+00 0.  1.
          2    1    1    2  501    0  0.11475323346E+03 -0.77279773288E+01  0.30506732221E+03  0.32602775543E+03  0.25500000000E-02 0.  1.
<mgrwt>
<rscale>  0 0.10677664E+03</rscale>
<asrwt>0</asrwt>
<pdfrwt beam="1">  1       11 0.10000000E+01 0.62139135E+02</pdfrwt>
<pdfrwt beam="2">  1        2 0.32260573E-02 0.10677664E+03</pdfrwt>
<totfact> 0.31936886E+03</totfact>
</mgrwt>
</event>
<event>
 5    1  0.6729100E-004  0.5215628E+02  0.7818608E-02  0.1499116E+00
         11   -1    0    0    0    0  0.00000000000E+00  0.00000000000E+00  0.10004032964E+04  0.10004032964E+04  0.51100000000E-03 0.  1.
          2   -1    0    0  501    0 -0.00000000000E+00 -0.00000000000E+00 -0.55999881309E+01  0.55999887115E+01  0.25500000000E-02 0.  1.
         11    1    1    2    0    0 -0.47069042830E+02 -0.31955219306E+02  0.27597771792E+03  0.28178064452E+03  0.51100000000E-03 0.  1.
         22    1    1    2    0    0  0.27599331968E+02 -0.17435163599E+02  0.19500732014E+03  0.19772092191E+03  0.00000000000E+00 0.  1.
          2    1    1    2  501    0  0.19469710862E+02  0.49390382905E+02  0.52381827017E+03  0.52650171865E+03  0.25500000000E-02 0.  1.
<mgrwt>
<rscale>  0 0.41263184E+02</rscale>
<asrwt>0</asrwt>
<pdfrwt beam="1">  1       11 0.10000000E+01 0.52156276E+02</pdfrwt>
<pdfrwt beam="2">  1        2 0.86188411E-03 0.41263184E+02</pdfrwt>
<totfact> 0.16218414E+04</totfact>
</mgrwt>
</event>
<event>
 5    1  0.6729100E-004  0.1525799E+03  0.7818608E-02  0.1264339E+00
         11   -1    0    0    0    0  0.00000000000E+00  0.00000000000E+00  0.10000937389E+04  0.10000937389E+04  0.51100000000E-03 0. -1.
          2   -1    0    0  501    0 -0.00000000000E+00 -0.00000000000E+00 -0.11349591814E+04  0.11349591814E+04  0.25500000000E-02 0. -1.
         11    1    1    2    0    0 -0.10742630678E+03 -0.90846948096E+02  0.16611639500E+03  0.21768839210E+03  0.51100000000E-03 0. -1.
         22    1    1    2    0    0  0.16526267640E+03 -0.34871402320E+00  0.79706640375E+03  0.81401887313E+03  0.00000000000E+00 0. -1.
          2    1    1    2  501    0 -0.57836369620E+02  0.91195662119E+02 -0.10980482412E+04  0.11033456550E+04  0.25500000000E-02 0. -1.
<mgrwt>
<rscale>  0 0.10798933E+03</rscale>
<asrwt>0</asrwt>
<pdfrwt beam="1">  1       11 0.10000000E+01 0.15257986E+03</pdfrwt>
<pdfrwt beam="2">  1        2 0.17462547E+00 0.10798933E+03</pdfrwt>
<totfact> 0.28742902E+01</totfact>
</mgrwt>
</event>
<event>
 5    1  0.6729100E-004  0.1485207E+03  0.7818608E-02  0.1202303E+00
         11   -1    0    0    0    0  0.00000000000E+00  0.00000000000E+00  0.10001921293E+04  0.10001921293E+04  0.51100000000E-03 0. -1.
          2   -1    0    0  501    0 -0.00000000000E+00 -0.00000000000E+00 -0.23845207523E+03  0.23845207525E+03  0.25500000000E-02 0. -1.
         11    1    1    2    0    0 -0.44853614589E+02  0.14528851851E+03  0.76078375141E+03  0.77583021130E+03  0.51100000000E-03 0. -1.
         22    1    1    2    0    0 -0.80093369016E+02 -0.63149980115E+02  0.19367485799E+03  0.21888996863E+03  0.00000000000E+00 0. -1.
          2    1    1    2  501    0  0.12494698361E+03 -0.82138538395E+02 -0.19271855534E+03  0.24392402461E+03  0.25500000000E-02 0. -1.
<mgrwt>
<rscale>  0 0.14852072E+03</rscale>
<asrwt>0</asrwt>
<pdfrwt beam="1">  1       11 0.10000000E+01 0.10199445E+03</pdfrwt>
<pdfrwt beam="2">  1        2 0.36691982E-01 0.14852072E+03</pdfrwt>
<totfact> 0.17300242E+02</totfact>
</mgrwt>
</event>
<event>
 5    1  0.6729100E-004  0.2771461E+03  0.7818608E-02  0.1097258E+00
         11   -1    0    0    0    0  0.00000000000E+00  0.00000000000E+00  0.10006499874E+04  0.10006499874E+04  0.51100000000E-03 0. -1.
          2   -1    0    0  501    0 -0.00000000000E+00 -0.00000000000E+00 -0.77786846014E+02  0.77786846056E+02  0.25500000000E-02 0. -1.
         11    1    1    2    0    0 -0.11880511158E+03 -0.24191110682E+03  0.34714024841E+03  0.43947922614E+03  0.51100000000E-03 0. -1.
         22    1    1    2    0    0  0.17216722494E+02  0.35119637181E+01  0.28590590869E+02  0.33558475961E+02  0.00000000000E+00 0.  1.
          2    1    1    2  501    0  0.10158838909E+03  0.23839914310E+03  0.54713230208E+03  0.60539913133E+03  0.25500000000E-02 0. -1.
<mgrwt>
<rscale>  0 0.27714612E+03</rscale>
<asrwt>0</asrwt>
<pdfrwt beam="1">  1       11 0.10000000E+01 0.26951013E+03</pdfrwt>
<pdfrwt beam="2">  1        2 0.11974985E-01 0.27714612E+03</pdfrwt>
<totfact> 0.63136027E+02</totfact>
</mgrwt>
</event>
<event>
 5    1  0.6729100E-004  0.1676654E+03  0.7818608E-02  0.1328065E+00
         11   -1    0    0    0    0  0.00000000000E+00  0.00000000000E+00  0.10003009209E+04  0.10003009209E+04  0.51100000000E-03 0. -1.
          2   -1    0    0  501    0 -0.00000000000E+00 -0.00000000000E+00 -0.85363406432E+03  0.85363406432E+03  0.25500000000E-02 0. -1.
         11    1    1    2    0    0 -0.17340950231E+03 -0.10126011310E+03  0.44840470570E+03  0.49131583130E+03  0.51100000000E-03 0. -1.
         22    1    1    2    0    0  0.95644576001E+02  0.12147213496E+03  0.51716675577E+03  0.53978219474E+03  0.00000000000E+00 0.  1.
          2    1    1    2  501    0  0.77764926304E+02 -0.20212021859E+02 -0.81890460485E+03  0.82283695921E+03  0.25500000000E-02 0. -1.
<mgrwt>
<rscale>  0 0.80348675E+02</rscale>
<asrwt>0</asrwt>
<pdfrwt beam="1">  1       11 0.10000000E+01 0.16766544E+03</pdfrwt>
<pdfrwt beam="2">  1        2 0.13136783E+00 0.80348675E+02</pdfrwt>
<totfact> 0.42780557E+01</totfact>
</mgrwt>
</event>
<event>
 5    1  0.6729100E-004  0.3576694E+03  0.7818608E-02  0.1059510E+00
         11   -1    0    0    0    0  0.00000000000E+00  0.00000000000E+00  0.10004210423E+04  0.10004210423E+04  0.51100000000E-03 0. -1.
          2   -1    0    0  501    0 -0.00000000000E+00 -0.00000000000E+00 -0.16425092923E+03  0.16425092925E+03  0.25500000000E-02 0.  1.
         11    1    1    2    0    0  0.32472724878E+03 -0.11838910444E+03  0.57180389717E+03  0.66814928195E+03  0.51100000000E-03 0. -1.
         22    1    1    2    0    0  0.26831228379E+02  0.24640376590E+02  0.81583852981E+02  0.89347568753E+02  0.00000000000E+00 0.  1.
          2    1    1    2  501    0 -0.35155847716E+03  0.93748727847E+02  0.18278236292E+03  0.40717512085E+03  0.25500000000E-02 0.  1.
<mgrwt>
<rscale>  0 0.35766943E+03</rscale>
<asrwt>0</asrwt>
<pdfrwt beam="1">  1       11 0.10000000E+01 0.36428876E+02</pdfrwt>
<pdfrwt beam="2">  1        2 0.25280012E-01 0.35766943E+03</pdfrwt>
<totfact> 0.26402463E+02</totfact>
</mgrwt>
</event>
<event>
 5    1  0.6729100E-004  0.8080261E+02  0.7818608E-02  0.1326789E+00
         11   -1    0    0    0    0  0.00000000000E+00  0.00000000000E+00  0.10003525562E+04  0.10003525562E+04  0.51100000000E-03 0.  1.
          2   -1    0    0  501    0 -0.00000000000E+00 -0.00000000000E+00 -0.13515386957E+02  0.13515387198E+02  0.25500000000E-02 0.  1.
         11    1    1    2    0    0 -0.11080772972E+02  0.82650145539E+02  0.22393257046E+03  0.23895528075E+03  0.51100000000E-03 0.  1.
         22    1    1    2    0    0 -0.45447466197E+02 -0.19067007521E+02  0.22622637458E+03  0.23153270939E+03  0.00000000000E+00 0. -1.
          2    1    1    2  501    0  0.56528239169E+02 -0.63583138018E+02  0.53667822423E+03  0.54337995328E+03  0.25500000000E-02 0.  1.
<mgrwt>
<rscale>  0 0.80802609E+02</rscale>
<asrwt>0</asrwt>
<pdfrwt beam="1">  1       11 0.10000000E+01 0.49285119E+02</pdfrwt>
<pdfrwt beam="2">  1        2 0.20800233E-02 0.80802609E+02</pdfrwt>
<totfact> 0.55562066E+03</totfact>
</mgrwt>
</event>
<event>
 5    1  0.6729100E-004  0.5581491E+02  0.7818608E-02  0.1416284E+00
         11   -1    0    0    0    0  0.00000000000E+00  0.00000000000E+00  0.99990923934E+03  0.99990923934E+03  0.51100000000E-03 0.  1.
          2   -1    0    0  501    0 -0.00000000000E+00 -0.00000000000E+00 -0.55584206180E+01  0.55584212029E+01  0.25500000000E-02 0.  1.
         11    1    1    2    0    0 -0.10611054552E+02  0.15736424650E+02  0.47842733968E+02  0.51469959523E+02  0.51100000000E-03 0.  1.
         22    1    1    2    0    0 -0.45500226075E+02 -0.31876143116E+02  0.32113334077E+03  0.32590333172E+03  0.00000000000E+00 0.  1.
          2    1    1    2  501    0  0.56111280628E+02  0.16139718467E+02  0.62537474399E+03  0.62809436930E+03  0.25500000000E-02 0.  1.
<mgrwt>
<rscale>  0 0.55814912E+02</rscale>
<asrwt>0</asrwt>
<pdfrwt beam="1">  1       11 0.10000000E+01 0.18979723E+02</pdfrwt>
<pdfrwt beam="2">  1        2 0.85506404E-03 0.55814912E+02</pdfrwt>
<totfact> 0.17374635E+04</totfact>
</mgrwt>
</event>
<event>
 5    1  0.6729100E-004  0.1755423E+03  0.7818608E-02  0.1297359E+00
         11   -1    0    0    0    0  0.00000000000E+00  0.00000000000E+00  0.10000931195E+04  0.10000931195E+04  0.51100000000E-03 0.  1.
          2   -1    0    0  501    0 -0.00000000000E+00 -0.00000000000E+00 -0.60092487605E+02  0.60092487659E+02  0.25500000000E-02 0.  1.
         11    1    1    2    0    0 -0.78526092708E+02 -0.15174294980E+03  0.25853614224E+03  0.30989225046E+03  0.51100000000E-03 0.  1.
         22    1    1    2    0    0  0.15616516210E+03  0.10181496318E+03  0.59607634207E+03  0.62454851706E+03  0.00000000000E+00 0.  1.
          2    1    1    2  501    0 -0.77639069394E+02  0.49927986616E+02  0.85388147601E+02  0.12574483966E+03  0.25500000000E-02 0.  1.
<mgrwt>
<rscale>  0 0.92307253E+02</rscale>
<asrwt>0</asrwt>
<pdfrwt beam="1">  1       11 0.10000000E+01 0.17554231E+03</pdfrwt>
<pdfrwt beam="2">  1        2 0.92458587E-02 0.92307253E+02</pdfrwt>
<totfact> 0.81785267E+02</totfact>
</mgrwt>
</event>
<event>
 5    1  0.6729100E-004  0.1586907E+03  0.7818608E-02  0.1657040E+00
         11   -1    0    0    0    0  0.00000000000E+00  0.00000000000E+00  0.10004934332E+04  0.10004934332E+04  0.51100000000E-03 0.  1.
          2   -1    0    0  501    0 -0.00000000000E+00 -0.00000000000E+00 -0.43686837594E+03  0.43686837595E+03  0.25500000000E-02 0. -1.
         11    1    1    2    0    0 -0.10416228861E+03  0.13748811073E+03  0.14761538257E+03  0.22703097615E+03  0.51100000000E-03 0.  1.
         22    1    1    2    0    0  0.79026113528E+02 -0.13481380976E+03  0.80524887696E+03  0.82027168899E+03  0.00000000000E+00 0.  1.
          2    1    1    2  501    0  0.25136175085E+02 -0.26743009704E+01 -0.38923920230E+03  0.39005914398E+03  0.25500000000E-02 0. -1.
<mgrwt>
<rscale>  0 0.25278038E+02</rscale>
<asrwt>0</asrwt>
<pdfrwt beam="1">  1       11 0.10000000E+01 0.15869071E+03</pdfrwt>
<pdfrwt beam="2">  1        2 0.67243681E-01 0.25278038E+02</pdfrwt>
<totfact> 0.91577010E+01</totfact>
</mgrwt>
</event>
<event>
 5    1  0.6729100E-004  0.7988023E+02  0.7818608E-02  0.1329392E+00
         11   -1    0    0    0    0  0.00000000000E+00  0.00000000000E+00  0.99996429981E+03  0.99996429981E+03  0.51100000000E-03 0. -1.
          2   -1    0    0  501    0 -0.00000000000E+00 -0.00000000000E+00 -0.47719371501E+02  0.47719371569E+02  0.25500000000E-02 0. -1.
         11    1    1    2    0    0 -0.72523946838E+02 -0.96902602599E+01  0.37487408876E+03  0.38194791063E+03  0.51100000000E-03 0. -1.
         22    1    1    2    0    0  0.54217439149E+02  0.87776595135E+02  0.57636478005E+03  0.58552593542E+03  0.00000000000E+00 0. -1.
          2    1    1    2  501    0  0.18306507689E+02 -0.78086334875E+02  0.10060594969E+01  0.80209825335E+02  0.25500000000E-02 0. -1.
<mgrwt>
<rscale>  0 0.79880225E+02</rscale>
<asrwt>0</asrwt>
<pdfrwt beam="1">  1       11 0.10000000E+01 0.73168463E+02</pdfrwt>
<pdfrwt beam="2">  1        2 0.73411795E-02 0.79880225E+02</pdfrwt>
<totfact> 0.10758869E+03</totfact>
</mgrwt>
</event>
<event>
 5    1  0.6729100E-004  0.1291017E+03  0.7818608E-02  0.1228795E+00
         11   -1    0    0    0    0  0.00000000000E+00  0.00000000000E+00  0.10000100780E+04  0.10000100780E+04  0.51100000000E-03 0. -1.
          2   -1    0    0  501    0 -0.00000000000E+00 -0.00000000000E+00 -0.34523097270E+02  0.34523097365E+02  0.25500000000E-02 0. -1.
         11    1    1    2    0    0 -0.14437527077E+03  0.26966272801E+02  0.66262598313E+03  0.67870803163E+03  0.51100000000E-03 0. -1.
         22    1    1    2    0    0  0.18952366597E+02 -0.31941693222E+02  0.16606364256E+03  0.17016638136E+03  0.00000000000E+00 0.  1.
          2    1    1    2  501    0  0.12542290417E+03  0.49754204209E+01  0.13679735508E+03  0.18565876242E+03  0.25500000000E-02 0. -1.
<mgrwt>
<rscale>  0 0.12910175E+03</rscale>
<asrwt>0</asrwt>
<pdfrwt beam="1">  1       11 0.10000000E+01 0.37141136E+02</pdfrwt>
<pdfrwt beam="2">  1        2 0.53112991E-02 0.12910175E+03</pdfrwt>
<totfact> 0.16871357E+03</totfact>
</mgrwt>
</event>
<event>
 5    1  0.6729100E-004  0.1799204E+03  0.7818608E-02  0.1167880E+00
         11   -1    0    0    0    0  0.00000000000E+00  0.00000000000E+00  0.10002408265E+04  0.10002408265E+04  0.51100000000E-03 0.  1.
          2   -1    0    0  501    0 -0.00000000000E+00 -0.00000000000E+00 -0.63440043411E+02  0.63440043462E+02  0.25500000000E-02 0.  1.
         11    1    1    2    0    0 -0.13358154320E+03  0.11177366330E+03  0.69108744840E+03  0.71269856309E+03  0.51100000000E-03 0.  1.
         22    1    1    2    0    0 -0.23899122464E+02 -0.21035972885E+02  0.13380674331E+03  0.13754244714E+03  0.00000000000E+00 0.  1.
          2    1    1    2  501    0  0.15748066567E+03 -0.90737690412E+02  0.11190659136E+03  0.21343985972E+03  0.25500000000E-02 0.  1.
<mgrwt>
<rscale>  0 0.17992042E+03</rscale>
<asrwt>0</asrwt>
<pdfrwt beam="1">  1       11 0.10000000E+01 0.31838345E+02</pdfrwt>
<pdfrwt beam="2">  1        2 0.97623569E-02 0.17992042E+03</pdfrwt>
<totfact> 0.79579820E+02</totfact>
</mgrwt>
</event>
<event>
 5    1  0.6729100E-004  0.2575494E+03  0.7818608E-02  0.1108625E+00
         11   -1    0    0    0    0  0.00000000000E+00  0.00000000000E+00  0.10001849558E+04  0.10001849558E+04  0.51100000000E-03 0. -1.
          2   -1    0    0  501    0 -0.00000000000E+00 -0.00000000000E+00 -0.38366664005E+03  0.38366664006E+03  0.25500000000E-02 0. -1.
         11    1    1    2    0    0  0.12645361957E+03 -0.27532364045E+03  0.70876035892E+03  0.77080144737E+03  0.51100000000E-03 0. -1.
         22    1    1    2    0    0 -0.10065637384E+02  0.48750230047E+02  0.21113272312E+03  0.21692148063E+03  0.00000000000E+00 0. -1.
          2    1    1    2  501    0 -0.11638798218E+03  0.22657341041E+03 -0.30337476627E+03  0.39612866788E+03  0.25500000000E-02 0. -1.
<mgrwt>
<rscale>  0 0.25754943E+03</rscale>
<asrwt>0</asrwt>
<pdfrwt beam="1">  1       11 0.10000000E+01 0.49778529E+02</pdfrwt>
<pdfrwt beam="2">  1        2 0.59036552E-01 0.25754943E+03</pdfrwt>
<totfact> 0.10392038E+02</totfact>
</mgrwt>
</event>
<event>
 5    1  0.6729100E-004  0.1002826E+03  0.7818608E-02  0.1279703E+00
         11   -1    0    0    0    0  0.00000000000E+00  0.00000000000E+00  0.10004069197E+04  0.10004069197E+04  0.51100000000E-03 0. -1.
          2   -1    0    0  501    0 -0.00000000000E+00 -0.00000000000E+00 -0.23479879465E+02  0.23479879604E+02  0.25500000000E-02 0. -1.
         11    1    1    2    0    0 -0.54681019322E+02  0.53473096697E+02  0.32373801481E+03  0.33264949749E+03  0.51100000000E-03 0. -1.
         22    1    1    2    0    0  0.63695400993E+02 -0.13221000510E+03  0.43662508844E+03  0.46062789474E+03  0.00000000000E+00 0. -1.
          2    1    1    2  501    0 -0.90143816708E+01  0.78736908408E+02  0.21656393694E+03  0.23060940703E+03  0.25500000000E-02 0. -1.
<mgrwt>
<rscale>  0 0.10028257E+03</rscale>
<asrwt>0</asrwt>
<pdfrwt beam="1">  1       11 0.10000000E+01 0.76481278E+02</pdfrwt>
<pdfrwt beam="2">  1        2 0.36137590E-02 0.10028257E+03</pdfrwt>
<totfact> 0.27299566E+03</totfact>
</mgrwt>
</event>
<event>
 5    1  0.6729100E-004  0.4499266E+03  0.7818608E-02  0.1027744E+00
         11   -1    0    0    0    0  0.00000000000E+00  0.00000000000E+00  0.10003559278E+04  0.10003559278E+04  0.51100000000E-03 0. -1.
          2   -1    0    0  501    0 -0.00000000000E+00 -0.00000000000E+00 -0.40662563296E+03  0.40662563297E+03  0.25500000000E-02 0. -1.
         11    1    1    2    0    0 -0.34464361455E+03 -0.24840319098E+03  0.44544264562E+03  0.61555058027E+03  0.51100000000E-03 0. -1.
         22    1    1    2    0    0  0.56691219484E+02 -0.11301469428E+03  0.28311090892E+03  0.31006128788E+03  0.00000000000E+00 0.  1.
          2    1    1    2  501    0  0.28795239507E+03  0.36141788526E+03 -0.13482325969E+03  0.48136969262E+03  0.25500000000E-02 0. -1.
<mgrwt>
<rscale>  0 0.44992660E+03</rscale>
<asrwt>0</asrwt>
<pdfrwt beam="1">  1       11 0.10000000E+01 0.12643661E+03</pdfrwt>
<pdfrwt beam="2">  1        2 0.62580054E-01 0.44992660E+03</pdfrwt>
<totfact> 0.97019054E+01</totfact>
</mgrwt>
</event>
<event>
 5    1  0.6729100E-004  0.1699193E+03  0.7818608E-02  0.1181300E+00
         11   -1    0    0    0    0  0.00000000000E+00  0.00000000000E+00  0.10001579782E+04  0.10001579782E+04  0.51100000000E-03 0. -1.
          2   -1    0    0  501    0 -0.00000000000E+00 -0.00000000000E+00 -0.30402065522E+02  0.30402065629E+02  0.25500000000E-02 0. -1.
         11    1    1    2    0    0  0.10660233692E+03  0.11553041145E+03  0.31140324376E+03  0.34883135528E+03  0.51100000000E-03 0. -1.
         22    1    1    2    0    0  0.91204542766E+01  0.45005590433E+01  0.43200600559E+02  0.44381635916E+02  0.00000000000E+00 0.  1.
          2    1    1    2  501    0 -0.11572279120E+03 -0.12003097049E+03  0.61515206837E+03  0.63734705264E+03  0.25500000000E-02 0. -1.
<mgrwt>
<rscale>  0 0.16673092E+03</rscale>
<asrwt>0</asrwt>
<pdfrwt beam="1">  1       11 0.10000000E+01 0.16991930E+03</pdfrwt>
<pdfrwt beam="2">  1        2 0.46779796E-02 0.16673092E+03</pdfrwt>
<totfact> 0.20336509E+03</totfact>
</mgrwt>
</event>
<event>
 5    1  0.6729100E-004  0.5845136E+02  0.7818608E-02  0.1404448E+00
         11   -1    0    0    0    0  0.00000000000E+00  0.00000000000E+00  0.10002342462E+04  0.10002342462E+04  0.51100000000E-03 0. -1.
          2   -1    0    0  501    0 -0.00000000000E+00 -0.00000000000E+00 -0.84407951357E+01  0.84407955208E+01  0.25500000000E-02 0. -1.
         11    1    1    2    0    0  0.17797368045E+02  0.62526254638E+02  0.21511988943E+03  0.22472838196E+03  0.51100000000E-03 0. -1.
         22    1    1    2    0    0 -0.45255356401E+02 -0.14214262804E+02  0.25984096038E+03  0.26413522530E+03  0.00000000000E+00 0. -1.
          2    1    1    2  501    0  0.27457988356E+02 -0.48311991834E+02  0.51683260126E+03  0.51981143448E+03  0.25500000000E-02 0. -1.
<mgrwt>
<rscale>  0 0.58451359E+02</rscale>
<asrwt>0</asrwt>
<pdfrwt beam="1">  1       11 0.10000000E+01 0.47435140E+02</pdfrwt>
<pdfrwt beam="2">  1        2 0.12988880E-02 0.58451359E+02</pdfrwt>
<totfact> 0.99710947E+03</totfact>
</mgrwt>
</event>
<event>
 5    1  0.6729100E-004  0.9518915E+03  0.7818608E-02  0.9362942E-01
         11   -1    0    0    0    0  0.00000000000E+00  0.00000000000E+00  0.99934301117E+03  0.99934301117E+03  0.51100000000E-03 0. -1.
          2   -1    0    0  501    0 -0.00000000000E+00 -0.00000000000E+00 -0.11423787475E+04  0.11423787475E+04  0.25500000000E-02 0. -1.
         11    1    1    2    0    0 -0.42129715545E+03  0.85680309238E+03 -0.81821058297E+02  0.95827841355E+03  0.51100000000E-03 0. -1.
         22    1    1    2    0    0 -0.27287055285E+02 -0.19653507097E+02  0.19648470638E+03  0.19934162527E+03  0.00000000000E+00 0.  1.
          2    1    1    2  501    0  0.44858421074E+03 -0.83714958528E+03 -0.25769938441E+03  0.98410171984E+03  0.25500000000E-02 0. -1.
<mgrwt>
<rscale>  0 0.95189154E+03</rscale>
<asrwt>0</asrwt>
<pdfrwt beam="1">  1       11 0.10000000E+01 0.33628020E+02</pdfrwt>
<pdfrwt beam="2">  1        2 0.17563511E+00 0.95189154E+03</pdfrwt>
<totfact> 0.25283107E+01</totfact>
</mgrwt>
</event>
<event>
 5    1  0.6729100E-004  0.1404897E+03  0.7818608E-02  0.1317806E+00
         11   -1    0    0    0    0  0.00000000000E+00  0.00000000000E+00  0.10000803371E+04  0.10000803371E+04  0.51100000000E-03 0. -1.
         -2   -1    0    0    0  501 -0.00000000000E+00 -0.00000000000E+00 -0.46862175785E+02  0.46862175855E+02  0.25500000000E-02 0.  1.
         11    1    1    2    0    0 -0.17682227013E+03  0.41780406427E+02  0.42773486376E+03  0.46472446810E+03  0.51100000000E-03 0. -1.
         22    1    1    2    0    0  0.12369825192E+03  0.23415398029E+02  0.45620907504E+03  0.47326130049E+03  0.00000000000E+00 0.  1.
         -2    1    1    2    0  501  0.53124018210E+02 -0.65195804456E+02  0.69274222503E+02  0.10895674435E+03  0.25500000000E-02 0.  1.
<mgrwt>
<rscale>  0 0.84099074E+02</rscale>
<asrwt>0</asrwt>
<pdfrwt beam="1">  1       11 0.10000000E+01 0.14048966E+03</pdfrwt>
<pdfrwt beam="2">  1       -2 0.72101445E-02 0.84099074E+02</pdfrwt>
<totfact> 0.81666337E+02</totfact>
</mgrwt>
</event>
<event>
 5    1  0.6729100E-004  0.1166938E+03  0.7818608E-02  0.1655397E+00
         11   -1    0    0    0    0  0.00000000000E+00  0.00000000000E+00  0.10000697903E+04  0.10000697903E+04  0.51100000000E-03 0.  1.
         -2   -1    0    0    0  501 -0.00000000000E+00 -0.00000000000E+00 -0.17085600728E+03  0.17085600730E+03  0.25500000000E-02 0.  1.
         11    1    1    2    0    0  0.58527649933E+02 -0.10383854613E+03  0.31326306648E+03  0.33517410146E+03  0.51100000000E-03 0.  1.
         22    1    1    2    0    0 -0.77447104764E+02  0.86899174180E+02  0.66979051133E+03  0.67983001521E+03  0.00000000000E+00 0.  1.
         -2    1    1    2    0  501  0.18919454831E+02  0.16939371951E+02 -0.15383979483E+03  0.15592168090E+03  0.25500000000E-02 0.  1.
<mgrwt>
<rscale>  0 0.25394647E+02</rscale>
<asrwt>0</asrwt>
<pdfrwt beam="1">  1       11 0.10000000E+01 0.11669379E+03</pdfrwt>
<pdfrwt beam="2">  1       -2 0.26287373E-01 0.25394647E+02</pdfrwt>
<totfact> 0.97281071E+01</totfact>
</mgrwt>
</event>
<event>
 5    1  0.6729100E-004  0.1905120E+03  0.7818608E-02  0.1161624E+00
         11   -1    0    0    0    0  0.00000000000E+00  0.00000000000E+00  0.10000311342E+04  0.10000311342E+04  0.51100000000E-03 0. -1.
         -2   -1    0    0    0  501 -0.00000000000E+00 -0.00000000000E+00 -0.33454742868E+03  0.33454742869E+03  0.25500000000E-02 0.  1.
         11    1    1    2    0    0  0.82542077628E+02  0.36751657502E+01  0.48006482202E+03  0.48712312075E+03  0.51100000000E-03 0. -1.
         22    1    1    2    0    0  0.10203971795E+03 -0.30597501919E+02  0.48389645485E+03  0.49548369315E+03  0.00000000000E+00 0. -1.
         -2    1    1    2    0  501 -0.18458179558E+03  0.26922336168E+02 -0.29847757139E+03  0.35197174897E+03  0.25500000000E-02 0.  1.
<mgrwt>
<rscale>  0 0.18653485E+03</rscale>
<asrwt>0</asrwt>
<pdfrwt beam="1">  1       11 0.10000000E+01 0.19051196E+03</pdfrwt>
<pdfrwt beam="2">  1       -2 0.51470436E-01 0.18653485E+03</pdfrwt>
<totfact> 0.29402832E+01</totfact>
</mgrwt>
</event>
<event>
 5    1  0.6729100E-004  0.2777098E+03  0.7818608E-02  0.1096946E+00
         11   -1    0    0    0    0  0.00000000000E+00  0.00000000000E+00  0.10002158327E+04  0.10002158327E+04  0.51100000000E-03 0. -1.
          2   -1    0    0  501    0 -0.00000000000E+00 -0.00000000000E+00 -0.14813562100E+03  0.14813562102E+03  0.25500000000E-02 0. -1.
         11    1    1    2    0    0 -0.14941667059E+03  0.22209033681E+03  0.76299760724E+03  0.80858815711E+03  0.51100000000E-03 0. -1.
         22    1    1    2    0    0  0.14318658041E+02  0.23095437952E+02  0.50268612312E+02  0.57143298873E+02  0.00000000000E+00 0. -1.
          2    1    1    2  501    0  0.13509801255E+03 -0.24518577476E+03  0.38813992163E+02  0.28261999777E+03  0.25500000000E-02 0. -1.
<mgrwt>
<rscale>  0 0.27770977E+03</rscale>
<asrwt>0</asrwt>
<pdfrwt beam="1">  1       11 0.10000000E+01 0.27173944E+02</pdfrwt>
<pdfrwt beam="2">  1        2 0.22795014E-01 0.27770977E+03</pdfrwt>
<totfact> 0.29539925E+02</totfact>
</mgrwt>
</event>
<event>
 5    1  0.6729100E-004  0.4659884E+02  0.7818608E-02  0.1464600E+00
         11   -1    0    0    0    0  0.00000000000E+00  0.00000000000E+00  0.10002547612E+04  0.10002547612E+04  0.51100000000E-03 0. -1.
          2   -1    0    0  501    0 -0.00000000000E+00 -0.00000000000E+00 -0.97812292134E+01  0.97812295458E+01  0.25500000000E-02 0. -1.
         11    1    1    2    0    0  0.42592857361E+02  0.20911724743E+02  0.56342927111E+02  0.73661232447E+02  0.51100000000E-03 0. -1.
         22    1    1    2    0    0 -0.14738039505E+02  0.24334988471E+01  0.74854285860E+02  0.76330176449E+02  0.00000000000E+00 0. -1.
          2    1    1    2  501    0 -0.27854817856E+02 -0.23345223590E+02  0.85927631903E+03  0.86004458186E+03  0.25500000000E-02 0. -1.
<mgrwt>
<rscale>  0 0.46598840E+02</rscale>
<asrwt>0</asrwt>
<pdfrwt beam="1">  1       11 0.10000000E+01 0.14937594E+02</pdfrwt>
<pdfrwt beam="2">  1        2 0.15051878E-02 0.46598840E+02</pdfrwt>
<totfact> 0.78864458E+03</totfact>
</mgrwt>
</event>
<event>
 5    1  0.6729100E-004  0.1347306E+03  0.7818608E-02  0.1220600E+00
         11   -1    0    0    0    0  0.00000000000E+00  0.00000000000E+00  0.10001089449E+04  0.10001089449E+04  0.51100000000E-03 0.  1.
          2   -1    0    0  501    0 -0.00000000000E+00 -0.00000000000E+00 -0.63753383596E+03  0.63753383597E+03  0.25500000000E-02 0.  1.
         11    1    1    2    0    0  0.17357882956E+03 -0.19434097208E+02  0.90857708018E+03  0.92521327532E+03  0.51100000000E-03 0.  1.
         22    1    1    2    0    0 -0.43129513625E+02 -0.13023053303E+02  0.69276342231E+02  0.82637560805E+02  0.00000000000E+00 0.  1.
          2    1    1    2  501    0 -0.13044931593E+03  0.32457150510E+02 -0.61527831347E+03  0.62979194475E+03  0.25500000000E-02 0.  1.
<mgrwt>
<rscale>  0 0.13473061E+03</rscale>
<asrwt>0</asrwt>
<pdfrwt beam="1">  1       11 0.10000000E+01 0.45052801E+02</pdfrwt>
<pdfrwt beam="2">  1        2 0.98092811E-01 0.13473061E+03</pdfrwt>
<totfact> 0.59642680E+01</totfact>
</mgrwt>
</event>
<event>
 5    1  0.6729100E-004  0.2643831E+03  0.7818608E-02  0.1108279E+00
         11   -1    0    0    0    0  0.00000000000E+00  0.00000000000E+00  0.99986394396E+03  0.99986394396E+03  0.51100000000E-03 0. -1.
          2   -1    0    0  501    0 -0.00000000000E+00 -0.00000000000E+00 -0.51823391315E+03  0.51823391316E+03  0.25500000000E-02 0.  1.
         11    1    1    2    0    0 -0.47971321819E+01 -0.18688127659E+03  0.76061944736E+03  0.78325574860E+03  0.51100000000E-03 0. -1.
         22    1    1    2    0    0 -0.18307166742E+02 -0.70201534242E+02  0.18786296751E+03  0.20138496052E+03  0.00000000000E+00 0. -1.
          2    1    1    2  501    0  0.23104298924E+02  0.25708281083E+03 -0.46685238405E+03  0.53345714800E+03  0.25500000000E-02 0.  1.
<mgrwt>
<rscale>  0 0.25811893E+03</rscale>
<asrwt>0</asrwt>
<pdfrwt beam="1">  1       11 0.10000000E+01 0.26438312E+03</pdfrwt>
<pdfrwt beam="2">  1        2 0.79717445E-01 0.25811893E+03</pdfrwt>
<totfact> 0.74537549E+01</totfact>
</mgrwt>
</event>
<event>
 5    1  0.6729100E-004  0.3342277E+03  0.7818608E-02  0.1074622E+00
         11   -1    0    0    0    0  0.00000000000E+00  0.00000000000E+00  0.10000297422E+04  0.10000297422E+04  0.51100000000E-03 0. -1.
          2   -1    0    0  501    0 -0.00000000000E+00 -0.00000000000E+00 -0.47376293897E+03  0.47376293897E+03  0.25500000000E-02 0. -1.
         11    1    1    2    0    0  0.13561371853E+03 -0.26611596115E+03  0.78936309164E+03  0.84398037647E+03  0.51100000000E-03 0. -1.
         22    1    1    2    0    0  0.33243783190E+02 -0.83416604287E+01  0.12255190470E+03  0.12725447641E+03  0.00000000000E+00 0.  1.
          2    1    1    2  501    0 -0.16885750172E+03  0.27445762158E+03 -0.38564819310E+03  0.50255782829E+03  0.25500000000E-02 0. -1.
<mgrwt>
<rscale>  0 0.32224190E+03</rscale>
<asrwt>0</asrwt>
<pdfrwt beam="1">  1       11 0.10000000E+01 0.33422774E+03</pdfrwt>
<pdfrwt beam="2">  1        2 0.72888772E-01 0.32224190E+03</pdfrwt>
<totfact> 0.82158022E+01</totfact>
</mgrwt>
</event>
<event>
 5    1  0.6729100E-004  0.2879369E+03  0.7818608E-02  0.1091431E+00
         11   -1    0    0    0    0  0.00000000000E+00  0.00000000000E+00  0.10004682798E+04  0.10004682798E+04  0.51100000000E-03 0. -1.
         -2   -1    0    0    0  501 -0.00000000000E+00 -0.00000000000E+00 -0.26825488979E+03  0.26825488980E+03  0.25500000000E-02 0.  1.
         11    1    1    2    0    0 -0.24004707088E+03 -0.17426942526E+03  0.82754457804E+03  0.87910321207E+03  0.51100000000E-03 0. -1.
         22    1    1    2    0    0  0.15582936194E+02 -0.47249569255E+01  0.60712964488E+02  0.62858708031E+02  0.00000000000E+00 0.  1.
         -2    1    1    2    0  501  0.22446413469E+03  0.17899438218E+03 -0.15604415255E+03  0.32676124948E+03  0.25500000000E-02 0.  1.
<mgrwt>
<rscale>  0 0.28793690E+03</rscale>
<asrwt>0</asrwt>
<pdfrwt beam="1">  1       11 0.10000000E+01 0.16283523E+02</pdfrwt>
<pdfrwt beam="2">  1       -2 0.41289308E-01 0.28793690E+03</pdfrwt>
<totfact> 0.45306026E+01</totfact>
</mgrwt>
</event>
<event>
 5    1  0.6729100E-004  0.1772031E+03  0.7818608E-02  0.1170538E+00
         11   -1    0    0    0    0  0.00000000000E+00  0.00000000000E+00  0.10002078854E+04  0.10002078854E+04  0.51100000000E-03 0. -1.
          2   -1    0    0  501    0 -0.00000000000E+00 -0.00000000000E+00 -0.32059992445E+02  0.32059992546E+02  0.25500000000E-02 0. -1.
         11    1    1    2    0    0  0.17375183125E+02 -0.17146920655E+03  0.36529579343E+03  0.40391162707E+03  0.51100000000E-03 0. -1.
         22    1    1    2    0    0  0.12666111526E+02  0.44652536447E+02  0.13908185236E+03  0.14662210287E+03  0.00000000000E+00 0.  1.
          2    1    1    2  501    0 -0.30041294650E+02  0.12681667010E+03  0.46377024714E+03  0.48173414799E+03  0.25500000000E-02 0. -1.
<mgrwt>
<rscale>  0 0.17720306E+03</rscale>
<asrwt>0</asrwt>
<pdfrwt beam="1">  1       11 0.10000000E+01 0.17234737E+03</pdfrwt>
<pdfrwt beam="2">  1        2 0.49333318E-02 0.17720306E+03</pdfrwt>
<totfact> 0.19052071E+03</totfact>
</mgrwt>
</event>
<event>
 5    1  0.6729100E-004  0.3978435E+03  0.7818608E-02  0.1044529E+00
         11   -1    0    0    0    0  0.00000000000E+00  0.00000000000E+00  0.10003664455E+04  0.10003664455E+04  0.51100000000E-03 0. -1.
          2   -1    0    0  501    0 -0.00000000000E+00 -0.00000000000E+00 -0.36096801555E+03  0.36096801556E+03  0.25500000000E-02 0. -1.
         11    1    1    2    0    0  0.34752468485E+03 -0.16647894990E+03  0.68978762597E+03  0.79012379807E+03  0.51100000000E-03 0. -1.
         22    1    1    2    0    0  0.22158587692E+02  0.13428214446E+02  0.12982528640E+03  0.13238551635E+03  0.00000000000E+00 0.  1.
          2    1    1    2  501    0 -0.36968327254E+03  0.15305073545E+03 -0.18021448244E+03  0.43882514662E+03  0.25500000000E-02 0. -1.
<mgrwt>
<rscale>  0 0.39784352E+03</rscale>
<asrwt>0</asrwt>
<pdfrwt beam="1">  1       11 0.10000000E+01 0.25909843E+02</pdfrwt>
<pdfrwt beam="2">  1        2 0.55553889E-01 0.39784352E+03</pdfrwt>
<totfact> 0.11077835E+02</totfact>
</mgrwt>
</event>
<event>
 5    1  0.6729100E-004  0.1394437E+03  0.7818608E-02  0.1483432E+00
         11   -1    0    0    0    0  0.00000000000E+00  0.00000000000E+00  0.10003095410E+04  0.10003095410E+04  0.51100000000E-03 0.  1.
          2   -1    0    0  501    0 -0.00000000000E+00 -0.00000000000E+00 -0.79206339592E+02  0.79206339633E+02  0.25500000000E-02 0.  1.
         11    1    1    2    0    0  0.12319474406E+03 -0.83971421807E+02  0.57730191165E+03  0.59624293861E+03  0.51100000000E-03 0.  1.
         22    1    1    2    0    0 -0.12521089473E+03  0.40442113806E+02  0.39482540945E+03  0.41617356557E+03  0.00000000000E+00 0. -1.
          2    1    1    2  501    0  0.20161506749E+01  0.43529308001E+02 -0.51024119716E+02  0.67099376435E+02  0.25500000000E-02 0.  1.
<mgrwt>
<rscale>  0 0.43575974E+02</rscale>
<asrwt>0</asrwt>
<pdfrwt beam="1">  1       11 0.10000000E+01 0.13944374E+03</pdfrwt>
<pdfrwt beam="2">  1        2 0.12189362E-01 0.43575974E+02</pdfrwt>
<totfact> 0.55956373E+02</totfact>
</mgrwt>
</event>
<event>
 5    1  0.6729100E-004  0.4469702E+03  0.7818608E-02  0.1394744E+00
         11   -1    0    0    0    0  0.00000000000E+00  0.00000000000E+00  0.10008001976E+04  0.10008001976E+04  0.51100000000E-03 0. -1.
          2   -1    0    0  501    0 -0.00000000000E+00 -0.00000000000E+00 -0.11059499369E+04  0.11059499369E+04  0.25500000000E-02 0. -1.
         11    1    1    2    0    0 -0.39976764734E+03 -0.84099014622E+02 -0.10923259196E+03  0.42286945416E+03  0.51100000000E-03 0. -1.
         22    1    1    2    0    0  0.45290334373E+03  0.54667745768E+02  0.78106442567E+03  0.90452840654E+03  0.00000000000E+00 0. -1.
          2    1    1    2  501    0 -0.53135696396E+02  0.29431268854E+02 -0.77698157304E+03  0.77935227380E+03  0.25500000000E-02 0. -1.
<mgrwt>
<rscale>  0 0.60742093E+02</rscale>
<asrwt>0</asrwt>
<pdfrwt beam="1">  1       11 0.10000000E+01 0.44697020E+03</pdfrwt>
<pdfrwt beam="2">  1        2 0.17028229E+00 0.60742093E+02</pdfrwt>
<totfact> 0.30832813E+01</totfact>
</mgrwt>
</event>
<event>
 5    1  0.6729100E-004  0.1960897E+03  0.7818608E-02  0.1728113E+00
         11   -1    0    0    0    0  0.00000000000E+00  0.00000000000E+00  0.10006481673E+04  0.10006481673E+04  0.51100000000E-03 0. -1.
         -2   -1    0    0    0  501 -0.00000000000E+00 -0.00000000000E+00 -0.39343157809E+03  0.39343157810E+03  0.25500000000E-02 0.  1.
         11    1    1    2    0    0 -0.67123780639E+02 -0.18039424442E+03  0.13533359748E+03  0.23529315322E+03  0.51100000000E-03 0. -1.
         22    1    1    2    0    0  0.87668647649E+02  0.17659070314E+03  0.80308233869E+03  0.82692884272E+03  0.00000000000E+00 0. -1.
         -2    1    1    2    0  501 -0.20544867009E+02  0.38035412786E+01 -0.33119934692E+03  0.33185774949E+03  0.25500000000E-02 0.  1.
<mgrwt>
<rscale>  0 0.20893982E+02</rscale>
<asrwt>0</asrwt>
<pdfrwt beam="1">  1       11 0.10000000E+01 0.19608969E+03</pdfrwt>
<pdfrwt beam="2">  1       -2 0.60567166E-01 0.20893982E+02</pdfrwt>
<totfact> 0.21194339E+01</totfact>
</mgrwt>
</event>
<event>
 5    1  0.6729100E-004  0.3313523E+03  0.7818608E-02  0.1070540E+00
         11   -1    0    0    0    0  0.00000000000E+00  0.00000000000E+00  0.99996597587E+03  0.99996597587E+03  0.51100000000E-03 0. -1.
          2   -1    0    0  501    0 -0.00000000000E+00 -0.00000000000E+00 -0.39172774278E+03  0.39172774278E+03  0.25500000000E-02 0. -1.
         11    1    1    2    0    0  0.15812847597E+03  0.33098885859E+03  0.28142583781E+03  0.46234050397E+03  0.51100000000E-03 0. -1.
         22    1    1    2    0    0 -0.18626157533E+03  0.25284285843E+00  0.51479134811E+03  0.54745188872E+03  0.00000000000E+00 0. -1.
          2    1    1    2  501    0  0.28133099368E+02 -0.33124170144E+03 -0.18797895283E+03  0.38190132596E+03  0.25500000000E-02 0. -1.
<mgrwt>
<rscale>  0 0.33135227E+03</rscale>
<asrwt>0</asrwt>
<pdfrwt beam="1">  1       11 0.10000000E+01 0.18626175E+03</pdfrwt>
<pdfrwt beam="2">  1        2 0.60263754E-01 0.33135227E+03</pdfrwt>
<totfact> 0.10142525E+02</totfact>
</mgrwt>
</event>
<event>
 5    1  0.6729100E-004  0.8986656E+02  0.7818608E-02  0.1599341E+00
         11   -1    0    0    0    0  0.00000000000E+00  0.00000000000E+00  0.10002186223E+04  0.10002186223E+04  0.51100000000E-03 0. -1.
          2   -1    0    0  501    0 -0.00000000000E+00 -0.00000000000E+00 -0.93043592755E+02  0.93043592790E+02  0.25500000000E-02 0. -1.
         11    1    1    2    0    0  0.77602305155E+02  0.21712069974E+02  0.42218999523E+03  0.42981149801E+03  0.51100000000E-03 0. -1.
         22    1    1    2    0    0 -0.89794388247E+02 -0.48999148447E+02  0.56700328672E+03  0.57615681534E+03  0.00000000000E+00 0. -1.
          2    1    1    2  501    0  0.12192083091E+02  0.27287078474E+02 -0.82018252422E+02  0.87293901726E+02  0.25500000000E-02 0. -1.
<mgrwt>
<rscale>  0 0.29886980E+02</rscale>
<asrwt>0</asrwt>
<pdfrwt beam="1">  1       11 0.10000000E+01 0.89866559E+02</pdfrwt>
<pdfrwt beam="2">  1        2 0.14317528E-01 0.29886980E+02</pdfrwt>
<totfact> 0.45392752E+02</totfact>
</mgrwt>
</event>
<event>
 5    1  0.6729100E-004  0.1423117E+03  0.7818608E-02  0.1210252E+00
         11   -1    0    0    0    0  0.00000000000E+00  0.00000000000E+00  0.10002379159E+04  0.10002379159E+04  0.51100000000E-03 0. -1.
          2   -1    0    0  501    0 -0.00000000000E+00 -0.00000000000E+00 -0.53732322835E+02  0.53732322896E+02  0.25500000000E-02 0.  1.
         11    1    1    2    0    0 -0.88742948739E+02 -0.10746387330E+03  0.79897739253E+03  0.81104171828E+03  0.51100000000E-03 0. -1.
         22    1    1    2    0    0  0.13604358243E+02 -0.14049075751E+02  0.84573565344E+02  0.86805201732E+02  0.00000000000E+00 0. -1.
          2    1    1    2  501    0  0.75138590496E+02  0.12151294905E+03  0.62954635188E+02  0.15612331878E+03  0.25500000000E-02 0.  1.
<mgrwt>
<rscale>  0 0.14231169E+03</rscale>
<asrwt>0</asrwt>
<pdfrwt beam="1">  1       11 0.10000000E+01 0.19556459E+02</pdfrwt>
<pdfrwt beam="2">  1        2 0.82684777E-02 0.14231169E+03</pdfrwt>
<totfact> 0.96562963E+02</totfact>
</mgrwt>
</event>
<event>
 5    1  0.6729100E-004  0.4456434E+02  0.7818608E-02  0.1477080E+00
         11   -1    0    0    0    0  0.00000000000E+00  0.00000000000E+00  0.10000750676E+04  0.10000750676E+04  0.51100000000E-03 0.  1.
          2   -1    0    0  501    0 -0.00000000000E+00 -0.00000000000E+00 -0.64592639660E+01  0.64592644693E+01  0.25500000000E-02 0.  1.
         11    1    1    2    0    0  0.40064814165E+02  0.16070015134E+02  0.15231771579E+03  0.15831652240E+03  0.51100000000E-03 0.  1.
         22    1    1    2    0    0 -0.20572127135E+02  0.39063742621E+02  0.23540987533E+03  0.23951408686E+03  0.00000000000E+00 0.  1.
          2    1    1    2  501    0 -0.19492687030E+02 -0.55133757755E+02  0.60588821247E+03  0.60870372277E+03  0.25500000000E-02 0.  1.
<mgrwt>
<rscale>  0 0.44564340E+02</rscale>
<asrwt>0</asrwt>
<pdfrwt beam="1">  1       11 0.10000000E+01 0.43167541E+02</pdfrwt>
<pdfrwt beam="2">  1        2 0.99380753E-03 0.44564340E+02</pdfrwt>
<totfact> 0.13609027E+04</totfact>
</mgrwt>
</event>
<event>
 5    1  0.6729100E-004  0.2662097E+03  0.7818608E-02  0.1440521E+00
         11   -1    0    0    0    0  0.00000000000E+00  0.00000000000E+00  0.10006178681E+04  0.10006178681E+04  0.51100000000E-03 0. -1.
          2   -1    0    0  501    0 -0.00000000000E+00 -0.00000000000E+00 -0.22942641807E+04  0.22942641807E+04  0.25500000000E-02 0. -1.
         11    1    1    2    0    0  0.14602017979E+02 -0.25422081201E+03 -0.18322868678E+03  0.31371036299E+03  0.51100000000E-03 0. -1.
         22    1    1    2    0    0 -0.65248408628E+02  0.25934367629E+03  0.91593649589E+03  0.95417826520E+03  0.00000000000E+00 0. -1.
          2    1    1    2  501    0  0.50646390650E+02 -0.51228642772E+01 -0.20263541217E+04  0.20269934206E+04  0.25500000000E-02 0. -1.
<mgrwt>
<rscale>  0 0.50904819E+02</rscale>
<asrwt>0</asrwt>
<pdfrwt beam="1">  1       11 0.10000000E+01 0.26620968E+03</pdfrwt>
<pdfrwt beam="2">  1        2 0.35318180E+00 0.50904819E+02</pdfrwt>
<totfact> 0.79644345E+00</totfact>
</mgrwt>
</event>
<event>
 5    1  0.6729100E-004  0.1279368E+03  0.7818608E-02  0.1230550E+00
         11   -1    0    0    0    0  0.00000000000E+00  0.00000000000E+00  0.99991516207E+03  0.99991516207E+03  0.51100000000E-03 0.  1.
          2   -1    0    0  501    0 -0.00000000000E+00 -0.00000000000E+00 -0.18273402422E+02  0.18273402600E+02  0.25500000000E-02 0.  1.
         11    1    1    2    0    0  0.13064588716E+03  0.27835823000E+01  0.45250964598E+03  0.47100008054E+03  0.51100000000E-03 0.  1.
         22    1    1    2    0    0 -0.60311154950E+01  0.11671948152E+02  0.70215987150E+02  0.71434540520E+02  0.00000000000E+00 0.  1.
          2    1    1    2  501    0 -0.12461477167E+03 -0.14455530452E+02  0.45891612652E+03  0.47575394361E+03  0.25500000000E-02 0.  1.
<mgrwt>
<rscale>  0 0.12793677E+03</rscale>
<asrwt>0</asrwt>
<pdfrwt beam="1">  1       11 0.10000000E+01 0.13138064E+02</pdfrwt>
<pdfrwt beam="2">  1        2 0.28110541E-02 0.12793677E+03</pdfrwt>
<totfact> 0.39136331E+03</totfact>
</mgrwt>
</event>
<event>
 5    1  0.6729100E-004  0.2735996E+03  0.7818608E-02  0.1102815E+00
         11   -1    0    0    0    0  0.00000000000E+00  0.00000000000E+00  0.99990253987E+03  0.99990253987E+03  0.51100000000E-03 0. -1.
          2   -1    0    0  501    0 -0.00000000000E+00 -0.00000000000E+00 -0.78365006225E+02  0.78365006267E+02  0.25500000000E-02 0. -1.
         11    1    1    2    0    0  0.23350226751E+03  0.65016650631E+02  0.50174757511E+03  0.55722625828E+03  0.51100000000E-03 0. -1.
         22    1    1    2    0    0  0.26864699458E+02 -0.43812961423E+01  0.10294756803E+03  0.10648525530E+03  0.00000000000E+00 0. -1.
          2    1    1    2  501    0 -0.26036696697E+03 -0.60635354488E+02  0.31684239051E+03  0.41455603256E+03  0.25500000000E-02 0. -1.
<mgrwt>
<rscale>  0 0.26733425E+03</rscale>
<asrwt>0</asrwt>
<pdfrwt beam="1">  1       11 0.10000000E+01 0.27359963E+03</pdfrwt>
<pdfrwt beam="2">  1        2 0.12054979E-01 0.26733425E+03</pdfrwt>
<totfact> 0.62528460E+02</totfact>
</mgrwt>
</event>
<event>
 5    1  0.6729100E-004  0.1788280E+03  0.7818608E-02  0.1168942E+00
         11   -1    0    0    0    0  0.00000000000E+00  0.00000000000E+00  0.10003660949E+04  0.10003660949E+04  0.51100000000E-03 0. -1.
          2   -1    0    0  501    0 -0.00000000000E+00 -0.00000000000E+00 -0.54534171656E+02  0.54534171716E+02  0.25500000000E-02 0. -1.
         11    1    1    2    0    0  0.30454092326E+02 -0.17466979494E+03  0.14364584611E+03  0.22819096851E+03  0.51100000000E-03 0. -1.
         22    1    1    2    0    0  0.12966290704E+02 -0.53392508061E+01  0.76242562586E+02  0.77521356048E+02  0.00000000000E+00 0. -1.
          2    1    1    2  501    0 -0.43420383030E+02  0.18000904574E+03  0.72594351455E+03  0.74918794207E+03  0.25500000000E-02 0. -1.
<mgrwt>
<rscale>  0 0.17882803E+03</rscale>
<asrwt>0</asrwt>
<pdfrwt beam="1">  1       11 0.10000000E+01 0.14022564E+02</pdfrwt>
<pdfrwt beam="2">  1        2 0.83929438E-02 0.17882803E+03</pdfrwt>
<totfact> 0.96088748E+02</totfact>
</mgrwt>
</event>
<event>
 5    1  0.1494926E-003  0.2470848E+03  0.7818608E-02  0.1115161E+00
         11   -1    0    0    0    0  0.00000000000E+00  0.00000000000E+00  0.10010963563E+04  0.10010963563E+04  0.51100000000E-03 0.  1.
          2   -1    0    0  501    0 -0.00000000000E+00 -0.00000000000E+00 -0.21950160213E+04  0.21950160213E+04  0.25500000000E-02 0. -1.
         11    1    1    2    0    0 -0.21483618008E+03 -0.10304203387E+03  0.90482834140E+03  0.93567439445E+03  0.51100000000E-03 0.  1.
         22    1    1    2    0    0  0.68284676541E+01 -0.30463413567E+02  0.70526780424E+02  0.77127649346E+02  0.00000000000E+00 0.  1.
          2    1    1    2  501    0  0.20800771243E+03  0.13350544744E+03 -0.21692747869E+04  0.21833103338E+04  0.25500000000E-02 0. -1.
<mgrwt>
<rscale>  0 0.24708482E+03</rscale>
<asrwt>0</asrwt>
<pdfrwt beam="1">  1       11 0.10000000E+01 0.31219346E+02</pdfrwt>
<pdfrwt beam="2">  1        2 0.33806500E+00 0.24708482E+03</pdfrwt>
<totfact> 0.73972222E+00</totfact>
</mgrwt>
</event>
<event>
 5    1  0.6729100E-004  0.2796431E+03  0.7818608E-02  0.1097161E+00
         11   -1    0    0    0    0  0.00000000000E+00  0.00000000000E+00  0.10001836721E+04  0.10001836721E+04  0.51100000000E-03 0. -1.
          2   -1    0    0  501    0 -0.00000000000E+00 -0.00000000000E+00 -0.15118047530E+03  0.15118047532E+03  0.25500000000E-02 0. -1.
         11    1    1    2    0    0 -0.25825286889E+03 -0.42648282354E+02  0.79080709210E+03  0.83300016638E+03  0.51100000000E-03 0. -1.
         22    1    1    2    0    0 -0.14106370052E+02 -0.95785546803E+01  0.36389779419E+02  0.40186495642E+02  0.00000000000E+00 0. -1.
          2    1    1    2  501    0  0.27235923894E+03  0.52226837035E+02  0.21806325262E+02  0.27817748538E+03  0.25500000000E-02 0. -1.
<mgrwt>
<rscale>  0 0.27732147E+03</rscale>
<asrwt>0</asrwt>
<pdfrwt beam="1">  1       11 0.10000000E+01 0.27964313E+03</pdfrwt>
<pdfrwt beam="2">  1        2 0.23262806E-01 0.27732147E+03</pdfrwt>
<totfact> 0.28865766E+02</totfact>
</mgrwt>
</event>
<event>
 5    1  0.6729100E-004  0.1622678E+03  0.7818608E-02  0.1186160E+00
         11   -1    0    0    0    0  0.00000000000E+00  0.00000000000E+00  0.10004503763E+04  0.10004503763E+04  0.51100000000E-03 0. -1.
         -2   -1    0    0    0  501 -0.00000000000E+00 -0.00000000000E+00 -0.14586706218E+03  0.14586706220E+03  0.25500000000E-02 0.  1.
         11    1    1    2    0    0  0.15230068996E+03  0.39894265488E+02  0.49660181464E+03  0.52096104930E+03  0.51100000000E-03 0. -1.
         22    1    1    2    0    0 -0.46969768496E+01 -0.11785986059E+03  0.42828170928E+03  0.44422767905E+03  0.00000000000E+00 0.  1.
         -2    1    1    2    0  501 -0.14760371311E+03  0.77965595103E+02 -0.70300209790E+02  0.18112871017E+03  0.25500000000E-02 0.  1.
<mgrwt>
<rscale>  0 0.16226780E+03</rscale>
<asrwt>0</asrwt>
<pdfrwt beam="1">  1       11 0.10000000E+01 0.11795342E+03</pdfrwt>
<pdfrwt beam="2">  1       -2 0.22451193E-01 0.16226780E+03</pdfrwt>
<totfact> 0.13646437E+02</totfact>
</mgrwt>
</event>
<event>
 5    1  0.6729100E-004  0.2205993E+03  0.7818608E-02  0.1137934E+00
         11   -1    0    0    0    0  0.00000000000E+00  0.00000000000E+00  0.10001000710E+04  0.10001000710E+04  0.51100000000E-03 0.  1.
          2   -1    0    0  501    0 -0.00000000000E+00 -0.00000000000E+00 -0.50803998149E+02  0.50803998213E+02  0.25500000000E-02 0.  1.
         11    1    1    2    0    0  0.36794738360E+02 -0.18582642966E+03  0.48312076978E+03  0.51893255142E+03  0.51100000000E-03 0.  1.
         22    1    1    2    0    0  0.91540921884E+01 -0.23850464741E+02  0.13444333464E+03  0.13684901278E+03  0.00000000000E+00 0. -1.
          2    1    1    2  501    0 -0.45948830548E+02  0.20967689440E+03  0.33173196843E+03  0.39512250500E+03  0.25500000000E-02 0.  1.
<mgrwt>
<rscale>  0 0.21465250E+03</rscale>
<asrwt>0</asrwt>
<pdfrwt beam="1">  1       11 0.10000000E+01 0.22059927E+03</pdfrwt>
<pdfrwt beam="2">  1        2 0.78167817E-02 0.21465250E+03</pdfrwt>
<totfact> 0.10627460E+03</totfact>
</mgrwt>
</event>
<event>
 5    1  0.6729100E-004  0.2385208E+03  0.7818608E-02  0.1120782E+00
         11   -1    0    0    0    0  0.00000000000E+00  0.00000000000E+00  0.10000968802E+04  0.10000968802E+04  0.51100000000E-03 0.  1.
          2   -1    0    0  501    0 -0.00000000000E+00 -0.00000000000E+00 -0.39321482481E+03  0.39321482482E+03  0.25500000000E-02 0. -1.
         11    1    1    2    0    0 -0.15343473905E+03 -0.16511671296E+03  0.69248311537E+03  0.72824351224E+03  0.51100000000E-03 0.  1.
         22    1    1    2    0    0  0.24427209359E+02 -0.36569058248E+02  0.24943402881E+03  0.25328110729E+03  0.00000000000E+00 0.  1.
          2    1    1    2  501    0  0.12900752969E+03  0.20168577121E+03 -0.33503508881E+03  0.41178708548E+03  0.25500000000E-02 0. -1.
<mgrwt>
<rscale>  0 0.23852078E+03</rscale>
<asrwt>0</asrwt>
<pdfrwt beam="1">  1       11 0.10000000E+01 0.43977092E+02</pdfrwt>
<pdfrwt beam="2">  1        2 0.60500447E-01 0.23852078E+03</pdfrwt>
<totfact> 0.10124038E+02</totfact>
</mgrwt>
</event>
<event>
 5    1  0.6729100E-004  0.1162280E+03  0.7818608E-02  0.1673201E+00
         11   -1    0    0    0    0  0.00000000000E+00  0.00000000000E+00  0.99991288056E+03  0.99991288056E+03  0.51100000000E-03 0. -1.
          2   -1    0    0  501    0 -0.00000000000E+00 -0.00000000000E+00 -0.17893971782E+03  0.17893971784E+03  0.25500000000E-02 0. -1.
         11    1    1    2    0    0  0.22883067839E+02 -0.12437808808E+03  0.50245656552E+03  0.51812753625E+03  0.51100000000E-03 0. -1.
         22    1    1    2    0    0 -0.44581341907E+01  0.10873315326E+03  0.48267800307E+03  0.49479372290E+03  0.00000000000E+00 0. -1.
          2    1    1    2  501    0 -0.18424933649E+02  0.15644934822E+02 -0.16416140585E+03  0.16593133925E+03  0.25500000000E-02 0. -1.
<mgrwt>
<rscale>  0 0.24171102E+02</rscale>
<asrwt>0</asrwt>
<pdfrwt beam="1">  1       11 0.10000000E+01 0.11622800E+03</pdfrwt>
<pdfrwt beam="2">  1        2 0.27526788E-01 0.24171102E+02</pdfrwt>
<totfact> 0.22301558E+02</totfact>
</mgrwt>
</event>
<event>
 5    1  0.6729100E-004  0.2062767E+03  0.7818608E-02  0.1701970E+00
         11   -1    0    0    0    0  0.00000000000E+00  0.00000000000E+00  0.10001207367E+04  0.10001207367E+04  0.51100000000E-03 0.  1.
          2   -1    0    0  501    0 -0.00000000000E+00 -0.00000000000E+00 -0.15629916844E+03  0.15629916847E+03  0.25500000000E-02 0. -1.
         11    1    1    2    0    0 -0.91990962281E+02 -0.19569955424E+03  0.51990604032E+03  0.56308342493E+03  0.51100000000E-03 0.  1.
         22    1    1    2    0    0  0.74217275482E+02  0.18211981127E+03  0.43639155188E+03  0.47865793234E+03  0.00000000000E+00 0.  1.
          2    1    1    2  501    0  0.17773686798E+02  0.13579742962E+02 -0.11247602398E+03  0.11467854786E+03  0.25500000000E-02 0. -1.
<mgrwt>
<rscale>  0 0.22367686E+02</rscale>
<asrwt>0</asrwt>
<pdfrwt beam="1">  1       11 0.10000000E+01 0.20627670E+03</pdfrwt>
<pdfrwt beam="2">  1        2 0.24048928E-01 0.22367686E+02</pdfrwt>
<totfact> 0.25530944E+02</totfact>
</mgrwt>
</event>
<event>
 5    1  0.6729100E-004  0.1400748E+03  0.7818608E-02  0.1378723E+00
         11   -1    0    0    0    0  0.00000000000E+00  0.00000000000E+00  0.10003864593E+04  0.10003864593E+04  0.51100000000E-03 0.  1.
          2   -1    0    0  501    0 -0.00000000000E+00 -0.00000000000E+00 -0.51426516194E+03  0.51426516194E+03  0.25500000000E-02 0. -1.
         11    1    1    2    0    0  0.11654573176E+03 -0.13165035694E+03  0.62482317672E+03  0.64909069185E+03  0.51100000000E-03 0.  1.
         22    1    1    2    0    0 -0.63001845669E+02  0.95151487125E+02  0.35228945619E+03  0.37031189422E+03  0.00000000000E+00 0.  1.
          2    1    1    2  501    0 -0.53543886096E+02  0.36498869815E+02 -0.49099133556E+03  0.49524903517E+03  0.25500000000E-02 0. -1.
<mgrwt>
<rscale>  0 0.64800581E+02</rscale>
<asrwt>0</asrwt>
<pdfrwt beam="1">  1       11 0.10000000E+01 0.14007476E+03</pdfrwt>
<pdfrwt beam="2">  1        2 0.79148291E-01 0.64800581E+02</pdfrwt>
<totfact> 0.76799997E+01</totfact>
</mgrwt>
</event>
<event>
 5    1  0.6729100E-004  0.1059616E+03  0.7818608E-02  0.1268237E+00
         11   -1    0    0    0    0  0.00000000000E+00  0.00000000000E+00  0.10000189377E+04  0.10000189377E+04  0.51100000000E-03 0.  1.
          2   -1    0    0  501    0 -0.00000000000E+00 -0.00000000000E+00 -0.99960659777E+01  0.99960663029E+01  0.25500000000E-02 0.  1.
         11    1    1    2    0    0 -0.48339940530E+02  0.80011910333E+02  0.42786228060E+03  0.43795523380E+03  0.51100000000E-03 0.  1.
         22    1    1    2    0    0  0.42208218471E+02 -0.22370451873E+02  0.27262853941E+03  0.27678202854E+03  0.00000000000E+00 0. -1.
          2    1    1    2  501    0  0.61317220591E+01 -0.57641458460E+02  0.28953205168E+03  0.29527774164E+03  0.25500000000E-02 0.  1.
<mgrwt>
<rscale>  0 0.10596155E+03</rscale>
<asrwt>0</asrwt>
<pdfrwt beam="1">  1       11 0.10000000E+01 0.93480824E+02</pdfrwt>
<pdfrwt beam="2">  1        2 0.15378854E-02 0.10596155E+03</pdfrwt>
<totfact> 0.86694867E+03</totfact>
</mgrwt>
</event>
<event>
 5    1  0.6729100E-004  0.1902262E+03  0.7818608E-02  0.1160748E+00
         11   -1    0    0    0    0  0.00000000000E+00  0.00000000000E+00  0.10002334517E+04  0.10002334517E+04  0.51100000000E-03 0.  1.
          2   -1    0    0  501    0 -0.00000000000E+00 -0.00000000000E+00 -0.41950865737E+03  0.41950865738E+03  0.25500000000E-02 0.  1.
         11    1    1    2    0    0 -0.16752806152E+03 -0.35216528601E+02  0.92177129656E+03  0.93753302792E+03  0.51100000000E-03 0.  1.
         22    1    1    2    0    0 -0.16256211185E+02 -0.18598216752E+01  0.47800026812E+02  0.50522924519E+02  0.00000000000E+00 0.  1.
          2    1    1    2  501    0  0.18378427271E+03  0.37076350276E+02 -0.38884652907E+03  0.43168615662E+03  0.25500000000E-02 0.  1.
<mgrwt>
<rscale>  0 0.18748684E+03</rscale>
<asrwt>0</asrwt>
<pdfrwt beam="1">  1       11 0.10000000E+01 0.19022622E+03</pdfrwt>
<pdfrwt beam="2">  1        2 0.64554859E-01 0.18748684E+03</pdfrwt>
<totfact> 0.94528807E+01</totfact>
</mgrwt>
</event>
<event>
 5    1  0.6729100E-004  0.4267073E+03  0.7818608E-02  0.1216754E+00
         11   -1    0    0    0    0  0.00000000000E+00  0.00000000000E+00  0.10003954593E+04  0.10003954593E+04  0.51100000000E-03 0. -1.
          2   -1    0    0  501    0 -0.00000000000E+00 -0.00000000000E+00 -0.59555545238E+03  0.59555545238E+03  0.25500000000E-02 0. -1.
         11    1    1    2    0    0  0.23882692971E+03  0.41173640796E+03  0.64031904247E+02  0.48027622964E+03  0.51100000000E-03 0. -1.
         22    1    1    2    0    0 -0.30008219877E+03 -0.28865160388E+03  0.65305509393E+03  0.77449985807E+03  0.00000000000E+00 0. -1.
          2    1    1    2  501    0  0.61255269059E+02 -0.12308480408E+03 -0.31224699124E+03  0.34117482399E+03  0.25500000000E-02 0. -1.
<mgrwt>
<rscale>  0 0.13748482E+03</rscale>
<asrwt>0</asrwt>
<pdfrwt beam="1">  1       11 0.10000000E+01 0.42670734E+03</pdfrwt>
<pdfrwt beam="2">  1        2 0.91660147E-01 0.13748482E+03</pdfrwt>
<totfact> 0.64430904E+01</totfact>
</mgrwt>
</event>
<event>
 5    1  0.6729100E-004  0.1339668E+03  0.7818608E-02  0.1221686E+00
         11   -1    0    0    0    0  0.00000000000E+00  0.00000000000E+00  0.10003265777E+04  0.10003265777E+04  0.51100000000E-03 0. -1.
         -2   -1    0    0    0  501 -0.00000000000E+00 -0.00000000000E+00 -0.83140853938E+02  0.83140853977E+02  0.25500000000E-02 0.  1.
         11    1    1    2    0    0 -0.69003332262E+02 -0.13010691052E+03  0.88964474916E+03  0.90175220972E+03  0.51100000000E-03 0. -1.
         22    1    1    2    0    0  0.70562682371E+01  0.12299950304E+02  0.45269602892E+02  0.47438556522E+02  0.00000000000E+00 0. -1.
         -2    1    1    2    0  501  0.61947064025E+02  0.11780696021E+03 -0.17728628278E+02  0.13427666545E+03  0.25500000000E-02 0.  1.
<mgrwt>
<rscale>  0 0.13396679E+03</rscale>
<asrwt>0</asrwt>
<pdfrwt beam="1">  1       11 0.10000000E+01 0.14180257E+02</pdfrwt>
<pdfrwt beam="2">  1       -2 0.12795077E-01 0.13396679E+03</pdfrwt>
<totfact> 0.34486677E+02</totfact>
</mgrwt>
</event>
<event>
 5    1  0.6729100E-004  0.1674806E+03  0.7818608E-02  0.1180501E+00
         11   -1    0    0    0    0  0.00000000000E+00  0.00000000000E+00  0.99971563661E+03  0.99971563661E+03  0.51100000000E-03 0. -1.
          2   -1    0    0  501    0 -0.00000000000E+00 -0.00000000000E+00 -0.87292436052E+02  0.87292436089E+02  0.25500000000E-02 0. -1.
         11    1    1    2    0    0 -0.11371123948E+02  0.16270280860E+03  0.38681834670E+01  0.16314554615E+03  0.51100000000E-03 0. -1.
         22    1    1    2    0    0  0.13377022255E+02 -0.16583336946E+02  0.12260888873E+03  0.12444633938E+03  0.00000000000E+00 0.  1.
          2    1    1    2  501    0 -0.20058983071E+01 -0.14611947165E+03  0.78594612836E+03  0.79941618718E+03  0.25500000000E-02 0. -1.
<mgrwt>
<rscale>  0 0.16748059E+03</rscale>
<asrwt>0</asrwt>
<pdfrwt beam="1">  1       11 0.10000000E+01 0.16309976E+03</pdfrwt>
<pdfrwt beam="2">  1        2 0.13425786E-01 0.16748059E+03</pdfrwt>
<totfact> 0.53814890E+02</totfact>
</mgrwt>
</event>
<event>
 5    1  0.6729100E-004  0.1548690E+03  0.7818608E-02  0.1194614E+00
         11   -1    0    0    0    0  0.00000000000E+00  0.00000000000E+00  0.10001492864E+04  0.10001492864E+04  0.51100000000E-03 0.  1.
          2   -1    0    0  501    0 -0.00000000000E+00 -0.00000000000E+00 -0.40580886020E+02  0.40580886100E+02  0.25500000000E-02 0. -1.
         11    1    1    2    0    0  0.14320676739E+03  0.63633911299E+02  0.77409113906E+03  0.78979398863E+03  0.51100000000E-03 0.  1.
         22    1    1    2    0    0  0.17464901901E+01 -0.10188673422E+02  0.30095284557E+02  0.31821147790E+02  0.00000000000E+00 0. -1.
          2    1    1    2  501    0 -0.14495325758E+03 -0.53445237878E+02  0.15538197680E+03  0.21911503612E+03  0.25500000000E-02 0. -1.
<mgrwt>
<rscale>  0 0.15486903E+03</rscale>
<asrwt>0</asrwt>
<pdfrwt beam="1">  1       11 0.10000000E+01 0.10337277E+02</pdfrwt>
<pdfrwt beam="2">  1        2 0.62441451E-02 0.15486903E+03</pdfrwt>
<totfact> 0.13876624E+03</totfact>
</mgrwt>
</event>
<event>
 5    1  0.7750047E-004  0.1955220E+03  0.7818608E-02  0.1156076E+00
         11   -1    0    0    0    0  0.00000000000E+00  0.00000000000E+00  0.10011632178E+04  0.10011632178E+04  0.51100000000E-03 0.  1.
          2   -1    0    0  501    0 -0.00000000000E+00 -0.00000000000E+00 -0.17455575162E+04  0.17455575162E+04  0.25500000000E-02 0. -1.
         11    1    1    2    0    0  0.16225300749E+03  0.26261735436E+02  0.88427723498E+03  0.89942311817E+03  0.51100000000E-03 0.  1.
         22    1    1    2    0    0  0.26713434209E+02  0.11326258347E+02  0.10194270946E+03  0.10599154545E+03  0.00000000000E+00 0.  1.
          2    1    1    2  501    0 -0.18896644170E+03 -0.37587993783E+02 -0.17306142429E+04  0.17413060704E+04  0.25500000000E-02 0. -1.
<mgrwt>
<rscale>  0 0.19266856E+03</rscale>
<asrwt>0</asrwt>
<pdfrwt beam="1">  1       11 0.10000000E+01 0.19552204E+03</pdfrwt>
<pdfrwt beam="2">  1        2 0.26885968E+00 0.19266856E+03</pdfrwt>
<totfact> 0.13025275E+01</totfact>
</mgrwt>
</event>
<event>
 5    1  0.6729100E-004  0.1603346E+03  0.7818608E-02  0.1188319E+00
         11   -1    0    0    0    0  0.00000000000E+00  0.00000000000E+00  0.10002717721E+04  0.10002717721E+04  0.51100000000E-03 0. -1.
          2   -1    0    0  501    0 -0.00000000000E+00 -0.00000000000E+00 -0.25282490402E+02  0.25282490530E+02  0.25500000000E-02 0. -1.
         11    1    1    2    0    0 -0.62969999515E+02 -0.14295682735E+03  0.53105715843E+03  0.55355539998E+03  0.51100000000E-03 0. -1.
         22    1    1    2    0    0  0.15227923679E+02  0.80876178122E+01  0.50236341778E+02  0.53112985763E+02  0.00000000000E+00 0. -1.
          2    1    1    2  501    0  0.47742075836E+02  0.13486920954E+03  0.39369578149E+03  0.41888587689E+03  0.25500000000E-02 0. -1.
<mgrwt>
<rscale>  0 0.16033464E+03</rscale>
<asrwt>0</asrwt>
<pdfrwt beam="1">  1       11 0.10000000E+01 0.15621100E+03</pdfrwt>
<pdfrwt beam="2">  1        2 0.38906709E-02 0.16033464E+03</pdfrwt>
<totfact> 0.25881410E+03</totfact>
</mgrwt>
</event>
<event>
 5    1  0.6729100E-004  0.1904814E+03  0.7818608E-02  0.1161905E+00
         11   -1    0    0    0    0  0.00000000000E+00  0.00000000000E+00  0.10002813192E+04  0.10002813192E+04  0.51100000000E-03 0. -1.
          2   -1    0    0  501    0 -0.00000000000E+00 -0.00000000000E+00 -0.49532636495E+02  0.49532636561E+02  0.25500000000E-02 0. -1.
         11    1    1    2    0    0 -0.64004765896E+02  0.16196709370E+03  0.68222584919E+03  0.70410372730E+03  0.51100000000E-03 0. -1.
         22    1    1    2    0    0 -0.14484690805E+02  0.69161017890E+01  0.76679964279E+02  0.78341915049E+02  0.00000000000E+00 0. -1.
          2    1    1    2  501    0  0.78489456701E+02 -0.16888319549E+03  0.19184286923E+03  0.26736831340E+03  0.25500000000E-02 0. -1.
<mgrwt>
<rscale>  0 0.18623138E+03</rscale>
<asrwt>0</asrwt>
<pdfrwt beam="1">  1       11 0.10000000E+01 0.19048136E+03</pdfrwt>
<pdfrwt beam="2">  1        2 0.76225492E-02 0.18623138E+03</pdfrwt>
<totfact> 0.10880841E+03</totfact>
</mgrwt>
</event>
<event>
 5    1  0.6729100E-004  0.1060561E+04  0.7818608E-02  0.9300424E-01
         11   -1    0    0    0    0  0.00000000000E+00  0.00000000000E+00  0.10012254052E+04  0.10012254052E+04  0.51100000000E-03 0. -1.
          2   -1    0    0  501    0 -0.00000000000E+00 -0.00000000000E+00 -0.24611127277E+04  0.24611127277E+04  0.25500000000E-02 0. -1.
         11    1    1    2    0    0  0.20565363641E+01 -0.85307385218E+03  0.32118987712E+03  0.91153835014E+03  0.51100000000E-03 0. -1.
         22    1    1    2    0    0  0.35780797794E+02 -0.15365406359E+03  0.24308308270E+03  0.28979168698E+03  0.00000000000E+00 0. -1.
          2    1    1    2  501    0 -0.37837334158E+02  0.10067279158E+04 -0.20241602824E+04  0.22610080958E+04  0.25500000000E-02 0. -1.
<mgrwt>
<rscale>  0 0.10074387E+04</rscale>
<asrwt>0</asrwt>
<pdfrwt beam="1">  1       11 0.10000000E+01 0.10605611E+04</pdfrwt>
<pdfrwt beam="2">  1        2 0.37909669E+00 0.10074387E+04</pdfrwt>
<totfact> 0.45420534E+00</totfact>
</mgrwt>
</event>
<event>
 5    1  0.6729100E-004  0.5232189E+02  0.7818608E-02  0.1505563E+00
         11   -1    0    0    0    0  0.00000000000E+00  0.00000000000E+00  0.10005610087E+04  0.10005610087E+04  0.51100000000E-03 0. -1.
          2   -1    0    0  501    0 -0.00000000000E+00 -0.00000000000E+00 -0.58901851791E+01  0.58901857311E+01  0.25500000000E-02 0. -1.
         11    1    1    2    0    0  0.53521428754E+02  0.39648378034E+02  0.37644298964E+03  0.38229028456E+03  0.51100000000E-03 0. -1.
         22    1    1    2    0    0 -0.30995502947E+02  0.29558229981E+01  0.13539822758E+03  0.13893213496E+03  0.00000000000E+00 0. -1.
          2    1    1    2  501    0 -0.22525925807E+02 -0.42604201032E+02  0.48282960626E+03  0.48522877487E+03  0.25500000000E-02 0. -1.
<mgrwt>
<rscale>  0 0.40362111E+02</rscale>
<asrwt>0</asrwt>
<pdfrwt beam="1">  1       11 0.10000000E+01 0.52321893E+02</pdfrwt>
<pdfrwt beam="2">  1        2 0.90669073E-03 0.40362111E+02</pdfrwt>
<totfact> 0.15090450E+04</totfact>
</mgrwt>
</event>
<event>
 5    1  0.6729100E-004  0.9681157E+02  0.7818608E-02  0.1434611E+00
         11   -1    0    0    0    0  0.00000000000E+00  0.00000000000E+00  0.99987191207E+03  0.99987191207E+03  0.51100000000E-03 0.  1.
          2   -1    0    0  501    0 -0.00000000000E+00 -0.00000000000E+00 -0.18422593761E+02  0.18422593938E+02  0.25500000000E-02 0.  1.
         11    1    1    2    0    0  0.31321175282E+02 -0.89374608401E+02  0.36201948363E+03  0.37420174128E+03  0.51100000000E-03 0.  1.
         22    1    1    2    0    0 -0.80594511538E+02  0.72615165044E+02  0.27281586103E+03  0.29359313942E+03  0.00000000000E+00 0.  1.
          2    1    1    2  501    0  0.49273336256E+02  0.16759443356E+02  0.34661397365E+03  0.35049962531E+03  0.25500000000E-02 0.  1.
<mgrwt>
<rscale>  0 0.52045563E+02</rscale>
<asrwt>0</asrwt>
<pdfrwt beam="1">  1       11 0.10000000E+01 0.96811567E+02</pdfrwt>
<pdfrwt beam="2">  1        2 0.28338821E-02 0.52045563E+02</pdfrwt>
<totfact> 0.34810014E+03</totfact>
</mgrwt>
</event>
<event>
 5    1  0.6729100E-004  0.1402768E+03  0.7818608E-02  0.1214731E+00
         11   -1    0    0    0    0  0.00000000000E+00  0.00000000000E+00  0.10002515616E+04  0.10002515616E+04  0.51100000000E-03 0.  1.
         -2   -1    0    0    0  501 -0.00000000000E+00 -0.00000000000E+00 -0.23028713039E+02  0.23028713180E+02  0.25500000000E-02 0. -1.
         11    1    1    2    0    0  0.10527497298E+03 -0.67376769532E+02  0.27095851117E+03  0.29839732536E+03  0.51100000000E-03 0.  1.
         22    1    1    2    0    0  0.13135874440E+02 -0.53535578476E+01  0.19004002707E+02  0.23714212992E+02  0.00000000000E+00 0.  1.
         -2    1    1    2    0  501 -0.11841084742E+03  0.72730327379E+02  0.68726033473E+03  0.70116873647E+03  0.25500000000E-02 0. -1.
<mgrwt>
<rscale>  0 0.13896341E+03</rscale>
<asrwt>0</asrwt>
<pdfrwt beam="1">  1       11 0.10000000E+01 0.14027681E+03</pdfrwt>
<pdfrwt beam="2">  1       -2 0.35437701E-02 0.13896341E+03</pdfrwt>
<totfact> 0.24727045E+03</totfact>
</mgrwt>
</event>
<event>
 5    1  0.6729100E-004  0.1454695E+03  0.7818608E-02  0.1677312E+00
         11   -1    0    0    0    0  0.00000000000E+00  0.00000000000E+00  0.10000584065E+04  0.10000584065E+04  0.51100000000E-03 0. -1.
          2   -1    0    0  501    0 -0.00000000000E+00 -0.00000000000E+00 -0.53089520343E+03  0.53089520343E+03  0.25500000000E-02 0. -1.
         11    1    1    2    0    0 -0.13869260678E+02  0.12798833614E+03  0.14263310208E+03  0.19213946078E+03  0.51100000000E-03 0. -1.
         22    1    1    2    0    0  0.46892915974E+01 -0.15005581410E+03  0.82561682830E+03  0.83915545876E+03  0.00000000000E+00 0. -1.
          2    1    1    2  501    0  0.91799690807E+01  0.22067477965E+02 -0.49908672735E+03  0.49965869035E+03  0.25500000000E-02 0. -1.
<mgrwt>
<rscale>  0 0.23900741E+02</rscale>
<asrwt>0</asrwt>
<pdfrwt beam="1">  1       11 0.10000000E+01 0.14546949E+03</pdfrwt>
<pdfrwt beam="2">  1        2 0.81680953E-01 0.23900741E+02</pdfrwt>
<totfact> 0.75265541E+01</totfact>
</mgrwt>
</event>
<event>
 5    1  0.6729100E-004  0.8604972E+02  0.7818608E-02  0.1515479E+00
         11   -1    0    0    0    0  0.00000000000E+00  0.00000000000E+00  0.10003855514E+04  0.10003855514E+04  0.51100000000E-03 0.  1.
          2   -1    0    0  501    0 -0.00000000000E+00 -0.00000000000E+00 -0.30811812291E+02  0.30811812396E+02  0.25500000000E-02 0.  1.
         11    1    1    2    0    0  0.18785471832E+02 -0.71833964041E+02  0.28636165684E+02  0.79580414218E+02  0.51100000000E-03 0.  1.
         22    1    1    2    0    0 -0.57648016489E+02  0.68230744213E+02  0.42937524581E+03  0.43856793086E+03  0.00000000000E+00 0.  1.
          2    1    1    2  501    0  0.38862544657E+02  0.36032198282E+01  0.51156232762E+03  0.51304901873E+03  0.25500000000E-02 0.  1.
<mgrwt>
<rscale>  0 0.39029227E+02</rscale>
<asrwt>0</asrwt>
<pdfrwt beam="1">  1       11 0.10000000E+01 0.86049721E+02</pdfrwt>
<pdfrwt beam="2">  1        2 0.47421063E-02 0.39029227E+02</pdfrwt>
<totfact> 0.17352072E+03</totfact>
</mgrwt>
</event>
<event>
 5    1  0.6729100E-004  0.1387367E+03  0.7818608E-02  0.1215039E+00
         11   -1    0    0    0    0  0.00000000000E+00  0.00000000000E+00  0.10008037186E+04  0.10008037186E+04  0.51100000000E-03 0. -1.
          2   -1    0    0  501    0 -0.00000000000E+00 -0.00000000000E+00 -0.11197671794E+04  0.11197671795E+04  0.25500000000E-02 0. -1.
         11    1    1    2    0    0  0.12261571629E+03  0.58919660607E+02  0.34076640602E+03  0.36691672592E+03  0.51100000000E-03 0. -1.
         22    1    1    2    0    0 -0.27246199635E+02 -0.16006204957E+03  0.63229901803E+03  0.65281257900E+03  0.00000000000E+00 0. -1.
          2    1    1    2  501    0 -0.95369516653E+02  0.10114238897E+03 -0.10920288849E+04  0.11008415931E+04  0.25500000000E-02 0. -1.
<mgrwt>
<rscale>  0 0.13873674E+03</rscale>
<asrwt>0</asrwt>
<pdfrwt beam="1">  1       11 0.10000000E+01 0.13603728E+03</pdfrwt>
<pdfrwt beam="2">  1        2 0.17241033E+00 0.13873674E+03</pdfrwt>
<totfact> 0.28863749E+01</totfact>
</mgrwt>
</event>
<event>
 5    1  0.6729100E-004  0.1338391E+03  0.7818608E-02  0.1642707E+00
         11   -1    0    0    0    0  0.00000000000E+00  0.00000000000E+00  0.99985622489E+03  0.99985622489E+03  0.51100000000E-03 0. -1.
          2   -1    0    0  501    0 -0.00000000000E+00 -0.00000000000E+00 -0.97356983908E+02  0.97356983941E+02  0.25500000000E-02 0. -1.
         11    1    1    2    0    0  0.86873954888E+02  0.12361623766E+03  0.20900650627E+03  0.25789877455E+03  0.51100000000E-03 0. -1.
         22    1    1    2    0    0 -0.62283425917E+02 -0.11422689558E+03  0.75829237674E+03  0.76937269086E+03  0.00000000000E+00 0. -1.
          2    1    1    2  501    0 -0.24590528970E+02 -0.93893420711E+01 -0.64799642028E+02  0.69941743423E+02  0.25500000000E-02 0. -1.
<mgrwt>
<rscale>  0 0.26322117E+02</rscale>
<asrwt>0</asrwt>
<pdfrwt beam="1">  1       11 0.10000000E+01 0.13383911E+03</pdfrwt>
<pdfrwt beam="2">  1        2 0.14975844E-01 0.26322117E+02</pdfrwt>
<totfact> 0.42791222E+02</totfact>
</mgrwt>
</event>
<event>
 5    1  0.6729100E-004  0.1308384E+03  0.7818608E-02  0.1447632E+00
         11   -1    0    0    0    0  0.00000000000E+00  0.00000000000E+00  0.10001752429E+04  0.10001752429E+04  0.51100000000E-03 0. -1.
          2   -1    0    0  501    0 -0.00000000000E+00 -0.00000000000E+00 -0.43003373794E+02  0.43003373869E+02  0.25500000000E-02 0.  1.
         11    1    1    2    0    0  0.13523744507E+03  0.94427819911E+02  0.44756164068E+03  0.47698763289E+03  0.51100000000E-03 0. -1.
         22    1    1    2    0    0 -0.92158546146E+02 -0.69888785065E+02  0.50305682809E+03  0.51618195648E+03  0.00000000000E+00 0. -1.
          2    1    1    2  501    0 -0.43078898919E+02 -0.24539034847E+02  0.65534003840E+01  0.50009027449E+02  0.25500000000E-02 0.  1.
<mgrwt>
<rscale>  0 0.49577775E+02</rscale>
<asrwt>0</asrwt>
<pdfrwt beam="1">  1       11 0.10000000E+01 0.13083844E+03</pdfrwt>
<pdfrwt beam="2">  1        2 0.66170629E-02 0.49577775E+02</pdfrwt>
<totfact> 0.11747562E+03</totfact>
</mgrwt>
</event>
<event>
 5    1  0.6729100E-004  0.2574575E+03  0.7818608E-02  0.1108681E+00
         11   -1    0    0    0    0  0.00000000000E+00  0.00000000000E+00  0.10009716642E+04  0.10009716642E+04  0.51100000000E-03 0.  1.
          2   -1    0    0  501    0 -0.00000000000E+00 -0.00000000000E+00 -0.12153251247E+04  0.12153251247E+04  0.25500000000E-02 0.  1.
         11    1    1    2    0    0 -0.14227118666E+03 -0.21332564456E+03  0.78376893378E+03  0.82464699281E+03  0.51100000000E-03 0.  1.
         22    1    1    2    0    0  0.34257726987E+02 -0.20455791019E+02  0.18068589772E+03  0.18503898206E+03  0.00000000000E+00 0. -1.
          2    1    1    2  501    0  0.10801345968E+03  0.23378143558E+03 -0.11788082920E+04  0.12066108140E+04  0.25500000000E-02 0.  1.
<mgrwt>
<rscale>  0 0.25745749E+03</rscale>
<asrwt>0</asrwt>
<pdfrwt beam="1">  1       11 0.10000000E+01 0.39900266E+02</pdfrwt>
<pdfrwt beam="2">  1        2 0.18715477E+00 0.25745749E+03</pdfrwt>
<totfact> 0.24566356E+01</totfact>
</mgrwt>
</event>
<event>
 5    1  0.6729100E-004  0.2328046E+03  0.7818608E-02  0.1124681E+00
         11   -1    0    0    0    0  0.00000000000E+00  0.00000000000E+00  0.10001828836E+04  0.10001828836E+04  0.51100000000E-03 0. -1.
          2   -1    0    0  501    0 -0.00000000000E+00 -0.00000000000E+00 -0.60378062846E+02  0.60378062899E+02  0.25500000000E-02 0. -1.
         11    1    1    2    0    0 -0.22244368314E+03  0.70909562177E+02  0.34849552848E+03  0.41947406541E+03  0.51100000000E-03 0. -1.
         22    1    1    2    0    0  0.49593151302E+01  0.98588132439E+01  0.64763615865E+02  0.65697160859E+02  0.00000000000E+00 0.  1.
          2    1    1    2  501    0  0.21748436801E+03 -0.80768375421E+02  0.52654567639E+03  0.57538972021E+03  0.25500000000E-02 0. -1.
<mgrwt>
<rscale>  0 0.23280461E+03</rscale>
<asrwt>0</asrwt>
<pdfrwt beam="1">  1       11 0.10000000E+01 0.11035896E+02</pdfrwt>
<pdfrwt beam="2">  1        2 0.92906313E-02 0.23280461E+03</pdfrwt>
<totfact> 0.85805511E+02</totfact>
</mgrwt>
</event>
<event>
 5    1  0.6729100E-004  0.1014965E+03  0.7818608E-02  0.1277180E+00
         11   -1    0    0    0    0  0.00000000000E+00  0.00000000000E+00  0.10000068352E+04  0.10000068352E+04  0.51100000000E-03 0. -1.
          2   -1    0    0  501    0 -0.00000000000E+00 -0.00000000000E+00 -0.10140986946E+02  0.10140987266E+02  0.25500000000E-02 0. -1.
         11    1    1    2    0    0 -0.47386941766E+02 -0.84925944075E+02  0.56639436058E+03  0.57468296470E+03  0.51100000000E-03 0. -1.
         22    1    1    2    0    0  0.10764668746E+02  0.28205022438E+01  0.35016908776E+02  0.36742580562E+02  0.00000000000E+00 0. -1.
          2    1    1    2  501    0  0.36622273019E+02  0.82105441831E+02  0.38845457886E+03  0.39872227716E+03  0.25500000000E-02 0. -1.
<mgrwt>
<rscale>  0 0.10149651E+03</rscale>
<asrwt>0</asrwt>
<pdfrwt beam="1">  1       11 0.10000000E+01 0.97251932E+02</pdfrwt>
<pdfrwt beam="2">  1        2 0.15601625E-02 0.10149651E+03</pdfrwt>
<totfact> 0.84514249E+03</totfact>
</mgrwt>
</event>
<event>
 5    1  0.6729100E-004  0.1786213E+03  0.7818608E-02  0.1177703E+00
         11   -1    0    0    0    0  0.00000000000E+00  0.00000000000E+00  0.10002861533E+04  0.10002861533E+04  0.51100000000E-03 0.  1.
         -2   -1    0    0    0  501 -0.00000000000E+00 -0.00000000000E+00 -0.88118397627E+02  0.88118397664E+02  0.25500000000E-02 0. -1.
         11    1    1    2    0    0 -0.12401728056E+03 -0.39265040947E+02  0.64534102110E+03  0.65832139783E+03  0.51100000000E-03 0.  1.
         22    1    1    2    0    0 -0.26065485339E+02 -0.40875009513E+02  0.25496314736E+03  0.25953108184E+03  0.00000000000E+00 0.  1.
         -2    1    1    2    0  501  0.15008276590E+03  0.80140050460E+02  0.11863587180E+02  0.17055207127E+03  0.25500000000E-02 0. -1.
<mgrwt>
<rscale>  0 0.17013896E+03</rscale>
<asrwt>0</asrwt>
<pdfrwt beam="1">  1       11 0.10000000E+01 0.17862133E+03</pdfrwt>
<pdfrwt beam="2">  1       -2 0.13560555E-01 0.17013896E+03</pdfrwt>
<totfact> 0.31761274E+02</totfact>
</mgrwt>
</event>
<event>
 5    1  0.6729100E-004  0.1748844E+03  0.7818608E-02  0.1172848E+00
         11   -1    0    0    0    0  0.00000000000E+00  0.00000000000E+00  0.10001906059E+04  0.10001906059E+04  0.51100000000E-03 0. -1.
          2   -1    0    0  501    0 -0.00000000000E+00 -0.00000000000E+00 -0.12458114164E+03  0.12458114166E+03  0.25500000000E-02 0. -1.
         11    1    1    2    0    0 -0.34209214457E+02 -0.63086619598E+02  0.36656308873E+03  0.37352200732E+03  0.51100000000E-03 0. -1.
         22    1    1    2    0    0  0.75732916100E+02 -0.11305132541E+03  0.54926399909E+03  0.56586837467E+03  0.00000000000E+00 0.  1.
          2    1    1    2  501    0 -0.41523701643E+02  0.17613794501E+03 -0.40217623520E+02  0.18538136562E+03  0.25500000000E-02 0. -1.
<mgrwt>
<rscale>  0 0.17488444E+03</rscale>
<asrwt>0</asrwt>
<pdfrwt beam="1">  1       11 0.10000000E+01 0.71764838E+02</pdfrwt>
<pdfrwt beam="2">  1        2 0.19169982E-01 0.17488444E+03</pdfrwt>
<totfact> 0.35545269E+02</totfact>
</mgrwt>
</event>
<event>
 5    1  0.6729100E-004  0.1972026E+03  0.7818608E-02  0.1152121E+00
         11   -1    0    0    0    0  0.00000000000E+00  0.00000000000E+00  0.10002048062E+04  0.10002048062E+04  0.51100000000E-03 0.  1.
          2   -1    0    0  501    0 -0.00000000000E+00 -0.00000000000E+00 -0.68296436291E+02  0.68296436338E+02  0.25500000000E-02 0.  1.
         11    1    1    2    0    0 -0.20597633043E+03  0.52692895950E+02  0.17755809820E+03  0.27700120616E+03  0.51100000000E-03 0.  1.
         22    1    1    2    0    0  0.47026958578E+02 -0.53243583756E+02  0.14094431417E+03  0.15783445043E+03  0.00000000000E+00 0. -1.
          2    1    1    2  501    0  0.15894937185E+03  0.55068780632E+00  0.61340595755E+03  0.63366558596E+03  0.25500000000E-02 0.  1.
<mgrwt>
<rscale>  0 0.19720265E+03</rscale>
<asrwt>0</asrwt>
<pdfrwt beam="1">  1       11 0.10000000E+01 0.71038117E+02</pdfrwt>
<pdfrwt beam="2">  1        2 0.10509296E-01 0.19720265E+03</pdfrwt>
<totfact> 0.72992314E+02</totfact>
</mgrwt>
</event>
<event>
 5    1  0.6729100E-004  0.8024090E+02  0.7818608E-02  0.1328369E+00
         11   -1    0    0    0    0  0.00000000000E+00  0.00000000000E+00  0.10003639862E+04  0.10003639862E+04  0.51100000000E-03 0.  1.
          2   -1    0    0  501    0 -0.00000000000E+00 -0.00000000000E+00 -0.64380854673E+01  0.64380859723E+01  0.25500000000E-02 0.  1.
         11    1    1    2    0    0  0.39686093324E+02  0.65059295298E+02  0.37238230518E+03  0.38010035401E+03  0.51100000000E-03 0.  1.
         22    1    1    2    0    0 -0.24133626864E+02 -0.22273328228E+02  0.19629895523E+03  0.19902716628E+03  0.00000000000E+00 0.  1.
          2    1    1    2  501    0 -0.15552466460E+02 -0.42785967070E+02  0.42524464035E+03  0.42767455190E+03  0.25500000000E-02 0.  1.
<mgrwt>
<rscale>  0 0.80240902E+02</rscale>
<asrwt>0</asrwt>
<pdfrwt beam="1">  1       11 0.10000000E+01 0.76208292E+02</pdfrwt>
<pdfrwt beam="2">  1        2 0.99083522E-03 0.80240902E+02</pdfrwt>
<totfact> 0.15153625E+04</totfact>
</mgrwt>
</event>
<event>
 5    1  0.6729100E-004  0.1540220E+03  0.7818608E-02  0.1195616E+00
         11   -1    0    0    0    0  0.00000000000E+00  0.00000000000E+00  0.10003317930E+04  0.10003317930E+04  0.51100000000E-03 0. -1.
          2   -1    0    0  501    0 -0.00000000000E+00 -0.00000000000E+00 -0.22328834595E+02  0.22328834741E+02  0.25500000000E-02 0. -1.
         11    1    1    2    0    0 -0.21680153294E+02 -0.14214415269E+03  0.51604898401E+03  0.53570658302E+03  0.51100000000E-03 0. -1.
         22    1    1    2    0    0  0.23878831971E+02  0.18152338762E+02  0.92742652844E+02  0.97472589354E+02  0.00000000000E+00 0. -1.
          2    1    1    2  501    0 -0.21986786774E+01  0.12399181393E+03  0.36921132160E+03  0.38948145542E+03  0.25500000000E-02 0. -1.
<mgrwt>
<rscale>  0 0.15402197E+03</rscale>
<asrwt>0</asrwt>
<pdfrwt beam="1">  1       11 0.10000000E+01 0.14378800E+03</pdfrwt>
<pdfrwt beam="2">  1        2 0.34363450E-02 0.15402197E+03</pdfrwt>
<totfact> 0.30441004E+03</totfact>
</mgrwt>
</event>
<event>
 5    1  0.6729100E-004  0.4868669E+03  0.7818608E-02  0.1033304E+00
         11   -1    0    0    0    0  0.00000000000E+00  0.00000000000E+00  0.10001002973E+04  0.10001002973E+04  0.51100000000E-03 0.  1.
          2   -1    0    0  501    0 -0.00000000000E+00 -0.00000000000E+00 -0.14235470190E+04  0.14235470190E+04  0.25500000000E-02 0.  1.
         11    1    1    2    0    0 -0.36544406263E+03  0.68920860059E+03 -0.41645933321E+03  0.88430550957E+03  0.51100000000E-03 0.  1.
         22    1    1    2    0    0 -0.14534439774E+01 -0.46159498768E+03  0.62313855970E+03  0.77548288810E+03  0.00000000000E+00 0.  1.
          2    1    1    2  501    0  0.36689750660E+03 -0.22761361291E+03 -0.63012594813E+03  0.76385891868E+03  0.25500000000E-02 0.  1.
<mgrwt>
<rscale>  0 0.43176584E+03</rscale>
<asrwt>0</asrwt>
<pdfrwt beam="1">  1       11 0.10000000E+01 0.48686695E+03</pdfrwt>
<pdfrwt beam="2">  1        2 0.21902919E+00 0.43176584E+03</pdfrwt>
<totfact> 0.18213922E+01</totfact>
</mgrwt>
</event>
<event>
 5    1  0.6729100E-004  0.2710440E+03  0.7818608E-02  0.1100684E+00
         11   -1    0    0    0    0  0.00000000000E+00  0.00000000000E+00  0.10005899681E+04  0.10005899681E+04  0.51100000000E-03 0. -1.
          2   -1    0    0  501    0 -0.00000000000E+00 -0.00000000000E+00 -0.11683189223E+04  0.11683189223E+04  0.25500000000E-02 0. -1.
         11    1    1    2    0    0 -0.12460536221E+03 -0.27997035319E+03  0.83878148941E+03  0.89300855648E+03  0.51100000000E-03 0. -1.
         22    1    1    2    0    0  0.19877202439E+02  0.30687125430E+02  0.11582238113E+03  0.12145627532E+03  0.00000000000E+00 0.  1.
          2    1    1    2  501    0  0.10472815977E+03  0.24928322776E+03 -0.11223328247E+04  0.11544440587E+04  0.25500000000E-02 0. -1.
<mgrwt>
<rscale>  0 0.27104405E+03</rscale>
<asrwt>0</asrwt>
<pdfrwt beam="1">  1       11 0.10000000E+01 0.36562315E+02</pdfrwt>
<pdfrwt beam="2">  1        2 0.17984741E+00 0.27104405E+03</pdfrwt>
<totfact> 0.26069851E+01</totfact>
</mgrwt>
</event>
<event>
 5    1  0.6729100E-004  0.9813407E+02  0.7818608E-02  0.1427894E+00
         11   -1    0    0    0    0  0.00000000000E+00  0.00000000000E+00  0.10004192468E+04  0.10004192468E+04  0.51100000000E-03 0.  1.
          2   -1    0    0  501    0 -0.00000000000E+00 -0.00000000000E+00 -0.44741469000E+03  0.44741469001E+03  0.25500000000E-02 0. -1.
         11    1    1    2    0    0  0.10804126170E+02 -0.13456504321E+03  0.48493853971E+03  0.50337845335E+03  0.51100000000E-03 0.  1.
         22    1    1    2    0    0  0.67689432123E+01  0.84155214557E+02  0.50109025300E+03  0.50815289075E+03  0.00000000000E+00 0.  1.
          2    1    1    2  501    0 -0.17573069382E+02  0.50409828652E+02 -0.43302423586E+03  0.43630259276E+03  0.25500000000E-02 0. -1.
<mgrwt>
<rscale>  0 0.53385050E+02</rscale>
<asrwt>0</asrwt>
<pdfrwt beam="1">  1       11 0.10000000E+01 0.98134075E+02</pdfrwt>
<pdfrwt beam="2">  1        2 0.68861885E-01 0.53385050E+02</pdfrwt>
<totfact> 0.89125762E+01</totfact>
</mgrwt>
</event>
<event>
 5    1  0.6729100E-004  0.1474668E+03  0.7818608E-02  0.1203621E+00
         11   -1    0    0    0    0  0.00000000000E+00  0.00000000000E+00  0.10000342461E+04  0.10000342461E+04  0.51100000000E-03 0. -1.
          2   -1    0    0  501    0 -0.00000000000E+00 -0.00000000000E+00 -0.55474320992E+02  0.55474321051E+02  0.25500000000E-02 0. -1.
         11    1    1    2    0    0 -0.10535463011E+03 -0.83734531663E+02  0.10783696026E+03  0.17245254384E+03  0.51100000000E-03 0. -1.
         22    1    1    2    0    0 -0.71730670260E+02  0.14395111699E+00  0.37046591495E+03  0.37734639778E+03  0.00000000000E+00 0. -1.
          2    1    1    2  501    0  0.17708530037E+03  0.83590580546E+02  0.46625704988E+03  0.50570962551E+03  0.25500000000E-02 0. -1.
<mgrwt>
<rscale>  0 0.14746677E+03</rscale>
<asrwt>0</asrwt>
<pdfrwt beam="1">  1       11 0.10000000E+01 0.71730815E+02</pdfrwt>
<pdfrwt beam="2">  1        2 0.85348030E-02 0.14746677E+03</pdfrwt>
<totfact> 0.93010721E+02</totfact>
</mgrwt>
</event>
<event>
 5    1  0.6729100E-004  0.1711358E+03  0.7818608E-02  0.1176669E+00
         11   -1    0    0    0    0  0.00000000000E+00  0.00000000000E+00  0.10002405533E+04  0.10002405533E+04  0.51100000000E-03 0. -1.
          2   -1    0    0  501    0 -0.00000000000E+00 -0.00000000000E+00 -0.17785189340E+03  0.17785189342E+03  0.25500000000E-02 0. -1.
         11    1    1    2    0    0  0.15089205067E+03 -0.90071565278E+02  0.86370737712E+03  0.88140327383E+03  0.51100000000E-03 0. -1.
         22    1    1    2    0    0 -0.11567816469E+02 -0.89592173029E+01  0.83665992126E+02  0.84935741540E+02  0.00000000000E+00 0. -1.
          2    1    1    2  501    0 -0.13932423420E+03  0.99030782581E+02 -0.12498470931E+03  0.21175343138E+03  0.25500000000E-02 0. -1.
<mgrwt>
<rscale>  0 0.17113575E+03</rscale>
<asrwt>0</asrwt>
<pdfrwt beam="1">  1       11 0.10000000E+01 0.14631540E+02</pdfrwt>
<pdfrwt beam="2">  1        2 0.27368411E-01 0.17113575E+03</pdfrwt>
<totfact> 0.23828595E+02</totfact>
</mgrwt>
</event>
<event>
 5    1  0.6729100E-004  0.2160394E+02  0.7818608E-02  0.1849081E+00
         11   -1    0    0    0    0  0.00000000000E+00  0.00000000000E+00  0.10003013213E+04  0.10003013213E+04  0.51100000000E-03 0.  1.
          2   -1    0    0  501    0 -0.00000000000E+00 -0.00000000000E+00 -0.30589400476E+01  0.30589411104E+01  0.25500000000E-02 0.  1.
         11    1    1    2    0    0 -0.28941939924E+02 -0.12210315386E+02  0.10562154984E+03  0.11019364537E+03  0.51100000000E-03 0.  1.
         22    1    1    2    0    0  0.83837250321E+01  0.76146918382E+01  0.49371056749E+02  0.50653446297E+02  0.00000000000E+00 0. -1.
          2    1    1    2  501    0  0.20558214892E+02  0.45956235476E+01  0.84224977466E+03  0.84251317075E+03  0.25500000000E-02 0.  1.
<mgrwt>
<rscale>  0 0.15642204E+02</rscale>
<asrwt>0</asrwt>
<pdfrwt beam="1">  1       11 0.10000000E+01 0.21603939E+02</pdfrwt>
<pdfrwt beam="2">  1        2 0.47074803E-03 0.15642204E+02</pdfrwt>
<totfact> 0.28310592E+04</totfact>
</mgrwt>
</event>
<event>
 5    1  0.6729100E-004  0.8712860E+02  0.7818608E-02  0.1356896E+00
         11   -1    0    0    0    0  0.00000000000E+00  0.00000000000E+00  0.10002336425E+04  0.10002336425E+04  0.51100000000E-03 0. -1.
          2   -1    0    0  501    0 -0.00000000000E+00 -0.00000000000E+00 -0.22757430409E+02  0.22757430552E+02  0.25500000000E-02 0. -1.
         11    1    1    2    0    0 -0.75986837131E+02 -0.84639671721E+02  0.19491971976E+03  0.22568023971E+03  0.51100000000E-03 0. -1.
         22    1    1    2    0    0 -0.38494858408E+01  0.57645473993E+02  0.18418216789E+03  0.19303080112E+03  0.00000000000E+00 0. -1.
          2    1    1    2  501    0  0.79836322972E+02  0.26994197727E+02  0.59837432444E+03  0.60428003221E+03  0.25500000000E-02 0. -1.
<mgrwt>
<rscale>  0 0.70948948E+02</rscale>
<asrwt>0</asrwt>
<pdfrwt beam="1">  1       11 0.10000000E+01 0.87128599E+02</pdfrwt>
<pdfrwt beam="2">  1        2 0.35019611E-02 0.70948948E+02</pdfrwt>
<totfact> 0.27414187E+03</totfact>
</mgrwt>
</event>
<event>
 5    1  0.6729100E-004  0.2209624E+03  0.7818608E-02  0.1135488E+00
         11   -1    0    0    0    0  0.00000000000E+00  0.00000000000E+00  0.10001866193E+04  0.10001866193E+04  0.51100000000E-03 0.  1.
          2   -1    0    0  501    0 -0.00000000000E+00 -0.00000000000E+00 -0.49323457553E+02  0.49323457619E+02  0.25500000000E-02 0.  1.
         11    1    1    2    0    0  0.15315066970E+03  0.13637177815E+03  0.51934358978E+03  0.55836381845E+03  0.51100000000E-03 0.  1.
         22    1    1    2    0    0  0.29304808770E+01  0.15621394323E+02  0.40909486785E+02  0.43888515443E+02  0.00000000000E+00 0.  1.
          2    1    1    2  501    0 -0.15608115058E+03 -0.15199317248E+03  0.39061008519E+03  0.44725774303E+03  0.25500000000E-02 0.  1.
<mgrwt>
<rscale>  0 0.21786062E+03</rscale>
<asrwt>0</asrwt>
<pdfrwt beam="1">  1       11 0.10000000E+01 0.22096236E+03</pdfrwt>
<pdfrwt beam="2">  1        2 0.75896401E-02 0.21786062E+03</pdfrwt>
<totfact> 0.11044650E+03</totfact>
</mgrwt>
</event>
<event>
 5    1  0.6729100E-004  0.2764995E+03  0.7818608E-02  0.1105612E+00
         11   -1    0    0    0    0  0.00000000000E+00  0.00000000000E+00  0.10002123717E+04  0.10002123717E+04  0.51100000000E-03 0. -1.
          2   -1    0    0  501    0 -0.00000000000E+00 -0.00000000000E+00 -0.91173256433E+02  0.91173256469E+02  0.25500000000E-02 0. -1.
         11    1    1    2    0    0  0.22716126060E+03 -0.62588359665E+02  0.55005127524E+03  0.59839447397E+03  0.51100000000E-03 0. -1.
         22    1    1    2    0    0  0.19200164944E+02 -0.28218751154E+02  0.15984782330E+03  0.16345112684E+03  0.00000000000E+00 0. -1.
          2    1    1    2  501    0 -0.24636142554E+03  0.90807110819E+02  0.19914001674E+03  0.32954002737E+03  0.25500000000E-02 0. -1.
<mgrwt>
<rscale>  0 0.26256406E+03</rscale>
<asrwt>0</asrwt>
<pdfrwt beam="1">  1       11 0.10000000E+01 0.27649953E+03</pdfrwt>
<pdfrwt beam="2">  1        2 0.14029633E-01 0.26256406E+03</pdfrwt>
<totfact> 0.51986259E+02</totfact>
</mgrwt>
</event>
<event>
 5    1  0.6729100E-004  0.4413334E+03  0.7818608E-02  0.1030338E+00
         11   -1    0    0    0    0  0.00000000000E+00  0.00000000000E+00  0.10000121804E+04  0.10000121804E+04  0.51100000000E-03 0. -1.
          2   -1    0    0  501    0 -0.00000000000E+00 -0.00000000000E+00 -0.45318679245E+03  0.45318679246E+03  0.25500000000E-02 0. -1.
         11    1    1    2    0    0 -0.42354919967E+03  0.98448471682E+02  0.70855670390E+03  0.83134747775E+03  0.51100000000E-03 0. -1.
         22    1    1    2    0    0 -0.13851748095E+02 -0.31011429258E+02  0.10142090714E+03  0.10695690757E+03  0.00000000000E+00 0.  1.
          2    1    1    2  501    0  0.43740094777E+03 -0.67437042424E+02 -0.26315222306E+03  0.51489458757E+03  0.25500000000E-02 0. -1.
<mgrwt>
<rscale>  0 0.44133343E+03</rscale>
<asrwt>0</asrwt>
<pdfrwt beam="1">  1       11 0.10000000E+01 0.33964388E+02</pdfrwt>
<pdfrwt beam="2">  1        2 0.69721892E-01 0.44133343E+03</pdfrwt>
<totfact> 0.85988834E+01</totfact>
</mgrwt>
</event>
<event>
 5    1  0.6729100E-004  0.2074858E+03  0.7818608E-02  0.1570214E+00
         11   -1    0    0    0    0  0.00000000000E+00  0.00000000000E+00  0.10002350727E+04  0.10002350727E+04  0.51100000000E-03 0. -1.
          2   -1    0    0  501    0 -0.00000000000E+00 -0.00000000000E+00 -0.84824863454E+03  0.84824863454E+03  0.25500000000E-02 0.  1.
         11    1    1    2    0    0  0.16687509342E+03  0.14475861391E+03  0.39742834327E+03  0.45469950643E+03  0.51100000000E-03 0. -1.
         22    1    1    2    0    0 -0.13435590742E+03 -0.14800649775E+03  0.55643033366E+03  0.59124626803E+03  0.00000000000E+00 0. -1.
          2    1    1    2  501    0 -0.32519186002E+02  0.32478838416E+01 -0.80187223879E+03  0.80253793278E+03  0.25500000000E-02 0.  1.
<mgrwt>
<rscale>  0 0.32680976E+02</rscale>
<asrwt>0</asrwt>
<pdfrwt beam="1">  1       11 0.10000000E+01 0.20748579E+03</pdfrwt>
<pdfrwt beam="2">  1        2 0.13053046E+00 0.32680976E+02</pdfrwt>
<totfact> 0.44770962E+01</totfact>
</mgrwt>
</event>
<event>
 5    1  0.1079979E-003  0.2157213E+03  0.7818608E-02  0.1139004E+00
         11   -1    0    0    0    0  0.00000000000E+00  0.00000000000E+00  0.99997928378E+03  0.99997928378E+03  0.51100000000E-03 0. -1.
          2   -1    0    0  501    0 -0.00000000000E+00 -0.00000000000E+00 -0.76519475615E+03  0.76519475616E+03  0.25500000000E-02 0. -1.
         11    1    1    2    0    0 -0.56870790316E+02 -0.18957366829E+03  0.87991373805E+03  0.90189835841E+03  0.51100000000E-03 0. -1.
         22    1    1    2    0    0  0.41207613216E+01 -0.17068247065E+02  0.93160017419E+02  0.94800287854E+02  0.00000000000E+00 0.  1.
          2    1    1    2  501    0  0.52750028994E+02  0.20664191535E+03 -0.73828922784E+03  0.76847539368E+03  0.25500000000E-02 0. -1.
<mgrwt>
<rscale>  0 0.21326849E+03</rscale>
<asrwt>0</asrwt>
<pdfrwt beam="1">  1       11 0.10000000E+01 0.21572125E+03</pdfrwt>
<pdfrwt beam="2">  1        2 0.11771983E+00 0.21326849E+03</pdfrwt>
<totfact> 0.47279637E+01</totfact>
</mgrwt>
</event>
<event>
 5    1  0.6729100E-004  0.2498983E+03  0.7818608E-02  0.1113369E+00
         11   -1    0    0    0    0  0.00000000000E+00  0.00000000000E+00  0.10005385559E+04  0.10005385559E+04  0.51100000000E-03 0.  1.
          2   -1    0    0  501    0 -0.00000000000E+00 -0.00000000000E+00 -0.27800577646E+03  0.27800577647E+03  0.25500000000E-02 0.  1.
         11    1    1    2    0    0  0.50644169382E+01  0.12658352215E+03 -0.17304782605E+03  0.21446348524E+03  0.51100000000E-03 0.  1.
         22    1    1    2    0    0 -0.16381064336E+03  0.99912248563E+02  0.69872542181E+03  0.72459202271E+03  0.00000000000E+00 0.  1.
          2    1    1    2  501    0  0.15874622642E+03 -0.22649577071E+03  0.19685518368E+03  0.33948882441E+03  0.25500000000E-02 0.  1.
<mgrwt>
<rscale>  0 0.24989826E+03</rscale>
<asrwt>0</asrwt>
<pdfrwt beam="1">  1       11 0.10000000E+01 0.12668485E+03</pdfrwt>
<pdfrwt beam="2">  1        2 0.42793152E-01 0.24989826E+03</pdfrwt>
<totfact> 0.14723669E+02</totfact>
</mgrwt>
</event>
<event>
 5    1  0.6729100E-004  0.1736913E+03  0.7818608E-02  0.1250669E+00
         11   -1    0    0    0    0  0.00000000000E+00  0.00000000000E+00  0.10003544707E+04  0.10003544707E+04  0.51100000000E-03 0. -1.
          2   -1    0    0  501    0 -0.00000000000E+00 -0.00000000000E+00 -0.22396625731E+03  0.22396625733E+03  0.25500000000E-02 0. -1.
         11    1    1    2    0    0 -0.73815106973E+02  0.19835318617E+03  0.76959651649E+03  0.79816756053E+03  0.51100000000E-03 0. -1.
         22    1    1    2    0    0  0.96971963043E+02 -0.85173825922E+02  0.17784517300E+03  0.21974314051E+03  0.00000000000E+00 0. -1.
          2    1    1    2  501    0 -0.23156856070E+02 -0.11317936024E+03 -0.17105347609E+03  0.20641002702E+03  0.25500000000E-02 0. -1.
<mgrwt>
<rscale>  0 0.11552406E+03</rscale>
<asrwt>0</asrwt>
<pdfrwt beam="1">  1       11 0.10000000E+01 0.17369131E+03</pdfrwt>
<pdfrwt beam="2">  1        2 0.34468560E-01 0.11552406E+03</pdfrwt>
<totfact> 0.18431293E+02</totfact>
</mgrwt>
</event>
<event>
 5    1  0.6729100E-004  0.1456434E+03  0.7818608E-02  0.1327276E+00
         11   -1    0    0    0    0  0.00000000000E+00  0.00000000000E+00  0.10006178469E+04  0.10006178469E+04  0.51100000000E-03 0. -1.
          2   -1    0    0  501    0 -0.00000000000E+00 -0.00000000000E+00 -0.19526378158E+04  0.19526378158E+04  0.25500000000E-02 0.  1.
         11    1    1    2    0    0  0.11725997564E+03  0.11355308293E+03  0.45968473876E+03  0.48780555919E+03  0.51100000000E-03 0. -1.
         22    1    1    2    0    0 -0.13743007823E+03 -0.35487891884E+02  0.51645541906E+03  0.53560490732E+03  0.00000000000E+00 0.  1.
          2    1    1    2  501    0  0.20170102592E+02 -0.78065191049E+02 -0.19281601267E+04  0.19298451962E+04  0.25500000000E-02 0.  1.
<mgrwt>
<rscale>  0 0.80628823E+02</rscale>
<asrwt>0</asrwt>
<pdfrwt beam="1">  1       11 0.10000000E+01 0.14564340E+03</pdfrwt>
<pdfrwt beam="2">  1        2 0.30059141E+00 0.80628823E+02</pdfrwt>
<totfact> 0.11144528E+01</totfact>
</mgrwt>
</event>
<event>
 5    1  0.6729100E-004  0.4451814E+03  0.7818608E-02  0.1029169E+00
         11   -1    0    0    0    0  0.00000000000E+00  0.00000000000E+00  0.99991229094E+03  0.99991229094E+03  0.51100000000E-03 0.  1.
          2   -1    0    0  501    0 -0.00000000000E+00 -0.00000000000E+00 -0.36566371804E+03  0.36566371805E+03  0.25500000000E-02 0.  1.
         11    1    1    2    0    0 -0.26432173761E+03 -0.33843564528E+03  0.70009137166E+03  0.82129933376E+03  0.51100000000E-03 0.  1.
         22    1    1    2    0    0  0.33256007179E+02 -0.46963309756E+02  0.54314266205E+02  0.79129981614E+02  0.00000000000E+00 0.  1.
          2    1    1    2  501    0  0.23106573043E+03  0.38539895503E+03 -0.12015706496E+03  0.46514669362E+03  0.25500000000E-02 0.  1.
<mgrwt>
<rscale>  0 0.44518138E+03</rscale>
<asrwt>0</asrwt>
<pdfrwt beam="1">  1       11 0.10000000E+01 0.57545760E+02</pdfrwt>
<pdfrwt beam="2">  1        2 0.56251021E-01 0.44518138E+03</pdfrwt>
<totfact> 0.10919052E+02</totfact>
</mgrwt>
</event>
<event>
 5    1  0.6729100E-004  0.2933866E+03  0.7818608E-02  0.1485893E+00
         11   -1    0    0    0    0  0.00000000000E+00  0.00000000000E+00  0.10002065717E+04  0.10002065717E+04  0.51100000000E-03 0.  1.
          2   -1    0    0  501    0 -0.00000000000E+00 -0.00000000000E+00 -0.95065266073E+03  0.95065266074E+03  0.25500000000E-02 0. -1.
         11    1    1    2    0    0  0.27235791053E+03 -0.12085185771E+03 -0.14831998054E+02  0.29833536684E+03  0.51100000000E-03 0.  1.
         22    1    1    2    0    0 -0.28229280398E+03  0.78808339115E+02  0.83281460425E+03  0.88288172851E+03  0.00000000000E+00 0.  1.
          2    1    1    2  501    0  0.99348934426E+01  0.42043518594E+02 -0.76842869521E+03  0.76964213710E+03  0.25500000000E-02 0. -1.
<mgrwt>
<rscale>  0 0.43201384E+02</rscale>
<asrwt>0</asrwt>
<pdfrwt beam="1">  1       11 0.10000000E+01 0.29338663E+03</pdfrwt>
<pdfrwt beam="2">  1        2 0.14628446E+00 0.43201384E+02</pdfrwt>
<totfact> 0.38444659E+01</totfact>
</mgrwt>
</event>
<event>
 5    1  0.6729100E-004  0.1024999E+03  0.7818608E-02  0.1414893E+00
         11   -1    0    0    0    0  0.00000000000E+00  0.00000000000E+00  0.10004766978E+04  0.10004766978E+04  0.51100000000E-03 0. -1.
          2   -1    0    0  501    0 -0.00000000000E+00 -0.00000000000E+00 -0.13533419232E+04  0.13533419232E+04  0.25500000000E-02 0.  1.
         11    1    1    2    0    0  0.54880593786E+00 -0.88091492902E+02  0.46233049911E+03  0.47064838544E+03  0.51100000000E-03 0. -1.
         22    1    1    2    0    0 -0.38184962596E+02  0.12971545991E+03  0.52483037433E+03  0.54196966126E+03  0.00000000000E+00 0. -1.
          2    1    1    2  501    0  0.37636156658E+02 -0.41623967009E+02 -0.13400260988E+04  0.13412005743E+04  0.25500000000E-02 0.  1.
<mgrwt>
<rscale>  0 0.56116263E+02</rscale>
<asrwt>0</asrwt>
<pdfrwt beam="1">  1       11 0.10000000E+01 0.10249994E+03</pdfrwt>
<pdfrwt beam="2">  1        2 0.20830570E+00 0.56116263E+02</pdfrwt>
<totfact> 0.22966376E+01</totfact>
</mgrwt>
</event>
<event>
 5    1  0.6729100E-004  0.8627571E+02  0.7818608E-02  0.1312130E+00
         11   -1    0    0    0    0  0.00000000000E+00  0.00000000000E+00  0.10001808236E+04  0.10001808236E+04  0.51100000000E-03 0.  1.
          2   -1    0    0  501    0 -0.00000000000E+00 -0.00000000000E+00 -0.13246748075E+04  0.13246748075E+04  0.25500000000E-02 0.  1.
         11    1    1    2    0    0  0.34418805423E+02 -0.11719940566E+03  0.66143140815E+03  0.67261568711E+03  0.51100000000E-03 0.  1.
         22    1    1    2    0    0  0.28169168803E+02  0.57876862327E+02  0.32862223288E+03  0.33486684698E+03  0.00000000000E+00 0. -1.
          2    1    1    2  501    0 -0.62587974226E+02  0.59322543336E+02 -0.13145476249E+04  0.13173730970E+04  0.25500000000E-02 0.  1.
<mgrwt>
<rscale>  0 0.86275708E+02</rscale>
<asrwt>0</asrwt>
<pdfrwt beam="1">  1       11 0.10000000E+01 0.64367952E+02</pdfrwt>
<pdfrwt beam="2">  1        2 0.20383297E+00 0.86275708E+02</pdfrwt>
<totfact> 0.23029090E+01</totfact>
</mgrwt>
</event>
<event>
 5    1  0.6729100E-004  0.2207920E+03  0.7818608E-02  0.1133294E+00
         11   -1    0    0    0    0  0.00000000000E+00  0.00000000000E+00  0.10002005533E+04  0.10002005533E+04  0.51100000000E-03 0.  1.
          2   -1    0    0  501    0 -0.00000000000E+00 -0.00000000000E+00 -0.60001655100E+02  0.60001655154E+02  0.25500000000E-02 0.  1.
         11    1    1    2    0    0 -0.69311459980E+02  0.20120637592E+03  0.30670003672E+03  0.37330014294E+03  0.51100000000E-03 0.  1.
         22    1    1    2    0    0  0.36054873784E+01  0.22740913691E+02  0.12894478621E+03  0.13098437535E+03  0.00000000000E+00 0. -1.
          2    1    1    2  501    0  0.65705972602E+02 -0.22394728961E+03  0.50455407530E+03  0.55591769020E+03  0.25500000000E-02 0.  1.
<mgrwt>
<rscale>  0 0.22079201E+03</rscale>
<asrwt>0</asrwt>
<pdfrwt beam="1">  1       11 0.10000000E+01 0.23024958E+02</pdfrwt>
<pdfrwt beam="2">  1        2 0.92328749E-02 0.22079201E+03</pdfrwt>
<totfact> 0.86238473E+02</totfact>
</mgrwt>
</event>
<event>
 5    1  0.6729100E-004  0.2508818E+03  0.7818608E-02  0.1288230E+00
         11   -1    0    0    0    0  0.00000000000E+00  0.00000000000E+00  0.10000169502E+04  0.10000169502E+04  0.51100000000E-03 0.  1.
          2   -1    0    0  501    0 -0.00000000000E+00 -0.00000000000E+00 -0.12219658492E+03  0.12219658495E+03  0.25500000000E-02 0. -1.
         11    1    1    2    0    0 -0.25256395350E+03 -0.35802818041E+02  0.79034382523E+03  0.83049006886E+03  0.51100000000E-03 0.  1.
         22    1    1    2    0    0  0.20221680319E+02  0.30961187933E+02  0.40104450081E+02  0.54551612528E+02  0.00000000000E+00 0.  1.
          2    1    1    2  501    0  0.23234227318E+03  0.48416301082E+01  0.47372089929E+02  0.23717185372E+03  0.25500000000E-02 0. -1.
<mgrwt>
<rscale>  0 0.96320181E+02</rscale>
<asrwt>0</asrwt>
<pdfrwt beam="1">  1       11 0.10000000E+01 0.25088176E+03</pdfrwt>
<pdfrwt beam="2">  1        2 0.18799793E-01 0.96320181E+02</pdfrwt>
<totfact> 0.35589095E+02</totfact>
</mgrwt>
</event>
<event>
 5    1  0.6729100E-004  0.3301120E+03  0.7818608E-02  0.1071087E+00
         11   -1    0    0    0    0  0.00000000000E+00  0.00000000000E+00  0.10000066678E+04  0.10000066678E+04  0.51100000000E-03 0.  1.
          2   -1    0    0  501    0 -0.00000000000E+00 -0.00000000000E+00 -0.20578557680E+03  0.20578557682E+03  0.25500000000E-02 0.  1.
         11    1    1    2    0    0  0.35606056035E+02 -0.31729181612E+03 -0.27279293065E+02  0.32044663773E+03  0.51100000000E-03 0.  1.
         22    1    1    2    0    0 -0.29847539861E+02  0.10648499126E+03  0.19337357925E+03  0.22276281142E+03  0.00000000000E+00 0. -1.
          2    1    1    2  501    0 -0.57585161740E+01  0.21080682486E+03  0.62812680485E+03  0.66258279550E+03  0.25500000000E-02 0.  1.
<mgrwt>
<rscale>  0 0.33011205E+03</rscale>
<asrwt>0</asrwt>
<pdfrwt beam="1">  1       11 0.10000000E+01 0.31928356E+03</pdfrwt>
<pdfrwt beam="2">  1        2 0.31659530E-01 0.33011205E+03</pdfrwt>
<totfact> 0.20507296E+02</totfact>
</mgrwt>
</event>
<event>
 5    1  0.6729100E-004  0.2936522E+03  0.7818608E-02  0.1088458E+00
         11   -1    0    0    0    0  0.00000000000E+00  0.00000000000E+00  0.10000504477E+04  0.10000504477E+04  0.51100000000E-03 0. -1.
          2   -1    0    0  501    0 -0.00000000000E+00 -0.00000000000E+00 -0.20558950986E+03  0.20558950988E+03  0.25500000000E-02 0. -1.
         11    1    1    2    0    0  0.28924946663E+03  0.17035928454E+02  0.81372812959E+03  0.86377598119E+03  0.51100000000E-03 0. -1.
         22    1    1    2    0    0  0.36502901483E+01  0.10980957467E+02  0.40066876328E+02  0.41704443693E+02  0.00000000000E+00 0. -1.
          2    1    1    2  501    0 -0.29289975678E+03 -0.28016885921E+02 -0.59334068079E+02  0.30015953268E+03  0.25500000000E-02 0. -1.
<mgrwt>
<rscale>  0 0.29365223E+03</rscale>
<asrwt>0</asrwt>
<pdfrwt beam="1">  1       11 0.10000000E+01 0.11571778E+02</pdfrwt>
<pdfrwt beam="2">  1        2 0.31630750E-01 0.29365223E+03</pdfrwt>
<totfact> 0.20498869E+02</totfact>
</mgrwt>
</event>
<event>
 5    1  0.6729100E-004  0.1530774E+03  0.7818608E-02  0.1200119E+00
         11   -1    0    0    0    0  0.00000000000E+00  0.00000000000E+00  0.10000874325E+04  0.10000874325E+04  0.51100000000E-03 0. -1.
          2   -1    0    0  501    0 -0.00000000000E+00 -0.00000000000E+00 -0.23801778145E+02  0.23801778282E+02  0.25500000000E-02 0. -1.
         11    1    1    2    0    0  0.53288695920E+02  0.12214280377E+03  0.32168524165E+03  0.34819526752E+03  0.51100000000E-03 0. -1.
         22    1    1    2    0    0  0.68215508765E+01  0.15600892327E+02  0.77172121045E+02  0.79028208030E+02  0.00000000000E+00 0.  1.
          2    1    1    2  501    0 -0.60110246796E+02 -0.13774369610E+03  0.57742829165E+03  0.59666573522E+03  0.25500000000E-02 0. -1.
<mgrwt>
<rscale>  0 0.15028828E+03</rscale>
<asrwt>0</asrwt>
<pdfrwt beam="1">  1       11 0.10000000E+01 0.15307744E+03</pdfrwt>
<pdfrwt beam="2">  1        2 0.36621321E-02 0.15028828E+03</pdfrwt>
<totfact> 0.27893297E+03</totfact>
</mgrwt>
</event>
<event>
 5    1  0.6729100E-004  0.1223462E+03  0.7818608E-02  0.1239276E+00
         11   -1    0    0    0    0  0.00000000000E+00  0.00000000000E+00  0.10001097919E+04  0.10001097919E+04  0.51100000000E-03 0. -1.
          2   -1    0    0  501    0 -0.00000000000E+00 -0.00000000000E+00 -0.64666597297E+03  0.64666597298E+03  0.25500000000E-02 0. -1.
         11    1    1    2    0    0  0.14555038313E+03  0.13046813310E+03  0.54428003389E+03  0.57831444999E+03  0.51100000000E-03 0. -1.
         22    1    1    2    0    0 -0.91621630681E+02 -0.21347675155E+02  0.42777069190E+03  0.43799316352E+03  0.00000000000E+00 0. -1.
          2    1    1    2  501    0 -0.53928752452E+02 -0.10912045794E+03 -0.61860690685E+03  0.63046815137E+03  0.25500000000E-02 0. -1.
<mgrwt>
<rscale>  0 0.12234617E+03</rscale>
<asrwt>0</asrwt>
<pdfrwt beam="1">  1       11 0.10000000E+01 0.94075748E+02</pdfrwt>
<pdfrwt beam="2">  1        2 0.99497993E-01 0.12234617E+03</pdfrwt>
<totfact> 0.58817397E+01</totfact>
</mgrwt>
</event>
<event>
 5    1  0.6729100E-004  0.1135029E+03  0.7818608E-02  0.1607310E+00
         11   -1    0    0    0    0  0.00000000000E+00  0.00000000000E+00  0.10000920636E+04  0.10000920636E+04  0.51100000000E-03 0. -1.
          2   -1    0    0  501    0 -0.00000000000E+00 -0.00000000000E+00 -0.58889411198E+02  0.58889411254E+02  0.25500000000E-02 0. -1.
         11    1    1    2    0    0  0.16753700773E+01  0.11917570620E+03  0.62409453992E+03  0.63537363069E+03  0.51100000000E-03 0. -1.
         22    1    1    2    0    0 -0.26618081942E+02 -0.10402803706E+03  0.35778202537E+03  0.37354830004E+03  0.00000000000E+00 0. -1.
          2    1    1    2  501    0  0.24942711865E+02 -0.15147669135E+02 -0.40673912928E+02  0.50059544093E+02  0.25500000000E-02 0. -1.
<mgrwt>
<rscale>  0 0.29182028E+02</rscale>
<asrwt>0</asrwt>
<pdfrwt beam="1">  1       11 0.10000000E+01 0.11350293E+03</pdfrwt>
<pdfrwt beam="2">  1        2 0.90607432E-02 0.29182028E+02</pdfrwt>
<totfact> 0.76526249E+02</totfact>
</mgrwt>
</event>
<event>
 5    1  0.6729100E-004  0.1251852E+03  0.7818608E-02  0.1234780E+00
         11   -1    0    0    0    0  0.00000000000E+00  0.00000000000E+00  0.10003210482E+04  0.10003210482E+04  0.51100000000E-03 0. -1.
          2   -1    0    0  501    0 -0.00000000000E+00 -0.00000000000E+00 -0.59551115395E+03  0.59551115396E+03  0.25500000000E-02 0. -1.
         11    1    1    2    0    0 -0.24622571403E+02  0.17786957481E+03  0.48552652120E+03  0.51766771142E+03  0.51100000000E-03 0. -1.
         22    1    1    2    0    0 -0.41109036889E+02 -0.71950046205E+02  0.48848938723E+03  0.49546810543E+03  0.00000000000E+00 0. -1.
          2    1    1    2  501    0  0.65731608292E+02 -0.10591952860E+03 -0.56920601418E+03  0.58269638531E+03  0.25500000000E-02 0. -1.
<mgrwt>
<rscale>  0 0.12518520E+03</rscale>
<asrwt>0</asrwt>
<pdfrwt beam="1">  1       11 0.10000000E+01 0.82865928E+02</pdfrwt>
<pdfrwt beam="2">  1        2 0.91646511E-01 0.12518520E+03</pdfrwt>
<totfact> 0.64577119E+01</totfact>
</mgrwt>
</event>
<event>
 5    1  0.6729100E-004  0.3964065E+03  0.7818608E-02  0.1047660E+00
         11   -1    0    0    0    0  0.00000000000E+00  0.00000000000E+00  0.10005921622E+04  0.10005921622E+04  0.51100000000E-03 0. -1.
          2   -1    0    0  501    0 -0.00000000000E+00 -0.00000000000E+00 -0.11807568690E+04  0.11807568690E+04  0.25500000000E-02 0. -1.
         11    1    1    2    0    0 -0.35871431589E+03 -0.94360837729E+01  0.88261920089E+03  0.95277576264E+03  0.51100000000E-03 0. -1.
         22    1    1    2    0    0 -0.30254032461E+02  0.13576398791E+02  0.44186722584E+02  0.55245737727E+02  0.00000000000E+00 0.  1.
          2    1    1    2  501    0  0.38896834835E+03 -0.41403150177E+01 -0.11069706303E+04  0.11733275308E+04  0.25500000000E-02 0. -1.
<mgrwt>
<rscale>  0 0.38899038E+03</rscale>
<asrwt>0</asrwt>
<pdfrwt beam="1">  1       11 0.10000000E+01 0.39640652E+03</pdfrwt>
<pdfrwt beam="2">  1        2 0.18176247E+00 0.38899038E+03</pdfrwt>
<totfact> 0.25121896E+01</totfact>
</mgrwt>
</event>
<event>
 5    1  0.6729100E-004  0.2294446E+03  0.7818608E-02  0.1130164E+00
         11   -1    0    0    0    0  0.00000000000E+00  0.00000000000E+00  0.10001867092E+04  0.10001867092E+04  0.51100000000E-03 0. -1.
          2   -1    0    0  501    0 -0.00000000000E+00 -0.00000000000E+00 -0.55915970614E+02  0.55915970672E+02  0.25500000000E-02 0. -1.
         11    1    1    2    0    0 -0.20947750002E+03 -0.53772186741E+02  0.60076124328E+03  0.63850320478E+03  0.51100000000E-03 0. -1.
         22    1    1    2    0    0 -0.62095676656E+01 -0.10511102809E+02  0.21687854583E+02  0.24887849430E+02  0.00000000000E+00 0. -1.
          2    1    1    2  501    0  0.21568706769E+03  0.64283289550E+02  0.32182164069E+03  0.39271162563E+03  0.25500000000E-02 0. -1.
<mgrwt>
<rscale>  0 0.22506277E+03</rscale>
<asrwt>0</asrwt>
<pdfrwt beam="1">  1       11 0.10000000E+01 0.22944457E+03</pdfrwt>
<pdfrwt beam="2">  1        2 0.86040629E-02 0.22506277E+03</pdfrwt>
<totfact> 0.94343567E+02</totfact>
</mgrwt>
</event>
<event>
 5    1  0.6729100E-004  0.3706416E+03  0.7818608E-02  0.1054448E+00
         11   -1    0    0    0    0  0.00000000000E+00  0.00000000000E+00  0.10000230811E+04  0.10000230811E+04  0.51100000000E-03 0.  1.
          2   -1    0    0  501    0 -0.00000000000E+00 -0.00000000000E+00 -0.31694583474E+03  0.31694583475E+03  0.25500000000E-02 0.  1.
         11    1    1    2    0    0 -0.14793818915E+02  0.33195950039E+03  0.66923449861E+03  0.74718858470E+03  0.51100000000E-03 0.  1.
         22    1    1    2    0    0  0.10908858242E+03  0.36939424927E+02  0.12808487250E+03  0.17225148618E+03  0.00000000000E+00 0. -1.
          2    1    1    2  501    0 -0.94294763504E+02 -0.36889892532E+03 -0.11424212473E+03  0.39752884499E+03  0.25500000000E-02 0.  1.
<mgrwt>
<rscale>  0 0.37064162E+03</rscale>
<asrwt>0</asrwt>
<pdfrwt beam="1">  1       11 0.10000000E+01 0.11517309E+03</pdfrwt>
<pdfrwt beam="2">  1        2 0.48762022E-01 0.37064162E+03</pdfrwt>
<totfact> 0.12783250E+02</totfact>
</mgrwt>
</event>
<event>
 5    1  0.6729100E-004  0.9496332E+02  0.7818608E-02  0.1357950E+00
         11   -1    0    0    0    0  0.00000000000E+00  0.00000000000E+00  0.10001230957E+04  0.10001230957E+04  0.51100000000E-03 0. -1.
          2   -1    0    0  501    0 -0.00000000000E+00 -0.00000000000E+00 -0.95140026545E+03  0.95140026545E+03  0.25500000000E-02 0.  1.
         11    1    1    2    0    0 -0.95579386128E+02  0.10217995352E+02  0.53593000439E+03  0.54448213569E+03  0.51100000000E-03 0. -1.
         22    1    1    2    0    0  0.74979445780E+02 -0.77781528958E+02  0.45222828535E+03  0.46495408978E+03  0.00000000000E+00 0. -1.
          2    1    1    2  501    0  0.20599940348E+02  0.67563533606E+02 -0.93943545950E+03  0.94208713566E+03  0.25500000000E-02 0.  1.
<mgrwt>
<rscale>  0 0.70634189E+02</rscale>
<asrwt>0</asrwt>
<pdfrwt beam="1">  1       11 0.10000000E+01 0.94963320E+02</pdfrwt>
<pdfrwt beam="2">  1        2 0.14638728E+00 0.70634189E+02</pdfrwt>
<totfact> 0.37491979E+01</totfact>
</mgrwt>
</event>
<event>
 5    1  0.6729100E-004  0.9944081E+02  0.7818608E-02  0.1415627E+00
         11   -1    0    0    0    0  0.00000000000E+00  0.00000000000E+00  0.10001799548E+04  0.10001799548E+04  0.51100000000E-03 0. -1.
          2   -1    0    0  501    0 -0.00000000000E+00 -0.00000000000E+00 -0.46394902070E+02  0.46394902140E+02  0.25500000000E-02 0. -1.
         11    1    1    2    0    0 -0.78887527552E+02  0.27441455867E+02  0.43085616156E+03  0.43887732620E+03  0.51100000000E-03 0. -1.
         22    1    1    2    0    0  0.11400220098E+03 -0.71009059762E+02  0.53402117754E+03  0.55065180147E+03  0.00000000000E+00 0. -1.
          2    1    1    2  501    0 -0.35114673425E+02  0.43567603894E+02 -0.11092286410E+02  0.57045729228E+02  0.25500000000E-02 0. -1.
<mgrwt>
<rscale>  0 0.55956916E+02</rscale>
<asrwt>0</asrwt>
<pdfrwt beam="1">  1       11 0.10000000E+01 0.99440807E+02</pdfrwt>
<pdfrwt beam="2">  1        2 0.71389615E-02 0.55956916E+02</pdfrwt>
<totfact> 0.10814713E+03</totfact>
</mgrwt>
</event>
<event>
 5    1  0.6729100E-004  0.9757673E+02  0.7818608E-02  0.1643823E+00
         11   -1    0    0    0    0  0.00000000000E+00  0.00000000000E+00  0.10004192355E+04  0.10004192355E+04  0.51100000000E-03 0.  1.
         -2   -1    0    0    0  501 -0.00000000000E+00 -0.00000000000E+00 -0.16364063436E+02  0.16364063634E+02  0.25500000000E-02 0.  1.
         11    1    1    2    0    0  0.10645738179E+03  0.30242870180E+02  0.60836396093E+03  0.61834821443E+03  0.51100000000E-03 0.  1.
         22    1    1    2    0    0 -0.80667428106E+02 -0.25411206414E+02  0.35523628977E+03  0.36516542133E+03  0.00000000000E+00 0.  1.
         -2    1    1    2    0  501 -0.25789953680E+02 -0.48316637662E+01  0.20454921345E+02  0.33269663348E+02  0.25500000000E-02 0.  1.
<mgrwt>
<rscale>  0 0.26238649E+02</rscale>
<asrwt>0</asrwt>
<pdfrwt beam="1">  1       11 0.10000000E+01 0.97576726E+02</pdfrwt>
<pdfrwt beam="2">  1       -2 0.25186036E-02 0.26238649E+02</pdfrwt>
<totfact> 0.32335198E+03</totfact>
</mgrwt>
</event>
<event>
 5    1  0.6729100E-004  0.1572247E+03  0.7818608E-02  0.1353148E+00
         11   -1    0    0    0    0  0.00000000000E+00  0.00000000000E+00  0.10011169337E+04  0.10011169337E+04  0.51100000000E-03 0. -1.
          2   -1    0    0  501    0 -0.00000000000E+00 -0.00000000000E+00 -0.12005581979E+04  0.12005581979E+04  0.25500000000E-02 0. -1.
         11    1    1    2    0    0  0.19948817951E+03 -0.82122456580E+02  0.18707624335E+03  0.28554711077E+03  0.51100000000E-03 0. -1.
         22    1    1    2    0    0 -0.14464146677E+03  0.35347925176E+02  0.75641190362E+03  0.77092775126E+03  0.00000000000E+00 0. -1.
          2    1    1    2  501    0 -0.54846712741E+02  0.46774531405E+02 -0.11429294111E+04  0.11452002696E+04  0.25500000000E-02 0. -1.
<mgrwt>
<rscale>  0 0.72083415E+02</rscale>
<asrwt>0</asrwt>
<pdfrwt beam="1">  1       11 0.10000000E+01 0.15722475E+03</pdfrwt>
<pdfrwt beam="2">  1        2 0.18490755E+00 0.72083415E+02</pdfrwt>
<totfact> 0.27091069E+01</totfact>
</mgrwt>
</event>
<event>
 5    1  0.6729100E-004  0.1532713E+03  0.7818608E-02  0.1196510E+00
         11   -1    0    0    0    0  0.00000000000E+00  0.00000000000E+00  0.99996819172E+03  0.99996819172E+03  0.51100000000E-03 0. -1.
          2   -1    0    0  501    0 -0.00000000000E+00 -0.00000000000E+00 -0.72566080782E+03  0.72566080782E+03  0.25500000000E-02 0. -1.
         11    1    1    2    0    0 -0.19218515384E+02 -0.10684666584E+03  0.22680593589E+03  0.25144878979E+03  0.51100000000E-03 0. -1.
         22    1    1    2    0    0 -0.98764714116E+02  0.20376240479E+03  0.73543559477E+03  0.76950575073E+03  0.00000000000E+00 0. -1.
          2    1    1    2  501    0  0.11798322950E+03 -0.96915738951E+02 -0.68793414676E+03  0.70467445901E+03  0.25500000000E-02 0. -1.
<mgrwt>
<rscale>  0 0.15327129E+03</rscale>
<asrwt>0</asrwt>
<pdfrwt beam="1">  1       11 0.10000000E+01 0.10856133E+03</pdfrwt>
<pdfrwt beam="2">  1        2 0.11163657E+00 0.15327129E+03</pdfrwt>
<totfact> 0.51011126E+01</totfact>
</mgrwt>
</event>
<event>
 5    1  0.6729100E-004  0.1460867E+03  0.7818608E-02  0.1219496E+00
         11   -1    0    0    0    0  0.00000000000E+00  0.00000000000E+00  0.10003807325E+04  0.10003807325E+04  0.51100000000E-03 0.  1.
          2   -1    0    0  501    0 -0.00000000000E+00 -0.00000000000E+00 -0.24166968275E+02  0.24166968410E+02  0.25500000000E-02 0.  1.
         11    1    1    2    0    0 -0.90001457654E+02  0.69506596020E+02  0.19747706658E+03  0.22787852267E+03  0.51100000000E-03 0.  1.
         22    1    1    2    0    0 -0.27810758253E+01  0.29262893558E+02  0.88450271138E+02  0.93206768996E+02  0.00000000000E+00 0.  1.
          2    1    1    2  501    0  0.92782533479E+02 -0.98769489578E+02  0.69028642653E+03  0.70346240926E+03  0.25500000000E-02 0.  1.
<mgrwt>
<rscale>  0 0.13551388E+03</rscale>
<asrwt>0</asrwt>
<pdfrwt beam="1">  1       11 0.10000000E+01 0.14608669E+03</pdfrwt>
<pdfrwt beam="2">  1        2 0.37194106E-02 0.13551388E+03</pdfrwt>
<totfact> 0.27062406E+03</totfact>
</mgrwt>
</event>
<event>
 5    1  0.6729100E-004  0.1816321E+03  0.7818608E-02  0.1166233E+00
         11   -1    0    0    0    0  0.00000000000E+00  0.00000000000E+00  0.99993263023E+03  0.99993263023E+03  0.51100000000E-03 0. -1.
          2   -1    0    0  501    0 -0.00000000000E+00 -0.00000000000E+00 -0.13135324419E+03  0.13135324422E+03  0.25500000000E-02 0.  1.
         11    1    1    2    0    0 -0.18586604470E+03 -0.58626658162E+02  0.84718596456E+03  0.86931428734E+03  0.51100000000E-03 0. -1.
         22    1    1    2    0    0  0.18808182909E+02 -0.10046051741E+02  0.71431959082E+02  0.74546600716E+02  0.00000000000E+00 0. -1.
          2    1    1    2  501    0  0.16705786180E+03  0.68672709903E+02 -0.50038537605E+02  0.18742498640E+03  0.25500000000E-02 0.  1.
<mgrwt>
<rscale>  0 0.18163208E+03</rscale>
<asrwt>0</asrwt>
<pdfrwt beam="1">  1       11 0.10000000E+01 0.21323013E+02</pdfrwt>
<pdfrwt beam="2">  1        2 0.20206829E-01 0.18163208E+03</pdfrwt>
<totfact> 0.33509889E+02</totfact>
</mgrwt>
</event>
<event>
 5    1  0.6729100E-004  0.4389434E+03  0.7818608E-02  0.1730005E+00
         11   -1    0    0    0    0  0.00000000000E+00  0.00000000000E+00  0.10009349075E+04  0.10009349075E+04  0.51100000000E-03 0.  1.
          2   -1    0    0  501    0 -0.00000000000E+00 -0.00000000000E+00 -0.17670533320E+04  0.17670533320E+04  0.25500000000E-02 0. -1.
         11    1    1    2    0    0  0.43448842838E+03 -0.42946685201E+02  0.76370696614E+03  0.87970048443E+03  0.51100000000E-03 0.  1.
         22    1    1    2    0    0 -0.44966799800E+03  0.28736609660E+02 -0.10415611814E+03  0.46246686163E+03  0.00000000000E+00 0.  1.
          2    1    1    2  501    0  0.15179569621E+02  0.14210075541E+02 -0.14256692725E+04  0.14258208934E+04  0.25500000000E-02 0. -1.
<mgrwt>
<rscale>  0 0.20792922E+02</rscale>
<asrwt>0</asrwt>
<pdfrwt beam="1">  1       11 0.10000000E+01 0.43894341E+03</pdfrwt>
<pdfrwt beam="2">  1        2 0.27210851E+00 0.20792922E+02</pdfrwt>
<totfact> 0.15930905E+01</totfact>
</mgrwt>
</event>
<event>
 5    1  0.6729100E-004  0.1010974E+03  0.7818608E-02  0.1402627E+00
         11   -1    0    0    0    0  0.00000000000E+00  0.00000000000E+00  0.10003196519E+04  0.10003196519E+04  0.51100000000E-03 0. -1.
          2   -1    0    0  501    0 -0.00000000000E+00 -0.00000000000E+00 -0.15431088897E+02  0.15431089107E+02  0.25500000000E-02 0. -1.
         11    1    1    2    0    0 -0.82806393161E+02 -0.70455993191E+02  0.62660601168E+03  0.63596858382E+03  0.51100000000E-03 0. -1.
         22    1    1    2    0    0  0.64635322621E+00  0.34276841362E+02  0.13102054188E+03  0.13543153998E+03  0.00000000000E+00 0. -1.
          2    1    1    2  501    0  0.82160039935E+02  0.36179151829E+02  0.22726200939E+03  0.24435061717E+03  0.25500000000E-02 0. -1.
<mgrwt>
<rscale>  0 0.58872035E+02</rscale>
<asrwt>0</asrwt>
<pdfrwt beam="1">  1       11 0.10000000E+01 0.10109743E+03</pdfrwt>
<pdfrwt beam="2">  1        2 0.23747725E-02 0.58872035E+02</pdfrwt>
<totfact> 0.44640084E+03</totfact>
</mgrwt>
</event>
<event>
 5    1  0.6729100E-004  0.2308270E+03  0.7818608E-02  0.1132789E+00
         11   -1    0    0    0    0  0.00000000000E+00  0.00000000000E+00  0.10002790660E+04  0.10002790660E+04  0.51100000000E-03 0. -1.
          2   -1    0    0  501    0 -0.00000000000E+00 -0.00000000000E+00 -0.90641477975E+02  0.90641478011E+02  0.25500000000E-02 0. -1.
         11    1    1    2    0    0  0.63274267096E+02  0.17941401506E+03  0.74146790003E+03  0.76548525032E+03  0.51100000000E-03 0. -1.
         22    1    1    2    0    0 -0.81250679344E+01  0.35083449671E+02  0.78745865757E+02  0.86589702295E+02  0.00000000000E+00 0. -1.
          2    1    1    2  501    0 -0.55149199161E+02 -0.21449746473E+03  0.89423822248E+02  0.23884559141E+03  0.25500000000E-02 0. -1.
<mgrwt>
<rscale>  0 0.22147369E+03</rscale>
<asrwt>0</asrwt>
<pdfrwt beam="1">  1       11 0.10000000E+01 0.23082700E+03</pdfrwt>
<pdfrwt beam="2">  1        2 0.13948734E-01 0.22147369E+03</pdfrwt>
<totfact> 0.52009738E+02</totfact>
</mgrwt>
</event>
<event>
 5    1  0.6729100E-004  0.2028099E+03  0.7818608E-02  0.1153670E+00
         11   -1    0    0    0    0  0.00000000000E+00  0.00000000000E+00  0.10006041808E+04  0.10006041808E+04  0.51100000000E-03 0.  1.
          2   -1    0    0  501    0 -0.00000000000E+00 -0.00000000000E+00 -0.13389528110E+04  0.13389528110E+04  0.25500000000E-02 0.  1.
         11    1    1    2    0    0 -0.23413486131E+02 -0.85982472370E+02  0.49907773713E+03  0.50697116741E+03  0.51100000000E-03 0.  1.
         22    1    1    2    0    0  0.24262838786E+02 -0.10942572502E+03  0.48399015558E+03  0.49679889829E+03  0.00000000000E+00 0.  1.
          2    1    1    2  501    0 -0.84935265531E+00  0.19540819738E+03 -0.13214165229E+04  0.13357869261E+04  0.25500000000E-02 0.  1.
<mgrwt>
<rscale>  0 0.19541004E+03</rscale>
<asrwt>0</asrwt>
<pdfrwt beam="1">  1       11 0.10000000E+01 0.20280992E+03</pdfrwt>
<pdfrwt beam="2">  1        2 0.20611719E+00 0.19541004E+03</pdfrwt>
<totfact> 0.21362038E+01</totfact>
</mgrwt>
</event>
<event>
 5    1  0.6729100E-004  0.1440625E+03  0.7818608E-02  0.1207965E+00
         11   -1    0    0    0    0  0.00000000000E+00  0.00000000000E+00  0.10000495953E+04  0.10000495953E+04  0.51100000000E-03 0. -1.
          2   -1    0    0  501    0 -0.00000000000E+00 -0.00000000000E+00 -0.20102134642E+02  0.20102134804E+02  0.25500000000E-02 0. -1.
         11    1    1    2    0    0 -0.12649555472E+03  0.13261180618E+02  0.31363468561E+03  0.33844305325E+03  0.51100000000E-03 0. -1.
         22    1    1    2    0    0  0.34241273259E+02 -0.35043143947E+02  0.24747984736E+03  0.25228309809E+03  0.00000000000E+00 0. -1.
          2    1    1    2  501    0  0.92254281462E+02  0.21781963329E+02  0.41883292765E+03  0.42942557873E+03  0.25500000000E-02 0. -1.
<mgrwt>
<rscale>  0 0.14406251E+03</rscale>
<asrwt>0</asrwt>
<pdfrwt beam="1">  1       11 0.10000000E+01 0.12718884E+03</pdfrwt>
<pdfrwt beam="2">  1        2 0.30927894E-02 0.14406251E+03</pdfrwt>
<totfact> 0.34838559E+03</totfact>
</mgrwt>
</event>
<event>
 5    1  0.6729100E-004  0.1242647E+03  0.7818608E-02  0.1385401E+00
         11   -1    0    0    0    0  0.00000000000E+00  0.00000000000E+00  0.10003104799E+04  0.10003104799E+04  0.51100000000E-03 0.  1.
         -2   -1    0    0    0  501 -0.00000000000E+00 -0.00000000000E+00 -0.17861004045E+03  0.17861004047E+03  0.25500000000E-02 0.  1.
         11    1    1    2    0    0 -0.97388081548E+02  0.10718550033E+03  0.77963833780E+03  0.79297484681E+03  0.51100000000E-03 0.  1.
         22    1    1    2    0    0  0.37701718209E+02 -0.86819764211E+02  0.19705767918E+03  0.21861111577E+03  0.00000000000E+00 0.  1.
         -2    1    1    2    0  501  0.59686363339E+02 -0.20365736118E+02 -0.15499557752E+03  0.16733455780E+03  0.25500000000E-02 0.  1.
<mgrwt>
<rscale>  0 0.63065245E+02</rscale>
<asrwt>0</asrwt>
<pdfrwt beam="1">  1       11 0.10000000E+01 0.12426466E+03</pdfrwt>
<pdfrwt beam="2">  1       -2 0.27486998E-01 0.63065245E+02</pdfrwt>
<totfact> 0.93486456E+01</totfact>
</mgrwt>
</event>
<event>
 5    1  0.6729100E-004  0.9677265E+02  0.7818608E-02  0.1287233E+00
         11   -1    0    0    0    0  0.00000000000E+00  0.00000000000E+00  0.99998732822E+03  0.99998732822E+03  0.51100000000E-03 0. -1.
          2   -1    0    0  501    0 -0.00000000000E+00 -0.00000000000E+00 -0.89750302196E+01  0.89750305819E+01  0.25500000000E-02 0. -1.
         11    1    1    2    0    0  0.83247548793E+01 -0.91318378902E+02  0.53410784772E+03  0.54192208006E+03  0.51100000000E-03 0. -1.
         22    1    1    2    0    0 -0.33017256115E+01  0.52592712918E+02  0.18545546368E+03  0.19279684607E+03  0.00000000000E+00 0. -1.
          2    1    1    2  501    0 -0.50230292677E+01  0.38725665984E+02  0.27144898660E+03  0.27424343267E+03  0.25500000000E-02 0. -1.
<mgrwt>
<rscale>  0 0.96772647E+02</rscale>
<asrwt>0</asrwt>
<pdfrwt beam="1">  1       11 0.10000000E+01 0.91697044E+02</pdfrwt>
<pdfrwt beam="2">  1        2 0.13807564E-02 0.96772647E+02</pdfrwt>
<totfact> 0.99166372E+03</totfact>
</mgrwt>
</event>
<event>
 5    1  0.6729100E-004  0.1556611E+03  0.7818608E-02  0.1193684E+00
         11   -1    0    0    0    0  0.00000000000E+00  0.00000000000E+00  0.10003360763E+04  0.10003360763E+04  0.51100000000E-03 0. -1.
          2   -1    0    0  501    0 -0.00000000000E+00 -0.00000000000E+00 -0.11207766294E+03  0.11207766297E+03  0.25500000000E-02 0. -1.
         11    1    1    2    0    0  0.60473384796E+02  0.16206209473E+03  0.72213870421E+03  0.74256680571E+03  0.51100000000E-03 0. -1.
         22    1    1    2    0    0 -0.45724412717E+02 -0.80863075062E+01  0.20513262475E+03  0.21032238118E+03  0.00000000000E+00 0. -1.
          2    1    1    2  501    0 -0.14748972080E+02 -0.15397578723E+03 -0.39012915584E+02  0.15952455240E+03  0.25500000000E-02 0. -1.
<mgrwt>
<rscale>  0 0.15566112E+03</rscale>
<asrwt>0</asrwt>
<pdfrwt beam="1">  1       11 0.10000000E+01 0.46433935E+02</pdfrwt>
<pdfrwt beam="2">  1        2 0.17248512E-01 0.15566112E+03</pdfrwt>
<totfact> 0.39980023E+02</totfact>
</mgrwt>
</event>
<event>
 5    1  0.6729100E-004  0.2015411E+03  0.7818608E-02  0.1148445E+00
         11   -1    0    0    0    0  0.00000000000E+00  0.00000000000E+00  0.99962408897E+03  0.99962408897E+03  0.51100000000E-03 0. -1.
          2   -1    0    0  501    0 -0.00000000000E+00 -0.00000000000E+00 -0.96975834290E+03  0.96975834290E+03  0.25500000000E-02 0. -1.
         11    1    1    2    0    0  0.18091087594E+03 -0.10320070841E+03  0.77979660626E+03  0.80713188413E+03  0.51100000000E-03 0. -1.
         22    1    1    2    0    0 -0.45754315393E+02 -0.46367750393E+02  0.19004597036E+03  0.20090021529E+03  0.00000000000E+00 0.  1.
          2    1    1    2  501    0 -0.13515656054E+03  0.14956845880E+03 -0.93997683055E+03  0.96135033245E+03  0.25500000000E-02 0. -1.
<mgrwt>
<rscale>  0 0.20154107E+03</rscale>
<asrwt>0</asrwt>
<pdfrwt beam="1">  1       11 0.10000000E+01 0.65141582E+02</pdfrwt>
<pdfrwt beam="2">  1        2 0.14913750E+00 0.20154107E+03</pdfrwt>
<totfact> 0.34786105E+01</totfact>
</mgrwt>
</event>
<event>
 5    1  0.6729100E-004  0.1365032E+03  0.7818608E-02  0.1606027E+00
         11   -1    0    0    0    0  0.00000000000E+00  0.00000000000E+00  0.10004467214E+04  0.10004467214E+04  0.51100000000E-03 0.  1.
          2   -1    0    0  501    0 -0.00000000000E+00 -0.00000000000E+00 -0.58890087637E+03  0.58890087637E+03  0.25500000000E-02 0. -1.
         11    1    1    2    0    0  0.11913709876E+03 -0.49236385126E+02  0.29079716525E+03  0.31808939190E+03  0.51100000000E-03 0.  1.
         22    1    1    2    0    0 -0.13869952047E+03  0.27431690543E+02  0.68844159195E+03  0.70280998866E+03  0.00000000000E+00 0.  1.
          2    1    1    2  501    0  0.19562421713E+02  0.21804694583E+02 -0.56769291220E+03  0.56844821719E+03  0.25500000000E-02 0. -1.
<mgrwt>
<rscale>  0 0.29293908E+02</rscale>
<asrwt>0</asrwt>
<pdfrwt beam="1">  1       11 0.10000000E+01 0.13650322E+03</pdfrwt>
<pdfrwt beam="2">  1        2 0.90640605E-01 0.29293908E+02</pdfrwt>
<totfact> 0.67363242E+01</totfact>
</mgrwt>
</event>
<event>
 5    1  0.6729100E-004  0.3730731E+03  0.7818608E-02  0.1055327E+00
         11   -1    0    0    0    0  0.00000000000E+00  0.00000000000E+00  0.99986453921E+03  0.99986453921E+03  0.51100000000E-03 0. -1.
          2   -1    0    0  501    0 -0.00000000000E+00 -0.00000000000E+00 -0.13960174020E+04  0.13960174020E+04  0.25500000000E-02 0. -1.
         11    1    1    2    0    0  0.16005707781E+03  0.28034025487E+03  0.76188919721E+03  0.82745638887E+03  0.51100000000E-03 0. -1.
         22    1    1    2    0    0  0.18131954063E+02  0.42039392051E+02  0.17734948997E+03  0.18316364223E+03  0.00000000000E+00 0.  1.
          2    1    1    2  501    0 -0.17818903188E+03 -0.32237964692E+03 -0.13353915499E+04  0.13852619101E+04  0.25500000000E-02 0. -1.
<mgrwt>
<rscale>  0 0.36834762E+03</rscale>
<asrwt>0</asrwt>
<pdfrwt beam="1">  1       11 0.10000000E+01 0.37307310E+03</pdfrwt>
<pdfrwt beam="2">  1        2 0.21474281E+00 0.36834762E+03</pdfrwt>
<totfact> 0.19073487E+01</totfact>
</mgrwt>
</event>
<event>
 5    1  0.6729100E-004  0.1127865E+03  0.7818608E-02  0.1255495E+00
         11   -1    0    0    0    0  0.00000000000E+00  0.00000000000E+00  0.10000729502E+04  0.10000729502E+04  0.51100000000E-03 0. -1.
          2   -1    0    0  501    0 -0.00000000000E+00 -0.00000000000E+00 -0.13908525547E+02  0.13908525781E+02  0.25500000000E-02 0. -1.
         11    1    1    2    0    0  0.10688956218E+03 -0.24079192250E+02  0.65591996224E+03  0.66500840812E+03  0.51100000000E-03 0. -1.
         22    1    1    2    0    0 -0.87711819679E+01 -0.49192134303E+01  0.39168499615E+02  0.40438887917E+02  0.00000000000E+00 0. -1.
          2    1    1    2  501    0 -0.98118380214E+02  0.28998405681E+02  0.29107596275E+03  0.30853417990E+03  0.25500000000E-02 0. -1.
<mgrwt>
<rscale>  0 0.11278651E+03</rscale>
<asrwt>0</asrwt>
<pdfrwt beam="1">  1       11 0.10000000E+01 0.10956818E+03</pdfrwt>
<pdfrwt beam="2">  1        2 0.21399292E-02 0.11278651E+03</pdfrwt>
<totfact> 0.55766189E+03</totfact>
</mgrwt>
</event>
<event>
 5    1  0.6729100E-004  0.3895743E+03  0.7818608E-02  0.1047451E+00
         11   -1    0    0    0    0  0.00000000000E+00  0.00000000000E+00  0.10000475482E+04  0.10000475482E+04  0.51100000000E-03 0. -1.
          2   -1    0    0  501    0 -0.00000000000E+00 -0.00000000000E+00 -0.11678472332E+04  0.11678472332E+04  0.25500000000E-02 0. -1.
         11    1    1    2    0    0  0.19317635926E+03 -0.35616184639E+03  0.75874109000E+03  0.86014906165E+03  0.51100000000E-03 0. -1.
         22    1    1    2    0    0  0.26942536377E+02  0.35420063536E+02  0.15348066877E+03  0.15980236811E+03  0.00000000000E+00 0.  1.
          2    1    1    2  501    0 -0.22011889564E+03  0.32074178285E+03 -0.10800214438E+04  0.11479433516E+04  0.25500000000E-02 0. -1.
<mgrwt>
<rscale>  0 0.38957430E+03</rscale>
<asrwt>0</asrwt>
<pdfrwt beam="1">  1       11 0.10000000E+01 0.44502597E+02</pdfrwt>
<pdfrwt beam="2">  1        2 0.17967734E+00 0.38957430E+03</pdfrwt>
<totfact> 0.25580638E+01</totfact>
</mgrwt>
</event>
<event>
 5    1  0.6729100E-004  0.3291638E+03  0.7818608E-02  0.1071507E+00
         11   -1    0    0    0    0  0.00000000000E+00  0.00000000000E+00  0.10000953439E+04  0.10000953439E+04  0.51100000000E-03 0. -1.
          2   -1    0    0  501    0 -0.00000000000E+00 -0.00000000000E+00 -0.23399229396E+04  0.23399229396E+04  0.25500000000E-02 0.  1.
         11    1    1    2    0    0 -0.23653755749E+03 -0.13261133034E+03  0.75203561685E+03  0.79943314296E+03  0.51100000000E-03 0. -1.
         22    1    1    2    0    0 -0.69047678404E+02  0.27689534158E+03  0.11523738163E+03  0.30776332823E+03  0.00000000000E+00 0. -1.
          2    1    1    2  501    0  0.30558523590E+03 -0.14428401124E+03 -0.22071005942E+04  0.22328218122E+04  0.25500000000E-02 0.  1.
<mgrwt>
<rscale>  0 0.32916380E+03</rscale>
<asrwt>0</asrwt>
<pdfrwt beam="1">  1       11 0.10000000E+01 0.27117482E+03</pdfrwt>
<pdfrwt beam="2">  1        2 0.36002246E+00 0.32916380E+03</pdfrwt>
<totfact> 0.60099260E+00</totfact>
</mgrwt>
</event>
<event>
 5    1  0.6729100E-004  0.2495468E+03  0.7818608E-02  0.1121584E+00
         11   -1    0    0    0    0  0.00000000000E+00  0.00000000000E+00  0.10002893952E+04  0.10002893952E+04  0.51100000000E-03 0. -1.
          2   -1    0    0  501    0 -0.00000000000E+00 -0.00000000000E+00 -0.12698303571E+03  0.12698303573E+03  0.25500000000E-02 0. -1.
         11    1    1    2    0    0 -0.33973788632E+02  0.79524528090E+02  0.29707077402E+03  0.30940170274E+03  0.51100000000E-03 0. -1.
         22    1    1    2    0    0  0.41551241733E+02  0.15768526842E+03  0.55629608880E+03  0.57970379332E+03  0.00000000000E+00 0. -1.
          2    1    1    2  501    0 -0.75774531015E+01 -0.23720979651E+03  0.19939496722E+02  0.23816693493E+03  0.25500000000E-02 0. -1.
<mgrwt>
<rscale>  0 0.23733079E+03</rscale>
<asrwt>0</asrwt>
<pdfrwt beam="1">  1       11 0.10000000E+01 0.24954675E+03</pdfrwt>
<pdfrwt beam="2">  1        2 0.19541505E-01 0.23733079E+03</pdfrwt>
<totfact> 0.35089443E+02</totfact>
</mgrwt>
</event>
<event>
 5    1  0.6729100E-004  0.2525491E+03  0.7818608E-02  0.1114516E+00
         11   -1    0    0    0    0  0.00000000000E+00  0.00000000000E+00  0.10003691250E+04  0.10003691250E+04  0.51100000000E-03 0. -1.
          2   -1    0    0  501    0 -0.00000000000E+00 -0.00000000000E+00 -0.23516462779E+03  0.23516462780E+03  0.25500000000E-02 0. -1.
         11    1    1    2    0    0  0.18143444054E+03  0.12094016113E+03  0.73092292366E+03  0.76275376047E+03  0.51100000000E-03 0. -1.
         22    1    1    2    0    0  0.25336248309E+02  0.16157223178E+02  0.18171718005E+03  0.18418500174E+03  0.00000000000E+00 0.  1.
          2    1    1    2  501    0 -0.20677068885E+03 -0.13709738431E+03 -0.14743560646E+03  0.28859499062E+03  0.25500000000E-02 0. -1.
<mgrwt>
<rscale>  0 0.24809234E+03</rscale>
<asrwt>0</asrwt>
<pdfrwt beam="1">  1       11 0.10000000E+01 0.25254912E+03</pdfrwt>
<pdfrwt beam="2">  1        2 0.36192527E-01 0.24809234E+03</pdfrwt>
<totfact> 0.17654324E+02</totfact>
</mgrwt>
</event>
<event>
 5    1  0.6729100E-004  0.1170456E+03  0.7818608E-02  0.1248052E+00
         11   -1    0    0    0    0  0.00000000000E+00  0.00000000000E+00  0.10004536856E+04  0.10004536856E+04  0.51100000000E-03 0. -1.
          2   -1    0    0  501    0 -0.00000000000E+00 -0.00000000000E+00 -0.10442092910E+04  0.10442092910E+04  0.25500000000E-02 0. -1.
         11    1    1    2    0    0  0.34731963748E+02 -0.13349053277E+03  0.79063270589E+03  0.80257467395E+03  0.51100000000E-03 0. -1.
         22    1    1    2    0    0  0.27462820588E+02  0.34407698294E+02  0.19813090616E+03  0.20296293305E+03  0.00000000000E+00 0.  1.
          2    1    1    2  501    0 -0.62194784335E+02  0.99082834473E+02 -0.10325192174E+04  0.10391253696E+04  0.25500000000E-02 0. -1.
<mgrwt>
<rscale>  0 0.11704564E+03</rscale>
<asrwt>0</asrwt>
<pdfrwt beam="1">  1       11 0.10000000E+01 0.44023814E+02</pdfrwt>
<pdfrwt beam="2">  1        2 0.16072046E+00 0.11704564E+03</pdfrwt>
<totfact> 0.32216853E+01</totfact>
</mgrwt>
</event>
<event>
 5    1  0.6729100E-004  0.1348409E+03  0.7818608E-02  0.1677860E+00
         11   -1    0    0    0    0  0.00000000000E+00  0.00000000000E+00  0.99997681787E+03  0.99997681787E+03  0.51100000000E-03 0. -1.
          2   -1    0    0  501    0 -0.00000000000E+00 -0.00000000000E+00 -0.59380066710E+03  0.59380066711E+03  0.25500000000E-02 0. -1.
         11    1    1    2    0    0 -0.18369607911E+02  0.12373491598E+03  0.40150389267E+03  0.42053911561E+03  0.51100000000E-03 0. -1.
         22    1    1    2    0    0  0.59774345254E+01 -0.14413037529E+03  0.57987102853E+03  0.59754473016E+03  0.00000000000E+00 0. -1.
          2    1    1    2  501    0  0.12392173385E+02  0.20395459312E+02 -0.57519877043E+03  0.57569363922E+03  0.25500000000E-02 0. -1.
<mgrwt>
<rscale>  0 0.23865052E+02</rscale>
<asrwt>0</asrwt>
<pdfrwt beam="1">  1       11 0.10000000E+01 0.13484088E+03</pdfrwt>
<pdfrwt beam="2">  1        2 0.91351828E-01 0.23865052E+02</pdfrwt>
<totfact> 0.67063018E+01</totfact>
</mgrwt>
</event>
<event>
 5    1  0.6729100E-004  0.1479240E+03  0.7818608E-02  0.1203047E+00
         11   -1    0    0    0    0  0.00000000000E+00  0.00000000000E+00  0.10002350713E+04  0.10002350713E+04  0.51100000000E-03 0. -1.
         -2   -1    0    0    0  501 -0.00000000000E+00 -0.00000000000E+00 -0.20816781032E+02  0.20816781188E+02  0.25500000000E-02 0. -1.
         11    1    1    2    0    0 -0.13412735211E+03 -0.42119351235E+02  0.46486268561E+03  0.48565574516E+03  0.51100000000E-03 0. -1.
         22    1    1    2    0    0  0.58037315234E+01  0.15515006179E+02  0.69476237325E+02  0.71423709433E+02  0.00000000000E+00 0. -1.
         -2    1    1    2    0  501  0.12832362059E+03  0.26604345056E+02  0.44507936729E+03  0.46397239785E+03  0.25500000000E-02 0. -1.
<mgrwt>
<rscale>  0 0.14792404E+03</rscale>
<asrwt>0</asrwt>
<pdfrwt beam="1">  1       11 0.10000000E+01 0.14058523E+03</pdfrwt>
<pdfrwt beam="2">  1       -2 0.32033345E-02 0.14792404E+03</pdfrwt>
<totfact> 0.28889032E+03</totfact>
</mgrwt>
</event>
<event>
 5    1  0.6729100E-004  0.2046286E+03  0.7818608E-02  0.1153703E+00
         11   -1    0    0    0    0  0.00000000000E+00  0.00000000000E+00  0.10001004143E+04  0.10001004143E+04  0.51100000000E-03 0. -1.
          2   -1    0    0  501    0 -0.00000000000E+00 -0.00000000000E+00 -0.21697058526E+03  0.21697058527E+03  0.25500000000E-02 0.  1.
         11    1    1    2    0    0  0.15877069394E+03  0.22004452141E+02  0.68964215881E+03  0.70802446029E+03  0.51100000000E-03 0. -1.
         22    1    1    2    0    0  0.29263262886E+02  0.31037671905E+02  0.25315849207E+03  0.25672728281E+03  0.00000000000E+00 0.  1.
          2    1    1    2  501    0 -0.18803395683E+03 -0.53042124046E+02 -0.15967082182E+03  0.25231925648E+03  0.25500000000E-02 0.  1.
<mgrwt>
<rscale>  0 0.19537204E+03</rscale>
<asrwt>0</asrwt>
<pdfrwt beam="1">  1       11 0.10000000E+01 0.20462859E+03</pdfrwt>
<pdfrwt beam="2">  1        2 0.33383441E-01 0.19537204E+03</pdfrwt>
<totfact> 0.19223568E+02</totfact>
</mgrwt>
</event>
<event>
 5    1  0.6729100E-004  0.1146339E+03  0.7818608E-02  0.1252221E+00
         11   -1    0    0    0    0  0.00000000000E+00  0.00000000000E+00  0.10005351795E+04  0.10005351795E+04  0.51100000000E-03 0. -1.
          2   -1    0    0  501    0 -0.00000000000E+00 -0.00000000000E+00 -0.14721304607E+03  0.14721304609E+03  0.25500000000E-02 0.  1.
         11    1    1    2    0    0 -0.14939625336E+03 -0.14233736263E+03  0.46997706024E+03  0.51328121188E+03  0.51100000000E-03 0. -1.
         22    1    1    2    0    0  0.67364914491E+02  0.69098931762E+02  0.47905705049E+03  0.48868021415E+03  0.00000000000E+00 0.  1.
          2    1    1    2  501    0  0.82031338874E+02  0.73238430864E+02 -0.95711977321E+02  0.14578679955E+03  0.25500000000E-02 0.  1.
<mgrwt>
<rscale>  0 0.11463391E+03</rscale>
<asrwt>0</asrwt>
<pdfrwt beam="1">  1       11 0.10000000E+01 0.96502301E+02</pdfrwt>
<pdfrwt beam="2">  1        2 0.22660281E-01 0.11463391E+03</pdfrwt>
<totfact> 0.29058163E+02</totfact>
</mgrwt>
</event>
<event>
 5    1  0.6729100E-004  0.1081752E+03  0.7818608E-02  0.1263987E+00
         11   -1    0    0    0    0  0.00000000000E+00  0.00000000000E+00  0.10002029771E+04  0.10002029771E+04  0.51100000000E-03 0. -1.
          2   -1    0    0  501    0 -0.00000000000E+00 -0.00000000000E+00 -0.13625998751E+02  0.13625998990E+02  0.25500000000E-02 0. -1.
         11    1    1    2    0    0 -0.42482222837E+02  0.93810967679E+02  0.26709575677E+03  0.28626103507E+03  0.51100000000E-03 0. -1.
         22    1    1    2    0    0  0.12046300021E+02 -0.32250872893E+01  0.71831289028E+02  0.72905751595E+02  0.00000000000E+00 0.  1.
          2    1    1    2  501    0  0.30435922816E+02 -0.90585880390E+02  0.64764993258E+03  0.65466218945E+03  0.25500000000E-02 0. -1.
<mgrwt>
<rscale>  0 0.10817523E+03</rscale>
<asrwt>0</asrwt>
<pdfrwt beam="1">  1       11 0.10000000E+01 0.10298178E+03</pdfrwt>
<pdfrwt beam="2">  1        2 0.20967330E-02 0.10817523E+03</pdfrwt>
<totfact> 0.57038992E+03</totfact>
</mgrwt>
</event>
<event>
 5    1  0.6729100E-004  0.4273549E+03  0.7818608E-02  0.1034699E+00
         11   -1    0    0    0    0  0.00000000000E+00  0.00000000000E+00  0.10001107048E+04  0.10001107048E+04  0.51100000000E-03 0. -1.
          2   -1    0    0  501    0 -0.00000000000E+00 -0.00000000000E+00 -0.77142446690E+03  0.77142446690E+03  0.25500000000E-02 0. -1.
         11    1    1    2    0    0  0.27805269159E+03 -0.28219347343E+03  0.70065602796E+03  0.80490081704E+03  0.51100000000E-03 0. -1.
         22    1    1    2    0    0  0.41873189340E+02 -0.52457054333E+01  0.18038930506E+03  0.18525977111E+03  0.00000000000E+00 0. -1.
          2    1    1    2  501    0 -0.31992588093E+03  0.28743917886E+03 -0.65235909512E+03  0.78137458356E+03  0.25500000000E-02 0. -1.
<mgrwt>
<rscale>  0 0.42735489E+03</rscale>
<asrwt>0</asrwt>
<pdfrwt beam="1">  1       11 0.10000000E+01 0.42200491E+02</pdfrwt>
<pdfrwt beam="2">  1        2 0.11869382E+00 0.42735489E+03</pdfrwt>
<totfact> 0.45692577E+01</totfact>
</mgrwt>
</event>
<event>
 5    1  0.6729100E-004  0.1201431E+03  0.7818608E-02  0.1532132E+00
         11   -1    0    0    0    0  0.00000000000E+00  0.00000000000E+00  0.10001425710E+04  0.10001425710E+04  0.51100000000E-03 0.  1.
          2   -1    0    0  501    0 -0.00000000000E+00 -0.00000000000E+00 -0.11849448508E+03  0.11849448510E+03  0.25500000000E-02 0.  1.
         11    1    1    2    0    0 -0.28647448111E+02  0.13852234245E+03  0.47844058383E+03  0.49891332704E+03  0.51100000000E-03 0.  1.
         22    1    1    2    0    0  0.75140567259E+01 -0.10824161604E+03  0.50234672645E+03  0.51393087285E+03  0.00000000000E+00 0.  1.
          2    1    1    2  501    0  0.21133391385E+02 -0.30280726408E+02 -0.99139224334E+02  0.10579285624E+03  0.25500000000E-02 0.  1.
<mgrwt>
<rscale>  0 0.36926178E+02</rscale>
<asrwt>0</asrwt>
<pdfrwt beam="1">  1       11 0.10000000E+01 0.12014307E+03</pdfrwt>
<pdfrwt beam="2">  1        2 0.18232519E-01 0.36926178E+02</pdfrwt>
<totfact> 0.35217243E+02</totfact>
</mgrwt>
</event>
<event>
 5    1  0.6729100E-004  0.1015403E+03  0.7818608E-02  0.1490929E+00
         11   -1    0    0    0    0  0.00000000000E+00  0.00000000000E+00  0.99986344374E+03  0.99986344374E+03  0.51100000000E-03 0. -1.
          2   -1    0    0  501    0 -0.00000000000E+00 -0.00000000000E+00 -0.17349872049E+02  0.17349872236E+02  0.25500000000E-02 0. -1.
         11    1    1    2    0    0  0.11433179008E+03 -0.25352034821E+02  0.46820540572E+03  0.48262903543E+03  0.51100000000E-03 0. -1.
         22    1    1    2    0    0 -0.92600350706E+02 -0.11111970562E+02  0.43224702871E+03  0.44219429516E+03  0.00000000000E+00 0. -1.
          2    1    1    2  501    0 -0.21731439371E+02  0.36464005382E+02  0.82061137263E+02  0.92389985394E+02  0.25500000000E-02 0. -1.
<mgrwt>
<rscale>  0 0.42448547E+02</rscale>
<asrwt>0</asrwt>
<pdfrwt beam="1">  1       11 0.10000000E+01 0.10154035E+03</pdfrwt>
<pdfrwt beam="2">  1        2 0.26688465E-02 0.42448547E+02</pdfrwt>
<totfact> 0.36600835E+03</totfact>
</mgrwt>
</event>
<event>
 5    1  0.6729100E-004  0.2506838E+02  0.7818608E-02  0.1660022E+00
         11   -1    0    0    0    0  0.00000000000E+00  0.00000000000E+00  0.10001210222E+04  0.10001210222E+04  0.51100000000E-03 0.  1.
          2   -1    0    0  501    0 -0.00000000000E+00 -0.00000000000E+00 -0.27516087530E+02  0.27516087648E+02  0.25500000000E-02 0.  1.
         11    1    1    2    0    0  0.11193438485E+01  0.25081207778E+02 -0.19900489269E+02  0.32036688150E+02  0.51100000000E-03 0.  1.
         22    1    1    2    0    0 -0.19159726412E+02 -0.49738816115E+01  0.71238817459E+02  0.73937836913E+02  0.00000000000E+00 0.  1.
          2    1    1    2  501    0  0.18040382563E+02 -0.20107326166E+02  0.92126660650E+03  0.92166258480E+03  0.25500000000E-02 0.  1.
<mgrwt>
<rscale>  0 0.25068382E+02</rscale>
<asrwt>0</asrwt>
<pdfrwt beam="1">  1       11 0.10000000E+01 0.19794813E+02</pdfrwt>
<pdfrwt beam="2">  1        2 0.42337564E-02 0.25068382E+02</pdfrwt>
<totfact> 0.18893992E+03</totfact>
</mgrwt>
</event>
<event>
 5    1  0.6729100E-004  0.2874344E+03  0.7818608E-02  0.1091696E+00
         11   -1    0    0    0    0  0.00000000000E+00  0.00000000000E+00  0.99987801699E+03  0.99987801699E+03  0.51100000000E-03 0. -1.
          2   -1    0    0  501    0 -0.00000000000E+00 -0.00000000000E+00 -0.14358782132E+03  0.14358782134E+03  0.25500000000E-02 0. -1.
         11    1    1    2    0    0  0.27664392719E+03 -0.67250380513E+02  0.68251434460E+02  0.29276737256E+03  0.51100000000E-03 0. -1.
         22    1    1    2    0    0  0.10096355310E+02 -0.17795796364E+02  0.68059653683E+02  0.71068581091E+02  0.00000000000E+00 0.  1.
          2    1    1    2  501    0 -0.28674028250E+03  0.85046176876E+02  0.71997910753E+03  0.77962988469E+03  0.25500000000E-02 0. -1.
<mgrwt>
<rscale>  0 0.28743443E+03</rscale>
<asrwt>0</asrwt>
<pdfrwt beam="1">  1       11 0.10000000E+01 0.20460370E+02</pdfrwt>
<pdfrwt beam="2">  1        2 0.22087739E-01 0.28743443E+03</pdfrwt>
<totfact> 0.30642984E+02</totfact>
</mgrwt>
</event>
<event>
 5    1  0.6729100E-004  0.3784361E+03  0.7818608E-02  0.1051513E+00
         11   -1    0    0    0    0  0.00000000000E+00  0.00000000000E+00  0.99967496520E+03  0.99967496520E+03  0.51100000000E-03 0.  1.
          2   -1    0    0  501    0 -0.00000000000E+00 -0.00000000000E+00 -0.50490554326E+03  0.50490554326E+03  0.25500000000E-02 0.  1.
         11    1    1    2    0    0  0.26642510794E+03 -0.22803819296E+03  0.40655881591E+03  0.53691137666E+03  0.51100000000E-03 0.  1.
         22    1    1    2    0    0 -0.30217869247E+02 -0.75376155167E+02  0.43944264441E+03  0.44688311908E+03  0.00000000000E+00 0.  1.
          2    1    1    2  501    0 -0.23620723870E+03  0.30341434812E+03 -0.35123203838E+03  0.52078601273E+03  0.25500000000E-02 0.  1.
<mgrwt>
<rscale>  0 0.37843612E+03</rscale>
<asrwt>0</asrwt>
<pdfrwt beam="1">  1       11 0.10000000E+01 0.81207662E+02</pdfrwt>
<pdfrwt beam="2">  1        2 0.77652526E-01 0.37843612E+03</pdfrwt>
<totfact> 0.76289984E+01</totfact>
</mgrwt>
</event>
<event>
 5    1  0.6729100E-004  0.1971155E+03  0.7818608E-02  0.1253807E+00
         11   -1    0    0    0    0  0.00000000000E+00  0.00000000000E+00  0.10001176981E+04  0.10001176981E+04  0.51100000000E-03 0. -1.
          2   -1    0    0  501    0 -0.00000000000E+00 -0.00000000000E+00 -0.61083251212E+02  0.61083251265E+02  0.25500000000E-02 0. -1.
         11    1    1    2    0    0 -0.17788580117E+02 -0.21163491617E+03  0.66841124168E+03  0.70134111482E+03  0.51100000000E-03 0. -1.
         22    1    1    2    0    0 -0.39170385973E+02  0.52651592823E+02  0.10142134871E+03  0.12080065951E+03  0.00000000000E+00 0. -1.
          2    1    1    2  501    0  0.56958966090E+02  0.15898332334E+03  0.16920185647E+03  0.23905917502E+03  0.25500000000E-02 0. -1.
<mgrwt>
<rscale>  0 0.11373438E+03</rscale>
<asrwt>0</asrwt>
<pdfrwt beam="1">  1       11 0.10000000E+01 0.19711554E+03</pdfrwt>
<pdfrwt beam="2">  1        2 0.93985291E-02 0.11373438E+03</pdfrwt>
<totfact> 0.81233492E+02</totfact>
</mgrwt>
</event>
<event>
 5    1  0.6729100E-004  0.1465264E+03  0.7818608E-02  0.1204807E+00
         11   -1    0    0    0    0  0.00000000000E+00  0.00000000000E+00  0.10000371489E+04  0.10000371489E+04  0.51100000000E-03 0.  1.
          2   -1    0    0  501    0 -0.00000000000E+00 -0.00000000000E+00 -0.40381211029E+03  0.40381211030E+03  0.25500000000E-02 0. -1.
         11    1    1    2    0    0  0.76400155721E+02  0.89823490775E+02  0.69691870367E+03  0.70682453468E+03  0.51100000000E-03 0.  1.
         22    1    1    2    0    0 -0.53794071135E+02  0.55860319787E+02  0.27907192163E+03  0.28964687960E+03  0.00000000000E+00 0.  1.
          2    1    1    2  501    0 -0.22606084586E+02 -0.14568381056E+03 -0.37976558667E+03  0.40737784494E+03  0.25500000000E-02 0. -1.
<mgrwt>
<rscale>  0 0.14652640E+03</rscale>
<asrwt>0</asrwt>
<pdfrwt beam="1">  1       11 0.10000000E+01 0.77551128E+02</pdfrwt>
<pdfrwt beam="2">  1        2 0.62127246E-01 0.14652640E+03</pdfrwt>
<totfact> 0.98704894E+01</totfact>
</mgrwt>
</event>
<event>
 5    1  0.6729100E-004  0.1777673E+03  0.7818608E-02  0.1308057E+00
         11   -1    0    0    0    0  0.00000000000E+00  0.00000000000E+00  0.10003614202E+04  0.10003614202E+04  0.51100000000E-03 0. -1.
         -2   -1    0    0    0  501 -0.00000000000E+00 -0.00000000000E+00 -0.15445468123E+03  0.15445468125E+03  0.25500000000E-02 0.  1.
         11    1    1    2    0    0 -0.17941288622E+03  0.11360349275E+02  0.90996987198E+03  0.92755765815E+03  0.51100000000E-03 0. -1.
         22    1    1    2    0    0  0.30761601471E+02 -0.30683824698E+02  0.27674110022E+02  0.51513392324E+02  0.00000000000E+00 0. -1.
         -2    1    1    2    0  501  0.14865128475E+03  0.19323475424E+02 -0.91737243069E+02  0.17574505095E+03  0.25500000000E-02 0.  1.
<mgrwt>
<rscale>  0 0.87884720E+02</rscale>
<asrwt>0</asrwt>
<pdfrwt beam="1">  1       11 0.10000000E+01 0.17776728E+03</pdfrwt>
<pdfrwt beam="2">  1       -2 0.23770846E-01 0.87884720E+02</pdfrwt>
<totfact> 0.12143549E+02</totfact>
</mgrwt>
</event>
<event>
 5    1  0.6729100E-004  0.2039784E+03  0.7818608E-02  0.1146425E+00
         11   -1    0    0    0    0  0.00000000000E+00  0.00000000000E+00  0.10011340722E+04  0.10011340722E+04  0.51100000000E-03 0. -1.
          2   -1    0    0  501    0 -0.00000000000E+00 -0.00000000000E+00 -0.17215763484E+04  0.17215763484E+04  0.25500000000E-02 0.  1.
         11    1    1    2    0    0 -0.11963861761E+03 -0.18236951974E+03  0.88137365209E+03  0.90796010659E+03  0.51100000000E-03 0. -1.
         22    1    1    2    0    0 -0.16857056285E+02  0.30897144424E+02  0.97286354910E+02  0.10345737640E+03  0.00000000000E+00 0. -1.
          2    1    1    2  501    0  0.13649567389E+03  0.15147237531E+03 -0.16991022832E+04  0.17112929376E+04  0.25500000000E-02 0.  1.
<mgrwt>
<rscale>  0 0.20397844E+03</rscale>
<asrwt>0</asrwt>
<pdfrwt beam="1">  1       11 0.10000000E+01 0.35196504E+02</pdfrwt>
<pdfrwt beam="2">  1        2 0.26515826E+00 0.20397844E+03</pdfrwt>
<totfact> 0.13339694E+01</totfact>
</mgrwt>
</event>
<event>
 5    1  0.6729100E-004  0.2073296E+03  0.7818608E-02  0.1145087E+00
         11   -1    0    0    0    0  0.00000000000E+00  0.00000000000E+00  0.10001487697E+04  0.10001487697E+04  0.51100000000E-03 0. -1.
          2   -1    0    0  501    0 -0.00000000000E+00 -0.00000000000E+00 -0.28193542834E+03  0.28193542836E+03  0.25500000000E-02 0. -1.
         11    1    1    2    0    0 -0.19583244907E+03  0.94357334823E+01  0.88511558953E+03  0.90656990243E+03  0.51100000000E-03 0. -1.
         22    1    1    2    0    0 -0.97310413008E+01 -0.48834112235E+01  0.64815589404E+02  0.65723675337E+02  0.00000000000E+00 0.  1.
          2    1    1    2  501    0  0.20556349037E+03 -0.45523222588E+01 -0.23171783753E+03  0.30979062033E+03  0.25500000000E-02 0. -1.
<mgrwt>
<rscale>  0 0.20561389E+03</rscale>
<asrwt>0</asrwt>
<pdfrwt beam="1">  1       11 0.10000000E+01 0.20732958E+03</pdfrwt>
<pdfrwt beam="2">  1        2 0.43381133E-01 0.20561389E+03</pdfrwt>
<totfact> 0.14496423E+02</totfact>
</mgrwt>
</event>
<event>
 5    1  0.6729100E-004  0.1623908E+03  0.7818608E-02  0.1186024E+00
         11   -1    0    0    0    0  0.00000000000E+00  0.00000000000E+00  0.10001295232E+04  0.10001295232E+04  0.51100000000E-03 0.  1.
          2   -1    0    0  501    0 -0.00000000000E+00 -0.00000000000E+00 -0.97437810181E+02  0.97437810215E+02  0.25500000000E-02 0.  1.
         11    1    1    2    0    0  0.13406728296E+03 -0.67190574025E+02  0.76120967566E+03  0.77584069236E+03  0.51100000000E-03 0.  1.
         22    1    1    2    0    0 -0.75887840520E+01 -0.37169633996E+02  0.15272532702E+03  0.15736644131E+03  0.00000000000E+00 0. -1.
          2    1    1    2  501    0 -0.12647849891E+03  0.10436020802E+03 -0.11243289638E+02  0.16436019978E+03  0.25500000000E-02 0.  1.
<mgrwt>
<rscale>  0 0.16239075E+03</rscale>
<asrwt>0</asrwt>
<pdfrwt beam="1">  1       11 0.10000000E+01 0.37936412E+02</pdfrwt>
<pdfrwt beam="2">  1        2 0.14992374E-01 0.16239075E+03</pdfrwt>
<totfact> 0.47157666E+02</totfact>
</mgrwt>
</event>
<event>
 5    1  0.6729100E-004  0.4752403E+02  0.7818608E-02  0.1698005E+00
         11   -1    0    0    0    0  0.00000000000E+00  0.00000000000E+00  0.10003060249E+04  0.10003060249E+04  0.51100000000E-03 0. -1.
          2   -1    0    0  501    0 -0.00000000000E+00 -0.00000000000E+00 -0.50136889854E+01  0.50136896339E+01  0.25500000000E-02 0. -1.
         11    1    1    2    0    0 -0.16136709269E+02 -0.54177894177E+02  0.21129990266E+03  0.21873108254E+03  0.51100000000E-03 0. -1.
         22    1    1    2    0    0  0.36203298971E+01  0.10123699652E+02  0.48763867963E+02  0.49935066856E+02  0.00000000000E+00 0. -1.
          2    1    1    2  501    0  0.12516379372E+02  0.44054194525E+02  0.73522856531E+03  0.73665356516E+03  0.25500000000E-02 0. -1.
<mgrwt>
<rscale>  0 0.22604364E+02</rscale>
<asrwt>0</asrwt>
<pdfrwt beam="1">  1       11 0.10000000E+01 0.47524028E+02</pdfrwt>
<pdfrwt beam="2">  1        2 0.77157284E-03 0.22604364E+02</pdfrwt>
<totfact> 0.16447208E+04</totfact>
</mgrwt>
</event>
<event>
 5    1  0.6729100E-004  0.1404917E+03  0.7818608E-02  0.1212669E+00
         11   -1    0    0    0    0  0.00000000000E+00  0.00000000000E+00  0.10001591788E+04  0.10001591788E+04  0.51100000000E-03 0. -1.
          2   -1    0    0  501    0 -0.00000000000E+00 -0.00000000000E+00 -0.11378606191E+03  0.11378606194E+03  0.25500000000E-02 0. -1.
         11    1    1    2    0    0  0.18100789441E+03 -0.24408549916E+02  0.82581702002E+03  0.84577383839E+03  0.51100000000E-03 0. -1.
         22    1    1    2    0    0 -0.47562141998E+02 -0.11267794845E+02  0.11086576506E+03  0.12116244638E+03  0.00000000000E+00 0. -1.
          2    1    1    2  501    0 -0.13344575241E+03  0.35676344761E+02 -0.50309668195E+02  0.14700895596E+03  0.25500000000E-02 0. -1.
<mgrwt>
<rscale>  0 0.14049170E+03</rscale>
<asrwt>0</asrwt>
<pdfrwt beam="1">  1       11 0.10000000E+01 0.48878631E+02</pdfrwt>
<pdfrwt beam="2">  1        2 0.17508334E-01 0.14049170E+03</pdfrwt>
<totfact> 0.39149300E+02</totfact>
</mgrwt>
</event>
<event>
 5    1  0.6729100E-004  0.2496116E+03  0.7818608E-02  0.1247608E+00
         11   -1    0    0    0    0  0.00000000000E+00  0.00000000000E+00  0.10000137848E+04  0.10000137848E+04  0.51100000000E-03 0.  1.
          2   -1    0    0  501    0 -0.00000000000E+00 -0.00000000000E+00 -0.10957134732E+03  0.10957134735E+03  0.25500000000E-02 0.  1.
         11    1    1    2    0    0  0.18109000353E+03 -0.16826166771E+03  0.68527759131E+03  0.72849911143E+03  0.51100000000E-03 0.  1.
         22    1    1    2    0    0 -0.29809188055E+02 -0.46374594154E+02  0.58201200690E+02  0.80165893229E+02  0.00000000000E+00 0. -1.
          2    1    1    2  501    0 -0.15128081548E+03  0.21463626187E+03  0.14696364549E+03  0.30092012751E+03  0.25500000000E-02 0.  1.
<mgrwt>
<rscale>  0 0.11730643E+03</rscale>
<asrwt>0</asrwt>
<pdfrwt beam="1">  1       11 0.10000000E+01 0.24961155E+03</pdfrwt>
<pdfrwt beam="2">  1        2 0.16857362E-01 0.11730643E+03</pdfrwt>
<totfact> 0.40609478E+02</totfact>
</mgrwt>
</event>
<event>
 5    1  0.6729100E-004  0.1899248E+03  0.7818608E-02  0.1158529E+00
         11   -1    0    0    0    0  0.00000000000E+00  0.00000000000E+00  0.10003289629E+04  0.10003289629E+04  0.51100000000E-03 0. -1.
          2   -1    0    0  501    0 -0.00000000000E+00 -0.00000000000E+00 -0.35377487713E+03  0.35377487714E+03  0.25500000000E-02 0. -1.
         11    1    1    2    0    0 -0.11934561913E+03  0.14738529049E+03  0.82074860615E+03  0.84237407080E+03  0.51100000000E-03 0. -1.
         22    1    1    2    0    0 -0.25916538677E+02 -0.24855548798E+02  0.14000108882E+03  0.14453293796E+03  0.00000000000E+00 0.  1.
          2    1    1    2  501    0  0.14526215781E+03 -0.12252974169E+03 -0.31419560918E+03  0.36719683131E+03  0.25500000000E-02 0. -1.
<mgrwt>
<rscale>  0 0.18992483E+03</rscale>
<asrwt>0</asrwt>
<pdfrwt beam="1">  1       11 0.10000000E+01 0.35909125E+02</pdfrwt>
<pdfrwt beam="2">  1        2 0.54444807E-01 0.18992483E+03</pdfrwt>
<totfact> 0.11359252E+02</totfact>
</mgrwt>
</event>
<event>
 5    1  0.6729100E-004  0.1252513E+03  0.7818608E-02  0.1257859E+00
         11   -1    0    0    0    0  0.00000000000E+00  0.00000000000E+00  0.10002191269E+04  0.10002191269E+04  0.51100000000E-03 0. -1.
          2   -1    0    0  501    0 -0.00000000000E+00 -0.00000000000E+00 -0.14365204450E+02  0.14365204676E+02  0.25500000000E-02 0. -1.
         11    1    1    2    0    0 -0.82602335723E+02  0.27771547291E+02  0.39225866460E+03  0.40182242926E+03  0.51100000000E-03 0. -1.
         22    1    1    2    0    0 -0.28812939994E+02 -0.24072013993E+02  0.20861372832E+03  0.21196540994E+03  0.00000000000E+00 0. -1.
          2    1    1    2  501    0  0.11141527572E+03 -0.36995332973E+01  0.38498152955E+03  0.40079649238E+03  0.25500000000E-02 0. -1.
<mgrwt>
<rscale>  0 0.11147668E+03</rscale>
<asrwt>0</asrwt>
<pdfrwt beam="1">  1       11 0.10000000E+01 0.12525126E+03</pdfrwt>
<pdfrwt beam="2">  1        2 0.22105157E-02 0.11147668E+03</pdfrwt>
<totfact> 0.53295788E+03</totfact>
</mgrwt>
</event>
<event>
 5    1  0.6729100E-004  0.2747047E+03  0.7818608E-02  0.1098617E+00
         11   -1    0    0    0    0  0.00000000000E+00  0.00000000000E+00  0.10001572436E+04  0.10001572436E+04  0.51100000000E-03 0.  1.
         -2   -1    0    0    0  501 -0.00000000000E+00 -0.00000000000E+00 -0.26661650277E+03  0.26661650278E+03  0.25500000000E-02 0. -1.
         11    1    1    2    0    0 -0.82081988063E+02 -0.92630074023E+02  0.47588566516E+01  0.12385648992E+03  0.51100000000E-03 0.  1.
         22    1    1    2    0    0 -0.13074856995E+03 -0.10208747787E+03  0.82292620421E+03  0.83947875450E+03  0.00000000000E+00 0.  1.
         -2    1    1    2    0  501  0.21283055802E+03  0.19471755189E+03 -0.94144320072E+02  0.30343850192E+03  0.25500000000E-02 0. -1.
<mgrwt>
<rscale>  0 0.27470473E+03</rscale>
<asrwt>0</asrwt>
<pdfrwt beam="1">  1       11 0.10000000E+01 0.12376509E+03</pdfrwt>
<pdfrwt beam="2">  1       -2 0.41024372E-01 0.27470473E+03</pdfrwt>
<totfact> 0.45870382E+01</totfact>
</mgrwt>
</event>
<event>
 5    1  0.6729100E-004  0.2569322E+03  0.7818608E-02  0.1109001E+00
         11   -1    0    0    0    0  0.00000000000E+00  0.00000000000E+00  0.10002989582E+04  0.10002989582E+04  0.51100000000E-03 0. -1.
          2   -1    0    0  501    0 -0.00000000000E+00 -0.00000000000E+00 -0.16277240400E+03  0.16277240402E+03  0.25500000000E-02 0. -1.
         11    1    1    2    0    0  0.16079828059E+03 -0.67083182110E+02  0.58773036433E+03  0.61301159983E+03  0.51100000000E-03 0. -1.
         22    1    1    2    0    0  0.35881223655E+02 -0.13301884300E+03  0.23085848740E+03  0.26884403659E+03  0.00000000000E+00 0. -1.
          2    1    1    2  501    0 -0.19667950425E+03  0.20010202511E+03  0.18937702444E+02  0.28121572578E+03  0.25500000000E-02 0. -1.
<mgrwt>
<rscale>  0 0.25693219E+03</rscale>
<asrwt>0</asrwt>
<pdfrwt beam="1">  1       11 0.10000000E+01 0.13777327E+03</pdfrwt>
<pdfrwt beam="2">  1        2 0.25049394E-01 0.25693219E+03</pdfrwt>
<totfact> 0.26510963E+02</totfact>
</mgrwt>
</event>
<event>
 5    1  0.6729100E-004  0.9475693E+02  0.7818608E-02  0.1663817E+00
         11   -1    0    0    0    0  0.00000000000E+00  0.00000000000E+00  0.10001878874E+04  0.10001878874E+04  0.51100000000E-03 0. -1.
          2   -1    0    0  501    0 -0.00000000000E+00 -0.00000000000E+00 -0.33512396620E+02  0.33512396717E+02  0.25500000000E-02 0.  1.
         11    1    1    2    0    0  0.18969692513E+02 -0.10212997691E+03  0.48902112626E+03  0.49993203872E+03  0.51100000000E-03 0. -1.
         22    1    1    2    0    0 -0.33873821464E+02  0.82301699332E+02  0.49536038408E+03  0.50329207783E+03  0.00000000000E+00 0.  1.
          2    1    1    2  501    0  0.14904128951E+02  0.19828277580E+02 -0.17706019583E+02  0.30476167534E+02  0.25500000000E-02 0.  1.
<mgrwt>
<rscale>  0 0.24805114E+02</rscale>
<asrwt>0</asrwt>
<pdfrwt beam="1">  1       11 0.10000000E+01 0.94756930E+02</pdfrwt>
<pdfrwt beam="2">  1        2 0.51567219E-02 0.24805114E+02</pdfrwt>
<totfact> 0.14792756E+03</totfact>
</mgrwt>
</event>
<event>
 5    1  0.6729100E-004  0.4095656E+03  0.7818608E-02  0.1273147E+00
         11   -1    0    0    0    0  0.00000000000E+00  0.00000000000E+00  0.10002243690E+04  0.10002243690E+04  0.51100000000E-03 0.  1.
          2   -1    0    0  501    0 -0.00000000000E+00 -0.00000000000E+00 -0.99666168205E+03  0.99666168206E+03  0.25500000000E-02 0.  1.
         11    1    1    2    0    0  0.44528807672E+03 -0.16250997893E+03  0.13734098618E+02  0.47421470874E+03  0.51100000000E-03 0.  1.
         22    1    1    2    0    0 -0.34619327651E+03  0.19230959693E+03  0.70039866155E+03  0.80460614643E+03  0.00000000000E+00 0.  1.
          2    1    1    2  501    0 -0.99094800214E+02 -0.29799618000E+02 -0.71057007319E+03  0.71806519591E+03  0.25500000000E-02 0.  1.
<mgrwt>
<rscale>  0 0.10347848E+03</rscale>
<asrwt>0</asrwt>
<pdfrwt beam="1">  1       11 0.10000000E+01 0.40956556E+03</pdfrwt>
<pdfrwt beam="2">  1        2 0.15336697E+00 0.10347848E+03</pdfrwt>
<totfact> 0.34582665E+01</totfact>
</mgrwt>
</event>
<event>
 5    1  0.6729100E-004  0.5887189E+03  0.7818608E-02  0.9929091E-01
         11   -1    0    0    0    0  0.00000000000E+00  0.00000000000E+00  0.10001225461E+04  0.10001225461E+04  0.51100000000E-03 0. -1.
          2   -1    0    0  501    0 -0.00000000000E+00 -0.00000000000E+00 -0.51721630870E+03  0.51721630870E+03  0.25500000000E-02 0. -1.
         11    1    1    2    0    0 -0.31908216043E+03  0.45881489909E+03 -0.61590989876E+02  0.56224370763E+03  0.51100000000E-03 0. -1.
         22    1    1    2    0    0 -0.23186930325E+02  0.10223204780E+03  0.16703178978E+03  0.19720203886E+03  0.00000000000E+00 0.  1.
          2    1    1    2  501    0  0.34226909076E+03 -0.56104694689E+03  0.37746543748E+03  0.75789310829E+03  0.25500000000E-02 0. -1.
<mgrwt>
<rscale>  0 0.58871893E+03</rscale>
<asrwt>0</asrwt>
<pdfrwt beam="1">  1       11 0.10000000E+01 0.10482855E+03</pdfrwt>
<pdfrwt beam="2">  1        2 0.79581489E-01 0.58871893E+03</pdfrwt>
<totfact> 0.73593349E+01</totfact>
</mgrwt>
</event>
<event>
 5    1  0.6729100E-004  0.1062536E+03  0.7818608E-02  0.1491738E+00
         11   -1    0    0    0    0  0.00000000000E+00  0.00000000000E+00  0.10004559402E+04  0.10004559402E+04  0.51100000000E-03 0. -1.
          2   -1    0    0  501    0 -0.00000000000E+00 -0.00000000000E+00 -0.18213644707E+02  0.18213644885E+02  0.25500000000E-02 0. -1.
         11    1    1    2    0    0 -0.92748796479E+02 -0.68911274096E+02  0.42578429323E+03  0.44118405151E+03  0.51100000000E-03 0. -1.
         22    1    1    2    0    0  0.99122639935E+02  0.27064677484E+02  0.47150465450E+03  0.48257065154E+03  0.00000000000E+00 0. -1.
          2    1    1    2  501    0 -0.63738434567E+01  0.41846596612E+02  0.84953347753E+02  0.94914882023E+02  0.25500000000E-02 0. -1.
<mgrwt>
<rscale>  0 0.42329228E+02</rscale>
<asrwt>0</asrwt>
<pdfrwt beam="1">  1       11 0.10000000E+01 0.10625355E+03</pdfrwt>
<pdfrwt beam="2">  1        2 0.28033767E-02 0.42329228E+02</pdfrwt>
<totfact> 0.34323323E+03</totfact>
</mgrwt>
</event>
<event>
 5    1  0.6729100E-004  0.1221911E+03  0.7818608E-02  0.1239526E+00
         11   -1    0    0    0    0  0.00000000000E+00  0.00000000000E+00  0.10001527881E+04  0.10001527881E+04  0.51100000000E-03 0.  1.
         -2   -1    0    0    0  501 -0.00000000000E+00 -0.00000000000E+00 -0.65407106879E+02  0.65407106928E+02  0.25500000000E-02 0.  1.
         11    1    1    2    0    0 -0.27127538908E+02 -0.13847078670E+03  0.84746977321E+03  0.85913623986E+03  0.51100000000E-03 0.  1.
         22    1    1    2    0    0 -0.56865174097E+01  0.22183340851E+02  0.82371518008E+02  0.85495637728E+02  0.00000000000E+00 0. -1.
         -2    1    1    2    0  501  0.32814056318E+02  0.11628744585E+03  0.49043899995E+01  0.12092801744E+03  0.25500000000E-02 0.  1.
<mgrwt>
<rscale>  0 0.12219109E+03</rscale>
<asrwt>0</asrwt>
<pdfrwt beam="1">  1       11 0.10000000E+01 0.22900592E+02</pdfrwt>
<pdfrwt beam="2">  1       -2 0.10064169E-01 0.12219109E+03</pdfrwt>
<totfact> 0.50207399E+02</totfact>
</mgrwt>
</event>
<event>
 5    1  0.6729100E-004  0.4834289E+03  0.7818608E-02  0.1018197E+00
         11   -1    0    0    0    0  0.00000000000E+00  0.00000000000E+00  0.10000458798E+04  0.10000458798E+04  0.51100000000E-03 0. -1.
          2   -1    0    0  501    0 -0.00000000000E+00 -0.00000000000E+00 -0.26413495507E+03  0.26413495508E+03  0.25500000000E-02 0. -1.
         11    1    1    2    0    0 -0.10422927347E+03  0.45580165130E+03  0.37325411368E+03  0.59827879802E+03  0.51100000000E-03 0. -1.
         22    1    1    2    0    0 -0.25688657026E+02  0.24120363466E+02  0.94815693208E+02  0.10115193875E+03  0.00000000000E+00 0.  1.
          2    1    1    2  501    0  0.12991793050E+03 -0.47992201477E+03  0.26784111784E+03  0.56475009813E+03  0.25500000000E-02 0. -1.
<mgrwt>
<rscale>  0 0.48342887E+03</rscale>
<asrwt>0</asrwt>
<pdfrwt beam="1">  1       11 0.10000000E+01 0.35237750E+02</pdfrwt>
<pdfrwt beam="2">  1        2 0.40638010E-01 0.48342887E+03</pdfrwt>
<totfact> 0.15613492E+02</totfact>
</mgrwt>
</event>
<event>
 5    1  0.6729100E-004  0.7400173E+02  0.7818608E-02  0.1413002E+00
         11   -1    0    0    0    0  0.00000000000E+00  0.00000000000E+00  0.10003579288E+04  0.10003579288E+04  0.51100000000E-03 0.  1.
          2   -1    0    0  501    0 -0.00000000000E+00 -0.00000000000E+00 -0.12623425493E+02  0.12623425751E+02  0.25500000000E-02 0.  1.
         11    1    1    2    0    0 -0.51398199504E+02  0.85269884929E+02  0.37751037422E+03  0.39041876342E+03  0.51100000000E-03 0.  1.
         22    1    1    2    0    0 -0.46413428898E+00 -0.62778533752E+02  0.24132622571E+03  0.24935859106E+03  0.00000000000E+00 0.  1.
          2    1    1    2  501    0  0.51862333793E+02 -0.22491351177E+02  0.36889790337E+03  0.37320400007E+03  0.25500000000E-02 0.  1.
<mgrwt>
<rscale>  0 0.56529307E+02</rscale>
<asrwt>0</asrwt>
<pdfrwt beam="1">  1       11 0.10000000E+01 0.74001728E+02</pdfrwt>
<pdfrwt beam="2">  1        2 0.19427605E-02 0.56529307E+02</pdfrwt>
<totfact> 0.57913566E+03</totfact>
</mgrwt>
</event>
<event>
 5    1  0.6729100E-004  0.2387116E+03  0.7818608E-02  0.1120654E+00
         11   -1    0    0    0    0  0.00000000000E+00  0.00000000000E+00  0.10000972650E+04  0.10000972650E+04  0.51100000000E-03 0. -1.
          2   -1    0    0  501    0 -0.00000000000E+00 -0.00000000000E+00 -0.15854550996E+03  0.15854550998E+03  0.25500000000E-02 0. -1.
         11    1    1    2    0    0  0.21904076695E+03  0.11041143474E+03  0.84432950724E+03  0.87923936406E+03  0.51100000000E-03 0. -1.
         22    1    1    2    0    0 -0.13759293656E+02  0.99917737838E+01  0.34549770568E+02  0.38507666140E+02  0.00000000000E+00 0. -1.
          2    1    1    2  501    0 -0.20528147329E+03 -0.12040320852E+03 -0.37327522757E+02  0.24089574480E+03  0.25500000000E-02 0. -1.
<mgrwt>
<rscale>  0 0.23871155E+03</rscale>
<asrwt>0</asrwt>
<pdfrwt beam="1">  1       11 0.10000000E+01 0.17004520E+02</pdfrwt>
<pdfrwt beam="2">  1        2 0.24393989E-01 0.23871155E+03</pdfrwt>
<totfact> 0.27271128E+02</totfact>
</mgrwt>
</event>
<event>
 5    1  0.6729100E-004  0.2250165E+03  0.7818608E-02  0.1398819E+00
         11   -1    0    0    0    0  0.00000000000E+00  0.00000000000E+00  0.10001370150E+04  0.10001370150E+04  0.51100000000E-03 0.  1.
          2   -1    0    0  501    0 -0.00000000000E+00 -0.00000000000E+00 -0.84217756829E+03  0.84217756829E+03  0.25500000000E-02 0. -1.
         11    1    1    2    0    0  0.14201058536E+03 -0.18968054809E+03  0.81520584404E+03  0.84894421774E+03  0.51100000000E-03 0.  1.
         22    1    1    2    0    0 -0.86115297621E+02  0.16852381404E+03  0.11325723854E+03  0.22055231231E+03  0.00000000000E+00 0. -1.
          2    1    1    2  501    0 -0.55895287743E+02  0.21156734045E+02 -0.77050363585E+03  0.77281805326E+03  0.25500000000E-02 0. -1.
<mgrwt>
<rscale>  0 0.59765296E+02</rscale>
<asrwt>0</asrwt>
<pdfrwt beam="1">  1       11 0.10000000E+01 0.22501645E+03</pdfrwt>
<pdfrwt beam="2">  1        2 0.12958353E+00 0.59765296E+02</pdfrwt>
<totfact> 0.44042989E+01</totfact>
</mgrwt>
</event>
<event>
 5    1  0.6729100E-004  0.1042993E+03  0.7818608E-02  0.1271506E+00
         11   -1    0    0    0    0  0.00000000000E+00  0.00000000000E+00  0.99991826983E+03  0.99991826983E+03  0.51100000000E-03 0.  1.
          2   -1    0    0  501    0 -0.00000000000E+00 -0.00000000000E+00 -0.91219905432E+02  0.91219905467E+02  0.25500000000E-02 0.  1.
         11    1    1    2    0    0 -0.12303503152E+03  0.63324060516E+02  0.76155763991E+03  0.77402686938E+03  0.51100000000E-03 0.  1.
         22    1    1    2    0    0  0.41647364576E+02 -0.24407516213E+00  0.19795220654E+03  0.20228603170E+03  0.00000000000E+00 0.  1.
          2    1    1    2  501    0  0.81387666943E+02 -0.63079985353E+02 -0.50811482052E+02  0.11482527421E+03  0.25500000000E-02 0.  1.
<mgrwt>
<rscale>  0 0.10429928E+03</rscale>
<asrwt>0</asrwt>
<pdfrwt beam="1">  1       11 0.10000000E+01 0.41648080E+02</pdfrwt>
<pdfrwt beam="2">  1        2 0.14032684E-01 0.10429928E+03</pdfrwt>
<totfact> 0.49976420E+02</totfact>
</mgrwt>
</event>
<event>
 5    1  0.6729100E-004  0.1658232E+03  0.7818608E-02  0.1182275E+00
         11   -1    0    0    0    0  0.00000000000E+00  0.00000000000E+00  0.10001676696E+04  0.10001676696E+04  0.51100000000E-03 0. -1.
          2   -1    0    0  501    0 -0.00000000000E+00 -0.00000000000E+00 -0.39028784600E+02  0.39028784683E+02  0.25500000000E-02 0. -1.
         11    1    1    2    0    0 -0.17386797969E+03 -0.11125084331E+02  0.59591013331E+03  0.62085644785E+03  0.51100000000E-03 0. -1.
         22    1    1    2    0    0  0.14929520294E+02 -0.23992462345E+02  0.12503743288E+03  0.12819082825E+03  0.00000000000E+00 0.  1.
          2    1    1    2  501    0  0.15893845939E+03  0.35117546676E+02  0.24019131879E+03  0.29014917816E+03  0.25500000000E-02 0. -1.
<mgrwt>
<rscale>  0 0.16582317E+03</rscale>
<asrwt>0</asrwt>
<pdfrwt beam="1">  1       11 0.10000000E+01 0.28258252E+02</pdfrwt>
<pdfrwt beam="2">  1        2 0.60054350E-02 0.16582317E+03</pdfrwt>
<totfact> 0.14664625E+03</totfact>
</mgrwt>
</event>
<event>
 5    1  0.6729100E-004  0.2525660E+03  0.7818608E-02  0.1111694E+00
         11   -1    0    0    0    0  0.00000000000E+00  0.00000000000E+00  0.10004029872E+04  0.10004029872E+04  0.51100000000E-03 0.  1.
          2   -1    0    0  501    0 -0.00000000000E+00 -0.00000000000E+00 -0.10958060472E+03  0.10958060475E+03  0.25500000000E-02 0.  1.
         11    1    1    2    0    0 -0.18725373429E+03  0.16659659743E+03  0.80518827699E+03  0.84329505435E+03  0.51100000000E-03 0.  1.
         22    1    1    2    0    0  0.15556828643E+02 -0.56977648072E+01  0.10775209010E+02  0.19763212553E+02  0.00000000000E+00 0. -1.
          2    1    1    2  501    0  0.17169690564E+03 -0.16089883263E+03  0.74858896433E+02  0.24692532501E+03  0.25500000000E-02 0.  1.
<mgrwt>
<rscale>  0 0.25256598E+03</rscale>
<asrwt>0</asrwt>
<pdfrwt beam="1">  1       11 0.10000000E+01 0.25063597E+03</pdfrwt>
<pdfrwt beam="2">  1        2 0.16865348E-01 0.25256598E+03</pdfrwt>
<totfact> 0.41720892E+02</totfact>
</mgrwt>
</event>
<event>
 5    1  0.6729100E-004  0.6669881E+02  0.7818608E-02  0.1487228E+00
         11   -1    0    0    0    0  0.00000000000E+00  0.00000000000E+00  0.10001243293E+04  0.10001243293E+04  0.51100000000E-03 0. -1.
          2   -1    0    0  501    0 -0.00000000000E+00 -0.00000000000E+00 -0.10725100876E+02  0.10725101179E+02  0.25500000000E-02 0. -1.
         11    1    1    2    0    0  0.48077013558E+02 -0.10742481637E+01  0.93709767071E+02  0.10532840873E+03  0.51100000000E-03 0. -1.
         22    1    1    2    0    0 -0.74719801761E+02 -0.32677247437E+02  0.41670465693E+03  0.42460996500E+03  0.00000000000E+00 0. -1.
          2    1    1    2  501    0  0.26642788202E+02  0.33751495601E+02  0.47898480438E+03  0.48091105669E+03  0.25500000000E-02 0. -1.
<mgrwt>
<rscale>  0 0.43000019E+02</rscale>
<asrwt>0</asrwt>
<pdfrwt beam="1">  1       11 0.10000000E+01 0.66698814E+02</pdfrwt>
<pdfrwt beam="2">  1        2 0.16502206E-02 0.43000019E+02</pdfrwt>
<totfact> 0.68889722E+03</totfact>
</mgrwt>
</event>
<event>
 5    1  0.6729100E-004  0.1359465E+03  0.7818608E-02  0.1221134E+00
         11   -1    0    0    0    0  0.00000000000E+00  0.00000000000E+00  0.10002143937E+04  0.10002143937E+04  0.51100000000E-03 0. -1.
         -2   -1    0    0    0  501 -0.00000000000E+00 -0.00000000000E+00 -0.22654342448E+02  0.22654342592E+02  0.25500000000E-02 0.  1.
         11    1    1    2    0    0  0.12093450608E+02 -0.12420884828E+03  0.66313828390E+03  0.67477883274E+03  0.51100000000E-03 0. -1.
         22    1    1    2    0    0 -0.49074594383E+01 -0.99534880920E+01  0.53161996044E+02  0.54307945153E+02  0.00000000000E+00 0. -1.
         -2    1    1    2    0  501 -0.71859911701E+01  0.13416233637E+03  0.26125977130E+03  0.29378195839E+03  0.25500000000E-02 0.  1.
<mgrwt>
<rscale>  0 0.13435465E+03</rscale>
<asrwt>0</asrwt>
<pdfrwt beam="1">  1       11 0.10000000E+01 0.13594646E+03</pdfrwt>
<pdfrwt beam="2">  1       -2 0.34860306E-02 0.13435465E+03</pdfrwt>
<totfact> 0.25250033E+03</totfact>
</mgrwt>
</event>
<event>
 5    1  0.6729100E-004  0.1094573E+03  0.7818608E-02  0.1550634E+00
         11   -1    0    0    0    0  0.00000000000E+00  0.00000000000E+00  0.10004054393E+04  0.10004054393E+04  0.51100000000E-03 0. -1.
         -2   -1    0    0    0  501 -0.00000000000E+00 -0.00000000000E+00 -0.28322391791E+02  0.28322391906E+02  0.25500000000E-02 0. -1.
         11    1    1    2    0    0  0.10285347943E+03  0.32442516395E+02  0.62943105084E+03  0.63860379177E+03  0.51100000000E-03 0. -1.
         22    1    1    2    0    0 -0.95598979454E+02 -0.66449443669E+02  0.33481518555E+03  0.35447976234E+03  0.00000000000E+00 0. -1.
         -2    1    1    2    0  501 -0.72544999727E+01  0.34006927274E+02  0.78368110830E+01  0.35644277057E+02  0.25500000000E-02 0. -1.
<mgrwt>
<rscale>  0 0.34772099E+02</rscale>
<asrwt>0</asrwt>
<pdfrwt beam="1">  1       11 0.10000000E+01 0.10945726E+03</pdfrwt>
<pdfrwt beam="2">  1       -2 0.43590575E-02 0.34772099E+02</pdfrwt>
<totfact> 0.15586195E+03</totfact>
</mgrwt>
</event>
<event>
 5    1  0.6729100E-004  0.8066521E+02  0.7818608E-02  0.1458154E+00
         11   -1    0    0    0    0  0.00000000000E+00  0.00000000000E+00  0.10004790555E+04  0.10004790555E+04  0.51100000000E-03 0. -1.
          2   -1    0    0  501    0 -0.00000000000E+00 -0.00000000000E+00 -0.10506687677E+02  0.10506687987E+02  0.25500000000E-02 0. -1.
         11    1    1    2    0    0 -0.38023837714E+02  0.68347370431E+02  0.27301953504E+03  0.28400148202E+03  0.51100000000E-03 0. -1.
         22    1    1    2    0    0  0.24479404316E+02  0.14014748980E+02  0.85358810777E+02  0.89898726364E+02  0.00000000000E+00 0. -1.
          2    1    1    2  501    0  0.13544433399E+02 -0.82362119411E+02  0.63159402206E+03  0.63708553515E+03  0.25500000000E-02 0. -1.
<mgrwt>
<rscale>  0 0.47700632E+02</rscale>
<asrwt>0</asrwt>
<pdfrwt beam="1">  1       11 0.10000000E+01 0.80665206E+02</pdfrwt>
<pdfrwt beam="2">  1        2 0.16171878E-02 0.47700632E+02</pdfrwt>
<totfact> 0.71971301E+03</totfact>
</mgrwt>
</event>
<event>
 5    1  0.6729100E-004  0.5983112E+03  0.7818608E-02  0.9908916E-01
         11   -1    0    0    0    0  0.00000000000E+00  0.00000000000E+00  0.10001520732E+04  0.10001520732E+04  0.51100000000E-03 0. -1.
          2   -1    0    0  501    0 -0.00000000000E+00 -0.00000000000E+00 -0.38642239192E+03  0.38642239193E+03  0.25500000000E-02 0. -1.
         11    1    1    2    0    0  0.57248943916E+03 -0.19222197597E+03  0.24863071699E+03  0.65307785097E+03  0.51100000000E-03 0. -1.
         22    1    1    2    0    0 -0.12483154501E+02 -0.99384283555E+00  0.71024254680E+02  0.72119772759E+02  0.00000000000E+00 0.  1.
          2    1    1    2  501    0 -0.56000628466E+03  0.19321581881E+03  0.29407470962E+03  0.66137684140E+03  0.25500000000E-02 0. -1.
<mgrwt>
<rscale>  0 0.59831117E+03</rscale>
<asrwt>0</asrwt>
<pdfrwt beam="1">  1       11 0.10000000E+01 0.12522654E+02</pdfrwt>
<pdfrwt beam="2">  1        2 0.59458638E-01 0.59831117E+03</pdfrwt>
<totfact> 0.10244101E+02</totfact>
</mgrwt>
</event>
<event>
 5    1  0.6729100E-004  0.1149211E+03  0.7818608E-02  0.1497047E+00
         11   -1    0    0    0    0  0.00000000000E+00  0.00000000000E+00  0.99998940081E+03  0.99998940081E+03  0.51100000000E-03 0. -1.
          2   -1    0    0  501    0 -0.00000000000E+00 -0.00000000000E+00 -0.13730852479E+03  0.13730852481E+03  0.25500000000E-02 0. -1.
         11    1    1    2    0    0  0.89187817270E+01  0.10647495852E+03  0.30792467844E+03  0.32593568239E+03  0.51100000000E-03 0. -1.
         22    1    1    2    0    0  0.30915349961E+02 -0.11832157859E+03  0.67404102608E+03  0.68504529753E+03  0.00000000000E+00 0. -1.
          2    1    1    2  501    0 -0.39834131688E+02  0.11846620070E+02 -0.11928482850E+03  0.12631694570E+03  0.25500000000E-02 0. -1.
<mgrwt>
<rscale>  0 0.41558398E+02</rscale>
<asrwt>0</asrwt>
<pdfrwt beam="1">  1       11 0.10000000E+01 0.11492108E+03</pdfrwt>
<pdfrwt beam="2">  1        2 0.21124164E-01 0.41558398E+02</pdfrwt>
<totfact> 0.30195290E+02</totfact>
</mgrwt>
</event>
<event>
 5    1  0.6729100E-004  0.6615616E+03  0.7818608E-02  0.9790116E-01
         11   -1    0    0    0    0  0.00000000000E+00  0.00000000000E+00  0.10000478364E+04  0.10000478364E+04  0.51100000000E-03 0. -1.
          2   -1    0    0  501    0 -0.00000000000E+00 -0.00000000000E+00 -0.92543020196E+03  0.92543020197E+03  0.25500000000E-02 0. -1.
         11    1    1    2    0    0 -0.53539565904E+03  0.36461312764E+03  0.71103318562E+03  0.96185208615E+03  0.51100000000E-03 0. -1.
         22    1    1    2    0    0 -0.76048002901E+01  0.87159633094E+01  0.26501406607E+02  0.28915835731E+02  0.00000000000E+00 0.  1.
          2    1    1    2  501    0  0.54300045933E+03 -0.37332909095E+03 -0.66291695778E+03  0.93471011651E+03  0.25500000000E-02 0. -1.
<mgrwt>
<rscale>  0 0.65895683E+03</rscale>
<asrwt>0</asrwt>
<pdfrwt beam="1">  1       11 0.10000000E+01 0.66156164E+03</pdfrwt>
<pdfrwt beam="2">  1        2 0.14238068E+00 0.65895683E+03</pdfrwt>
<totfact> 0.35213325E+01</totfact>
</mgrwt>
</event>
<event>
 5    1  0.6729100E-004  0.1431572E+03  0.7818608E-02  0.1209143E+00
         11   -1    0    0    0    0  0.00000000000E+00  0.00000000000E+00  0.10002707251E+04  0.10002707251E+04  0.51100000000E-03 0.  1.
         -2   -1    0    0    0  501 -0.00000000000E+00 -0.00000000000E+00 -0.86253947796E+02  0.86253947834E+02  0.25500000000E-02 0. -1.
         11    1    1    2    0    0 -0.11536393468E+03  0.75054828156E+02  0.53970086930E+03  0.55697315284E+03  0.51100000000E-03 0.  1.
         22    1    1    2    0    0 -0.30350321700E+02 -0.66171631825E+02  0.37657693370E+03  0.38354923267E+03  0.00000000000E+00 0.  1.
         -2    1    1    2    0  501  0.14571425638E+03 -0.88831963317E+01 -0.22610257004E+01  0.14600228743E+03  0.25500000000E-02 0. -1.
<mgrwt>
<rscale>  0 0.14315723E+03</rscale>
<asrwt>0</asrwt>
<pdfrwt beam="1">  1       11 0.10000000E+01 0.72799910E+02</pdfrwt>
<pdfrwt beam="2">  1       -2 0.13273430E-01 0.14315723E+03</pdfrwt>
<totfact> 0.32614058E+02</totfact>
</mgrwt>
</event>
<event>
 5    1  0.6729100E-004  0.1613113E+03  0.7818608E-02  0.1551715E+00
         11   -1    0    0    0    0  0.00000000000E+00  0.00000000000E+00  0.10002058188E+04  0.10002058188E+04  0.51100000000E-03 0. -1.
         -2   -1    0    0    0  501 -0.00000000000E+00 -0.00000000000E+00 -0.16272797249E+03  0.16272797251E+03  0.25500000000E-02 0. -1.
         11    1    1    2    0    0 -0.10324513533E+03  0.11642935142E+03  0.64208891352E+03  0.66067656588E+03  0.51100000000E-03 0. -1.
         22    1    1    2    0    0  0.13748904542E+03 -0.11112880568E+03  0.32398258584E+03  0.36907663837E+03  0.00000000000E+00 0. -1.
         -2    1    1    2    0  501 -0.34243910088E+02 -0.53005457441E+01 -0.12859365304E+03  0.13318058707E+03  0.25500000000E-02 0. -1.
<mgrwt>
<rscale>  0 0.34651712E+02</rscale>
<asrwt>0</asrwt>
<pdfrwt beam="1">  1       11 0.10000000E+01 0.16131128E+03</pdfrwt>
<pdfrwt beam="2">  1       -2 0.25040225E-01 0.34651712E+02</pdfrwt>
<totfact> 0.10718570E+02</totfact>
</mgrwt>
</event>
<event>
 5    1  0.6729100E-004  0.1704102E+03  0.7818608E-02  0.1177421E+00
         11   -1    0    0    0    0  0.00000000000E+00  0.00000000000E+00  0.99953872980E+03  0.99953872980E+03  0.51100000000E-03 0.  1.
          2   -1    0    0  501    0 -0.00000000000E+00 -0.00000000000E+00 -0.96998135780E+02  0.96998135813E+02  0.25500000000E-02 0.  1.
         11    1    1    2    0    0  0.71919471215E+02 -0.16099127495E+03  0.69931466575E+01  0.17646389163E+03  0.51100000000E-03 0.  1.
         22    1    1    2    0    0 -0.45979445295E+02  0.41227182189E+02  0.12055405021E+03  0.13545135275E+03  0.00000000000E+00 0.  1.
          2    1    1    2  501    0 -0.25940025920E+02  0.11976409276E+03  0.77499339716E+03  0.78462162123E+03  0.25500000000E-02 0.  1.
<mgrwt>
<rscale>  0 0.17041022E+03</rscale>
<asrwt>0</asrwt>
<pdfrwt beam="1">  1       11 0.10000000E+01 0.61755890E+02</pdfrwt>
<pdfrwt beam="2">  1        2 0.14915906E-01 0.17041022E+03</pdfrwt>
<totfact> 0.47533143E+02</totfact>
</mgrwt>
</event>
<event>
 5    1  0.6729100E-004  0.1561554E+03  0.7818608E-02  0.1400231E+00
         11   -1    0    0    0    0  0.00000000000E+00  0.00000000000E+00  0.10002070380E+04  0.10002070380E+04  0.51100000000E-03 0. -1.
          2   -1    0    0  501    0 -0.00000000000E+00 -0.00000000000E+00 -0.72452354919E+03  0.72452354919E+03  0.25500000000E-02 0. -1.
         11    1    1    2    0    0  0.12147421779E+03  0.13041462578E+03  0.41133970610E+03  0.44829043489E+03  0.51100000000E-03 0. -1.
         22    1    1    2    0    0 -0.12907935496E+03 -0.71471240765E+02  0.55956134322E+03  0.57868688853E+03  0.00000000000E+00 0. -1.
          2    1    1    2  501    0  0.76051371691E+01 -0.58943385013E+02 -0.69521756047E+03  0.69775326380E+03  0.25500000000E-02 0. -1.
<mgrwt>
<rscale>  0 0.59431984E+02</rscale>
<asrwt>0</asrwt>
<pdfrwt beam="1">  1       11 0.10000000E+01 0.15615539E+03</pdfrwt>
<pdfrwt beam="2">  1        2 0.11148824E+00 0.59431984E+02</pdfrwt>
<totfact> 0.52662039E+01</totfact>
</mgrwt>
</event>
<event>
 5    1  0.6729100E-004  0.1166110E+03  0.7818608E-02  0.1322192E+00
         11   -1    0    0    0    0  0.00000000000E+00  0.00000000000E+00  0.10000560453E+04  0.10000560453E+04  0.51100000000E-03 0. -1.
          2   -1    0    0  501    0 -0.00000000000E+00 -0.00000000000E+00 -0.24195258126E+03  0.24195258127E+03  0.25500000000E-02 0. -1.
         11    1    1    2    0    0 -0.14241649489E+03 -0.88371448857E+02  0.60058895248E+03  0.62353753763E+03  0.51100000000E-03 0. -1.
         22    1    1    2    0    0  0.62199875083E+02  0.69237148354E+02  0.37473646381E+03  0.38612177416E+03  0.00000000000E+00 0. -1.
          2    1    1    2  501    0  0.80216619808E+02  0.19134300503E+02 -0.21722195223E+03  0.23234931480E+03  0.25500000000E-02 0. -1.
<mgrwt>
<rscale>  0 0.82467130E+02</rscale>
<asrwt>0</asrwt>
<pdfrwt beam="1">  1       11 0.10000000E+01 0.11661104E+03</pdfrwt>
<pdfrwt beam="2">  1        2 0.37225559E-01 0.82467130E+02</pdfrwt>
<totfact> 0.16899129E+02</totfact>
</mgrwt>
</event>
<event>
 5    1  0.6729100E-004  0.1219593E+03  0.7818608E-02  0.1239899E+00
         11   -1    0    0    0    0  0.00000000000E+00  0.00000000000E+00  0.10001255599E+04  0.10001255599E+04  0.51100000000E-03 0.  1.
          2   -1    0    0  501    0 -0.00000000000E+00 -0.00000000000E+00 -0.18074016533E+02  0.18074016713E+02  0.25500000000E-02 0.  1.
         11    1    1    2    0    0 -0.66987879398E+02 -0.10707460925E+03  0.42127403733E+03  0.43980013922E+03  0.51100000000E-03 0.  1.
         22    1    1    2    0    0  0.21637859641E+02 -0.22081175036E+01  0.12332735015E+03  0.12523061945E+03  0.00000000000E+00 0. -1.
          2    1    1    2  501    0  0.45350019757E+02  0.10928272676E+03  0.43745015587E+03  0.45316881792E+03  0.25500000000E-02 0.  1.
<mgrwt>
<rscale>  0 0.12195933E+03</rscale>
<asrwt>0</asrwt>
<pdfrwt beam="1">  1       11 0.10000000E+01 0.21750236E+02</pdfrwt>
<pdfrwt beam="2">  1        2 0.27809670E-02 0.12195933E+03</pdfrwt>
<totfact> 0.39503728E+03</totfact>
</mgrwt>
</event>
<event>
 5    1  0.6729100E-004  0.1190297E+03  0.7818608E-02  0.1244706E+00
         11   -1    0    0    0    0  0.00000000000E+00  0.00000000000E+00  0.10002816033E+04  0.10002816033E+04  0.51100000000E-03 0.  1.
         -2   -1    0    0    0  501 -0.00000000000E+00 -0.00000000000E+00 -0.14825825273E+02  0.14825825492E+02  0.25500000000E-02 0.  1.
         11    1    1    2    0    0 -0.99316985620E+02  0.60561577221E+02  0.61804109065E+03  0.62889296228E+03  0.51100000000E-03 0.  1.
         22    1    1    2    0    0  0.58421559766E+02 -0.37408095968E+02  0.25736530452E+03  0.26655082866E+03  0.00000000000E+00 0.  1.
         -2    1    1    2    0  501  0.40895425854E+02 -0.23153481253E+02  0.11004938281E+03  0.11966363780E+03  0.25500000000E-02 0.  1.
<mgrwt>
<rscale>  0 0.11902967E+03</rscale>
<asrwt>0</asrwt>
<pdfrwt beam="1">  1       11 0.10000000E+01 0.11632527E+03</pdfrwt>
<pdfrwt beam="2">  1       -2 0.22815385E-02 0.11902967E+03</pdfrwt>
<totfact> 0.46342424E+03</totfact>
</mgrwt>
</event>
<event>
 5    1  0.6729100E-004  0.1103780E+03  0.7818608E-02  0.1410727E+00
         11   -1    0    0    0    0  0.00000000000E+00  0.00000000000E+00  0.10003480549E+04  0.10003480549E+04  0.51100000000E-03 0. -1.
          2   -1    0    0  501    0 -0.00000000000E+00 -0.00000000000E+00 -0.71033093186E+02  0.71033093231E+02  0.25500000000E-02 0. -1.
         11    1    1    2    0    0 -0.10512581090E+03  0.66361469959E+01 -0.18686352779E+02  0.10697969127E+03  0.51100000000E-03 0. -1.
         22    1    1    2    0    0  0.32857587257E+00  0.29466372146E+02  0.40122463279E+02  0.49781393202E+02  0.00000000000E+00 0.  1.
          2    1    1    2  501    0  0.10479723503E+03 -0.36102519141E+02  0.90787885119E+03  0.91462006364E+03  0.25500000000E-02 0. -1.
<mgrwt>
<rscale>  0 0.57031914E+02</rscale>
<asrwt>0</asrwt>
<pdfrwt beam="1">  1       11 0.10000000E+01 0.11037798E+03</pdfrwt>
<pdfrwt beam="2">  1        2 0.10931971E-01 0.57031914E+02</pdfrwt>
<totfact> 0.64735104E+02</totfact>
</mgrwt>
</event>
<event>
 5    1  0.6729100E-004  0.2204332E+03  0.7818608E-02  0.1137241E+00
         11   -1    0    0    0    0  0.00000000000E+00  0.00000000000E+00  0.10002707677E+04  0.10002707677E+04  0.51100000000E-03 0. -1.
          2   -1    0    0  501    0 -0.00000000000E+00 -0.00000000000E+00 -0.85883153981E+02  0.85883154018E+02  0.25500000000E-02 0. -1.
         11    1    1    2    0    0  0.18348799106E+03 -0.55009293353E+02  0.77367121517E+03  0.79703263070E+03  0.51100000000E-03 0. -1.
         22    1    1    2    0    0  0.24068230899E+02 -0.31684700427E+01  0.49357679241E+02  0.55004540186E+02  0.00000000000E+00 0.  1.
          2    1    1    2  501    0 -0.20755622195E+03  0.58177763396E+02  0.91358719327E+02  0.23411675085E+03  0.25500000000E-02 0. -1.
<mgrwt>
<rscale>  0 0.21555565E+03</rscale>
<asrwt>0</asrwt>
<pdfrwt beam="1">  1       11 0.10000000E+01 0.22043316E+03</pdfrwt>
<pdfrwt beam="2">  1        2 0.13216370E-01 0.21555565E+03</pdfrwt>
<totfact> 0.55427100E+02</totfact>
</mgrwt>
</event>
<event>
 5    1  0.6729100E-004  0.5143745E+02  0.7818608E-02  0.1471945E+00
         11   -1    0    0    0    0  0.00000000000E+00  0.00000000000E+00  0.10004834227E+04  0.10004834227E+04  0.51100000000E-03 0. -1.
          2   -1    0    0  501    0 -0.00000000000E+00 -0.00000000000E+00 -0.13978573285E+02  0.13978573517E+02  0.25500000000E-02 0. -1.
         11    1    1    2    0    0  0.78988759097E+01  0.54285461980E+02  0.60350783473E+02  0.81556855562E+02  0.51100000000E-03 0. -1.
         22    1    1    2    0    0  0.33387857597E+02 -0.22113218955E+02  0.15893285304E+03  0.16390056517E+03  0.00000000000E+00 0.  1.
          2    1    1    2  501    0 -0.41286733507E+02 -0.32172243025E+02  0.76722121293E+03  0.76900457552E+03  0.25500000000E-02 0. -1.
<mgrwt>
<rscale>  0 0.45386150E+02</rscale>
<asrwt>0</asrwt>
<pdfrwt beam="1">  1       11 0.10000000E+01 0.51437453E+02</pdfrwt>
<pdfrwt beam="2">  1        2 0.21515893E-02 0.45386150E+02</pdfrwt>
<totfact> 0.48978714E+03</totfact>
</mgrwt>
</event>
<event>
 5    1  0.6729100E-004  0.6063934E+02  0.7818608E-02  0.1494574E+00
         11   -1    0    0    0    0  0.00000000000E+00  0.00000000000E+00  0.10002997352E+04  0.10002997352E+04  0.51100000000E-03 0. -1.
          2   -1    0    0  501    0 -0.00000000000E+00 -0.00000000000E+00 -0.14732084316E+02  0.14732084537E+02  0.25500000000E-02 0. -1.
         11    1    1    2    0    0 -0.56865599811E+02 -0.51157977372E+02  0.35411835213E+03  0.36228530526E+03  0.51100000000E-03 0. -1.
         22    1    1    2    0    0  0.28899078937E+02  0.20598864290E+01  0.13058025584E+02  0.31779111499E+02  0.00000000000E+00 0. -1.
          2    1    1    2  501    0  0.27966520874E+02  0.49098090943E+02  0.61839127313E+03  0.62096740294E+03  0.25500000000E-02 0. -1.
<mgrwt>
<rscale>  0 0.41914989E+02</rscale>
<asrwt>0</asrwt>
<pdfrwt beam="1">  1       11 0.10000000E+01 0.60639341E+02</pdfrwt>
<pdfrwt beam="2">  1        2 0.22671538E-02 0.41914989E+02</pdfrwt>
<totfact> 0.45188240E+03</totfact>
</mgrwt>
</event>
<event>
 5    1  0.6729100E-004  0.2723623E+03  0.7818608E-02  0.1099935E+00
         11   -1    0    0    0    0  0.00000000000E+00  0.00000000000E+00  0.10003417294E+04  0.10003417294E+04  0.51100000000E-03 0. -1.
          2   -1    0    0  501    0 -0.00000000000E+00 -0.00000000000E+00 -0.67914456869E+03  0.67914456870E+03  0.25500000000E-02 0. -1.
         11    1    1    2    0    0 -0.33465005946E+03 -0.28416397113E+03 -0.85323066669E+02  0.44723578847E+03  0.51100000000E-03 0. -1.
         22    1    1    2    0    0  0.12066546068E+03  0.17415521429E+03  0.76873868686E+03  0.79740163076E+03  0.00000000000E+00 0. -1.
          2    1    1    2  501    0  0.21398459877E+03  0.11000875684E+03 -0.36221845946E+03  0.43484887889E+03  0.25500000000E-02 0. -1.
<mgrwt>
<rscale>  0 0.27236230E+03</rscale>
<asrwt>0</asrwt>
<pdfrwt beam="1">  1       11 0.10000000E+01 0.21187306E+03</pdfrwt>
<pdfrwt beam="2">  1        2 0.10451948E+00 0.27236230E+03</pdfrwt>
<totfact> 0.54286787E+01</totfact>
</mgrwt>
</event>
<event>
 5    1  0.6729100E-004  0.3101761E+03  0.7818608E-02  0.1084895E+00
         11   -1    0    0    0    0  0.00000000000E+00  0.00000000000E+00  0.10001797325E+04  0.10001797325E+04  0.51100000000E-03 0. -1.
          2   -1    0    0  501    0 -0.00000000000E+00 -0.00000000000E+00 -0.74206883377E+03  0.74206883378E+03  0.25500000000E-02 0. -1.
         11    1    1    2    0    0 -0.27101500242E+03 -0.22338930553E+02  0.76569320202E+03  0.81254799180E+03  0.51100000000E-03 0. -1.
         22    1    1    2    0    0 -0.27168690588E+02 -0.16414762615E+02  0.17814106347E+03  0.18094701068E+03  0.00000000000E+00 0.  1.
          2    1    1    2  501    0  0.29818369301E+03  0.38753693168E+02 -0.68572336678E+03  0.74875356378E+03  0.25500000000E-02 0. -1.
<mgrwt>
<rscale>  0 0.30069148E+03</rscale>
<asrwt>0</asrwt>
<pdfrwt beam="1">  1       11 0.10000000E+01 0.31017608E+03</pdfrwt>
<pdfrwt beam="2">  1        2 0.11418495E+00 0.30069148E+03</pdfrwt>
<totfact> 0.48552247E+01</totfact>
</mgrwt>
</event>
<event>
 5    1  0.6729100E-004  0.2018415E+03  0.7818608E-02  0.1148195E+00
         11   -1    0    0    0    0  0.00000000000E+00  0.00000000000E+00  0.10001209633E+04  0.10001209633E+04  0.51100000000E-03 0.  1.
          2   -1    0    0  501    0 -0.00000000000E+00 -0.00000000000E+00 -0.14282627287E+03  0.14282627289E+03  0.25500000000E-02 0.  1.
         11    1    1    2    0    0 -0.14480376017E+03 -0.19681047282E+03  0.48344106621E+03  0.54168049223E+03  0.51100000000E-03 0.  1.
         22    1    1    2    0    0 -0.22389367243E+01  0.67987839947E+02  0.39846732977E+03  0.40423207704E+03  0.00000000000E+00 0.  1.
          2    1    1    2  501    0  0.14704269689E+03  0.12882263287E+03 -0.24613705563E+02  0.19703466689E+03  0.25500000000E-02 0.  1.
<mgrwt>
<rscale>  0 0.20184150E+03</rscale>
<asrwt>0</asrwt>
<pdfrwt beam="1">  1       11 0.10000000E+01 0.68024696E+02</pdfrwt>
<pdfrwt beam="2">  1        2 0.21975930E-01 0.20184150E+03</pdfrwt>
<totfact> 0.30555038E+02</totfact>
</mgrwt>
</event>
<event>
 5    1  0.6729100E-004  0.2158842E+03  0.7818608E-02  0.1136989E+00
         11   -1    0    0    0    0  0.00000000000E+00  0.00000000000E+00  0.10002932548E+04  0.10002932548E+04  0.51100000000E-03 0.  1.
          2   -1    0    0  501    0 -0.00000000000E+00 -0.00000000000E+00 -0.12259644105E+03  0.12259644108E+03  0.25500000000E-02 0.  1.
         11    1    1    2    0    0  0.70175126901E+02 -0.15947968858E+03  0.35829892632E+03  0.39841741943E+03  0.51100000000E-03 0.  1.
         22    1    1    2    0    0  0.10532563485E+03  0.11407615109E+01  0.47172362491E+03  0.48334042764E+03  0.00000000000E+00 0.  1.
          2    1    1    2  501    0 -0.17550076175E+03  0.15833892707E+03  0.47674262518E+02  0.24113184881E+03  0.25500000000E-02 0.  1.
<mgrwt>
<rscale>  0 0.21588417E+03</rscale>
<asrwt>0</asrwt>
<pdfrwt beam="1">  1       11 0.10000000E+01 0.10533181E+03</pdfrwt>
<pdfrwt beam="2">  1        2 0.18866521E-01 0.21588417E+03</pdfrwt>
<totfact> 0.36438504E+02</totfact>
</mgrwt>
</event>
<event>
 5    1  0.6729100E-004  0.1185853E+03  0.7818608E-02  0.1248194E+00
         11   -1    0    0    0    0  0.00000000000E+00  0.00000000000E+00  0.10002077183E+04  0.10002077183E+04  0.51100000000E-03 0. -1.
          2   -1    0    0  501    0 -0.00000000000E+00 -0.00000000000E+00 -0.56186693654E+02  0.56186693712E+02  0.25500000000E-02 0. -1.
         11    1    1    2    0    0  0.12048647044E+03 -0.10883011101E+02  0.47017541836E+03  0.48548980784E+03  0.51100000000E-03 0. -1.
         22    1    1    2    0    0 -0.43169278135E+02  0.11044857238E+03  0.41532515655E+03  0.43192297852E+03  0.00000000000E+00 0. -1.
          2    1    1    2  501    0 -0.77317192302E+02 -0.99565561281E+02  0.58520449713E+02  0.13898162562E+03  0.25500000000E-02 0. -1.
<mgrwt>
<rscale>  0 0.11696236E+03</rscale>
<asrwt>0</asrwt>
<pdfrwt beam="1">  1       11 0.10000000E+01 0.11858530E+03</pdfrwt>
<pdfrwt beam="2">  1        2 0.86459020E-02 0.11696236E+03</pdfrwt>
<totfact> 0.90206278E+02</totfact>
</mgrwt>
</event>
<event>
 5    1  0.6729100E-004  0.1450265E+03  0.7818608E-02  0.1206721E+00
         11   -1    0    0    0    0  0.00000000000E+00  0.00000000000E+00  0.10000132963E+04  0.10000132963E+04  0.51100000000E-03 0.  1.
          2   -1    0    0  501    0 -0.00000000000E+00 -0.00000000000E+00 -0.21125216007E+02  0.21125216161E+02  0.25500000000E-02 0.  1.
         11    1    1    2    0    0 -0.10154894529E+02  0.14152045278E+03  0.40214226113E+03  0.42643822369E+03  0.51100000000E-03 0.  1.
         22    1    1    2    0    0  0.15591040953E+02 -0.36581045911E+02  0.17193747456E+03  0.17647591518E+03  0.00000000000E+00 0.  1.
          2    1    1    2  501    0 -0.54361464241E+01 -0.10493940687E+03  0.40480834457E+03  0.41822437356E+03  0.25500000000E-02 0.  1.
<mgrwt>
<rscale>  0 0.14502653E+03</rscale>
<asrwt>0</asrwt>
<pdfrwt beam="1">  1       11 0.10000000E+01 0.14188439E+03</pdfrwt>
<pdfrwt beam="2">  1        2 0.32500764E-02 0.14502653E+03</pdfrwt>
<totfact> 0.32614400E+03</totfact>
</mgrwt>
</event>
<event>
 5    1  0.6729100E-004  0.3330673E+03  0.7818608E-02  0.1138240E+00
         11   -1    0    0    0    0  0.00000000000E+00  0.00000000000E+00  0.10008449092E+04  0.10008449092E+04  0.51100000000E-03 0.  1.
          2   -1    0    0  501    0 -0.00000000000E+00 -0.00000000000E+00 -0.13207871343E+04  0.13207871343E+04  0.25500000000E-02 0.  1.
         11    1    1    2    0    0 -0.10264963226E+03 -0.32050344189E+03  0.93443126466E+03  0.99318738999E+03  0.51100000000E-03 0.  1.
         22    1    1    2    0    0  0.62282144718E+02  0.12295111138E+03 -0.14179278180E+03  0.19774032039E+03  0.00000000000E+00 0. -1.
          2    1    1    2  501    0  0.40367487539E+02  0.19755233051E+03 -0.11125807079E+04  0.11307043332E+04  0.25500000000E-02 0.  1.
<mgrwt>
<rscale>  0 0.21425541E+03</rscale>
<asrwt>0</asrwt>
<pdfrwt beam="1">  1       11 0.10000000E+01 0.33306734E+03</pdfrwt>
<pdfrwt beam="2">  1        2 0.20336970E+00 0.21425541E+03</pdfrwt>
<totfact> 0.21713143E+01</totfact>
</mgrwt>
</event>
<event>
 5    1  0.6729100E-004  0.6944643E+03  0.7818608E-02  0.9726746E-01
         11   -1    0    0    0    0  0.00000000000E+00  0.00000000000E+00  0.10007534863E+04  0.10007534863E+04  0.51100000000E-03 0. -1.
          2   -1    0    0  501    0 -0.00000000000E+00 -0.00000000000E+00 -0.17122448926E+04  0.17122448926E+04  0.25500000000E-02 0. -1.
         11    1    1    2    0    0  0.75658910023E+03 -0.10060584443E+03  0.68754398001E+03  0.10272610802E+04  0.51100000000E-03 0. -1.
         22    1    1    2    0    0 -0.80231811575E+02 -0.26977688136E+02  0.37686542846E+02  0.92656433977E+02  0.00000000000E+00 0.  1.
          2    1    1    2  501    0 -0.67635728865E+03  0.12758353257E+03 -0.14367219292E+04  0.15930808647E+04  0.25500000000E-02 0. -1.
<mgrwt>
<rscale>  0 0.69446428E+03</rscale>
<asrwt>0</asrwt>
<pdfrwt beam="1">  1       11 0.10000000E+01 0.84645964E+02</pdfrwt>
<pdfrwt beam="2">  1        2 0.26362077E+00 0.69446428E+03</pdfrwt>
<totfact> 0.12208455E+01</totfact>
</mgrwt>
</event>
<event>
 5    1  0.6729100E-004  0.1513722E+03  0.7818608E-02  0.1398119E+00
         11   -1    0    0    0    0  0.00000000000E+00  0.00000000000E+00  0.10002071026E+04  0.10002071026E+04  0.51100000000E-03 0. -1.
          2   -1    0    0  501    0 -0.00000000000E+00 -0.00000000000E+00 -0.39077305282E+02  0.39077305366E+02  0.25500000000E-02 0. -1.
         11    1    1    2    0    0 -0.13161080454E+03  0.68993804039E+02  0.71649664367E+03  0.73174380029E+03  0.51100000000E-03 0. -1.
         22    1    1    2    0    0 -0.18585373975E+01  0.23655339034E+02  0.35764864142E+02  0.42920330068E+02  0.00000000000E+00 0.  1.
          2    1    1    2  501    0  0.13346934194E+03 -0.92649143073E+02  0.20886828946E+03  0.26462027756E+03  0.25500000000E-02 0. -1.
<mgrwt>
<rscale>  0 0.59931595E+02</rscale>
<asrwt>0</asrwt>
<pdfrwt beam="1">  1       11 0.10000000E+01 0.15137223E+03</pdfrwt>
<pdfrwt beam="2">  1        2 0.60131380E-02 0.59931595E+02</pdfrwt>
<totfact> 0.13471112E+03</totfact>
</mgrwt>
</event>
<event>
 5    1  0.6729100E-004  0.2816778E+03  0.7818608E-02  0.1094776E+00
         11   -1    0    0    0    0  0.00000000000E+00  0.00000000000E+00  0.10000135317E+04  0.10000135317E+04  0.51100000000E-03 0. -1.
          2   -1    0    0  501    0 -0.00000000000E+00 -0.00000000000E+00 -0.17118844445E+03  0.17118844447E+03  0.25500000000E-02 0. -1.
         11    1    1    2    0    0  0.93346362006E+02 -0.27973468396E+03  0.78970077658E+03  0.84296640101E+03  0.51100000000E-03 0. -1.
         22    1    1    2    0    0 -0.49208056295E+01  0.14621489368E+02  0.46166329545E+02  0.48675787236E+02  0.00000000000E+00 0.  1.
          2    1    1    2  501    0 -0.88425556376E+02  0.26511319460E+03 -0.70420188956E+01  0.27955978789E+03  0.25500000000E-02 0. -1.
<mgrwt>
<rscale>  0 0.28167780E+03</rscale>
<asrwt>0</asrwt>
<pdfrwt beam="1">  1       11 0.10000000E+01 0.15427322E+02</pdfrwt>
<pdfrwt beam="2">  1        2 0.26337039E-01 0.28167780E+03</pdfrwt>
<totfact> 0.25106507E+02</totfact>
</mgrwt>
</event>
<event>
 5    1  0.6729100E-004  0.1685436E+03  0.7818608E-02  0.1179375E+00
         11   -1    0    0    0    0  0.00000000000E+00  0.00000000000E+00  0.10002446187E+04  0.10002446187E+04  0.51100000000E-03 0.  1.
          2   -1    0    0  501    0 -0.00000000000E+00 -0.00000000000E+00 -0.49779627447E+02  0.49779627512E+02  0.25500000000E-02 0.  1.
         11    1    1    2    0    0  0.15073812761E+03 -0.10839902689E+03  0.65392857392E+03  0.67977563353E+03  0.51100000000E-03 0.  1.
         22    1    1    2    0    0 -0.40469118855E+02 -0.13389584542E+02  0.12788539988E+03  0.13480247052E+03  0.00000000000E+00 0.  1.
          2    1    1    2  501    0 -0.11026900875E+03  0.12178861143E+03  0.16865101744E+03  0.23544614215E+03  0.25500000000E-02 0.  1.
<mgrwt>
<rscale>  0 0.16854359E+03</rscale>
<asrwt>0</asrwt>
<pdfrwt beam="1">  1       11 0.10000000E+01 0.42626641E+02</pdfrwt>
<pdfrwt beam="2">  1        2 0.76602774E-02 0.16854359E+03</pdfrwt>
<totfact> 0.10746027E+03</totfact>
</mgrwt>
</event>
<event>
 5    1  0.6729100E-004  0.1816315E+03  0.7818608E-02  0.1166233E+00
         11   -1    0    0    0    0  0.00000000000E+00  0.00000000000E+00  0.10000983473E+04  0.10000983473E+04  0.51100000000E-03 0. -1.
         -2   -1    0    0    0  501 -0.00000000000E+00 -0.00000000000E+00 -0.12033351595E+03  0.12033351597E+03  0.25500000000E-02 0.  1.
         11    1    1    2    0    0 -0.39804630444E+02  0.18476312644E+03  0.87390400445E+03  0.89410851159E+03  0.51100000000E-03 0. -1.
         22    1    1    2    0    0 -0.82298577187E+01 -0.10222908577E+02  0.40004568412E+02  0.42102302926E+02  0.00000000000E+00 0. -1.
         -2    1    1    2    0  501  0.48034488163E+02 -0.17454021786E+03 -0.34143741533E+02  0.18422104874E+03  0.25500000000E-02 0.  1.
<mgrwt>
<rscale>  0 0.18163153E+03</rscale>
<asrwt>0</asrwt>
<pdfrwt beam="1">  1       11 0.10000000E+01 0.13123963E+02</pdfrwt>
<pdfrwt beam="2">  1       -2 0.18514669E-01 0.18163153E+03</pdfrwt>
<totfact> 0.19024006E+02</totfact>
</mgrwt>
</event>
<event>
 5    1  0.6729100E-004  0.2214392E+03  0.7818608E-02  0.1132815E+00
         11   -1    0    0    0    0  0.00000000000E+00  0.00000000000E+00  0.99991738784E+03  0.99991738784E+03  0.51100000000E-03 0. -1.
         -2   -1    0    0    0  501 -0.00000000000E+00 -0.00000000000E+00 -0.12371566864E+03  0.12371566867E+03  0.25500000000E-02 0.  1.
         11    1    1    2    0    0  0.54876247819E+02  0.13591732042E+03  0.47341498041E+03  0.49558719136E+03  0.51100000000E-03 0. -1.
         22    1    1    2    0    0 -0.18905485118E+03  0.72898823072E+02  0.29395891379E+03  0.35702635499E+03  0.00000000000E+00 0. -1.
         -2    1    1    2    0  501  0.13417860336E+03 -0.20881614350E+03  0.10882782500E+03  0.27101951016E+03  0.25500000000E-02 0.  1.
<mgrwt>
<rscale>  0 0.22143919E+03</rscale>
<asrwt>0</asrwt>
<pdfrwt beam="1">  1       11 0.10000000E+01 0.14657735E+03</pdfrwt>
<pdfrwt beam="2">  1       -2 0.19031607E-01 0.22143919E+03</pdfrwt>
<totfact> 0.18271784E+02</totfact>
</mgrwt>
</event>
<event>
 5    1  0.6729100E-004  0.1155027E+03  0.7818608E-02  0.1325475E+00
         11   -1    0    0    0    0  0.00000000000E+00  0.00000000000E+00  0.99940651396E+03  0.99940651396E+03  0.51100000000E-03 0. -1.
          2   -1    0    0  501    0 -0.00000000000E+00 -0.00000000000E+00 -0.11182038920E+04  0.11182038920E+04  0.25500000000E-02 0. -1.
         11    1    1    2    0    0 -0.73296627319E+02  0.80806556966E+02  0.28394890857E+03  0.30418592654E+03  0.51100000000E-03 0. -1.
         22    1    1    2    0    0  0.76093570088E+01 -0.12866707774E+03  0.69793995459E+03  0.70974171318E+03  0.00000000000E+00 0. -1.
          2    1    1    2  501    0  0.65687270310E+02  0.47860520776E+02 -0.11006862412E+04  0.11036827663E+04  0.25500000000E-02 0. -1.
<mgrwt>
<rscale>  0 0.81273901E+02</rscale>
<asrwt>0</asrwt>
<pdfrwt beam="1">  1       11 0.10000000E+01 0.11550273E+03</pdfrwt>
<pdfrwt beam="2">  1        2 0.17192926E+00 0.81273901E+02</pdfrwt>
<totfact> 0.29894439E+01</totfact>
</mgrwt>
</event>
<event>
 5    1  0.6729100E-004  0.9151236E+02  0.7818608E-02  0.1299230E+00
         11   -1    0    0    0    0  0.00000000000E+00  0.00000000000E+00  0.10004372309E+04  0.10004372309E+04  0.51100000000E-03 0. -1.
          2   -1    0    0  501    0 -0.00000000000E+00 -0.00000000000E+00 -0.12356497459E+03  0.12356497462E+03  0.25500000000E-02 0. -1.
         11    1    1    2    0    0  0.53478342833E+02  0.88431177965E+01  0.30162301605E+03  0.30645485425E+03  0.51100000000E-03 0. -1.
         22    1    1    2    0    0 -0.13662387907E+03 -0.43700766828E+02  0.67092406101E+03  0.68608668330E+03  0.00000000000E+00 0. -1.
          2    1    1    2  501    0  0.83145536237E+02  0.34857649032E+02 -0.95674820745E+02  0.13146066797E+03  0.25500000000E-02 0. -1.
<mgrwt>
<rscale>  0 0.91512357E+02</rscale>
<asrwt>0</asrwt>
<pdfrwt beam="1">  1       11 0.10000000E+01 0.54204556E+02</pdfrwt>
<pdfrwt beam="2">  1        2 0.19018307E-01 0.91512357E+02</pdfrwt>
<totfact> 0.35060520E+02</totfact>
</mgrwt>
</event>
<event>
 5    1  0.6729100E-004  0.7064743E+03  0.7818608E-02  0.9706224E-01
         11   -1    0    0    0    0  0.00000000000E+00  0.00000000000E+00  0.10006148172E+04  0.10006148172E+04  0.51100000000E-03 0. -1.
          2   -1    0    0  501    0 -0.00000000000E+00 -0.00000000000E+00 -0.54957760284E+03  0.54957760285E+03  0.25500000000E-02 0. -1.
         11    1    1    2    0    0  0.59840720525E+03  0.35909610878E+03 -0.24951091472E+02  0.69832926016E+03  0.51100000000E-03 0. -1.
         22    1    1    2    0    0 -0.16984207137E+02 -0.39504297395E+02  0.28261720385E+02  0.51456560746E+02  0.00000000000E+00 0. -1.
          2    1    1    2  501    0 -0.58142299811E+03 -0.31959181139E+03  0.44772658546E+03  0.80040659915E+03  0.25500000000E-02 0. -1.
<mgrwt>
<rscale>  0 0.70647433E+03</rscale>
<asrwt>0</asrwt>
<pdfrwt beam="1">  1       11 0.10000000E+01 0.69788372E+03</pdfrwt>
<pdfrwt beam="2">  1        2 0.84602381E-01 0.70647433E+03</pdfrwt>
<totfact> 0.68265941E+01</totfact>
</mgrwt>
</event>
<event>
 5    1  0.6729100E-004  0.1063815E+03  0.7818608E-02  0.1267421E+00
         11   -1    0    0    0    0  0.00000000000E+00  0.00000000000E+00  0.10002007613E+04  0.10002007613E+04  0.51100000000E-03 0.  1.
          2   -1    0    0  501    0 -0.00000000000E+00 -0.00000000000E+00 -0.90115421958E+03  0.90115421959E+03  0.25500000000E-02 0.  1.
         11    1    1    2    0    0 -0.15209167725E+03 -0.95010013757E+02  0.63078302998E+03  0.65577893525E+03  0.51100000000E-03 0.  1.
         22    1    1    2    0    0  0.89168679968E+02  0.96043764114E+01  0.34804896856E+03  0.35941811592E+03  0.00000000000E+00 0.  1.
          2    1    1    2  501    0  0.62922997278E+02  0.85405637346E+02 -0.87978545679E+03  0.88615792975E+03  0.25500000000E-02 0.  1.
<mgrwt>
<rscale>  0 0.10638146E+03</rscale>
<asrwt>0</asrwt>
<pdfrwt beam="1">  1       11 0.10000000E+01 0.89684433E+02</pdfrwt>
<pdfrwt beam="2">  1        2 0.13866694E+00 0.10638146E+03</pdfrwt>
<totfact> 0.39465068E+01</totfact>
</mgrwt>
</event>
<event>
 5    1  0.6729100E-004  0.1291974E+03  0.7818608E-02  0.1228652E+00
         11   -1    0    0    0    0  0.00000000000E+00  0.00000000000E+00  0.10006313831E+04  0.10006313831E+04  0.51100000000E-03 0. -1.
          2   -1    0    0  501    0 -0.00000000000E+00 -0.00000000000E+00 -0.31150357067E+02  0.31150357172E+02  0.25500000000E-02 0. -1.
         11    1    1    2    0    0 -0.56799588516E+01 -0.72356244196E+02  0.25596380509E+03  0.26605480173E+03  0.51100000000E-03 0. -1.
         22    1    1    2    0    0  0.12709734681E+03  0.83860891495E+02  0.45682160721E+03  0.48153127157E+03  0.00000000000E+00 0. -1.
          2    1    1    2  501    0 -0.12141738796E+03 -0.11504647299E+02  0.25669561371E+03  0.28419566695E+03  0.25500000000E-02 0. -1.
<mgrwt>
<rscale>  0 0.12919737E+03</rscale>
<asrwt>0</asrwt>
<pdfrwt beam="1">  1       11 0.10000000E+01 0.72578840E+02</pdfrwt>
<pdfrwt beam="2">  1        2 0.47953883E-02 0.12919737E+03</pdfrwt>
<totfact> 0.19274576E+03</totfact>
</mgrwt>
</event>
<event>
 5    1  0.6729100E-004  0.1521337E+03  0.7818608E-02  0.1592114E+00
         11   -1    0    0    0    0  0.00000000000E+00  0.00000000000E+00  0.10000903589E+04  0.10000903589E+04  0.51100000000E-03 0.  1.
         -2   -1    0    0    0  501 -0.00000000000E+00 -0.00000000000E+00 -0.14964698340E+03  0.14964698343E+03  0.25500000000E-02 0.  1.
         11    1    1    2    0    0  0.11279932660E+03 -0.14018285233E+03  0.50836862073E+02  0.18697408033E+03  0.51100000000E-03 0.  1.
         22    1    1    2    0    0 -0.95902834602E+02  0.11473367778E+03  0.87171667178E+03  0.88444961776E+03  0.00000000000E+00 0.  1.
         -2    1    1    2    0  501 -0.16896491994E+02  0.25449174557E+02 -0.72110158363E+02  0.78313644232E+02  0.25500000000E-02 0.  1.
<mgrwt>
<rscale>  0 0.30547536E+02</rscale>
<asrwt>0</asrwt>
<pdfrwt beam="1">  1       11 0.10000000E+01 0.15213371E+03</pdfrwt>
<pdfrwt beam="2">  1       -2 0.23024692E-01 0.30547536E+02</pdfrwt>
<totfact> 0.12256791E+02</totfact>
</mgrwt>
</event>
<event>
 5    1  0.6729100E-004  0.1464580E+03  0.7818608E-02  0.1204894E+00
         11   -1    0    0    0    0  0.00000000000E+00  0.00000000000E+00  0.10002481640E+04  0.10002481640E+04  0.51100000000E-03 0. -1.
          2   -1    0    0  501    0 -0.00000000000E+00 -0.00000000000E+00 -0.83773526690E+02  0.83773526729E+02  0.25500000000E-02 0. -1.
         11    1    1    2    0    0 -0.34636462867E+02  0.14480211956E+03  0.56964259063E+03  0.58877841286E+03  0.51100000000E-03 0. -1.
         22    1    1    2    0    0 -0.69878117011E+02 -0.38966322563E+02  0.33678840808E+03  0.34616146139E+03  0.00000000000E+00 0. -1.
          2    1    1    2  501    0  0.10451457988E+03 -0.10583579700E+03  0.10043638634E+02  0.14908181652E+03  0.25500000000E-02 0. -1.
<mgrwt>
<rscale>  0 0.14645799E+03</rscale>
<asrwt>0</asrwt>
<pdfrwt beam="1">  1       11 0.10000000E+01 0.80008284E+02</pdfrwt>
<pdfrwt beam="2">  1        2 0.12891433E-01 0.14645799E+03</pdfrwt>
<totfact> 0.56147032E+02</totfact>
</mgrwt>
</event>
<event>
 5    1  0.6729100E-004  0.2479447E+03  0.7818608E-02  0.1118818E+00
         11   -1    0    0    0    0  0.00000000000E+00  0.00000000000E+00  0.10001916659E+04  0.10001916659E+04  0.51100000000E-03 0. -1.
         -2   -1    0    0    0  501 -0.00000000000E+00 -0.00000000000E+00 -0.22892612147E+03  0.22892612149E+03  0.25500000000E-02 0.  1.
         11    1    1    2    0    0 -0.21224089419E+03 -0.49527505658E+02  0.78481118273E+03  0.81451075101E+03  0.51100000000E-03 0. -1.
         22    1    1    2    0    0 -0.26454713902E+02  0.13033155498E+02  0.13026217624E+03  0.13355878701E+03  0.00000000000E+00 0.  1.
         -2    1    1    2    0  501  0.23869560809E+03  0.36494350160E+02 -0.14380781457E+03  0.28104824933E+03  0.25500000000E-02 0.  1.
<mgrwt>
<rscale>  0 0.24146932E+03</rscale>
<asrwt>0</asrwt>
<pdfrwt beam="1">  1       11 0.10000000E+01 0.24794475E+03</pdfrwt>
<pdfrwt beam="2">  1       -2 0.35226153E-01 0.24146932E+03</pdfrwt>
<totfact> 0.61220013E+01</totfact>
</mgrwt>
</event>
<event>
 5    1  0.6729100E-004  0.8906148E+02  0.7818608E-02  0.1504076E+00
         11   -1    0    0    0    0  0.00000000000E+00  0.00000000000E+00  0.10003237939E+04  0.10003237939E+04  0.51100000000E-03 0. -1.
          2   -1    0    0  501    0 -0.00000000000E+00 -0.00000000000E+00 -0.10016462858E+02  0.10016463182E+02  0.25500000000E-02 0. -1.
         11    1    1    2    0    0 -0.79529466245E+02  0.39552417866E+02  0.36715153922E+03  0.37774274647E+03  0.51100000000E-03 0. -1.
         22    1    1    2    0    0  0.88621713166E+01  0.16214757206E+02  0.87489902595E+02  0.89420017265E+02  0.00000000000E+00 0. -1.
          2    1    1    2  501    0  0.70667294929E+02 -0.55767175072E+02  0.53566588923E+03  0.54317749335E+03  0.25500000000E-02 0. -1.
<mgrwt>
<rscale>  0 0.40567540E+02</rscale>
<asrwt>0</asrwt>
<pdfrwt beam="1">  1       11 0.10000000E+01 0.89061482E+02</pdfrwt>
<pdfrwt beam="2">  1        2 0.15414932E-02 0.40567540E+02</pdfrwt>
<totfact> 0.74639255E+03</totfact>
</mgrwt>
</event>
<event>
 5    1  0.6729100E-004  0.1365009E+03  0.7818608E-02  0.1218116E+00
         11   -1    0    0    0    0  0.00000000000E+00  0.00000000000E+00  0.10004339583E+04  0.10004339583E+04  0.51100000000E-03 0. -1.
         -2   -1    0    0    0  501 -0.00000000000E+00 -0.00000000000E+00 -0.19976780115E+03  0.19976780116E+03  0.25500000000E-02 0.  1.
         11    1    1    2    0    0  0.87774076913E+02  0.78554205862E+02  0.68795953747E+03  0.69797089984E+03  0.51100000000E-03 0. -1.
         22    1    1    2    0    0  0.43897900485E+02 -0.38776395536E+02  0.27976607951E+03  0.28583158287E+03  0.00000000000E+00 0.  1.
         -2    1    1    2    0  501 -0.13167197740E+03 -0.39777810326E+02 -0.16705945986E+03  0.21639927671E+03  0.25500000000E-02 0.  1.
<mgrwt>
<rscale>  0 0.13650085E+03</rscale>
<asrwt>0</asrwt>
<pdfrwt beam="1">  1       11 0.10000000E+01 0.58571619E+02</pdfrwt>
<pdfrwt beam="2">  1       -2 0.30746844E-01 0.13650085E+03</pdfrwt>
<totfact> 0.78058573E+01</totfact>
</mgrwt>
</event>
<event>
 5    1  0.6729100E-004  0.1905322E+03  0.7818608E-02  0.1157982E+00
         11   -1    0    0    0    0  0.00000000000E+00  0.00000000000E+00  0.99984729378E+03  0.99984729378E+03  0.51100000000E-03 0.  1.
          2   -1    0    0  501    0 -0.00000000000E+00 -0.00000000000E+00 -0.71865704371E+02  0.71865704417E+02  0.25500000000E-02 0.  1.
         11    1    1    2    0    0  0.18455565641E+03  0.29435516627E+02  0.72524631398E+03  0.74893888662E+03  0.51100000000E-03 0.  1.
         22    1    1    2    0    0  0.66604248998E+01 -0.19360107149E+02  0.10653697779E+03  0.10848641687E+03  0.00000000000E+00 0. -1.
          2    1    1    2  501    0 -0.19121608131E+03 -0.10075409478E+02  0.96198297639E+02  0.21428769471E+03  0.25500000000E-02 0.  1.
<mgrwt>
<rscale>  0 0.19053221E+03</rscale>
<asrwt>0</asrwt>
<pdfrwt beam="1">  1       11 0.10000000E+01 0.20473764E+02</pdfrwt>
<pdfrwt beam="2">  1        2 0.11054574E-01 0.19053221E+03</pdfrwt>
<totfact> 0.68477667E+02</totfact>
</mgrwt>
</event>
<event>
 5    1  0.6729100E-004  0.1449072E+03  0.7818608E-02  0.1206874E+00
         11   -1    0    0    0    0  0.00000000000E+00  0.00000000000E+00  0.10002140284E+04  0.10002140284E+04  0.51100000000E-03 0. -1.
         -2   -1    0    0    0  501 -0.00000000000E+00 -0.00000000000E+00 -0.21824348839E+02  0.21824348988E+02  0.25500000000E-02 0.  1.
         11    1    1    2    0    0 -0.10759701429E+03  0.94811778182E+02  0.59870937390E+03  0.61564543787E+03  0.51100000000E-03 0. -1.
         22    1    1    2    0    0  0.88442995378E+01 -0.72958790585E+01  0.49768447069E+02  0.51072006120E+02  0.00000000000E+00 0. -1.
         -2    1    1    2    0  501  0.98752714754E+02 -0.87515899123E+02  0.32991185863E+03  0.35532093344E+03  0.25500000000E-02 0.  1.
<mgrwt>
<rscale>  0 0.14490717E+03</rscale>
<asrwt>0</asrwt>
<pdfrwt beam="1">  1       11 0.10000000E+01 0.14340987E+03</pdfrwt>
<pdfrwt beam="2">  1       -2 0.33583107E-02 0.14490717E+03</pdfrwt>
<totfact> 0.26885200E+03</totfact>
</mgrwt>
</event>
<event>
 5    1  0.6729100E-004  0.5708767E+03  0.7818608E-02  0.9977030E-01
         11   -1    0    0    0    0  0.00000000000E+00  0.00000000000E+00  0.10002056117E+04  0.10002056117E+04  0.51100000000E-03 0.  1.
          2   -1    0    0  501    0 -0.00000000000E+00 -0.00000000000E+00 -0.46219325417E+03  0.46219325417E+03  0.25500000000E-02 0.  1.
         11    1    1    2    0    0 -0.53471160878E+03  0.14512822982E+03  0.65170848304E+03  0.85539619739E+03  0.51100000000E-03 0.  1.
         22    1    1    2    0    0 -0.15020383258E+02 -0.75326351342E+01  0.18608881629E+02  0.25072753753E+02  0.00000000000E+00 0.  1.
          2    1    1    2  501    0  0.54973199203E+03 -0.13759559469E+03 -0.13230500713E+03  0.58192991473E+03  0.25500000000E-02 0.  1.
<mgrwt>
<rscale>  0 0.56669022E+03</rscale>
<asrwt>0</asrwt>
<pdfrwt beam="1">  1       11 0.10000000E+01 0.57087670E+03</pdfrwt>
<pdfrwt beam="2">  1        2 0.71121273E-01 0.56669022E+03</pdfrwt>
<totfact> 0.83785313E+01</totfact>
</mgrwt>
</event>
<event>
 5    1  0.6729100E-004  0.6263147E+03  0.7818608E-02  0.9852267E-01
         11   -1    0    0    0    0  0.00000000000E+00  0.00000000000E+00  0.10005577692E+04  0.10005577692E+04  0.51100000000E-03 0.  1.
          2   -1    0    0  501    0 -0.00000000000E+00 -0.00000000000E+00 -0.48216293614E+03  0.48216293615E+03  0.25500000000E-02 0.  1.
         11    1    1    2    0    0 -0.60371937749E+03 -0.11998966779E+03  0.51647302961E+03  0.80350419877E+03  0.51100000000E-03 0.  1.
         22    1    1    2    0    0 -0.16006645618E+02  0.47957087140E+00  0.43848554964E+02  0.46681243178E+02  0.00000000000E+00 0. -1.
          2    1    1    2  501    0  0.61972602311E+03  0.11951009692E+03 -0.41926751495E+02  0.63253526343E+03  0.25500000000E-02 0.  1.
<mgrwt>
<rscale>  0 0.62631468E+03</rscale>
<asrwt>0</asrwt>
<pdfrwt beam="1">  1       11 0.10000000E+01 0.16013828E+02</pdfrwt>
<pdfrwt beam="2">  1        2 0.74220286E-01 0.62631468E+03</pdfrwt>
<totfact> 0.79678251E+01</totfact>
</mgrwt>
</event>
<event>
 5    1  0.6729100E-004  0.7576935E+02  0.7818608E-02  0.1341505E+00
         11   -1    0    0    0    0  0.00000000000E+00  0.00000000000E+00  0.10005434515E+04  0.10005434515E+04  0.51100000000E-03 0. -1.
          2   -1    0    0  501    0 -0.00000000000E+00 -0.00000000000E+00 -0.14675123648E+02  0.14675123869E+02  0.25500000000E-02 0. -1.
         11    1    1    2    0    0  0.30454937810E+02 -0.60263842481E+02  0.20564402562E+03  0.21644560338E+03  0.51100000000E-03 0. -1.
         22    1    1    2    0    0 -0.57033811883E+02 -0.38221807043E+02  0.28521263129E+03  0.29335985969E+03  0.00000000000E+00 0.  1.
          2    1    1    2  501    0  0.26578874073E+02  0.98485649524E+02  0.49501167094E+03  0.50541311230E+03  0.25500000000E-02 0. -1.
<mgrwt>
<rscale>  0 0.75769353E+02</rscale>
<asrwt>0</asrwt>
<pdfrwt beam="1">  1       11 0.10000000E+01 0.67522133E+02</pdfrwt>
<pdfrwt beam="2">  1        2 0.22589382E-02 0.75769353E+02</pdfrwt>
<totfact> 0.49338114E+03</totfact>
</mgrwt>
</event>
<event>
 5    1  0.6729100E-004  0.9495731E+02  0.7818608E-02  0.1291272E+00
         11   -1    0    0    0    0  0.00000000000E+00  0.00000000000E+00  0.10002532471E+04  0.10002532471E+04  0.51100000000E-03 0.  1.
          2   -1    0    0  501    0 -0.00000000000E+00 -0.00000000000E+00 -0.39480182612E+02  0.39480182694E+02  0.25500000000E-02 0.  1.
         11    1    1    2    0    0  0.19605907595E+02 -0.13699042152E+03  0.74718862369E+03  0.75989578665E+03  0.51100000000E-03 0.  1.
         22    1    1    2    0    0 -0.41852476720E+02  0.48309448766E+02  0.16358827760E+03  0.17563187984E+03  0.00000000000E+00 0.  1.
          2    1    1    2  501    0  0.22246569125E+02  0.88680972749E+02  0.49996163207E+02  0.10420576331E+03  0.25500000000E-02 0.  1.
<mgrwt>
<rscale>  0 0.94957307E+02</rscale>
<asrwt>0</asrwt>
<pdfrwt beam="1">  1       11 0.10000000E+01 0.63917389E+02</pdfrwt>
<pdfrwt beam="2">  1        2 0.60754123E-02 0.94957307E+02</pdfrwt>
<totfact> 0.13843503E+03</totfact>
</mgrwt>
</event>
<event>
 5    1  0.6729100E-004  0.4057421E+03  0.7818608E-02  0.1044258E+00
         11   -1    0    0    0    0  0.00000000000E+00  0.00000000000E+00  0.10005278567E+04  0.10005278567E+04  0.51100000000E-03 0. -1.
          2   -1    0    0  501    0 -0.00000000000E+00 -0.00000000000E+00 -0.14168833980E+04  0.14168833980E+04  0.25500000000E-02 0. -1.
         11    1    1    2    0    0 -0.13684080173E+03  0.35642832944E+03  0.83542045662E+03  0.91852811518E+03  0.51100000000E-03 0. -1.
         22    1    1    2    0    0 -0.10439144897E+02  0.13988636235E+02  0.93847982538E+02  0.95457328249E+02  0.00000000000E+00 0.  1.
          2    1    1    2  501    0  0.14727994663E+03 -0.37041696568E+03 -0.13456239804E+04  0.14034258113E+04  0.25500000000E-02 0. -1.
<mgrwt>
<rscale>  0 0.39862277E+03</rscale>
<asrwt>0</asrwt>
<pdfrwt beam="1">  1       11 0.10000000E+01 0.40574209E+03</pdfrwt>
<pdfrwt beam="2">  1        2 0.21809712E+00 0.39862277E+03</pdfrwt>
<totfact> 0.18453955E+01</totfact>
</mgrwt>
</event>
<event>
 5    1  0.6729100E-004  0.1846987E+03  0.7818608E-02  0.1400141E+00
         11   -1    0    0    0    0  0.00000000000E+00  0.00000000000E+00  0.10002235891E+04  0.10002235891E+04  0.51100000000E-03 0. -1.
          2   -1    0    0  501    0 -0.00000000000E+00 -0.00000000000E+00 -0.16959634344E+03  0.16959634346E+03  0.25500000000E-02 0.  1.
         11    1    1    2    0    0  0.10981055047E+03  0.17561709695E+03  0.41894900471E+03  0.46735210526E+03  0.51100000000E-03 0. -1.
         22    1    1    2    0    0 -0.51033058833E+02 -0.16667925370E+03  0.53655480438E+03  0.56416079694E+03  0.00000000000E+00 0. -1.
          2    1    1    2  501    0 -0.58777491636E+02 -0.89378432544E+01 -0.12487656339E+03  0.13830703039E+03  0.25500000000E-02 0.  1.
<mgrwt>
<rscale>  0 0.59453163E+02</rscale>
<asrwt>0</asrwt>
<pdfrwt beam="1">  1       11 0.10000000E+01 0.18469869E+03</pdfrwt>
<pdfrwt beam="2">  1        2 0.26097578E-01 0.59453163E+02</pdfrwt>
<totfact> 0.24405856E+02</totfact>
</mgrwt>
</event>
<event>
 5    1  0.6729100E-004  0.1782025E+03  0.7818608E-02  0.1169554E+00
         11   -1    0    0    0    0  0.00000000000E+00  0.00000000000E+00  0.10001188765E+04  0.10001188765E+04  0.51100000000E-03 0. -1.
          2   -1    0    0  501    0 -0.00000000000E+00 -0.00000000000E+00 -0.49016240252E+02  0.49016240318E+02  0.25500000000E-02 0. -1.
         11    1    1    2    0    0 -0.16070701679E+03  0.37527921359E+02  0.59225595871E+03  0.61481884385E+03  0.51100000000E-03 0. -1.
         22    1    1    2    0    0 -0.99673368537E+01  0.30824095187E+02  0.16102414036E+03  0.16425055990E+03  0.00000000000E+00 0. -1.
          2    1    1    2  501    0  0.17067435364E+03 -0.68352016546E+02  0.19782253720E+03  0.27006571309E+03  0.25500000000E-02 0. -1.
<mgrwt>
<rscale>  0 0.17820247E+03</rscale>
<asrwt>0</asrwt>
<pdfrwt beam="1">  1       11 0.10000000E+01 0.32395565E+02</pdfrwt>
<pdfrwt beam="2">  1        2 0.75418563E-02 0.17820247E+03</pdfrwt>
<totfact> 0.10998944E+03</totfact>
</mgrwt>
</event>
<event>
 5    1  0.6729100E-004  0.1211491E+03  0.7818608E-02  0.1243725E+00
         11   -1    0    0    0    0  0.00000000000E+00  0.00000000000E+00  0.10000940023E+04  0.10000940023E+04  0.51100000000E-03 0.  1.
         -2   -1    0    0    0  501 -0.00000000000E+00 -0.00000000000E+00 -0.14493921368E+02  0.14493921592E+02  0.25500000000E-02 0.  1.
         11    1    1    2    0    0 -0.96790883941E+02 -0.31181094308E+02  0.41944573047E+03  0.43159640483E+03  0.51100000000E-03 0.  1.
         22    1    1    2    0    0 -0.19303655383E+02  0.23539612363E+01  0.83582211740E+02  0.85814674526E+02  0.00000000000E+00 0.  1.
         -2    1    1    2    0  501  0.11609453932E+03  0.28827133072E+02  0.48257213874E+03  0.49717684455E+03  0.25500000000E-02 0.  1.
<mgrwt>
<rscale>  0 0.11962001E+03</rscale>
<asrwt>0</asrwt>
<pdfrwt beam="1">  1       11 0.10000000E+01 0.12114914E+03</pdfrwt>
<pdfrwt beam="2">  1       -2 0.22300436E-02 0.11962001E+03</pdfrwt>
<totfact> 0.47932705E+03</totfact>
</mgrwt>
</event>
<event>
 5    1  0.6729100E-004  0.1184321E+03  0.7818608E-02  0.1245706E+00
         11   -1    0    0    0    0  0.00000000000E+00  0.00000000000E+00  0.10004280251E+04  0.10004280251E+04  0.51100000000E-03 0. -1.
          2   -1    0    0  501    0 -0.00000000000E+00 -0.00000000000E+00 -0.22003063715E+02  0.22003063863E+02  0.25500000000E-02 0. -1.
         11    1    1    2    0    0  0.11526863334E+03  0.28097589032E+02  0.50515959204E+03  0.51890514140E+03  0.51100000000E-03 0. -1.
         22    1    1    2    0    0 -0.16024075959E+02  0.41718517600E+02  0.19324741912E+03  0.19834760074E+03  0.00000000000E+00 0. -1.
          2    1    1    2  501    0 -0.99244557384E+02 -0.69816106632E+02  0.28001795020E+03  0.30517834680E+03  0.25500000000E-02 0. -1.
<mgrwt>
<rscale>  0 0.11843212E+03</rscale>
<asrwt>0</asrwt>
<pdfrwt beam="1">  1       11 0.10000000E+01 0.44690108E+02</pdfrwt>
<pdfrwt beam="2">  1        2 0.33865355E-02 0.11843212E+03</pdfrwt>
<totfact> 0.30258537E+03</totfact>
</mgrwt>
</event>
<event>
 5    1  0.6729100E-004  0.1844440E+03  0.7818608E-02  0.1163570E+00
         11   -1    0    0    0    0  0.00000000000E+00  0.00000000000E+00  0.10003742884E+04  0.10003742884E+04  0.51100000000E-03 0. -1.
          2   -1    0    0  501    0 -0.00000000000E+00 -0.00000000000E+00 -0.81154861949E+03  0.81154861949E+03  0.25500000000E-02 0. -1.
         11    1    1    2    0    0 -0.15354714113E+03  0.37851190394E+02  0.90411541676E+03  0.91784210188E+03  0.51100000000E-03 0. -1.
         22    1    1    2    0    0 -0.30777859569E+02 -0.24904291642E+02  0.73743861731E+02  0.83699806002E+02  0.00000000000E+00 0. -1.
          2    1    1    2  501    0  0.18432500070E+03 -0.12946898752E+02 -0.78903360960E+03  0.81038099999E+03  0.25500000000E-02 0. -1.
<mgrwt>
<rscale>  0 0.18444404E+03</rscale>
<asrwt>0</asrwt>
<pdfrwt beam="1">  1       11 0.10000000E+01 0.39591671E+02</pdfrwt>
<pdfrwt beam="2">  1        2 0.12490036E+00 0.18444404E+03</pdfrwt>
<totfact> 0.44118641E+01</totfact>
</mgrwt>
</event>
<event>
 5    1  0.6729100E-004  0.4173624E+03  0.7818608E-02  0.1037928E+00
         11   -1    0    0    0    0  0.00000000000E+00  0.00000000000E+00  0.10007992300E+04  0.10007992300E+04  0.51100000000E-03 0. -1.
          2   -1    0    0  501    0 -0.00000000000E+00 -0.00000000000E+00 -0.11098064701E+04  0.11098064701E+04  0.25500000000E-02 0. -1.
         11    1    1    2    0    0 -0.48020448580E+03  0.11053491629E+03  0.30856130440E+03  0.58139865366E+03  0.51100000000E-03 0. -1.
         22    1    1    2    0    0  0.69101093078E+02 -0.11317274909E+03  0.50343950530E+03  0.52060961161E+03  0.00000000000E+00 0. -1.
          2    1    1    2  501    0  0.41110339273E+03  0.26378327920E+01 -0.92100804978E+03  0.10085974348E+04  0.25500000000E-02 0. -1.
<mgrwt>
<rscale>  0 0.41736236E+03</rscale>
<asrwt>0</asrwt>
<pdfrwt beam="1">  1       11 0.10000000E+01 0.13260103E+03</pdfrwt>
<pdfrwt beam="2">  1        2 0.17087591E+00 0.41736236E+03</pdfrwt>
<totfact> 0.27545746E+01</totfact>
</mgrwt>
</event>
<event>
 5    1  0.6729100E-004  0.1771819E+03  0.7818608E-02  0.1170559E+00
         11   -1    0    0    0    0  0.00000000000E+00  0.00000000000E+00  0.99987750365E+03  0.99987750365E+03  0.51100000000E-03 0. -1.
         -2   -1    0    0    0  501 -0.00000000000E+00 -0.00000000000E+00 -0.97923271130E+02  0.97923271163E+02  0.25500000000E-02 0.  1.
         11    1    1    2    0    0 -0.77553253798E+02 -0.20171160584E+03  0.64041667533E+03  0.67589614375E+03  0.51100000000E-03 0. -1.
         22    1    1    2    0    0  0.15310050173E+02  0.41784541585E+02  0.24554893292E+03  0.24954884093E+03  0.00000000000E+00 0. -1.
         -2    1    1    2    0  501  0.62243203624E+02  0.15992706425E+03  0.15988624276E+02  0.17235579013E+03  0.25500000000E-02 0.  1.
<mgrwt>
<rscale>  0 0.17718191E+03</rscale>
<asrwt>0</asrwt>
<pdfrwt beam="1">  1       11 0.10000000E+01 0.44501074E+02</pdfrwt>
<pdfrwt beam="2">  1       -2 0.15063273E-01 0.17718191E+03</pdfrwt>
<totfact> 0.26794452E+02</totfact>
</mgrwt>
</event>
<event>
 5    1  0.6729100E-004  0.2153188E+03  0.7818608E-02  0.1137422E+00
         11   -1    0    0    0    0  0.00000000000E+00  0.00000000000E+00  0.10001720458E+04  0.10001720458E+04  0.51100000000E-03 0. -1.
          2   -1    0    0  501    0 -0.00000000000E+00 -0.00000000000E+00 -0.35500261775E+03  0.35500261776E+03  0.25500000000E-02 0. -1.
         11    1    1    2    0    0 -0.13706841690E+03 -0.15485905433E+03  0.86275715148E+03  0.88719726107E+03  0.51100000000E-03 0. -1.
         22    1    1    2    0    0 -0.17221447266E+02  0.41665335215E+01  0.90325191030E+02  0.92046609835E+02  0.00000000000E+00 0. -1.
          2    1    1    2  501    0  0.15428986416E+03  0.15069252081E+03 -0.30791291443E+03  0.37593079269E+03  0.25500000000E-02 0. -1.
<mgrwt>
<rscale>  0 0.21531882E+03</rscale>
<asrwt>0</asrwt>
<pdfrwt beam="1">  1       11 0.10000000E+01 0.17718303E+02</pdfrwt>
<pdfrwt beam="2">  1        2 0.54625182E-01 0.21531882E+03</pdfrwt>
<totfact> 0.11314580E+02</totfact>
</mgrwt>
</event>
<event>
 5    1  0.6729100E-004  0.3935768E+03  0.7818608E-02  0.1060806E+00
         11   -1    0    0    0    0  0.00000000000E+00  0.00000000000E+00  0.10001278358E+04  0.10001278358E+04  0.51100000000E-03 0. -1.
          2   -1    0    0  501    0 -0.00000000000E+00 -0.00000000000E+00 -0.24143283132E+03  0.24143283133E+03  0.25500000000E-02 0. -1.
         11    1    1    2    0    0  0.25422507595E+03  0.62997851809E+02  0.41406636004E+03  0.48994904744E+03  0.51100000000E-03 0. -1.
         22    1    1    2    0    0  0.64238026180E+02  0.92601335966E+02  0.37909876954E+03  0.39549640769E+03  0.00000000000E+00 0. -1.
          2    1    1    2  501    0 -0.31846310213E+03 -0.15559918777E+03 -0.34470125147E+02  0.35611521196E+03  0.25500000000E-02 0. -1.
<mgrwt>
<rscale>  0 0.35444302E+03</rscale>
<asrwt>0</asrwt>
<pdfrwt beam="1">  1       11 0.10000000E+01 0.39357684E+03</pdfrwt>
<pdfrwt beam="2">  1        2 0.37148260E-01 0.35444302E+03</pdfrwt>
<totfact> 0.17207762E+02</totfact>
</mgrwt>
</event>
<event>
 5    1  0.6729100E-004  0.4417405E+03  0.7818608E-02  0.1030214E+00
         11   -1    0    0    0    0  0.00000000000E+00  0.00000000000E+00  0.10000794928E+04  0.10000794928E+04  0.51100000000E-03 0.  1.
          2   -1    0    0  501    0 -0.00000000000E+00 -0.00000000000E+00 -0.63985114482E+03  0.63985114483E+03  0.25500000000E-02 0.  1.
         11    1    1    2    0    0  0.12805255524E+03  0.41791491728E+03  0.83034719149E+03  0.93836389178E+03  0.51100000000E-03 0.  1.
         22    1    1    2    0    0  0.13011686028E+02  0.11752596712E+01  0.30762434495E+02  0.33421738205E+02  0.00000000000E+00 0.  1.
          2    1    1    2  501    0 -0.14106424127E+03 -0.41909017695E+03 -0.50088127800E+03  0.66814500764E+03  0.25500000000E-02 0.  1.
<mgrwt>
<rscale>  0 0.44174053E+03</rscale>
<asrwt>0</asrwt>
<pdfrwt beam="1">  1       11 0.10000000E+01 0.13064655E+02</pdfrwt>
<pdfrwt beam="2">  1        2 0.98446460E-01 0.44174053E+03</pdfrwt>
<totfact> 0.57593531E+01</totfact>
</mgrwt>
</event>
<event>
 5    1  0.6729100E-004  0.1013207E+03  0.7818608E-02  0.1355141E+00
         11   -1    0    0    0    0  0.00000000000E+00  0.00000000000E+00  0.10001445021E+04  0.10001445021E+04  0.51100000000E-03 0.  1.
         -2   -1    0    0    0  501 -0.00000000000E+00 -0.00000000000E+00 -0.28260716274E+02  0.28260716389E+02  0.25500000000E-02 0.  1.
         11    1    1    2    0    0  0.98296178783E+02 -0.93065357248E+02  0.63641511968E+03  0.65065159958E+03  0.51100000000E-03 0.  1.
         22    1    1    2    0    0 -0.74143354480E+02  0.25792749495E+02  0.26873608468E+03  0.27996711619E+03  0.00000000000E+00 0.  1.
         -2    1    1    2    0  501 -0.24152824304E+02  0.67272607753E+02  0.66732581440E+02  0.97786502688E+02  0.25500000000E-02 0.  1.
<mgrwt>
<rscale>  0 0.71477008E+02</rscale>
<asrwt>0</asrwt>
<pdfrwt beam="1">  1       11 0.10000000E+01 0.10132075E+03</pdfrwt>
<pdfrwt beam="2">  1       -2 0.43484307E-02 0.71477008E+02</pdfrwt>
<totfact> 0.17066358E+03</totfact>
</mgrwt>
</event>
<event>
 5    1  0.6729100E-004  0.9315993E+02  0.7818608E-02  0.1295375E+00
         11   -1    0    0    0    0  0.00000000000E+00  0.00000000000E+00  0.99978792937E+03  0.99978792937E+03  0.51100000000E-03 0. -1.
          2   -1    0    0  501    0 -0.00000000000E+00 -0.00000000000E+00 -0.16164343292E+03  0.16164343294E+03  0.25500000000E-02 0. -1.
         11    1    1    2    0    0  0.12936114582E+03 -0.21426079438E+02  0.73870307863E+03  0.75025037242E+03  0.51100000000E-03 0. -1.
         22    1    1    2    0    0 -0.40468881126E+02 -0.40413731485E+01  0.23973211705E+03  0.24315746129E+03  0.00000000000E+00 0. -1.
          2    1    1    2  501    0 -0.88892264696E+02  0.25467452586E+02 -0.14029069923E+03  0.16802352860E+03  0.25500000000E-02 0. -1.
<mgrwt>
<rscale>  0 0.93159926E+02</rscale>
<asrwt>0</asrwt>
<pdfrwt beam="1">  1       11 0.10000000E+01 0.40670174E+02</pdfrwt>
<pdfrwt beam="2">  1        2 0.24862946E-01 0.93159926E+02</pdfrwt>
<totfact> 0.26078008E+02</totfact>
</mgrwt>
</event>
<event>
 5    1  0.6729100E-004  0.2200758E+03  0.7818608E-02  0.1133827E+00
         11   -1    0    0    0    0  0.00000000000E+00  0.00000000000E+00  0.10000690654E+04  0.10000690654E+04  0.51100000000E-03 0. -1.
          2   -1    0    0  501    0 -0.00000000000E+00 -0.00000000000E+00 -0.55007458760E+02  0.55007458819E+02  0.25500000000E-02 0. -1.
         11    1    1    2    0    0 -0.10304359456E+03  0.19222649856E+03  0.55957652266E+03  0.60057879903E+03  0.51100000000E-03 0. -1.
         22    1    1    2    0    0 -0.16230983728E+02 -0.54739659479E+01  0.46071984562E+02  0.49153198242E+02  0.00000000000E+00 0.  1.
          2    1    1    2  501    0  0.11927457829E+03 -0.18675253261E+03  0.33941309940E+03  0.40534452693E+03  0.25500000000E-02 0. -1.
<mgrwt>
<rscale>  0 0.22007580E+03</rscale>
<asrwt>0</asrwt>
<pdfrwt beam="1">  1       11 0.10000000E+01 0.17129190E+02</pdfrwt>
<pdfrwt beam="2">  1        2 0.84632702E-02 0.22007580E+03</pdfrwt>
<totfact> 0.96212870E+02</totfact>
</mgrwt>
</event>
<event>
 5    1  0.6729100E-004  0.1323549E+03  0.7818608E-02  0.1224003E+00
         11   -1    0    0    0    0  0.00000000000E+00  0.00000000000E+00  0.10003269166E+04  0.10003269166E+04  0.51100000000E-03 0.  1.
          2   -1    0    0  501    0 -0.00000000000E+00 -0.00000000000E+00 -0.28691942509E+02  0.28691942622E+02  0.25500000000E-02 0.  1.
         11    1    1    2    0    0 -0.12622311586E+03 -0.43545758599E+02  0.62502229490E+03  0.63912547844E+03  0.51100000000E-03 0.  1.
         22    1    1    2    0    0 -0.55451681494E+01  0.27676978472E+02  0.15029192823E+03  0.15291967734E+03  0.00000000000E+00 0.  1.
          2    1    1    2  501    0  0.13176828401E+03  0.15868780127E+02  0.19632075092E+03  0.23697370340E+03  0.25500000000E-02 0.  1.
<mgrwt>
<rscale>  0 0.13235486E+03</rscale>
<asrwt>0</asrwt>
<pdfrwt beam="1">  1       11 0.10000000E+01 0.28227009E+02</pdfrwt>
<pdfrwt beam="2">  1        2 0.44155879E-02 0.13235486E+03</pdfrwt>
<totfact> 0.21522589E+03</totfact>
</mgrwt>
</event>
<event>
 5    1  0.6729100E-004  0.2432064E+03  0.7818608E-02  0.1117675E+00
         11   -1    0    0    0    0  0.00000000000E+00  0.00000000000E+00  0.10001649107E+04  0.10001649107E+04  0.51100000000E-03 0. -1.
         -2   -1    0    0    0  501 -0.00000000000E+00 -0.00000000000E+00 -0.74243805163E+02  0.74243805207E+02  0.25500000000E-02 0.  1.
         11    1    1    2    0    0  0.19305481663E+03 -0.15686754301E+03  0.59100237235E+03  0.64121867752E+03  0.51100000000E-03 0. -1.
         22    1    1    2    0    0 -0.16332962284E+02 -0.65035369157E+01  0.82791822739E+02  0.84637743128E+02  0.00000000000E+00 0. -1.
         -2    1    1    2    0  501 -0.17672185435E+03  0.16337107993E+03  0.25212691049E+03  0.34855229530E+03  0.25500000000E-02 0.  1.
<mgrwt>
<rscale>  0 0.24320645E+03</rscale>
<asrwt>0</asrwt>
<pdfrwt beam="1">  1       11 0.10000000E+01 0.17580149E+02</pdfrwt>
<pdfrwt beam="2">  1       -2 0.11424007E-01 0.24320645E+03</pdfrwt>
<totfact> 0.42611524E+02</totfact>
</mgrwt>
</event>
<event>
 5    1  0.6729100E-004  0.1313614E+03  0.7818608E-02  0.1380400E+00
         11   -1    0    0    0    0  0.00000000000E+00  0.00000000000E+00  0.10001187885E+04  0.10001187885E+04  0.51100000000E-03 0.  1.
         -2   -1    0    0    0  501 -0.00000000000E+00 -0.00000000000E+00 -0.45049116912E+02  0.45049116984E+02  0.25500000000E-02 0. -1.
         11    1    1    2    0    0  0.14901551933E+01  0.15115338142E+03  0.77090662030E+03  0.78558677592E+03  0.51100000000E-03 0.  1.
         22    1    1    2    0    0  0.28333082462E+02 -0.94121486799E+02  0.16564127971E+03  0.19261010198E+03  0.00000000000E+00 0. -1.
         -2    1    1    2    0  501 -0.29823237655E+02 -0.57031894625E+02  0.18521771590E+02  0.66971027602E+02  0.25500000000E-02 0. -1.
<mgrwt>
<rscale>  0 0.64358857E+02</rscale>
<asrwt>0</asrwt>
<pdfrwt beam="1">  1       11 0.10000000E+01 0.13136139E+03</pdfrwt>
<pdfrwt beam="2">  1       -2 0.69314565E-02 0.64358857E+02</pdfrwt>
<totfact> 0.84654738E+02</totfact>
</mgrwt>
</event>
<event>
 5    1  0.6729100E-004  0.1572542E+03  0.7818608E-02  0.1191832E+00
         11   -1    0    0    0    0  0.00000000000E+00  0.00000000000E+00  0.10003380446E+04  0.10003380446E+04  0.51100000000E-03 0. -1.
          2   -1    0    0  501    0 -0.00000000000E+00 -0.00000000000E+00 -0.64951880940E+03  0.64951880940E+03  0.25500000000E-02 0. -1.
         11    1    1    2    0    0 -0.12780949157E+03 -0.53578887554E+02  0.22060379495E+03  0.26052254734E+03  0.51100000000E-03 0. -1.
         22    1    1    2    0    0  0.22442788970E+02  0.17110803330E+03  0.73979149357E+03  0.75965327077E+03  0.00000000000E+00 0. -1.
          2    1    1    2  501    0  0.10536670260E+03 -0.11752914574E+03 -0.60957605334E+03  0.62968103587E+03  0.25500000000E-02 0. -1.
<mgrwt>
<rscale>  0 0.15725423E+03</rscale>
<asrwt>0</asrwt>
<pdfrwt beam="1">  1       11 0.10000000E+01 0.13858558E+03</pdfrwt>
<pdfrwt beam="2">  1        2 0.99959747E-01 0.15725423E+03</pdfrwt>
<totfact> 0.58115981E+01</totfact>
</mgrwt>
</event>
<event>
 5    1  0.6729100E-004  0.2156188E+03  0.7818608E-02  0.1457636E+00
         11   -1    0    0    0    0  0.00000000000E+00  0.00000000000E+00  0.10001082154E+04  0.10001082154E+04  0.51100000000E-03 0.  1.
          2   -1    0    0  501    0 -0.00000000000E+00 -0.00000000000E+00 -0.51510759560E+02  0.51510759623E+02  0.25500000000E-02 0.  1.
         11    1    1    2    0    0  0.15217239295E+03 -0.15552743938E+03  0.59422910589E+03  0.63281391567E+03  0.51100000000E-03 0.  1.
         22    1    1    2    0    0  0.29716912186E+01  0.10167124309E+02  0.17751485436E+02  0.20671637589E+02  0.00000000000E+00 0. -1.
          2    1    1    2  501    0 -0.15514408417E+03  0.14536031507E+03  0.33661686454E+03  0.39813342179E+03  0.25500000000E-02 0.  1.
<mgrwt>
<rscale>  0 0.47790645E+02</rscale>
<asrwt>0</asrwt>
<pdfrwt beam="1">  1       11 0.10000000E+01 0.21561884E+03</pdfrwt>
<pdfrwt beam="2">  1        2 0.79255896E-02 0.47790645E+02</pdfrwt>
<totfact> 0.93867107E+02</totfact>
</mgrwt>
</event>
<event>
 5    1  0.6729100E-004  0.1176512E+03  0.7818608E-02  0.1247023E+00
         11   -1    0    0    0    0  0.00000000000E+00  0.00000000000E+00  0.99978729044E+03  0.99978729044E+03  0.51100000000E-03 0. -1.
          2   -1    0    0  501    0 -0.00000000000E+00 -0.00000000000E+00 -0.18966986209E+02  0.18966986381E+02  0.25500000000E-02 0. -1.
         11    1    1    2    0    0  0.41965594379E+02 -0.10887787358E+03  0.28919887275E+03  0.31185171231E+03  0.51100000000E-03 0. -1.
         22    1    1    2    0    0 -0.22145411561E+02 -0.10524773125E+02  0.14315665895E+03  0.14524124450E+03  0.00000000000E+00 0. -1.
          2    1    1    2  501    0 -0.19820182818E+02  0.11940264671E+03  0.54846477253E+03  0.56166132001E+03  0.25500000000E-02 0. -1.
<mgrwt>
<rscale>  0 0.11765124E+03</rscale>
<asrwt>0</asrwt>
<pdfrwt beam="1">  1       11 0.10000000E+01 0.24519178E+02</pdfrwt>
<pdfrwt beam="2">  1        2 0.29173771E-02 0.11765124E+03</pdfrwt>
<totfact> 0.36902528E+03</totfact>
</mgrwt>
</event>
<event>
 5    1  0.6729100E-004  0.1877387E+03  0.7818608E-02  0.1496562E+00
         11   -1    0    0    0    0  0.00000000000E+00  0.00000000000E+00  0.10004797173E+04  0.10004797173E+04  0.51100000000E-03 0.  1.
          2   -1    0    0  501    0 -0.00000000000E+00 -0.00000000000E+00 -0.45958939180E+02  0.45958939251E+02  0.25500000000E-02 0.  1.
         11    1    1    2    0    0 -0.12714373490E+03 -0.15669233008E+03  0.37240367387E+03  0.42355933698E+03  0.51100000000E-03 0.  1.
         22    1    1    2    0    0  0.85540513840E+02  0.15812861580E+03  0.46157479722E+03  0.49535152374E+03  0.00000000000E+00 0.  1.
          2    1    1    2  501    0  0.41603221057E+02 -0.14362857186E+01  0.12054230705E+03  0.12752779585E+03  0.25500000000E-02 0.  1.
<mgrwt>
<rscale>  0 0.41628007E+02</rscale>
<asrwt>0</asrwt>
<pdfrwt beam="1">  1       11 0.10000000E+01 0.18773872E+03</pdfrwt>
<pdfrwt beam="2">  1        2 0.70739977E-02 0.41628007E+02</pdfrwt>
<totfact> 0.10645085E+03</totfact>
</mgrwt>
</event>
<event>
 5    1  0.6729100E-004  0.3682155E+03  0.7818608E-02  0.1055377E+00
         11   -1    0    0    0    0  0.00000000000E+00  0.00000000000E+00  0.10003393343E+04  0.10003393343E+04  0.51100000000E-03 0. -1.
          2   -1    0    0  501    0 -0.00000000000E+00 -0.00000000000E+00 -0.14389659260E+03  0.14389659262E+03  0.25500000000E-02 0. -1.
         11    1    1    2    0    0 -0.25756947283E+03 -0.26154164055E+03  0.34474322255E+03  0.50358112809E+03  0.51100000000E-03 0. -1.
         22    1    1    2    0    0  0.68160969141E+01 -0.10215380444E+02  0.36677551392E+02  0.38678882492E+02  0.00000000000E+00 0.  1.
          2    1    1    2  501    0  0.25075337592E+03  0.27175702099E+03  0.47502196775E+03  0.60197591633E+03  0.25500000000E-02 0. -1.
<mgrwt>
<rscale>  0 0.36821551E+03</rscale>
<asrwt>0</asrwt>
<pdfrwt beam="1">  1       11 0.10000000E+01 0.12280602E+02</pdfrwt>
<pdfrwt beam="2">  1        2 0.22145449E-01 0.36821551E+03</pdfrwt>
<totfact> 0.30717784E+02</totfact>
</mgrwt>
</event>
<event>
 5    1  0.6729100E-004  0.3772326E+03  0.7818608E-02  0.1051961E+00
         11   -1    0    0    0    0  0.00000000000E+00  0.00000000000E+00  0.10001939322E+04  0.10001939322E+04  0.51100000000E-03 0. -1.
          2   -1    0    0  501    0 -0.00000000000E+00 -0.00000000000E+00 -0.23502179081E+03  0.23502179083E+03  0.25500000000E-02 0. -1.
         11    1    1    2    0    0  0.18484299367E+03 -0.32065288960E+03  0.69780500193E+03  0.78988418685E+03  0.51100000000E-03 0. -1.
         22    1    1    2    0    0  0.10335806688E+02 -0.43055751743E+01  0.65304728065E+02  0.66257636429E+02  0.00000000000E+00 0. -1.
          2    1    1    2  501    0 -0.19517880036E+03  0.32495846477E+03  0.20624114093E+01  0.37907389976E+03  0.25500000000E-02 0. -1.
<mgrwt>
<rscale>  0 0.37723262E+03</rscale>
<asrwt>0</asrwt>
<pdfrwt beam="1">  1       11 0.10000000E+01 0.11196735E+02</pdfrwt>
<pdfrwt beam="2">  1        2 0.36164210E-01 0.37723262E+03</pdfrwt>
<totfact> 0.17730727E+02</totfact>
</mgrwt>
</event>
<event>
 5    1  0.6729100E-004  0.1322008E+03  0.7818608E-02  0.1224226E+00
         11   -1    0    0    0    0  0.00000000000E+00  0.00000000000E+00  0.10002240387E+04  0.10002240387E+04  0.51100000000E-03 0.  1.
         -2   -1    0    0    0  501 -0.00000000000E+00 -0.00000000000E+00 -0.45209339443E+02  0.45209339515E+02  0.25500000000E-02 0. -1.
         11    1    1    2    0    0 -0.66861774437E+02  0.97141749788E+02  0.69430658973E+03  0.70425042206E+03  0.51100000000E-03 0.  1.
         22    1    1    2    0    0  0.24649117003E+02  0.31487151702E+02  0.17822547043E+03  0.18265633852E+03  0.00000000000E+00 0.  1.
         -2    1    1    2    0  501  0.42212657434E+02 -0.12862890149E+03  0.82482639143E+02  0.15852661768E+03  0.25500000000E-02 0. -1.
<mgrwt>
<rscale>  0 0.13220076E+03</rscale>
<asrwt>0</asrwt>
<pdfrwt beam="1">  1       11 0.10000000E+01 0.39987744E+02</pdfrwt>
<pdfrwt beam="2">  1       -2 0.69568411E-02 0.13220076E+03</pdfrwt>
<totfact> 0.89389891E+02</totfact>
</mgrwt>
</event>
<event>
 5    1  0.6729100E-004  0.1675268E+03  0.7818608E-02  0.1180452E+00
         11   -1    0    0    0    0  0.00000000000E+00  0.00000000000E+00  0.10003898822E+04  0.10003898822E+04  0.51100000000E-03 0. -1.
         -2   -1    0    0    0  501 -0.00000000000E+00 -0.00000000000E+00 -0.27872911289E+02  0.27872911406E+02  0.25500000000E-02 0.  1.
         11    1    1    2    0    0  0.12140254271E+03 -0.10857096558E+03  0.55454864524E+03  0.57797096110E+03  0.51100000000E-03 0. -1.
         22    1    1    2    0    0 -0.22002028309E+02  0.14152188850E+02  0.11197059903E+03  0.11498603718E+03  0.00000000000E+00 0.  1.
         -2    1    1    2    0  501 -0.99400514404E+02  0.94418776726E+02  0.30599772667E+03  0.33530579535E+03  0.25500000000E-02 0.  1.
<mgrwt>
<rscale>  0 0.16752675E+03</rscale>
<asrwt>0</asrwt>
<pdfrwt beam="1">  1       11 0.10000000E+01 0.16286876E+03</pdfrwt>
<pdfrwt beam="2">  1       -2 0.42898120E-02 0.16752675E+03</pdfrwt>
<totfact> 0.18935388E+03</totfact>
</mgrwt>
</event>
<event>
 5    1  0.6729100E-004  0.1537910E+03  0.7818608E-02  0.1195890E+00
         11   -1    0    0    0    0  0.00000000000E+00  0.00000000000E+00  0.10002761939E+04  0.10002761939E+04  0.51100000000E-03 0. -1.
         -2   -1    0    0    0  501 -0.00000000000E+00 -0.00000000000E+00 -0.46455728633E+02  0.46455728703E+02  0.25500000000E-02 0. -1.
         11    1    1    2    0    0  0.99318896384E+02  0.11981599094E+03  0.74197957562E+03  0.75812519118E+03  0.51100000000E-03 0. -1.
         22    1    1    2    0    0 -0.17321181712E+02  0.10100061495E+02  0.90901323868E+02  0.93086439716E+02  0.00000000000E+00 0. -1.
         -2    1    1    2    0  501 -0.81997714672E+02 -0.12991605244E+03  0.12093956579E+03  0.19552029172E+03  0.25500000000E-02 0. -1.
<mgrwt>
<rscale>  0 0.15379104E+03</rscale>
<asrwt>0</asrwt>
<pdfrwt beam="1">  1       11 0.10000000E+01 0.20050800E+02</pdfrwt>
<pdfrwt beam="2">  1       -2 0.71490089E-02 0.15379104E+03</pdfrwt>
<totfact> 0.86683891E+02</totfact>
</mgrwt>
</event>
<event>
 5    1  0.6729100E-004  0.2899293E+03  0.7818608E-02  0.1324967E+00
         11   -1    0    0    0    0  0.00000000000E+00  0.00000000000E+00  0.10000264471E+04  0.10000264471E+04  0.51100000000E-03 0. -1.
          2   -1    0    0  501    0 -0.00000000000E+00 -0.00000000000E+00 -0.15672846541E+03  0.15672846543E+03  0.25500000000E-02 0. -1.
         11    1    1    2    0    0  0.13242504586E+03  0.26097516011E+03  0.79727062780E+03  0.84928492328E+03  0.51100000000E-03 0. -1.
         22    1    1    2    0    0 -0.21879130208E+02 -0.67127103021E+01  0.17385562425E+02  0.28740469709E+02  0.00000000000E+00 0.  1.
          2    1    1    2  501    0 -0.11054591565E+03 -0.25426244981E+03  0.28641791495E+02  0.27872951956E+03  0.25500000000E-02 0. -1.
<mgrwt>
<rscale>  0 0.81457014E+02</rscale>
<asrwt>0</asrwt>
<pdfrwt beam="1">  1       11 0.10000000E+01 0.28992931E+03</pdfrwt>
<pdfrwt beam="2">  1        2 0.24112709E-01 0.81457014E+02</pdfrwt>
<totfact> 0.26852616E+02</totfact>
</mgrwt>
</event>
<event>
 5    1  0.6729100E-004  0.1227500E+03  0.7818608E-02  0.1678159E+00
         11   -1    0    0    0    0  0.00000000000E+00  0.00000000000E+00  0.10003148318E+04  0.10003148318E+04  0.51100000000E-03 0.  1.
          2   -1    0    0  501    0 -0.00000000000E+00 -0.00000000000E+00 -0.93065199242E+02  0.93065199277E+02  0.25500000000E-02 0.  1.
         11    1    1    2    0    0  0.93954502612E+02 -0.54128902932E+02  0.29416138490E+03  0.31350966023E+03  0.51100000000E-03 0.  1.
         22    1    1    2    0    0 -0.11259936575E+03  0.68994360277E+02  0.68835966096E+03  0.70091216408E+03  0.00000000000E+00 0.  1.
          2    1    1    2  501    0  0.18644863142E+02 -0.14865457345E+02 -0.75271413316E+02  0.78958206748E+02  0.25500000000E-02 0.  1.
<mgrwt>
<rscale>  0 0.23845602E+02</rscale>
<asrwt>0</asrwt>
<pdfrwt beam="1">  1       11 0.10000000E+01 0.12275001E+03</pdfrwt>
<pdfrwt beam="2">  1        2 0.14322230E-01 0.23845602E+02</pdfrwt>
<totfact> 0.44627168E+02</totfact>
</mgrwt>
</event>
<event>
 5    1  0.6729100E-004  0.1231156E+03  0.7818608E-02  0.1238044E+00
         11   -1    0    0    0    0  0.00000000000E+00  0.00000000000E+00  0.99998454683E+03  0.99998454683E+03  0.51100000000E-03 0. -1.
          2   -1    0    0  501    0 -0.00000000000E+00 -0.00000000000E+00 -0.14315116151E+02  0.14315116378E+02  0.25500000000E-02 0. -1.
         11    1    1    2    0    0  0.11481353647E+03 -0.36831384828E+00  0.52979649768E+03  0.54209465296E+03  0.51100000000E-03 0. -1.
         22    1    1    2    0    0 -0.61434954765E+02  0.16037480445E+02  0.30152783599E+03  0.30814037438E+03  0.00000000000E+00 0. -1.
          2    1    1    2  501    0 -0.53378581702E+02 -0.15669166597E+02  0.15434509701E+03  0.16406463587E+03  0.25500000000E-02 0. -1.
<mgrwt>
<rscale>  0 0.12311556E+03</rscale>
<asrwt>0</asrwt>
<pdfrwt beam="1">  1       11 0.10000000E+01 0.11481413E+03</pdfrwt>
<pdfrwt beam="2">  1        2 0.22022915E-02 0.12311556E+03</pdfrwt>
<totfact> 0.54193729E+03</totfact>
</mgrwt>
</event>
<event>
 5    1  0.6729100E-004  0.2322344E+03  0.7818608E-02  0.1125077E+00
         11   -1    0    0    0    0  0.00000000000E+00  0.00000000000E+00  0.99983788801E+03  0.99983788801E+03  0.51100000000E-03 0. -1.
          2   -1    0    0  501    0 -0.00000000000E+00 -0.00000000000E+00 -0.85936479630E+03  0.85936479631E+03  0.25500000000E-02 0. -1.
         11    1    1    2    0    0  0.30935609355E+02 -0.24952718489E+03  0.83797171888E+03  0.87488138029E+03  0.51100000000E-03 0. -1.
         22    1    1    2    0    0  0.91071450474E+02  0.51851485718E+02  0.10531667485E+03  0.14857384583E+03  0.00000000000E+00 0. -1.
          2    1    1    2  501    0 -0.12200705983E+03  0.19767569918E+03 -0.80281530203E+03  0.83574745819E+03  0.25500000000E-02 0. -1.
<mgrwt>
<rscale>  0 0.23223438E+03</rscale>
<asrwt>0</asrwt>
<pdfrwt beam="1">  1       11 0.10000000E+01 0.10479783E+03</pdfrwt>
<pdfrwt beam="2">  1        2 0.13218853E+00 0.23223438E+03</pdfrwt>
<totfact> 0.40647653E+01</totfact>
</mgrwt>
</event>
<event>
 5    1  0.6729100E-004  0.4058892E+03  0.7818608E-02  0.1041759E+00
         11   -1    0    0    0    0  0.00000000000E+00  0.00000000000E+00  0.10001504985E+04  0.10001504985E+04  0.51100000000E-03 0. -1.
          2   -1    0    0  501    0 -0.00000000000E+00 -0.00000000000E+00 -0.84741815640E+03  0.84741815641E+03  0.25500000000E-02 0.  1.
         11    1    1    2    0    0  0.67516912519E+01 -0.46533134076E+03  0.77811748156E+03  0.90666733543E+03  0.51100000000E-03 0. -1.
         22    1    1    2    0    0 -0.72673588375E+02  0.68205153864E+02  0.80619841443E+02  0.12819107728E+03  0.00000000000E+00 0. -1.
          2    1    1    2  501    0  0.65921897123E+02  0.39712618690E+03 -0.70600498086E+03  0.81271024224E+03  0.25500000000E-02 0.  1.
<mgrwt>
<rscale>  0 0.40588922E+03</rscale>
<asrwt>0</asrwt>
<pdfrwt beam="1">  1       11 0.10000000E+01 0.99666411E+02</pdfrwt>
<pdfrwt beam="2">  1        2 0.13039164E+00 0.40588922E+03</pdfrwt>
<totfact> 0.40492667E+01</totfact>
</mgrwt>
</event>
<event>
 5    1  0.6729100E-004  0.1608523E+03  0.7818608E-02  0.1187738E+00
         11   -1    0    0    0    0  0.00000000000E+00  0.00000000000E+00  0.10003579481E+04  0.10003579481E+04  0.51100000000E-03 0. -1.
          2   -1    0    0  501    0 -0.00000000000E+00 -0.00000000000E+00 -0.31007738313E+02  0.31007738418E+02  0.25500000000E-02 0. -1.
         11    1    1    2    0    0 -0.24490337716E+02  0.15614061913E+03  0.70017474886E+03  0.71779129873E+03  0.51100000000E-03 0. -1.
         22    1    1    2    0    0 -0.58875549628E+01 -0.10221958407E+02  0.20611294606E+02  0.23748204194E+02  0.00000000000E+00 0. -1.
          2    1    1    2  501    0  0.30377892679E+02 -0.14591866073E+03  0.24856416629E+03  0.28982618357E+03  0.25500000000E-02 0. -1.
<mgrwt>
<rscale>  0 0.16085232E+03</rscale>
<asrwt>0</asrwt>
<pdfrwt beam="1">  1       11 0.10000000E+01 0.15804958E+03</pdfrwt>
<pdfrwt beam="2">  1        2 0.47721287E-02 0.16085232E+03</pdfrwt>
<totfact> 0.19752953E+03</totfact>
</mgrwt>
</event>
<event>
 5    1  0.6729100E-004  0.2447476E+03  0.7818608E-02  0.1439168E+00
         11   -1    0    0    0    0  0.00000000000E+00  0.00000000000E+00  0.10003987367E+04  0.10003987367E+04  0.51100000000E-03 0. -1.
          2   -1    0    0  501    0 -0.00000000000E+00 -0.00000000000E+00 -0.13644047997E+03  0.13644048000E+03  0.25500000000E-02 0. -1.
         11    1    1    2    0    0  0.24109778293E+03 -0.39671444797E+02  0.84255367187E+03  0.87726772108E+03  0.51100000000E-03 0. -1.
         22    1    1    2    0    0  0.47090829232E+01  0.96027882991E+01  0.36331217755E+01  0.11295511451E+02  0.00000000000E+00 0. -1.
          2    1    1    2  501    0 -0.24580686585E+03  0.30068656498E+02  0.17771463075E+02  0.24827598416E+03  0.25500000000E-02 0. -1.
<mgrwt>
<rscale>  0 0.51162920E+02</rscale>
<asrwt>0</asrwt>
<pdfrwt beam="1">  1       11 0.10000000E+01 0.24474764E+03</pdfrwt>
<pdfrwt beam="2">  1        2 0.20999212E-01 0.51162920E+02</pdfrwt>
<totfact> 0.30676811E+02</totfact>
</mgrwt>
</event>
<event>
 5    1  0.6729100E-004  0.7827952E+02  0.7818608E-02  0.1334006E+00
         11   -1    0    0    0    0  0.00000000000E+00  0.00000000000E+00  0.10002439678E+04  0.10002439678E+04  0.51100000000E-03 0.  1.
          2   -1    0    0  501    0 -0.00000000000E+00 -0.00000000000E+00 -0.21991015188E+02  0.21991015336E+02  0.25500000000E-02 0.  1.
         11    1    1    2    0    0 -0.16807582354E+02  0.77297753417E+02  0.58235814211E+02  0.98228547607E+02  0.51100000000E-03 0.  1.
         22    1    1    2    0    0  0.56208405189E+01 -0.90853146683E+01  0.44485871158E+02  0.45750732491E+02  0.00000000000E+00 0.  1.
          2    1    1    2  501    0  0.11186741835E+02 -0.68212438749E+02  0.87553126724E+03  0.87825570303E+03  0.25500000000E-02 0.  1.
<mgrwt>
<rscale>  0 0.78279523E+02</rscale>
<asrwt>0</asrwt>
<pdfrwt beam="1">  1       11 0.10000000E+01 0.10683482E+02</pdfrwt>
<pdfrwt beam="2">  1        2 0.33840584E-02 0.78279523E+02</pdfrwt>
<totfact> 0.28990751E+03</totfact>
</mgrwt>
</event>
<event>
 5    1  0.6729100E-004  0.5033287E+03  0.7818608E-02  0.1012914E+00
         11   -1    0    0    0    0  0.00000000000E+00  0.00000000000E+00  0.99969823092E+03  0.99969823092E+03  0.51100000000E-03 0. -1.
          2   -1    0    0  501    0 -0.00000000000E+00 -0.00000000000E+00 -0.56199613115E+03  0.56199613116E+03  0.25500000000E-02 0. -1.
         11    1    1    2    0    0 -0.21085793549E+03  0.30444405179E+03  0.68587375577E+03  0.77946780465E+03  0.51100000000E-03 0. -1.
         22    1    1    2    0    0 -0.66458015939E+02  0.14906233472E+03  0.52583687372E+02  0.17146804861E+03  0.00000000000E+00 0.  1.
          2    1    1    2  501    0  0.27731595143E+03 -0.45350638651E+03 -0.30075534337E+03  0.61075850882E+03  0.25500000000E-02 0. -1.
<mgrwt>
<rscale>  0 0.50332866E+03</rscale>
<asrwt>0</asrwt>
<pdfrwt beam="1">  1       11 0.10000000E+01 0.16320615E+03</pdfrwt>
<pdfrwt beam="2">  1        2 0.86434850E-01 0.50332866E+03</pdfrwt>
<totfact> 0.67035512E+01</totfact>
</mgrwt>
</event>
<event>
 5    1  0.6729100E-004  0.1530822E+03  0.7818608E-02  0.1196736E+00
         11   -1    0    0    0    0  0.00000000000E+00  0.00000000000E+00  0.10002444401E+04  0.10002444401E+04  0.51100000000E-03 0. -1.
         -2   -1    0    0    0  501 -0.00000000000E+00 -0.00000000000E+00 -0.70423079124E+02  0.70423079170E+02  0.25500000000E-02 0. -1.
         11    1    1    2    0    0 -0.22111711708E+02  0.16441936752E+03  0.85339994047E+03  0.86937570394E+03  0.51100000000E-03 0. -1.
         22    1    1    2    0    0 -0.73475713969E+01 -0.15603181002E+02  0.42465454023E+02  0.45834057732E+02  0.00000000000E+00 0. -1.
         -2    1    1    2    0  501  0.29459283105E+02 -0.14881618652E+03  0.33955966486E+02  0.15545775760E+03  0.25500000000E-02 0. -1.
<mgrwt>
<rscale>  0 0.15308220E+03</rscale>
<asrwt>0</asrwt>
<pdfrwt beam="1">  1       11 0.10000000E+01 0.17246625E+02</pdfrwt>
<pdfrwt beam="2">  1       -2 0.10836968E-01 0.15308220E+03</pdfrwt>
<totfact> 0.45276197E+02</totfact>
</mgrwt>
</event>
<event>
 5    1  0.6729100E-004  0.1511335E+03  0.7818608E-02  0.1199087E+00
         11   -1    0    0    0    0  0.00000000000E+00  0.00000000000E+00  0.10002718623E+04  0.10002718623E+04  0.51100000000E-03 0. -1.
          2   -1    0    0  501    0 -0.00000000000E+00 -0.00000000000E+00 -0.48598890919E+02  0.48598890986E+02  0.25500000000E-02 0. -1.
         11    1    1    2    0    0 -0.81456050732E+02  0.13111911388E+03  0.46477878363E+03  0.48974138883E+03  0.51100000000E-03 0. -1.
         22    1    1    2    0    0 -0.72936511457E+02 -0.79649912724E+02  0.24303907448E+03  0.26595457324E+03  0.00000000000E+00 0.  1.
          2    1    1    2  501    0  0.15439256219E+03 -0.51469201154E+02  0.24385511324E+03  0.29317479118E+03  0.25500000000E-02 0. -1.
<mgrwt>
<rscale>  0 0.15113348E+03</rscale>
<asrwt>0</asrwt>
<pdfrwt beam="1">  1       11 0.10000000E+01 0.10799927E+03</pdfrwt>
<pdfrwt beam="2">  1        2 0.74787849E-02 0.15113348E+03</pdfrwt>
<totfact> 0.11000634E+03</totfact>
</mgrwt>
</event>
<event>
 5    1  0.6729100E-004  0.3927626E+03  0.7818608E-02  0.1046315E+00
         11   -1    0    0    0    0  0.00000000000E+00  0.00000000000E+00  0.99981801653E+03  0.99981801653E+03  0.51100000000E-03 0.  1.
          2   -1    0    0  501    0 -0.00000000000E+00 -0.00000000000E+00 -0.38314395553E+03  0.38314395554E+03  0.25500000000E-02 0.  1.
         11    1    1    2    0    0 -0.34868645684E+03  0.10119435192E+02 -0.22973763558E+02  0.34958896145E+03  0.51100000000E-03 0.  1.
         22    1    1    2    0    0 -0.12977121517E+03 -0.11197857453E+03  0.49412002867E+03  0.52300513590E+03  0.00000000000E+00 0. -1.
          2    1    1    2  501    0  0.47845767201E+03  0.10185913933E+03  0.14552779588E+03  0.51036787473E+03  0.25500000000E-02 0.  1.
<mgrwt>
<rscale>  0 0.39276261E+03</rscale>
<asrwt>0</asrwt>
<pdfrwt beam="1">  1       11 0.10000000E+01 0.17140528E+03</pdfrwt>
<pdfrwt beam="2">  1        2 0.58934495E-01 0.39276261E+03</pdfrwt>
<totfact> 0.10380930E+02</totfact>
</mgrwt>
</event>
<event>
 5    1  0.6729100E-004  0.1194167E+03  0.7818608E-02  0.1432527E+00
         11   -1    0    0    0    0  0.00000000000E+00  0.00000000000E+00  0.99996813655E+03  0.99996813655E+03  0.51100000000E-03 0. -1.
         -2   -1    0    0    0  501 -0.00000000000E+00 -0.00000000000E+00 -0.19377844278E+02  0.19377844446E+02  0.25500000000E-02 0.  1.
         11    1    1    2    0    0  0.32564153634E+02 -0.11855914625E+03  0.63396586409E+03  0.64577814464E+03  0.51100000000E-03 0. -1.
         22    1    1    2    0    0  0.17119420333E+02  0.15423200890E+02  0.38557992629E+02  0.44918464731E+02  0.00000000000E+00 0. -1.
         -2    1    1    2    0  501 -0.49683573967E+02  0.10313594536E+03  0.30806643555E+03  0.32864937162E+03  0.25500000000E-02 0.  1.
<mgrwt>
<rscale>  0 0.52456075E+02</rscale>
<asrwt>0</asrwt>
<pdfrwt beam="1">  1       11 0.10000000E+01 0.11941666E+03</pdfrwt>
<pdfrwt beam="2">  1       -2 0.29811117E-02 0.52456075E+02</pdfrwt>
<totfact> 0.28378311E+03</totfact>
</mgrwt>
</event>
<event>
 5    1  0.6729100E-004  0.6688561E+02  0.7818608E-02  0.1605580E+00
         11   -1    0    0    0    0  0.00000000000E+00  0.00000000000E+00  0.10000439968E+04  0.10000439968E+04  0.51100000000E-03 0.  1.
          2   -1    0    0  501    0 -0.00000000000E+00 -0.00000000000E+00 -0.57703228846E+01  0.57703234480E+01  0.25500000000E-02 0.  1.
         11    1    1    2    0    0  0.25264120128E+01  0.68214974610E+02  0.35865590160E+03  0.36509412659E+03  0.51100000000E-03 0.  1.
         22    1    1    2    0    0 -0.12624176287E+02 -0.24735125873E+01  0.66841450367E+02  0.68068109850E+02  0.00000000000E+00 0.  1.
          2    1    1    2  501    0  0.10097764274E+02 -0.65741462023E+02  0.56877632196E+03  0.57265208382E+03  0.25500000000E-02 0.  1.
<mgrwt>
<rscale>  0 0.29333097E+02</rscale>
<asrwt>0</asrwt>
<pdfrwt beam="1">  1       11 0.10000000E+01 0.66885607E+02</pdfrwt>
<pdfrwt beam="2">  1        2 0.88778106E-03 0.29333097E+02</pdfrwt>
<totfact> 0.14522922E+04</totfact>
</mgrwt>
</event>
<event>
 5    1  0.6729100E-004  0.1259034E+03  0.7818608E-02  0.1233664E+00
         11   -1    0    0    0    0  0.00000000000E+00  0.00000000000E+00  0.10001934468E+04  0.10001934468E+04  0.51100000000E-03 0. -1.
          2   -1    0    0  501    0 -0.00000000000E+00 -0.00000000000E+00 -0.15480852103E+02  0.15480852313E+02  0.25500000000E-02 0. -1.
         11    1    1    2    0    0  0.24340473978E+01 -0.11431221532E+03  0.60267597688E+03  0.61342606748E+03  0.51100000000E-03 0. -1.
         22    1    1    2    0    0  0.21448560169E+02  0.26755117546E+02  0.85001538784E+02  0.91657725500E+02  0.00000000000E+00 0. -1.
          2    1    1    2  501    0 -0.23882607566E+02  0.87557097776E+02  0.29703507903E+03  0.31059050612E+03  0.25500000000E-02 0. -1.
<mgrwt>
<rscale>  0 0.12590339E+03</rscale>
<asrwt>0</asrwt>
<pdfrwt beam="1">  1       11 0.10000000E+01 0.11433813E+03</pdfrwt>
<pdfrwt beam="2">  1        2 0.23821302E-02 0.12590339E+03</pdfrwt>
<totfact> 0.48850249E+03</totfact>
</mgrwt>
</event>
<event>
 5    1  0.6729100E-004  0.1582264E+03  0.7818608E-02  0.1190714E+00
         11   -1    0    0    0    0  0.00000000000E+00  0.00000000000E+00  0.10003716085E+04  0.10003716085E+04  0.51100000000E-03 0. -1.
          2   -1    0    0  501    0 -0.00000000000E+00 -0.00000000000E+00 -0.10259488856E+03  0.10259488859E+03  0.25500000000E-02 0. -1.
         11    1    1    2    0    0 -0.19235805703E+03 -0.18405429834E+02  0.54804564095E+03  0.58111479634E+03  0.51100000000E-03 0. -1.
         22    1    1    2    0    0  0.55425165852E+02  0.96338286171E+02  0.34689943730E+03  0.36426945246E+03  0.00000000000E+00 0. -1.
          2    1    1    2  501    0  0.13693289118E+03 -0.77932856336E+02  0.28316417020E+01  0.15758224832E+03  0.25500000000E-02 0. -1.
<mgrwt>
<rscale>  0 0.15822641E+03</rscale>
<asrwt>0</asrwt>
<pdfrwt beam="1">  1       11 0.10000000E+01 0.11114412E+03</pdfrwt>
<pdfrwt beam="2">  1        2 0.15789694E-01 0.15822641E+03</pdfrwt>
<totfact> 0.44332053E+02</totfact>
</mgrwt>
</event>
<event>
 5    1  0.6729100E-004  0.2328314E+03  0.7818608E-02  0.1631230E+00
         11   -1    0    0    0    0  0.00000000000E+00  0.00000000000E+00  0.10003382685E+04  0.10003382685E+04  0.51100000000E-03 0.  1.
         -2   -1    0    0    0  501 -0.00000000000E+00 -0.00000000000E+00 -0.36151635010E+03  0.36151635011E+03  0.25500000000E-02 0. -1.
         11    1    1    2    0    0 -0.19660578012E+02 -0.25046649685E+03  0.33132028694E+03  0.41580420502E+03  0.51100000000E-03 0.  1.
         22    1    1    2    0    0  0.15780298502E+02  0.22354110784E+03  0.60610701156E+03  0.64620844483E+03  0.00000000000E+00 0.  1.
         -2    1    1    2    0  501  0.38802795101E+01  0.26925389014E+02 -0.29860538014E+03  0.29984196871E+03  0.25500000000E-02 0. -1.
<mgrwt>
<rscale>  0 0.27203550E+02</rscale>
<asrwt>0</asrwt>
<pdfrwt beam="1">  1       11 0.10000000E+01 0.23283143E+03</pdfrwt>
<pdfrwt beam="2">  1       -2 0.55636712E-01 0.27203550E+02</pdfrwt>
<totfact> 0.25113810E+01</totfact>
</mgrwt>
</event>
<event>
 5    1  0.6729100E-004  0.2605778E+03  0.7818608E-02  0.1117634E+00
         11   -1    0    0    0    0  0.00000000000E+00  0.00000000000E+00  0.10002054959E+04  0.10002054959E+04  0.51100000000E-03 0. -1.
         -2   -1    0    0    0  501 -0.00000000000E+00 -0.00000000000E+00 -0.68053060584E+02  0.68053060632E+02  0.25500000000E-02 0.  1.
         11    1    1    2    0    0  0.10923577091E+03  0.15989750448E+03  0.37510887866E+03  0.42214492349E+03  0.51100000000E-03 0. -1.
         22    1    1    2    0    0  0.42681380286E+02  0.30105546106E+02  0.24469655560E+03  0.25020880970E+03  0.00000000000E+00 0. -1.
         -2    1    1    2    0  501 -0.15191715120E+03 -0.19000305059E+03  0.31234700104E+03  0.39590482332E+03  0.25500000000E-02 0.  1.
<mgrwt>
<rscale>  0 0.24326936E+03</rscale>
<asrwt>0</asrwt>
<pdfrwt beam="1">  1       11 0.10000000E+01 0.26057775E+03</pdfrwt>
<pdfrwt beam="2">  1       -2 0.10471853E-01 0.24326936E+03</pdfrwt>
<totfact> 0.48998447E+02</totfact>
</mgrwt>
</event>
<event>
 5    1  0.6729100E-004  0.6037480E+03  0.7818608E-02  0.9897660E-01
         11   -1    0    0    0    0  0.00000000000E+00  0.00000000000E+00  0.99993580856E+03  0.99993580856E+03  0.51100000000E-03 0. -1.
          2   -1    0    0  501    0 -0.00000000000E+00 -0.00000000000E+00 -0.46090318008E+03  0.46090318008E+03  0.25500000000E-02 0. -1.
         11    1    1    2    0    0  0.41327799491E+03 -0.45160257052E+03  0.47325985543E+03  0.77376900529E+03  0.51100000000E-03 0. -1.
         22    1    1    2    0    0 -0.28500583243E+02 -0.87742304995E+01  0.81582020351E+02  0.86861363163E+02  0.00000000000E+00 0. -1.
          2    1    1    2  501    0 -0.38477741167E+03  0.46037680102E+03 -0.15809247301E+02  0.60020862019E+03  0.25500000000E-02 0. -1.
<mgrwt>
<rscale>  0 0.60374804E+03</rscale>
<asrwt>0</asrwt>
<pdfrwt beam="1">  1       11 0.10000000E+01 0.29820637E+02</pdfrwt>
<pdfrwt beam="2">  1        2 0.70903628E-01 0.60374804E+03</pdfrwt>
<totfact> 0.84001823E+01</totfact>
</mgrwt>
</event>
<event>
 5    1  0.6729100E-004  0.1579058E+03  0.7818608E-02  0.1200026E+00
         11   -1    0    0    0    0  0.00000000000E+00  0.00000000000E+00  0.10002031871E+04  0.10002031871E+04  0.51100000000E-03 0.  1.
          2   -1    0    0  501    0 -0.00000000000E+00 -0.00000000000E+00 -0.24432603835E+02  0.24432603968E+02  0.25500000000E-02 0.  1.
         11    1    1    2    0    0  0.21187467498E+02  0.11941391802E+03  0.40138815793E+03  0.41931020251E+03  0.51100000000E-03 0.  1.
         22    1    1    2    0    0  0.22891608079E+02  0.24344779654E+02  0.18352939283E+03  0.18654686288E+03  0.00000000000E+00 0.  1.
          2    1    1    2  501    0 -0.44079075577E+02 -0.14375869768E+03  0.39085303246E+03  0.41877872564E+03  0.25500000000E-02 0.  1.
<mgrwt>
<rscale>  0 0.15036465E+03</rscale>
<asrwt>0</asrwt>
<pdfrwt beam="1">  1       11 0.10000000E+01 0.15790580E+03</pdfrwt>
<pdfrwt beam="2">  1        2 0.37596258E-02 0.15036465E+03</pdfrwt>
<totfact> 0.26934008E+03</totfact>
</mgrwt>
</event>
<event>
 5    1  0.6729100E-004  0.1048430E+03  0.7818608E-02  0.1302327E+00
         11   -1    0    0    0    0  0.00000000000E+00  0.00000000000E+00  0.99943332078E+03  0.99943332078E+03  0.51100000000E-03 0. -1.
          2   -1    0    0  501    0 -0.00000000000E+00 -0.00000000000E+00 -0.14381567271E+04  0.14381567271E+04  0.25500000000E-02 0. -1.
         11    1    1    2    0    0 -0.19518534336E+02 -0.90192996069E+02  0.50971281227E+03  0.51799893891E+03  0.51100000000E-03 0. -1.
         22    1    1    2    0    0 -0.48080004052E+02  0.14993864851E+03  0.47134313092E+03  0.49694831942E+03  0.00000000000E+00 0. -1.
          2    1    1    2  501    0  0.67598538388E+02 -0.59745652441E+02 -0.14197793495E+04  0.14226427896E+04  0.25500000000E-02 0. -1.
<mgrwt>
<rscale>  0 0.90216991E+02</rscale>
<asrwt>0</asrwt>
<pdfrwt beam="1">  1       11 0.10000000E+01 0.10484301E+03</pdfrwt>
<pdfrwt beam="2">  1        2 0.22112949E+00 0.90216991E+02</pdfrwt>
<totfact> 0.20062597E+01</totfact>
</mgrwt>
</event>
<event>
 5    1  0.6729100E-004  0.1174613E+03  0.7818608E-02  0.1247345E+00
         11   -1    0    0    0    0  0.00000000000E+00  0.00000000000E+00  0.10001497622E+04  0.10001497622E+04  0.51100000000E-03 0.  1.
          2   -1    0    0  501    0 -0.00000000000E+00 -0.00000000000E+00 -0.67409891341E+02  0.67409891389E+02  0.25500000000E-02 0.  1.
         11    1    1    2    0    0  0.10396548274E+02 -0.16799933689E+03  0.70082277413E+03  0.72075268029E+03  0.51100000000E-03 0.  1.
         22    1    1    2    0    0  0.26563090578E+02  0.60637003996E+02  0.22333195587E+03  0.23293691538E+03  0.00000000000E+00 0.  1.
          2    1    1    2  501    0 -0.36959638852E+02  0.10736233290E+03  0.85851408112E+01  0.11387005787E+03  0.25500000000E-02 0.  1.
<mgrwt>
<rscale>  0 0.11746126E+03</rscale>
<asrwt>0</asrwt>
<pdfrwt beam="1">  1       11 0.10000000E+01 0.66200030E+02</pdfrwt>
<pdfrwt beam="2">  1        2 0.10372305E-01 0.11746126E+03</pdfrwt>
<totfact> 0.72146706E+02</totfact>
</mgrwt>
</event>
<event>
 5    1  0.6729100E-004  0.8796737E+02  0.7818608E-02  0.1546464E+00
         11   -1    0    0    0    0  0.00000000000E+00  0.00000000000E+00  0.10003362158E+04  0.10003362158E+04  0.51100000000E-03 0.  1.
          2   -1    0    0  501    0 -0.00000000000E+00 -0.00000000000E+00 -0.69016988514E+02  0.69016988561E+02  0.25500000000E-02 0. -1.
         11    1    1    2    0    0  0.10123820402E+02  0.10378941949E+03  0.59287367572E+03  0.60197502497E+03  0.51100000000E-03 0.  1.
         22    1    1    2    0    0 -0.24984297728E+02 -0.71833992909E+02  0.39417250990E+03  0.40144277952E+03  0.00000000000E+00 0.  1.
          2    1    1    2  501    0  0.14860477326E+02 -0.31955426580E+02 -0.55726958287E+02  0.65935399905E+02  0.25500000000E-02 0. -1.
<mgrwt>
<rscale>  0 0.35241780E+02</rscale>
<asrwt>0</asrwt>
<pdfrwt beam="1">  1       11 0.10000000E+01 0.87967367E+02</pdfrwt>
<pdfrwt beam="2">  1        2 0.10621568E-01 0.35241780E+02</pdfrwt>
<totfact> 0.64604676E+02</totfact>
</mgrwt>
</event>
<event>
 5    1  0.6729100E-004  0.1234094E+03  0.7818608E-02  0.1487677E+00
         11   -1    0    0    0    0  0.00000000000E+00  0.00000000000E+00  0.10002239906E+04  0.10002239906E+04  0.51100000000E-03 0. -1.
          2   -1    0    0  501    0 -0.00000000000E+00 -0.00000000000E+00 -0.32694726056E+03  0.32694726057E+03  0.25500000000E-02 0.  1.
         11    1    1    2    0    0  0.92669948935E+01 -0.14173888539E+03  0.45319838559E+03  0.47493638051E+03  0.51100000000E-03 0. -1.
         22    1    1    2    0    0  0.22023027139E+02  0.11234266248E+03  0.52854188713E+03  0.54079794192E+03  0.00000000000E+00 0. -1.
          2    1    1    2  501    0 -0.31290022032E+02  0.29396222913E+02 -0.30846354269E+03  0.31143692873E+03  0.25500000000E-02 0.  1.
<mgrwt>
<rscale>  0 0.42932545E+02</rscale>
<asrwt>0</asrwt>
<pdfrwt beam="1">  1       11 0.10000000E+01 0.12340943E+03</pdfrwt>
<pdfrwt beam="2">  1        2 0.50310844E-01 0.42932545E+02</pdfrwt>
<totfact> 0.12289499E+02</totfact>
</mgrwt>
</event>
<event>
 5    1  0.6729100E-004  0.1624595E+03  0.7818608E-02  0.1185948E+00
         11   -1    0    0    0    0  0.00000000000E+00  0.00000000000E+00  0.10000049108E+04  0.10000049108E+04  0.51100000000E-03 0. -1.
          2   -1    0    0  501    0 -0.00000000000E+00 -0.00000000000E+00 -0.28189487545E+03  0.28189487546E+03  0.25500000000E-02 0.  1.
         11    1    1    2    0    0 -0.13530653230E+03  0.85429384923E+02  0.89671145609E+03  0.91087730951E+03  0.51100000000E-03 0. -1.
         22    1    1    2    0    0 -0.94279120767E+01 -0.11458274336E+02  0.71345811979E+02  0.72872508285E+02  0.00000000000E+00 0.  1.
          2    1    1    2  501    0  0.14473444438E+03 -0.73971110587E+02 -0.24994723268E+03  0.29814996851E+03  0.25500000000E-02 0.  1.
<mgrwt>
<rscale>  0 0.16245946E+03</rscale>
<asrwt>0</asrwt>
<pdfrwt beam="1">  1       11 0.10000000E+01 0.14838382E+02</pdfrwt>
<pdfrwt beam="2">  1        2 0.43368654E-01 0.16245946E+03</pdfrwt>
<totfact> 0.14483174E+02</totfact>
</mgrwt>
</event>
<event>
 5    1  0.6729100E-004  0.5287224E+03  0.7818608E-02  0.1006542E+00
         11   -1    0    0    0    0  0.00000000000E+00  0.00000000000E+00  0.99978237637E+03  0.99978237637E+03  0.51100000000E-03 0. -1.
          2   -1    0    0  501    0 -0.00000000000E+00 -0.00000000000E+00 -0.19228487783E+04  0.19228487783E+04  0.25500000000E-02 0. -1.
         11    1    1    2    0    0 -0.11899660456E+03  0.47770523395E+03  0.64220047218E+03  0.80918720263E+03  0.51100000000E-03 0. -1.
         22    1    1    2    0    0  0.98978199329E+02  0.53109181070E+02  0.22205951562E+03  0.24885276276E+03  0.00000000000E+00 0. -1.
          2    1    1    2  501    0  0.20018405234E+02 -0.53081441502E+03 -0.17873263897E+04  0.18645911893E+04  0.25500000000E-02 0. -1.
<mgrwt>
<rscale>  0 0.52872243E+03</rscale>
<asrwt>0</asrwt>
<pdfrwt beam="1">  1       11 0.10000000E+01 0.11232662E+03</pdfrwt>
<pdfrwt beam="2">  1        2 0.29575850E+00 0.52872243E+03</pdfrwt>
<totfact> 0.96255745E+00</totfact>
</mgrwt>
</event>
<event>
 5    1  0.6729100E-004  0.8695961E+02  0.7818608E-02  0.1551164E+00
         11   -1    0    0    0    0  0.00000000000E+00  0.00000000000E+00  0.99985060305E+03  0.99985060305E+03  0.51100000000E-03 0.  1.
          2   -1    0    0  501    0 -0.00000000000E+00 -0.00000000000E+00 -0.89291176360E+01  0.89291180001E+01  0.25500000000E-02 0.  1.
         11    1    1    2    0    0 -0.44115400636E+02 -0.76152530853E+02  0.45252503245E+03  0.46100355912E+03  0.51100000000E-03 0.  1.
         22    1    1    2    0    0 -0.10500221762E+02  0.90421606440E+01  0.56579492824E+02  0.58251646624E+02  0.00000000000E+00 0. -1.
          2    1    1    2  501    0  0.54615622398E+02  0.67110370209E+02  0.48181696014E+03  0.48952451531E+03  0.25500000000E-02 0.  1.
<mgrwt>
<rscale>  0 0.34713040E+02</rscale>
<asrwt>0</asrwt>
<pdfrwt beam="1">  1       11 0.10000000E+01 0.86959609E+02</pdfrwt>
<pdfrwt beam="2">  1        2 0.13735052E-02 0.34713040E+02</pdfrwt>
<totfact> 0.84524816E+03</totfact>
</mgrwt>
</event>
<event>
 5    1  0.8570943E-004  0.1884353E+03  0.7818608E-02  0.1165625E+00
         11   -1    0    0    0    0  0.00000000000E+00  0.00000000000E+00  0.10001206258E+04  0.10001206258E+04  0.51100000000E-03 0.  1.
          2   -1    0    0  501    0 -0.00000000000E+00 -0.00000000000E+00 -0.11616785730E+04  0.11616785730E+04  0.25500000000E-02 0.  1.
         11    1    1    2    0    0  0.16306768901E+03  0.29126922332E+02  0.93207030346E+03  0.94667549847E+03  0.51100000000E-03 0.  1.
         22    1    1    2    0    0  0.17732076790E+02 -0.60267788118E+01  0.51904963494E+02  0.55180375547E+02  0.00000000000E+00 0.  1.
          2    1    1    2  501    0 -0.18079976580E+03 -0.23100143520E+02 -0.11455332142E+04  0.11599433248E+04  0.25500000000E-02 0.  1.
<mgrwt>
<rscale>  0 0.18226950E+03</rscale>
<asrwt>0</asrwt>
<pdfrwt beam="1">  1       11 0.10000000E+01 0.18843531E+03</pdfrwt>
<pdfrwt beam="2">  1        2 0.17874133E+00 0.18226950E+03</pdfrwt>
<totfact> 0.26925671E+01</totfact>
</mgrwt>
</event>
<event>
 5    1  0.6729100E-004  0.2686503E+03  0.7818608E-02  0.1493379E+00
         11   -1    0    0    0    0  0.00000000000E+00  0.00000000000E+00  0.10004084195E+04  0.10004084195E+04  0.51100000000E-03 0. -1.
          2   -1    0    0  501    0 -0.00000000000E+00 -0.00000000000E+00 -0.19620888021E+03  0.19620888022E+03  0.25500000000E-02 0. -1.
         11    1    1    2    0    0  0.60564951157E+02 -0.23112272910E+03  0.13024373969E+03  0.27211993852E+03  0.51100000000E-03 0. -1.
         22    1    1    2    0    0 -0.57145579288E+02  0.27307248700E+03  0.77035126445E+03  0.81931390262E+03  0.00000000000E+00 0. -1.
          2    1    1    2  501    0 -0.34193718685E+01 -0.41949757905E+02 -0.96395464885E+02  0.10518345853E+03  0.25500000000E-02 0. -1.
<mgrwt>
<rscale>  0 0.42088886E+02</rscale>
<asrwt>0</asrwt>
<pdfrwt beam="1">  1       11 0.10000000E+01 0.26865032E+03</pdfrwt>
<pdfrwt beam="2">  1        2 0.30198309E-01 0.42088886E+02</pdfrwt>
<totfact> 0.20698118E+02</totfact>
</mgrwt>
</event>
<event>
 5    1  0.6729100E-004  0.7392774E+03  0.7818608E-02  0.1297237E+00
         11   -1    0    0    0    0  0.00000000000E+00  0.00000000000E+00  0.99977317069E+03  0.99977317069E+03  0.51100000000E-03 0. -1.
          2   -1    0    0  501    0 -0.00000000000E+00 -0.00000000000E+00 -0.56203825973E+03  0.56203825973E+03  0.25500000000E-02 0. -1.
         11    1    1    2    0    0  0.45666105085E+03  0.57766874513E+03  0.12853317978E+03  0.74750335971E+03  0.51100000000E-03 0. -1.
         22    1    1    2    0    0 -0.48584678395E+01  0.10465927188E+02  0.28378199587E+01  0.11882489797E+02  0.00000000000E+00 0.  1.
          2    1    1    2  501    0 -0.45180258301E+03 -0.58813467232E+03  0.30636391123E+03  0.80242558092E+03  0.25500000000E-02 0. -1.
<mgrwt>
<rscale>  0 0.92359384E+02</rscale>
<asrwt>0</asrwt>
<pdfrwt beam="1">  1       11 0.10000000E+01 0.73927742E+03</pdfrwt>
<pdfrwt beam="2">  1        2 0.86447809E-01 0.92359384E+02</pdfrwt>
<totfact> 0.69370156E+01</totfact>
</mgrwt>
</event>
<event>
 5    1  0.6729100E-004  0.1807886E+03  0.7818608E-02  0.1176608E+00
         11   -1    0    0    0    0  0.00000000000E+00  0.00000000000E+00  0.10004554712E+04  0.10004554712E+04  0.51100000000E-03 0. -1.
          2   -1    0    0  501    0 -0.00000000000E+00 -0.00000000000E+00 -0.35277168460E+02  0.35277168552E+02  0.25500000000E-02 0. -1.
         11    1    1    2    0    0 -0.13416500691E+03 -0.50280542990E+02  0.50228872673E+03  0.52232398670E+03  0.51100000000E-03 0. -1.
         22    1    1    2    0    0 -0.15589750869E+02 -0.32670530051E+02  0.17297377628E+03  0.17672105462E+03  0.00000000000E+00 0.  1.
          2    1    1    2  501    0  0.14975475778E+03  0.82951073041E+02  0.28991579970E+03  0.33668759840E+03  0.25500000000E-02 0. -1.
<mgrwt>
<rscale>  0 0.17119395E+03</rscale>
<asrwt>0</asrwt>
<pdfrwt beam="1">  1       11 0.10000000E+01 0.18078861E+03</pdfrwt>
<pdfrwt beam="2">  1        2 0.54297285E-02 0.17119395E+03</pdfrwt>
<totfact> 0.16757089E+03</totfact>
</mgrwt>
</event>
<event>
 5    1  0.6729100E-004  0.9796667E+02  0.7818608E-02  0.1491019E+00
         11   -1    0    0    0    0  0.00000000000E+00  0.00000000000E+00  0.10002630472E+04  0.10002630472E+04  0.51100000000E-03 0. -1.
          2   -1    0    0  501    0 -0.00000000000E+00 -0.00000000000E+00 -0.17992248115E+03  0.17992248116E+03  0.25500000000E-02 0. -1.
         11    1    1    2    0    0  0.24666113587E+02 -0.84922499989E+02  0.52966186468E+03  0.53699342553E+03  0.51100000000E-03 0. -1.
         22    1    1    2    0    0 -0.62839768310E+02  0.10345672668E+03  0.45637153790E+03  0.47215157670E+03  0.00000000000E+00 0.  1.
          2    1    1    2  501    0  0.38173654723E+02 -0.18534226687E+02 -0.16569283656E+03  0.17104052610E+03  0.25500000000E-02 0. -1.
<mgrwt>
<rscale>  0 0.42435192E+02</rscale>
<asrwt>0</asrwt>
<pdfrwt beam="1">  1       11 0.10000000E+01 0.97966668E+02</pdfrwt>
<pdfrwt beam="2">  1        2 0.27687662E-01 0.42435192E+02</pdfrwt>
<totfact> 0.22665621E+02</totfact>
</mgrwt>
</event>
<event>
 5    1  0.6729100E-004  0.7489097E+02  0.7818608E-02  0.1344209E+00
         11   -1    0    0    0    0  0.00000000000E+00  0.00000000000E+00  0.10001632119E+04  0.10001632119E+04  0.51100000000E-03 0. -1.
         -2   -1    0    0    0  501 -0.00000000000E+00 -0.00000000000E+00 -0.31186191439E+02  0.31186191544E+02  0.25500000000E-02 0. -1.
         11    1    1    2    0    0 -0.11299028018E+03 -0.82908257772E+01  0.67847181096E+03  0.68786593132E+03  0.51100000000E-03 0. -1.
         22    1    1    2    0    0  0.41425254502E+02  0.16776735319E+02  0.26232216256E+03  0.26610228772E+03  0.00000000000E+00 0. -1.
         -2    1    1    2    0  501  0.71565025674E+02 -0.84859095422E+01  0.28183046962E+02  0.77381184425E+02  0.25500000000E-02 0. -1.
<mgrwt>
<rscale>  0 0.74890968E+02</rscale>
<asrwt>0</asrwt>
<pdfrwt beam="1">  1       11 0.10000000E+01 0.44693518E+02</pdfrwt>
<pdfrwt beam="2">  1       -2 0.47986585E-02 0.74890968E+02</pdfrwt>
<totfact> 0.14839651E+03</totfact>
</mgrwt>
</event>
<event>
 5    1  0.6729100E-004  0.3533621E+03  0.7818608E-02  0.1061244E+00
         11   -1    0    0    0    0  0.00000000000E+00  0.00000000000E+00  0.99994864028E+03  0.99994864028E+03  0.51100000000E-03 0. -1.
          2   -1    0    0  501    0 -0.00000000000E+00 -0.00000000000E+00 -0.28434107793E+03  0.28434107794E+03  0.25500000000E-02 0. -1.
         11    1    1    2    0    0  0.34055019783E+03  0.11062070084E+03  0.72848120872E+03  0.81172424391E+03  0.51100000000E-03 0. -1.
         22    1    1    2    0    0 -0.14869363029E+02  0.24862173457E+02  0.98493252635E+02  0.10266521534E+03  0.00000000000E+00 0. -1.
          2    1    1    2  501    0 -0.32568083480E+03 -0.13548287429E+03 -0.11136689900E+03  0.36990025897E+03  0.25500000000E-02 0. -1.
<mgrwt>
<rscale>  0 0.35336206E+03</rscale>
<asrwt>0</asrwt>
<pdfrwt beam="1">  1       11 0.10000000E+01 0.28969391E+02</pdfrwt>
<pdfrwt beam="2">  1        2 0.43742533E-01 0.35336206E+03</pdfrwt>
<totfact> 0.14392291E+02</totfact>
</mgrwt>
</event>
<event>
 5    1  0.6729100E-004  0.2336942E+03  0.7818608E-02  0.1125345E+00
         11   -1    0    0    0    0  0.00000000000E+00  0.00000000000E+00  0.10000339750E+04  0.10000339750E+04  0.51100000000E-03 0.  1.
          2   -1    0    0  501    0 -0.00000000000E+00 -0.00000000000E+00 -0.10680823307E+03  0.10680823310E+03  0.25500000000E-02 0.  1.
         11    1    1    2    0    0 -0.43779087730E+02  0.21153707346E+03  0.76012431386E+03  0.79022371168E+03  0.51100000000E-03 0.  1.
         22    1    1    2    0    0  0.39243891914E+01  0.16860639635E+02  0.75856942300E+02  0.77807182795E+02  0.00000000000E+00 0.  1.
          2    1    1    2  501    0  0.39854698538E+02 -0.22839771309E+03  0.57244485722E+02  0.23881131358E+03  0.25500000000E-02 0.  1.
<mgrwt>
<rscale>  0 0.23184890E+03</rscale>
<asrwt>0</asrwt>
<pdfrwt beam="1">  1       11 0.10000000E+01 0.23369419E+03</pdfrwt>
<pdfrwt beam="2">  1        2 0.16432594E-01 0.23184890E+03</pdfrwt>
<totfact> 0.42895411E+02</totfact>
</mgrwt>
</event>
<event>
 5    1  0.6729100E-004  0.4505500E+03  0.7818608E-02  0.1027558E+00
         11   -1    0    0    0    0  0.00000000000E+00  0.00000000000E+00  0.10000630628E+04  0.10000630628E+04  0.51100000000E-03 0. -1.
          2   -1    0    0  501    0 -0.00000000000E+00 -0.00000000000E+00 -0.44709052522E+03  0.44709052523E+03  0.25500000000E-02 0. -1.
         11    1    1    2    0    0  0.42117174094E+03 -0.12600915218E+03  0.70745461576E+03  0.83292014933E+03  0.51100000000E-03 0. -1.
         22    1    1    2    0    0  0.20467600126E+02  0.26930119847E+02  0.92587871662E+02  0.98573160591E+02  0.00000000000E+00 0.  1.
          2    1    1    2  501    0 -0.44163934106E+03  0.99079032331E+02 -0.24706994989E+03  0.51566027806E+03  0.25500000000E-02 0. -1.
<mgrwt>
<rscale>  0 0.45054995E+03</rscale>
<asrwt>0</asrwt>
<pdfrwt beam="1">  1       11 0.10000000E+01 0.33825346E+02</pdfrwt>
<pdfrwt beam="2">  1        2 0.68787493E-01 0.45054995E+03</pdfrwt>
<totfact> 0.87280667E+01</totfact>
</mgrwt>
</event>
<event>
 5    1  0.6729100E-004  0.3269638E+03  0.7818608E-02  0.1072488E+00
         11   -1    0    0    0    0  0.00000000000E+00  0.00000000000E+00  0.10000429167E+04  0.10000429167E+04  0.51100000000E-03 0. -1.
          2   -1    0    0  501    0 -0.00000000000E+00 -0.00000000000E+00 -0.14211888159E+03  0.14211888162E+03  0.25500000000E-02 0. -1.
         11    1    1    2    0    0 -0.61887236158E+01 -0.34823286381E+03  0.55540235469E+03  0.65557318686E+03  0.51100000000E-03 0. -1.
         22    1    1    2    0    0 -0.26332288788E+01  0.31235924656E+02  0.11274412976E+03  0.11702074892E+03  0.00000000000E+00 0.  1.
          2    1    1    2  501    0  0.88219524946E+01  0.31699693916E+03  0.18977755068E+03  0.36956786255E+03  0.25500000000E-02 0. -1.
<mgrwt>
<rscale>  0 0.32696379E+03</rscale>
<asrwt>0</asrwt>
<pdfrwt beam="1">  1       11 0.10000000E+01 0.31346720E+02</pdfrwt>
<pdfrwt beam="2">  1        2 0.21865381E-01 0.32696379E+03</pdfrwt>
<totfact> 0.31089710E+02</totfact>
</mgrwt>
</event>
<event>
 5    1  0.6729100E-004  0.8469451E+03  0.7818608E-02  0.9501949E-01
         11   -1    0    0    0    0  0.00000000000E+00  0.00000000000E+00  0.10000080713E+04  0.10000080713E+04  0.51100000000E-03 0. -1.
          2   -1    0    0  501    0 -0.00000000000E+00 -0.00000000000E+00 -0.16227403703E+04  0.16227403703E+04  0.25500000000E-02 0.  1.
         11    1    1    2    0    0 -0.80026908293E+03 -0.22428545197E+03  0.65910432493E+03  0.10607323320E+04  0.51100000000E-03 0. -1.
         22    1    1    2    0    0 -0.65785167635E+01 -0.14369302926E+02  0.11166672809E+02  0.19350667456E+02  0.00000000000E+00 0.  1.
          2    1    1    2  501    0  0.80684759969E+03  0.23865475490E+03 -0.12930032967E+04  0.15426654422E+04  0.25500000000E-02 0.  1.
<mgrwt>
<rscale>  0 0.84140308E+03</rscale>
<asrwt>0</asrwt>
<pdfrwt beam="1">  1       11 0.10000000E+01 0.84694514E+03</pdfrwt>
<pdfrwt beam="2">  1        2 0.24965437E+00 0.84140308E+03</pdfrwt>
<totfact> 0.13495201E+01</totfact>
</mgrwt>
</event>
<event>
 5    1  0.6729100E-004  0.1489382E+03  0.7818608E-02  0.1314411E+00
         11   -1    0    0    0    0  0.00000000000E+00  0.00000000000E+00  0.10003405191E+04  0.10003405191E+04  0.51100000000E-03 0. -1.
         -2   -1    0    0    0  501 -0.00000000000E+00 -0.00000000000E+00 -0.12118987584E+03  0.12118987586E+03  0.25500000000E-02 0.  1.
         11    1    1    2    0    0  0.69372493779E+02  0.11471295575E+03  0.27679358825E+03  0.30754885076E+03  0.51100000000E-03 0. -1.
         22    1    1    2    0    0 -0.14694874186E+03 -0.79023749698E+02  0.67902398816E+03  0.69922261279E+03  0.00000000000E+00 0. -1.
         -2    1    1    2    0  501  0.77576248077E+02 -0.35689206052E+02 -0.76666933141E+02  0.11475893141E+03  0.25500000000E-02 0.  1.
<mgrwt>
<rscale>  0 0.85392000E+02</rscale>
<asrwt>0</asrwt>
<pdfrwt beam="1">  1       11 0.10000000E+01 0.14893816E+03</pdfrwt>
<pdfrwt beam="2">  1       -2 0.18650945E-01 0.85392000E+02</pdfrwt>
<totfact> 0.18259889E+02</totfact>
</mgrwt>
</event>
<event>
 5    1  0.6729100E-004  0.4469372E+02  0.7818608E-02  0.1634710E+00
         11   -1    0    0    0    0  0.00000000000E+00  0.00000000000E+00  0.10001307547E+04  0.10001307547E+04  0.51100000000E-03 0.  1.
          2   -1    0    0  501    0 -0.00000000000E+00 -0.00000000000E+00 -0.43553994473E+01  0.43554001938E+01  0.25500000000E-02 0.  1.
         11    1    1    2    0    0 -0.57338160740E+02  0.65795130804E+00  0.32116648273E+03  0.32624531753E+03  0.51100000000E-03 0.  1.
         22    1    1    2    0    0  0.16134582264E+02  0.17464255795E+01  0.57304766979E+02  0.59558467624E+02  0.00000000000E+00 0.  1.
          2    1    1    2  501    0  0.41203578476E+02 -0.24043768875E+01  0.61730410555E+03  0.61868236976E+03  0.25500000000E-02 0.  1.
<mgrwt>
<rscale>  0 0.26931879E+02</rscale>
<asrwt>0</asrwt>
<pdfrwt beam="1">  1       11 0.10000000E+01 0.44693717E+02</pdfrwt>
<pdfrwt beam="2">  1        2 0.67014911E-03 0.26931879E+02</pdfrwt>
<totfact> 0.20636034E+04</totfact>
</mgrwt>
</event>
<event>
 5    1  0.6729100E-004  0.5332491E+02  0.7818608E-02  0.1519547E+00
         11   -1    0    0    0    0  0.00000000000E+00  0.00000000000E+00  0.10002674789E+04  0.10002674789E+04  0.51100000000E-03 0. -1.
          2   -1    0    0  501    0 -0.00000000000E+00 -0.00000000000E+00 -0.92702347993E+01  0.92702351500E+01  0.25500000000E-02 0. -1.
         11    1    1    2    0    0 -0.23613784240E+02 -0.51781222366E+02  0.12469080717E+03  0.13706459495E+03  0.51100000000E-03 0. -1.
         22    1    1    2    0    0 -0.19526370979E+02  0.19783582692E+02  0.87330015264E+02  0.91647154204E+02  0.00000000000E+00 0. -1.
          2    1    1    2  501    0  0.43140155219E+02  0.31997639674E+02  0.77897642167E+03  0.78082596490E+03  0.25500000000E-02 0. -1.
<mgrwt>
<rscale>  0 0.38500234E+02</rscale>
<asrwt>0</asrwt>
<pdfrwt beam="1">  1       11 0.10000000E+01 0.53324909E+02</pdfrwt>
<pdfrwt beam="2">  1        2 0.14265714E-02 0.38500234E+02</pdfrwt>
<totfact> 0.81928039E+03</totfact>
</mgrwt>
</event>
<event>
 5    1  0.6729100E-004  0.2354843E+03  0.7818608E-02  0.1125409E+00
         11   -1    0    0    0    0  0.00000000000E+00  0.00000000000E+00  0.10003440646E+04  0.10003440646E+04  0.51100000000E-03 0. -1.
          2   -1    0    0  501    0 -0.00000000000E+00 -0.00000000000E+00 -0.80105800324E+02  0.80105800364E+02  0.25500000000E-02 0. -1.
         11    1    1    2    0    0  0.87033761154E+01 -0.21942686849E+03  0.69897605741E+03  0.73266051361E+03  0.51100000000E-03 0. -1.
         22    1    1    2    0    0 -0.85606601281E+01 -0.12330947681E+02  0.68707661413E+02  0.70328372008E+02  0.00000000000E+00 0. -1.
          2    1    1    2  501    0 -0.14271598730E+00  0.23175781617E+03  0.15255454549E+03  0.27746097938E+03  0.25500000000E-02 0. -1.
<mgrwt>
<rscale>  0 0.23175786E+03</rscale>
<asrwt>0</asrwt>
<pdfrwt beam="1">  1       11 0.10000000E+01 0.23548431E+03</pdfrwt>
<pdfrwt beam="2">  1        2 0.12328209E-01 0.23175786E+03</pdfrwt>
<totfact> 0.60479707E+02</totfact>
</mgrwt>
</event>
<event>
 5    1  0.6729100E-004  0.8838294E+02  0.7818608E-02  0.1367748E+00
         11   -1    0    0    0    0  0.00000000000E+00  0.00000000000E+00  0.99994657154E+03  0.99994657154E+03  0.51100000000E-03 0.  1.
          2   -1    0    0  501    0 -0.00000000000E+00 -0.00000000000E+00 -0.18517248171E+02  0.18517248347E+02  0.25500000000E-02 0. -1.
         11    1    1    2    0    0  0.15050095012E+02 -0.10830885738E+03  0.58792828608E+03  0.59801085568E+03  0.51100000000E-03 0.  1.
         22    1    1    2    0    0  0.37671013679E+02  0.65683205907E+02  0.25884320509E+03  0.26969092241E+03  0.00000000000E+00 0. -1.
          2    1    1    2  501    0 -0.52721108692E+02  0.42625651471E+02  0.13465783220E+03  0.15076204178E+03  0.25500000000E-02 0. -1.
<mgrwt>
<rscale>  0 0.67797208E+02</rscale>
<asrwt>0</asrwt>
<pdfrwt beam="1">  1       11 0.10000000E+01 0.88382936E+02</pdfrwt>
<pdfrwt beam="2">  1        2 0.28486551E-02 0.67797208E+02</pdfrwt>
<totfact> 0.35758238E+03</totfact>
</mgrwt>
</event>
<event>
 5    1  0.6729100E-004  0.2304647E+03  0.7818608E-02  0.1129401E+00
         11   -1    0    0    0    0  0.00000000000E+00  0.00000000000E+00  0.10003744087E+04  0.10003744087E+04  0.51100000000E-03 0.  1.
          2   -1    0    0  501    0 -0.00000000000E+00 -0.00000000000E+00 -0.56213881478E+02  0.56213881536E+02  0.25500000000E-02 0.  1.
         11    1    1    2    0    0  0.33982095818E+02 -0.16982907633E+03  0.23498712493E+03  0.29191719182E+03  0.51100000000E-03 0.  1.
         22    1    1    2    0    0  0.31731350032E+02 -0.46531283435E+02  0.98308680686E+02  0.11329887736E+03  0.00000000000E+00 0.  1.
          2    1    1    2  501    0 -0.65713445850E+02  0.21636035976E+03  0.61086472160E+03  0.65137222104E+03  0.25500000000E-02 0.  1.
<mgrwt>
<rscale>  0 0.22611958E+03</rscale>
<asrwt>0</asrwt>
<pdfrwt beam="1">  1       11 0.10000000E+01 0.23046468E+03</pdfrwt>
<pdfrwt beam="2">  1        2 0.86515272E-02 0.22611958E+03</pdfrwt>
<totfact> 0.93714223E+02</totfact>
</mgrwt>
</event>
<event>
 5    1  0.6729100E-004  0.1027157E+03  0.7818608E-02  0.1274687E+00
         11   -1    0    0    0    0  0.00000000000E+00  0.00000000000E+00  0.10001070108E+04  0.10001070108E+04  0.51100000000E-03 0. -1.
          2   -1    0    0  501    0 -0.00000000000E+00 -0.00000000000E+00 -0.26583667612E+03  0.26583667613E+03  0.25500000000E-02 0. -1.
         11    1    1    2    0    0  0.86906070831E+02  0.54202628511E+02 -0.24265451160E+03  0.26338527310E+03  0.51100000000E-03 0. -1.
         22    1    1    2    0    0  0.46559861386E+02 -0.26650905300E+02  0.86649492217E+02  0.10191283505E+03  0.00000000000E+00 0. -1.
          2    1    1    2  501    0 -0.13346593222E+03 -0.27551723210E+02  0.89027535404E+03  0.90064557876E+03  0.25500000000E-02 0. -1.
<mgrwt>
<rscale>  0 0.10271568E+03</rscale>
<asrwt>0</asrwt>
<pdfrwt beam="1">  1       11 0.10000000E+01 0.53647847E+02</pdfrwt>
<pdfrwt beam="2">  1        2 0.40902326E-01 0.10271568E+03</pdfrwt>
<totfact> 0.15351329E+02</totfact>
</mgrwt>
</event>
<event>
 5    1  0.6729100E-004  0.3905701E+03  0.7818608E-02  0.1470783E+00
         11   -1    0    0    0    0  0.00000000000E+00  0.00000000000E+00  0.10000977158E+04  0.10000977158E+04  0.51100000000E-03 0. -1.
          2   -1    0    0  501    0 -0.00000000000E+00 -0.00000000000E+00 -0.22872476814E+03  0.22872476815E+03  0.25500000000E-02 0. -1.
         11    1    1    2    0    0  0.38825062525E+03 -0.56200443120E+02  0.11937071969E+03  0.41005658942E+03  0.51100000000E-03 0. -1.
         22    1    1    2    0    0 -0.37750297491E+03  0.10049017872E+03  0.66510563865E+03  0.77134446433E+03  0.00000000000E+00 0. -1.
          2    1    1    2  501    0 -0.10747650336E+02 -0.44289735597E+02 -0.13103410659E+02  0.47421430223E+02  0.25500000000E-02 0. -1.
<mgrwt>
<rscale>  0 0.45575132E+02</rscale>
<asrwt>0</asrwt>
<pdfrwt beam="1">  1       11 0.10000000E+01 0.39057006E+03</pdfrwt>
<pdfrwt beam="2">  1        2 0.35191863E-01 0.45575132E+02</pdfrwt>
<totfact> 0.17707528E+02</totfact>
</mgrwt>
</event>
<event>
 5    1  0.6729100E-004  0.9006350E+02  0.7818608E-02  0.1302698E+00
         11   -1    0    0    0    0  0.00000000000E+00  0.00000000000E+00  0.10002713920E+04  0.10002713920E+04  0.51100000000E-03 0. -1.
          2   -1    0    0  501    0 -0.00000000000E+00 -0.00000000000E+00 -0.79173226306E+01  0.79173230412E+01  0.25500000000E-02 0. -1.
         11    1    1    2    0    0 -0.67977649923E+02  0.53385361230E+02  0.42118479383E+03  0.42996231026E+03  0.51100000000E-03 0. -1.
         22    1    1    2    0    0  0.25115213840E+02 -0.59305288532E+01  0.14331035444E+03  0.14561525616E+03  0.00000000000E+00 0. -1.
          2    1    1    2  501    0  0.42862436083E+02 -0.47454832377E+02  0.42785892112E+03  0.43261114865E+03  0.25500000000E-02 0. -1.
<mgrwt>
<rscale>  0 0.90063499E+02</rscale>
<asrwt>0</asrwt>
<pdfrwt beam="1">  1       11 0.10000000E+01 0.86434745E+02</pdfrwt>
<pdfrwt beam="2">  1        2 0.12183802E-02 0.90063499E+02</pdfrwt>
<totfact> 0.11639190E+04</totfact>
</mgrwt>
</event>
<event>
 5    1  0.6729100E-004  0.3977175E+03  0.7818608E-02  0.1044573E+00
         11   -1    0    0    0    0  0.00000000000E+00  0.00000000000E+00  0.10004098327E+04  0.10004098327E+04  0.51100000000E-03 0.  1.
          2   -1    0    0  501    0 -0.00000000000E+00 -0.00000000000E+00 -0.35472699246E+03  0.35472699247E+03  0.25500000000E-02 0.  1.
         11    1    1    2    0    0  0.32912912243E+03 -0.23642604332E+02  0.26889094231E+03  0.42566100458E+03  0.51100000000E-03 0.  1.
         22    1    1    2    0    0  0.96762697428E+02 -0.48284719018E+02  0.47447683784E+03  0.48664432941E+03  0.00000000000E+00 0.  1.
          2    1    1    2  501    0 -0.42589181986E+03  0.71927323349E+02 -0.97684939923E+02  0.44283149116E+03  0.25500000000E-02 0.  1.
<mgrwt>
<rscale>  0 0.39771750E+03</rscale>
<asrwt>0</asrwt>
<pdfrwt beam="1">  1       11 0.10000000E+01 0.10814080E+03</pdfrwt>
<pdfrwt beam="2">  1        2 0.54595748E-01 0.39771750E+03</pdfrwt>
<totfact> 0.11291874E+02</totfact>
</mgrwt>
</event>
<event>
 5    1  0.6729100E-004  0.1511195E+03  0.7818608E-02  0.1667322E+00
         11   -1    0    0    0    0  0.00000000000E+00  0.00000000000E+00  0.99994489024E+03  0.99994489024E+03  0.51100000000E-03 0.  1.
          2   -1    0    0  501    0 -0.00000000000E+00 -0.00000000000E+00 -0.29000413571E+02  0.29000413683E+02  0.25500000000E-02 0.  1.
         11    1    1    2    0    0  0.13866685451E+03  0.50945440474E+02  0.48671811600E+03  0.50864374457E+03  0.51100000000E-03 0.  1.
         22    1    1    2    0    0 -0.13661385029E+03 -0.75425039683E+02  0.46020478578E+03  0.48594312996E+03  0.00000000000E+00 0.  1.
          2    1    1    2  501    0 -0.20530042219E+01  0.24479599209E+02  0.24021574883E+02  0.34358429389E+02  0.25500000000E-02 0.  1.
<mgrwt>
<rscale>  0 0.24565537E+02</rscale>
<asrwt>0</asrwt>
<pdfrwt beam="1">  1       11 0.10000000E+01 0.15111951E+03</pdfrwt>
<pdfrwt beam="2">  1        2 0.44613561E-02 0.24565537E+02</pdfrwt>
<totfact> 0.17657820E+03</totfact>
</mgrwt>
</event>
<event>
 5    1  0.6729100E-004  0.5778867E+02  0.7818608E-02  0.1616848E+00
         11   -1    0    0    0    0  0.00000000000E+00  0.00000000000E+00  0.10002729201E+04  0.10002729201E+04  0.51100000000E-03 0. -1.
          2   -1    0    0  501    0 -0.00000000000E+00 -0.00000000000E+00 -0.90886548209E+01  0.90886551786E+01  0.25500000000E-02 0. -1.
         11    1    1    2    0    0 -0.33966470060E+02 -0.60064324110E+02  0.15720871453E+03  0.17168582947E+03  0.51100000000E-03 0. -1.
         22    1    1    2    0    0  0.20047275042E+01  0.13781759870E+02  0.57376661128E+02  0.59042671685E+02  0.00000000000E+00 0.  1.
          2    1    1    2  501    0  0.31961742555E+02  0.46282564240E+02  0.77659888962E+03  0.77863307411E+03  0.25500000000E-02 0. -1.
<mgrwt>
<rscale>  0 0.28369192E+02</rscale>
<asrwt>0</asrwt>
<pdfrwt beam="1">  1       11 0.10000000E+01 0.57788674E+02</pdfrwt>
<pdfrwt beam="2">  1        2 0.13986362E-02 0.28369192E+02</pdfrwt>
<totfact> 0.79434637E+03</totfact>
</mgrwt>
</event>
<event>
 5    1  0.6729100E-004  0.1416906E+03  0.7818608E-02  0.1326563E+00
         11   -1    0    0    0    0  0.00000000000E+00  0.00000000000E+00  0.10001516309E+04  0.10001516309E+04  0.51100000000E-03 0. -1.
         -2   -1    0    0    0  501 -0.00000000000E+00 -0.00000000000E+00 -0.87646916037E+02  0.87646916074E+02  0.25500000000E-02 0.  1.
         11    1    1    2    0    0 -0.30928481246E+02 -0.14444451925E+03  0.30638066353E+03  0.34013218177E+03  0.51100000000E-03 0. -1.
         22    1    1    2    0    0  0.10159852276E+03  0.10510135149E+03  0.64254340797E+03  0.65896174778E+03  0.00000000000E+00 0.  1.
         -2    1    1    2    0  501 -0.70670041517E+02  0.39343167758E+02 -0.36419356595E+02  0.88704617460E+02  0.25500000000E-02 0.  1.
<mgrwt>
<rscale>  0 0.80883494E+02</rscale>
<asrwt>0</asrwt>
<pdfrwt beam="1">  1       11 0.10000000E+01 0.14169064E+03</pdfrwt>
<pdfrwt beam="2">  1       -2 0.13486185E-01 0.80883494E+02</pdfrwt>
<totfact> 0.30838537E+02</totfact>
</mgrwt>
</event>
<event>
 5    1  0.6729100E-004  0.1464221E+03  0.7818608E-02  0.1550326E+00
         11   -1    0    0    0    0  0.00000000000E+00  0.00000000000E+00  0.10004156246E+04  0.10004156246E+04  0.51100000000E-03 0.  1.
          2   -1    0    0  501    0 -0.00000000000E+00 -0.00000000000E+00 -0.54257603802E+03  0.54257603803E+03  0.25500000000E-02 0.  1.
         11    1    1    2    0    0  0.19614056291E+02 -0.17185957098E+03  0.72554404385E+02  0.18757549130E+03  0.51100000000E-03 0.  1.
         22    1    1    2    0    0  0.96692087085E+00  0.14378979831E+03  0.86377510794E+03  0.87566196568E+03  0.00000000000E+00 0.  1.
          2    1    1    2  501    0 -0.20580977162E+02  0.28069772671E+02 -0.47848992576E+03  0.47975420563E+03  0.25500000000E-02 0.  1.
<mgrwt>
<rscale>  0 0.34806447E+02</rscale>
<asrwt>0</asrwt>
<pdfrwt beam="1">  1       11 0.10000000E+01 0.14642211E+03</pdfrwt>
<pdfrwt beam="2">  1        2 0.83507928E-01 0.34806447E+02</pdfrwt>
<totfact> 0.73207703E+01</totfact>
</mgrwt>
</event>
<event>
 5    1  0.6729100E-004  0.1678613E+03  0.7818608E-02  0.1180097E+00
         11   -1    0    0    0    0  0.00000000000E+00  0.00000000000E+00  0.10007756726E+04  0.10007756726E+04  0.51100000000E-03 0. -1.
          2   -1    0    0  501    0 -0.00000000000E+00 -0.00000000000E+00 -0.34071175943E+03  0.34071175944E+03  0.25500000000E-02 0. -1.
         11    1    1    2    0    0  0.14405960402E+02  0.17959089765E+03  0.94542274850E+03  0.96243680084E+03  0.51100000000E-03 0. -1.
         22    1    1    2    0    0  0.46698899105E+01 -0.13090734334E+02  0.23701634502E+02  0.27476220178E+02  0.00000000000E+00 0. -1.
          2    1    1    2  501    0 -0.19075850313E+02 -0.16650016331E+03 -0.30906046985E+03  0.35157441101E+03  0.25500000000E-02 0. -1.
<mgrwt>
<rscale>  0 0.16786132E+03</rscale>
<asrwt>0</asrwt>
<pdfrwt beam="1">  1       11 0.10000000E+01 0.13898748E+02</pdfrwt>
<pdfrwt beam="2">  1        2 0.52457851E-01 0.16786132E+03</pdfrwt>
<totfact> 0.11823536E+02</totfact>
</mgrwt>
</event>
<event>
 5    1  0.6729100E-004  0.1000931E+03  0.7818608E-02  0.1431169E+00
         11   -1    0    0    0    0  0.00000000000E+00  0.00000000000E+00  0.10001199355E+04  0.10001199355E+04  0.51100000000E-03 0. -1.
          2   -1    0    0  501    0 -0.00000000000E+00 -0.00000000000E+00 -0.94212942427E+03  0.94212942428E+03  0.25500000000E-02 0. -1.
         11    1    1    2    0    0 -0.10186529038E+03  0.15501244734E+02  0.45422270932E+03  0.46576291784E+03  0.51100000000E-03 0. -1.
         22    1    1    2    0    0  0.97064594072E+02  0.37005718211E+02  0.53437934361E+03  0.54438244046E+03  0.00000000000E+00 0.  1.
          2    1    1    2  501    0  0.48006963059E+01 -0.52506962945E+02 -0.93061154175E+03  0.93210400143E+03  0.25500000000E-02 0. -1.
<mgrwt>
<rscale>  0 0.52725969E+02</rscale>
<asrwt>0</asrwt>
<pdfrwt beam="1">  1       11 0.10000000E+01 0.10009313E+03</pdfrwt>
<pdfrwt beam="2">  1        2 0.14496037E+00 0.52725969E+02</pdfrwt>
<totfact> 0.38511363E+01</totfact>
</mgrwt>
</event>
<event>
 5    1  0.6729100E-004  0.1179013E+03  0.7818608E-02  0.1246600E+00
         11   -1    0    0    0    0  0.00000000000E+00  0.00000000000E+00  0.10003285876E+04  0.10003285876E+04  0.51100000000E-03 0. -1.
          2   -1    0    0  501    0 -0.00000000000E+00 -0.00000000000E+00 -0.30582037686E+03  0.30582037687E+03  0.25500000000E-02 0.  1.
         11    1    1    2    0    0 -0.75050938804E+02  0.12155181019E+03  0.85161951128E+03  0.86351796621E+03  0.51100000000E-03 0. -1.
         22    1    1    2    0    0  0.67744238649E+01 -0.25840232264E+02  0.12982379899E+03  0.13254368792E+03  0.00000000000E+00 0. -1.
          2    1    1    2  501    0  0.68276514939E+02 -0.95711577930E+02 -0.28693509957E+03  0.31008731031E+03  0.25500000000E-02 0.  1.
<mgrwt>
<rscale>  0 0.11790130E+03</rscale>
<asrwt>0</asrwt>
<pdfrwt beam="1">  1       11 0.10000000E+01 0.26713488E+02</pdfrwt>
<pdfrwt beam="2">  1        2 0.47064747E-01 0.11790130E+03</pdfrwt>
<totfact> 0.13257511E+02</totfact>
</mgrwt>
</event>
<event>
 5    1  0.6729100E-004  0.2605598E+03  0.7818608E-02  0.1110037E+00
         11   -1    0    0    0    0  0.00000000000E+00  0.00000000000E+00  0.10003235378E+04  0.10003235378E+04  0.51100000000E-03 0.  1.
          2   -1    0    0  501    0 -0.00000000000E+00 -0.00000000000E+00 -0.11869728276E+04  0.11869728276E+04  0.25500000000E-02 0.  1.
         11    1    1    2    0    0  0.20985950096E+03 -0.11237315549E+03  0.93511823851E+03  0.96494292899E+03  0.51100000000E-03 0.  1.
         22    1    1    2    0    0  0.12054217201E+02 -0.13729520747E+02  0.34075228908E+02  0.38664261501E+02  0.00000000000E+00 0. -1.
          2    1    1    2  501    0 -0.22191371816E+03  0.12610267623E+03 -0.11558427573E+04  0.11836891749E+04  0.25500000000E-02 0.  1.
<mgrwt>
<rscale>  0 0.25524025E+03</rscale>
<asrwt>0</asrwt>
<pdfrwt beam="1">  1       11 0.10000000E+01 0.26055981E+03</pdfrwt>
<pdfrwt beam="2">  1        2 0.18267028E+00 0.25524025E+03</pdfrwt>
<totfact> 0.25534703E+01</totfact>
</mgrwt>
</event>
<event>
 5    1  0.6729100E-004  0.5917847E+03  0.7818608E-02  0.9922598E-01
         11   -1    0    0    0    0  0.00000000000E+00  0.00000000000E+00  0.99978568177E+03  0.99978568177E+03  0.51100000000E-03 0.  1.
          2   -1    0    0  501    0 -0.00000000000E+00 -0.00000000000E+00 -0.39066319003E+03  0.39066319004E+03  0.25500000000E-02 0.  1.
         11    1    1    2    0    0  0.29357423883E+02  0.58184620447E+03  0.28577051769E+03  0.64890034117E+03  0.51100000000E-03 0.  1.
         22    1    1    2    0    0  0.13593305861E+02  0.16995337521E+02  0.97810492212E+02  0.10020235451E+03  0.00000000000E+00 0. -1.
          2    1    1    2  501    0 -0.42950729745E+02 -0.59884154199E+03  0.22554148184E+03  0.64134617613E+03  0.25500000000E-02 0.  1.
<mgrwt>
<rscale>  0 0.59178472E+03</rscale>
<asrwt>0</asrwt>
<pdfrwt beam="1">  1       11 0.10000000E+01 0.21762800E+02</pdfrwt>
<pdfrwt beam="2">  1        2 0.60089147E-01 0.59178472E+03</pdfrwt>
<totfact> 0.10125119E+02</totfact>
</mgrwt>
</event>
<event>
 5    1  0.6729100E-004  0.1108833E+03  0.7818608E-02  0.1258943E+00
         11   -1    0    0    0    0  0.00000000000E+00  0.00000000000E+00  0.99999428695E+03  0.99999428695E+03  0.51100000000E-03 0. -1.
          2   -1    0    0  501    0 -0.00000000000E+00 -0.00000000000E+00 -0.20194065459E+02  0.20194065620E+02  0.25500000000E-02 0. -1.
         11    1    1    2    0    0 -0.27333644869E+02  0.10507419014E+03  0.62688583960E+03  0.63621817757E+03  0.51100000000E-03 0. -1.
         22    1    1    2    0    0 -0.32318143497E+02 -0.89550080755E+01  0.12647516644E+03  0.13084579586E+03  0.00000000000E+00 0. -1.
          2    1    1    2  501    0  0.59651788366E+02 -0.96119182060E+02  0.22643921545E+03  0.25312437914E+03  0.25500000000E-02 0. -1.
<mgrwt>
<rscale>  0 0.11088327E+03</rscale>
<asrwt>0</asrwt>
<pdfrwt beam="1">  1       11 0.10000000E+01 0.33535870E+02</pdfrwt>
<pdfrwt beam="2">  1        2 0.31067615E-02 0.11088327E+03</pdfrwt>
<totfact> 0.33715095E+03</totfact>
</mgrwt>
</event>
<event>
 5    1  0.6729100E-004  0.1408383E+03  0.7818608E-02  0.1212205E+00
         11   -1    0    0    0    0  0.00000000000E+00  0.00000000000E+00  0.10002366971E+04  0.10002366971E+04  0.51100000000E-03 0.  1.
         -2   -1    0    0    0  501 -0.00000000000E+00 -0.00000000000E+00 -0.92066269129E+03  0.92066269130E+03  0.25500000000E-02 0. -1.
         11    1    1    2    0    0  0.13231134233E+03 -0.73004195255E+02  0.84832408796E+03  0.86167839828E+03  0.51100000000E-03 0.  1.
         22    1    1    2    0    0  0.79350790776E+01  0.59949525468E+02  0.13322873953E+03  0.14631065621E+03  0.00000000000E+00 0. -1.
         -2    1    1    2    0  501 -0.14024642141E+03  0.13054669787E+02 -0.90197882165E+03  0.91291033395E+03  0.25500000000E-02 0. -1.
<mgrwt>
<rscale>  0 0.14083833E+03</rscale>
<asrwt>0</asrwt>
<pdfrwt beam="1">  1       11 0.10000000E+01 0.60472399E+02</pdfrwt>
<pdfrwt beam="2">  1       -2 0.14167394E+00 0.14083833E+03</pdfrwt>
<totfact> 0.30769571E+00</totfact>
</mgrwt>
</event>
<event>
 5    1  0.6729100E-004  0.1515704E+03  0.7818608E-02  0.1198556E+00
         11   -1    0    0    0    0  0.00000000000E+00  0.00000000000E+00  0.10002459296E+04  0.10002459296E+04  0.51100000000E-03 0.  1.
          2   -1    0    0  501    0 -0.00000000000E+00 -0.00000000000E+00 -0.55870827049E+02  0.55870827107E+02  0.25500000000E-02 0.  1.
         11    1    1    2    0    0  0.15025653041E+03 -0.36514806267E+02  0.75635218739E+03  0.77199675347E+03  0.51100000000E-03 0.  1.
         22    1    1    2    0    0 -0.87243901474E+01 -0.16804505814E+02  0.11431546196E+03  0.11587290987E+03  0.00000000000E+00 0. -1.
          2    1    1    2  501    0 -0.14153214026E+03  0.53319312081E+02  0.73707453248E+02  0.16824709340E+03  0.25500000000E-02 0.  1.
<mgrwt>
<rscale>  0 0.15157043E+03</rscale>
<asrwt>0</asrwt>
<pdfrwt beam="1">  1       11 0.10000000E+01 0.18934265E+02</pdfrwt>
<pdfrwt beam="2">  1        2 0.85976255E-02 0.15157043E+03</pdfrwt>
<totfact> 0.92316047E+02</totfact>
</mgrwt>
</event>
<event>
 5    1  0.6729100E-004  0.2242625E+03  0.7818608E-02  0.1130744E+00
         11   -1    0    0    0    0  0.00000000000E+00  0.00000000000E+00  0.10004195579E+04  0.10004195579E+04  0.51100000000E-03 0.  1.
          2   -1    0    0  501    0 -0.00000000000E+00 -0.00000000000E+00 -0.29563913723E+03  0.29563913724E+03  0.25500000000E-02 0.  1.
         11    1    1    2    0    0  0.21650347469E+03 -0.28456072245E+02  0.91886042220E+03  0.94445115178E+03  0.51100000000E-03 0.  1.
         22    1    1    2    0    0  0.38835153139E+01 -0.14669442411E+02  0.21386756855E+02  0.26223417028E+02  0.00000000000E+00 0.  1.
          2    1    1    2  501    0 -0.22038699000E+03  0.43125514655E+02 -0.23546675837E+03  0.32538412635E+03  0.25500000000E-02 0.  1.
<mgrwt>
<rscale>  0 0.22426252E+03</rscale>
<asrwt>0</asrwt>
<pdfrwt beam="1">  1       11 0.10000000E+01 0.15174789E+02</pdfrwt>
<pdfrwt beam="2">  1        2 0.45502026E-01 0.22426252E+03</pdfrwt>
<totfact> 0.13775756E+02</totfact>
</mgrwt>
</event>
<event>
 5    1  0.6729100E-004  0.1253578E+03  0.7818608E-02  0.1344274E+00
         11   -1    0    0    0    0  0.00000000000E+00  0.00000000000E+00  0.10002209875E+04  0.10002209875E+04  0.51100000000E-03 0. -1.
         -2   -1    0    0    0  501 -0.00000000000E+00 -0.00000000000E+00 -0.53059532663E+02  0.53059532724E+02  0.25500000000E-02 0.  1.
         11    1    1    2    0    0  0.16302933753E+03 -0.45318135403E+02  0.65558469981E+03  0.67706986118E+03  0.51100000000E-03 0. -1.
         22    1    1    2    0    0 -0.91483880955E+02  0.23255336224E+02  0.28595278021E+03  0.30112971233E+03  0.00000000000E+00 0.  1.
         -2    1    1    2    0  501 -0.71545456574E+02  0.22062799179E+02  0.56239748416E+01  0.75080946741E+02  0.25500000000E-02 0.  1.
<mgrwt>
<rscale>  0 0.74870017E+02</rscale>
<asrwt>0</asrwt>
<pdfrwt beam="1">  1       11 0.10000000E+01 0.12535778E+03</pdfrwt>
<pdfrwt beam="2">  1       -2 0.81648087E-02 0.74870017E+02</pdfrwt>
<totfact> 0.66976796E+02</totfact>
</mgrwt>
</event>
<event>
 5    1  0.6729100E-004  0.4819886E+03  0.7818608E-02  0.1018590E+00
         11   -1    0    0    0    0  0.00000000000E+00  0.00000000000E+00  0.99984135038E+03  0.99984135038E+03  0.51100000000E-03 0.  1.
          2   -1    0    0  501    0 -0.00000000000E+00 -0.00000000000E+00 -0.13500448493E+04  0.13500448493E+04  0.25500000000E-02 0.  1.
         11    1    1    2    0    0  0.43347137903E+03 -0.38121920732E+02  0.48769070495E+03  0.65359998544E+03  0.51100000000E-03 0.  1.
         22    1    1    2    0    0  0.51032069555E+02  0.80408363311E+02  0.37637731287E+03  0.38823917713E+03  0.00000000000E+00 0. -1.
          2    1    1    2  501    0 -0.48450344859E+03 -0.42286442579E+02 -0.12142715167E+04  0.13080470371E+04  0.25500000000E-02 0.  1.
<mgrwt>
<rscale>  0 0.48198863E+03</rscale>
<asrwt>0</asrwt>
<pdfrwt beam="1">  1       11 0.10000000E+01 0.95235377E+02</pdfrwt>
<pdfrwt beam="2">  1        2 0.20766625E+00 0.48198863E+03</pdfrwt>
<totfact> 0.19878352E+01</totfact>
</mgrwt>
</event>
<event>
 5    1  0.6729100E-004  0.9780955E+02  0.7818608E-02  0.1284971E+00
         11   -1    0    0    0    0  0.00000000000E+00  0.00000000000E+00  0.10000635016E+04  0.10000635016E+04  0.51100000000E-03 0.  1.
          2   -1    0    0  501    0 -0.00000000000E+00 -0.00000000000E+00 -0.33027974726E+03  0.33027974726E+03  0.25500000000E-02 0.  1.
         11    1    1    2    0    0 -0.42722343775E+02  0.14340888632E+03  0.64977617362E+03  0.66678361043E+03  0.51100000000E-03 0.  1.
         22    1    1    2    0    0  0.37541694034E+02 -0.46274973036E+02  0.33171639636E+03  0.33702599238E+03  0.00000000000E+00 0.  1.
          2    1    1    2  501    0  0.51806497409E+01 -0.97133913288E+02 -0.31170881565E+03  0.32653364605E+03  0.25500000000E-02 0.  1.
<mgrwt>
<rscale>  0 0.97809547E+02</rscale>
<asrwt>0</asrwt>
<pdfrwt beam="1">  1       11 0.10000000E+01 0.59588186E+02</pdfrwt>
<pdfrwt beam="2">  1        2 0.50815494E-01 0.97809547E+02</pdfrwt>
<totfact> 0.12221988E+02</totfact>
</mgrwt>
</event>
<event>
 5    1  0.6729100E-004  0.1193423E+03  0.7818608E-02  0.1244186E+00
         11   -1    0    0    0    0  0.00000000000E+00  0.00000000000E+00  0.10002992774E+04  0.10002992774E+04  0.51100000000E-03 0. -1.
          2   -1    0    0  501    0 -0.00000000000E+00 -0.00000000000E+00 -0.28010267570E+03  0.28010267571E+03  0.25500000000E-02 0. -1.
         11    1    1    2    0    0  0.11513010070E+02 -0.94757281622E+02  0.35268699400E+03  0.36537598109E+03  0.51100000000E-03 0. -1.
         22    1    1    2    0    0  0.36515222727E+02  0.20212562209E+03  0.61100797958E+03  0.64460753929E+03  0.00000000000E+00 0. -1.
          2    1    1    2  501    0 -0.48028232798E+02 -0.10736834046E+03 -0.24349837185E+03  0.27041843277E+03  0.25500000000E-02 0. -1.
<mgrwt>
<rscale>  0 0.11934227E+03</rscale>
<asrwt>0</asrwt>
<pdfrwt beam="1">  1       11 0.10000000E+01 0.95454135E+02</pdfrwt>
<pdfrwt beam="2">  1        2 0.43105615E-01 0.11934227E+03</pdfrwt>
<totfact> 0.14546047E+02</totfact>
</mgrwt>
</event>
<event>
 5    1  0.6729100E-004  0.1581377E+03  0.7818608E-02  0.1190815E+00
         11   -1    0    0    0    0  0.00000000000E+00  0.00000000000E+00  0.10002681502E+04  0.10002681502E+04  0.51100000000E-03 0.  1.
          2   -1    0    0  501    0 -0.00000000000E+00 -0.00000000000E+00 -0.38121004008E+02  0.38121004093E+02  0.25500000000E-02 0.  1.
         11    1    1    2    0    0 -0.42270123259E+01  0.15860987949E+03  0.25129872654E+03  0.29719692371E+03  0.51100000000E-03 0.  1.
         22    1    1    2    0    0  0.47920528964E+02 -0.27186615238E+01  0.16553083326E+03  0.17234913686E+03  0.00000000000E+00 0.  1.
          2    1    1    2  501    0 -0.43693516638E+02 -0.15589121797E+03  0.54531758641E+03  0.56884309374E+03  0.25500000000E-02 0.  1.
<mgrwt>
<rscale>  0 0.15813769E+03</rscale>
<asrwt>0</asrwt>
<pdfrwt beam="1">  1       11 0.10000000E+01 0.47997586E+02</pdfrwt>
<pdfrwt beam="2">  1        2 0.58663423E-02 0.15813769E+03</pdfrwt>
<totfact> 0.15064956E+03</totfact>
</mgrwt>
</event>
<event>
 5    1  0.6729100E-004  0.3288376E+03  0.7818608E-02  0.1117291E+00
         11   -1    0    0    0    0  0.00000000000E+00  0.00000000000E+00  0.10000172519E+04  0.10000172519E+04  0.51100000000E-03 0. -1.
          2   -1    0    0  501    0 -0.00000000000E+00 -0.00000000000E+00 -0.42583631669E+03  0.42583631670E+03  0.25500000000E-02 0. -1.
         11    1    1    2    0    0  0.30229754468E+03  0.25973194049E+03  0.43061604950E+03  0.58674923819E+03  0.51100000000E-03 0. -1.
         22    1    1    2    0    0 -0.62744385514E+02 -0.30500562658E+03  0.38555653707E+03  0.49559977143E+03  0.00000000000E+00 0. -1.
          2    1    1    2  501    0 -0.23955315917E+03  0.45273686093E+02 -0.24199165135E+03  0.34350455899E+03  0.25500000000E-02 0. -1.
<mgrwt>
<rscale>  0 0.24379381E+03</rscale>
<asrwt>0</asrwt>
<pdfrwt beam="1">  1       11 0.10000000E+01 0.32883762E+03</pdfrwt>
<pdfrwt beam="2">  1        2 0.65514408E-01 0.24379381E+03</pdfrwt>
<totfact> 0.92790877E+01</totfact>
</mgrwt>
</event>
<event>
 5    1  0.6729100E-004  0.1317568E+03  0.7818608E-02  0.1224872E+00
         11   -1    0    0    0    0  0.00000000000E+00  0.00000000000E+00  0.10001845957E+04  0.10001845957E+04  0.51100000000E-03 0.  1.
         -2   -1    0    0    0  501 -0.00000000000E+00 -0.00000000000E+00 -0.25738400718E+02  0.25738400845E+02  0.25500000000E-02 0.  1.
         11    1    1    2    0    0 -0.65588267181E+01  0.12214971121E+03  0.51016954698E+03  0.52462990463E+03  0.51100000000E-03 0.  1.
         22    1    1    2    0    0  0.39152787323E+02  0.13158852936E+02  0.18124792726E+03  0.18589488240E+03  0.00000000000E+00 0.  1.
         -2    1    1    2    0  501 -0.32593960605E+02 -0.13530856415E+03  0.28302872073E+03  0.31539820952E+03  0.25500000000E-02 0.  1.
<mgrwt>
<rscale>  0 0.13175684E+03</rscale>
<asrwt>0</asrwt>
<pdfrwt beam="1">  1       11 0.10000000E+01 0.41304917E+02</pdfrwt>
<pdfrwt beam="2">  1       -2 0.39604848E-02 0.13175684E+03</pdfrwt>
<totfact> 0.20862549E+03</totfact>
</mgrwt>
</event>
<event>
 5    1  0.6729100E-004  0.8803663E+02  0.7818608E-02  0.1664019E+00
         11   -1    0    0    0    0  0.00000000000E+00  0.00000000000E+00  0.10001424876E+04  0.10001424876E+04  0.51100000000E-03 0. -1.
          2   -1    0    0  501    0 -0.00000000000E+00 -0.00000000000E+00 -0.24588955254E+03  0.24588955256E+03  0.25500000000E-02 0. -1.
         11    1    1    2    0    0 -0.97421077525E+02 -0.15529144891E+02  0.55087220069E+03  0.55963577636E+03  0.51100000000E-03 0. -1.
         22    1    1    2    0    0  0.79967712691E+02 -0.20771966480E+01  0.44064149721E+03  0.44784381081E+03  0.00000000000E+00 0.  1.
          2    1    1    2  501    0  0.17453364834E+02  0.17606341539E+02 -0.23726076287E+03  0.23855245296E+03  0.25500000000E-02 0. -1.
<mgrwt>
<rscale>  0 0.24791192E+02</rscale>
<asrwt>0</asrwt>
<pdfrwt beam="1">  1       11 0.10000000E+01 0.88036625E+02</pdfrwt>
<pdfrwt beam="2">  1        2 0.37834551E-01 0.24791192E+02</pdfrwt>
<totfact> 0.16192955E+02</totfact>
</mgrwt>
</event>
<event>
 5    1  0.6729100E-004  0.5236316E+03  0.7818608E-02  0.1007788E+00
         11   -1    0    0    0    0  0.00000000000E+00  0.00000000000E+00  0.10000949240E+04  0.10000949240E+04  0.51100000000E-03 0. -1.
          2   -1    0    0  501    0 -0.00000000000E+00 -0.00000000000E+00 -0.57133835395E+03  0.57133835396E+03  0.25500000000E-02 0. -1.
         11    1    1    2    0    0  0.53386701437E+03  0.73754099639E+02  0.72383224845E+03  0.90243380928E+03  0.51100000000E-03 0. -1.
         22    1    1    2    0    0 -0.25002258500E+02  0.38832057371E+02  0.29705623585E+02  0.54913255980E+02  0.00000000000E+00 0.  1.
          2    1    1    2  501    0 -0.50886475586E+03 -0.11258615701E+03 -0.32478130198E+03  0.61408621270E+03  0.25500000000E-02 0. -1.
<mgrwt>
<rscale>  0 0.52363160E+03</rscale>
<asrwt>0</asrwt>
<pdfrwt beam="1">  1       11 0.10000000E+01 0.46184863E+02</pdfrwt>
<pdfrwt beam="2">  1        2 0.87906549E-01 0.52363160E+03</pdfrwt>
<totfact> 0.65660778E+01</totfact>
</mgrwt>
</event>
<event>
 5    1  0.6729100E-004  0.2568938E+03  0.7818608E-02  0.1109024E+00
         11   -1    0    0    0    0  0.00000000000E+00  0.00000000000E+00  0.10002990982E+04  0.10002990982E+04  0.51100000000E-03 0. -1.
          2   -1    0    0  501    0 -0.00000000000E+00 -0.00000000000E+00 -0.25537153633E+03  0.25537153635E+03  0.25500000000E-02 0. -1.
         11    1    1    2    0    0 -0.50555388624E+02  0.23236496712E+03  0.75691703212E+03  0.79339316784E+03  0.51100000000E-03 0. -1.
         22    1    1    2    0    0 -0.11823251765E+03 -0.32575406530E+02  0.11802036735E+03  0.17020250424E+03  0.00000000000E+00 0. -1.
          2    1    1    2  501    0  0.16878790627E+03 -0.19978956059E+03 -0.13000983760E+03  0.29207496247E+03  0.25500000000E-02 0. -1.
<mgrwt>
<rscale>  0 0.25689378E+03</rscale>
<asrwt>0</asrwt>
<pdfrwt beam="1">  1       11 0.10000000E+01 0.12263803E+03</pdfrwt>
<pdfrwt beam="2">  1        2 0.39299678E-01 0.25689378E+03</pdfrwt>
<totfact> 0.16147154E+02</totfact>
</mgrwt>
</event>
<event>
 5    1  0.6729100E-004  0.1288988E+03  0.7818608E-02  0.1343178E+00
         11   -1    0    0    0    0  0.00000000000E+00  0.00000000000E+00  0.10003034199E+04  0.10003034199E+04  0.51100000000E-03 0. -1.
         -2   -1    0    0    0  501 -0.00000000000E+00 -0.00000000000E+00 -0.29334187067E+02  0.29334187178E+02  0.25500000000E-02 0.  1.
         11    1    1    2    0    0  0.78341551888E+02  0.11091499669E+03  0.72031870299E+03  0.73300652734E+03  0.51100000000E-03 0. -1.
         22    1    1    2    0    0 -0.43872561897E+02 -0.15595607546E+01  0.73481041451E+02  0.85596129410E+02  0.00000000000E+00 0.  1.
         -2    1    1    2    0  501 -0.34468989991E+02 -0.10935543594E+03  0.17716948844E+03  0.21103495038E+03  0.25500000000E-02 0.  1.
<mgrwt>
<rscale>  0 0.75224291E+02</rscale>
<asrwt>0</asrwt>
<pdfrwt beam="1">  1       11 0.10000000E+01 0.12889883E+03</pdfrwt>
<pdfrwt beam="2">  1       -2 0.45143211E-02 0.75224291E+02</pdfrwt>
<totfact> 0.16243886E+03</totfact>
</mgrwt>
</event>
<event>
 5    1  0.6729100E-004  0.2074559E+03  0.7818608E-02  0.1143597E+00
         11   -1    0    0    0    0  0.00000000000E+00  0.00000000000E+00  0.10002935415E+04  0.10002935415E+04  0.51100000000E-03 0. -1.
          2   -1    0    0  501    0 -0.00000000000E+00 -0.00000000000E+00 -0.17722918602E+03  0.17722918603E+03  0.25500000000E-02 0. -1.
         11    1    1    2    0    0  0.33020915599E+02 -0.71308239994E+02  0.12982271423E+03  0.15175369218E+03  0.51100000000E-03 0. -1.
         22    1    1    2    0    0  0.15132563694E+03  0.16567542212E+03  0.77219371068E+03  0.80413364605E+03  0.00000000000E+00 0. -1.
          2    1    1    2  501    0 -0.18434655254E+03 -0.94367182125E+02 -0.78952069471E+02  0.22163538927E+03  0.25500000000E-02 0. -1.
<mgrwt>
<rscale>  0 0.20745587E+03</rscale>
<asrwt>0</asrwt>
<pdfrwt beam="1">  1       11 0.10000000E+01 0.78582733E+02</pdfrwt>
<pdfrwt beam="2">  1        2 0.27274032E-01 0.20745587E+03</pdfrwt>
<totfact> 0.24010819E+02</totfact>
</mgrwt>
</event>
<event>
 5    1  0.6729100E-004  0.1598336E+03  0.7818608E-02  0.1196219E+00
         11   -1    0    0    0    0  0.00000000000E+00  0.00000000000E+00  0.10003060379E+04  0.10003060379E+04  0.51100000000E-03 0.  1.
          2   -1    0    0  501    0 -0.00000000000E+00 -0.00000000000E+00 -0.36872313454E+02  0.36872313542E+02  0.25500000000E-02 0.  1.
         11    1    1    2    0    0 -0.63250314026E+02  0.10554112238E+02  0.27953717306E+03  0.28679787767E+03  0.51100000000E-03 0.  1.
         22    1    1    2    0    0 -0.88350819040E+02 -0.34722307325E+02  0.50852373781E+03  0.51730831983E+03  0.00000000000E+00 0.  1.
          2    1    1    2  501    0  0.15160113307E+03  0.24168195087E+02  0.17537281360E+03  0.23307215397E+03  0.25500000000E-02 0.  1.
<mgrwt>
<rscale>  0 0.15351549E+03</rscale>
<asrwt>0</asrwt>
<pdfrwt beam="1">  1       11 0.10000000E+01 0.15983359E+03</pdfrwt>
<pdfrwt beam="2">  1        2 0.56743995E-02 0.15351549E+03</pdfrwt>
<totfact> 0.15694052E+03</totfact>
</mgrwt>
</event>
<event>
 5    1  0.6729100E-004  0.2909215E+03  0.7818608E-02  0.1089869E+00
         11   -1    0    0    0    0  0.00000000000E+00  0.00000000000E+00  0.10002188333E+04  0.10002188333E+04  0.51100000000E-03 0. -1.
          2   -1    0    0  501    0 -0.00000000000E+00 -0.00000000000E+00 -0.10570593352E+03  0.10570593355E+03  0.25500000000E-02 0. -1.
         11    1    1    2    0    0 -0.17126297473E+03 -0.23624470995E+03  0.58561637438E+03  0.65428518815E+03  0.51100000000E-03 0. -1.
         22    1    1    2    0    0 -0.11208139375E+02  0.10039451751E+02  0.80804009028E+02  0.82193070600E+02  0.00000000000E+00 0.  1.
          2    1    1    2  501    0  0.18247111411E+03  0.22620525819E+03  0.22809251640E+03  0.36944650812E+03  0.25500000000E-02 0. -1.
<mgrwt>
<rscale>  0 0.29092154E+03</rscale>
<asrwt>0</asrwt>
<pdfrwt beam="1">  1       11 0.10000000E+01 0.15047026E+02</pdfrwt>
<pdfrwt beam="2">  1        2 0.16266010E-01 0.29092154E+03</pdfrwt>
<totfact> 0.43735917E+02</totfact>
</mgrwt>
</event>
<event>
 5    1  0.6729100E-004  0.2989933E+03  0.7818608E-02  0.1085745E+00
         11   -1    0    0    0    0  0.00000000000E+00  0.00000000000E+00  0.10000727662E+04  0.10000727662E+04  0.51100000000E-03 0. -1.
          2   -1    0    0  501    0 -0.00000000000E+00 -0.00000000000E+00 -0.11986671342E+03  0.11986671344E+03  0.25500000000E-02 0. -1.
         11    1    1    2    0    0  0.28574166094E+03  0.12104996656E+03  0.21809491784E+03  0.37929775163E+03  0.51100000000E-03 0. -1.
         22    1    1    2    0    0 -0.41784332635E+02  0.15601382766E+02  0.15797457600E+03  0.16415023686E+03  0.00000000000E+00 0.  1.
          2    1    1    2  501    0 -0.24395732830E+03 -0.13665134933E+03  0.50413655893E+03  0.57649149114E+03  0.25500000000E-02 0. -1.
<mgrwt>
<rscale>  0 0.29899335E+03</rscale>
<asrwt>0</asrwt>
<pdfrwt beam="1">  1       11 0.10000000E+01 0.44601946E+02</pdfrwt>
<pdfrwt beam="2">  1        2 0.18442374E-01 0.29899335E+03</pdfrwt>
<totfact> 0.37766600E+02</totfact>
</mgrwt>
</event>
<event>
 5    1  0.6729100E-004  0.2732533E+03  0.7818608E-02  0.1109722E+00
         11   -1    0    0    0    0  0.00000000000E+00  0.00000000000E+00  0.10003936319E+04  0.10003936319E+04  0.51100000000E-03 0.  1.
          2   -1    0    0  501    0 -0.00000000000E+00 -0.00000000000E+00 -0.94238725084E+03  0.94238725085E+03  0.25500000000E-02 0.  1.
         11    1    1    2    0    0 -0.16351809142E+03  0.13996619766E+03  0.73264286886E+03  0.76360610003E+03  0.51100000000E-03 0.  1.
         22    1    1    2    0    0  0.88115362696E+00  0.57413749513E+02  0.23104592998E+03  0.23807422546E+03  0.00000000000E+00 0.  1.
          2    1    1    2  501    0  0.16263693779E+03 -0.19737994717E+03 -0.90568241776E+03  0.94110055729E+03  0.25500000000E-02 0.  1.
<mgrwt>
<rscale>  0 0.25575304E+03</rscale>
<asrwt>0</asrwt>
<pdfrwt beam="1">  1       11 0.10000000E+01 0.27325331E+03</pdfrwt>
<pdfrwt beam="2">  1        2 0.14503972E+00 0.25575304E+03</pdfrwt>
<totfact> 0.35752374E+01</totfact>
</mgrwt>
</event>
<event>
 5    1  0.6729100E-004  0.1272191E+03  0.7818608E-02  0.1231641E+00
         11   -1    0    0    0    0  0.00000000000E+00  0.00000000000E+00  0.10003477095E+04  0.10003477095E+04  0.51100000000E-03 0. -1.
          2   -1    0    0  501    0 -0.00000000000E+00 -0.00000000000E+00 -0.27572938974E+02  0.27572939092E+02  0.25500000000E-02 0. -1.
         11    1    1    2    0    0 -0.24197716179E+02 -0.12865821782E+03  0.76286476361E+03  0.77401622337E+03  0.51100000000E-03 0. -1.
         22    1    1    2    0    0  0.11055495346E+02  0.29425413509E+01  0.43223136728E+02  0.44711542979E+02  0.00000000000E+00 0. -1.
          2    1    1    2  501    0  0.13142220833E+02  0.12571567647E+03  0.16668687016E+03  0.20919288222E+03  0.25500000000E-02 0. -1.
<mgrwt>
<rscale>  0 0.12721909E+03</rscale>
<asrwt>0</asrwt>
<pdfrwt beam="1">  1       11 0.10000000E+01 0.11440390E+02</pdfrwt>
<pdfrwt beam="2">  1        2 0.42434655E-02 0.12721909E+03</pdfrwt>
<totfact> 0.22598633E+03</totfact>
</mgrwt>
</event>
<event>
 5    1  0.6729100E-004  0.1602308E+03  0.7818608E-02  0.1188436E+00
         11   -1    0    0    0    0  0.00000000000E+00  0.00000000000E+00  0.99998586329E+03  0.99998586329E+03  0.51100000000E-03 0. -1.
          2   -1    0    0  501    0 -0.00000000000E+00 -0.00000000000E+00 -0.23898209565E+02  0.23898209701E+02  0.25500000000E-02 0. -1.
         11    1    1    2    0    0  0.61177306389E+02  0.13080020111E+03  0.37605127255E+03  0.40282243609E+03  0.51100000000E-03 0. -1.
         22    1    1    2    0    0  0.68798566042E+01 -0.65358533450E+02  0.23579494261E+03  0.24478219968E+03  0.00000000000E+00 0. -1.
          2    1    1    2  501    0 -0.68057162993E+02 -0.65441667661E+02  0.36424143857E+03  0.37627943723E+03  0.25500000000E-02 0. -1.
<mgrwt>
<rscale>  0 0.16023077E+03</rscale>
<asrwt>0</asrwt>
<pdfrwt beam="1">  1       11 0.10000000E+01 0.14440006E+03</pdfrwt>
<pdfrwt beam="2">  1        2 0.36765956E-02 0.16023077E+03</pdfrwt>
<totfact> 0.27910627E+03</totfact>
</mgrwt>
</event>
<event>
 5    1  0.6729100E-004  0.1287603E+03  0.7818608E-02  0.1229307E+00
         11   -1    0    0    0    0  0.00000000000E+00  0.00000000000E+00  0.10001428868E+04  0.10001428868E+04  0.51100000000E-03 0. -1.
          2   -1    0    0  501    0 -0.00000000000E+00 -0.00000000000E+00 -0.16143474399E+03  0.16143474401E+03  0.25500000000E-02 0. -1.
         11    1    1    2    0    0 -0.13999159686E+03 -0.12719205157E+03  0.56047930416E+03  0.59153403585E+03  0.51100000000E-03 0. -1.
         22    1    1    2    0    0  0.14008422563E+02  0.10932497776E+03  0.38715885510E+03  0.40254212916E+03  0.00000000000E+00 0. -1.
          2    1    1    2  501    0  0.12598317430E+03  0.17867073805E+02 -0.10893001649E+03  0.16750146576E+03  0.25500000000E-02 0. -1.
<mgrwt>
<rscale>  0 0.12876031E+03</rscale>
<asrwt>0</asrwt>
<pdfrwt beam="1">  1       11 0.10000000E+01 0.11021881E+03</pdfrwt>
<pdfrwt beam="2">  1        2 0.24839663E-01 0.12876031E+03</pdfrwt>
<totfact> 0.26339348E+02</totfact>
</mgrwt>
</event>
<event>
 5    1  0.6729100E-004  0.3493663E+03  0.7818608E-02  0.1457380E+00
         11   -1    0    0    0    0  0.00000000000E+00  0.00000000000E+00  0.10002973500E+04  0.10002973500E+04  0.51100000000E-03 0.  1.
          2   -1    0    0  501    0 -0.00000000000E+00 -0.00000000000E+00 -0.98876398806E+03  0.98876398806E+03  0.25500000000E-02 0.  1.
         11    1    1    2    0    0 -0.18917489272E+02  0.34854501956E+03  0.50622224945E+03  0.61490037233E+03  0.51100000000E-03 0.  1.
         22    1    1    2    0    0  0.66637953229E+02 -0.34523344131E+03  0.36868335318E+03  0.50946458240E+03  0.00000000000E+00 0.  1.
          2    1    1    2  501    0 -0.47720463958E+02 -0.33115782460E+01 -0.86337224072E+03  0.86469638330E+03  0.25500000000E-02 0.  1.
<mgrwt>
<rscale>  0 0.47835230E+02</rscale>
<asrwt>0</asrwt>
<pdfrwt beam="1">  1       11 0.10000000E+01 0.34936628E+03</pdfrwt>
<pdfrwt beam="2">  1        2 0.15216276E+00 0.47835230E+02</pdfrwt>
<totfact> 0.36361924E+01</totfact>
</mgrwt>
</event>
<event>
 5    1  0.6729100E-004  0.1926121E+03  0.7818608E-02  0.1156126E+00
         11   -1    0    0    0    0  0.00000000000E+00  0.00000000000E+00  0.10002163825E+04  0.10002163825E+04  0.51100000000E-03 0.  1.
          2   -1    0    0  501    0 -0.00000000000E+00 -0.00000000000E+00 -0.43837008611E+03  0.43837008612E+03  0.25500000000E-02 0.  1.
         11    1    1    2    0    0  0.46542160784E+02 -0.22585387072E+03  0.83554499191E+03  0.86678231244E+03  0.51100000000E-03 0.  1.
         22    1    1    2    0    0  0.50200504486E+01  0.41271823892E+02  0.12375787927E+03  0.13055488132E+03  0.00000000000E+00 0. -1.
          2    1    1    2  501    0 -0.51562211232E+02  0.18458204682E+03 -0.39745657484E+03  0.44124927481E+03  0.25500000000E-02 0.  1.
<mgrwt>
<rscale>  0 0.19261209E+03</rscale>
<asrwt>0</asrwt>
<pdfrwt beam="1">  1       11 0.10000000E+01 0.41576007E+02</pdfrwt>
<pdfrwt beam="2">  1        2 0.67456143E-01 0.19261209E+03</pdfrwt>
<totfact> 0.90088357E+01</totfact>
</mgrwt>
</event>
<event>
 5    1  0.6729100E-004  0.2148791E+03  0.7818608E-02  0.1137759E+00
         11   -1    0    0    0    0  0.00000000000E+00  0.00000000000E+00  0.99976238681E+03  0.99976238681E+03  0.51100000000E-03 0. -1.
          2   -1    0    0  501    0 -0.00000000000E+00 -0.00000000000E+00 -0.95614273643E+03  0.95614273643E+03  0.25500000000E-02 0. -1.
         11    1    1    2    0    0  0.10256616349E+03  0.87196936809E+02  0.26050504951E+03  0.29323370288E+03  0.51100000000E-03 0. -1.
         22    1    1    2    0    0 -0.23449771850E+02  0.11738489559E+03  0.70497958157E+03  0.71507014757E+03  0.00000000000E+00 0. -1.
          2    1    1    2  501    0 -0.79116391639E+02 -0.20458183240E+03 -0.92186498070E+03  0.94760127280E+03  0.25500000000E-02 0. -1.
<mgrwt>
<rscale>  0 0.21487914E+03</rscale>
<asrwt>0</asrwt>
<pdfrwt beam="1">  1       11 0.10000000E+01 0.11970424E+03</pdfrwt>
<pdfrwt beam="2">  1        2 0.14706393E+00 0.21487914E+03</pdfrwt>
<totfact> 0.35356898E+01</totfact>
</mgrwt>
</event>
<event>
 5    1  0.6729100E-004  0.3543916E+03  0.7818608E-02  0.1060827E+00
         11   -1    0    0    0    0  0.00000000000E+00  0.00000000000E+00  0.10003731584E+04  0.10003731584E+04  0.51100000000E-03 0. -1.
          2   -1    0    0  501    0 -0.00000000000E+00 -0.00000000000E+00 -0.18879353929E+03  0.18879353931E+03  0.25500000000E-02 0. -1.
         11    1    1    2    0    0 -0.32532558964E+03  0.29552245119E+02  0.21484100248E+03  0.39098175253E+03  0.51100000000E-03 0. -1.
         22    1    1    2    0    0 -0.64501980190E+02 -0.86416091819E+01  0.30225737679E+03  0.30918393341E+03  0.00000000000E+00 0.  1.
          2    1    1    2  501    0  0.38982756983E+03 -0.20910635937E+02  0.29448123988E+03  0.48900101180E+03  0.25500000000E-02 0. -1.
<mgrwt>
<rscale>  0 0.35439164E+03</rscale>
<asrwt>0</asrwt>
<pdfrwt beam="1">  1       11 0.10000000E+01 0.65078283E+02</pdfrwt>
<pdfrwt beam="2">  1        2 0.29055998E-01 0.35439164E+03</pdfrwt>
<totfact> 0.22577913E+02</totfact>
</mgrwt>
</event>
<event>
 5    1  0.6729100E-004  0.9913281E+02  0.7818608E-02  0.1282130E+00
         11   -1    0    0    0    0  0.00000000000E+00  0.00000000000E+00  0.99995851000E+03  0.99995851000E+03  0.51100000000E-03 0. -1.
          2   -1    0    0  501    0 -0.00000000000E+00 -0.00000000000E+00 -0.25472117953E+02  0.25472118080E+02  0.25500000000E-02 0. -1.
         11    1    1    2    0    0  0.41047979756E+02 -0.37944946236E+02  0.14622320586E+03  0.15654386452E+03  0.51100000000E-03 0. -1.
         22    1    1    2    0    0 -0.12038308446E+03 -0.16811669699E+02  0.68823318873E+03  0.69888456939E+03  0.00000000000E+00 0. -1.
          2    1    1    2  501    0  0.79335104708E+02  0.54756615935E+02  0.14002999746E+03  0.17000219417E+03  0.25500000000E-02 0. -1.
<mgrwt>
<rscale>  0 0.99132806E+02</rscale>
<asrwt>0</asrwt>
<pdfrwt beam="1">  1       11 0.10000000E+01 0.55899541E+02</pdfrwt>
<pdfrwt beam="2">  1        2 0.39186247E-02 0.99132806E+02</pdfrwt>
<totfact> 0.24510037E+03</totfact>
</mgrwt>
</event>
<event>
 5    1  0.6729100E-004  0.4009245E+03  0.7818608E-02  0.1043460E+00
         11   -1    0    0    0    0  0.00000000000E+00  0.00000000000E+00  0.10001433593E+04  0.10001433593E+04  0.51100000000E-03 0. -1.
          2   -1    0    0  501    0 -0.00000000000E+00 -0.00000000000E+00 -0.26688151139E+03  0.26688151140E+03  0.25500000000E-02 0. -1.
         11    1    1    2    0    0  0.57930893983E+02  0.41624094611E+03  0.44850327477E+03  0.61462809989E+03  0.51100000000E-03 0. -1.
         22    1    1    2    0    0 -0.87537565443E+02 -0.21762971053E+02  0.23743127359E+03  0.25398831065E+03  0.00000000000E+00 0. -1.
          2    1    1    2  501    0  0.29606671460E+02 -0.39447797506E+03  0.47327299516E+02  0.39840846011E+03  0.25500000000E-02 0. -1.
<mgrwt>
<rscale>  0 0.40092450E+03</rscale>
<asrwt>0</asrwt>
<pdfrwt beam="1">  1       11 0.10000000E+01 0.90202285E+02</pdfrwt>
<pdfrwt beam="2">  1        2 0.41064579E-01 0.40092450E+03</pdfrwt>
<totfact> 0.15426469E+02</totfact>
</mgrwt>
</event>
<event>
 5    1  0.6729100E-004  0.1173840E+03  0.7818608E-02  0.1247476E+00
         11   -1    0    0    0    0  0.00000000000E+00  0.00000000000E+00  0.99992863641E+03  0.99992863641E+03  0.51100000000E-03 0.  1.
         -2   -1    0    0    0  501 -0.00000000000E+00 -0.00000000000E+00 -0.75401645228E+02  0.75401645271E+02  0.25500000000E-02 0. -1.
         11    1    1    2    0    0  0.13564381540E+03 -0.11747214537E+02  0.81747400877E+03  0.82873457555E+03  0.51100000000E-03 0.  1.
         22    1    1    2    0    0 -0.20668667922E+02  0.30335158848E+02  0.12362053760E+03  0.12895523647E+03  0.00000000000E+00 0.  1.
         -2    1    1    2    0  501 -0.11497514748E+03 -0.18587944311E+02 -0.16567555183E+02  0.11764046966E+03  0.25500000000E-02 0. -1.
<mgrwt>
<rscale>  0 0.11738398E+03</rscale>
<asrwt>0</asrwt>
<pdfrwt beam="1">  1       11 0.10000000E+01 0.36707161E+02</pdfrwt>
<pdfrwt beam="2">  1       -2 0.11599425E-01 0.11738398E+03</pdfrwt>
<totfact> 0.40040870E+02</totfact>
</mgrwt>
</event>
<event>
 5    1  0.6729100E-004  0.1280536E+03  0.7818608E-02  0.1230373E+00
         11   -1    0    0    0    0  0.00000000000E+00  0.00000000000E+00  0.10000275544E+04  0.10000275544E+04  0.51100000000E-03 0.  1.
          2   -1    0    0  501    0 -0.00000000000E+00 -0.00000000000E+00 -0.41423944301E+02  0.41423944379E+02  0.25500000000E-02 0.  1.
         11    1    1    2    0    0 -0.13759698508E+03  0.18412731691E+02  0.47458135461E+03  0.49446882726E+03  0.51100000000E-03 0.  1.
         22    1    1    2    0    0  0.43400358393E+02  0.73129373628E+02  0.34661415050E+03  0.35689335343E+03  0.00000000000E+00 0.  1.
          2    1    1    2  501    0  0.94196626690E+02 -0.91542105319E+02  0.13740810498E+03  0.19008931808E+03  0.25500000000E-02 0.  1.
<mgrwt>
<rscale>  0 0.12805356E+03</rscale>
<asrwt>0</asrwt>
<pdfrwt beam="1">  1       11 0.10000000E+01 0.85038206E+02</pdfrwt>
<pdfrwt beam="2">  1        2 0.63730899E-02 0.12805356E+03</pdfrwt>
<totfact> 0.13331472E+03</totfact>
</mgrwt>
</event>
<event>
 5    1  0.6729100E-004  0.1175662E+03  0.7818608E-02  0.1530738E+00
         11   -1    0    0    0    0  0.00000000000E+00  0.00000000000E+00  0.10005307893E+04  0.10005307893E+04  0.51100000000E-03 0.  1.
          2   -1    0    0  501    0 -0.00000000000E+00 -0.00000000000E+00 -0.98651775293E+02  0.98651775326E+02  0.25500000000E-02 0.  1.
         11    1    1    2    0    0  0.77740092586E+02  0.82231203943E+02  0.40751111960E+03  0.42293120657E+03  0.51100000000E-03 0.  1.
         22    1    1    2    0    0 -0.10791616492E+03 -0.60655262488E+02  0.57463944646E+03  0.58782263732E+03  0.00000000000E+00 0.  1.
          2    1    1    2  501    0  0.30176072338E+02 -0.21575941455E+02 -0.80271552002E+02  0.88428720780E+02  0.25500000000E-02 0.  1.
<mgrwt>
<rscale>  0 0.37096046E+02</rscale>
<asrwt>0</asrwt>
<pdfrwt beam="1">  1       11 0.10000000E+01 0.11756623E+03</pdfrwt>
<pdfrwt beam="2">  1        2 0.15185252E-01 0.37096046E+02</pdfrwt>
<totfact> 0.43122855E+02</totfact>
</mgrwt>
</event>
<event>
 5    1  0.6729100E-004  0.1504284E+03  0.7818608E-02  0.1199948E+00
         11   -1    0    0    0    0  0.00000000000E+00  0.00000000000E+00  0.99986911890E+03  0.99986911890E+03  0.51100000000E-03 0.  1.
          2   -1    0    0  501    0 -0.00000000000E+00 -0.00000000000E+00 -0.13819868165E+03  0.13819868168E+03  0.25500000000E-02 0.  1.
         11    1    1    2    0    0  0.15975103828E+03 -0.68677077994E+01  0.93174892666E+03  0.94536956899E+03  0.51100000000E-03 0.  1.
         22    1    1    2    0    0 -0.97963871222E+01  0.34770508902E+01  0.16507236094E+02  0.19507637658E+02  0.00000000000E+00 0.  1.
          2    1    1    2  501    0 -0.14995465115E+03  0.33906569092E+01 -0.86585725508E+02  0.17319059393E+03  0.25500000000E-02 0.  1.
<mgrwt>
<rscale>  0 0.15042845E+03</rscale>
<asrwt>0</asrwt>
<pdfrwt beam="1">  1       11 0.10000000E+01 0.10395147E+02</pdfrwt>
<pdfrwt beam="2">  1        2 0.21258552E-01 0.15042845E+03</pdfrwt>
<totfact> 0.31462792E+02</totfact>
</mgrwt>
</event>
<event>
 5    1  0.6729100E-004  0.1689679E+03  0.7818608E-02  0.1178928E+00
         11   -1    0    0    0    0  0.00000000000E+00  0.00000000000E+00  0.10002829394E+04  0.10002829394E+04  0.51100000000E-03 0.  1.
          2   -1    0    0  501    0 -0.00000000000E+00 -0.00000000000E+00 -0.12889831377E+03  0.12889831379E+03  0.25500000000E-02 0.  1.
         11    1    1    2    0    0  0.12819330541E+03 -0.68164301892E+02  0.76396069306E+03  0.77763477041E+03  0.51100000000E-03 0.  1.
         22    1    1    2    0    0  0.44337127855E+02  0.73875481061E+02  0.15068974769E+03  0.17358216402E+03  0.00000000000E+00 0. -1.
          2    1    1    2  501    0 -0.17253043326E+03 -0.57111791688E+01 -0.43265815161E+02  0.17796431872E+03  0.25500000000E-02 0.  1.
<mgrwt>
<rscale>  0 0.16896788E+03</rscale>
<asrwt>0</asrwt>
<pdfrwt beam="1">  1       11 0.10000000E+01 0.86158967E+02</pdfrwt>
<pdfrwt beam="2">  1        2 0.19836120E-01 0.16896788E+03</pdfrwt>
<totfact> 0.34149438E+02</totfact>
</mgrwt>
</event>
<event>
 5    1  0.6729100E-004  0.1546872E+03  0.7818608E-02  0.1194829E+00
         11   -1    0    0    0    0  0.00000000000E+00  0.00000000000E+00  0.10004464776E+04  0.10004464776E+04  0.51100000000E-03 0.  1.
          2   -1    0    0  501    0 -0.00000000000E+00 -0.00000000000E+00 -0.95988129941E+02  0.95988129974E+02  0.25500000000E-02 0.  1.
         11    1    1    2    0    0  0.13117826900E+03  0.41131395706E+02  0.78795175361E+03  0.79985467179E+03  0.51100000000E-03 0.  1.
         22    1    1    2    0    0  0.63665790371E+01  0.33318006691E+02  0.13490150347E+03  0.13910082148E+03  0.00000000000E+00 0. -1.
          2    1    1    2  501    0 -0.13754484803E+03 -0.74449402397E+02 -0.18394909432E+02  0.15747911429E+03  0.25500000000E-02 0.  1.
<mgrwt>
<rscale>  0 0.15468725E+03</rscale>
<asrwt>0</asrwt>
<pdfrwt beam="1">  1       11 0.10000000E+01 0.33920833E+02</pdfrwt>
<pdfrwt beam="2">  1        2 0.14773998E-01 0.15468725E+03</pdfrwt>
<totfact> 0.47883320E+02</totfact>
</mgrwt>
</event>
<event>
 5    1  0.6729100E-004  0.5258605E+03  0.7818608E-02  0.1016010E+00
         11   -1    0    0    0    0  0.00000000000E+00  0.00000000000E+00  0.10001254332E+04  0.10001254332E+04  0.51100000000E-03 0.  1.
          2   -1    0    0  501    0 -0.00000000000E+00 -0.00000000000E+00 -0.30263726940E+03  0.30263726941E+03  0.25500000000E-02 0.  1.
         11    1    1    2    0    0  0.19606270960E+03 -0.37682159319E+03  0.52334463378E+03  0.67403613026E+03  0.51100000000E-03 0.  1.
         22    1    1    2    0    0 -0.40579132784E+02 -0.89481637475E+02  0.83403688190E+02  0.12887903114E+03  0.00000000000E+00 0. -1.
          2    1    1    2  501    0 -0.15548357682E+03  0.46630323067E+03  0.90739841875E+02  0.49984754126E+03  0.25500000000E-02 0.  1.
<mgrwt>
<rscale>  0 0.49154231E+03</rscale>
<asrwt>0</asrwt>
<pdfrwt beam="1">  1       11 0.10000000E+01 0.52586047E+03</pdfrwt>
<pdfrwt beam="2">  1        2 0.46565419E-01 0.49154231E+03</pdfrwt>
<totfact> 0.13441379E+02</totfact>
</mgrwt>
</event>
<event>
 5    1  0.6729100E-004  0.2232340E+03  0.7818608E-02  0.1154239E+00
         11   -1    0    0    0    0  0.00000000000E+00  0.00000000000E+00  0.10001418279E+04  0.10001418279E+04  0.51100000000E-03 0. -1.
          2   -1    0    0  501    0 -0.00000000000E+00 -0.00000000000E+00 -0.97633942215E+03  0.97633942215E+03  0.25500000000E-02 0.  1.
         11    1    1    2    0    0  0.58229684725E+02 -0.12112257897E+03  0.56736655908E+03  0.58306619494E+03  0.51100000000E-03 0. -1.
         22    1    1    2    0    0 -0.49601471593E+02 -0.73443953003E+02  0.41035568741E+03  0.41981675813E+03  0.00000000000E+00 0. -1.
          2    1    1    2  501    0 -0.86282131321E+01  0.19456653197E+03 -0.95391984072E+03  0.97359829701E+03  0.25500000000E-02 0.  1.
<mgrwt>
<rscale>  0 0.19475775E+03</rscale>
<asrwt>0</asrwt>
<pdfrwt beam="1">  1       11 0.10000000E+01 0.22323402E+03</pdfrwt>
<pdfrwt beam="2">  1        2 0.15022736E+00 0.19475775E+03</pdfrwt>
<totfact> 0.34493808E+01</totfact>
</mgrwt>
</event>
<event>
 5    1  0.6729100E-004  0.3484285E+03  0.7818608E-02  0.1063262E+00
         11   -1    0    0    0    0  0.00000000000E+00  0.00000000000E+00  0.10002553226E+04  0.10002553226E+04  0.51100000000E-03 0. -1.
          2   -1    0    0  501    0 -0.00000000000E+00 -0.00000000000E+00 -0.21765489232E+03  0.21765489234E+03  0.25500000000E-02 0. -1.
         11    1    1    2    0    0  0.34164126518E+03 -0.10199259092E+03  0.74690809743E+03  0.82764300799E+03  0.51100000000E-03 0. -1.
         22    1    1    2    0    0 -0.11675478509E+02 -0.43797685257E+01  0.41702745567E+02  0.43527211702E+02  0.00000000000E+00 0.  1.
          2    1    1    2  501    0 -0.32996578667E+03  0.10637235944E+03 -0.60104127303E+01  0.34673999523E+03  0.25500000000E-02 0. -1.
<mgrwt>
<rscale>  0 0.34842845E+03</rscale>
<asrwt>0</asrwt>
<pdfrwt beam="1">  1       11 0.10000000E+01 0.12469931E+02</pdfrwt>
<pdfrwt beam="2">  1        2 0.33493917E-01 0.34842845E+03</pdfrwt>
<totfact> 0.19281640E+02</totfact>
</mgrwt>
</event>
<event>
 5    1  0.6729100E-004  0.1513026E+03  0.7818608E-02  0.1198881E+00
         11   -1    0    0    0    0  0.00000000000E+00  0.00000000000E+00  0.10004536121E+04  0.10004536121E+04  0.51100000000E-03 0.  1.
          2   -1    0    0  501    0 -0.00000000000E+00 -0.00000000000E+00 -0.18341649556E+04  0.18341649556E+04  0.25500000000E-02 0.  1.
         11    1    1    2    0    0  0.14491566871E+02  0.14122090222E+03  0.57872153949E+03  0.59587915637E+03  0.51100000000E-03 0.  1.
         22    1    1    2    0    0  0.74073981659E+02 -0.18361842054E+02  0.40645469442E+03  0.41355716729E+03  0.00000000000E+00 0.  1.
          2    1    1    2  501    0 -0.88565548530E+02 -0.12285906016E+03 -0.18188875774E+04  0.18251822441E+04  0.25500000000E-02 0.  1.
<mgrwt>
<rscale>  0 0.15130261E+03</rscale>
<asrwt>0</asrwt>
<pdfrwt beam="1">  1       11 0.10000000E+01 0.76315870E+02</pdfrwt>
<pdfrwt beam="2">  1        2 0.28230722E+00 0.15130261E+03</pdfrwt>
<totfact> 0.12004734E+01</totfact>
</mgrwt>
</event>
<event>
 5    1  0.6729100E-004  0.9631022E+02  0.7818608E-02  0.1558136E+00
         11   -1    0    0    0    0  0.00000000000E+00  0.00000000000E+00  0.10000832905E+04  0.10000832905E+04  0.51100000000E-03 0. -1.
          2   -1    0    0  501    0 -0.00000000000E+00 -0.00000000000E+00 -0.11120003532E+02  0.11120003824E+02  0.25500000000E-02 0. -1.
         11    1    1    2    0    0  0.93803688465E+02  0.48959435948E+00  0.55355019265E+03  0.56144206064E+03  0.51100000000E-03 0. -1.
         22    1    1    2    0    0  0.64514254333E+01 -0.10079069397E+02  0.48723044242E+02  0.50171142804E+02  0.00000000000E+00 0.  1.
          2    1    1    2  501    0 -0.10025511390E+03  0.95894750376E+01  0.38669005003E+03  0.39959009084E+03  0.25500000000E-02 0. -1.
<mgrwt>
<rscale>  0 0.33949110E+02</rscale>
<asrwt>0</asrwt>
<pdfrwt beam="1">  1       11 0.10000000E+01 0.96310216E+02</pdfrwt>
<pdfrwt beam="2">  1        2 0.17109122E-02 0.33949110E+02</pdfrwt>
<totfact> 0.63098014E+03</totfact>
</mgrwt>
</event>
<event>
 5    1  0.6729100E-004  0.1487130E+03  0.7818608E-02  0.1202063E+00
         11   -1    0    0    0    0  0.00000000000E+00  0.00000000000E+00  0.10002423627E+04  0.10002423627E+04  0.51100000000E-03 0. -1.
          2   -1    0    0  501    0 -0.00000000000E+00 -0.00000000000E+00 -0.71377790696E+02  0.71377790742E+02  0.25500000000E-02 0. -1.
         11    1    1    2    0    0 -0.15394964460E+02  0.14357269920E+03  0.86904285273E+03  0.88095720938E+03  0.51100000000E-03 0. -1.
         22    1    1    2    0    0  0.12304430855E+02  0.55839785073E+01  0.37441290285E+02  0.39804899859E+02  0.00000000000E+00 0.  1.
          2    1    1    2  501    0  0.30905336045E+01 -0.14915667770E+03  0.22380429031E+02  0.15085804424E+03  0.25500000000E-02 0. -1.
<mgrwt>
<rscale>  0 0.14871298E+03</rscale>
<asrwt>0</asrwt>
<pdfrwt beam="1">  1       11 0.10000000E+01 0.13512211E+02</pdfrwt>
<pdfrwt beam="2">  1        2 0.10983860E-01 0.14871298E+03</pdfrwt>
<totfact> 0.68161560E+02</totfact>
</mgrwt>
</event>
<event>
 5    1  0.6729100E-004  0.1585402E+03  0.7818608E-02  0.1190355E+00
         11   -1    0    0    0    0  0.00000000000E+00  0.00000000000E+00  0.10002796110E+04  0.10002796110E+04  0.51100000000E-03 0. -1.
         -2   -1    0    0    0  501 -0.00000000000E+00 -0.00000000000E+00 -0.25282688533E+02  0.25282688662E+02  0.25500000000E-02 0. -1.
         11    1    1    2    0    0  0.53651806158E+02  0.14463405684E+03  0.57383289084E+03  0.59420679339E+03  0.51100000000E-03 0. -1.
         22    1    1    2    0    0  0.14658373043E+01 -0.10265314482E+02  0.54837082345E+02  0.55808878868E+02  0.00000000000E+00 0.  1.
         -2    1    1    2    0  501 -0.55117643463E+02 -0.13436874236E+03  0.34632694923E+03  0.37554662735E+03  0.25500000000E-02 0. -1.
<mgrwt>
<rscale>  0 0.15854019E+03</rscale>
<asrwt>0</asrwt>
<pdfrwt beam="1">  1       11 0.10000000E+01 0.15426447E+03</pdfrwt>
<pdfrwt beam="2">  1       -2 0.38907319E-02 0.15854019E+03</pdfrwt>
<totfact> 0.21801029E+03</totfact>
</mgrwt>
</event>
<event>
 5    1  0.6729100E-004  0.2607686E+03  0.7818608E-02  0.1106682E+00
         11   -1    0    0    0    0  0.00000000000E+00  0.00000000000E+00  0.10001450750E+04  0.10001450750E+04  0.51100000000E-03 0.  1.
          2   -1    0    0  501    0 -0.00000000000E+00 -0.00000000000E+00 -0.47159320745E+03  0.47159320745E+03  0.25500000000E-02 0.  1.
         11    1    1    2    0    0  0.13474240179E+03  0.22886384036E+03  0.78339675404E+03  0.82719081626E+03  0.51100000000E-03 0.  1.
         22    1    1    2    0    0  0.22841614534E+02 -0.21277462630E+02  0.15540688739E+03  0.15851110503E+03  0.00000000000E+00 0.  1.
          2    1    1    2  501    0 -0.15758401632E+03 -0.20758637773E+03 -0.41025177386E+03  0.48603636118E+03  0.25500000000E-02 0.  1.
<mgrwt>
<rscale>  0 0.26076860E+03</rscale>
<asrwt>0</asrwt>
<pdfrwt beam="1">  1       11 0.10000000E+01 0.31216498E+02</pdfrwt>
<pdfrwt beam="2">  1        2 0.72563325E-01 0.26076860E+03</pdfrwt>
<totfact> 0.82816927E+01</totfact>
</mgrwt>
</event>
<event>
 5    1  0.6729100E-004  0.2017003E+03  0.7818608E-02  0.1148312E+00
         11   -1    0    0    0    0  0.00000000000E+00  0.00000000000E+00  0.10001868657E+04  0.10001868657E+04  0.51100000000E-03 0. -1.
         -2   -1    0    0    0  501 -0.00000000000E+00 -0.00000000000E+00 -0.14915822725E+03  0.14915822727E+03  0.25500000000E-02 0.  1.
         11    1    1    2    0    0 -0.73517604425E+02  0.22643181612E+03  0.62499200463E+03  0.66879833385E+03  0.51100000000E-03 0. -1.
         22    1    1    2    0    0 -0.28054232363E+02 -0.56598326041E+02  0.27045431256E+03  0.27773358754E+03  0.00000000000E+00 0.  1.
         -2    1    1    2    0  501  0.10157183679E+03 -0.16983349008E+03 -0.44417678729E+02  0.20281317159E+03  0.25500000000E-02 0.  1.
<mgrwt>
<rscale>  0 0.20170030E+03</rscale>
<asrwt>0</asrwt>
<pdfrwt beam="1">  1       11 0.10000000E+01 0.63169696E+02</pdfrwt>
<pdfrwt beam="2">  1       -2 0.22951707E-01 0.20170030E+03</pdfrwt>
<totfact> 0.13208652E+02</totfact>
</mgrwt>
</event>
<event>
 5    1  0.6729100E-004  0.2165718E+03  0.7818608E-02  0.1136465E+00
         11   -1    0    0    0    0  0.00000000000E+00  0.00000000000E+00  0.10002370356E+04  0.10002370356E+04  0.51100000000E-03 0. -1.
          2   -1    0    0  501    0 -0.00000000000E+00 -0.00000000000E+00 -0.54826106015E+02  0.54826106074E+02  0.25500000000E-02 0. -1.
         11    1    1    2    0    0  0.21462680466E+03  0.33535937001E+02  0.51309266451E+03  0.55718345877E+03  0.51100000000E-03 0. -1.
         22    1    1    2    0    0 -0.47723696117E+01  0.19707852071E+02  0.94403183017E+02  0.96556387197E+02  0.00000000000E+00 0. -1.
          2    1    1    2  501    0 -0.20985443505E+03 -0.53243789072E+02  0.33791508203E+03  0.40132329568E+03  0.25500000000E-02 0. -1.
<mgrwt>
<rscale>  0 0.21657179E+03</rscale>
<asrwt>0</asrwt>
<pdfrwt beam="1">  1       11 0.10000000E+01 0.20277449E+02</pdfrwt>
<pdfrwt beam="2">  1        2 0.84367846E-02 0.21657179E+03</pdfrwt>
<totfact> 0.96508670E+02</totfact>
</mgrwt>
</event>
<event>
 5    1  0.6729100E-004  0.2391101E+03  0.7818608E-02  0.1120387E+00
         11   -1    0    0    0    0  0.00000000000E+00  0.00000000000E+00  0.10002132277E+04  0.10002132277E+04  0.51100000000E-03 0. -1.
          2   -1    0    0  501    0 -0.00000000000E+00 -0.00000000000E+00 -0.56184034060E+02  0.56184034118E+02  0.25500000000E-02 0. -1.
         11    1    1    2    0    0 -0.20897689090E+03  0.52718905127E+02  0.29983377650E+03  0.36925725101E+03  0.51100000000E-03 0. -1.
         22    1    1    2    0    0  0.73507064250E+02 -0.41398739304E+02  0.38849152554E+03  0.39754598417E+03  0.00000000000E+00 0. -1.
          2    1    1    2  501    0  0.13546982665E+03 -0.11320165823E+02  0.25570389162E+03  0.28959402667E+03  0.25500000000E-02 0. -1.
<mgrwt>
<rscale>  0 0.23911014E+03</rscale>
<asrwt>0</asrwt>
<pdfrwt beam="1">  1       11 0.10000000E+01 0.21552418E+03</pdfrwt>
<pdfrwt beam="2">  1        2 0.86455404E-02 0.23911014E+03</pdfrwt>
<totfact> 0.94079012E+02</totfact>
</mgrwt>
</event>
<event>
 5    1  0.6729100E-004  0.2590746E+03  0.7818608E-02  0.1107700E+00
         11   -1    0    0    0    0  0.00000000000E+00  0.00000000000E+00  0.10004531621E+04  0.10004531621E+04  0.51100000000E-03 0. -1.
         -2   -1    0    0    0  501 -0.00000000000E+00 -0.00000000000E+00 -0.12032675899E+03  0.12032675901E+03  0.25500000000E-02 0.  1.
         11    1    1    2    0    0 -0.86410933164E+02 -0.26079073793E+03  0.68068731435E+03  0.73403942556E+03  0.51100000000E-03 0. -1.
         22    1    1    2    0    0 -0.15766560415E+02  0.26762393777E+02  0.11292945173E+03  0.11712331628E+03  0.00000000000E+00 0.  1.
         -2    1    1    2    0  501  0.10217749358E+03  0.23402834416E+03  0.86509637058E+02  0.26961717930E+03  0.25500000000E-02 0.  1.
<mgrwt>
<rscale>  0 0.25907465E+03</rscale>
<asrwt>0</asrwt>
<pdfrwt beam="1">  1       11 0.10000000E+01 0.31061393E+02</pdfrwt>
<pdfrwt beam="2">  1       -2 0.18520197E-01 0.25907465E+03</pdfrwt>
<totfact> 0.19226176E+02</totfact>
</mgrwt>
</event>
<event>
 5    1  0.6729100E-004  0.2959956E+03  0.7818608E-02  0.1090568E+00
         11   -1    0    0    0    0  0.00000000000E+00  0.00000000000E+00  0.10005093762E+04  0.10005093762E+04  0.51100000000E-03 0. -1.
          2   -1    0    0  501    0 -0.00000000000E+00 -0.00000000000E+00 -0.14801461922E+04  0.14801461922E+04  0.25500000000E-02 0. -1.
         11    1    1    2    0    0  0.53191615113E+02  0.27502876479E+03  0.88521573159E+03  0.92848105034E+03  0.51100000000E-03 0. -1.
         22    1    1    2    0    0 -0.79204912186E+01  0.10991152162E+02  0.78702833821E+02  0.79860350979E+02  0.00000000000E+00 0. -1.
          2    1    1    2  501    0 -0.45271123894E+02 -0.28601991695E+03 -0.14435553814E+04  0.14723141671E+04  0.25500000000E-02 0. -1.
<mgrwt>
<rscale>  0 0.28958050E+03</rscale>
<asrwt>0</asrwt>
<pdfrwt beam="1">  1       11 0.10000000E+01 0.29599558E+03</pdfrwt>
<pdfrwt beam="2">  1        2 0.22783078E+00 0.28958050E+03</pdfrwt>
<totfact> 0.17432128E+01</totfact>
</mgrwt>
</event>
<event>
 5    1  0.6729100E-004  0.9214211E+02  0.7818608E-02  0.1297746E+00
         11   -1    0    0    0    0  0.00000000000E+00  0.00000000000E+00  0.10001067671E+04  0.10001067671E+04  0.51100000000E-03 0. -1.
          2   -1    0    0  501    0 -0.00000000000E+00 -0.00000000000E+00 -0.77554289549E+01  0.77554293741E+01  0.25500000000E-02 0. -1.
         11    1    1    2    0    0  0.14458253819E+02 -0.81302034615E+02  0.40569583215E+03  0.41401469800E+03  0.51100000000E-03 0. -1.
         22    1    1    2    0    0  0.68461882367E+01  0.61410374711E+02  0.35114576129E+03  0.35654095149E+03  0.00000000000E+00 0. -1.
          2    1    1    2  501    0 -0.21304442056E+02  0.19891659904E+02  0.23550974466E+03  0.23730654694E+03  0.25500000000E-02 0. -1.
<mgrwt>
<rscale>  0 0.92142112E+02</rscale>
<asrwt>0</asrwt>
<pdfrwt beam="1">  1       11 0.10000000E+01 0.82577653E+02</pdfrwt>
<pdfrwt beam="2">  1        2 0.11932703E-02 0.92142112E+02</pdfrwt>
<totfact> 0.12015957E+04</totfact>
</mgrwt>
</event>
<event>
 5    1  0.6729100E-004  0.3003676E+03  0.7818608E-02  0.1085057E+00
         11   -1    0    0    0    0  0.00000000000E+00  0.00000000000E+00  0.10000452550E+04  0.10000452550E+04  0.51100000000E-03 0. -1.
          2   -1    0    0  501    0 -0.00000000000E+00 -0.00000000000E+00 -0.10135108553E+04  0.10135108554E+04  0.25500000000E-02 0. -1.
         11    1    1    2    0    0  0.45459634133E+03 -0.12038643592E+03 -0.18955438968E+03  0.50703214312E+03  0.51100000000E-03 0. -1.
         22    1    1    2    0    0 -0.18493396410E+03  0.93243578454E+02  0.79995456245E+03  0.82633058638E+03  0.00000000000E+00 0. -1.
          2    1    1    2  501    0 -0.26966237724E+03  0.27142857464E+02 -0.62386577315E+03  0.68019338083E+03  0.25500000000E-02 0. -1.
<mgrwt>
<rscale>  0 0.30036764E+03</rscale>
<asrwt>0</asrwt>
<pdfrwt beam="1">  1       11 0.10000000E+01 0.20711093E+03</pdfrwt>
<pdfrwt beam="2">  1        2 0.15593180E+00 0.30036764E+03</pdfrwt>
<totfact> 0.32062987E+01</totfact>
</mgrwt>
</event>
<event>
 5    1  0.6729100E-004  0.1864177E+03  0.7818608E-02  0.1180148E+00
         11   -1    0    0    0    0  0.00000000000E+00  0.00000000000E+00  0.10003657092E+04  0.10003657092E+04  0.51100000000E-03 0. -1.
          2   -1    0    0  501    0 -0.00000000000E+00 -0.00000000000E+00 -0.18429552972E+03  0.18429552974E+03  0.25500000000E-02 0. -1.
         11    1    1    2    0    0 -0.13311095772E+03  0.68968423773E+00  0.77052272670E+03  0.78193623467E+03  0.51100000000E-03 0. -1.
         22    1    1    2    0    0 -0.29782679926E+02  0.39644739332E+02  0.18062142560E+03  0.18730406501E+03  0.00000000000E+00 0.  1.
          2    1    1    2  501    0  0.16289363765E+03 -0.40334423570E+02 -0.13507397286E+03  0.21542093923E+03  0.25500000000E-02 0. -1.
<mgrwt>
<rscale>  0 0.16781300E+03</rscale>
<asrwt>0</asrwt>
<pdfrwt beam="1">  1       11 0.10000000E+01 0.18641770E+03</pdfrwt>
<pdfrwt beam="2">  1        2 0.28363527E-01 0.16781300E+03</pdfrwt>
<totfact> 0.22903933E+02</totfact>
</mgrwt>
</event>
<event>
 5    1  0.6729100E-004  0.1242131E+03  0.7818608E-02  0.1242770E+00
         11   -1    0    0    0    0  0.00000000000E+00  0.00000000000E+00  0.10001059762E+04  0.10001059762E+04  0.51100000000E-03 0. -1.
         -2   -1    0    0    0  501 -0.00000000000E+00 -0.00000000000E+00 -0.16591732274E+02  0.16591732470E+02  0.25500000000E-02 0.  1.
         11    1    1    2    0    0  0.78710802912E+02  0.67151116416E+02  0.53772598091E+03  0.54758916486E+03  0.51100000000E-03 0. -1.
         22    1    1    2    0    0  0.37990937525E+01  0.20254891395E+02  0.12202910274E+03  0.12375700245E+03  0.00000000000E+00 0.  1.
         -2    1    1    2    0  501 -0.82509896665E+02 -0.87406007811E+02  0.32375916024E+03  0.34535154132E+03  0.25500000000E-02 0.  1.
<mgrwt>
<rscale>  0 0.12019856E+03</rscale>
<asrwt>0</asrwt>
<pdfrwt beam="1">  1       11 0.10000000E+01 0.12421315E+03</pdfrwt>
<pdfrwt beam="2">  1       -2 0.25528447E-02 0.12019856E+03</pdfrwt>
<totfact> 0.39399966E+03</totfact>
</mgrwt>
</event>
<event>
 5    1  0.6729100E-004  0.1711753E+03  0.7818608E-02  0.1337878E+00
         11   -1    0    0    0    0  0.00000000000E+00  0.00000000000E+00  0.10002103921E+04  0.10002103921E+04  0.51100000000E-03 0.  1.
         -2   -1    0    0    0  501 -0.00000000000E+00 -0.00000000000E+00 -0.57998777072E+02  0.57998777128E+02  0.25500000000E-02 0.  1.
         11    1    1    2    0    0 -0.12876082729E+03 -0.12742281254E+03  0.37502844474E+03  0.41648800483E+03  0.51100000000E-03 0.  1.
         22    1    1    2    0    0  0.59354681809E+02  0.16069600038E+03  0.52851449189E+03  0.55558415287E+03  0.00000000000E+00 0.  1.
         -2    1    1    2    0  501  0.69406145477E+02 -0.33273187840E+02  0.38668678395E+02  0.86137011525E+02  0.25500000000E-02 0.  1.
<mgrwt>
<rscale>  0 0.76969592E+02</rscale>
<asrwt>0</asrwt>
<pdfrwt beam="1">  1       11 0.10000000E+01 0.17117531E+03</pdfrwt>
<pdfrwt beam="2">  1       -2 0.89247658E-02 0.76969592E+02</pdfrwt>
<totfact> 0.58588040E+02</totfact>
</mgrwt>
</event>
<event>
 5    1  0.6729100E-004  0.1085942E+03  0.7818608E-02  0.1467830E+00
         11   -1    0    0    0    0  0.00000000000E+00  0.00000000000E+00  0.10003117702E+04  0.10003117702E+04  0.51100000000E-03 0. -1.
          2   -1    0    0  501    0 -0.00000000000E+00 -0.00000000000E+00 -0.91970254678E+02  0.91970254713E+02  0.25500000000E-02 0. -1.
         11    1    1    2    0    0 -0.12124927108E+02  0.12579347984E+03  0.35233655844E+03  0.37431546033E+03  0.51100000000E-03 0. -1.
         22    1    1    2    0    0 -0.26276966461E+02 -0.10036069227E+03  0.62580121574E+03  0.63434210733E+03  0.00000000000E+00 0. -1.
          2    1    1    2  501    0  0.38401893569E+02 -0.25432787571E+02 -0.69796258682E+02  0.83624457223E+02  0.25500000000E-02 0. -1.
<mgrwt>
<rscale>  0 0.46060092E+02</rscale>
<asrwt>0</asrwt>
<pdfrwt beam="1">  1       11 0.10000000E+01 0.10859424E+03</pdfrwt>
<pdfrwt beam="2">  1        2 0.14153681E-01 0.46060092E+02</pdfrwt>
<totfact> 0.47318721E+02</totfact>
</mgrwt>
</event>
<event>
 5    1  0.6729100E-004  0.8574582E+02  0.7818608E-02  0.1489399E+00
         11   -1    0    0    0    0  0.00000000000E+00  0.00000000000E+00  0.10000350469E+04  0.10000350469E+04  0.51100000000E-03 0. -1.
          2   -1    0    0  501    0 -0.00000000000E+00 -0.00000000000E+00 -0.11545729470E+02  0.11545729752E+02  0.25500000000E-02 0. -1.
         11    1    1    2    0    0  0.97223558410E+02  0.68913194754E+01  0.50478732728E+03  0.51411103507E+03  0.51100000000E-03 0. -1.
         22    1    1    2    0    0 -0.20557267704E+02  0.53392339506E+01  0.27697227521E+02  0.34903367846E+02  0.00000000000E+00 0. -1.
          2    1    1    2  501    0 -0.76666290706E+02 -0.12230553426E+02  0.45600476260E+03  0.46256637371E+03  0.25500000000E-02 0. -1.
<mgrwt>
<rscale>  0 0.42675307E+02</rscale>
<asrwt>0</asrwt>
<pdfrwt beam="1">  1       11 0.10000000E+01 0.85745815E+02</pdfrwt>
<pdfrwt beam="2">  1        2 0.17763283E-02 0.42675307E+02</pdfrwt>
<totfact> 0.62430152E+03</totfact>
</mgrwt>
</event>
<event>
 5    1  0.8016454E-004  0.1078756E+03  0.7818608E-02  0.1264555E+00
         11   -1    0    0    0    0  0.00000000000E+00  0.00000000000E+00  0.10003432307E+04  0.10003432307E+04  0.51100000000E-03 0.  1.
          2   -1    0    0  501    0 -0.00000000000E+00 -0.00000000000E+00 -0.13365410588E+04  0.13365410588E+04  0.25500000000E-02 0.  1.
         11    1    1    2    0    0  0.11224402274E+03 -0.10598112127E+03  0.72315352537E+03  0.73944691490E+03  0.51100000000E-03 0.  1.
         22    1    1    2    0    0 -0.39709580078E+02  0.26318170137E+02  0.26472887194E+03  0.26898117493E+03  0.00000000000E+00 0.  1.
          2    1    1    2  501    0 -0.72534442666E+02  0.79662951130E+02 -0.13240802254E+04  0.13284561996E+04  0.25500000000E-02 0.  1.
<mgrwt>
<rscale>  0 0.10787559E+03</rscale>
<asrwt>0</asrwt>
<pdfrwt beam="1">  1       11 0.10000000E+01 0.47639236E+02</pdfrwt>
<pdfrwt beam="2">  1        2 0.20569227E+00 0.10787559E+03</pdfrwt>
<totfact> 0.22334398E+01</totfact>
</mgrwt>
</event>
<event>
 5    1  0.8004753E-004  0.1476022E+03  0.7818608E-02  0.1203451E+00
         11   -1    0    0    0    0  0.00000000000E+00  0.00000000000E+00  0.10003187869E+04  0.10003187869E+04  0.51100000000E-03 0.  1.
          2   -1    0    0  501    0 -0.00000000000E+00 -0.00000000000E+00 -0.14982940782E+04  0.14982940782E+04  0.25500000000E-02 0.  1.
         11    1    1    2    0    0  0.12873677173E+03  0.11408804127E+03  0.90542256773E+03  0.92161774273E+03  0.51100000000E-03 0.  1.
         22    1    1    2    0    0 -0.20781359786E+02 -0.13572971550E+02  0.81291476205E+02  0.84996438601E+02  0.00000000000E+00 0.  1.
          2    1    1    2  501    0 -0.10795541194E+03 -0.10051506972E+03 -0.14846893352E+04  0.14919986838E+04  0.25500000000E-02 0.  1.
<mgrwt>
<rscale>  0 0.14760221E+03</rscale>
<asrwt>0</asrwt>
<pdfrwt beam="1">  1       11 0.10000000E+01 0.24821170E+02</pdfrwt>
<pdfrwt beam="2">  1        2 0.23058026E+00 0.14760221E+03</pdfrwt>
<totfact> 0.17941089E+01</totfact>
</mgrwt>
</event>
<event>
 5    1  0.6729100E-004  0.1241290E+03  0.7818608E-02  0.1236437E+00
         11   -1    0    0    0    0  0.00000000000E+00  0.00000000000E+00  0.10006962063E+04  0.10006962063E+04  0.51100000000E-03 0. -1.
          2   -1    0    0  501    0 -0.00000000000E+00 -0.00000000000E+00 -0.85927550278E+03  0.85927550278E+03  0.25500000000E-02 0. -1.
         11    1    1    2    0    0 -0.80164280095E+01 -0.21596409442E+03  0.61892440069E+03  0.65557010836E+03  0.51100000000E-03 0. -1.
         22    1    1    2    0    0  0.21496946955E+02  0.93216035702E+02  0.35250621386E+03  0.36525604560E+03  0.00000000000E+00 0. -1.
          2    1    1    2  501    0 -0.13480518946E+02  0.12274805872E+03 -0.83000991102E+03  0.83914555513E+03  0.25500000000E-02 0. -1.
<mgrwt>
<rscale>  0 0.12412903E+03</rscale>
<asrwt>0</asrwt>
<pdfrwt beam="1">  1       11 0.10000000E+01 0.95662678E+02</pdfrwt>
<pdfrwt beam="2">  1        2 0.13228826E+00 0.12412903E+03</pdfrwt>
<totfact> 0.41651199E+01</totfact>
</mgrwt>
</event>
<event>
 5    1  0.6729100E-004  0.1949349E+03  0.7818608E-02  0.1284356E+00
         11   -1    0    0    0    0  0.00000000000E+00  0.00000000000E+00  0.10002954154E+04  0.10002954154E+04  0.51100000000E-03 0. -1.
          2   -1    0    0  501    0 -0.00000000000E+00 -0.00000000000E+00 -0.91058312368E+02  0.91058312404E+02  0.25500000000E-02 0.  1.
         11    1    1    2    0    0 -0.25116774451E+01  0.20279268872E+03  0.45638082054E+03  0.49941429342E+03  0.51100000000E-03 0. -1.
         22    1    1    2    0    0 -0.92048890773E+02 -0.17670146888E+03  0.45186486564E+03  0.49384032257E+03  0.00000000000E+00 0. -1.
          2    1    1    2  501    0  0.94560568218E+02 -0.26091219838E+02  0.99141680227E+00  0.98099111760E+02  0.25500000000E-02 0.  1.
<mgrwt>
<rscale>  0 0.98094102E+02</rscale>
<asrwt>0</asrwt>
<pdfrwt beam="1">  1       11 0.10000000E+01 0.19493493E+03</pdfrwt>
<pdfrwt beam="2">  1        2 0.14013109E-01 0.98094102E+02</pdfrwt>
<totfact> 0.49908056E+02</totfact>
</mgrwt>
</event>
<event>
 5    1  0.6729100E-004  0.1352788E+03  0.7818608E-02  0.1249678E+00
         11   -1    0    0    0    0  0.00000000000E+00  0.00000000000E+00  0.10001400215E+04  0.10001400215E+04  0.51100000000E-03 0. -1.
          2   -1    0    0  501    0 -0.00000000000E+00 -0.00000000000E+00 -0.10624943404E+03  0.10624943407E+03  0.25500000000E-02 0. -1.
         11    1    1    2    0    0 -0.18428816578E+03 -0.11375975572E+03  0.39141949841E+03  0.44733950620E+03  0.51100000000E-03 0. -1.
         22    1    1    2    0    0  0.69503036210E+02  0.96353831725E+02  0.52713869471E+03  0.54036093159E+03  0.00000000000E+00 0. -1.
          2    1    1    2  501    0  0.11478512957E+03  0.17405923999E+02 -0.24667605680E+02  0.11868901776E+03  0.25500000000E-02 0. -1.
<mgrwt>
<rscale>  0 0.11609734E+03</rscale>
<asrwt>0</asrwt>
<pdfrwt beam="1">  1       11 0.10000000E+01 0.13527881E+03</pdfrwt>
<pdfrwt beam="2">  1        2 0.16348355E-01 0.11609734E+03</pdfrwt>
<totfact> 0.42050984E+02</totfact>
</mgrwt>
</event>
<event>
 5    1  0.6729100E-004  0.1549304E+03  0.7818608E-02  0.1194542E+00
         11   -1    0    0    0    0  0.00000000000E+00  0.00000000000E+00  0.10004046013E+04  0.10004046013E+04  0.51100000000E-03 0. -1.
          2   -1    0    0  501    0 -0.00000000000E+00 -0.00000000000E+00 -0.12481418465E+03  0.12481418467E+03  0.25500000000E-02 0. -1.
         11    1    1    2    0    0  0.21901915940E+02  0.15242026512E+03 -0.63104153462E+02  0.16641443845E+03  0.51100000000E-03 0. -1.
         22    1    1    2    0    0  0.98667677849E+01  0.16177389554E+02  0.45603382820E+02  0.49383494853E+02  0.00000000000E+00 0.  1.
          2    1    1    2  501    0 -0.31768683725E+02 -0.16859765468E+03  0.89309118727E+03  0.90942085263E+03  0.25500000000E-02 0. -1.
<mgrwt>
<rscale>  0 0.15493044E+03</rscale>
<asrwt>0</asrwt>
<pdfrwt beam="1">  1       11 0.10000000E+01 0.18948906E+02</pdfrwt>
<pdfrwt beam="2">  1        2 0.19209951E-01 0.15493044E+03</pdfrwt>
<totfact> 0.35323599E+02</totfact>
</mgrwt>
</event>
<event>
 5    1  0.6729100E-004  0.2362939E+03  0.7818608E-02  0.1122287E+00
         11   -1    0    0    0    0  0.00000000000E+00  0.00000000000E+00  0.10000567427E+04  0.10000567427E+04  0.51100000000E-03 0. -1.
          2   -1    0    0  501    0 -0.00000000000E+00 -0.00000000000E+00 -0.65160471747E+02  0.65160471797E+02  0.25500000000E-02 0. -1.
         11    1    1    2    0    0  0.22353729503E+03  0.54894571125E+02  0.67879314441E+03  0.71675830592E+03  0.51100000000E-03 0. -1.
         22    1    1    2    0    0 -0.11207316518E+02 -0.12954156456E+02  0.35486349338E+02  0.39404252339E+02  0.00000000000E+00 0. -1.
          2    1    1    2  501    0 -0.21232997851E+03 -0.41940414668E+02  0.22061677723E+03  0.30905465626E+03  0.25500000000E-02 0. -1.
<mgrwt>
<rscale>  0 0.23629388E+03</rscale>
<asrwt>0</asrwt>
<pdfrwt beam="1">  1       11 0.10000000E+01 0.23017892E+03</pdfrwt>
<pdfrwt beam="2">  1        2 0.10025257E-01 0.23629388E+03</pdfrwt>
<totfact> 0.78076463E+02</totfact>
</mgrwt>
</event>
<event>
 5    1  0.6729100E-004  0.8747586E+03  0.7818608E-02  0.9468907E-01
         11   -1    0    0    0    0  0.00000000000E+00  0.00000000000E+00  0.10001133443E+04  0.10001133443E+04  0.51100000000E-03 0.  1.
          2   -1    0    0  501    0 -0.00000000000E+00 -0.00000000000E+00 -0.77142650283E+03  0.77142650284E+03  0.25500000000E-02 0.  1.
         11    1    1    2    0    0  0.23038127218E+03 -0.78029561105E+03  0.19755319382E+03  0.83723594977E+03  0.51100000000E-03 0.  1.
         22    1    1    2    0    0  0.38852677115E+02 -0.42952706517E+02  0.35888854134E+02  0.68135712862E+02  0.00000000000E+00 0.  1.
          2    1    1    2  501    0 -0.26923394930E+03  0.82324831757E+03 -0.47552065079E+01  0.86616818449E+03  0.25500000000E-02 0.  1.
<mgrwt>
<rscale>  0 0.86615513E+03</rscale>
<asrwt>0</asrwt>
<pdfrwt beam="1">  1       11 0.10000000E+01 0.87475863E+03</pdfrwt>
<pdfrwt beam="2">  1        2 0.11869445E+00 0.86615513E+03</pdfrwt>
<totfact> 0.44618062E+01</totfact>
</mgrwt>
</event>
<event>
 5    1  0.6729100E-004  0.1169845E+03  0.7818608E-02  0.1710957E+00
         11   -1    0    0    0    0  0.00000000000E+00  0.00000000000E+00  0.10000934469E+04  0.10000934469E+04  0.51100000000E-03 0.  1.
         -2   -1    0    0    0  501 -0.00000000000E+00 -0.00000000000E+00 -0.12175388909E+03  0.12175388912E+03  0.25500000000E-02 0. -1.
         11    1    1    2    0    0 -0.84528531873E+02 -0.96135149380E+02  0.54110333506E+03  0.55603944002E+03  0.51100000000E-03 0.  1.
         22    1    1    2    0    0  0.65522545602E+02  0.85367144796E+02  0.44398821867E+03  0.45684383734E+03  0.00000000000E+00 0.  1.
         -2    1    1    2    0  501  0.19005986271E+02  0.10768004584E+02 -0.10675199593E+03  0.10896405865E+03  0.25500000000E-02 0. -1.
<mgrwt>
<rscale>  0 0.21844392E+02</rscale>
<asrwt>0</asrwt>
<pdfrwt beam="1">  1       11 0.10000000E+01 0.11698449E+03</pdfrwt>
<pdfrwt beam="2">  1       -2 0.18733117E-01 0.21844392E+02</pdfrwt>
<totfact> 0.16783005E+02</totfact>
</mgrwt>
</event>
<event>
 5    1  0.6729100E-004  0.5568466E+03  0.7818608E-02  0.9999215E-01
         11   -1    0    0    0    0  0.00000000000E+00  0.00000000000E+00  0.10002557725E+04  0.10002557725E+04  0.51100000000E-03 0. -1.
          2   -1    0    0  501    0 -0.00000000000E+00 -0.00000000000E+00 -0.41504865963E+03  0.41504865964E+03  0.25500000000E-02 0. -1.
         11    1    1    2    0    0  0.53507348559E+03 -0.23573214867E+03  0.33568693025E+03  0.67420990503E+03  0.51100000000E-03 0. -1.
         22    1    1    2    0    0 -0.49303084282E+02 -0.10549296694E+01  0.19130605939E+03  0.19755990321E+03  0.00000000000E+00 0.  1.
          2    1    1    2  501    0 -0.48577040131E+03  0.23678707834E+03  0.58214123250E+02  0.54353462393E+03  0.25500000000E-02 0. -1.
<mgrwt>
<rscale>  0 0.55684662E+03</rscale>
<asrwt>0</asrwt>
<pdfrwt beam="1">  1       11 0.10000000E+01 0.49314369E+02</pdfrwt>
<pdfrwt beam="2">  1        2 0.63869970E-01 0.55684662E+03</pdfrwt>
<totfact> 0.94623732E+01</totfact>
</mgrwt>
</event>
<event>
 5    1  0.6729100E-004  0.1318937E+03  0.7818608E-02  0.1224673E+00
         11   -1    0    0    0    0  0.00000000000E+00  0.00000000000E+00  0.10003324865E+04  0.10003324865E+04  0.51100000000E-03 0.  1.
          2   -1    0    0  501    0 -0.00000000000E+00 -0.00000000000E+00 -0.33442296061E+02  0.33442296159E+02  0.25500000000E-02 0.  1.
         11    1    1    2    0    0 -0.12374508337E+03 -0.59493909958E+02  0.73452700623E+03  0.74724982025E+03  0.51100000000E-03 0.  1.
         22    1    1    2    0    0 -0.24468520384E+01  0.24148768600E+02  0.89180222673E+02  0.92424359483E+02  0.00000000000E+00 0.  1.
          2    1    1    2  501    0  0.12619193540E+03  0.35345141357E+02  0.14318296156E+03  0.19410060295E+03  0.25500000000E-02 0.  1.
<mgrwt>
<rscale>  0 0.13189373E+03</rscale>
<asrwt>0</asrwt>
<pdfrwt beam="1">  1       11 0.10000000E+01 0.24272415E+02</pdfrwt>
<pdfrwt beam="2">  1        2 0.51466791E-02 0.13189373E+03</pdfrwt>
<totfact> 0.17607111E+03</totfact>
</mgrwt>
</event>
<event>
 5    1  0.6729100E-004  0.6987865E+02  0.7818608E-02  0.1514109E+00
         11   -1    0    0    0    0  0.00000000000E+00  0.00000000000E+00  0.10004062610E+04  0.10004062610E+04  0.51100000000E-03 0.  1.
          2   -1    0    0  501    0 -0.00000000000E+00 -0.00000000000E+00 -0.85683921532E+01  0.85683925326E+01  0.25500000000E-02 0.  1.
         11    1    1    2    0    0 -0.11556228275E+02  0.69433739357E+02  0.41060277029E+03  0.41659239736E+03  0.51100000000E-03 0.  1.
         22    1    1    2    0    0  0.48755323397E+02 -0.57039109120E+02  0.39505980613E+03  0.40212285678E+03  0.00000000000E+00 0.  1.
          2    1    1    2  501    0 -0.37199095123E+02 -0.12394630237E+02  0.18617529242E+03  0.19025939938E+03  0.25500000000E-02 0.  1.
<mgrwt>
<rscale>  0 0.39209687E+02</rscale>
<asrwt>0</asrwt>
<pdfrwt beam="1">  1       11 0.10000000E+01 0.69878652E+02</pdfrwt>
<pdfrwt beam="2">  1        2 0.13187497E-02 0.39209687E+02</pdfrwt>
<totfact> 0.91200243E+03</totfact>
</mgrwt>
</event>
<event>
 5    1  0.6729100E-004  0.3761051E+03  0.7818608E-02  0.1052383E+00
         11   -1    0    0    0    0  0.00000000000E+00  0.00000000000E+00  0.10006026437E+04  0.10006026437E+04  0.51100000000E-03 0. -1.
          2   -1    0    0  501    0 -0.00000000000E+00 -0.00000000000E+00 -0.14620874837E+04  0.14620874837E+04  0.25500000000E-02 0. -1.
         11    1    1    2    0    0 -0.21647287704E+03  0.27087951729E+03  0.49816487002E+03  0.60696330787E+03  0.51100000000E-03 0. -1.
         22    1    1    2    0    0  0.44770571157E+02  0.65612058265E+02  0.41889452247E+03  0.42635896518E+03  0.00000000000E+00 0. -1.
          2    1    1    2  501    0  0.17170230588E+03 -0.33649157555E+03 -0.13785442325E+04  0.14293678544E+04  0.25500000000E-02 0. -1.
<mgrwt>
<rscale>  0 0.37610508E+03</rscale>
<asrwt>0</asrwt>
<pdfrwt beam="1">  1       11 0.10000000E+01 0.79431393E+02</pdfrwt>
<pdfrwt beam="2">  1        2 0.22507209E+00 0.37610508E+03</pdfrwt>
<totfact> 0.17497590E+01</totfact>
</mgrwt>
</event>
<event>
 5    1  0.6729100E-004  0.2636389E+02  0.7818608E-02  0.1706351E+00
         11   -1    0    0    0    0  0.00000000000E+00  0.00000000000E+00  0.10004591463E+04  0.10004591463E+04  0.51100000000E-03 0.  1.
          2   -1    0    0  501    0 -0.00000000000E+00 -0.00000000000E+00 -0.11656489278E+02  0.11656489557E+02  0.25500000000E-02 0.  1.
         11    1    1    2    0    0  0.46144149374E+02 -0.31589451309E+01  0.41192665141E+02  0.61936234286E+02  0.51100000000E-03 0.  1.
         22    1    1    2    0    0 -0.24182838512E+02  0.59641343496E+00  0.12767877250E+03  0.12995012248E+03  0.00000000000E+00 0.  1.
          2    1    1    2  501    0 -0.21961310862E+02  0.25625316960E+01  0.81993121942E+03  0.82022927912E+03  0.25500000000E-02 0.  1.
<mgrwt>
<rscale>  0 0.22110309E+02</rscale>
<asrwt>0</asrwt>
<pdfrwt beam="1">  1       11 0.10000000E+01 0.26363891E+02</pdfrwt>
<pdfrwt beam="2">  1        2 0.17941294E-02 0.22110309E+02</pdfrwt>
<totfact> 0.54824449E+03</totfact>
</mgrwt>
</event>
<event>
 5    1  0.6729100E-004  0.2892654E+03  0.7818608E-02  0.1096049E+00
         11   -1    0    0    0    0  0.00000000000E+00  0.00000000000E+00  0.10003304395E+04  0.10003304395E+04  0.51100000000E-03 0. -1.
         -2   -1    0    0    0  501 -0.00000000000E+00 -0.00000000000E+00 -0.29607062983E+03  0.29607062984E+03  0.25500000000E-02 0.  1.
         11    1    1    2    0    0 -0.18974978624E+03  0.10032646528E+03  0.61410689665E+03  0.65053644135E+03  0.51100000000E-03 0. -1.
         22    1    1    2    0    0 -0.71442847858E+02 -0.12810675171E+01  0.29239376571E+03  0.30099806622E+03  0.00000000000E+00 0. -1.
         -2    1    1    2    0  501  0.26119263409E+03 -0.99045397759E+02 -0.20224085269E+03  0.34486656177E+03  0.25500000000E-02 0.  1.
<mgrwt>
<rscale>  0 0.27934134E+03</rscale>
<asrwt>0</asrwt>
<pdfrwt beam="1">  1       11 0.10000000E+01 0.28926539E+03</pdfrwt>
<pdfrwt beam="2">  1       -2 0.45564378E-01 0.27934134E+03</pdfrwt>
<totfact> 0.37392786E+01</totfact>
</mgrwt>
</event>
<event>
 5    1  0.6729100E-004  0.4855657E+03  0.7818608E-02  0.1168708E+00
         11   -1    0    0    0    0  0.00000000000E+00  0.00000000000E+00  0.10003287138E+04  0.10003287138E+04  0.51100000000E-03 0. -1.
          2   -1    0    0  501    0 -0.00000000000E+00 -0.00000000000E+00 -0.23241332888E+04  0.23241332888E+04  0.25500000000E-02 0. -1.
         11    1    1    2    0    0  0.47884804039E+03  0.37550799068E+01  0.84610116196E+03  0.97221228272E+03  0.51100000000E-03 0. -1.
         22    1    1    2    0    0 -0.60679915246E+03  0.12152083117E+03 -0.10554378003E+04  0.12234874230E+04  0.00000000000E+00 0. -1.
          2    1    1    2  501    0  0.12795111207E+03 -0.12527591108E+03 -0.11144679366E+04  0.11287622968E+04  0.25500000000E-02 0. -1.
<mgrwt>
<rscale>  0 0.17906854E+03</rscale>
<asrwt>0</asrwt>
<pdfrwt beam="1">  1       11 0.10000000E+01 0.48556572E+03</pdfrwt>
<pdfrwt beam="2">  1        2 0.35767649E+00 0.17906854E+03</pdfrwt>
<totfact> 0.65660185E+00</totfact>
</mgrwt>
</event>
<event>
 5    1  0.6729100E-004  0.1790490E+03  0.7818608E-02  0.1170370E+00
         11   -1    0    0    0    0  0.00000000000E+00  0.00000000000E+00  0.10002199708E+04  0.10002199708E+04  0.51100000000E-03 0.  1.
          2   -1    0    0  501    0 -0.00000000000E+00 -0.00000000000E+00 -0.60165252221E+02  0.60165252275E+02  0.25500000000E-02 0.  1.
         11    1    1    2    0    0 -0.13193111301E+02 -0.15939871356E+03  0.72681195224E+03  0.74420267535E+03  0.51100000000E-03 0.  1.
         22    1    1    2    0    0 -0.82210908923E+01 -0.16676475273E+02  0.10873141775E+03  0.11030962047E+03  0.00000000000E+00 0. -1.
          2    1    1    2  501    0  0.21414202193E+02  0.17607518883E+03  0.10451134854E+03  0.20587292721E+03  0.25500000000E-02 0.  1.
<mgrwt>
<rscale>  0 0.17737260E+03</rscale>
<asrwt>0</asrwt>
<pdfrwt beam="1">  1       11 0.10000000E+01 0.17904899E+03</pdfrwt>
<pdfrwt beam="2">  1        2 0.92582285E-02 0.17737260E+03</pdfrwt>
<totfact> 0.84935085E+02</totfact>
</mgrwt>
</event>
<event>
 5    1  0.6729100E-004  0.7143637E+03  0.7818608E-02  0.9704020E-01
         11   -1    0    0    0    0  0.00000000000E+00  0.00000000000E+00  0.10003944463E+04  0.10003944463E+04  0.51100000000E-03 0. -1.
          2   -1    0    0  501    0 -0.00000000000E+00 -0.00000000000E+00 -0.50574616222E+03  0.50574616223E+03  0.25500000000E-02 0. -1.
         11    1    1    2    0    0  0.63119512900E+03  0.29715583389E+03  0.21924273028E+03  0.73128397717E+03  0.51100000000E-03 0. -1.
         22    1    1    2    0    0  0.37257847687E+01  0.15617537270E+02  0.10201981738E+02  0.19022864503E+02  0.00000000000E+00 0. -1.
          2    1    1    2  501    0 -0.63492091377E+03 -0.31277337116E+03  0.26520357204E+03  0.75583376683E+03  0.25500000000E-02 0. -1.
<mgrwt>
<rscale>  0 0.70777945E+03</rscale>
<asrwt>0</asrwt>
<pdfrwt beam="1">  1       11 0.10000000E+01 0.71436369E+03</pdfrwt>
<pdfrwt beam="2">  1        2 0.77837790E-01 0.70777945E+03</pdfrwt>
<totfact> 0.75262215E+01</totfact>
</mgrwt>
</event>
<event>
 5    1  0.6729100E-004  0.1058347E+03  0.7818608E-02  0.1361805E+00
         11   -1    0    0    0    0  0.00000000000E+00  0.00000000000E+00  0.10002381254E+04  0.10002381254E+04  0.51100000000E-03 0. -1.
          2   -1    0    0  501    0 -0.00000000000E+00 -0.00000000000E+00 -0.41951584163E+02  0.41951584240E+02  0.25500000000E-02 0. -1.
         11    1    1    2    0    0  0.16220390126E+02  0.12764597175E+03  0.60265578706E+03  0.61623907117E+03  0.51100000000E-03 0. -1.
         22    1    1    2    0    0 -0.58292314228E+02 -0.72327955229E+02  0.34294459916E+03  0.35530314535E+03  0.00000000000E+00 0. -1.
          2    1    1    2  501    0  0.42071924102E+02 -0.55318016522E+02  0.12686155033E+02  0.70647493131E+02  0.25500000000E-02 0. -1.
<mgrwt>
<rscale>  0 0.69499135E+02</rscale>
<asrwt>0</asrwt>
<pdfrwt beam="1">  1       11 0.10000000E+01 0.10583474E+03</pdfrwt>
<pdfrwt beam="2">  1        2 0.64556266E-02 0.69499135E+02</pdfrwt>
<totfact> 0.12488787E+03</totfact>
</mgrwt>
</event>
<event>
 5    1  0.6729100E-004  0.1051627E+03  0.7818608E-02  0.1345146E+00
         11   -1    0    0    0    0  0.00000000000E+00  0.00000000000E+00  0.10002323869E+04  0.10002323869E+04  0.51100000000E-03 0.  1.
          2   -1    0    0  501    0 -0.00000000000E+00 -0.00000000000E+00 -0.96346235604E+03  0.96346235604E+03  0.25500000000E-02 0.  1.
         11    1    1    2    0    0  0.13892925685E+03  0.73091206377E+02  0.47670233901E+03  0.50188522879E+03  0.51100000000E-03 0.  1.
         22    1    1    2    0    0 -0.88101948105E+02 -0.18499932632E+02  0.50549290685E+03  0.51344647203E+03  0.00000000000E+00 0.  1.
          2    1    1    2  501    0 -0.50827308745E+02 -0.54591273745E+02 -0.94542521500E+03  0.94836304212E+03  0.25500000000E-02 0.  1.
<mgrwt>
<rscale>  0 0.74589694E+02</rscale>
<asrwt>0</asrwt>
<pdfrwt beam="1">  1       11 0.10000000E+01 0.10516275E+03</pdfrwt>
<pdfrwt beam="2">  1        2 0.14825942E+00 0.74589694E+02</pdfrwt>
<totfact> 0.36776025E+01</totfact>
</mgrwt>
</event>
<event>
 5    1  0.6729100E-004  0.9908976E+02  0.7818608E-02  0.1282222E+00
         11   -1    0    0    0    0  0.00000000000E+00  0.00000000000E+00  0.10004193911E+04  0.10004193911E+04  0.51100000000E-03 0. -1.
          2   -1    0    0  501    0 -0.00000000000E+00 -0.00000000000E+00 -0.89866890581E+01  0.89866894199E+01  0.25500000000E-02 0.  1.
         11    1    1    2    0    0 -0.68486738409E+02 -0.56694430852E+02  0.53542765325E+03  0.54275912124E+03  0.51100000000E-03 0. -1.
         22    1    1    2    0    0  0.60019955862E+02  0.25016293202E+02  0.33649816403E+03  0.34272324756E+03  0.00000000000E+00 0.  1.
          2    1    1    2  501    0  0.84667825474E+01  0.31678137650E+02  0.11950688473E+03  0.12392371167E+03  0.25500000000E-02 0.  1.
<mgrwt>
<rscale>  0 0.99089758E+02</rscale>
<asrwt>0</asrwt>
<pdfrwt beam="1">  1       11 0.10000000E+01 0.88908334E+02</pdfrwt>
<pdfrwt beam="2">  1        2 0.13831474E-02 0.99089758E+02</pdfrwt>
<totfact> 0.99265710E+03</totfact>
</mgrwt>
</event>
<event>
 5    1  0.6729100E-004  0.1912515E+03  0.7818608E-02  0.1157337E+00
         11   -1    0    0    0    0  0.00000000000E+00  0.00000000000E+00  0.10001942615E+04  0.10001942615E+04  0.51100000000E-03 0. -1.
         -2   -1    0    0    0  501 -0.00000000000E+00 -0.00000000000E+00 -0.52394652285E+02  0.52394652348E+02  0.25500000000E-02 0.  1.
         11    1    1    2    0    0 -0.22335240636E+02 -0.19723395025E+03  0.71255634572E+03  0.73968685262E+03  0.51100000000E-03 0. -1.
         22    1    1    2    0    0 -0.40836917084E+01  0.10158530391E+02  0.38940199381E+02  0.40450110080E+02  0.00000000000E+00 0. -1.
         -2    1    1    2    0  501  0.26418932344E+02  0.18707541986E+03  0.19630306412E+03  0.27245195116E+03  0.25500000000E-02 0.  1.
<mgrwt>
<rscale>  0 0.19125146E+03</rscale>
<asrwt>0</asrwt>
<pdfrwt beam="1">  1       11 0.10000000E+01 0.10948620E+02</pdfrwt>
<pdfrwt beam="2">  1       -2 0.80622814E-02 0.19125146E+03</pdfrwt>
<totfact> 0.73029404E+02</totfact>
</mgrwt>
</event>
<event>
 5    1  0.6729100E-004  0.3492828E+03  0.7818608E-02  0.1062910E+00
         11   -1    0    0    0    0  0.00000000000E+00  0.00000000000E+00  0.10007194596E+04  0.10007194596E+04  0.51100000000E-03 0. -1.
          2   -1    0    0  501    0 -0.00000000000E+00 -0.00000000000E+00 -0.30217803290E+03  0.30217803291E+03  0.25500000000E-02 0. -1.
         11    1    1    2    0    0  0.30890469258E+03 -0.65575674317E+02 -0.31129461983E+02  0.31731895872E+03  0.51100000000E-03 0. -1.
         22    1    1    2    0    0  0.16086499909E+03  0.26249921239E+02  0.32793046051E+03  0.36620348609E+03  0.00000000000E+00 0. -1.
          2    1    1    2  501    0 -0.46976969168E+03  0.39325753078E+02  0.40174042819E+03  0.61937504770E+03  0.25500000000E-02 0. -1.
<mgrwt>
<rscale>  0 0.34928282E+03</rscale>
<asrwt>0</asrwt>
<pdfrwt beam="1">  1       11 0.10000000E+01 0.16299266E+03</pdfrwt>
<pdfrwt beam="2">  1        2 0.46522374E-01 0.34928282E+03</pdfrwt>
<totfact> 0.13457030E+02</totfact>
</mgrwt>
</event>
<event>
 5    1  0.6729100E-004  0.2761950E+03  0.7818608E-02  0.1522429E+00
         11   -1    0    0    0    0  0.00000000000E+00  0.00000000000E+00  0.10004150485E+04  0.10004150485E+04  0.51100000000E-03 0.  1.
          2   -1    0    0  501    0 -0.00000000000E+00 -0.00000000000E+00 -0.16156550612E+03  0.16156550614E+03  0.25500000000E-02 0.  1.
         11    1    1    2    0    0  0.16713710385E+03  0.19500391179E+03  0.29341433146E+03  0.38994013259E+03  0.51100000000E-03 0.  1.
         22    1    1    2    0    0 -0.20385236044E+03 -0.20529996135E+03  0.62228390221E+03  0.68625149467E+03  0.00000000000E+00 0.  1.
          2    1    1    2  501    0  0.36715256593E+02  0.10296049564E+02 -0.76848691286E+02  0.85788927387E+02  0.25500000000E-02 0.  1.
<mgrwt>
<rscale>  0 0.38131597E+02</rscale>
<asrwt>0</asrwt>
<pdfrwt beam="1">  1       11 0.10000000E+01 0.27619505E+03</pdfrwt>
<pdfrwt beam="2">  1        2 0.24866548E-01 0.38131597E+02</pdfrwt>
<totfact> 0.25274633E+02</totfact>
</mgrwt>
</event>
<event>
 5    1  0.6729100E-004  0.1590214E+03  0.7818608E-02  0.1189806E+00
         11   -1    0    0    0    0  0.00000000000E+00  0.00000000000E+00  0.10000734778E+04  0.10000734778E+04  0.51100000000E-03 0.  1.
          2   -1    0    0  501    0 -0.00000000000E+00 -0.00000000000E+00 -0.85496801028E+03  0.85496801029E+03  0.25500000000E-02 0. -1.
         11    1    1    2    0    0  0.16464919895E+03  0.97261800351E+02  0.72476175780E+03  0.74956575569E+03  0.51100000000E-03 0.  1.
         22    1    1    2    0    0 -0.64707492309E+02  0.26162362780E+02  0.25061463846E+03  0.26015231269E+03  0.00000000000E+00 0. -1.
          2    1    1    2  501    0 -0.99941706642E+02 -0.12342416313E+03 -0.83027092875E+03  0.84532341971E+03  0.25500000000E-02 0. -1.
<mgrwt>
<rscale>  0 0.15902143E+03</rscale>
<asrwt>0</asrwt>
<pdfrwt beam="1">  1       11 0.10000000E+01 0.69796338E+02</pdfrwt>
<pdfrwt beam="2">  1        2 0.13154320E+00 0.15902143E+03</pdfrwt>
<totfact> 0.41532545E+01</totfact>
</mgrwt>
</event>
<event>
 5    1  0.6729100E-004  0.1420638E+03  0.7818608E-02  0.1210579E+00
         11   -1    0    0    0    0  0.00000000000E+00  0.00000000000E+00  0.10002122109E+04  0.10002122109E+04  0.51100000000E-03 0. -1.
          2   -1    0    0  501    0 -0.00000000000E+00 -0.00000000000E+00 -0.59569161437E+02  0.59569161491E+02  0.25500000000E-02 0. -1.
         11    1    1    2    0    0 -0.88238927213E+02  0.11722052407E+03  0.81076667275E+03  0.82393528701E+03  0.51100000000E-03 0. -1.
         22    1    1    2    0    0  0.17578523877E+02  0.55248065131E+01  0.85445197264E+02  0.87409437271E+02  0.00000000000E+00 0.  1.
          2    1    1    2  501    0  0.70660403336E+02 -0.12274533058E+03  0.44431179404E+02  0.14843664806E+03  0.25500000000E-02 0. -1.
<mgrwt>
<rscale>  0 0.14206380E+03</rscale>
<asrwt>0</asrwt>
<pdfrwt beam="1">  1       11 0.10000000E+01 0.18426285E+02</pdfrwt>
<pdfrwt beam="2">  1        2 0.91664309E-02 0.14206380E+03</pdfrwt>
<totfact> 0.84909715E+02</totfact>
</mgrwt>
</event>
<event>
 5    1  0.6729100E-004  0.1991230E+03  0.7818608E-02  0.1486474E+00
         11   -1    0    0    0    0  0.00000000000E+00  0.00000000000E+00  0.10003897752E+04  0.10003897752E+04  0.51100000000E-03 0. -1.
          2   -1    0    0  501    0 -0.00000000000E+00 -0.00000000000E+00 -0.61401747957E+02  0.61401748010E+02  0.25500000000E-02 0. -1.
         11    1    1    2    0    0 -0.45016721586E+02 -0.21920545964E+03  0.39261914812E+03  0.45191518478E+03  0.51100000000E-03 0. -1.
         22    1    1    2    0    0  0.18155389090E+02  0.18548242339E+03  0.53314491921E+03  0.56478035768E+03  0.00000000000E+00 0. -1.
          2    1    1    2  501    0  0.26861332496E+02  0.33723036250E+02  0.13223959893E+02  0.45095980743E+02  0.25500000000E-02 0. -1.
<mgrwt>
<rscale>  0 0.43113506E+02</rscale>
<asrwt>0</asrwt>
<pdfrwt beam="1">  1       11 0.10000000E+01 0.19912298E+03</pdfrwt>
<pdfrwt beam="2">  1        2 0.94501045E-02 0.43113506E+02</pdfrwt>
<totfact> 0.75341195E+02</totfact>
</mgrwt>
</event>
<event>
 5    1  0.6729100E-004  0.1386296E+03  0.7818608E-02  0.1215185E+00
         11   -1    0    0    0    0  0.00000000000E+00  0.00000000000E+00  0.99973397347E+03  0.99973397347E+03  0.51100000000E-03 0. -1.
          2   -1    0    0  501    0 -0.00000000000E+00 -0.00000000000E+00 -0.30548795641E+03  0.30548795642E+03  0.25500000000E-02 0.  1.
         11    1    1    2    0    0 -0.14220950262E+03 -0.77234735407E+02  0.89278557910E+03  0.90733391716E+03  0.51100000000E-03 0. -1.
         22    1    1    2    0    0  0.99416229705E+01  0.36943450276E+02  0.79020634560E+02  0.87794732597E+02  0.00000000000E+00 0. -1.
          2    1    1    2  501    0  0.13226787965E+03  0.40291285131E+02 -0.27756019659E+03  0.31009328013E+03  0.25500000000E-02 0.  1.
<mgrwt>
<rscale>  0 0.13862963E+03</rscale>
<asrwt>0</asrwt>
<pdfrwt beam="1">  1       11 0.10000000E+01 0.38257736E+02</pdfrwt>
<pdfrwt beam="2">  1        2 0.46985643E-01 0.13862963E+03</pdfrwt>
<totfact> 0.13290509E+02</totfact>
</mgrwt>
</event>
<event>
 5    1  0.6729100E-004  0.2787638E+03  0.7818608E-02  0.1096366E+00
         11   -1    0    0    0    0  0.00000000000E+00  0.00000000000E+00  0.10006888942E+04  0.10006888942E+04  0.51100000000E-03 0.  1.
          2   -1    0    0  501    0 -0.00000000000E+00 -0.00000000000E+00 -0.29621619106E+04  0.29621619106E+04  0.25500000000E-02 0.  1.
         11    1    1    2    0    0 -0.17386990509E+03 -0.23126699884E+03  0.91353840260E+03  0.95826279364E+03  0.51100000000E-03 0.  1.
         22    1    1    2    0    0  0.83496433055E+01  0.70556552927E+01  0.57668830171E+02  0.58695764654E+02  0.00000000000E+00 0.  1.
          2    1    1    2  501    0  0.16552026178E+03  0.22421134355E+03 -0.29326802492E+04  0.29458922465E+04  0.25500000000E-02 0.  1.
<mgrwt>
<rscale>  0 0.27876377E+03</rscale>
<asrwt>0</asrwt>
<pdfrwt beam="1">  1       11 0.10000000E+01 0.10931551E+02</pdfrwt>
<pdfrwt beam="2">  1        2 0.45603114E+00 0.27876377E+03</pdfrwt>
<totfact> 0.27328700E+00</totfact>
</mgrwt>
</event>
<event>
 5    1  0.6729100E-004  0.6057991E+02  0.7818608E-02  0.1395414E+00
         11   -1    0    0    0    0  0.00000000000E+00  0.00000000000E+00  0.10001381423E+04  0.10001381423E+04  0.51100000000E-03 0. -1.
          2   -1    0    0  501    0 -0.00000000000E+00 -0.00000000000E+00 -0.70093107390E+01  0.70093112029E+01  0.25500000000E-02 0. -1.
         11    1    1    2    0    0 -0.54722783550E+01 -0.38198529907E+02  0.19896347056E+03  0.20267100467E+03  0.51100000000E-03 0. -1.
         22    1    1    2    0    0 -0.18632879975E+02  0.78402157137E+02  0.45403586825E+03  0.46113192485E+03  0.00000000000E+00 0. -1.
          2    1    1    2  501    0  0.24105158330E+02 -0.40203627229E+02  0.34012949274E+03  0.34334452397E+03  0.25500000000E-02 0. -1.
<mgrwt>
<rscale>  0 0.60579915E+02</rscale>
<asrwt>0</asrwt>
<pdfrwt beam="1">  1       11 0.10000000E+01 0.38588535E+02</pdfrwt>
<pdfrwt beam="2">  1        2 0.10785045E-02 0.60579915E+02</pdfrwt>
<totfact> 0.12886101E+04</totfact>
</mgrwt>
</event>
<event>
 5    1  0.6729100E-004  0.2560996E+03  0.7818608E-02  0.1109510E+00
         11   -1    0    0    0    0  0.00000000000E+00  0.00000000000E+00  0.10002572921E+04  0.10002572921E+04  0.51100000000E-03 0. -1.
          2   -1    0    0  501    0 -0.00000000000E+00 -0.00000000000E+00 -0.64967273809E+02  0.64967273859E+02  0.25500000000E-02 0. -1.
         11    1    1    2    0    0  0.26614348099E+02 -0.25233670942E+03  0.46360219585E+03  0.52849705244E+03  0.51100000000E-03 0. -1.
         22    1    1    2    0    0  0.57459240002E+01  0.99491976292E+01  0.23931778551E+02  0.26546792663E+02  0.00000000000E+00 0.  1.
          2    1    1    2  501    0 -0.32360272099E+02  0.24238751179E+03  0.44775604392E+03  0.51018072088E+03  0.25500000000E-02 0. -1.
<mgrwt>
<rscale>  0 0.25609963E+03</rscale>
<asrwt>0</asrwt>
<pdfrwt beam="1">  1       11 0.10000000E+01 0.25373648E+03</pdfrwt>
<pdfrwt beam="2">  1        2 0.99975365E-02 0.25609963E+03</pdfrwt>
<totfact> 0.78649431E+02</totfact>
</mgrwt>
</event>
<event>
 5    1  0.6729100E-004  0.8878565E+03  0.7818608E-02  0.9440890E-01
         11   -1    0    0    0    0  0.00000000000E+00  0.00000000000E+00  0.10001852920E+04  0.10001852920E+04  0.51100000000E-03 0.  1.
          2   -1    0    0  501    0 -0.00000000000E+00 -0.00000000000E+00 -0.99307286323E+03  0.99307286323E+03  0.25500000000E-02 0.  1.
         11    1    1    2    0    0  0.32436239533E+03 -0.81931158758E+03  0.40452299431E+03  0.96959852205E+03  0.51100000000E-03 0.  1.
         22    1    1    2    0    0  0.69653837666E+01 -0.73329421954E+01  0.33012526761E+02  0.34527026159E+02  0.00000000000E+00 0. -1.
          2    1    1    2  501    0 -0.33132777910E+03  0.82664452977E+03 -0.43042309232E+03  0.98913260699E+03  0.25500000000E-02 0.  1.
<mgrwt>
<rscale>  0 0.88785650E+03</rscale>
<asrwt>0</asrwt>
<pdfrwt beam="1">  1       11 0.10000000E+01 0.10113783E+02</pdfrwt>
<pdfrwt beam="2">  1        2 0.15280875E+00 0.88785650E+03</pdfrwt>
<totfact> 0.31400533E+01</totfact>
</mgrwt>
</event>
<event>
 5    1  0.6729100E-004  0.1479002E+03  0.7818608E-02  0.1686317E+00
         11   -1    0    0    0    0  0.00000000000E+00  0.00000000000E+00  0.10002092017E+04  0.10002092017E+04  0.51100000000E-03 0.  1.
          2   -1    0    0  501    0 -0.00000000000E+00 -0.00000000000E+00 -0.46851422785E+03  0.46851422785E+03  0.25500000000E-02 0.  1.
         11    1    1    2    0    0 -0.10842629081E+03  0.91779237126E+02  0.50573209208E+03  0.52530432881E+03  0.51100000000E-03 0.  1.
         22    1    1    2    0    0  0.13078971063E+03 -0.85155781843E+02  0.47181486973E+03  0.49695746990E+03  0.00000000000E+00 0.  1.
          2    1    1    2  501    0 -0.22363419817E+02 -0.66234552835E+01 -0.44585198792E+03  0.44646163088E+03  0.25500000000E-02 0.  1.
<mgrwt>
<rscale>  0 0.23323651E+02</rscale>
<asrwt>0</asrwt>
<pdfrwt beam="1">  1       11 0.10000000E+01 0.14790025E+03</pdfrwt>
<pdfrwt beam="2">  1        2 0.72094189E-01 0.23323651E+02</pdfrwt>
<totfact> 0.85419819E+01</totfact>
</mgrwt>
</event>
<event>
 5    1  0.6729100E-004  0.1893788E+03  0.7818608E-02  0.1162900E+00
         11   -1    0    0    0    0  0.00000000000E+00  0.00000000000E+00  0.10004378526E+04  0.10004378526E+04  0.51100000000E-03 0. -1.
         -2   -1    0    0    0  501 -0.00000000000E+00 -0.00000000000E+00 -0.11860227613E+03  0.11860227616E+03  0.25500000000E-02 0.  1.
         11    1    1    2    0    0 -0.56822166379E+02  0.15837027571E+03  0.82042616214E+03  0.83750163603E+03  0.51100000000E-03 0. -1.
         22    1    1    2    0    0 -0.17864479103E+02  0.11059243010E+02  0.91559452495E+02  0.93939234672E+02  0.00000000000E+00 0.  1.
         -2    1    1    2    0  501  0.74686645481E+02 -0.16942951872E+03 -0.30150038137E+02  0.18759925809E+03  0.25500000000E-02 0.  1.
<mgrwt>
<rscale>  0 0.18516062E+03</rscale>
<asrwt>0</asrwt>
<pdfrwt beam="1">  1       11 0.10000000E+01 0.18937881E+03</pdfrwt>
<pdfrwt beam="2">  1       -2 0.18254493E-01 0.18516062E+03</pdfrwt>
<totfact> 0.19495692E+02</totfact>
</mgrwt>
</event>
<event>
 5    1  0.6729100E-004  0.7566187E+02  0.7818608E-02  0.1341834E+00
         11   -1    0    0    0    0  0.00000000000E+00  0.00000000000E+00  0.10002142024E+04  0.10002142024E+04  0.51100000000E-03 0.  1.
          2   -1    0    0  501    0 -0.00000000000E+00 -0.00000000000E+00 -0.93655438156E+01  0.93655441628E+01  0.25500000000E-02 0.  1.
         11    1    1    2    0    0  0.20312748140E+02 -0.31101736277E+02  0.17218119571E+03  0.17614281107E+03  0.51100000000E-03 0.  1.
         22    1    1    2    0    0  0.45310996866E+02  0.66664155794E+02  0.37872833732E+03  0.38721098848E+03  0.00000000000E+00 0.  1.
          2    1    1    2  501    0 -0.65623745006E+02 -0.35562419517E+02  0.43993912552E+03  0.44622594698E+03  0.25500000000E-02 0.  1.
<mgrwt>
<rscale>  0 0.75661871E+02</rscale>
<asrwt>0</asrwt>
<pdfrwt beam="1">  1       11 0.10000000E+01 0.37147370E+02</pdfrwt>
<pdfrwt beam="2">  1        2 0.14411615E-02 0.75661871E+02</pdfrwt>
<totfact> 0.90261940E+03</totfact>
</mgrwt>
</event>
<event>
 5    1  0.6729100E-004  0.1229469E+03  0.7818608E-02  0.1392154E+00
         11   -1    0    0    0    0  0.00000000000E+00  0.00000000000E+00  0.10004788005E+04  0.10004788005E+04  0.51100000000E-03 0.  1.
          2   -1    0    0  501    0 -0.00000000000E+00 -0.00000000000E+00 -0.25724859845E+02  0.25724859972E+02  0.25500000000E-02 0.  1.
         11    1    1    2    0    0  0.37929965182E+01 -0.12557618106E+03  0.44202643464E+03  0.45953360377E+03  0.51100000000E-03 0.  1.
         22    1    1    2    0    0 -0.63425655355E+02  0.11105921504E+03  0.40945327419E+03  0.42896264027E+03  0.00000000000E+00 0.  1.
          2    1    1    2  501    0  0.59632658837E+02  0.14516966020E+02  0.12327423185E+03  0.13770741646E+03  0.25500000000E-02 0.  1.
<mgrwt>
<rscale>  0 0.61374232E+02</rscale>
<asrwt>0</asrwt>
<pdfrwt beam="1">  1       11 0.10000000E+01 0.12294687E+03</pdfrwt>
<pdfrwt beam="2">  1        2 0.39595656E-02 0.61374232E+02</pdfrwt>
<totfact> 0.22994290E+03</totfact>
</mgrwt>
</event>
<event>
 5    1  0.6729100E-004  0.1159895E+03  0.7818608E-02  0.1249864E+00
         11   -1    0    0    0    0  0.00000000000E+00  0.00000000000E+00  0.10001078337E+04  0.10001078337E+04  0.51100000000E-03 0.  1.
         -2   -1    0    0    0  501 -0.00000000000E+00 -0.00000000000E+00 -0.18801317936E+02  0.18801318109E+02  0.25500000000E-02 0. -1.
         11    1    1    2    0    0  0.63561903422E+02 -0.11095568046E+03  0.48869012860E+03  0.50514287126E+03  0.51100000000E-03 0.  1.
         22    1    1    2    0    0 -0.35858887084E+02  0.53894451290E+01  0.14192634451E+03  0.14648547084E+03  0.00000000000E+00 0.  1.
         -2    1    1    2    0  501 -0.27703016338E+02  0.10556623533E+03  0.35069004266E+03  0.36728080972E+03  0.25500000000E-02 0. -1.
<mgrwt>
<rscale>  0 0.11598951E+03</rscale>
<asrwt>0</asrwt>
<pdfrwt beam="1">  1       11 0.10000000E+01 0.36261631E+02</pdfrwt>
<pdfrwt beam="2">  1       -2 0.28928223E-02 0.11598951E+03</pdfrwt>
<totfact> 0.32695419E+03</totfact>
</mgrwt>
</event>
<event>
 5    1  0.6729100E-004  0.2556881E+03  0.7818608E-02  0.1128302E+00
         11   -1    0    0    0    0  0.00000000000E+00  0.00000000000E+00  0.10005617915E+04  0.10005617915E+04  0.51100000000E-03 0. -1.
          2   -1    0    0  501    0 -0.00000000000E+00 -0.00000000000E+00 -0.45028274520E+03  0.45028274520E+03  0.25500000000E-02 0. -1.
         11    1    1    2    0    0 -0.14235419579E+03  0.29992727934E+02  0.58521622611E+03  0.60302762134E+03  0.51100000000E-03 0. -1.
         22    1    1    2    0    0 -0.81157749364E+02 -0.73218380191E+02  0.36861564833E+03  0.38448017852E+03  0.00000000000E+00 0. -1.
          2    1    1    2  501    0  0.22351194516E+03  0.43225652256E+02 -0.40355282812E+03  0.46333673687E+03  0.25500000000E-02 0. -1.
<mgrwt>
<rscale>  0 0.22765335E+03</rscale>
<asrwt>0</asrwt>
<pdfrwt beam="1">  1       11 0.10000000E+01 0.25568811E+03</pdfrwt>
<pdfrwt beam="2">  1        2 0.69313184E-01 0.22765335E+03</pdfrwt>
<totfact> 0.87281573E+01</totfact>
</mgrwt>
</event>
<event>
 5    1  0.6729100E-004  0.1775982E+03  0.7818608E-02  0.1170148E+00
         11   -1    0    0    0    0  0.00000000000E+00  0.00000000000E+00  0.99995397528E+03  0.99995397528E+03  0.51100000000E-03 0.  1.
          2   -1    0    0  501    0 -0.00000000000E+00 -0.00000000000E+00 -0.52550910272E+03  0.52550910272E+03  0.25500000000E-02 0.  1.
         11    1    1    2    0    0 -0.37936568337E+01  0.16652268146E+03  0.87302194630E+02  0.18805815181E+03  0.51100000000E-03 0.  1.
         22    1    1    2    0    0 -0.15348350732E+03 -0.63264844477E+02  0.83515243759E+03  0.85149234969E+03  0.00000000000E+00 0.  1.
          2    1    1    2  501    0  0.15727716415E+03 -0.10325783698E+03 -0.44800975965E+03  0.48591257651E+03  0.25500000000E-02 0.  1.
<mgrwt>
<rscale>  0 0.17759818E+03</rscale>
<asrwt>0</asrwt>
<pdfrwt beam="1">  1       11 0.10000000E+01 0.16601093E+03</pdfrwt>
<pdfrwt beam="2">  1        2 0.80843831E-01 0.17759818E+03</pdfrwt>
<totfact> 0.73847753E+01</totfact>
</mgrwt>
</event>
<event>
 5    1  0.6729100E-004  0.1647073E+03  0.7818608E-02  0.1189341E+00
         11   -1    0    0    0    0  0.00000000000E+00  0.00000000000E+00  0.10000969312E+04  0.10000969312E+04  0.51100000000E-03 0. -1.
          2   -1    0    0  501    0 -0.00000000000E+00 -0.00000000000E+00 -0.59157761411E+02  0.59157761466E+02  0.25500000000E-02 0. -1.
         11    1    1    2    0    0  0.13774553171E+03 -0.49750470962E+02  0.83602251768E+03  0.84875355135E+03  0.51100000000E-03 0. -1.
         22    1    1    2    0    0  0.10601044211E+02 -0.86560262322E+01  0.32756800210E+02  0.35500942078E+02  0.00000000000E+00 0.  1.
          2    1    1    2  501    0 -0.14834657592E+03  0.58406497194E+02  0.72159851913E+02  0.17500019925E+03  0.25500000000E-02 0. -1.
<mgrwt>
<rscale>  0 0.15943032E+03</rscale>
<asrwt>0</asrwt>
<pdfrwt beam="1">  1       11 0.10000000E+01 0.16470733E+03</pdfrwt>
<pdfrwt beam="2">  1        2 0.91020760E-02 0.15943032E+03</pdfrwt>
<totfact> 0.86237299E+02</totfact>
</mgrwt>
</event>
<event>
 5    1  0.6729100E-004  0.1385146E+03  0.7818608E-02  0.1215342E+00
         11   -1    0    0    0    0  0.00000000000E+00  0.00000000000E+00  0.10001833506E+04  0.10001833506E+04  0.51100000000E-03 0.  1.
          2   -1    0    0  501    0 -0.00000000000E+00 -0.00000000000E+00 -0.57135060817E+02  0.57135060874E+02  0.25500000000E-02 0.  1.
         11    1    1    2    0    0  0.89192367789E+02  0.30611925569E+02  0.38317497183E+02  0.10178702790E+03  0.51100000000E-03 0.  1.
         22    1    1    2    0    0  0.26714307918E+02 -0.13664171845E+03  0.30004667395E+03  0.33077578511E+03  0.00000000000E+00 0.  1.
          2    1    1    2  501    0 -0.11590667571E+03  0.10602979288E+03  0.60468411862E+03  0.62475559842E+03  0.25500000000E-02 0.  1.
<mgrwt>
<rscale>  0 0.13851455E+03</rscale>
<asrwt>0</asrwt>
<pdfrwt beam="1">  1       11 0.10000000E+01 0.94299403E+02</pdfrwt>
<pdfrwt beam="2">  1        2 0.87916208E-02 0.13851455E+03</pdfrwt>
<totfact> 0.89294055E+02</totfact>
</mgrwt>
</event>
<event>
 5    1  0.6729100E-004  0.7236969E+03  0.7818608E-02  0.9677544E-01
         11   -1    0    0    0    0  0.00000000000E+00  0.00000000000E+00  0.10002117345E+04  0.10002117345E+04  0.51100000000E-03 0.  1.
          2   -1    0    0  501    0 -0.00000000000E+00 -0.00000000000E+00 -0.71519097639E+03  0.71519097640E+03  0.25500000000E-02 0.  1.
         11    1    1    2    0    0  0.73820318165E+02 -0.72816973034E+03  0.38793728220E+03  0.82835736882E+03  0.51100000000E-03 0.  1.
         22    1    1    2    0    0 -0.38390765945E+02  0.86070923127E+01  0.12529717689E+03  0.13132903519E+03  0.00000000000E+00 0. -1.
          2    1    1    2  501    0 -0.35429552220E+02  0.71956263802E+03 -0.22821370097E+03  0.75571630691E+03  0.25500000000E-02 0.  1.
<mgrwt>
<rscale>  0 0.72369690E+03</rscale>
<asrwt>0</asrwt>
<pdfrwt beam="1">  1       11 0.10000000E+01 0.39343779E+02</pdfrwt>
<pdfrwt beam="2">  1        2 0.11005267E+00 0.72369690E+03</pdfrwt>
<totfact> 0.49474021E+01</totfact>
</mgrwt>
</event>
<event>
 5    1  0.6729100E-004  0.3313874E+03  0.7818608E-02  0.1075828E+00
         11   -1    0    0    0    0  0.00000000000E+00  0.00000000000E+00  0.10000099518E+04  0.10000099518E+04  0.51100000000E-03 0. -1.
          2   -1    0    0  501    0 -0.00000000000E+00 -0.00000000000E+00 -0.10620474716E+03  0.10620474719E+03  0.25500000000E-02 0. -1.
         11    1    1    2    0    0 -0.17563728666E+03  0.18564391240E+03  0.30653545436E+03  0.39909410351E+03  0.51100000000E-03 0. -1.
         22    1    1    2    0    0 -0.72170881579E+02  0.16203285197E+02  0.12127748479E+03  0.14205425343E+03  0.00000000000E+00 0. -1.
          2    1    1    2  501    0  0.24780816824E+03 -0.20184719759E+03  0.46599226550E+03  0.56506634206E+03  0.25500000000E-02 0. -1.
<mgrwt>
<rscale>  0 0.31961098E+03</rscale>
<asrwt>0</asrwt>
<pdfrwt beam="1">  1       11 0.10000000E+01 0.33138744E+03</pdfrwt>
<pdfrwt beam="2">  1        2 0.16339354E-01 0.31961098E+03</pdfrwt>
<totfact> 0.43630994E+02</totfact>
</mgrwt>
</event>
<event>
 5    1  0.6729100E-004  0.6514359E+02  0.7818608E-02  0.1377432E+00
         11   -1    0    0    0    0  0.00000000000E+00  0.00000000000E+00  0.10003701757E+04  0.10003701757E+04  0.51100000000E-03 0.  1.
          2   -1    0    0  501    0 -0.00000000000E+00 -0.00000000000E+00 -0.11822413184E+02  0.11822413459E+02  0.25500000000E-02 0.  1.
         11    1    1    2    0    0  0.44471078344E+02  0.60617245159E+02  0.43954858301E+03  0.44593170334E+03  0.51100000000E-03 0.  1.
         22    1    1    2    0    0 -0.62682065090E+02  0.66319059418E+01  0.34450870830E+03  0.35022745974E+03  0.00000000000E+00 0.  1.
          2    1    1    2  501    0  0.18210986746E+02 -0.67249151100E+02  0.20449047119E+03  0.21603342606E+03  0.25500000000E-02 0.  1.
<mgrwt>
<rscale>  0 0.65143586E+02</rscale>
<asrwt>0</asrwt>
<pdfrwt beam="1">  1       11 0.10000000E+01 0.63031924E+02</pdfrwt>
<pdfrwt beam="2">  1        2 0.18195061E-02 0.65143586E+02</pdfrwt>
<totfact> 0.64524933E+03</totfact>
</mgrwt>
</event>
<event>
 5    1  0.6729100E-004  0.1911160E+03  0.7818608E-02  0.1157459E+00
         11   -1    0    0    0    0  0.00000000000E+00  0.00000000000E+00  0.10002613440E+04  0.10002613440E+04  0.51100000000E-03 0.  1.
          2   -1    0    0  501    0 -0.00000000000E+00 -0.00000000000E+00 -0.45586865587E+03  0.45586865587E+03  0.25500000000E-02 0.  1.
         11    1    1    2    0    0 -0.70296633215E+02  0.17298678051E+03  0.91178956743E+03  0.93071276888E+03  0.51100000000E-03 0.  1.
         22    1    1    2    0    0 -0.10359206487E+02  0.38918823877E+00  0.58052777373E+02  0.58971091114E+02  0.00000000000E+00 0. -1.
          2    1    1    2  501    0  0.80655839701E+02 -0.17337596875E+03 -0.42544965669E+03  0.46644613987E+03  0.25500000000E-02 0.  1.
<mgrwt>
<rscale>  0 0.19111602E+03</rscale>
<asrwt>0</asrwt>
<pdfrwt beam="1">  1       11 0.10000000E+01 0.10366515E+02</pdfrwt>
<pdfrwt beam="2">  1        2 0.70151966E-01 0.19111602E+03</pdfrwt>
<totfact> 0.86314059E+01</totfact>
</mgrwt>
</event>
<event>
 5    1  0.6729100E-004  0.3288580E+03  0.7818608E-02  0.1224368E+00
         11   -1    0    0    0    0  0.00000000000E+00  0.00000000000E+00  0.10000256329E+04  0.10000256329E+04  0.51100000000E-03 0. -1.
          2   -1    0    0  501    0 -0.00000000000E+00 -0.00000000000E+00 -0.64366587251E+03  0.64366587251E+03  0.25500000000E-02 0. -1.
         11    1    1    2    0    0  0.23546340583E+03  0.35399916119E+03 -0.36915261089E+03  0.56305601119E+03  0.51100000000E-03 0. -1.
         22    1    1    2    0    0 -0.23516267024E+03 -0.22189609628E+03  0.84360517418E+03  0.90344288636E+03  0.00000000000E+00 0. -1.
          2    1    1    2  501    0 -0.30073559255E+00 -0.13210306491E+03 -0.11809280286E+03  0.17719260790E+03  0.25500000000E-02 0. -1.
<mgrwt>
<rscale>  0 0.13210341E+03</rscale>
<asrwt>0</asrwt>
<pdfrwt beam="1">  1       11 0.10000000E+01 0.32885798E+03</pdfrwt>
<pdfrwt beam="2">  1        2 0.99028054E-01 0.13210341E+03</pdfrwt>
<totfact> 0.59021807E+01</totfact>
</mgrwt>
</event>
<event>
 5    1  0.6729100E-004  0.3085916E+03  0.7818608E-02  0.1081023E+00
         11   -1    0    0    0    0  0.00000000000E+00  0.00000000000E+00  0.10001000355E+04  0.10001000355E+04  0.51100000000E-03 0. -1.
          2   -1    0    0  501    0 -0.00000000000E+00 -0.00000000000E+00 -0.32995103629E+03  0.32995103630E+03  0.25500000000E-02 0. -1.
         11    1    1    2    0    0 -0.74244352772E+02  0.29443833278E+03  0.79820392560E+03  0.85401151197E+03  0.51100000000E-03 0. -1.
         22    1    1    2    0    0  0.18941918353E+02  0.97008830760E+01  0.93387746241E+02  0.95781911400E+02  0.00000000000E+00 0.  1.
          2    1    1    2  501    0  0.55302434419E+02 -0.30413921585E+03 -0.22144267267E+03  0.38025764839E+03  0.25500000000E-02 0. -1.
<mgrwt>
<rscale>  0 0.30859158E+03</rscale>
<asrwt>0</asrwt>
<pdfrwt beam="1">  1       11 0.10000000E+01 0.21281527E+02</pdfrwt>
<pdfrwt beam="2">  1        2 0.50766774E-01 0.30859158E+03</pdfrwt>
<totfact> 0.12237779E+02</totfact>
</mgrwt>
</event>
<event>
 5    1  0.6729100E-004  0.2262289E+03  0.7818608E-02  0.1129323E+00
         11   -1    0    0    0    0  0.00000000000E+00  0.00000000000E+00  0.10001703730E+04  0.10001703730E+04  0.51100000000E-03 0. -1.
         -2   -1    0    0    0  501 -0.00000000000E+00 -0.00000000000E+00 -0.52068071541E+03  0.52068071542E+03  0.25500000000E-02 0.  1.
         11    1    1    2    0    0  0.27513169552E+03 -0.72655520964E+02  0.70459665735E+03  0.75988994213E+03  0.51100000000E-03 0. -1.
         22    1    1    2    0    0 -0.67152828222E+02 -0.11213149321E+02  0.23739236507E+03  0.24696228872E+03  0.00000000000E+00 0.  1.
         -2    1    1    2    0  501 -0.20797886730E+03  0.83868670284E+02 -0.46249936483E+03  0.51399885756E+03  0.25500000000E-02 0.  1.
<mgrwt>
<rscale>  0 0.22622891E+03</rscale>
<asrwt>0</asrwt>
<pdfrwt beam="1">  1       11 0.10000000E+01 0.68082575E+02</pdfrwt>
<pdfrwt beam="2">  1       -2 0.80118371E-01 0.22622891E+03</pdfrwt>
<totfact> 0.11574396E+01</totfact>
</mgrwt>
</event>
<event>
 5    1  0.6729100E-004  0.2114990E+03  0.7818608E-02  0.1141213E+00
         11   -1    0    0    0    0  0.00000000000E+00  0.00000000000E+00  0.10001431645E+04  0.10001431645E+04  0.51100000000E-03 0. -1.
          2   -1    0    0  501    0 -0.00000000000E+00 -0.00000000000E+00 -0.69345921265E+02  0.69345921312E+02  0.25500000000E-02 0.  1.
         11    1    1    2    0    0 -0.19936730288E+03  0.48319389972E+00  0.72452583766E+03  0.75145541742E+03  0.51100000000E-03 0. -1.
         22    1    1    2    0    0 -0.11073231250E+02 -0.21060180732E+01  0.61680026853E+02  0.62701494999E+02  0.00000000000E+00 0. -1.
          2    1    1    2  501    0  0.21044053413E+03  0.16228241735E+01  0.14459137872E+03  0.25533217339E+03  0.25500000000E-02 0.  1.
<mgrwt>
<rscale>  0 0.21044679E+03</rscale>
<asrwt>0</asrwt>
<pdfrwt beam="1">  1       11 0.10000000E+01 0.21149898E+03</pdfrwt>
<pdfrwt beam="2">  1        2 0.10670130E-01 0.21044679E+03</pdfrwt>
<totfact> 0.71864459E+02</totfact>
</mgrwt>
</event>
<event>
 5    1  0.6729100E-004  0.2864361E+03  0.7818608E-02  0.1092225E+00
         11   -1    0    0    0    0  0.00000000000E+00  0.00000000000E+00  0.10002953890E+04  0.10002953890E+04  0.51100000000E-03 0.  1.
          2   -1    0    0  501    0 -0.00000000000E+00 -0.00000000000E+00 -0.18520434580E+03  0.18520434582E+03  0.25500000000E-02 0.  1.
         11    1    1    2    0    0  0.28665957571E+02 -0.27770170128E+03 -0.51944711290E+01  0.27922563376E+03  0.51100000000E-03 0.  1.
         22    1    1    2    0    0 -0.27479906186E+02 -0.49930563269E+02  0.10336956357E+03  0.11804013328E+03  0.00000000000E+00 0. -1.
          2    1    1    2  501    0 -0.11860513851E+01  0.32763226455E+03  0.71691595072E+03  0.78823396774E+03  0.25500000000E-02 0.  1.
<mgrwt>
<rscale>  0 0.28643606E+03</rscale>
<asrwt>0</asrwt>
<pdfrwt beam="1">  1       11 0.10000000E+01 0.56993038E+02</pdfrwt>
<pdfrwt beam="2">  1        2 0.28501392E-01 0.28643606E+03</pdfrwt>
<totfact> 0.22995906E+02</totfact>
</mgrwt>
</event>
<event>
 5    1  0.6729100E-004  0.1959786E+03  0.7818608E-02  0.1157041E+00
         11   -1    0    0    0    0  0.00000000000E+00  0.00000000000E+00  0.10001298218E+04  0.10001298218E+04  0.51100000000E-03 0.  1.
          2   -1    0    0  501    0 -0.00000000000E+00 -0.00000000000E+00 -0.19823913191E+03  0.19823913193E+03  0.25500000000E-02 0. -1.
         11    1    1    2    0    0  0.15859926089E+03  0.78845692444E+02  0.86528690627E+03  0.88322805602E+03  0.51100000000E-03 0.  1.
         22    1    1    2    0    0  0.71946312774E+01  0.17156573057E+02  0.75979464129E+02  0.78223971311E+02  0.00000000000E+00 0.  1.
          2    1    1    2  501    0 -0.16579389217E+03 -0.96002265501E+02 -0.13937568055E+03  0.23691692636E+03  0.25500000000E-02 0. -1.
<mgrwt>
<rscale>  0 0.19158301E+03</rscale>
<asrwt>0</asrwt>
<pdfrwt beam="1">  1       11 0.10000000E+01 0.19597862E+03</pdfrwt>
<pdfrwt beam="2">  1        2 0.30502286E-01 0.19158301E+03</pdfrwt>
<totfact> 0.21203542E+02</totfact>
</mgrwt>
</event>
<event>
 5    1  0.6729100E-004  0.1506013E+03  0.7818608E-02  0.1199736E+00
         11   -1    0    0    0    0  0.00000000000E+00  0.00000000000E+00  0.10002956272E+04  0.10002956272E+04  0.51100000000E-03 0. -1.
         -2   -1    0    0    0  501 -0.00000000000E+00 -0.00000000000E+00 -0.91168570205E+02  0.91168570241E+02  0.25500000000E-02 0.  1.
         11    1    1    2    0    0 -0.23529348072E+03 -0.45813141398E+02  0.69991509028E+03  0.73982633070E+03  0.51100000000E-03 0. -1.
         22    1    1    2    0    0  0.97475344906E+02  0.19959674663E+02  0.18398331852E+03  0.20916427269E+03  0.00000000000E+00 0. -1.
         -2    1    1    2    0  501  0.13781813582E+03  0.25853466735E+02  0.25228648186E+02  0.14247359404E+03  0.25500000000E-02 0.  1.
<mgrwt>
<rscale>  0 0.15060126E+03</rscale>
<asrwt>0</asrwt>
<pdfrwt beam="1">  1       11 0.10000000E+01 0.99497897E+02</pdfrwt>
<pdfrwt beam="2">  1       -2 0.14030080E-01 0.15060126E+03</pdfrwt>
<totfact> 0.29883674E+02</totfact>
</mgrwt>
</event>
<event>
 5    1  0.6729100E-004  0.4295460E+02  0.7818608E-02  0.1487530E+00
         11   -1    0    0    0    0  0.00000000000E+00  0.00000000000E+00  0.10001850888E+04  0.10001850888E+04  0.51100000000E-03 0. -1.
          2   -1    0    0  501    0 -0.00000000000E+00 -0.00000000000E+00 -0.21590735432E+02  0.21590735583E+02  0.25500000000E-02 0. -1.
         11    1    1    2    0    0  0.27888926581E+02 -0.13404363317E+02 -0.48909307083E+01  0.31327150928E+02  0.51100000000E-03 0. -1.
         22    1    1    2    0    0  0.37935543782E+02 -0.11498571758E+01  0.17049717813E+03  0.17467030487E+03  0.00000000000E+00 0. -1.
          2    1    1    2  501    0 -0.65824470363E+02  0.14554220493E+02  0.81298810596E+03  0.81577836860E+03  0.25500000000E-02 0. -1.
<mgrwt>
<rscale>  0 0.42954600E+02</rscale>
<asrwt>0</asrwt>
<pdfrwt beam="1">  1       11 0.10000000E+01 0.30943014E+02</pdfrwt>
<pdfrwt beam="2">  1        2 0.33222663E-02 0.42954600E+02</pdfrwt>
<totfact> 0.27615938E+03</totfact>
</mgrwt>
</event>
<event>
 5    1  0.6729100E-004  0.5725352E+03  0.7818608E-02  0.9964084E-01
         11   -1    0    0    0    0  0.00000000000E+00  0.00000000000E+00  0.10002395450E+04  0.10002395450E+04  0.51100000000E-03 0. -1.
          2   -1    0    0  501    0 -0.00000000000E+00 -0.00000000000E+00 -0.65694923871E+03  0.65694923872E+03  0.25500000000E-02 0.  1.
         11    1    1    2    0    0 -0.59408898584E+02  0.56422536314E+03  0.73315720565E+03  0.92703784488E+03  0.51100000000E-03 0. -1.
         22    1    1    2    0    0  0.21166065717E+02  0.80242286379E+01  0.15845281890E+02  0.27630844022E+02  0.00000000000E+00 0.  1.
          2    1    1    2  501    0  0.38242832867E+02 -0.57224959177E+03 -0.40571218128E+03  0.70252009480E+03  0.25500000000E-02 0.  1.
<mgrwt>
<rscale>  0 0.57253522E+03</rscale>
<asrwt>0</asrwt>
<pdfrwt beam="1">  1       11 0.10000000E+01 0.22636046E+02</pdfrwt>
<pdfrwt beam="2">  1        2 0.10109332E+00 0.57253522E+03</pdfrwt>
<totfact> 0.55379162E+01</totfact>
</mgrwt>
</event>
<event>
 5    1  0.6729100E-004  0.1727840E+03  0.7818608E-02  0.1328695E+00
         11   -1    0    0    0    0  0.00000000000E+00  0.00000000000E+00  0.10000715783E+04  0.10000715783E+04  0.51100000000E-03 0. -1.
          2   -1    0    0  501    0 -0.00000000000E+00 -0.00000000000E+00 -0.80277311196E+03  0.80277311197E+03  0.25500000000E-02 0. -1.
         11    1    1    2    0    0 -0.42976373127E+01  0.17441557289E+03  0.14378635525E+03  0.22608356356E+03  0.51100000000E-03 0. -1.
         22    1    1    2    0    0  0.82154365889E+02 -0.15548300686E+03  0.80349331148E+03  0.82251188858E+03  0.00000000000E+00 0. -1.
          2    1    1    2  501    0 -0.77856728576E+02 -0.18932566036E+02 -0.74998120040E+03  0.75424923812E+03  0.25500000000E-02 0. -1.
<mgrwt>
<rscale>  0 0.80125603E+02</rscale>
<asrwt>0</asrwt>
<pdfrwt beam="1">  1       11 0.10000000E+01 0.17278404E+03</pdfrwt>
<pdfrwt beam="2">  1        2 0.12351239E+00 0.80125603E+02</pdfrwt>
<totfact> 0.46158894E+01</totfact>
</mgrwt>
</event>
<event>
 5    1  0.6729100E-004  0.5173766E+03  0.7818608E-02  0.1009340E+00
         11   -1    0    0    0    0  0.00000000000E+00  0.00000000000E+00  0.99997809215E+03  0.99997809215E+03  0.51100000000E-03 0.  1.
          2   -1    0    0  501    0 -0.00000000000E+00 -0.00000000000E+00 -0.99997809215E+03  0.99997809216E+03  0.25500000000E-02 0.  1.
         11    1    1    2    0    0 -0.36828197159E+03  0.35438058998E+03  0.83001434174E+03  0.97475177386E+03  0.51100000000E-03 0.  1.
         22    1    1    2    0    0  0.60706688157E+01  0.15784278520E+02  0.22234179288E+02  0.27934838408E+02  0.00000000000E+00 0. -1.
          2    1    1    2  501    0  0.36221130278E+03 -0.37016486850E+03 -0.85224852102E+03  0.99726957204E+03  0.25500000000E-02 0.  1.
<mgrwt>
<rscale>  0 0.51737664E+03</rscale>
<asrwt>0</asrwt>
<pdfrwt beam="1">  1       11 0.10000000E+01 0.16911430E+02</pdfrwt>
<pdfrwt beam="2">  1        2 0.15383941E+00 0.51737664E+03</pdfrwt>
<totfact> 0.31864668E+01</totfact>
</mgrwt>
</event>
<event>
 5    1  0.6729100E-004  0.1719750E+03  0.7818608E-02  0.1507852E+00
         11   -1    0    0    0    0  0.00000000000E+00  0.00000000000E+00  0.10004604880E+04  0.10004604880E+04  0.51100000000E-03 0. -1.
          2   -1    0    0  501    0 -0.00000000000E+00 -0.00000000000E+00 -0.52282655227E+02  0.52282655290E+02  0.25500000000E-02 0. -1.
         11    1    1    2    0    0 -0.16976656428E+03  0.20047705314E+02  0.52957256379E+03  0.55647973652E+03  0.51100000000E-03 0. -1.
         22    1    1    2    0    0  0.16542295129E+03 -0.59860323847E+02  0.42086301819E+03  0.45615095227E+03  0.00000000000E+00 0. -1.
          2    1    1    2  501    0  0.43436129896E+01  0.39812618533E+02 -0.22577491977E+01  0.40112454502E+02  0.25500000000E-02 0. -1.
<mgrwt>
<rscale>  0 0.40048865E+02</rscale>
<asrwt>0</asrwt>
<pdfrwt beam="1">  1       11 0.10000000E+01 0.17197496E+03</pdfrwt>
<pdfrwt beam="2">  1        2 0.80471891E-02 0.40048865E+02</pdfrwt>
<totfact> 0.90723256E+02</totfact>
</mgrwt>
</event>
<event>
 5    1  0.6729100E-004  0.2742690E+03  0.7818608E-02  0.1098861E+00
         11   -1    0    0    0    0  0.00000000000E+00  0.00000000000E+00  0.10001598561E+04  0.10001598561E+04  0.51100000000E-03 0.  1.
          2   -1    0    0  501    0 -0.00000000000E+00 -0.00000000000E+00 -0.36725675342E+03  0.36725675343E+03  0.25500000000E-02 0.  1.
         11    1    1    2    0    0 -0.22010735688E+03 -0.18676232835E+03  0.84546678390E+03  0.89338765299E+03  0.51100000000E-03 0.  1.
         22    1    1    2    0    0  0.60779385579E+01  0.16689684634E+02  0.75108800461E+02  0.77180430272E+02  0.00000000000E+00 0.  1.
          2    1    1    2  501    0  0.21402941833E+03  0.17007264371E+03 -0.28767248170E+03  0.39684852624E+03  0.25500000000E-02 0.  1.
<mgrwt>
<rscale>  0 0.27426898E+03</rscale>
<asrwt>0</asrwt>
<pdfrwt beam="1">  1       11 0.10000000E+01 0.17761951E+02</pdfrwt>
<pdfrwt beam="2">  1        2 0.56510069E-01 0.27426898E+03</pdfrwt>
<totfact> 0.10894876E+02</totfact>
</mgrwt>
</event>
<event>
 5    1  0.6729100E-004  0.9461985E+02  0.7818608E-02  0.1317962E+00
         11   -1    0    0    0    0  0.00000000000E+00  0.00000000000E+00  0.10001046843E+04  0.10001046843E+04  0.51100000000E-03 0. -1.
         -2   -1    0    0    0  501 -0.00000000000E+00 -0.00000000000E+00 -0.31258198539E+02  0.31258198643E+02  0.25500000000E-02 0. -1.
         11    1    1    2    0    0 -0.19242280023E+02  0.11009243011E+03  0.20322269677E+03  0.23192686992E+03  0.51100000000E-03 0. -1.
         22    1    1    2    0    0 -0.57330041671E+02 -0.75459484922E+02  0.14548219890E+03  0.17362585562E+03  0.00000000000E+00 0. -1.
         -2    1    1    2    0  501  0.76572321693E+02 -0.34632945191E+02  0.62014159005E+03  0.62581015737E+03  0.25500000000E-02 0. -1.
<mgrwt>
<rscale>  0 0.84040236E+02</rscale>
<asrwt>0</asrwt>
<pdfrwt beam="1">  1       11 0.10000000E+01 0.94619852E+02</pdfrwt>
<pdfrwt beam="2">  1       -2 0.48094569E-02 0.84040236E+02</pdfrwt>
<totfact> 0.14964846E+03</totfact>
</mgrwt>
</event>
<event>
 5    1  0.6729100E-004  0.4561372E+03  0.7818608E-02  0.1026338E+00
         11   -1    0    0    0    0  0.00000000000E+00  0.00000000000E+00  0.10002472074E+04  0.10002472074E+04  0.51100000000E-03 0.  1.
          2   -1    0    0  501    0 -0.00000000000E+00 -0.00000000000E+00 -0.45960573010E+03  0.45960573011E+03  0.25500000000E-02 0.  1.
         11    1    1    2    0    0  0.24454876448E+03  0.36385843135E+03  0.78399863386E+03  0.89824880415E+03  0.51100000000E-03 0.  1.
         22    1    1    2    0    0  0.14735905177E+02  0.96363588964E+01  0.27289178562E+02  0.32476231012E+02  0.00000000000E+00 0.  1.
          2    1    1    2  501    0 -0.25928466966E+03 -0.37349479024E+03 -0.27064633516E+03  0.52912790231E+03  0.25500000000E-02 0.  1.
<mgrwt>
<rscale>  0 0.45467230E+03</rscale>
<asrwt>0</asrwt>
<pdfrwt beam="1">  1       11 0.10000000E+01 0.45613723E+03</pdfrwt>
<pdfrwt beam="2">  1        2 0.70726052E-01 0.45467230E+03</pdfrwt>
<totfact> 0.84579082E+01</totfact>
</mgrwt>
</event>
<event>
 5    1  0.6729100E-004  0.3481811E+03  0.7818608E-02  0.1065529E+00
         11   -1    0    0    0    0  0.00000000000E+00  0.00000000000E+00  0.10000449499E+04  0.10000449499E+04  0.51100000000E-03 0. -1.
          2   -1    0    0  501    0 -0.00000000000E+00 -0.00000000000E+00 -0.81273749544E+03  0.81273749545E+03  0.25500000000E-02 0.  1.
         11    1    1    2    0    0 -0.19198754143E+03  0.25870859002E+03  0.84015715493E+03  0.89980742139E+03  0.51100000000E-03 0. -1.
         22    1    1    2    0    0 -0.23427626007E+02  0.81974557839E+01  0.90750348795E+02  0.94083355319E+02  0.00000000000E+00 0. -1.
          2    1    1    2  501    0  0.21541516744E+03 -0.26690604580E+03 -0.74360004928E+03  0.81889166862E+03  0.25500000000E-02 0.  1.
<mgrwt>
<rscale>  0 0.34299057E+03</rscale>
<asrwt>0</asrwt>
<pdfrwt beam="1">  1       11 0.10000000E+01 0.34818112E+03</pdfrwt>
<pdfrwt beam="2">  1        2 0.12504215E+00 0.34299057E+03</pdfrwt>
<totfact> 0.43054721E+01</totfact>
</mgrwt>
</event>
<event>
 5    1  0.6729100E-004  0.7208147E+03  0.7818608E-02  0.9682284E-01
         11   -1    0    0    0    0  0.00000000000E+00  0.00000000000E+00  0.99994345461E+03  0.99994345461E+03  0.51100000000E-03 0. -1.
          2   -1    0    0  501    0 -0.00000000000E+00 -0.00000000000E+00 -0.30215345628E+04  0.30215345628E+04  0.25500000000E-02 0. -1.
         11    1    1    2    0    0  0.66031036568E+03  0.18516387159E+03  0.66989112346E+03  0.95867072327E+03  0.51100000000E-03 0. -1.
         22    1    1    2    0    0  0.20371877373E+02  0.58147932672E+02  0.13338042107E+03  0.14692355899E+03  0.00000000000E+00 0. -1.
          2    1    1    2  501    0 -0.68068224305E+03 -0.24331180426E+03 -0.28248626528E+04  0.29158837352E+04  0.25500000000E-02 0. -1.
<mgrwt>
<rscale>  0 0.72081469E+03</rscale>
<asrwt>0</asrwt>
<pdfrwt beam="1">  1       11 0.10000000E+01 0.61613273E+02</pdfrwt>
<pdfrwt beam="2">  1        2 0.46482517E+00 0.72081469E+03</pdfrwt>
<totfact> 0.22185248E+00</totfact>
</mgrwt>
</event>
<event>
 5    1  0.6729100E-004  0.1404705E+03  0.7818608E-02  0.1212697E+00
         11   -1    0    0    0    0  0.00000000000E+00  0.00000000000E+00  0.10001215335E+04  0.10001215335E+04  0.51100000000E-03 0. -1.
          2   -1    0    0  501    0 -0.00000000000E+00 -0.00000000000E+00 -0.58358600914E+02  0.58358600970E+02  0.25500000000E-02 0. -1.
         11    1    1    2    0    0  0.14009958670E+03 -0.95639097383E+02  0.55265706832E+03  0.57810428670E+03  0.51100000000E-03 0. -1.
         22    1    1    2    0    0 -0.10003852318E+03 -0.39215473353E+02  0.28726538620E+03  0.30670337719E+03  0.00000000000E+00 0. -1.
          2    1    1    2  501    0 -0.40061063518E+02  0.13485457074E+03  0.10184047808E+03  0.17367247059E+03  0.25500000000E-02 0. -1.
<mgrwt>
<rscale>  0 0.14047052E+03</rscale>
<asrwt>0</asrwt>
<pdfrwt beam="1">  1       11 0.10000000E+01 0.10745027E+03</pdfrwt>
<pdfrwt beam="2">  1        2 0.89793372E-02 0.14047052E+03</pdfrwt>
<totfact> 0.87052442E+02</totfact>
</mgrwt>
</event>
<event>
 5    1  0.6729100E-004  0.4823887E+03  0.7818608E-02  0.1018481E+00
         11   -1    0    0    0    0  0.00000000000E+00  0.00000000000E+00  0.10006318018E+04  0.10006318018E+04  0.51100000000E-03 0. -1.
          2   -1    0    0  501    0 -0.00000000000E+00 -0.00000000000E+00 -0.14987629171E+04  0.14987629171E+04  0.25500000000E-02 0. -1.
         11    1    1    2    0    0 -0.82304661848E+02  0.44543801493E+03  0.74035484602E+03  0.86793685285E+03  0.51100000000E-03 0. -1.
         22    1    1    2    0    0 -0.53507156328E+02  0.19117353898E+02  0.15033613880E+03  0.16071541192E+03  0.00000000000E+00 0. -1.
          2    1    1    2  501    0  0.13581181818E+03 -0.46455536883E+03 -0.13888221001E+04  0.14707424542E+04  0.25500000000E-02 0. -1.
<mgrwt>
<rscale>  0 0.48238866E+03</rscale>
<asrwt>0</asrwt>
<pdfrwt beam="1">  1       11 0.10000000E+01 0.56819794E+02</pdfrwt>
<pdfrwt beam="2">  1        2 0.23072458E+00 0.48238866E+03</pdfrwt>
<totfact> 0.16415145E+01</totfact>
</mgrwt>
</event>
<event>
 5    1  0.6729100E-004  0.6938557E+03  0.7818608E-02  0.9768516E-01
         11   -1    0    0    0    0  0.00000000000E+00  0.00000000000E+00  0.99999054544E+03  0.99999054544E+03  0.51100000000E-03 0. -1.
          2   -1    0    0  501    0 -0.00000000000E+00 -0.00000000000E+00 -0.95979870176E+03  0.95979870176E+03  0.25500000000E-02 0. -1.
         11    1    1    2    0    0  0.28753005442E+03 -0.46666433373E+03  0.55774442162E+03  0.78200253991E+03  0.51100000000E-03 0. -1.
         22    1    1    2    0    0 -0.11804326929E+02 -0.14484689495E+03  0.16562276225E+03  0.22034260706E+03  0.00000000000E+00 0. -1.
          2    1    1    2  501    0 -0.27572572749E+03  0.61151122868E+03 -0.68317534020E+03  0.95744410023E+03  0.25500000000E-02 0. -1.
<mgrwt>
<rscale>  0 0.67079852E+03</rscale>
<asrwt>0</asrwt>
<pdfrwt beam="1">  1       11 0.10000000E+01 0.69385568E+03</pdfrwt>
<pdfrwt beam="2">  1        2 0.14765994E+00 0.67079852E+03</pdfrwt>
<totfact> 0.33413821E+01</totfact>
</mgrwt>
</event>
<event>
 5    1  0.6729100E-004  0.1567304E+03  0.7818608E-02  0.1733138E+00
         11   -1    0    0    0    0  0.00000000000E+00  0.00000000000E+00  0.10001149475E+04  0.10001149475E+04  0.51100000000E-03 0.  1.
          2   -1    0    0  501    0 -0.00000000000E+00 -0.00000000000E+00 -0.52658057388E+03  0.52658057389E+03  0.25500000000E-02 0.  1.
         11    1    1    2    0    0  0.14930043774E+03  0.72280635976E+02  0.17155782697E+03  0.23863612267E+03  0.51100000000E-03 0.  1.
         22    1    1    2    0    0 -0.14588112804E+03 -0.51938937901E+02  0.78725641978E+03  0.80234134087E+03  0.00000000000E+00 0.  1.
          2    1    1    2  501    0 -0.34193097049E+01 -0.20341698075E+02 -0.48527987318E+03  0.48571805780E+03  0.25500000000E-02 0.  1.
<mgrwt>
<rscale>  0 0.20627078E+02</rscale>
<asrwt>0</asrwt>
<pdfrwt beam="1">  1       11 0.10000000E+01 0.15673037E+03</pdfrwt>
<pdfrwt beam="2">  1        2 0.81021706E-01 0.20627078E+02</pdfrwt>
<totfact> 0.76005400E+01</totfact>
</mgrwt>
</event>
<event>
 5    1  0.6729100E-004  0.1711592E+03  0.7818608E-02  0.1176644E+00
         11   -1    0    0    0    0  0.00000000000E+00  0.00000000000E+00  0.10001381650E+04  0.10001381650E+04  0.51100000000E-03 0.  1.
          2   -1    0    0  501    0 -0.00000000000E+00 -0.00000000000E+00 -0.61193553013E+02  0.61193553066E+02  0.25500000000E-02 0. -1.
         11    1    1    2    0    0  0.41648116504E+02  0.16346261105E+03  0.85353845597E+03  0.87004740482E+03  0.51100000000E-03 0.  1.
         22    1    1    2    0    0 -0.13088265626E+02 -0.14712992054E+02  0.99972736332E+01  0.22084390695E+02  0.00000000000E+00 0. -1.
          2    1    1    2  501    0 -0.28559850878E+02 -0.14874961899E+03  0.75408882338E+02  0.16919992250E+03  0.25500000000E-02 0. -1.
<mgrwt>
<rscale>  0 0.17115922E+03</rscale>
<asrwt>0</asrwt>
<pdfrwt beam="1">  1       11 0.10000000E+01 0.16868489E+03</pdfrwt>
<pdfrwt beam="2">  1        2 0.94156932E-02 0.17115922E+03</pdfrwt>
<totfact> 0.83007406E+02</totfact>
</mgrwt>
</event>
<event>
 5    1  0.6729100E-004  0.7899652E+02  0.7818608E-02  0.1331924E+00
         11   -1    0    0    0    0  0.00000000000E+00  0.00000000000E+00  0.10001019495E+04  0.10001019495E+04  0.51100000000E-03 0.  1.
          2   -1    0    0  501    0 -0.00000000000E+00 -0.00000000000E+00 -0.93085512855E+01  0.93085516348E+01  0.25500000000E-02 0.  1.
         11    1    1    2    0    0 -0.64639828141E+02 -0.43999015681E+02  0.26033867695E+03  0.27182797405E+03  0.51100000000E-03 0.  1.
         22    1    1    2    0    0  0.88225922029E+01 -0.16624885141E+02  0.98973146973E+02  0.10074675558E+03  0.00000000000E+00 0. -1.
          2    1    1    2  501    0  0.55817235938E+02  0.60623900821E+02  0.63148157431E+03  0.63683577151E+03  0.25500000000E-02 0.  1.
<mgrwt>
<rscale>  0 0.78996520E+02</rscale>
<asrwt>0</asrwt>
<pdfrwt beam="1">  1       11 0.10000000E+01 0.18820864E+02</pdfrwt>
<pdfrwt beam="2">  1        2 0.14322308E-02 0.78996520E+02</pdfrwt>
<totfact> 0.91607555E+03</totfact>
</mgrwt>
</event>
<event>
 5    1  0.6729100E-004  0.1061925E+03  0.7818608E-02  0.1267788E+00
         11   -1    0    0    0    0  0.00000000000E+00  0.00000000000E+00  0.10001039060E+04  0.10001039060E+04  0.51100000000E-03 0. -1.
          2   -1    0    0  501    0 -0.00000000000E+00 -0.00000000000E+00 -0.10087922675E+02  0.10087922998E+02  0.25500000000E-02 0.  1.
         11    1    1    2    0    0 -0.71321479482E+02 -0.61578653950E+02  0.43117954271E+03  0.44135527879E+03  0.51100000000E-03 0. -1.
         22    1    1    2    0    0  0.48647820943E+02  0.98181680045E+01  0.25218629352E+03  0.25702321597E+03  0.00000000000E+00 0.  1.
          2    1    1    2  501    0  0.22673658538E+02  0.51760485945E+02  0.30665014710E+03  0.31181333426E+03  0.25500000000E-02 0.  1.
<mgrwt>
<rscale>  0 0.10619253E+03</rscale>
<asrwt>0</asrwt>
<pdfrwt beam="1">  1       11 0.10000000E+01 0.94226816E+02</pdfrwt>
<pdfrwt beam="2">  1        2 0.15521493E-02 0.10619253E+03</pdfrwt>
<totfact> 0.85635068E+03</totfact>
</mgrwt>
</event>
<event>
 5    1  0.6729100E-004  0.2662862E+03  0.7818608E-02  0.1103424E+00
         11   -1    0    0    0    0  0.00000000000E+00  0.00000000000E+00  0.10003393630E+04  0.10003393630E+04  0.51100000000E-03 0.  1.
          2   -1    0    0  501    0 -0.00000000000E+00 -0.00000000000E+00 -0.17749489410E+04  0.17749489410E+04  0.25500000000E-02 0.  1.
         11    1    1    2    0    0 -0.18158161591E+03 -0.20267256320E+03  0.79437271113E+03  0.83968807024E+03  0.51100000000E-03 0.  1.
         22    1    1    2    0    0  0.27948864812E+02 -0.14763997725E+02  0.17174568763E+03  0.17463016891E+03  0.00000000000E+00 0.  1.
          2    1    1    2  501    0  0.15363275110E+03  0.21743656092E+03 -0.17407279768E+04  0.17609700649E+04  0.25500000000E-02 0.  1.
<mgrwt>
<rscale>  0 0.26628622E+03</rscale>
<asrwt>0</asrwt>
<pdfrwt beam="1">  1       11 0.10000000E+01 0.31608775E+02</pdfrwt>
<pdfrwt beam="2">  1        2 0.27316173E+00 0.26628622E+03</pdfrwt>
<totfact> 0.12241520E+01</totfact>
</mgrwt>
</event>
<event>
 5    1  0.6729100E-004  0.2017119E+03  0.7818608E-02  0.1151598E+00
         11   -1    0    0    0    0  0.00000000000E+00  0.00000000000E+00  0.10002713884E+04  0.10002713884E+04  0.51100000000E-03 0. -1.
          2   -1    0    0  501    0 -0.00000000000E+00 -0.00000000000E+00 -0.15025684295E+03  0.15025684297E+03  0.25500000000E-02 0. -1.
         11    1    1    2    0    0 -0.91200548859E+02  0.11294870330E+03  0.65579891032E+03  0.67167489194E+03  0.51100000000E-03 0. -1.
         22    1    1    2    0    0 -0.13494891673E+02  0.54886730619E+02  0.26331973146E+03  0.26931755656E+03  0.00000000000E+00 0. -1.
          2    1    1    2  501    0  0.10469544053E+03 -0.16783543392E+03 -0.69104096354E+02  0.20953578283E+03  0.25500000000E-02 0. -1.
<mgrwt>
<rscale>  0 0.19781271E+03</rscale>
<asrwt>0</asrwt>
<pdfrwt beam="1">  1       11 0.10000000E+01 0.20171195E+03</pdfrwt>
<pdfrwt beam="2">  1        2 0.23122710E-01 0.19781271E+03</pdfrwt>
<totfact> 0.28837206E+02</totfact>
</mgrwt>
</event>
<event>
 5    1  0.6729100E-004  0.1336943E+03  0.7818608E-02  0.1222075E+00
         11   -1    0    0    0    0  0.00000000000E+00  0.00000000000E+00  0.10003282616E+04  0.10003282616E+04  0.51100000000E-03 0. -1.
          2   -1    0    0  501    0 -0.00000000000E+00 -0.00000000000E+00 -0.20983192904E+03  0.20983192906E+03  0.25500000000E-02 0.  1.
         11    1    1    2    0    0 -0.14766374720E+03  0.38144699270E+01  0.85847593307E+03  0.87109130410E+03  0.51100000000E-03 0. -1.
         22    1    1    2    0    0  0.15828662615E+02  0.16341391021E+02  0.11243388198E+03  0.11471253392E+03  0.00000000000E+00 0.  1.
          2    1    1    2  501    0  0.13183508458E+03 -0.20155860948E+02 -0.18041348254E+03  0.22435635259E+03  0.25500000000E-02 0.  1.
<mgrwt>
<rscale>  0 0.13369425E+03</rscale>
<asrwt>0</asrwt>
<pdfrwt beam="1">  1       11 0.10000000E+01 0.22750552E+02</pdfrwt>
<pdfrwt beam="2">  1        2 0.32292431E-01 0.13369425E+03</pdfrwt>
<totfact> 0.19813154E+02</totfact>
</mgrwt>
</event>
<event>
 5    1  0.6729100E-004  0.2900303E+03  0.7818608E-02  0.1090333E+00
         11   -1    0    0    0    0  0.00000000000E+00  0.00000000000E+00  0.10001140400E+04  0.10001140400E+04  0.51100000000E-03 0. -1.
         -2   -1    0    0    0  501 -0.00000000000E+00 -0.00000000000E+00 -0.93296761169E+02  0.93296761204E+02  0.25500000000E-02 0.  1.
         11    1    1    2    0    0 -0.47815810007E+01 -0.28264969399E+03  0.25801706576E+03  0.38273557354E+03  0.51100000000E-03 0. -1.
         22    1    1    2    0    0 -0.21228672190E+02  0.12843287768E+03  0.34992201568E+03  0.37335114524E+03  0.00000000000E+00 0.  1.
         -2    1    1    2    0  501  0.26010253191E+02  0.15421681630E+03  0.29887819737E+03  0.33732408240E+03  0.25500000000E-02 0.  1.
<mgrwt>
<rscale>  0 0.29003028E+03</rscale>
<asrwt>0</asrwt>
<pdfrwt beam="1">  1       11 0.10000000E+01 0.28269028E+03</pdfrwt>
<pdfrwt beam="2">  1       -2 0.14354984E-01 0.29003028E+03</pdfrwt>
<totfact> 0.29571851E+02</totfact>
</mgrwt>
</event>
<event>
 5    1  0.6729100E-004  0.1295271E+03  0.7818608E-02  0.1228159E+00
         11   -1    0    0    0    0  0.00000000000E+00  0.00000000000E+00  0.10004364631E+04  0.10004364631E+04  0.51100000000E-03 0.  1.
          2   -1    0    0  501    0 -0.00000000000E+00 -0.00000000000E+00 -0.22106080337E+03  0.22106080339E+03  0.25500000000E-02 0.  1.
         11    1    1    2    0    0  0.94697050258E+02  0.16685977096E+03  0.37441059011E+03  0.42070536541E+03  0.51100000000E-03 0.  1.
         22    1    1    2    0    0 -0.88080607491E+02 -0.39786470850E+02  0.57799010877E+03  0.58601512141E+03  0.00000000000E+00 0.  1.
          2    1    1    2  501    0 -0.66164427670E+01 -0.12707330011E+03 -0.17302503915E+03  0.21477677969E+03  0.25500000000E-02 0.  1.
<mgrwt>
<rscale>  0 0.12952712E+03</rscale>
<asrwt>0</asrwt>
<pdfrwt beam="1">  1       11 0.10000000E+01 0.96649659E+02</pdfrwt>
<pdfrwt beam="2">  1        2 0.34024197E-01 0.12952712E+03</pdfrwt>
<totfact> 0.18722507E+02</totfact>
</mgrwt>
</event>
<event>
 5    1  0.6729100E-004  0.1703650E+03  0.7818608E-02  0.1177468E+00
         11   -1    0    0    0    0  0.00000000000E+00  0.00000000000E+00  0.10002697452E+04  0.10002697452E+04  0.51100000000E-03 0.  1.
          2   -1    0    0  501    0 -0.00000000000E+00 -0.00000000000E+00 -0.22102396465E+03  0.22102396467E+03  0.25500000000E-02 0.  1.
         11    1    1    2    0    0 -0.16999622387E+03  0.33894098451E+02  0.81827115445E+03  0.83643003787E+03  0.51100000000E-03 0.  1.
         22    1    1    2    0    0  0.98999840989E+01  0.24228304317E+02  0.13726415300E+03  0.13973713935E+03  0.00000000000E+00 0. -1.
          2    1    1    2  501    0  0.16009623978E+03 -0.58122402768E+02 -0.17628952692E+03  0.24512653264E+03  0.25500000000E-02 0.  1.
<mgrwt>
<rscale>  0 0.17036499E+03</rscale>
<asrwt>0</asrwt>
<pdfrwt beam="1">  1       11 0.10000000E+01 0.26172895E+02</pdfrwt>
<pdfrwt beam="2">  1        2 0.34012858E-01 0.17036499E+03</pdfrwt>
<totfact> 0.18803553E+02</totfact>
</mgrwt>
</event>
<event>
 5    1  0.6729100E-004  0.1748017E+03  0.7818608E-02  0.1688075E+00
         11   -1    0    0    0    0  0.00000000000E+00  0.00000000000E+00  0.10003851114E+04  0.10003851114E+04  0.51100000000E-03 0. -1.
          2   -1    0    0  501    0 -0.00000000000E+00 -0.00000000000E+00 -0.27385104682E+03  0.27385104683E+03  0.25500000000E-02 0.  1.
         11    1    1    2    0    0  0.13686583733E+03 -0.12324507453E+03  0.64348354953E+03  0.66932255628E+03  0.51100000000E-03 0. -1.
         22    1    1    2    0    0 -0.12127045681E+03  0.10605077610E+03  0.32453251689E+03  0.36231843084E+03  0.00000000000E+00 0. -1.
          2    1    1    2  501    0 -0.15595380520E+02  0.17194298432E+02 -0.24148200188E+03  0.24259517108E+03  0.25500000000E-02 0.  1.
<mgrwt>
<rscale>  0 0.23213354E+02</rscale>
<asrwt>0</asrwt>
<pdfrwt beam="1">  1       11 0.10000000E+01 0.17480167E+03</pdfrwt>
<pdfrwt beam="2">  1        2 0.42147154E-01 0.23213354E+02</pdfrwt>
<totfact> 0.14522110E+02</totfact>
</mgrwt>
</event>
<event>
 5    1  0.6729100E-004  0.4297654E+03  0.7818608E-02  0.1036795E+00
         11   -1    0    0    0    0  0.00000000000E+00  0.00000000000E+00  0.99940182883E+03  0.99940182883E+03  0.51100000000E-03 0.  1.
          2   -1    0    0  501    0 -0.00000000000E+00 -0.00000000000E+00 -0.19687464598E+04  0.19687464598E+04  0.25500000000E-02 0.  1.
         11    1    1    2    0    0 -0.38226992957E+03  0.35370840534E+02  0.84633383277E+03  0.92933435958E+03  0.51100000000E-03 0.  1.
         22    1    1    2    0    0 -0.33356895266E+02  0.30633182876E+02  0.82732640862E+02  0.94317359054E+02  0.00000000000E+00 0.  1.
          2    1    1    2  501    0  0.41562682484E+03 -0.66004023409E+02 -0.18984111046E+04  0.19444965700E+04  0.25500000000E-02 0.  1.
<mgrwt>
<rscale>  0 0.42083511E+03</rscale>
<asrwt>0</asrwt>
<pdfrwt beam="1">  1       11 0.10000000E+01 0.42976543E+03</pdfrwt>
<pdfrwt beam="2">  1        2 0.30270289E+00 0.42083511E+03</pdfrwt>
<totfact> 0.92936147E+00</totfact>
</mgrwt>
</event>
<event>
 5    1  0.6729100E-004  0.1932189E+03  0.7818608E-02  0.1155590E+00
         11   -1    0    0    0    0  0.00000000000E+00  0.00000000000E+00  0.10000012507E+04  0.10000012507E+04  0.51100000000E-03 0.  1.
         -2   -1    0    0    0  501 -0.00000000000E+00 -0.00000000000E+00 -0.27871974597E+03  0.27871974598E+03  0.25500000000E-02 0. -1.
         11    1    1    2    0    0  0.28632650357E+02 -0.16590879108E+03  0.58512583501E+03  0.60886599381E+03  0.51100000000E-03 0.  1.
         22    1    1    2    0    0 -0.67737749220E+02 -0.25533504532E+02  0.36317927422E+03  0.37032357169E+03  0.00000000000E+00 0.  1.
         -2    1    1    2    0  501  0.39105098863E+02  0.19144229561E+03 -0.22702360445E+03  0.29953143122E+03  0.25500000000E-02 0. -1.
<mgrwt>
<rscale>  0 0.19321887E+03</rscale>
<asrwt>0</asrwt>
<pdfrwt beam="1">  1       11 0.10000000E+01 0.72390348E+02</pdfrwt>
<pdfrwt beam="2">  1       -2 0.42880013E-01 0.19321887E+03</pdfrwt>
<totfact> 0.42096483E+01</totfact>
</mgrwt>
</event>
<event>
 5    1  0.6729100E-004  0.1317516E+03  0.7818608E-02  0.1726980E+00
         11   -1    0    0    0    0  0.00000000000E+00  0.00000000000E+00  0.10003638393E+04  0.10003638393E+04  0.51100000000E-03 0.  1.
         -2   -1    0    0    0  501 -0.00000000000E+00 -0.00000000000E+00 -0.13807838907E+03  0.13807838910E+03  0.25500000000E-02 0.  1.
         11    1    1    2    0    0  0.74915569517E+02  0.11652140370E+03  0.71701925266E+03  0.73027815849E+03  0.51100000000E-03 0.  1.
         22    1    1    2    0    0 -0.58642051721E+02 -0.10331994267E+03  0.26299589202E+03  0.28858402590E+03  0.00000000000E+00 0.  1.
         -2    1    1    2    0  501 -0.16273517796E+02 -0.13201461035E+02 -0.11772969447E+03  0.11958004400E+03  0.25500000000E-02 0.  1.
<mgrwt>
<rscale>  0 0.20954855E+02</rscale>
<asrwt>0</asrwt>
<pdfrwt beam="1">  1       11 0.10000000E+01 0.13175164E+03</pdfrwt>
<pdfrwt beam="2">  1       -2 0.21250557E-01 0.20954855E+02</pdfrwt>
<totfact> 0.13666418E+02</totfact>
</mgrwt>
</event>
<event>
 5    1  0.6729100E-004  0.2250028E+03  0.7818608E-02  0.1308329E+00
         11   -1    0    0    0    0  0.00000000000E+00  0.00000000000E+00  0.10000420530E+04  0.10000420530E+04  0.51100000000E-03 0. -1.
          2   -1    0    0  501    0 -0.00000000000E+00 -0.00000000000E+00 -0.10853738832E+03  0.10853738835E+03  0.25500000000E-02 0. -1.
         11    1    1    2    0    0  0.17846666090E+03  0.85033874462E+02  0.29489083901E+03  0.35502354259E+03  0.51100000000E-03 0. -1.
         22    1    1    2    0    0 -0.18406799543E+03 -0.17263078009E+03  0.61421299509E+03  0.66403314413E+03  0.00000000000E+00 0. -1.
          2    1    1    2  501    0  0.56013345291E+01  0.87596905624E+02 -0.17599169426E+02  0.89522754618E+02  0.25500000000E-02 0. -1.
<mgrwt>
<rscale>  0 0.87775810E+02</rscale>
<asrwt>0</asrwt>
<pdfrwt beam="1">  1       11 0.10000000E+01 0.22500276E+03</pdfrwt>
<pdfrwt beam="2">  1        2 0.16698761E-01 0.87775810E+02</pdfrwt>
<totfact> 0.40551401E+02</totfact>
</mgrwt>
</event>
<event>
 5    1  0.6729100E-004  0.2933895E+03  0.7818608E-02  0.1088593E+00
         11   -1    0    0    0    0  0.00000000000E+00  0.00000000000E+00  0.99979308845E+03  0.99979308845E+03  0.51100000000E-03 0.  1.
          2   -1    0    0  501    0 -0.00000000000E+00 -0.00000000000E+00 -0.29080520120E+03  0.29080520121E+03  0.25500000000E-02 0.  1.
         11    1    1    2    0    0 -0.17055984201E+03 -0.25095909832E+03  0.80590507139E+03  0.86113536266E+03  0.51100000000E-03 0.  1.
         22    1    1    2    0    0 -0.12017619021E+02  0.22458998805E+02  0.82494153070E+02  0.86337217265E+02  0.00000000000E+00 0. -1.
          2    1    1    2  501    0  0.18257746103E+03  0.22850009951E+03 -0.17941133721E+03  0.34312570974E+03  0.25500000000E-02 0.  1.
<mgrwt>
<rscale>  0 0.29338954E+03</rscale>
<asrwt>0</asrwt>
<pdfrwt beam="1">  1       11 0.10000000E+01 0.25472138E+02</pdfrwt>
<pdfrwt beam="2">  1        2 0.44730003E-01 0.29338954E+03</pdfrwt>
<totfact> 0.14041753E+02</totfact>
</mgrwt>
</event>
<event>
 5    1  0.6729100E-004  0.2209422E+03  0.7818608E-02  0.1704804E+00
         11   -1    0    0    0    0  0.00000000000E+00  0.00000000000E+00  0.10001226416E+04  0.10001226416E+04  0.51100000000E-03 0. -1.
          2   -1    0    0  501    0 -0.00000000000E+00 -0.00000000000E+00 -0.30733064116E+03  0.30733064117E+03  0.25500000000E-02 0.  1.
         11    1    1    2    0    0 -0.17373202752E+02 -0.20965696231E+03  0.40236595208E+03  0.45404430336E+03  0.51100000000E-03 0. -1.
         22    1    1    2    0    0  0.93421071885E+01  0.23035413313E+03  0.54818758978E+03  0.59469314374E+03  0.00000000000E+00 0.  1.
          2    1    1    2  501    0  0.80310955636E+01 -0.20697170826E+02 -0.25776154143E+03  0.25871583566E+03  0.25500000000E-02 0.  1.
<mgrwt>
<rscale>  0 0.22200707E+02</rscale>
<asrwt>0</asrwt>
<pdfrwt beam="1">  1       11 0.10000000E+01 0.22094220E+03</pdfrwt>
<pdfrwt beam="2">  1        2 0.47287434E-01 0.22200707E+02</pdfrwt>
<totfact> 0.12953432E+02</totfact>
</mgrwt>
</event>
<event>
 5    1  0.6729100E-004  0.1376676E+03  0.7818608E-02  0.1216502E+00
         11   -1    0    0    0    0  0.00000000000E+00  0.00000000000E+00  0.10002028010E+04  0.10002028010E+04  0.51100000000E-03 0.  1.
         -2   -1    0    0    0  501 -0.00000000000E+00 -0.00000000000E+00 -0.26313987381E+02  0.26313987505E+02  0.25500000000E-02 0. -1.
         11    1    1    2    0    0  0.84753388052E+02 -0.99752149201E+02  0.76648616199E+03  0.77758257734E+03  0.51100000000E-03 0.  1.
         22    1    1    2    0    0 -0.26068019516E+02  0.56342215525E+01  0.43689665177E+02  0.51186648037E+02  0.00000000000E+00 0. -1.
         -2    1    1    2    0  501 -0.58685368536E+02  0.94117927648E+02  0.16371298646E+03  0.19774756313E+03  0.25500000000E-02 0. -1.
<mgrwt>
<rscale>  0 0.13766765E+03</rscale>
<asrwt>0</asrwt>
<pdfrwt beam="1">  1       11 0.10000000E+01 0.13089549E+03</pdfrwt>
<pdfrwt beam="2">  1       -2 0.40491266E-02 0.13766765E+03</pdfrwt>
<totfact> 0.20272106E+03</totfact>
</mgrwt>
</event>
<event>
 5    1  0.6729100E-004  0.1901599E+03  0.7818608E-02  0.1158317E+00
         11   -1    0    0    0    0  0.00000000000E+00  0.00000000000E+00  0.99989736162E+03  0.99989736162E+03  0.51100000000E-03 0.  1.
          2   -1    0    0  501    0 -0.00000000000E+00 -0.00000000000E+00 -0.32166652604E+03  0.32166652605E+03  0.25500000000E-02 0.  1.
         11    1    1    2    0    0  0.75410116101E+02  0.31345572620E+03  0.45368293148E+03  0.55656929508E+03  0.51100000000E-03 0.  1.
         22    1    1    2    0    0  0.59538076628E+01 -0.15042062104E+03  0.45035017916E+03  0.47484428493E+03  0.00000000000E+00 0. -1.
          2    1    1    2  501    0 -0.81363923764E+02 -0.16303510516E+03 -0.22580227507E+03  0.29015030767E+03  0.25500000000E-02 0.  1.
<mgrwt>
<rscale>  0 0.19015992E+03</rscale>
<asrwt>0</asrwt>
<pdfrwt beam="1">  1       11 0.10000000E+01 0.15053840E+03</pdfrwt>
<pdfrwt beam="2">  1        2 0.49482077E-01 0.19015992E+03</pdfrwt>
<totfact> 0.12586116E+02</totfact>
</mgrwt>
</event>
<event>
 5    1  0.6729100E-004  0.3743364E+03  0.7818608E-02  0.1053047E+00
         11   -1    0    0    0    0  0.00000000000E+00  0.00000000000E+00  0.10002078795E+04  0.10002078795E+04  0.51100000000E-03 0. -1.
          2   -1    0    0  501    0 -0.00000000000E+00 -0.00000000000E+00 -0.23288679267E+03  0.23288679269E+03  0.25500000000E-02 0. -1.
         11    1    1    2    0    0 -0.15902024146E+03  0.30967467622E+03  0.12240989868E+03  0.36901222958E+03  0.51100000000E-03 0. -1.
         22    1    1    2    0    0  0.16089561021E+02  0.87876338487E+02  0.31683710568E+03  0.32919124589E+03  0.00000000000E+00 0. -1.
          2    1    1    2  501    0  0.14293068044E+03 -0.39755101471E+03  0.32807408244E+03  0.53489119667E+03  0.25500000000E-02 0. -1.
<mgrwt>
<rscale>  0 0.37433636E+03</rscale>
<asrwt>0</asrwt>
<pdfrwt beam="1">  1       11 0.10000000E+01 0.89337141E+02</pdfrwt>
<pdfrwt beam="2">  1        2 0.35836184E-01 0.37433636E+03</pdfrwt>
<totfact> 0.17908452E+02</totfact>
</mgrwt>
</event>
<event>
 5    1  0.6729100E-004  0.1277999E+03  0.7818608E-02  0.1641344E+00
         11   -1    0    0    0    0  0.00000000000E+00  0.00000000000E+00  0.10003307442E+04  0.10003307442E+04  0.51100000000E-03 0. -1.
          2   -1    0    0  501    0 -0.00000000000E+00 -0.00000000000E+00 -0.83028865556E+02  0.83028865595E+02  0.25500000000E-02 0. -1.
         11    1    1    2    0    0 -0.79916131307E+02 -0.92497869191E+02  0.66894583439E+03  0.68002277403E+03  0.51100000000E-03 0. -1.
         22    1    1    2    0    0  0.10556265341E+03  0.98863063976E+02  0.30680875879E+03  0.33918872871E+03  0.00000000000E+00 0. -1.
          2    1    1    2  501    0 -0.25646522101E+02 -0.63651947852E+01 -0.58452714518E+02  0.64148107077E+02  0.25500000000E-02 0. -1.
<mgrwt>
<rscale>  0 0.26424606E+02</rscale>
<asrwt>0</asrwt>
<pdfrwt beam="1">  1       11 0.10000000E+01 0.12779994E+03</pdfrwt>
<pdfrwt beam="2">  1        2 0.12777896E-01 0.26424606E+02</pdfrwt>
<totfact> 0.51087950E+02</totfact>
</mgrwt>
</event>
<event>
 5    1  0.6729100E-004  0.1483191E+03  0.7818608E-02  0.1310957E+00
         11   -1    0    0    0    0  0.00000000000E+00  0.00000000000E+00  0.10000646697E+04  0.10000646697E+04  0.51100000000E-03 0. -1.
          2   -1    0    0  501    0 -0.00000000000E+00 -0.00000000000E+00 -0.33461231944E+02  0.33461232041E+02  0.25500000000E-02 0. -1.
         11    1    1    2    0    0 -0.12019453661E+03  0.10957836818E+03  0.60132810290E+03  0.62293629911E+03  0.51100000000E-03 0. -1.
         22    1    1    2    0    0  0.11370751875E+01 -0.50708699843E+02  0.66604664286E+02  0.83718853817E+02  0.00000000000E+00 0. -1.
          2    1    1    2  501    0  0.11905746142E+03 -0.58869668339E+02  0.29867067058E+03  0.32687074883E+03  0.25500000000E-02 0. -1.
<mgrwt>
<rscale>  0 0.86735003E+02</rscale>
<asrwt>0</asrwt>
<pdfrwt beam="1">  1       11 0.10000000E+01 0.14831913E+03</pdfrwt>
<pdfrwt beam="2">  1        2 0.51482146E-02 0.86735003E+02</pdfrwt>
<totfact> 0.16975288E+03</totfact>
</mgrwt>
</event>
<event>
 5    1  0.6729100E-004  0.3484213E+03  0.7818608E-02  0.1069146E+00
         11   -1    0    0    0    0  0.00000000000E+00  0.00000000000E+00  0.10004393451E+04  0.10004393451E+04  0.51100000000E-03 0. -1.
          2   -1    0    0  501    0 -0.00000000000E+00 -0.00000000000E+00 -0.36267269493E+03  0.36267269494E+03  0.25500000000E-02 0. -1.
         11    1    1    2    0    0 -0.25837443212E+03 -0.11607568323E+03  0.68373288521E+03  0.74008213715E+03  0.51100000000E-03 0. -1.
         22    1    1    2    0    0 -0.61255194774E+02  0.17313655918E+02  0.19864871347E+03  0.20859835314E+03  0.00000000000E+00 0. -1.
          2    1    1    2  501    0  0.31962962690E+03  0.98762027317E+02 -0.24461494848E+03  0.41443154978E+03  0.25500000000E-02 0. -1.
<mgrwt>
<rscale>  0 0.33454004E+03</rscale>
<asrwt>0</asrwt>
<pdfrwt beam="1">  1       11 0.10000000E+01 0.34842128E+03</pdfrwt>
<pdfrwt beam="2">  1        2 0.55820311E-01 0.33454004E+03</pdfrwt>
<totfact> 0.11030456E+02</totfact>
</mgrwt>
</event>
<event>
 5    1  0.6729100E-004  0.6741656E+02  0.7818608E-02  0.1369105E+00
         11   -1    0    0    0    0  0.00000000000E+00  0.00000000000E+00  0.10001426065E+04  0.10001426065E+04  0.51100000000E-03 0.  1.
          2   -1    0    0  501    0 -0.00000000000E+00 -0.00000000000E+00 -0.10484680062E+02  0.10484680372E+02  0.25500000000E-02 0.  1.
         11    1    1    2    0    0 -0.30043119450E+02 -0.19478993165E+02  0.59766003660E+02  0.69670620744E+02  0.51100000000E-03 0.  1.
         22    1    1    2    0    0 -0.60411011424E+01 -0.57887406341E+02  0.34717236551E+03  0.35201718437E+03  0.00000000000E+00 0.  1.
          2    1    1    2  501    0  0.36084220592E+02  0.77366399507E+02  0.58271955728E+03  0.58893948177E+03  0.25500000000E-02 0.  1.
<mgrwt>
<rscale>  0 0.67416563E+02</rscale>
<asrwt>0</asrwt>
<pdfrwt beam="1">  1       11 0.10000000E+01 0.35805328E+02</pdfrwt>
<pdfrwt beam="2">  1        2 0.16132577E-02 0.67416563E+02</pdfrwt>
<totfact> 0.76200163E+03</totfact>
</mgrwt>
</event>
<event>
 5    1  0.6729100E-004  0.1085127E+03  0.7818608E-02  0.1289149E+00
         11   -1    0    0    0    0  0.00000000000E+00  0.00000000000E+00  0.10002116329E+04  0.10002116329E+04  0.51100000000E-03 0.  1.
          2   -1    0    0  501    0 -0.00000000000E+00 -0.00000000000E+00 -0.20297644147E+03  0.20297644149E+03  0.25500000000E-02 0. -1.
         11    1    1    2    0    0 -0.99008545776E+02 -0.94085862620E+01  0.57613981581E+03  0.58466084271E+03  0.51100000000E-03 0.  1.
         22    1    1    2    0    0  0.12585672873E+03  0.10147985946E+03  0.39117652819E+03  0.42326959996E+03  0.00000000000E+00 0.  1.
          2    1    1    2  501    0 -0.26848182954E+02 -0.92071273202E+02 -0.17008115257E+03  0.19525763172E+03  0.25500000000E-02 0. -1.
<mgrwt>
<rscale>  0 0.95905914E+02</rscale>
<asrwt>0</asrwt>
<pdfrwt beam="1">  1       11 0.10000000E+01 0.10851266E+03</pdfrwt>
<pdfrwt beam="2">  1        2 0.31233753E-01 0.95905914E+02</pdfrwt>
<totfact> 0.20404951E+02</totfact>
</mgrwt>
</event>
<event>
 5    1  0.6729100E-004  0.1559627E+03  0.7818608E-02  0.1480753E+00
         11   -1    0    0    0    0  0.00000000000E+00  0.00000000000E+00  0.10000952883E+04  0.10000952883E+04  0.51100000000E-03 0.  1.
         -2   -1    0    0    0  501 -0.00000000000E+00 -0.00000000000E+00 -0.57660740096E+02  0.57660740152E+02  0.25500000000E-02 0.  1.
         11    1    1    2    0    0 -0.15792686006E+03 -0.51295853126E+02  0.72557074778E+03  0.74432860197E+03  0.51100000000E-03 0.  1.
         22    1    1    2    0    0  0.11840120005E+03  0.70602766431E+02  0.22944679459E+03  0.26767410475E+03  0.00000000000E+00 0.  1.
         -2    1    1    2    0  501  0.39525660006E+02 -0.19306913305E+02 -0.12582994177E+02  0.45753321729E+02  0.25500000000E-02 0.  1.
<mgrwt>
<rscale>  0 0.43989029E+02</rscale>
<asrwt>0</asrwt>
<pdfrwt beam="1">  1       11 0.10000000E+01 0.15596273E+03</pdfrwt>
<pdfrwt beam="2">  1       -2 0.88717281E-02 0.43989029E+02</pdfrwt>
<totfact> 0.56418724E+02</totfact>
</mgrwt>
</event>
<event>
 5    1  0.6729100E-004  0.2139052E+03  0.7818608E-02  0.1139792E+00
         11   -1    0    0    0    0  0.00000000000E+00  0.00000000000E+00  0.10001260644E+04  0.10001260644E+04  0.51100000000E-03 0. -1.
          2   -1    0    0  501    0 -0.00000000000E+00 -0.00000000000E+00 -0.53460346816E+02  0.53460346877E+02  0.25500000000E-02 0.  1.
         11    1    1    2    0    0 -0.10430506119E+03 -0.17447380914E+03  0.64084160759E+03  0.67230842764E+03  0.51100000000E-03 0. -1.
         22    1    1    2    0    0  0.24035058040E+00 -0.10520964903E+02  0.38627103615E+02  0.40035004741E+02  0.00000000000E+00 0. -1.
          2    1    1    2  501    0  0.10406471061E+03  0.18499477404E+03  0.26719700639E+03  0.34124297890E+03  0.25500000000E-02 0.  1.
<mgrwt>
<rscale>  0 0.21225581E+03</rscale>
<asrwt>0</asrwt>
<pdfrwt beam="1">  1       11 0.10000000E+01 0.21390520E+03</pdfrwt>
<pdfrwt beam="2">  1        2 0.82257053E-02 0.21225581E+03</pdfrwt>
<totfact> 0.99542150E+02</totfact>
</mgrwt>
</event>
<event>
 5    1  0.6729100E-004  0.6174749E+02  0.7818608E-02  0.1436666E+00
         11   -1    0    0    0    0  0.00000000000E+00  0.00000000000E+00  0.10001874845E+04  0.10001874845E+04  0.51100000000E-03 0. -1.
          2   -1    0    0  501    0 -0.00000000000E+00 -0.00000000000E+00 -0.24085893271E+02  0.24085893406E+02  0.25500000000E-02 0. -1.
         11    1    1    2    0    0  0.99755205023E+02 -0.95539120153E+01  0.11511391350E+03  0.15262238121E+03  0.51100000000E-03 0. -1.
         22    1    1    2    0    0 -0.40551966316E+02  0.14878454729E+02  0.10795722232E+03  0.11627808151E+03  0.00000000000E+00 0. -1.
          2    1    1    2  501    0 -0.59203238708E+02 -0.53245427137E+01  0.75303045541E+03  0.75537291520E+03  0.25500000000E-02 0. -1.
<mgrwt>
<rscale>  0 0.51644919E+02</rscale>
<asrwt>0</asrwt>
<pdfrwt beam="1">  1       11 0.10000000E+01 0.61747495E+02</pdfrwt>
<pdfrwt beam="2">  1        2 0.37062167E-02 0.51644919E+02</pdfrwt>
<totfact> 0.24548242E+03</totfact>
</mgrwt>
</event>
<event>
 5    1  0.6729100E-004  0.3488655E+03  0.7818608E-02  0.1065553E+00
         11   -1    0    0    0    0  0.00000000000E+00  0.00000000000E+00  0.10003784947E+04  0.10003784947E+04  0.51100000000E-03 0.  1.
          2   -1    0    0  501    0 -0.00000000000E+00 -0.00000000000E+00 -0.13481439349E+03  0.13481439352E+03  0.25500000000E-02 0.  1.
         11    1    1    2    0    0  0.31010268986E+03  0.98697331978E+02  0.55524486775E+03  0.64358504082E+03  0.51100000000E-03 0.  1.
         22    1    1    2    0    0  0.17865146064E+02  0.15039544150E+01  0.71493655923E+02  0.73707314155E+02  0.00000000000E+00 0.  1.
          2    1    1    2  501    0 -0.32796783593E+03 -0.10020128639E+03  0.23882557753E+03  0.41790053325E+03  0.25500000000E-02 0.  1.
<mgrwt>
<rscale>  0 0.34293323E+03</rscale>
<asrwt>0</asrwt>
<pdfrwt beam="1">  1       11 0.10000000E+01 0.34886551E+03</pdfrwt>
<pdfrwt beam="2">  1        2 0.20748526E-01 0.34293323E+03</pdfrwt>
<totfact> 0.33058294E+02</totfact>
</mgrwt>
</event>
<event>
 5    1  0.6729100E-004  0.1638808E+03  0.7818608E-02  0.1184384E+00
         11   -1    0    0    0    0  0.00000000000E+00  0.00000000000E+00  0.10003424616E+04  0.10003424616E+04  0.51100000000E-03 0.  1.
         -2   -1    0    0    0  501 -0.00000000000E+00 -0.00000000000E+00 -0.36151786549E+03  0.36151786549E+03  0.25500000000E-02 0. -1.
         11    1    1    2    0    0  0.12984894844E+03 -0.15571010207E+03  0.85779015562E+03  0.88142517344E+03  0.51100000000E-03 0.  1.
         22    1    1    2    0    0 -0.18079642776E+02  0.37023781047E+02  0.10771909459E+03  0.11533012263E+03  0.00000000000E+00 0. -1.
         -2    1    1    2    0  501 -0.11176930567E+03  0.11868632103E+03 -0.32668465407E+03  0.36510503105E+03  0.25500000000E-02 0. -1.
<mgrwt>
<rscale>  0 0.16388078E+03</rscale>
<asrwt>0</asrwt>
<pdfrwt beam="1">  1       11 0.10000000E+01 0.41202352E+02</pdfrwt>
<pdfrwt beam="2">  1       -2 0.55637179E-01 0.16388078E+03</pdfrwt>
<totfact> 0.25152080E+01</totfact>
</mgrwt>
</event>
<event>
 5    1  0.6729100E-004  0.2833800E+03  0.7818608E-02  0.1093857E+00
         11   -1    0    0    0    0  0.00000000000E+00  0.00000000000E+00  0.10001061227E+04  0.10001061227E+04  0.51100000000E-03 0.  1.
          2   -1    0    0  501    0 -0.00000000000E+00 -0.00000000000E+00 -0.31211281986E+03  0.31211281987E+03  0.25500000000E-02 0.  1.
         11    1    1    2    0    0  0.24730517654E+03  0.17459676300E+02  0.52047272968E+03  0.57650373198E+03  0.51100000000E-03 0.  1.
         22    1    1    2    0    0  0.17547997264E+02 -0.14174718462E+03  0.35879037130E+03  0.38617447753E+03  0.00000000000E+00 0.  1.
          2    1    1    2  501    0 -0.26485317380E+03  0.12428750832E+03 -0.19126979813E+03  0.34954073308E+03  0.25500000000E-02 0.  1.
<mgrwt>
<rscale>  0 0.28338000E+03</rscale>
<asrwt>0</asrwt>
<pdfrwt beam="1">  1       11 0.10000000E+01 0.14282926E+03</pdfrwt>
<pdfrwt beam="2">  1        2 0.48022451E-01 0.28338000E+03</pdfrwt>
<totfact> 0.13000541E+02</totfact>
</mgrwt>
</event>
<event>
 5    1  0.6729100E-004  0.1172970E+03  0.7818608E-02  0.1332861E+00
         11   -1    0    0    0    0  0.00000000000E+00  0.00000000000E+00  0.99993646492E+03  0.99993646492E+03  0.51100000000E-03 0. -1.
          2   -1    0    0  501    0 -0.00000000000E+00 -0.00000000000E+00 -0.57306924377E+02  0.57306924433E+02  0.25500000000E-02 0.  1.
         11    1    1    2    0    0 -0.78127227667E+02  0.13166704454E+03  0.35881756560E+03  0.39011552098E+03  0.51100000000E-03 0. -1.
         22    1    1    2    0    0  0.95282209790E+02 -0.54887503492E+02  0.57786134529E+03  0.58823045818E+03  0.00000000000E+00 0. -1.
          2    1    1    2  501    0 -0.17154982123E+02 -0.76779541053E+02  0.59506296427E+01  0.78897410195E+02  0.25500000000E-02 0.  1.
<mgrwt>
<rscale>  0 0.78672685E+02</rscale>
<asrwt>0</asrwt>
<pdfrwt beam="1">  1       11 0.10000000E+01 0.11729697E+03</pdfrwt>
<pdfrwt beam="2">  1        2 0.88158895E-02 0.78672685E+02</pdfrwt>
<totfact> 0.85742331E+02</totfact>
</mgrwt>
</event>
<event>
 5    1  0.6729100E-004  0.1851648E+03  0.7818608E-02  0.1578678E+00
         11   -1    0    0    0    0  0.00000000000E+00  0.00000000000E+00  0.10005531211E+04  0.10005531211E+04  0.51100000000E-03 0. -1.
          2   -1    0    0  501    0 -0.00000000000E+00 -0.00000000000E+00 -0.44271211646E+03  0.44271211646E+03  0.25500000000E-02 0.  1.
         11    1    1    2    0    0 -0.32235817487E+02 -0.16671266021E+03  0.39953173326E+03  0.43411733999E+03  0.51100000000E-03 0. -1.
         22    1    1    2    0    0  0.29376777733E+02  0.19841604861E+03  0.56585904495E+03  0.60035687900E+03  0.00000000000E+00 0. -1.
          2    1    1    2  501    0  0.28590397541E+01 -0.31703388401E+02 -0.40754977355E+03  0.40879101858E+03  0.25500000000E-02 0.  1.
<mgrwt>
<rscale>  0 0.31832043E+02</rscale>
<asrwt>0</asrwt>
<pdfrwt beam="1">  1       11 0.10000000E+01 0.18516483E+03</pdfrwt>
<pdfrwt beam="2">  1        2 0.68147227E-01 0.31832043E+02</pdfrwt>
<totfact> 0.90315422E+01</totfact>
</mgrwt>
</event>
<event>
 5    1  0.6729100E-004  0.2843934E+03  0.7818608E-02  0.1093313E+00
         11   -1    0    0    0    0  0.00000000000E+00  0.00000000000E+00  0.10001895109E+04  0.10001895109E+04  0.51100000000E-03 0. -1.
          2   -1    0    0  501    0 -0.00000000000E+00 -0.00000000000E+00 -0.24193180493E+03  0.24193180494E+03  0.25500000000E-02 0. -1.
         11    1    1    2    0    0 -0.12699741455E+03  0.17117735624E+03  0.23752374528E+03  0.31913564540E+03  0.51100000000E-03 0. -1.
         22    1    1    2    0    0 -0.10573513754E+03  0.46865832162E+02  0.58613186693E+03  0.59743358707E+03  0.00000000000E+00 0. -1.
          2    1    1    2  501    0  0.23273255210E+03 -0.21804318840E+03 -0.65397906265E+02  0.32555208334E+03  0.25500000000E-02 0. -1.
<mgrwt>
<rscale>  0 0.28439340E+03</rscale>
<asrwt>0</asrwt>
<pdfrwt beam="1">  1       11 0.10000000E+01 0.11565607E+03</pdfrwt>
<pdfrwt beam="2">  1        2 0.37227330E-01 0.28439340E+03</pdfrwt>
<totfact> 0.17140529E+02</totfact>
</mgrwt>
</event>
<event>
 5    1  0.6729100E-004  0.3034594E+03  0.7818608E-02  0.1090755E+00
         11   -1    0    0    0    0  0.00000000000E+00  0.00000000000E+00  0.10003368491E+04  0.10003368491E+04  0.51100000000E-03 0. -1.
          2   -1    0    0  501    0 -0.00000000000E+00 -0.00000000000E+00 -0.51068821935E+03  0.51068821936E+03  0.25500000000E-02 0.  1.
         11    1    1    2    0    0 -0.26017831221E+03 -0.22513412294E+02  0.82455549799E+03  0.86492275790E+03  0.51100000000E-03 0. -1.
         22    1    1    2    0    0 -0.28948071262E+02  0.30042121162E+02  0.10876062631E+03  0.11648774059E+03  0.00000000000E+00 0. -1.
          2    1    1    2  501    0  0.28912638347E+03 -0.75287088685E+01 -0.44366749450E+03  0.52961457000E+03  0.25500000000E-02 0.  1.
<mgrwt>
<rscale>  0 0.28922439E+03</rscale>
<asrwt>0</asrwt>
<pdfrwt beam="1">  1       11 0.10000000E+01 0.30345935E+03</pdfrwt>
<pdfrwt beam="2">  1        2 0.78593881E-01 0.28922439E+03</pdfrwt>
<totfact> 0.75596628E+01</totfact>
</mgrwt>
</event>
<event>
 5    1  0.6729100E-004  0.1582776E+03  0.7818608E-02  0.1190655E+00
         11   -1    0    0    0    0  0.00000000000E+00  0.00000000000E+00  0.99986350084E+03  0.99986350084E+03  0.51100000000E-03 0.  1.
          2   -1    0    0  501    0 -0.00000000000E+00 -0.00000000000E+00 -0.90322557028E+03  0.90322557028E+03  0.25500000000E-02 0.  1.
         11    1    1    2    0    0 -0.18363228186E+03  0.63874622430E+02  0.69696094412E+03  0.72357124042E+03  0.51100000000E-03 0.  1.
         22    1    1    2    0    0  0.80998446551E+02  0.56488111194E+02  0.27386981533E+03  0.29112940559E+03  0.00000000000E+00 0.  1.
          2    1    1    2  501    0  0.10263383531E+03 -0.12036273362E+03 -0.87419282889E+03  0.88838842511E+03  0.25500000000E-02 0.  1.
<mgrwt>
<rscale>  0 0.15827763E+03</rscale>
<asrwt>0</asrwt>
<pdfrwt beam="1">  1       11 0.10000000E+01 0.98750469E+02</pdfrwt>
<pdfrwt beam="2">  1        2 0.13893881E+00 0.15827763E+03</pdfrwt>
<totfact> 0.38686050E+01</totfact>
</mgrwt>
</event>
<event>
 5    1  0.6729100E-004  0.1875626E+03  0.7818608E-02  0.1160678E+00
         11   -1    0    0    0    0  0.00000000000E+00  0.00000000000E+00  0.10003306645E+04  0.10003306645E+04  0.51100000000E-03 0. -1.
          2   -1    0    0  501    0 -0.00000000000E+00 -0.00000000000E+00 -0.34038306690E+03  0.34038306691E+03  0.25500000000E-02 0. -1.
         11    1    1    2    0    0  0.17182075694E+03 -0.97375136664E+02  0.94148427425E+03  0.96197553421E+03  0.51100000000E-03 0. -1.
         22    1    1    2    0    0 -0.14365799455E+02 -0.40457501140E+01  0.19279708459E+02  0.24381374986E+02  0.00000000000E+00 0.  1.
          2    1    1    2  501    0 -0.15745495748E+03  0.10142088678E+03 -0.30081638510E+03  0.35435682223E+03  0.25500000000E-02 0. -1.
<mgrwt>
<rscale>  0 0.18756264E+03</rscale>
<asrwt>0</asrwt>
<pdfrwt beam="1">  1       11 0.10000000E+01 0.14924620E+02</pdfrwt>
<pdfrwt beam="2">  1        2 0.52383940E-01 0.18756264E+03</pdfrwt>
<totfact> 0.11840085E+02</totfact>
</mgrwt>
</event>
<event>
 5    1  0.6729100E-004  0.1277862E+03  0.7818608E-02  0.1596712E+00
         11   -1    0    0    0    0  0.00000000000E+00  0.00000000000E+00  0.10002896391E+04  0.10002896391E+04  0.51100000000E-03 0. -1.
         -2   -1    0    0    0  501 -0.00000000000E+00 -0.00000000000E+00 -0.54312723283E+02  0.54312723343E+02  0.25500000000E-02 0.  1.
         11    1    1    2    0    0  0.79512741051E+02 -0.92752438009E+02  0.49339901546E+03  0.50829900570E+03  0.51100000000E-03 0. -1.
         22    1    1    2    0    0 -0.10809653222E+03  0.83240373239E+02  0.48394758241E+03  0.50281117981E+03  0.00000000000E+00 0.  1.
         -2    1    1    2    0  501  0.28583791166E+02  0.95120647705E+01 -0.31369682067E+02  0.43492176918E+02  0.25500000000E-02 0.  1.
<mgrwt>
<rscale>  0 0.30124948E+02</rscale>
<asrwt>0</asrwt>
<pdfrwt beam="1">  1       11 0.10000000E+01 0.12778621E+03</pdfrwt>
<pdfrwt beam="2">  1       -2 0.83582235E-02 0.30124948E+02</pdfrwt>
<totfact> 0.59425165E+02</totfact>
</mgrwt>
</event>
<event>
 5    1  0.6729100E-004  0.1315461E+03  0.7818608E-02  0.1225179E+00
         11   -1    0    0    0    0  0.00000000000E+00  0.00000000000E+00  0.10003964772E+04  0.10003964772E+04  0.51100000000E-03 0. -1.
          2   -1    0    0  501    0 -0.00000000000E+00 -0.00000000000E+00 -0.84975511499E+02  0.84975511537E+02  0.25500000000E-02 0. -1.
         11    1    1    2    0    0  0.10995523059E+03 -0.28128554549E+02  0.59411998134E+03  0.60486355531E+03  0.51100000000E-03 0. -1.
         22    1    1    2    0    0  0.18257137670E+02  0.70482972474E+02  0.33681347138E+03  0.34459321959E+03  0.00000000000E+00 0. -1.
          2    1    1    2  501    0 -0.12821236826E+03 -0.42354417925E+02 -0.15512487014E+02  0.13591521384E+03  0.25500000000E-02 0. -1.
<mgrwt>
<rscale>  0 0.13154611E+03</rscale>
<asrwt>0</asrwt>
<pdfrwt beam="1">  1       11 0.10000000E+01 0.72809151E+02</pdfrwt>
<pdfrwt beam="2">  1        2 0.13078338E-01 0.13154611E+03</pdfrwt>
<totfact> 0.54915874E+02</totfact>
</mgrwt>
</event>
<event>
 5    1  0.6729100E-004  0.1386595E+03  0.7818608E-02  0.1215144E+00
         11   -1    0    0    0    0  0.00000000000E+00  0.00000000000E+00  0.99989992204E+03  0.99989992204E+03  0.51100000000E-03 0.  1.
          2   -1    0    0  501    0 -0.00000000000E+00 -0.00000000000E+00 -0.23650450577E+02  0.23650450715E+02  0.25500000000E-02 0.  1.
         11    1    1    2    0    0  0.79819221092E+02  0.11055639656E+03  0.61406516342E+03  0.62902293265E+03  0.51100000000E-03 0.  1.
         22    1    1    2    0    0  0.13003665936E+02 -0.56514094632E+01  0.56918228161E+02  0.58657637641E+02  0.00000000000E+00 0. -1.
          2    1    1    2  501    0 -0.92822887028E+02 -0.10490498709E+03  0.30526607988E+03  0.33586980246E+03  0.25500000000E-02 0.  1.
<mgrwt>
<rscale>  0 0.13865949E+03</rscale>
<asrwt>0</asrwt>
<pdfrwt beam="1">  1       11 0.10000000E+01 0.14178637E+02</pdfrwt>
<pdfrwt beam="2">  1        2 0.36381666E-02 0.13865949E+03</pdfrwt>
<totfact> 0.27929141E+03</totfact>
</mgrwt>
</event>
<event>
 5    1  0.6729100E-004  0.2839536E+03  0.7818608E-02  0.1093549E+00
         11   -1    0    0    0    0  0.00000000000E+00  0.00000000000E+00  0.10001758185E+04  0.10001758185E+04  0.51100000000E-03 0.  1.
          2   -1    0    0  501    0 -0.00000000000E+00 -0.00000000000E+00 -0.17819603052E+03  0.17819603054E+03  0.25500000000E-02 0.  1.
         11    1    1    2    0    0  0.27986493677E+03  0.10830038435E+03  0.57229344305E+03  0.64619899492E+03  0.51100000000E-03 0.  1.
         22    1    1    2    0    0 -0.24138898987E+01 -0.61869586204E+02  0.24302111531E+03  0.25078463878E+03  0.00000000000E+00 0. -1.
          2    1    1    2  501    0 -0.27745104687E+03 -0.46430798142E+02  0.66652295985E+01  0.28138821531E+03  0.25500000000E-02 0.  1.
<mgrwt>
<rscale>  0 0.28395364E+03</rscale>
<asrwt>0</asrwt>
<pdfrwt beam="1">  1       11 0.10000000E+01 0.61916658E+02</pdfrwt>
<pdfrwt beam="2">  1        2 0.27419593E-01 0.28395364E+03</pdfrwt>
<totfact> 0.24004502E+02</totfact>
</mgrwt>
</event>
<event>
 5    1  0.6729100E-004  0.1707161E+03  0.7818608E-02  0.1177103E+00
         11   -1    0    0    0    0  0.00000000000E+00  0.00000000000E+00  0.10002076943E+04  0.10002076943E+04  0.51100000000E-03 0. -1.
          2   -1    0    0  501    0 -0.00000000000E+00 -0.00000000000E+00 -0.98856921964E+02  0.98856921997E+02  0.25500000000E-02 0. -1.
         11    1    1    2    0    0 -0.20607381221E+03 -0.44225724920E+02  0.79895296888E+03  0.82628577218E+03  0.51100000000E-03 0. -1.
         22    1    1    2    0    0  0.52205472952E+02 -0.19717532859E+02  0.89735613988E+02  0.10567247951E+03  0.00000000000E+00 0.  1.
          2    1    1    2  501    0  0.15386833926E+03  0.63943257778E+02  0.12662189463E+02  0.16710636460E+03  0.25500000000E-02 0. -1.
<mgrwt>
<rscale>  0 0.17071612E+03</rscale>
<asrwt>0</asrwt>
<pdfrwt beam="1">  1       11 0.10000000E+01 0.55804951E+02</pdfrwt>
<pdfrwt beam="2">  1        2 0.15211916E-01 0.17071612E+03</pdfrwt>
<totfact> 0.46449036E+02</totfact>
</mgrwt>
</event>
<event>
 5    1  0.6729100E-004  0.3011567E+03  0.7818608E-02  0.1084664E+00
         11   -1    0    0    0    0  0.00000000000E+00  0.00000000000E+00  0.10000015603E+04  0.10000015603E+04  0.51100000000E-03 0.  1.
          2   -1    0    0  501    0 -0.00000000000E+00 -0.00000000000E+00 -0.11603906318E+03  0.11603906321E+03  0.25500000000E-02 0.  1.
         11    1    1    2    0    0 -0.14740800748E+03 -0.24371018632E+03  0.32800813854E+03  0.43441122745E+03  0.51100000000E-03 0.  1.
         22    1    1    2    0    0 -0.18514152939E+02 -0.28618761163E+02  0.20344687175E+03  0.20628242042E+03  0.00000000000E+00 0.  1.
          2    1    1    2  501    0  0.16592216042E+03  0.27232894748E+03  0.35250748680E+03  0.47534697560E+03  0.25500000000E-02 0.  1.
<mgrwt>
<rscale>  0 0.30115669E+03</rscale>
<asrwt>0</asrwt>
<pdfrwt beam="1">  1       11 0.10000000E+01 0.34085295E+02</pdfrwt>
<pdfrwt beam="2">  1        2 0.17852191E-01 0.30115669E+03</pdfrwt>
<totfact> 0.39238159E+02</totfact>
</mgrwt>
</event>
<event>
 5    1  0.6729100E-004  0.2144687E+03  0.7818608E-02  0.1224794E+00
         11   -1    0    0    0    0  0.00000000000E+00  0.00000000000E+00  0.10005073720E+04  0.10005073720E+04  0.51100000000E-03 0. -1.
          2   -1    0    0  501    0 -0.00000000000E+00 -0.00000000000E+00 -0.13460807559E+04  0.13460807559E+04  0.25500000000E-02 0. -1.
         11    1    1    2    0    0 -0.27959159850E+03  0.14487080130E+03  0.28168152773E+03  0.42249673855E+03  0.51100000000E-03 0. -1.
         22    1    1    2    0    0  0.18818210438E+03 -0.49905955100E+02  0.63028196951E+03  0.65966542266E+03  0.00000000000E+00 0. -1.
          2    1    1    2  501    0  0.91409494117E+02 -0.94964846201E+02 -0.12575368811E+04  0.12644259666E+04  0.25500000000E-02 0. -1.
<mgrwt>
<rscale>  0 0.13181054E+03</rscale>
<asrwt>0</asrwt>
<pdfrwt beam="1">  1       11 0.10000000E+01 0.21446866E+03</pdfrwt>
<pdfrwt beam="2">  1        2 0.20719441E+00 0.13181054E+03</pdfrwt>
<totfact> 0.21759032E+01</totfact>
</mgrwt>
</event>
<event>
 5    1  0.6729100E-004  0.1290774E+03  0.7818608E-02  0.1228831E+00
         11   -1    0    0    0    0  0.00000000000E+00  0.00000000000E+00  0.10002001396E+04  0.10002001396E+04  0.51100000000E-03 0.  1.
          2   -1    0    0  501    0 -0.00000000000E+00 -0.00000000000E+00 -0.42127901701E+02  0.42127901778E+02  0.25500000000E-02 0.  1.
         11    1    1    2    0    0  0.11883996857E+03 -0.53825311571E+02  0.56511969436E+03  0.57998307841E+03  0.51100000000E-03 0.  1.
         22    1    1    2    0    0 -0.46885946298E+02 -0.58176599466E+02  0.27337483098E+03  0.28340184702E+03  0.00000000000E+00 0.  1.
          2    1    1    2  501    0 -0.71954022271E+02  0.11200191104E+03  0.11957771259E+03  0.17894311597E+03  0.25500000000E-02 0.  1.
<mgrwt>
<rscale>  0 0.12907743E+03</rscale>
<asrwt>0</asrwt>
<pdfrwt beam="1">  1       11 0.10000000E+01 0.74718195E+02</pdfrwt>
<pdfrwt beam="2">  1        2 0.64825126E-02 0.12907743E+03</pdfrwt>
<totfact> 0.13052246E+03</totfact>
</mgrwt>
</event>
<event>
 5    1  0.6729100E-004  0.3402843E+03  0.7818608E-02  0.1066675E+00
         11   -1    0    0    0    0  0.00000000000E+00  0.00000000000E+00  0.10001543746E+04  0.10001543746E+04  0.51100000000E-03 0. -1.
          2   -1    0    0  501    0 -0.00000000000E+00 -0.00000000000E+00 -0.24987141830E+03  0.24987141831E+03  0.25500000000E-02 0. -1.
         11    1    1    2    0    0  0.45024255314E+02 -0.21893439732E+03  0.15853935279E+02  0.22407766770E+03  0.51100000000E-03 0. -1.
         22    1    1    2    0    0 -0.99282506942E+02 -0.22313171071E+03  0.40126360554E+03  0.46974169246E+03  0.00000000000E+00 0. -1.
          2    1    1    2  501    0  0.54258251628E+02  0.44206610804E+03  0.33316541549E+03  0.55620643275E+03  0.25500000000E-02 0. -1.
<mgrwt>
<rscale>  0 0.34028433E+03</rscale>
<asrwt>0</asrwt>
<pdfrwt beam="1">  1       11 0.10000000E+01 0.22351623E+03</pdfrwt>
<pdfrwt beam="2">  1        2 0.38447690E-01 0.34028433E+03</pdfrwt>
<totfact> 0.16567237E+02</totfact>
</mgrwt>
</event>
<event>
 5    1  0.6729100E-004  0.1684472E+03  0.7818608E-02  0.1179477E+00
         11   -1    0    0    0    0  0.00000000000E+00  0.00000000000E+00  0.10001738741E+04  0.10001738741E+04  0.51100000000E-03 0.  1.
          2   -1    0    0  501    0 -0.00000000000E+00 -0.00000000000E+00 -0.36089621366E+02  0.36089621456E+02  0.25500000000E-02 0.  1.
         11    1    1    2    0    0  0.16385199796E+03 -0.30870842992E+02  0.44090950877E+03  0.47138273315E+03  0.51100000000E-03 0.  1.
         22    1    1    2    0    0  0.77822840161E+01  0.35310973975E+02  0.14692047452E+03  0.15130450972E+03  0.00000000000E+00 0.  1.
          2    1    1    2  501    0 -0.17163428197E+03 -0.44401309824E+01  0.37625426943E+03  0.41357625268E+03  0.25500000000E-02 0.  1.
<mgrwt>
<rscale>  0 0.16844716E+03</rscale>
<asrwt>0</asrwt>
<pdfrwt beam="1">  1       11 0.10000000E+01 0.36158385E+02</pdfrwt>
<pdfrwt beam="2">  1        2 0.55532147E-02 0.16844716E+03</pdfrwt>
<totfact> 0.16253072E+03</totfact>
</mgrwt>
</event>
<event>
 5    1  0.6729100E-004  0.3585822E+03  0.7818608E-02  0.1066157E+00
         11   -1    0    0    0    0  0.00000000000E+00  0.00000000000E+00  0.10003280326E+04  0.10003280326E+04  0.51100000000E-03 0. -1.
          2   -1    0    0  501    0 -0.00000000000E+00 -0.00000000000E+00 -0.34038217132E+03  0.34038217133E+03  0.25500000000E-02 0. -1.
         11    1    1    2    0    0  0.17239492222E+03 -0.18035155548E+03  0.49644722157E+03  0.55561365765E+03  0.51100000000E-03 0. -1.
         22    1    1    2    0    0  0.43118700394E+02 -0.84563197381E+02  0.37270678935E+03  0.38460435190E+03  0.00000000000E+00 0. -1.
          2    1    1    2  501    0 -0.21551362261E+03  0.26491475286E+03 -0.20920814969E+03  0.40049219433E+03  0.25500000000E-02 0. -1.
<mgrwt>
<rscale>  0 0.34150541E+03</rscale>
<asrwt>0</asrwt>
<pdfrwt beam="1">  1       11 0.10000000E+01 0.35858222E+03</pdfrwt>
<pdfrwt beam="2">  1        2 0.52383664E-01 0.34150541E+03</pdfrwt>
<totfact> 0.11823330E+02</totfact>
</mgrwt>
</event>
<event>
 5    1  0.6729100E-004  0.2674139E+03  0.7818608E-02  0.1102769E+00
         11   -1    0    0    0    0  0.00000000000E+00  0.00000000000E+00  0.10000955849E+04  0.10000955849E+04  0.51100000000E-03 0.  1.
          2   -1    0    0  501    0 -0.00000000000E+00 -0.00000000000E+00 -0.18115404417E+03  0.18115404418E+03  0.25500000000E-02 0.  1.
         11    1    1    2    0    0 -0.22981356530E+03  0.17423103149E+03  0.80430040989E+03  0.85444126567E+03  0.51100000000E-03 0.  1.
         22    1    1    2    0    0  0.24241512807E+02 -0.77280607647E+01  0.53675702069E+02  0.59400798471E+02  0.00000000000E+00 0. -1.
          2    1    1    2  501    0  0.20557205249E+03 -0.16650297072E+03 -0.39034571238E+02  0.26740756493E+03  0.25500000000E-02 0.  1.
<mgrwt>
<rscale>  0 0.26741386E+03</rscale>
<asrwt>0</asrwt>
<pdfrwt beam="1">  1       11 0.10000000E+01 0.25443543E+02</pdfrwt>
<pdfrwt beam="2">  1        2 0.27872516E-01 0.26741386E+03</pdfrwt>
<totfact> 0.23546735E+02</totfact>
</mgrwt>
</event>
<event>
 5    1  0.6729100E-004  0.1569019E+03  0.7818608E-02  0.1192240E+00
         11   -1    0    0    0    0  0.00000000000E+00  0.00000000000E+00  0.10001281405E+04  0.10001281405E+04  0.51100000000E-03 0. -1.
          2   -1    0    0  501    0 -0.00000000000E+00 -0.00000000000E+00 -0.24167479998E+03  0.24167480000E+03  0.25500000000E-02 0. -1.
         11    1    1    2    0    0  0.54230562556E+02 -0.66503580204E+02  0.33196126010E+03  0.34287309358E+03  0.51100000000E-03 0. -1.
         22    1    1    2    0    0  0.10491939679E+03  0.64672386887E+02  0.62922622461E+03  0.64118346765E+03  0.00000000000E+00 0. -1.
          2    1    1    2  501    0 -0.15914995935E+03  0.18311933166E+01 -0.20273414416E+03  0.25774637930E+03  0.25500000000E-02 0. -1.
<mgrwt>
<rscale>  0 0.15690189E+03</rscale>
<asrwt>0</asrwt>
<pdfrwt beam="1">  1       11 0.10000000E+01 0.85811888E+02</pdfrwt>
<pdfrwt beam="2">  1        2 0.37185502E-01 0.15690189E+03</pdfrwt>
<totfact> 0.17065386E+02</totfact>
</mgrwt>
</event>
<event>
 5    1  0.6729100E-004  0.3934172E+03  0.7818608E-02  0.1046083E+00
         11   -1    0    0    0    0  0.00000000000E+00  0.00000000000E+00  0.10011004194E+04  0.10011004194E+04  0.51100000000E-03 0. -1.
          2   -1    0    0  501    0 -0.00000000000E+00 -0.00000000000E+00 -0.15876036955E+04  0.15876036955E+04  0.25500000000E-02 0. -1.
         11    1    1    2    0    0  0.32237610149E+03 -0.15933335890E+03  0.71820876719E+03  0.80320439699E+03  0.51100000000E-03 0. -1.
         22    1    1    2    0    0  0.48264415019E+02  0.23904147278E+02  0.21177296009E+03  0.21851464171E+03  0.00000000000E+00 0.  1.
          2    1    1    2  501    0 -0.37064051651E+03  0.13542921162E+03 -0.15164850033E+04  0.15669850762E+04  0.25500000000E-02 0. -1.
<mgrwt>
<rscale>  0 0.39341716E+03</rscale>
<asrwt>0</asrwt>
<pdfrwt beam="1">  1       11 0.10000000E+01 0.53859651E+02</pdfrwt>
<pdfrwt beam="2">  1        2 0.24451549E+00 0.39341716E+03</pdfrwt>
<totfact> 0.14894123E+01</totfact>
</mgrwt>
</event>
<event>
 5    1  0.6729100E-004  0.2486566E+03  0.7818608E-02  0.1116567E+00
         11   -1    0    0    0    0  0.00000000000E+00  0.00000000000E+00  0.10000435660E+04  0.10000435660E+04  0.51100000000E-03 0. -1.
          2   -1    0    0  501    0 -0.00000000000E+00 -0.00000000000E+00 -0.27386310857E+03  0.27386310859E+03  0.25500000000E-02 0.  1.
         11    1    1    2    0    0  0.23118158073E+03 -0.15072234317E+02  0.86611838679E+03  0.89656742940E+03  0.51100000000E-03 0. -1.
         22    1    1    2    0    0  0.13672676098E+02  0.10020217323E+02  0.59269043028E+02  0.61645488791E+02  0.00000000000E+00 0. -1.
          2    1    1    2  501    0 -0.24485425683E+03  0.50520169933E+01 -0.19920697240E+03  0.31569375639E+03  0.25500000000E-02 0.  1.
<mgrwt>
<rscale>  0 0.24490637E+03</rscale>
<asrwt>0</asrwt>
<pdfrwt beam="1">  1       11 0.10000000E+01 0.24865659E+03</pdfrwt>
<pdfrwt beam="2">  1        2 0.42134620E-01 0.24490637E+03</pdfrwt>
<totfact> 0.14971105E+02</totfact>
</mgrwt>
</event>
<event>
 5    1  0.6729100E-004  0.1132184E+03  0.7818608E-02  0.1344981E+00
         11   -1    0    0    0    0  0.00000000000E+00  0.00000000000E+00  0.10000552376E+04  0.10000552376E+04  0.51100000000E-03 0. -1.
          2   -1    0    0  501    0 -0.00000000000E+00 -0.00000000000E+00 -0.38145869019E+03  0.38145869019E+03  0.25500000000E-02 0.  1.
         11    1    1    2    0    0  0.95821078696E+01  0.11027590511E+03  0.38459509302E+03  0.40020741824E+03  0.51100000000E-03 0. -1.
         22    1    1    2    0    0  0.65017745853E+02 -0.10774847636E+03  0.59730306606E+03  0.61041624664E+03  0.00000000000E+00 0. -1.
          2    1    1    2  501    0 -0.74599853723E+02 -0.25274287548E+01 -0.36330161167E+03  0.37089026291E+03  0.25500000000E-02 0.  1.
<mgrwt>
<rscale>  0 0.74642656E+02</rscale>
<asrwt>0</asrwt>
<pdfrwt beam="1">  1       11 0.10000000E+01 0.11321839E+03</pdfrwt>
<pdfrwt beam="2">  1        2 0.58689192E-01 0.74642656E+02</pdfrwt>
<totfact> 0.10511369E+02</totfact>
</mgrwt>
</event>
<event>
 5    1  0.6729100E-004  0.2089194E+03  0.7818608E-02  0.1142425E+00
         11   -1    0    0    0    0  0.00000000000E+00  0.00000000000E+00  0.99993120591E+03  0.99993120591E+03  0.51100000000E-03 0.  1.
          2   -1    0    0  501    0 -0.00000000000E+00 -0.00000000000E+00 -0.97352457196E+03  0.97352457196E+03  0.25500000000E-02 0.  1.
         11    1    1    2    0    0  0.17961459846E+02 -0.18252003317E+03  0.64448660538E+03  0.67007399670E+03  0.51100000000E-03 0.  1.
         22    1    1    2    0    0 -0.18062741322E+03  0.45774793661E+02  0.30431042337E+03  0.35682828912E+03  0.00000000000E+00 0.  1.
          2    1    1    2  501    0  0.16266595338E+03  0.13674523951E+03 -0.92239039479E+03  0.94655349205E+03  0.25500000000E-02 0.  1.
<mgrwt>
<rscale>  0 0.20891937E+03</rscale>
<asrwt>0</asrwt>
<pdfrwt beam="1">  1       11 0.10000000E+01 0.18340168E+03</pdfrwt>
<pdfrwt beam="2">  1        2 0.14976270E+00 0.20891937E+03</pdfrwt>
<totfact> 0.34527945E+01</totfact>
</mgrwt>
</event>
<event>
 5    1  0.6729100E-004  0.4836140E+03  0.7818608E-02  0.1018147E+00
         11   -1    0    0    0    0  0.00000000000E+00  0.00000000000E+00  0.99992153116E+03  0.99992153116E+03  0.51100000000E-03 0. -1.
          2   -1    0    0  501    0 -0.00000000000E+00 -0.00000000000E+00 -0.75245448555E+03  0.75245448556E+03  0.25500000000E-02 0. -1.
         11    1    1    2    0    0  0.16247459360E+03 -0.44308010883E+03  0.70924240287E+03  0.85190537176E+03  0.51100000000E-03 0. -1.
         22    1    1    2    0    0  0.23139662035E+02 -0.49402324127E+01  0.13184198898E+03  0.13394834793E+03  0.00000000000E+00 0. -1.
          2    1    1    2  501    0 -0.18561425564E+03  0.44802034124E+03 -0.59361734624E+03  0.76652229702E+03  0.25500000000E-02 0. -1.
<mgrwt>
<rscale>  0 0.48361402E+03</rscale>
<asrwt>0</asrwt>
<pdfrwt beam="1">  1       11 0.10000000E+01 0.23661147E+02</pdfrwt>
<pdfrwt beam="2">  1        2 0.11575314E+00 0.48361402E+03</pdfrwt>
<totfact> 0.46987781E+01</totfact>
</mgrwt>
</event>
<event>
 5    1  0.6729100E-004  0.2821297E+03  0.7818608E-02  0.1098285E+00
         11   -1    0    0    0    0  0.00000000000E+00  0.00000000000E+00  0.10001641162E+04  0.10001641162E+04  0.51100000000E-03 0. -1.
          2   -1    0    0  501    0 -0.00000000000E+00 -0.00000000000E+00 -0.17385265823E+03  0.17385265825E+03  0.25500000000E-02 0. -1.
         11    1    1    2    0    0  0.22964060537E+03  0.11958732787E+03  0.80661826609E+03  0.84715344762E+03  0.51100000000E-03 0. -1.
         22    1    1    2    0    0  0.21022693302E+02 -0.57577299566E+01  0.45405890065E+02  0.50366655046E+02  0.00000000000E+00 0.  1.
          2    1    1    2  501    0 -0.25066329867E+03 -0.11382959791E+03 -0.25712698170E+02  0.27649667180E+03  0.25500000000E-02 0. -1.
<mgrwt>
<rscale>  0 0.27529850E+03</rscale>
<asrwt>0</asrwt>
<pdfrwt beam="1">  1       11 0.10000000E+01 0.28212971E+03</pdfrwt>
<pdfrwt beam="2">  1        2 0.26750952E-01 0.27529850E+03</pdfrwt>
<totfact> 0.24661962E+02</totfact>
</mgrwt>
</event>
<event>
 5    1  0.6729100E-004  0.1046038E+03  0.7818608E-02  0.1538172E+00
         11   -1    0    0    0    0  0.00000000000E+00  0.00000000000E+00  0.10002050201E+04  0.10002050201E+04  0.51100000000E-03 0. -1.
          2   -1    0    0  501    0 -0.00000000000E+00 -0.00000000000E+00 -0.13782842076E+02  0.13782842312E+02  0.25500000000E-02 0. -1.
         11    1    1    2    0    0  0.73734857996E+02  0.68758328774E+02  0.28641308283E+03  0.30363957430E+03  0.51100000000E-03 0. -1.
         22    1    1    2    0    0  0.11606659757E+02 -0.47197890932E+01  0.45244787336E+02  0.46947648939E+02  0.00000000000E+00 0.  1.
          2    1    1    2  501    0 -0.85341517753E+02 -0.64038539681E+02  0.65476430785E+03  0.66340063918E+03  0.25500000000E-02 0. -1.
<mgrwt>
<rscale>  0 0.36202808E+02</rscale>
<asrwt>0</asrwt>
<pdfrwt beam="1">  1       11 0.10000000E+01 0.10460379E+03</pdfrwt>
<pdfrwt beam="2">  1        2 0.21208719E-02 0.36202808E+02</pdfrwt>
<totfact> 0.48184715E+03</totfact>
</mgrwt>
</event>
<event>
 5    1  0.8771343E-004  0.2605657E+03  0.7818608E-02  0.1107663E+00
         11   -1    0    0    0    0  0.00000000000E+00  0.00000000000E+00  0.99993704762E+03  0.99993704762E+03  0.51100000000E-03 0.  1.
          2   -1    0    0  501    0 -0.00000000000E+00 -0.00000000000E+00 -0.78360641118E+03  0.78360641119E+03  0.25500000000E-02 0.  1.
         11    1    1    2    0    0  0.20522627753E+03 -0.12723865612E+03  0.89242633790E+03  0.92451731686E+03  0.51100000000E-03 0.  1.
         22    1    1    2    0    0  0.18866516062E+02 -0.28941673095E+01  0.68246464730E+02  0.70865376460E+02  0.00000000000E+00 0.  1.
          2    1    1    2  501    0 -0.22409279359E+03  0.13013282343E+03 -0.74434216619E+03  0.78816076549E+03  0.25500000000E-02 0.  1.
<mgrwt>
<rscale>  0 0.25913728E+03</rscale>
<asrwt>0</asrwt>
<pdfrwt beam="1">  1       11 0.10000000E+01 0.26056568E+03</pdfrwt>
<pdfrwt beam="2">  1        2 0.12054724E+00 0.25913728E+03</pdfrwt>
<totfact> 0.45581520E+01</totfact>
</mgrwt>
</event>
<event>
 5    1  0.6729100E-004  0.7803543E+02  0.7818608E-02  0.1409749E+00
         11   -1    0    0    0    0  0.00000000000E+00  0.00000000000E+00  0.10002597302E+04  0.10002597302E+04  0.51100000000E-03 0.  1.
         -2   -1    0    0    0  501 -0.00000000000E+00 -0.00000000000E+00 -0.15859942100E+03  0.15859942102E+03  0.25500000000E-02 0. -1.
         11    1    1    2    0    0 -0.75023904558E+02 -0.80024130263E+02  0.60056392370E+03  0.61049936456E+03  0.51100000000E-03 0.  1.
         22    1    1    2    0    0  0.58759127233E+02  0.25133347967E+02  0.38667916375E+03  0.39192486001E+03  0.00000000000E+00 0. -1.
         -2    1    1    2    0  501  0.16264777325E+02  0.54890782296E+02 -0.14558277822E+03  0.15643492667E+03  0.25500000000E-02 0. -1.
<mgrwt>
<rscale>  0 0.57249812E+02</rscale>
<asrwt>0</asrwt>
<pdfrwt beam="1">  1       11 0.10000000E+01 0.78035434E+02</pdfrwt>
<pdfrwt beam="2">  1       -2 0.24406248E-01 0.57249812E+02</pdfrwt>
<totfact> 0.11433118E+02</totfact>
</mgrwt>
</event>
<event>
 5    1  0.6729100E-004  0.1926486E+03  0.7818608E-02  0.1573564E+00
         11   -1    0    0    0    0  0.00000000000E+00  0.00000000000E+00  0.99991735707E+03  0.99991735707E+03  0.51100000000E-03 0. -1.
          2   -1    0    0  501    0 -0.00000000000E+00 -0.00000000000E+00 -0.12702533199E+03  0.12702533202E+03  0.25500000000E-02 0. -1.
         11    1    1    2    0    0  0.16684315720E+03 -0.20760436764E+02 -0.31795419231E+02  0.17110985806E+03  0.51100000000E-03 0. -1.
         22    1    1    2    0    0 -0.19831899292E+03  0.13328981331E+02  0.36865183326E+03  0.41882246700E+03  0.00000000000E+00 0. -1.
          2    1    1    2  501    0  0.31475835723E+02  0.74314554327E+01  0.53603561105E+03  0.53701036403E+03  0.25500000000E-02 0. -1.
<mgrwt>
<rscale>  0 0.32341224E+02</rscale>
<asrwt>0</asrwt>
<pdfrwt beam="1">  1       11 0.10000000E+01 0.19264862E+03</pdfrwt>
<pdfrwt beam="2">  1        2 0.19540743E-01 0.32341224E+02</pdfrwt>
<totfact> 0.32426983E+02</totfact>
</mgrwt>
</event>
<event>
 5    1  0.6729100E-004  0.1366036E+03  0.7818608E-02  0.1672778E+00
         11   -1    0    0    0    0  0.00000000000E+00  0.00000000000E+00  0.10002473019E+04  0.10002473019E+04  0.51100000000E-03 0.  1.
          2   -1    0    0  501    0 -0.00000000000E+00 -0.00000000000E+00 -0.15526987458E+03  0.15526987460E+03  0.25500000000E-02 0.  1.
         11    1    1    2    0    0 -0.93314947033E+02  0.10881475413E+03  0.50637164043E+03  0.52627043266E+03  0.51100000000E-03 0.  1.
         22    1    1    2    0    0  0.99691026398E+02 -0.85470687135E+02  0.47392494661E+03  0.49178083952E+03  0.00000000000E+00 0.  1.
          2    1    1    2  501    0 -0.63760793646E+01 -0.23344066995E+02 -0.13531915973E+03  0.13746590431E+03  0.25500000000E-02 0.  1.
<mgrwt>
<rscale>  0 0.24199171E+02</rscale>
<asrwt>0</asrwt>
<pdfrwt beam="1">  1       11 0.10000000E+01 0.13660363E+03</pdfrwt>
<pdfrwt beam="2">  1        2 0.23893580E-01 0.24199171E+02</pdfrwt>
<totfact> 0.25810131E+02</totfact>
</mgrwt>
</event>
<event>
 5    1  0.6729100E-004  0.1360439E+03  0.7818608E-02  0.1596458E+00
         11   -1    0    0    0    0  0.00000000000E+00  0.00000000000E+00  0.99973665445E+03  0.99973665445E+03  0.51100000000E-03 0.  1.
         -2   -1    0    0    0  501 -0.00000000000E+00 -0.00000000000E+00 -0.34702700632E+02  0.34702700726E+02  0.25500000000E-02 0.  1.
         11    1    1    2    0    0 -0.14011975380E+03 -0.40037750847E+02  0.69248209115E+03  0.70764964033E+03  0.51100000000E-03 0.  1.
         22    1    1    2    0    0  0.11891540016E+03  0.18606918996E+02  0.27108685063E+03  0.29660608627E+03  0.00000000000E+00 0. -1.
         -2    1    1    2    0  501  0.21204353645E+02  0.21430831851E+02  0.14650120444E+01  0.30183628578E+02  0.25500000000E-02 0.  1.
<mgrwt>
<rscale>  0 0.30148054E+02</rscale>
<asrwt>0</asrwt>
<pdfrwt beam="1">  1       11 0.10000000E+01 0.13604390E+03</pdfrwt>
<pdfrwt beam="2">  1       -2 0.53374709E-02 0.30148054E+02</pdfrwt>
<totfact> 0.11437081E+03</totfact>
</mgrwt>
</event>
<event>
 5    1  0.6729100E-004  0.1891634E+03  0.7818608E-02  0.1159218E+00
         11   -1    0    0    0    0  0.00000000000E+00  0.00000000000E+00  0.10001682926E+04  0.10001682926E+04  0.51100000000E-03 0.  1.
         -2   -1    0    0    0  501 -0.00000000000E+00 -0.00000000000E+00 -0.15102601870E+03  0.15102601872E+03  0.25500000000E-02 0. -1.
         11    1    1    2    0    0  0.13750277131E+02 -0.19254161023E+03  0.89289688363E+03  0.91352404817E+03  0.51100000000E-03 0.  1.
         22    1    1    2    0    0 -0.13985156581E+02  0.36194941406E+01  0.31231380251E+02  0.34410528255E+02  0.00000000000E+00 0. -1.
         -2    1    1    2    0  501  0.23487944911E+00  0.18892211609E+03 -0.74985990005E+02  0.20325973487E+03  0.25500000000E-02 0. -1.
<mgrwt>
<rscale>  0 0.18916336E+03</rscale>
<asrwt>0</asrwt>
<pdfrwt beam="1">  1       11 0.10000000E+01 0.14445946E+02</pdfrwt>
<pdfrwt beam="2">  1       -2 0.23238682E-01 0.18916336E+03</pdfrwt>
<totfact> 0.12906170E+02</totfact>
</mgrwt>
</event>
<event>
 5    1  0.6729100E-004  0.1190392E+03  0.7818608E-02  0.1244690E+00
         11   -1    0    0    0    0  0.00000000000E+00  0.00000000000E+00  0.99999680401E+03  0.99999680401E+03  0.51100000000E-03 0.  1.
          2   -1    0    0  501    0 -0.00000000000E+00 -0.00000000000E+00 -0.57319558467E+02  0.57319558524E+02  0.25500000000E-02 0.  1.
         11    1    1    2    0    0  0.74291359169E+02 -0.77809173245E+02  0.56162406374E+03  0.57183482096E+03  0.51100000000E-03 0.  1.
         22    1    1    2    0    0  0.44674599392E+02  0.48145145318E+02  0.35384686527E+03  0.35989078748E+03  0.00000000000E+00 0.  1.
          2    1    1    2  501    0 -0.11896595856E+03  0.29664027928E+02  0.27206316529E+02  0.12559075410E+03  0.25500000000E-02 0.  1.
<mgrwt>
<rscale>  0 0.11903923E+03</rscale>
<asrwt>0</asrwt>
<pdfrwt beam="1">  1       11 0.10000000E+01 0.65679333E+02</pdfrwt>
<pdfrwt beam="2">  1        2 0.88183652E-02 0.11903923E+03</pdfrwt>
<totfact> 0.88123571E+02</totfact>
</mgrwt>
</event>
<event>
 5    1  0.6729100E-004  0.1561603E+03  0.7818608E-02  0.1193101E+00
         11   -1    0    0    0    0  0.00000000000E+00  0.00000000000E+00  0.10002270547E+04  0.10002270547E+04  0.51100000000E-03 0. -1.
          2   -1    0    0  501    0 -0.00000000000E+00 -0.00000000000E+00 -0.12337360882E+03  0.12337360885E+03  0.25500000000E-02 0. -1.
         11    1    1    2    0    0  0.17419669473E+03 -0.73216638315E+02  0.11384196359E+03  0.22060180701E+03  0.51100000000E-03 0. -1.
         22    1    1    2    0    0 -0.11509723903E+03 -0.72074198023E+02  0.73024130551E+03  0.74276135382E+03  0.00000000000E+00 0. -1.
          2    1    1    2  501    0 -0.59099455698E+02  0.14529083634E+03  0.32770176793E+02  0.16023750273E+03  0.25500000000E-02 0. -1.
<mgrwt>
<rscale>  0 0.15616029E+03</rscale>
<asrwt>0</asrwt>
<pdfrwt beam="1">  1       11 0.10000000E+01 0.13580156E+03</pdfrwt>
<pdfrwt beam="2">  1        2 0.18984864E-01 0.15616029E+03</pdfrwt>
<totfact> 0.35811382E+02</totfact>
</mgrwt>
</event>
<event>
 5    1  0.6729100E-004  0.1100691E+03  0.7818608E-02  0.1260442E+00
         11   -1    0    0    0    0  0.00000000000E+00  0.00000000000E+00  0.10001240860E+04  0.10001240860E+04  0.51100000000E-03 0. -1.
          2   -1    0    0  501    0 -0.00000000000E+00 -0.00000000000E+00 -0.47161503707E+02  0.47161503776E+02  0.25500000000E-02 0. -1.
         11    1    1    2    0    0 -0.34327652951E+02 -0.11490905502E+03  0.69633012170E+03  0.70658199600E+03  0.51100000000E-03 0. -1.
         22    1    1    2    0    0  0.48216685795E+02  0.57908064612E+01  0.21919265615E+03  0.22450791242E+03  0.00000000000E+00 0. -1.
          2    1    1    2  501    0 -0.13889032844E+02  0.10911824856E+03  0.37439804434E+02  0.11619568135E+03  0.25500000000E-02 0. -1.
<mgrwt>
<rscale>  0 0.11006912E+03</rscale>
<asrwt>0</asrwt>
<pdfrwt beam="1">  1       11 0.10000000E+01 0.48563178E+02</pdfrwt>
<pdfrwt beam="2">  1        2 0.72565161E-02 0.11006912E+03</pdfrwt>
<totfact> 0.11182508E+03</totfact>
</mgrwt>
</event>
<event>
 5    1  0.6729100E-004  0.1482786E+03  0.7818608E-02  0.1202604E+00
         11   -1    0    0    0    0  0.00000000000E+00  0.00000000000E+00  0.10003719626E+04  0.10003719626E+04  0.51100000000E-03 0.  1.
          2   -1    0    0  501    0 -0.00000000000E+00 -0.00000000000E+00 -0.47292603899E+02  0.47292603968E+02  0.25500000000E-02 0.  1.
         11    1    1    2    0    0  0.12237821299E+03  0.10086592054E+03  0.76762824639E+03  0.78383894111E+03  0.51100000000E-03 0.  1.
         22    1    1    2    0    0 -0.26428919712E+02  0.10077873626E+02  0.75163887119E+02  0.80309783095E+02  0.00000000000E+00 0. -1.
          2    1    1    2  501    0 -0.95949293281E+02 -0.11094379417E+03  0.11028722515E+03  0.18351584232E+03  0.25500000000E-02 0.  1.
<mgrwt>
<rscale>  0 0.14827860E+03</rscale>
<asrwt>0</asrwt>
<pdfrwt beam="1">  1       11 0.10000000E+01 0.28285179E+02</pdfrwt>
<pdfrwt beam="2">  1        2 0.72784913E-02 0.14827860E+03</pdfrwt>
<totfact> 0.11371635E+03</totfact>
</mgrwt>
</event>
<event>
 5    1  0.6729100E-004  0.1411837E+03  0.7818608E-02  0.1338709E+00
         11   -1    0    0    0    0  0.00000000000E+00  0.00000000000E+00  0.10002241685E+04  0.10002241685E+04  0.51100000000E-03 0. -1.
          2   -1    0    0  501    0 -0.00000000000E+00 -0.00000000000E+00 -0.79947317536E+02  0.79947317577E+02  0.25500000000E-02 0. -1.
         11    1    1    2    0    0 -0.18794247777E+03 -0.24247588511E+01  0.61208485885E+03  0.64029378323E+03  0.51100000000E-03 0. -1.
         22    1    1    2    0    0  0.11138306716E+03  0.69405594680E+01  0.33925060176E+03  0.35713489021E+03  0.00000000000E+00 0. -1.
          2    1    1    2  501    0  0.76559410614E+02 -0.45158006169E+01 -0.31058609619E+02  0.82742812659E+02  0.25500000000E-02 0. -1.
<mgrwt>
<rscale>  0 0.76692476E+02</rscale>
<asrwt>0</asrwt>
<pdfrwt beam="1">  1       11 0.10000000E+01 0.14118369E+03</pdfrwt>
<pdfrwt beam="2">  1        2 0.12302344E-01 0.76692476E+02</pdfrwt>
<totfact> 0.57384013E+02</totfact>
</mgrwt>
</event>
<event>
 5    1  0.6729100E-004  0.1508176E+03  0.7818608E-02  0.1347041E+00
         11   -1    0    0    0    0  0.00000000000E+00  0.00000000000E+00  0.10003217081E+04  0.10003217081E+04  0.51100000000E-03 0.  1.
          2   -1    0    0  501    0 -0.00000000000E+00 -0.00000000000E+00 -0.37217870728E+02  0.37217870815E+02  0.25500000000E-02 0.  1.
         11    1    1    2    0    0 -0.11341904262E+03 -0.10876601129E+03  0.72701931629E+03  0.74380845027E+03  0.51100000000E-03 0.  1.
         22    1    1    2    0    0  0.78331748789E+00  0.36286380464E+02  0.81341591012E+02  0.89071709436E+02  0.00000000000E+00 0. -1.
          2    1    1    2  501    0  0.11263572513E+03  0.72479630827E+02  0.15474293010E+03  0.20465941924E+03  0.25500000000E-02 0.  1.
<mgrwt>
<rscale>  0 0.73985809E+02</rscale>
<asrwt>0</asrwt>
<pdfrwt beam="1">  1       11 0.10000000E+01 0.15081760E+03</pdfrwt>
<pdfrwt beam="2">  1        2 0.57276682E-02 0.73985809E+02</pdfrwt>
<totfact> 0.14603113E+03</totfact>
</mgrwt>
</event>
<event>
 5    1  0.6729100E-004  0.1722015E+03  0.7818608E-02  0.1184568E+00
         11   -1    0    0    0    0  0.00000000000E+00  0.00000000000E+00  0.10000613759E+04  0.10000613759E+04  0.51100000000E-03 0. -1.
         -2   -1    0    0    0  501 -0.00000000000E+00 -0.00000000000E+00 -0.44007564251E+02  0.44007564325E+02  0.25500000000E-02 0.  1.
         11    1    1    2    0    0 -0.13120394630E+03  0.35801683374E+02  0.68235656958E+03  0.69577778357E+03  0.51100000000E-03 0. -1.
         22    1    1    2    0    0 -0.19520073306E+02  0.28105002770E+02  0.11614495873E+03  0.12108086505E+03  0.00000000000E+00 0. -1.
         -2    1    1    2    0  501  0.15072401960E+03 -0.63906686144E+02  0.15755228332E+03  0.22721029159E+03  0.25500000000E-02 0.  1.
<mgrwt>
<rscale>  0 0.16371254E+03</rscale>
<asrwt>0</asrwt>
<pdfrwt beam="1">  1       11 0.10000000E+01 0.17220151E+03</pdfrwt>
<pdfrwt beam="2">  1       -2 0.67708099E-02 0.16371254E+03</pdfrwt>
<totfact> 0.94655391E+02</totfact>
</mgrwt>
</event>
<event>
 5    1  0.6729100E-004  0.1087759E+03  0.7818608E-02  0.1262854E+00
         11   -1    0    0    0    0  0.00000000000E+00  0.00000000000E+00  0.10004178158E+04  0.10004178158E+04  0.51100000000E-03 0. -1.
          2   -1    0    0  501    0 -0.00000000000E+00 -0.00000000000E+00 -0.14451610359E+03  0.14451610361E+03  0.25500000000E-02 0. -1.
         11    1    1    2    0    0 -0.16184774882E+02  0.10690643707E+03 -0.11613132069E+03  0.15867393255E+03  0.51100000000E-03 0. -1.
         22    1    1    2    0    0 -0.14218526444E+02  0.25185400505E+02  0.11537297104E+03  0.11894281542E+03  0.00000000000E+00 0.  1.
          2    1    1    2  501    0  0.30403301327E+02 -0.13209183758E+03  0.85666006183E+03  0.86731717142E+03  0.25500000000E-02 0. -1.
<mgrwt>
<rscale>  0 0.10877586E+03</rscale>
<asrwt>0</asrwt>
<pdfrwt beam="1">  1       11 0.10000000E+01 0.28921807E+02</pdfrwt>
<pdfrwt beam="2">  1        2 0.22242535E-01 0.10877586E+03</pdfrwt>
<totfact> 0.29616691E+02</totfact>
</mgrwt>
</event>
<event>
 5    1  0.6729100E-004  0.2751600E+03  0.7818608E-02  0.1102432E+00
         11   -1    0    0    0    0  0.00000000000E+00  0.00000000000E+00  0.10001275784E+04  0.10001275784E+04  0.51100000000E-03 0. -1.
          2   -1    0    0  501    0 -0.00000000000E+00 -0.00000000000E+00 -0.35026901466E+03  0.35026901467E+03  0.25500000000E-02 0. -1.
         11    1    1    2    0    0 -0.34353921389E+02 -0.24563506730E+03  0.79998418062E+03  0.83755087454E+03  0.51100000000E-03 0. -1.
         22    1    1    2    0    0 -0.18179947144E+02 -0.17161827235E+02  0.12576100344E+03  0.12822195123E+03  0.00000000000E+00 0. -1.
          2    1    1    2  501    0  0.52533868533E+02  0.26279689454E+03 -0.27588662030E+03  0.38462376732E+03  0.25500000000E-02 0. -1.
<mgrwt>
<rscale>  0 0.26799630E+03</rscale>
<asrwt>0</asrwt>
<pdfrwt beam="1">  1       11 0.10000000E+01 0.27515996E+03</pdfrwt>
<pdfrwt beam="2">  1        2 0.53894414E-01 0.26799630E+03</pdfrwt>
<totfact> 0.11472336E+02</totfact>
</mgrwt>
</event>
<event>
 5    1  0.6729100E-004  0.4242785E+03  0.7818608E-02  0.1035683E+00
         11   -1    0    0    0    0  0.00000000000E+00  0.00000000000E+00  0.99993494487E+03  0.99993494487E+03  0.51100000000E-03 0.  1.
          2   -1    0    0  501    0 -0.00000000000E+00 -0.00000000000E+00 -0.24485501628E+03  0.24485501629E+03  0.25500000000E-02 0.  1.
         11    1    1    2    0    0  0.13674573245E+03 -0.41043302229E+03  0.63632309290E+03  0.76945548259E+03  0.51100000000E-03 0.  1.
         22    1    1    2    0    0  0.26159670303E+02  0.21670265300E+02  0.28322504679E+02  0.44227740388E+02  0.00000000000E+00 0. -1.
          2    1    1    2  501    0 -0.16290540276E+03  0.38876275699E+03  0.90434331007E+02  0.43110673817E+03  0.25500000000E-02 0.  1.
<mgrwt>
<rscale>  0 0.42427847E+03</rscale>
<asrwt>0</asrwt>
<pdfrwt beam="1">  1       11 0.10000000E+01 0.33969527E+02</pdfrwt>
<pdfrwt beam="2">  1        2 0.37667551E-01 0.42427847E+03</pdfrwt>
<totfact> 0.16965836E+02</totfact>
</mgrwt>
</event>
<event>
 5    1  0.6729100E-004  0.1024777E+03  0.7818608E-02  0.1297662E+00
         11   -1    0    0    0    0  0.00000000000E+00  0.00000000000E+00  0.10002170547E+04  0.10002170547E+04  0.51100000000E-03 0. -1.
         -2   -1    0    0    0  501 -0.00000000000E+00 -0.00000000000E+00 -0.63826861309E+02  0.63826861360E+02  0.25500000000E-02 0. -1.
         11    1    1    2    0    0 -0.61218068696E+02 -0.85705115522E+02  0.27881004114E+03  0.29804036270E+03  0.51100000000E-03 0. -1.
         22    1    1    2    0    0  0.11385367546E+03  0.10032984653E+02  0.66384561918E+03  0.67361289054E+03  0.00000000000E+00 0. -1.
         -2    1    1    2    0  501 -0.52635606768E+02  0.75672130869E+02 -0.62654669409E+01  0.92390662800E+02  0.25500000000E-02 0. -1.
<mgrwt>
<rscale>  0 0.92177972E+02</rscale>
<asrwt>0</asrwt>
<pdfrwt beam="1">  1       11 0.10000000E+01 0.10247775E+03</pdfrwt>
<pdfrwt beam="2">  1       -2 0.98216482E-02 0.92177972E+02</pdfrwt>
<totfact> 0.51203983E+02</totfact>
</mgrwt>
</event>
<event>
 5    1  0.6729100E-004  0.3998107E+03  0.7818608E-02  0.1043845E+00
         11   -1    0    0    0    0  0.00000000000E+00  0.00000000000E+00  0.99988793817E+03  0.99988793817E+03  0.51100000000E-03 0. -1.
          2   -1    0    0  501    0 -0.00000000000E+00 -0.00000000000E+00 -0.34892059996E+03  0.34892059997E+03  0.25500000000E-02 0. -1.
         11    1    1    2    0    0 -0.39046211264E+03 -0.15171343858E+01  0.74959087057E+03  0.84519195237E+03  0.51100000000E-03 0. -1.
         22    1    1    2    0    0 -0.10431500429E+02 -0.19739674165E+02  0.66032734654E+02  0.69705042739E+02  0.00000000000E+00 0. -1.
          2    1    1    2  501    0  0.40089361307E+03  0.21256808550E+02 -0.16465626702E+03  0.43391154304E+03  0.25500000000E-02 0. -1.
<mgrwt>
<rscale>  0 0.39981069E+03</rscale>
<asrwt>0</asrwt>
<pdfrwt beam="1">  1       11 0.10000000E+01 0.22326463E+02</pdfrwt>
<pdfrwt beam="2">  1        2 0.53674075E-01 0.39981069E+03</pdfrwt>
<totfact> 0.11504864E+02</totfact>
</mgrwt>
</event>
<event>
 5    1  0.6729100E-004  0.2242354E+03  0.7818608E-02  0.1132288E+00
         11   -1    0    0    0    0  0.00000000000E+00  0.00000000000E+00  0.10002263254E+04  0.10002263254E+04  0.51100000000E-03 0.  1.
         -2   -1    0    0    0  501 -0.00000000000E+00 -0.00000000000E+00 -0.67773090425E+02  0.67773090473E+02  0.25500000000E-02 0.  1.
         11    1    1    2    0    0  0.21129913008E+03  0.22582585250E+01  0.69566890078E+03  0.72705408439E+03  0.51100000000E-03 0.  1.
         22    1    1    2    0    0  0.10652908189E+02  0.72041853898E+01  0.47113080959E+02  0.48836739628E+02  0.00000000000E+00 0.  1.
         -2    1    1    2    0  501 -0.22195203827E+03 -0.94624439148E+01  0.18967125328E+03  0.29210859191E+03  0.25500000000E-02 0.  1.
<mgrwt>
<rscale>  0 0.22215365E+03</rscale>
<asrwt>0</asrwt>
<pdfrwt beam="1">  1       11 0.10000000E+01 0.22423536E+03</pdfrwt>
<pdfrwt beam="2">  1       -2 0.10428989E-01 0.22215365E+03</pdfrwt>
<totfact> 0.49094209E+02</totfact>
</mgrwt>
</event>
<event>
 5    1  0.6729100E-004  0.2718617E+03  0.7818608E-02  0.1100219E+00
         11   -1    0    0    0    0  0.00000000000E+00  0.00000000000E+00  0.10002219191E+04  0.10002219191E+04  0.51100000000E-03 0. -1.
          2   -1    0    0  501    0 -0.00000000000E+00 -0.00000000000E+00 -0.84019675275E+02  0.84019675314E+02  0.25500000000E-02 0. -1.
         11    1    1    2    0    0  0.21434968229E+03  0.16455871086E+03  0.30467732478E+03  0.40725130798E+03  0.51100000000E-03 0. -1.
         22    1    1    2    0    0  0.11081427546E+02 -0.74896623534E+01  0.51339132978E+02  0.53052800619E+02  0.00000000000E+00 0. -1.
          2    1    1    2  501    0 -0.22543110984E+03 -0.15706904851E+03  0.56018578608E+03  0.62393748582E+03  0.25500000000E-02 0. -1.
<mgrwt>
<rscale>  0 0.27186170E+03</rscale>
<asrwt>0</asrwt>
<pdfrwt beam="1">  1       11 0.10000000E+01 0.13375092E+02</pdfrwt>
<pdfrwt beam="2">  1        2 0.12928972E-01 0.27186170E+03</pdfrwt>
<totfact> 0.57454067E+02</totfact>
</mgrwt>
</event>
<event>
 5    1  0.6729100E-004  0.9913759E+02  0.7818608E-02  0.1282120E+00
         11   -1    0    0    0    0  0.00000000000E+00  0.00000000000E+00  0.99997872137E+03  0.99997872137E+03  0.51100000000E-03 0.  1.
          2   -1    0    0  501    0 -0.00000000000E+00 -0.00000000000E+00 -0.12583892186E+02  0.12583892444E+02  0.25500000000E-02 0.  1.
         11    1    1    2    0    0 -0.39312271859E+02 -0.87548455683E+02  0.23771792116E+03  0.25635911697E+03  0.51100000000E-03 0.  1.
         22    1    1    2    0    0  0.37347084400E+01  0.10305743439E+02  0.40918593940E+02  0.42361394275E+02  0.00000000000E+00 0. -1.
          2    1    1    2  501    0  0.35577563419E+02  0.77242712245E+02  0.70875831408E+03  0.71384210257E+03  0.25500000000E-02 0.  1.
<mgrwt>
<rscale>  0 0.99137592E+02</rscale>
<asrwt>0</asrwt>
<pdfrwt beam="1">  1       11 0.10000000E+01 0.95969766E+02</pdfrwt>
<pdfrwt beam="2">  1        2 0.19359422E-02 0.99137592E+02</pdfrwt>
<totfact> 0.62851235E+03</totfact>
</mgrwt>
</event>
<event>
 5    1  0.6729100E-004  0.5645296E+02  0.7818608E-02  0.1579917E+00
         11   -1    0    0    0    0  0.00000000000E+00  0.00000000000E+00  0.10002634894E+04  0.10002634894E+04  0.51100000000E-03 0. -1.
          2   -1    0    0  501    0 -0.00000000000E+00 -0.00000000000E+00 -0.13304950535E+02  0.13304950779E+02  0.25500000000E-02 0. -1.
         11    1    1    2    0    0 -0.21885370004E+02  0.68620687169E+02  0.10765580985E+03  0.12952814954E+03  0.51100000000E-03 0. -1.
         22    1    1    2    0    0  0.99768935142E+01 -0.14755903950E+02  0.53301699957E+02  0.56199166576E+02  0.00000000000E+00 0.  1.
          2    1    1    2  501    0  0.11908476490E+02 -0.53864783219E+02  0.82600102907E+03  0.82784112408E+03  0.25500000000E-02 0. -1.
<mgrwt>
<rscale>  0 0.31710440E+02</rscale>
<asrwt>0</asrwt>
<pdfrwt beam="1">  1       11 0.10000000E+01 0.56452964E+02</pdfrwt>
<pdfrwt beam="2">  1        2 0.20474548E-02 0.31710440E+02</pdfrwt>
<totfact> 0.49352385E+03</totfact>
</mgrwt>
</event>
<event>
 5    1  0.6729100E-004  0.2920620E+03  0.7818608E-02  0.1099711E+00
         11   -1    0    0    0    0  0.00000000000E+00  0.00000000000E+00  0.10002590826E+04  0.10002590826E+04  0.51100000000E-03 0.  1.
          2   -1    0    0  501    0 -0.00000000000E+00 -0.00000000000E+00 -0.89959777054E+02  0.89959777091E+02  0.25500000000E-02 0.  1.
         11    1    1    2    0    0 -0.14598625933E+03  0.15442995873E+03  0.39618200440E+03  0.44957844774E+03  0.51100000000E-03 0.  1.
         22    1    1    2    0    0 -0.13017669927E+02  0.67188387278E+02  0.25643737509E+03  0.26541263432E+03  0.00000000000E+00 0.  1.
          2    1    1    2  501    0  0.15900392925E+03 -0.22161834600E+03  0.25767992606E+03  0.37522777763E+03  0.25500000000E-02 0.  1.
<mgrwt>
<rscale>  0 0.27275803E+03</rscale>
<asrwt>0</asrwt>
<pdfrwt beam="1">  1       11 0.10000000E+01 0.29206197E+03</pdfrwt>
<pdfrwt beam="2">  1        2 0.13843551E-01 0.27275803E+03</pdfrwt>
<totfact> 0.52903492E+02</totfact>
</mgrwt>
</event>
<event>
 5    1  0.6729100E-004  0.1476200E+03  0.7818608E-02  0.1203428E+00
         11   -1    0    0    0    0  0.00000000000E+00  0.00000000000E+00  0.10001257631E+04  0.10001257631E+04  0.51100000000E-03 0. -1.
          2   -1    0    0  501    0 -0.00000000000E+00 -0.00000000000E+00 -0.26236891877E+02  0.26236892001E+02  0.25500000000E-02 0. -1.
         11    1    1    2    0    0  0.14705810745E+03 -0.29645126470E+02  0.61895328557E+03  0.63687368466E+03  0.51100000000E-03 0. -1.
         22    1    1    2    0    0 -0.56542866416E+01 -0.86852596360E+01  0.51542857235E+02  0.52574431279E+02  0.00000000000E+00 0.  1.
          2    1    1    2  501    0 -0.14140382080E+03  0.38330386106E+02  0.30339272840E+03  0.33691453915E+03  0.25500000000E-02 0. -1.
<mgrwt>
<rscale>  0 0.14761998E+03</rscale>
<asrwt>0</asrwt>
<pdfrwt beam="1">  1       11 0.10000000E+01 0.10363624E+02</pdfrwt>
<pdfrwt beam="2">  1        2 0.40369524E-02 0.14761998E+03</pdfrwt>
<totfact> 0.24461271E+03</totfact>
</mgrwt>
</event>
<event>
 5    1  0.6729100E-004  0.2692131E+03  0.7818608E-02  0.1724483E+00
         11   -1    0    0    0    0  0.00000000000E+00  0.00000000000E+00  0.99994136409E+03  0.99994136410E+03  0.51100000000E-03 0.  1.
          2   -1    0    0  501    0 -0.00000000000E+00 -0.00000000000E+00 -0.96146526438E+03  0.96146526439E+03  0.25500000000E-02 0.  1.
         11    1    1    2    0    0 -0.87609915214E+02 -0.24415974483E+03  0.43958751807E+03  0.51041812692E+03  0.51100000000E-03 0.  1.
         22    1    1    2    0    0  0.88344897177E+02  0.26523689709E+03  0.48758333297E+03  0.56204353837E+03  0.00000000000E+00 0.  1.
          2    1    1    2  501    0 -0.73498196255E+00 -0.21077152260E+02 -0.88869475133E+03  0.88894496320E+03  0.25500000000E-02 0.  1.
<mgrwt>
<rscale>  0 0.21089963E+02</rscale>
<asrwt>0</asrwt>
<pdfrwt beam="1">  1       11 0.10000000E+01 0.26921307E+03</pdfrwt>
<pdfrwt beam="2">  1        2 0.14790906E+00 0.21089963E+02</pdfrwt>
<totfact> 0.39339995E+01</totfact>
</mgrwt>
</event>
<event>
 5    1  0.6729100E-004  0.1501525E+03  0.7818608E-02  0.1662601E+00
         11   -1    0    0    0    0  0.00000000000E+00  0.00000000000E+00  0.10002020543E+04  0.10002020543E+04  0.51100000000E-03 0.  1.
          2   -1    0    0  501    0 -0.00000000000E+00 -0.00000000000E+00 -0.68090253859E+03  0.68090253860E+03  0.25500000000E-02 0.  1.
         11    1    1    2    0    0  0.40514445243E+02 -0.16610704928E+03  0.13714600751E+03  0.21918485228E+03  0.51100000000E-03 0.  1.
         22    1    1    2    0    0 -0.40235069641E+02  0.14121961080E+03  0.81523269988E+03  0.82835149197E+03  0.00000000000E+00 0.  1.
          2    1    1    2  501    0 -0.27937560186E+00  0.24887438482E+02 -0.63307919172E+03  0.63356824860E+03  0.25500000000E-02 0.  1.
<mgrwt>
<rscale>  0 0.24889007E+02</rscale>
<asrwt>0</asrwt>
<pdfrwt beam="1">  1       11 0.10000000E+01 0.15015253E+03</pdfrwt>
<pdfrwt beam="2">  1        2 0.10477540E+00 0.24889007E+02</pdfrwt>
<totfact> 0.57928705E+01</totfact>
</mgrwt>
</event>
<event>
 5    1  0.6729100E-004  0.7236933E+02  0.7818608E-02  0.1352216E+00
         11   -1    0    0    0    0  0.00000000000E+00  0.00000000000E+00  0.99997118896E+03  0.99997118896E+03  0.51100000000E-03 0.  1.
          2   -1    0    0  501    0 -0.00000000000E+00 -0.00000000000E+00 -0.67347986372E+03  0.67347986373E+03  0.25500000000E-02 0. -1.
         11    1    1    2    0    0  0.12309643059E+03 -0.53954474764E+02  0.68026218890E+03  0.69341218782E+03  0.51100000000E-03 0.  1.
         22    1    1    2    0    0 -0.51617878549E+02  0.43732243599E+02  0.30749153709E+03  0.31484593041E+03  0.00000000000E+00 0. -1.
          2    1    1    2  501    0 -0.71478552040E+02  0.10222231165E+02 -0.66126240074E+03  0.66519293446E+03  0.25500000000E-02 0. -1.
<mgrwt>
<rscale>  0 0.72369327E+02</rscale>
<asrwt>0</asrwt>
<pdfrwt beam="1">  1       11 0.10000000E+01 0.67652897E+02</pdfrwt>
<pdfrwt beam="2">  1        2 0.10360930E+00 0.72369327E+02</pdfrwt>
<totfact> 0.56949298E+01</totfact>
</mgrwt>
</event>
<event>
 5    1  0.6729100E-004  0.1760447E+03  0.7818608E-02  0.1171687E+00
         11   -1    0    0    0    0  0.00000000000E+00  0.00000000000E+00  0.99994651871E+03  0.99994651871E+03  0.51100000000E-03 0.  1.
          2   -1    0    0  501    0 -0.00000000000E+00 -0.00000000000E+00 -0.32517965864E+03  0.32517965865E+03  0.25500000000E-02 0.  1.
         11    1    1    2    0    0  0.16537682916E+03 -0.81671889395E+02  0.86146429098E+03  0.88098837551E+03  0.51100000000E-03 0.  1.
         22    1    1    2    0    0  0.42563671356E+00  0.23102046231E+02  0.10283028050E+03  0.10539427069E+03  0.00000000000E+00 0.  1.
          2    1    1    2  501    0 -0.16580246587E+03  0.58569843164E+02 -0.28952771141E+03  0.33874353116E+03  0.25500000000E-02 0.  1.
<mgrwt>
<rscale>  0 0.17604473E+03</rscale>
<asrwt>0</asrwt>
<pdfrwt beam="1">  1       11 0.10000000E+01 0.23105967E+02</pdfrwt>
<pdfrwt beam="2">  1        2 0.50024963E-01 0.17604473E+03</pdfrwt>
<totfact> 0.12439190E+02</totfact>
</mgrwt>
</event>
<event>
 5    1  0.6729100E-004  0.4123546E+03  0.7818608E-02  0.1039584E+00
         11   -1    0    0    0    0  0.00000000000E+00  0.00000000000E+00  0.10005721404E+04  0.10005721404E+04  0.51100000000E-03 0.  1.
          2   -1    0    0  501    0 -0.00000000000E+00 -0.00000000000E+00 -0.32722792958E+03  0.32722792959E+03  0.25500000000E-02 0.  1.
         11    1    1    2    0    0  0.22965313492E+03  0.35654817213E+03  0.73723117691E+03  0.85051570805E+03  0.51100000000E-03 0.  1.
         22    1    1    2    0    0 -0.64237419859E+01 -0.12590318784E+02  0.49801860545E+02  0.51768773425E+02  0.00000000000E+00 0. -1.
          2    1    1    2  501    0 -0.22322939294E+03 -0.34395785335E+03 -0.11368882665E+03  0.42551558851E+03  0.25500000000E-02 0.  1.
<mgrwt>
<rscale>  0 0.41235459E+03</rscale>
<asrwt>0</asrwt>
<pdfrwt beam="1">  1       11 0.10000000E+01 0.14134376E+02</pdfrwt>
<pdfrwt beam="2">  1        2 0.50371560E-01 0.41235459E+03</pdfrwt>
<totfact> 0.12334058E+02</totfact>
</mgrwt>
</event>
<event>
 5    1  0.6729100E-004  0.2522152E+03  0.7818608E-02  0.1111913E+00
         11   -1    0    0    0    0  0.00000000000E+00  0.00000000000E+00  0.10002758500E+04  0.10002758500E+04  0.51100000000E-03 0. -1.
          2   -1    0    0  501    0 -0.00000000000E+00 -0.00000000000E+00 -0.54698461716E+03  0.54698461716E+03  0.25500000000E-02 0. -1.
         11    1    1    2    0    0 -0.14496837271E+03  0.18216627456E+03  0.32096222986E+03  0.39650615843E+03  0.51100000000E-03 0. -1.
         22    1    1    2    0    0 -0.10510172183E+03 -0.24244727028E+03  0.57835783226E+03  0.63586542046E+03  0.00000000000E+00 0. -1.
          2    1    1    2  501    0  0.25007009454E+03  0.60280995718E+02 -0.44602882933E+03  0.51488888823E+03  0.25500000000E-02 0. -1.
<mgrwt>
<rscale>  0 0.25221521E+03</rscale>
<asrwt>0</asrwt>
<pdfrwt beam="1">  1       11 0.10000000E+01 0.23280975E+03</pdfrwt>
<pdfrwt beam="2">  1        2 0.84174690E-01 0.25221521E+03</pdfrwt>
<totfact> 0.70100681E+01</totfact>
</mgrwt>
</event>
<event>
 5    1  0.6729100E-004  0.5978370E+02  0.7818608E-02  0.1398742E+00
         11   -1    0    0    0    0  0.00000000000E+00  0.00000000000E+00  0.10003864216E+04  0.10003864216E+04  0.51100000000E-03 0. -1.
          2   -1    0    0  501    0 -0.00000000000E+00 -0.00000000000E+00 -0.14453079866E+02  0.14453080091E+02  0.25500000000E-02 0. -1.
         11    1    1    2    0    0  0.42177290289E+02  0.41238902322E+02  0.57487382110E+02  0.82367287092E+02  0.51100000000E-03 0. -1.
         22    1    1    2    0    0  0.11642116051E+02  0.33677423547E+01  0.59652638487E+02  0.60871321927E+02  0.00000000000E+00 0.  1.
          2    1    1    2  501    0 -0.53819406340E+02 -0.44606644677E+02  0.86879332116E+03  0.87160089270E+03  0.25500000000E-02 0. -1.
<mgrwt>
<rscale>  0 0.59783700E+02</rscale>
<asrwt>0</asrwt>
<pdfrwt beam="1">  1       11 0.10000000E+01 0.12119429E+02</pdfrwt>
<pdfrwt beam="2">  1        2 0.22244099E-02 0.59783700E+02</pdfrwt>
<totfact> 0.48779914E+03</totfact>
</mgrwt>
</event>
<event>
 5    1  0.6729100E-004  0.1725047E+03  0.7818608E-02  0.1175261E+00
         11   -1    0    0    0    0  0.00000000000E+00  0.00000000000E+00  0.99993470834E+03  0.99993470834E+03  0.51100000000E-03 0.  1.
          2   -1    0    0  501    0 -0.00000000000E+00 -0.00000000000E+00 -0.37344104723E+02  0.37344104810E+02  0.25500000000E-02 0.  1.
         11    1    1    2    0    0  0.14532606136E+03  0.81947199038E+02  0.72329136220E+03  0.74228390942E+03  0.51100000000E-03 0.  1.
         22    1    1    2    0    0 -0.11816222943E+03 -0.82559376919E+02  0.21292132219E+03  0.25712614147E+03  0.00000000000E+00 0.  1.
          2    1    1    2  501    0 -0.27163831927E+02  0.61217788040E+00  0.26377919218E+02  0.37868762265E+02  0.25500000000E-02 0.  1.
<mgrwt>
<rscale>  0 0.17250468E+03</rscale>
<asrwt>0</asrwt>
<pdfrwt beam="1">  1       11 0.10000000E+01 0.16683827E+03</pdfrwt>
<pdfrwt beam="2">  1        2 0.57448716E-02 0.17250468E+03</pdfrwt>
<totfact> 0.15577644E+03</totfact>
</mgrwt>
</event>
<event>
 5    1  0.6729100E-004  0.1137005E+03  0.7818608E-02  0.1253867E+00
         11   -1    0    0    0    0  0.00000000000E+00  0.00000000000E+00  0.10003727768E+04  0.10003727768E+04  0.51100000000E-03 0. -1.
          2   -1    0    0  501    0 -0.00000000000E+00 -0.00000000000E+00 -0.14278380237E+02  0.14278380465E+02  0.25500000000E-02 0. -1.
         11    1    1    2    0    0  0.99560522613E+02 -0.52349995414E+02  0.65473330448E+03  0.66432561269E+03  0.51100000000E-03 0. -1.
         22    1    1    2    0    0 -0.75326498875E+01  0.96446902738E+01  0.37059624540E+02  0.39027895611E+02  0.00000000000E+00 0. -1.
          2    1    1    2  501    0 -0.92027872726E+02  0.42705305140E+02  0.29430146758E+03  0.31129764900E+03  0.25500000000E-02 0. -1.
<mgrwt>
<rscale>  0 0.11370054E+03</rscale>
<asrwt>0</asrwt>
<pdfrwt beam="1">  1       11 0.10000000E+01 0.11248475E+03</pdfrwt>
<pdfrwt beam="2">  1        2 0.21974927E-02 0.11370054E+03</pdfrwt>
<totfact> 0.53848951E+03</totfact>
</mgrwt>
</event>
<event>
 5    1  0.6729100E-004  0.2950859E+03  0.7818608E-02  0.1087723E+00
         11   -1    0    0    0    0  0.00000000000E+00  0.00000000000E+00  0.99993181915E+03  0.99993181915E+03  0.51100000000E-03 0.  1.
          2   -1    0    0  501    0 -0.00000000000E+00 -0.00000000000E+00 -0.98350511662E+02  0.98350511695E+02  0.25500000000E-02 0.  1.
         11    1    1    2    0    0 -0.27963214372E+03  0.12325826206E+03  0.47100426504E+03  0.56145503173E+03  0.51100000000E-03 0.  1.
         22    1    1    2    0    0  0.19770171960E+02 -0.12950594054E+01  0.86445803771E+02  0.88687168563E+02  0.00000000000E+00 0. -1.
          2    1    1    2  501    0  0.25986197176E+03 -0.12196320266E+03  0.34413123867E+03  0.44814013055E+03  0.25500000000E-02 0.  1.
<mgrwt>
<rscale>  0 0.29508591E+03</rscale>
<asrwt>0</asrwt>
<pdfrwt beam="1">  1       11 0.10000000E+01 0.19812543E+02</pdfrwt>
<pdfrwt beam="2">  1        2 0.15129816E-01 0.29508591E+03</pdfrwt>
<totfact> 0.47689103E+02</totfact>
</mgrwt>
</event>
<event>
 5    1  0.6729100E-004  0.9114550E+02  0.7818608E-02  0.1300101E+00
         11   -1    0    0    0    0  0.00000000000E+00  0.00000000000E+00  0.10000495176E+04  0.10000495176E+04  0.51100000000E-03 0. -1.
          2   -1    0    0  501    0 -0.00000000000E+00 -0.00000000000E+00 -0.10176017263E+02  0.10176017583E+02  0.25500000000E-02 0. -1.
         11    1    1    2    0    0  0.94839428037E+02 -0.91726875846E+01  0.45395081806E+03  0.46384264629E+03  0.51100000000E-03 0. -1.
         22    1    1    2    0    0 -0.10255005655E+02 -0.15009277455E+02  0.10671321833E+03  0.10825042502E+03  0.00000000000E+00 0. -1.
          2    1    1    2  501    0 -0.84584422382E+02  0.24181965040E+02  0.42920946395E+03  0.43813246387E+03  0.25500000000E-02 0. -1.
<mgrwt>
<rscale>  0 0.91145500E+02</rscale>
<asrwt>0</asrwt>
<pdfrwt beam="1">  1       11 0.10000000E+01 0.18178106E+02</pdfrwt>
<pdfrwt beam="2">  1        2 0.15656186E-02 0.91145500E+02</pdfrwt>
<totfact> 0.82880476E+03</totfact>
</mgrwt>
</event>
<event>
 5    1  0.6729100E-004  0.2055451E+03  0.7818608E-02  0.1429360E+00
         11   -1    0    0    0    0  0.00000000000E+00  0.00000000000E+00  0.10004677507E+04  0.10004677507E+04  0.51100000000E-03 0.  1.
          2   -1    0    0  501    0 -0.00000000000E+00 -0.00000000000E+00 -0.17269261739E+03  0.17269261740E+03  0.25500000000E-02 0.  1.
         11    1    1    2    0    0 -0.17719056290E+03 -0.13696799453E+03  0.73586427423E+03  0.76918980570E+03  0.51100000000E-03 0.  1.
         22    1    1    2    0    0  0.14173335627E+03  0.97456007760E+02  0.21180379226E+03  0.27284952656E+03  0.00000000000E+00 0. -1.
          2    1    1    2  501    0  0.35457206629E+02  0.39511986771E+02 -0.11989293319E+03  0.13112103583E+03  0.25500000000E-02 0.  1.
<mgrwt>
<rscale>  0 0.53088705E+02</rscale>
<asrwt>0</asrwt>
<pdfrwt beam="1">  1       11 0.10000000E+01 0.20554508E+03</pdfrwt>
<pdfrwt beam="2">  1        2 0.26580521E-01 0.53088705E+02</pdfrwt>
<totfact> 0.23844432E+02</totfact>
</mgrwt>
</event>
<event>
 5    1  0.6729100E-004  0.1191751E+03  0.7818608E-02  0.1244464E+00
         11   -1    0    0    0    0  0.00000000000E+00  0.00000000000E+00  0.10000347715E+04  0.10000347715E+04  0.51100000000E-03 0. -1.
          2   -1    0    0  501    0 -0.00000000000E+00 -0.00000000000E+00 -0.16689085423E+02  0.16689085618E+02  0.25500000000E-02 0. -1.
         11    1    1    2    0    0 -0.46307670156E+02 -0.11213314493E+03  0.40708250751E+03  0.42477571780E+03  0.51100000000E-03 0. -1.
         22    1    1    2    0    0 -0.13941879924E+02  0.11519333454E+02  0.75304790362E+02  0.77445997382E+02  0.00000000000E+00 0. -1.
          2    1    1    2  501    0  0.60249550080E+02  0.10061381148E+03  0.50095838825E+03  0.51450214199E+03  0.25500000000E-02 0. -1.
<mgrwt>
<rscale>  0 0.11917506E+03</rscale>
<asrwt>0</asrwt>
<pdfrwt beam="1">  1       11 0.10000000E+01 0.18085106E+02</pdfrwt>
<pdfrwt beam="2">  1        2 0.25676408E-02 0.11917506E+03</pdfrwt>
<totfact> 0.43872848E+03</totfact>
</mgrwt>
</event>
<event>
 5    1  0.6729100E-004  0.1457594E+03  0.7818608E-02  0.1218622E+00
         11   -1    0    0    0    0  0.00000000000E+00  0.00000000000E+00  0.99994825401E+03  0.99994825401E+03  0.51100000000E-03 0. -1.
          2   -1    0    0  501    0 -0.00000000000E+00 -0.00000000000E+00 -0.98665696132E+03  0.98665696132E+03  0.25500000000E-02 0. -1.
         11    1    1    2    0    0 -0.14000245349E+03 -0.29285754589E+02  0.54067876679E+03  0.55927799104E+03  0.51100000000E-03 0. -1.
         22    1    1    2    0    0  0.10058308931E+03  0.15959170818E+03  0.42514362819E+03  0.46511673348E+03  0.00000000000E+00 0. -1.
          2    1    1    2  501    0  0.39419364180E+02 -0.13030595359E+03 -0.95253110228E+03  0.96221049081E+03  0.25500000000E-02 0. -1.
<mgrwt>
<rscale>  0 0.13613790E+03</rscale>
<asrwt>0</asrwt>
<pdfrwt beam="1">  1       11 0.10000000E+01 0.14575940E+03</pdfrwt>
<pdfrwt beam="2">  1        2 0.15178552E+00 0.13613790E+03</pdfrwt>
<totfact> 0.34599055E+01</totfact>
</mgrwt>
</event>
<event>
 5    1  0.6729100E-004  0.1395851E+03  0.7818608E-02  0.1213888E+00
         11   -1    0    0    0    0  0.00000000000E+00  0.00000000000E+00  0.10000007041E+04  0.10000007041E+04  0.51100000000E-03 0.  1.
          2   -1    0    0  501    0 -0.00000000000E+00 -0.00000000000E+00 -0.11906623170E+04  0.11906623170E+04  0.25500000000E-02 0.  1.
         11    1    1    2    0    0  0.97013987240E+02 -0.13133873881E+03  0.85615873649E+03  0.87159013309E+03  0.51100000000E-03 0.  1.
         22    1    1    2    0    0 -0.37500782096E+02  0.51851039880E+01  0.12929064683E+03  0.13471920917E+03  0.00000000000E+00 0. -1.
          2    1    1    2  501    0 -0.59513205144E+02  0.12615363482E+03 -0.11761109962E+04  0.11843536788E+04  0.25500000000E-02 0.  1.
<mgrwt>
<rscale>  0 0.13958509E+03</rscale>
<asrwt>0</asrwt>
<pdfrwt beam="1">  1       11 0.10000000E+01 0.37857548E+02</pdfrwt>
<pdfrwt beam="2">  1        2 0.18317894E+00 0.13958509E+03</pdfrwt>
<totfact> 0.26355288E+01</totfact>
</mgrwt>
</event>
<event>
 5    1  0.6729100E-004  0.2767719E+03  0.7818608E-02  0.1097465E+00
         11   -1    0    0    0    0  0.00000000000E+00  0.00000000000E+00  0.10000791916E+04  0.10000791916E+04  0.51100000000E-03 0. -1.
          2   -1    0    0  501    0 -0.00000000000E+00 -0.00000000000E+00 -0.22762917145E+03  0.22762917147E+03  0.25500000000E-02 0. -1.
         11    1    1    2    0    0 -0.19868417749E+03  0.15760955958E+03  0.65079441487E+03  0.69846227248E+03  0.51100000000E-03 0. -1.
         22    1    1    2    0    0 -0.37707567084E+02 -0.70244334302E+01  0.22670461291E+03  0.22992647693E+03  0.00000000000E+00 0. -1.
          2    1    1    2  501    0  0.23639174457E+03 -0.15058512615E+03 -0.10504900762E+03  0.29931961367E+03  0.25500000000E-02 0. -1.
<mgrwt>
<rscale>  0 0.27677195E+03</rscale>
<asrwt>0</asrwt>
<pdfrwt beam="1">  1       11 0.10000000E+01 0.38356268E+02</pdfrwt>
<pdfrwt beam="2">  1        2 0.35022645E-01 0.27677195E+03</pdfrwt>
<totfact> 0.18318016E+02</totfact>
</mgrwt>
</event>
<event>
 5    1  0.6729100E-004  0.7991833E+02  0.7818608E-02  0.1329283E+00
         11   -1    0    0    0    0  0.00000000000E+00  0.00000000000E+00  0.10001786805E+04  0.10001786805E+04  0.51100000000E-03 0. -1.
          2   -1    0    0  501    0 -0.00000000000E+00 -0.00000000000E+00 -0.15245014249E+04  0.15245014249E+04  0.25500000000E-02 0.  1.
         11    1    1    2    0    0 -0.51200014269E+02  0.13863312850E+03  0.64844394722E+03  0.66507152883E+03  0.51100000000E-03 0. -1.
         22    1    1    2    0    0  0.19022488064E+02 -0.65597235814E+02  0.33896199453E+03  0.34577461754E+03  0.00000000000E+00 0.  1.
          2    1    1    2  501    0  0.32177526205E+02 -0.73035892689E+02 -0.15117286861E+04  0.15138339590E+04  0.25500000000E-02 0.  1.
<mgrwt>
<rscale>  0 0.79918326E+02</rscale>
<asrwt>0</asrwt>
<pdfrwt beam="1">  1       11 0.10000000E+01 0.68299725E+02</pdfrwt>
<pdfrwt beam="2">  1        2 0.23458058E+00 0.79918326E+02</pdfrwt>
<totfact> 0.18282670E+01</totfact>
</mgrwt>
</event>
<event>
 5    1  0.6729100E-004  0.2293071E+03  0.7818608E-02  0.1127128E+00
         11   -1    0    0    0    0  0.00000000000E+00  0.00000000000E+00  0.10003300300E+04  0.10003300300E+04  0.51100000000E-03 0. -1.
          2   -1    0    0  501    0 -0.00000000000E+00 -0.00000000000E+00 -0.10822906140E+03  0.10822906143E+03  0.25500000000E-02 0. -1.
         11    1    1    2    0    0  0.22120313968E+01  0.29819384064E+03  0.49221660138E+03  0.57550120969E+03  0.51100000000E-03 0. -1.
         22    1    1    2    0    0  0.78680103997E+02 -0.10785443704E+03  0.22768438568E+03  0.26393809470E+03  0.00000000000E+00 0.  1.
          2    1    1    2  501    0 -0.80892135394E+02 -0.19033940360E+03  0.17219998155E+03  0.26911978706E+03  0.25500000000E-02 0. -1.
<mgrwt>
<rscale>  0 0.22930712E+03</rscale>
<asrwt>0</asrwt>
<pdfrwt beam="1">  1       11 0.10000000E+01 0.13350333E+03</pdfrwt>
<pdfrwt beam="2">  1        2 0.16656120E-01 0.22930712E+03</pdfrwt>
<totfact> 0.42204451E+02</totfact>
</mgrwt>
</event>
<event>
 5    1  0.6729100E-004  0.1833283E+03  0.7818608E-02  0.1164620E+00
         11   -1    0    0    0    0  0.00000000000E+00  0.00000000000E+00  0.99968564216E+03  0.99968564216E+03  0.51100000000E-03 0.  1.
          2   -1    0    0  501    0 -0.00000000000E+00 -0.00000000000E+00 -0.72451419209E+02  0.72451419254E+02  0.25500000000E-02 0.  1.
         11    1    1    2    0    0  0.68131564663E+02  0.17778071533E+03  0.99219496738E+02  0.21469140966E+03  0.51100000000E-03 0.  1.
         22    1    1    2    0    0 -0.57146566423E+02 -0.19213016793E+02  0.16577063351E+03  0.17639380092E+03  0.00000000000E+00 0.  1.
          2    1    1    2  501    0 -0.10984998239E+02 -0.15856769854E+03  0.66224409270E+03  0.68105185084E+03  0.25500000000E-02 0.  1.
<mgrwt>
<rscale>  0 0.18332833E+03</rscale>
<asrwt>0</asrwt>
<pdfrwt beam="1">  1       11 0.10000000E+01 0.60289884E+02</pdfrwt>
<pdfrwt beam="2">  1        2 0.11142868E-01 0.18332833E+03</pdfrwt>
<totfact> 0.67685807E+02</totfact>
</mgrwt>
</event>
<event>
 5    1  0.6729100E-004  0.2394449E+03  0.7818608E-02  0.1127868E+00
         11   -1    0    0    0    0  0.00000000000E+00  0.00000000000E+00  0.10002290662E+04  0.10002290662E+04  0.51100000000E-03 0. -1.
          2   -1    0    0  501    0 -0.00000000000E+00 -0.00000000000E+00 -0.70057939529E+02  0.70057939575E+02  0.25500000000E-02 0. -1.
         11    1    1    2    0    0  0.18689245235E+03 -0.10389067901E+03  0.63357959097E+03  0.66868913556E+03  0.51100000000E-03 0. -1.
         22    1    1    2    0    0  0.13731725846E+01 -0.25184852984E+02  0.90885701259E+02  0.94320586915E+02  0.00000000000E+00 0.  1.
          2    1    1    2  501    0 -0.18826562494E+03  0.12907553200E+03  0.20570583443E+03  0.30727728328E+03  0.25500000000E-02 0. -1.
<mgrwt>
<rscale>  0 0.22826397E+03</rscale>
<asrwt>0</asrwt>
<pdfrwt beam="1">  1       11 0.10000000E+01 0.23944494E+03</pdfrwt>
<pdfrwt beam="2">  1        2 0.10780613E-01 0.22826397E+03</pdfrwt>
<totfact> 0.71234017E+02</totfact>
</mgrwt>
</event>
<event>
 5    1  0.6729100E-004  0.4661297E+03  0.7818608E-02  0.1023018E+00
         11   -1    0    0    0    0  0.00000000000E+00  0.00000000000E+00  0.10003275563E+04  0.10003275563E+04  0.51100000000E-03 0. -1.
          2   -1    0    0  501    0 -0.00000000000E+00 -0.00000000000E+00 -0.12832484814E+04  0.12832484814E+04  0.25500000000E-02 0. -1.
         11    1    1    2    0    0  0.42839198159E+03 -0.56302627691E+02  0.69575279897E+03  0.81900038647E+03  0.51100000000E-03 0. -1.
         22    1    1    2    0    0  0.26417608077E+02 -0.55302364667E+02  0.19315044209E+03  0.20264090119E+03  0.00000000000E+00 0.  1.
          2    1    1    2  501    0 -0.45480958966E+03  0.11160499236E+03 -0.11718241661E+04  0.12619347501E+04  0.25500000000E-02 0. -1.
<mgrwt>
<rscale>  0 0.46612974E+03</rscale>
<asrwt>0</asrwt>
<pdfrwt beam="1">  1       11 0.10000000E+01 0.61288184E+02</pdfrwt>
<pdfrwt beam="2">  1        2 0.19748750E+00 0.46612974E+03</pdfrwt>
<totfact> 0.21711711E+01</totfact>
</mgrwt>
</event>
<event>
 5    1  0.6729100E-004  0.1744039E+03  0.7818608E-02  0.1173332E+00
         11   -1    0    0    0    0  0.00000000000E+00  0.00000000000E+00  0.10002637062E+04  0.10002637062E+04  0.51100000000E-03 0.  1.
          2   -1    0    0  501    0 -0.00000000000E+00 -0.00000000000E+00 -0.46427792925E+03  0.46427792926E+03  0.25500000000E-02 0.  1.
         11    1    1    2    0    0 -0.14456755056E+03 -0.13416010727E+03  0.87745073535E+03  0.89934337382E+03  0.51100000000E-03 0.  1.
         22    1    1    2    0    0 -0.27764531606E+01  0.41544353300E+02  0.90431359138E+02  0.99556379499E+02  0.00000000000E+00 0. -1.
          2    1    1    2  501    0  0.14734400372E+03  0.92615753972E+02 -0.43189631753E+03  0.46564188215E+03  0.25500000000E-02 0.  1.
<mgrwt>
<rscale>  0 0.17440388E+03</rscale>
<asrwt>0</asrwt>
<pdfrwt beam="1">  1       11 0.10000000E+01 0.41637027E+02</pdfrwt>
<pdfrwt beam="2">  1        2 0.71446208E-01 0.17440388E+03</pdfrwt>
<totfact> 0.84694272E+01</totfact>
</mgrwt>
</event>
<event>
 5    1  0.6729100E-004  0.3801709E+03  0.7818608E-02  0.1114045E+00
         11   -1    0    0    0    0  0.00000000000E+00  0.00000000000E+00  0.10000962625E+04  0.10000962625E+04  0.51100000000E-03 0. -1.
          2   -1    0    0  501    0 -0.00000000000E+00 -0.00000000000E+00 -0.36988375869E+03  0.36988375869E+03  0.25500000000E-02 0. -1.
         11    1    1    2    0    0  0.35476017217E+03 -0.51967234223E+02  0.59712456534E+03  0.69650062435E+03  0.51100000000E-03 0. -1.
         22    1    1    2    0    0  0.11888517578E+03 -0.11132080222E+03  0.55259184848E+02  0.17198716096E+03  0.00000000000E+00 0. -1.
          2    1    1    2  501    0 -0.47364534795E+03  0.16328803644E+03 -0.22171246374E+02  0.50149223588E+03  0.25500000000E-02 0. -1.
<mgrwt>
<rscale>  0 0.24883266E+03</rscale>
<asrwt>0</asrwt>
<pdfrwt beam="1">  1       11 0.10000000E+01 0.38017087E+03</pdfrwt>
<pdfrwt beam="2">  1        2 0.56910670E-01 0.24883266E+03</pdfrwt>
<totfact> 0.10816806E+02</totfact>
</mgrwt>
</event>
<event>
 5    1  0.6729100E-004  0.3770031E+03  0.7818608E-02  0.1052047E+00
         11   -1    0    0    0    0  0.00000000000E+00  0.00000000000E+00  0.10002023677E+04  0.10002023677E+04  0.51100000000E-03 0.  1.
          2   -1    0    0  501    0 -0.00000000000E+00 -0.00000000000E+00 -0.25032947950E+03  0.25032947951E+03  0.25500000000E-02 0.  1.
         11    1    1    2    0    0  0.38848567945E+03  0.37381851528E+02  0.66086629997E+03  0.76750426214E+03  0.51100000000E-03 0.  1.
         22    1    1    2    0    0 -0.15430365071E+02 -0.14790758740E+02  0.10674910272E+03  0.10886796426E+03  0.00000000000E+00 0.  1.
          2    1    1    2  501    0 -0.37305531437E+03 -0.22591092788E+02 -0.17742514446E+02  0.37415962086E+03  0.25500000000E-02 0.  1.
<mgrwt>
<rscale>  0 0.37700313E+03</rscale>
<asrwt>0</asrwt>
<pdfrwt beam="1">  1       11 0.10000000E+01 0.21374347E+02</pdfrwt>
<pdfrwt beam="2">  1        2 0.38520020E-01 0.37700313E+03</pdfrwt>
<totfact> 0.16542481E+02</totfact>
</mgrwt>
</event>
<event>
 5    1  0.6729100E-004  0.2414618E+03  0.7818608E-02  0.1118823E+00
         11   -1    0    0    0    0  0.00000000000E+00  0.00000000000E+00  0.10002187660E+04  0.10002187660E+04  0.51100000000E-03 0. -1.
          2   -1    0    0  501    0 -0.00000000000E+00 -0.00000000000E+00 -0.15367807992E+03  0.15367807994E+03  0.25500000000E-02 0. -1.
         11    1    1    2    0    0 -0.19392092709E+03 -0.15042812658E+03  0.81989275415E+03  0.85583764555E+03  0.51100000000E-03 0. -1.
         22    1    1    2    0    0  0.93191505263E+01 -0.44614473365E+01  0.54509083076E+02  0.55479646869E+02  0.00000000000E+00 0.  1.
          2    1    1    2  501    0  0.18460177657E+03  0.15488957392E+03 -0.27861151183E+02  0.24257955349E+03  0.25500000000E-02 0. -1.
<mgrwt>
<rscale>  0 0.24146178E+03</rscale>
<asrwt>0</asrwt>
<pdfrwt beam="1">  1       11 0.10000000E+01 0.10332041E+02</pdfrwt>
<pdfrwt beam="2">  1        2 0.23647953E-01 0.24146178E+03</pdfrwt>
<totfact> 0.28248389E+02</totfact>
</mgrwt>
</event>
<event>
 5    1  0.6729100E-004  0.1555607E+03  0.7818608E-02  0.1333674E+00
         11   -1    0    0    0    0  0.00000000000E+00  0.00000000000E+00  0.10000775639E+04  0.10000775639E+04  0.51100000000E-03 0. -1.
          2   -1    0    0  501    0 -0.00000000000E+00 -0.00000000000E+00 -0.89303175640E+03  0.89303175640E+03  0.25500000000E-02 0. -1.
         11    1    1    2    0    0 -0.22640691029E+03  0.35806940674E+02 -0.22473187803E+01  0.22923192725E+03  0.51100000000E-03 0. -1.
         22    1    1    2    0    0  0.14812956911E+03 -0.31546982507E+02  0.87810953580E+03  0.89107459745E+03  0.00000000000E+00 0. -1.
          2    1    1    2  501    0  0.78277341179E+02 -0.42599581668E+01 -0.76881640951E+03  0.77280279562E+03  0.25500000000E-02 0. -1.
<mgrwt>
<rscale>  0 0.78393172E+02</rscale>
<asrwt>0</asrwt>
<pdfrwt beam="1">  1       11 0.10000000E+01 0.15556066E+03</pdfrwt>
<pdfrwt beam="2">  1        2 0.13740015E+00 0.78393172E+02</pdfrwt>
<totfact> 0.40474405E+01</totfact>
</mgrwt>
</event>
<event>
 5    1  0.6729100E-004  0.1219941E+03  0.7818608E-02  0.1350313E+00
         11   -1    0    0    0    0  0.00000000000E+00  0.00000000000E+00  0.99982816069E+03  0.99982816069E+03  0.51100000000E-03 0. -1.
         -2   -1    0    0    0  501 -0.00000000000E+00 -0.00000000000E+00 -0.45106809147E+02  0.45106809219E+02  0.25500000000E-02 0.  1.
         11    1    1    2    0    0 -0.14110071558E+03  0.73228680450E+02  0.68910865317E+03  0.70720759855E+03  0.51100000000E-03 0. -1.
         22    1    1    2    0    0  0.87057376518E+02 -0.24216498327E+02  0.24615841013E+03  0.26222011455E+03  0.00000000000E+00 0.  1.
         -2    1    1    2    0  501  0.54043339063E+02 -0.49012182123E+02  0.19454288252E+02  0.75507256812E+02  0.25500000000E-02 0.  1.
<mgrwt>
<rscale>  0 0.72958046E+02</rscale>
<asrwt>0</asrwt>
<pdfrwt beam="1">  1       11 0.10000000E+01 0.12199411E+03</pdfrwt>
<pdfrwt beam="2">  1       -2 0.69383164E-02 0.72958046E+02</pdfrwt>
<totfact> 0.85492329E+02</totfact>
</mgrwt>
</event>
<event>
 5    1  0.6729100E-004  0.4263897E+03  0.7818608E-02  0.1035007E+00
         11   -1    0    0    0    0  0.00000000000E+00  0.00000000000E+00  0.99965213407E+03  0.99965213407E+03  0.51100000000E-03 0.  1.
          2   -1    0    0  501    0 -0.00000000000E+00 -0.00000000000E+00 -0.12052612900E+04  0.12052612900E+04  0.25500000000E-02 0.  1.
         11    1    1    2    0    0 -0.19080521895E+03  0.38472624186E+03  0.87778681865E+03  0.97720551152E+03  0.51100000000E-03 0.  1.
         22    1    1    2    0    0 -0.72289449408E+01 -0.72555890735E+01  0.32019086397E+02  0.33617303751E+02  0.00000000000E+00 0.  1.
          2    1    1    2  501    0  0.19803416389E+03 -0.37747065279E+03 -0.11154150609E+04  0.11940906088E+04  0.25500000000E-02 0.  1.
<mgrwt>
<rscale>  0 0.42638969E+03</rscale>
<asrwt>0</asrwt>
<pdfrwt beam="1">  1       11 0.10000000E+01 0.10242130E+02</pdfrwt>
<pdfrwt beam="2">  1        2 0.18536031E+00 0.42638969E+03</pdfrwt>
<totfact> 0.24222498E+01</totfact>
</mgrwt>
</event>
<event>
 5    1  0.6729100E-004  0.1553221E+03  0.7818608E-02  0.1202519E+00
         11   -1    0    0    0    0  0.00000000000E+00  0.00000000000E+00  0.10004168352E+04  0.10004168352E+04  0.51100000000E-03 0. -1.
          2   -1    0    0  501    0 -0.00000000000E+00 -0.00000000000E+00 -0.31603797866E+02  0.31603797969E+02  0.25500000000E-02 0. -1.
         11    1    1    2    0    0 -0.30430579921E+02 -0.13371194927E+03  0.68275101622E+03  0.69638628341E+03  0.51100000000E-03 0. -1.
         22    1    1    2    0    0 -0.16646428090E+02 -0.69674663532E+01  0.78260670158E+02  0.80314268030E+02  0.00000000000E+00 0. -1.
          2    1    1    2  501    0  0.47077008011E+02  0.14067941563E+03  0.20780135091E+03  0.25532008168E+03  0.25500000000E-02 0. -1.
<mgrwt>
<rscale>  0 0.14834737E+03</rscale>
<asrwt>0</asrwt>
<pdfrwt beam="1">  1       11 0.10000000E+01 0.15532212E+03</pdfrwt>
<pdfrwt beam="2">  1        2 0.48641493E-02 0.14834737E+03</pdfrwt>
<totfact> 0.19136677E+03</totfact>
</mgrwt>
</event>
<event>
 5    1  0.6729100E-004  0.1413109E+03  0.7818608E-02  0.1214692E+00
         11   -1    0    0    0    0  0.00000000000E+00  0.00000000000E+00  0.10002809908E+04  0.10002809908E+04  0.51100000000E-03 0. -1.
         -2   -1    0    0    0  501 -0.00000000000E+00 -0.00000000000E+00 -0.24823876149E+02  0.24823876280E+02  0.25500000000E-02 0.  1.
         11    1    1    2    0    0  0.61071187596E+02 -0.90967356215E+02  0.55467747648E+03  0.56539530664E+03  0.51100000000E-03 0. -1.
         22    1    1    2    0    0  0.50326679135E+01 -0.31298953593E+02  0.17053013703E+03  0.17345166438E+03  0.00000000000E+00 0.  1.
         -2    1    1    2    0  501 -0.66103855510E+02  0.12226630981E+03  0.25024950111E+03  0.28625789603E+03  0.25500000000E-02 0.  1.
<mgrwt>
<rscale>  0 0.13899198E+03</rscale>
<asrwt>0</asrwt>
<pdfrwt beam="1">  1       11 0.10000000E+01 0.14131088E+03</pdfrwt>
<pdfrwt beam="2">  1       -2 0.38201309E-02 0.13899198E+03</pdfrwt>
<totfact> 0.22123597E+03</totfact>
</mgrwt>
</event>
<event>
 5    1  0.6729100E-004  0.2691120E+03  0.7818608E-02  0.1101789E+00
         11   -1    0    0    0    0  0.00000000000E+00  0.00000000000E+00  0.10003876245E+04  0.10003876245E+04  0.51100000000E-03 0. -1.
          2   -1    0    0  501    0 -0.00000000000E+00 -0.00000000000E+00 -0.96533242960E+03  0.96533242960E+03  0.25500000000E-02 0. -1.
         11    1    1    2    0    0  0.69864533856E+02  0.16854013573E+03  0.12322691708E+03  0.22016290227E+03  0.51100000000E-03 0. -1.
         22    1    1    2    0    0  0.13208737501E+03  0.28078310630E+02  0.80124682297E+03  0.81254657558E+03  0.00000000000E+00 0. -1.
          2    1    1    2  501    0 -0.20195190886E+03 -0.19661844636E+03 -0.88941854515E+03  0.93301057625E+03  0.25500000000E-02 0. -1.
<mgrwt>
<rscale>  0 0.26911199E+03</rscale>
<asrwt>0</asrwt>
<pdfrwt beam="1">  1       11 0.10000000E+01 0.13503876E+03</pdfrwt>
<pdfrwt beam="2">  1        2 0.14857024E+00 0.26911199E+03</pdfrwt>
<totfact> 0.34504827E+01</totfact>
</mgrwt>
</event>
<event>
 5    1  0.6729100E-004  0.1662424E+03  0.7818608E-02  0.1181824E+00
         11   -1    0    0    0    0  0.00000000000E+00  0.00000000000E+00  0.10001566108E+04  0.10001566108E+04  0.51100000000E-03 0. -1.
          2   -1    0    0  501    0 -0.00000000000E+00 -0.00000000000E+00 -0.70265113166E+03  0.70265113167E+03  0.25500000000E-02 0. -1.
         11    1    1    2    0    0 -0.15241931934E+03  0.10307178468E+03  0.81743174979E+03  0.83788430423E+03  0.51100000000E-03 0. -1.
         22    1    1    2    0    0 -0.15042759564E+01 -0.40711836746E+02  0.15995016617E+03  0.16505687552E+03  0.00000000000E+00 0. -1.
          2    1    1    2  501    0  0.15392359529E+03 -0.62359947938E+02 -0.67987643682E+03  0.69986656274E+03  0.25500000000E-02 0. -1.
<mgrwt>
<rscale>  0 0.16624239E+03</rscale>
<asrwt>0</asrwt>
<pdfrwt beam="1">  1       11 0.10000000E+01 0.40739618E+02</pdfrwt>
<pdfrwt beam="2">  1        2 0.10811710E+00 0.16624239E+03</pdfrwt>
<totfact> 0.52881419E+01</totfact>
</mgrwt>
</event>
<event>
 5    1  0.6729100E-004  0.1723998E+03  0.7818608E-02  0.1175368E+00
         11   -1    0    0    0    0  0.00000000000E+00  0.00000000000E+00  0.10004115986E+04  0.10004115986E+04  0.51100000000E-03 0. -1.
         -2   -1    0    0    0  501 -0.00000000000E+00 -0.00000000000E+00 -0.19107452087E+03  0.19107452089E+03  0.25500000000E-02 0.  1.
         11    1    1    2    0    0  0.53529751827E+02 -0.22448499014E+03  0.45580621499E+03  0.51089945269E+03  0.51100000000E-03 0. -1.
         22    1    1    2    0    0  0.56483242393E+02  0.96140447019E+02  0.46494642361E+03  0.47813023231E+03  0.00000000000E+00 0.  1.
         -2    1    1    2    0  501 -0.11001299422E+03  0.12834454312E+03 -0.11141556089E+03  0.20245643447E+03  0.25500000000E-02 0.  1.
<mgrwt>
<rscale>  0 0.17239980E+03</rscale>
<asrwt>0</asrwt>
<pdfrwt beam="1">  1       11 0.10000000E+01 0.11150490E+03</pdfrwt>
<pdfrwt beam="2">  1       -2 0.29408179E-01 0.17239980E+03</pdfrwt>
<totfact> 0.84918084E+01</totfact>
</mgrwt>
</event>
<event>
 5    1  0.6729100E-004  0.7317682E+02  0.7818608E-02  0.1349612E+00
         11   -1    0    0    0    0  0.00000000000E+00  0.00000000000E+00  0.10002908191E+04  0.10002908191E+04  0.51100000000E-03 0. -1.
          2   -1    0    0  501    0 -0.00000000000E+00 -0.00000000000E+00 -0.10113547277E+03  0.10113547280E+03  0.25500000000E-02 0. -1.
         11    1    1    2    0    0  0.61196351258E+02  0.97387188257E+02  0.64180426519E+03  0.65202911948E+03  0.51100000000E-03 0. -1.
         22    1    1    2    0    0  0.17268715353E+01 -0.61276574073E+02  0.33649489686E+03  0.34203306306E+03  0.00000000000E+00 0.  1.
          2    1    1    2  501    0 -0.62923222793E+02 -0.36110614184E+02 -0.79143815663E+02  0.10736410940E+03  0.25500000000E-02 0. -1.
<mgrwt>
<rscale>  0 0.73176820E+02</rscale>
<asrwt>0</asrwt>
<pdfrwt beam="1">  1       11 0.10000000E+01 0.61300902E+02</pdfrwt>
<pdfrwt beam="2">  1        2 0.15563828E-01 0.73176820E+02</pdfrwt>
<totfact> 0.43570327E+02</totfact>
</mgrwt>
</event>
<event>
 5    1  0.6729100E-004  0.2060645E+03  0.7818608E-02  0.1144721E+00
         11   -1    0    0    0    0  0.00000000000E+00  0.00000000000E+00  0.10001214843E+04  0.10001214843E+04  0.51100000000E-03 0.  1.
          2   -1    0    0  501    0 -0.00000000000E+00 -0.00000000000E+00 -0.66142914695E+03  0.66142914696E+03  0.25500000000E-02 0.  1.
         11    1    1    2    0    0 -0.12794619860E+02 -0.21961641731E+03  0.89324961560E+03  0.91994018764E+03  0.51100000000E-03 0.  1.
         22    1    1    2    0    0  0.59454856506E+01  0.13915996296E+02  0.76425637478E+02  0.77909446259E+02  0.00000000000E+00 0.  1.
          2    1    1    2  501    0  0.68491342098E+01  0.20570042101E+03 -0.63098291577E+03  0.66370099732E+03  0.25500000000E-02 0.  1.
<mgrwt>
<rscale>  0 0.20606447E+03</rscale>
<asrwt>0</asrwt>
<pdfrwt beam="1">  1       11 0.10000000E+01 0.15132870E+02</pdfrwt>
<pdfrwt beam="2">  1        2 0.10177069E+00 0.20606447E+03</pdfrwt>
<totfact> 0.56487244E+01</totfact>
</mgrwt>
</event>
<event>
 5    1  0.6729100E-004  0.1235182E+03  0.7818608E-02  0.1346588E+00
         11   -1    0    0    0    0  0.00000000000E+00  0.00000000000E+00  0.10000018049E+04  0.10000018049E+04  0.51100000000E-03 0. -1.
          2   -1    0    0  501    0 -0.00000000000E+00 -0.00000000000E+00 -0.32637001580E+03  0.32637001581E+03  0.25500000000E-02 0.  1.
         11    1    1    2    0    0 -0.11303389059E+03  0.10073186787E+03  0.76337333418E+03  0.77824316056E+03  0.51100000000E-03 0. -1.
         22    1    1    2    0    0  0.86944435851E+02 -0.31345026356E+02  0.21525250609E+03  0.23425517493E+03  0.00000000000E+00 0. -1.
          2    1    1    2  501    0  0.26089454737E+02 -0.69386841509E+02 -0.30499405121E+03  0.31387348518E+03  0.25500000000E-02 0.  1.
<mgrwt>
<rscale>  0 0.74129572E+02</rscale>
<asrwt>0</asrwt>
<pdfrwt beam="1">  1       11 0.10000000E+01 0.12351820E+03</pdfrwt>
<pdfrwt beam="2">  1        2 0.50210861E-01 0.74129572E+02</pdfrwt>
<totfact> 0.12361960E+02</totfact>
</mgrwt>
</event>
<event>
 5    1  0.6729100E-004  0.1650090E+03  0.7818608E-02  0.1183155E+00
         11   -1    0    0    0    0  0.00000000000E+00  0.00000000000E+00  0.10001382255E+04  0.10001382255E+04  0.51100000000E-03 0. -1.
          2   -1    0    0  501    0 -0.00000000000E+00 -0.00000000000E+00 -0.83175383130E+03  0.83175383130E+03  0.25500000000E-02 0. -1.
         11    1    1    2    0    0  0.68219707442E+02  0.10080139534E+03  0.23115189562E+03  0.26123944693E+03  0.51100000000E-03 0. -1.
         22    1    1    2    0    0  0.83450593600E+02 -0.16642265713E+03  0.73383825536E+03  0.75708591812E+03  0.00000000000E+00 0. -1.
          2    1    1    2  501    0 -0.15167030104E+03  0.65621261793E+02 -0.79660575677E+03  0.81356669176E+03  0.25500000000E-02 0. -1.
<mgrwt>
<rscale>  0 0.16500896E+03</rscale>
<asrwt>0</asrwt>
<pdfrwt beam="1">  1       11 0.10000000E+01 0.12171627E+03</pdfrwt>
<pdfrwt beam="2">  1        2 0.12797981E+00 0.16500896E+03</pdfrwt>
<totfact> 0.42955859E+01</totfact>
</mgrwt>
</event>
<event>
 5    1  0.6729100E-004  0.2222790E+03  0.7818608E-02  0.1132195E+00
         11   -1    0    0    0    0  0.00000000000E+00  0.00000000000E+00  0.10002004488E+04  0.10002004488E+04  0.51100000000E-03 0. -1.
          2   -1    0    0  501    0 -0.00000000000E+00 -0.00000000000E+00 -0.23455359260E+03  0.23455359261E+03  0.25500000000E-02 0.  1.
         11    1    1    2    0    0 -0.96037392128E+02 -0.25726020107E+03  0.56892645051E+03  0.63173039964E+03  0.51100000000E-03 0. -1.
         22    1    1    2    0    0 -0.65642950033E+02  0.10870140854E+03  0.32486195336E+03  0.34879833980E+03  0.00000000000E+00 0.  1.
          2    1    1    2  501    0  0.16168034216E+03  0.14855879254E+03 -0.12814154771E+03  0.25422530192E+03  0.25500000000E-02 0.  1.
<mgrwt>
<rscale>  0 0.22227901E+03</rscale>
<asrwt>0</asrwt>
<pdfrwt beam="1">  1       11 0.10000000E+01 0.12698422E+03</pdfrwt>
<pdfrwt beam="2">  1        2 0.36092400E-01 0.22227901E+03</pdfrwt>
<totfact> 0.17688746E+02</totfact>
</mgrwt>
</event>
<event>
 5    1  0.6729100E-004  0.1704990E+03  0.7818608E-02  0.1177328E+00
         11   -1    0    0    0    0  0.00000000000E+00  0.00000000000E+00  0.10004710376E+04  0.10004710376E+04  0.51100000000E-03 0. -1.
          2   -1    0    0  501    0 -0.00000000000E+00 -0.00000000000E+00 -0.87508218711E+02  0.87508218748E+02  0.25500000000E-02 0. -1.
         11    1    1    2    0    0  0.10224969959E+03 -0.14107524579E+03  0.80601704914E+03  0.82463368203E+03  0.51100000000E-03 0. -1.
         22    1    1    2    0    0  0.95820886845E+01  0.12846815216E+02  0.91062537925E+02  0.92462116016E+02  0.00000000000E+00 0. -1.
          2    1    1    2  501    0 -0.11183178827E+03  0.12822843057E+03  0.15883231870E+02  0.17088345834E+03  0.25500000000E-02 0. -1.
<mgrwt>
<rscale>  0 0.17049905E+03</rscale>
<asrwt>0</asrwt>
<pdfrwt beam="1">  1       11 0.10000000E+01 0.16026762E+02</pdfrwt>
<pdfrwt beam="2">  1        2 0.13469144E-01 0.17049905E+03</pdfrwt>
<totfact> 0.53649458E+02</totfact>
</mgrwt>
</event>
<event>
 5    1  0.6729100E-004  0.1102421E+03  0.7818608E-02  0.1643007E+00
         11   -1    0    0    0    0  0.00000000000E+00  0.00000000000E+00  0.10004568279E+04  0.10004568279E+04  0.51100000000E-03 0. -1.
          2   -1    0    0  501    0 -0.00000000000E+00 -0.00000000000E+00 -0.33177235161E+03  0.33177235162E+03  0.25500000000E-02 0. -1.
         11    1    1    2    0    0 -0.11748269003E+03 -0.41347867333E+02  0.50591325028E+03  0.52101827741E+03  0.51100000000E-03 0. -1.
         22    1    1    2    0    0  0.91206893955E+02  0.42466890879E+02  0.48124698055E+03  0.49165108626E+03  0.00000000000E+00 0. -1.
          2    1    1    2  501    0  0.26275796077E+02 -0.11190235465E+01 -0.31847575454E+03  0.31955981585E+03  0.25500000000E-02 0. -1.
<mgrwt>
<rscale>  0 0.26299614E+02</rscale>
<asrwt>0</asrwt>
<pdfrwt beam="1">  1       11 0.10000000E+01 0.11024210E+03</pdfrwt>
<pdfrwt beam="2">  1        2 0.51065216E-01 0.26299614E+02</pdfrwt>
<totfact> 0.12040714E+02</totfact>
</mgrwt>
</event>
<event>
 5    1  0.6729100E-004  0.3196415E+03  0.7818608E-02  0.1075814E+00
         11   -1    0    0    0    0  0.00000000000E+00  0.00000000000E+00  0.10000759925E+04  0.10000759925E+04  0.51100000000E-03 0. -1.
          2   -1    0    0  501    0 -0.00000000000E+00 -0.00000000000E+00 -0.25551361151E+03  0.25551361153E+03  0.25500000000E-02 0. -1.
         11    1    1    2    0    0  0.14916089624E+03 -0.28072854258E+03 -0.10432003650E+03  0.33457459198E+03  0.51100000000E-03 0. -1.
         22    1    1    2    0    0  0.14885507122E+02 -0.89341914363E+01  0.14299718657E+02  0.22491777443E+02  0.00000000000E+00 0.  1.
          2    1    1    2  501    0 -0.16404640336E+03  0.28966273401E+03  0.83458269883E+03  0.89852323460E+03  0.25500000000E-02 0. -1.
<mgrwt>
<rscale>  0 0.31964150E+03</rscale>
<asrwt>0</asrwt>
<pdfrwt beam="1">  1       11 0.10000000E+01 0.17360821E+02</pdfrwt>
<pdfrwt beam="2">  1        2 0.39312773E-01 0.31964150E+03</pdfrwt>
<totfact> 0.16162930E+02</totfact>
</mgrwt>
</event>
<event>
 5    1  0.6729100E-004  0.2734369E+03  0.7818608E-02  0.1099329E+00
         11   -1    0    0    0    0  0.00000000000E+00  0.00000000000E+00  0.10004426617E+04  0.10004426617E+04  0.51100000000E-03 0.  1.
          2   -1    0    0  501    0 -0.00000000000E+00 -0.00000000000E+00 -0.59298215459E+03  0.59298215460E+03  0.25500000000E-02 0.  1.
         11    1    1    2    0    0 -0.27734634894E+03 -0.10166759090E+03  0.71654075211E+03  0.77504060910E+03  0.51100000000E-03 0.  1.
         22    1    1    2    0    0  0.11690068577E+02  0.40701383937E+02  0.21956445287E+03  0.22361084348E+03  0.00000000000E+00 0.  1.
          2    1    1    2  501    0  0.26565628037E+03  0.60966206965E+02 -0.52864469783E+03  0.59477336376E+03  0.25500000000E-02 0.  1.
<mgrwt>
<rscale>  0 0.27343688E+03</rscale>
<asrwt>0</asrwt>
<pdfrwt beam="1">  1       11 0.10000000E+01 0.42346905E+02</pdfrwt>
<pdfrwt beam="2">  1        2 0.91268404E-01 0.27343688E+03</pdfrwt>
<totfact> 0.63749383E+01</totfact>
</mgrwt>
</event>
<event>
 5    1  0.6729100E-004  0.1518897E+03  0.7818608E-02  0.1398833E+00
         11   -1    0    0    0    0  0.00000000000E+00  0.00000000000E+00  0.10000019239E+04  0.10000019239E+04  0.51100000000E-03 0. -1.
          2   -1    0    0  501    0 -0.00000000000E+00 -0.00000000000E+00 -0.42632580563E+03  0.42632580564E+03  0.25500000000E-02 0. -1.
         11    1    1    2    0    0 -0.18239721618E+03  0.52988064146E+02  0.50411932917E+03  0.53871400340E+03  0.51100000000E-03 0. -1.
         22    1    1    2    0    0  0.12280844507E+03 -0.48439685762E+02  0.46720564766E+03  0.48549916018E+03  0.00000000000E+00 0.  1.
          2    1    1    2  501    0  0.59588771109E+02 -0.45483783846E+01 -0.39764885859E+03  0.40211456593E+03  0.25500000000E-02 0. -1.
<mgrwt>
<rscale>  0 0.59762107E+02</rscale>
<asrwt>0</asrwt>
<pdfrwt beam="1">  1       11 0.10000000E+01 0.15188970E+03</pdfrwt>
<pdfrwt beam="2">  1        2 0.65588710E-01 0.59762107E+02</pdfrwt>
<totfact> 0.93696492E+01</totfact>
</mgrwt>
</event>
<event>
 5    1  0.6729100E-004  0.2794341E+03  0.7818608E-02  0.1095998E+00
         11   -1    0    0    0    0  0.00000000000E+00  0.00000000000E+00  0.99997113760E+03  0.99997113760E+03  0.51100000000E-03 0.  1.
          2   -1    0    0  501    0 -0.00000000000E+00 -0.00000000000E+00 -0.25674171419E+03  0.25674171420E+03  0.25500000000E-02 0.  1.
         11    1    1    2    0    0 -0.19258210977E+03 -0.21976396290E+03  0.85233357997E+03  0.90103085404E+03  0.51100000000E-03 0.  1.
         22    1    1    2    0    0  0.39924325617E+01  0.15213774571E+02  0.37884171440E+02  0.41019616041E+02  0.00000000000E+00 0.  1.
          2    1    1    2  501    0  0.18858967721E+03  0.20455018833E+03 -0.14698832800E+03  0.31466238172E+03  0.25500000000E-02 0.  1.
<mgrwt>
<rscale>  0 0.27943409E+03</rscale>
<asrwt>0</asrwt>
<pdfrwt beam="1">  1       11 0.10000000E+01 0.15728905E+02</pdfrwt>
<pdfrwt beam="2">  1        2 0.39497584E-01 0.27943409E+03</pdfrwt>
<totfact> 0.16068199E+02</totfact>
</mgrwt>
</event>
<event>
 5    1  0.6729100E-004  0.2984552E+03  0.7818608E-02  0.1086015E+00
         11   -1    0    0    0    0  0.00000000000E+00  0.00000000000E+00  0.10000913172E+04  0.10000913172E+04  0.51100000000E-03 0.  1.
          2   -1    0    0  501    0 -0.00000000000E+00 -0.00000000000E+00 -0.12331823569E+03  0.12331823572E+03  0.25500000000E-02 0.  1.
         11    1    1    2    0    0 -0.21673808933E+03 -0.20039137878E+03  0.30997341342E+03  0.42803693892E+03  0.51100000000E-03 0.  1.
         22    1    1    2    0    0  0.30296050565E+02 -0.39444221752E+02  0.25594276311E+03  0.26073050320E+03  0.00000000000E+00 0.  1.
          2    1    1    2  501    0  0.18644203877E+03  0.23983560053E+03  0.31085690501E+03  0.43464211082E+03  0.25500000000E-02 0.  1.
<mgrwt>
<rscale>  0 0.29845522E+03</rscale>
<asrwt>0</asrwt>
<pdfrwt beam="1">  1       11 0.10000000E+01 0.49736278E+02</pdfrwt>
<pdfrwt beam="2">  1        2 0.18973768E-01 0.29845522E+03</pdfrwt>
<totfact> 0.36536068E+02</totfact>
</mgrwt>
</event>
<event>
 5    1  0.6729100E-004  0.1581533E+03  0.7818608E-02  0.1203415E+00
         11   -1    0    0    0    0  0.00000000000E+00  0.00000000000E+00  0.10000981105E+04  0.10000981105E+04  0.51100000000E-03 0. -1.
         -2   -1    0    0    0  501 -0.00000000000E+00 -0.00000000000E+00 -0.23493326807E+02  0.23493326945E+02  0.25500000000E-02 0. -1.
         11    1    1    2    0    0 -0.11723574715E+03  0.24221585828E+02  0.29399325050E+03  0.31743178317E+03  0.51100000000E-03 0. -1.
         22    1    1    2    0    0 -0.29257194702E+02 -0.59265449892E+01  0.17452902917E+03  0.17706351799E+03  0.00000000000E+00 0. -1.
         -2    1    1    2    0  501  0.14649294186E+03 -0.18295040839E+02  0.50808250403E+03  0.52909613630E+03  0.25500000000E-02 0. -1.
<mgrwt>
<rscale>  0 0.14763093E+03</rscale>
<asrwt>0</asrwt>
<pdfrwt beam="1">  1       11 0.10000000E+01 0.15815333E+03</pdfrwt>
<pdfrwt beam="2">  1       -2 0.36147125E-02 0.14763093E+03</pdfrwt>
<totfact> 0.24155004E+03</totfact>
</mgrwt>
</event>
<event>
 5    1  0.6729100E-004  0.1892643E+03  0.7818608E-02  0.1159127E+00
         11   -1    0    0    0    0  0.00000000000E+00  0.00000000000E+00  0.10002409990E+04  0.10002409990E+04  0.51100000000E-03 0. -1.
         -2   -1    0    0    0  501 -0.00000000000E+00 -0.00000000000E+00 -0.40726058542E+02  0.40726058622E+02  0.25500000000E-02 0.  1.
         11    1    1    2    0    0  0.17983403197E+03  0.13603562546E+00  0.68018090311E+03  0.70355266932E+03  0.51100000000E-03 0. -1.
         22    1    1    2    0    0 -0.14733410397E+03 -0.10902613596E+02  0.25730713614E+03  0.29670383800E+03  0.00000000000E+00 0.  1.
         -2    1    1    2    0  501 -0.32499927995E+02  0.10766577970E+02  0.22026901183E+02  0.40710550268E+02  0.25500000000E-02 0.  1.
<mgrwt>
<rscale>  0 0.18926427E+03</rscale>
<asrwt>0</asrwt>
<pdfrwt beam="1">  1       11 0.10000000E+01 0.17983408E+03</pdfrwt>
<pdfrwt beam="2">  1       -2 0.62670573E-02 0.18926427E+03</pdfrwt>
<totfact> 0.10769146E+03</totfact>
</mgrwt>
</event>
<event>
 5    1  0.6729100E-004  0.3335484E+03  0.7818608E-02  0.1122425E+00
         11   -1    0    0    0    0  0.00000000000E+00  0.00000000000E+00  0.10000605016E+04  0.10000605016E+04  0.51100000000E-03 0. -1.
          2   -1    0    0  501    0 -0.00000000000E+00 -0.00000000000E+00 -0.82065570860E+03  0.82065570861E+03  0.25500000000E-02 0. -1.
         11    1    1    2    0    0  0.50157931124E+02  0.33437476581E+03  0.88092749536E+03  0.94358653771E+03  0.51100000000E-03 0. -1.
         22    1    1    2    0    0  0.11378784322E+03 -0.12238293594E+03 -0.52830833824E+02  0.17526081500E+03  0.00000000000E+00 0. -1.
          2    1    1    2  501    0 -0.16394577434E+03 -0.21199182987E+03 -0.64869186852E+03  0.70186885751E+03  0.25500000000E-02 0. -1.
<mgrwt>
<rscale>  0 0.23609062E+03</rscale>
<asrwt>0</asrwt>
<pdfrwt beam="1">  1       11 0.10000000E+01 0.33354841E+03</pdfrwt>
<pdfrwt beam="2">  1        2 0.12626236E+00 0.23609062E+03</pdfrwt>
<totfact> 0.43111606E+01</totfact>
</mgrwt>
</event>
<event>
 5    1  0.6729100E-004  0.2205912E+03  0.7818608E-02  0.1135750E+00
         11   -1    0    0    0    0  0.00000000000E+00  0.00000000000E+00  0.10005843148E+04  0.10005843148E+04  0.51100000000E-03 0.  1.
         -2   -1    0    0    0  501 -0.00000000000E+00 -0.00000000000E+00 -0.11929332403E+03  0.11929332406E+03  0.25500000000E-02 0. -1.
         11    1    1    2    0    0 -0.45599478848E+01 -0.18759902601E+03  0.73739463964E+03  0.76089752415E+03  0.51100000000E-03 0.  1.
         22    1    1    2    0    0 -0.15535262095E+02 -0.28985365150E+02  0.13749303361E+03  0.14137124903E+03  0.00000000000E+00 0. -1.
         -2    1    1    2    0  501  0.20095209980E+02  0.21658439116E+03  0.64033175597E+01  0.21760886572E+03  0.25500000000E-02 0. -1.
<mgrwt>
<rscale>  0 0.21751463E+03</rscale>
<asrwt>0</asrwt>
<pdfrwt beam="1">  1       11 0.10000000E+01 0.22059125E+03</pdfrwt>
<pdfrwt beam="2">  1       -2 0.18363542E-01 0.21751463E+03</pdfrwt>
<totfact> 0.19401876E+02</totfact>
</mgrwt>
</event>
<event>
 5    1  0.6729100E-004  0.4173952E+03  0.7818608E-02  0.1037917E+00
         11   -1    0    0    0    0  0.00000000000E+00  0.00000000000E+00  0.10009250043E+04  0.10009250043E+04  0.51100000000E-03 0. -1.
          2   -1    0    0  501    0 -0.00000000000E+00 -0.00000000000E+00 -0.44930943109E+03  0.44930943110E+03  0.25500000000E-02 0. -1.
         11    1    1    2    0    0 -0.30060142782E+03  0.27075828257E+03  0.72936055697E+03  0.83404921201E+03  0.51100000000E-03 0. -1.
         22    1    1    2    0    0  0.11126845871E+02  0.32683718199E+02  0.10491429787E+03  0.11044927356E+03  0.00000000000E+00 0.  1.
          2    1    1    2  501    0  0.28947458195E+03 -0.30344200077E+03 -0.28265928164E+03  0.50573594981E+03  0.25500000000E-02 0. -1.
<mgrwt>
<rscale>  0 0.41739520E+03</rscale>
<asrwt>0</asrwt>
<pdfrwt beam="1">  1       11 0.10000000E+01 0.34525818E+02</pdfrwt>
<pdfrwt beam="2">  1        2 0.69188466E-01 0.41739520E+03</pdfrwt>
<totfact> 0.86798787E+01</totfact>
</mgrwt>
</event>
<event>
 5    1  0.6729100E-004  0.4112827E+03  0.7818608E-02  0.1039941E+00
         11   -1    0    0    0    0  0.00000000000E+00  0.00000000000E+00  0.10006909430E+04  0.10006909430E+04  0.51100000000E-03 0.  1.
          2   -1    0    0  501    0 -0.00000000000E+00 -0.00000000000E+00 -0.71101724897E+03  0.71101724898E+03  0.25500000000E-02 0.  1.
         11    1    1    2    0    0 -0.41077276868E+03 -0.30260046970E+02  0.85608518247E+03  0.95001672490E+03  0.51100000000E-03 0.  1.
         22    1    1    2    0    0  0.18816571181E+01 -0.13776612576E+02  0.32399941195E+02  0.35257508094E+02  0.00000000000E+00 0. -1.
          2    1    1    2  501    0  0.40889111156E+03  0.44036659546E+02 -0.59881142964E+03  0.72643395899E+03  0.25500000000E-02 0.  1.
<mgrwt>
<rscale>  0 0.41128274E+03</rscale>
<asrwt>0</asrwt>
<pdfrwt beam="1">  1       11 0.10000000E+01 0.13904520E+02</pdfrwt>
<pdfrwt beam="2">  1        2 0.10946285E+00 0.41128274E+03</pdfrwt>
<totfact> 0.50673937E+01</totfact>
</mgrwt>
</event>
<event>
 5    1  0.6729100E-004  0.2520524E+03  0.7818608E-02  0.1115004E+00
         11   -1    0    0    0    0  0.00000000000E+00  0.00000000000E+00  0.10006291018E+04  0.10006291018E+04  0.51100000000E-03 0. -1.
          2   -1    0    0  501    0 -0.00000000000E+00 -0.00000000000E+00 -0.88172589469E+03  0.88172589470E+03  0.25500000000E-02 0. -1.
         11    1    1    2    0    0 -0.21353698299E+03 -0.78771497511E+02  0.91272062430E+03  0.94067099984E+03  0.51100000000E-03 0. -1.
         22    1    1    2    0    0 -0.14652556729E+02 -0.16629743760E+02  0.54082435569E+02  0.58447888185E+02  0.00000000000E+00 0.  1.
          2    1    1    2  501    0  0.22818953972E+03  0.95401241271E+02 -0.84789985279E+03  0.88323610844E+03  0.25500000000E-02 0. -1.
<mgrwt>
<rscale>  0 0.24732946E+03</rscale>
<asrwt>0</asrwt>
<pdfrwt beam="1">  1       11 0.10000000E+01 0.25205237E+03</pdfrwt>
<pdfrwt beam="2">  1        2 0.13573547E+00 0.24732946E+03</pdfrwt>
<totfact> 0.39153523E+01</totfact>
</mgrwt>
</event>
<event>
 5    1  0.6729100E-004  0.8504343E+02  0.7818608E-02  0.1315319E+00
         11   -1    0    0    0    0  0.00000000000E+00  0.00000000000E+00  0.10000763971E+04  0.10000763971E+04  0.51100000000E-03 0. -1.
          2   -1    0    0  501    0 -0.00000000000E+00 -0.00000000000E+00 -0.58346540438E+02  0.58346540494E+02  0.25500000000E-02 0.  1.
         11    1    1    2    0    0 -0.95236253941E+01 -0.46417602812E+02  0.24320720732E+03  0.24778022315E+03  0.51100000000E-03 0. -1.
         22    1    1    2    0    0 -0.40839629885E+02  0.11315365901E+03  0.71531992744E+03  0.72536489060E+03  0.00000000000E+00 0. -1.
          2    1    1    2  501    0  0.50363255279E+02 -0.66736056196E+02 -0.16797278116E+02  0.85277823831E+02  0.25500000000E-02 0.  1.
<mgrwt>
<rscale>  0 0.85043426E+02</rscale>
<asrwt>0</asrwt>
<pdfrwt beam="1">  1       11 0.10000000E+01 0.47384526E+02</pdfrwt>
<pdfrwt beam="2">  1        2 0.89770764E-02 0.85043426E+02</pdfrwt>
<totfact> 0.84319447E+02</totfact>
</mgrwt>
</event>
<event>
 5    1  0.6729100E-004  0.1752996E+03  0.7818608E-02  0.1239350E+00
         11   -1    0    0    0    0  0.00000000000E+00  0.00000000000E+00  0.99986114221E+03  0.99986114221E+03  0.51100000000E-03 0. -1.
          2   -1    0    0  501    0 -0.00000000000E+00 -0.00000000000E+00 -0.45197560025E+03  0.45197560026E+03  0.25500000000E-02 0. -1.
         11    1    1    2    0    0 -0.23495417735E+03 -0.16145084700E+03  0.26253452012E+02  0.28628497200E+03  0.51100000000E-03 0. -1.
         22    1    1    2    0    0  0.12100654220E+03  0.11702882942E+03  0.82314337581E+03  0.84018054447E+03  0.00000000000E+00 0. -1.
          2    1    1    2  501    0  0.11394763515E+03  0.44422017572E+02 -0.30151128586E+03  0.32537122600E+03  0.25500000000E-02 0. -1.
<mgrwt>
<rscale>  0 0.12230036E+03</rscale>
<asrwt>0</asrwt>
<pdfrwt beam="1">  1       11 0.10000000E+01 0.17529959E+03</pdfrwt>
<pdfrwt beam="2">  1        2 0.69525050E-01 0.12230036E+03</pdfrwt>
<totfact> 0.87594287E+01</totfact>
</mgrwt>
</event>
<event>
 5    1  0.6729100E-004  0.2671132E+03  0.7818608E-02  0.1107831E+00
         11   -1    0    0    0    0  0.00000000000E+00  0.00000000000E+00  0.10001640158E+04  0.10001640158E+04  0.51100000000E-03 0. -1.
          2   -1    0    0  501    0 -0.00000000000E+00 -0.00000000000E+00 -0.94217094870E+03  0.94217094870E+03  0.25500000000E-02 0. -1.
         11    1    1    2    0    0  0.18356238175E+03  0.99888087611E+02  0.66168444604E+03  0.69390135046E+03  0.51100000000E-03 0. -1.
         22    1    1    2    0    0  0.45728069873E+02  0.20250977945E+02  0.30218628249E+03  0.30629676428E+03  0.00000000000E+00 0. -1.
          2    1    1    2  501    0 -0.22929045162E+03 -0.12013906556E+03 -0.90587766141E+03  0.94213684978E+03  0.25500000000E-02 0. -1.
<mgrwt>
<rscale>  0 0.25885808E+03</rscale>
<asrwt>0</asrwt>
<pdfrwt beam="1">  1       11 0.10000000E+01 0.26711325E+03</pdfrwt>
<pdfrwt beam="2">  1        2 0.14497315E+00 0.25885808E+03</pdfrwt>
<totfact> 0.35755608E+01</totfact>
</mgrwt>
</event>
<event>
 5    1  0.6729100E-004  0.2862860E+03  0.7818608E-02  0.1675065E+00
         11   -1    0    0    0    0  0.00000000000E+00  0.00000000000E+00  0.10005112644E+04  0.10005112644E+04  0.51100000000E-03 0.  1.
          2   -1    0    0  501    0 -0.00000000000E+00 -0.00000000000E+00 -0.95179071586E+03  0.95179071586E+03  0.25500000000E-02 0. -1.
         11    1    1    2    0    0  0.28589537619E+03 -0.53308992233E+02  0.75259570957E+03  0.80683227305E+03  0.51100000000E-03 0.  1.
         22    1    1    2    0    0 -0.26472936393E+03  0.64724182532E+02  0.13646575326E+03  0.30478477282E+03  0.00000000000E+00 0. -1.
          2    1    1    2  501    0 -0.21166012258E+02 -0.11415190299E+02 -0.84034091430E+03  0.84068493438E+03  0.25500000000E-02 0. -1.
<mgrwt>
<rscale>  0 0.24048007E+02</rscale>
<asrwt>0</asrwt>
<pdfrwt beam="1">  1       11 0.10000000E+01 0.28628599E+03</pdfrwt>
<pdfrwt beam="2">  1        2 0.14650420E+00 0.24048007E+02</pdfrwt>
<totfact> 0.39529536E+01</totfact>
</mgrwt>
</event>
<event>
 5    1  0.6729100E-004  0.1979114E+03  0.7818608E-02  0.1159034E+00
         11   -1    0    0    0    0  0.00000000000E+00  0.00000000000E+00  0.10000026481E+04  0.10000026481E+04  0.51100000000E-03 0. -1.
         -2   -1    0    0    0  501 -0.00000000000E+00 -0.00000000000E+00 -0.67563048283E+02  0.67563048332E+02  0.25500000000E-02 0.  1.
         11    1    1    2    0    0 -0.75377481723E+02 -0.12180279702E+03  0.56821001287E+03  0.58598660807E+03  0.51100000000E-03 0. -1.
         22    1    1    2    0    0  0.44754718179E+01 -0.53789275495E+02  0.25975731306E+03  0.26530581919E+03  0.00000000000E+00 0.  1.
         -2    1    1    2    0  501  0.70902009905E+02  0.17559207251E+03  0.10447227387E+03  0.21627326916E+03  0.25500000000E-02 0.  1.
<mgrwt>
<rscale>  0 0.18936650E+03</rscale>
<asrwt>0</asrwt>
<pdfrwt beam="1">  1       11 0.10000000E+01 0.19791135E+03</pdfrwt>
<pdfrwt beam="2">  1       -2 0.10394342E-01 0.18936650E+03</pdfrwt>
<totfact> 0.48943238E+02</totfact>
</mgrwt>
</event>
<event>
 5    1  0.6729100E-004  0.1559734E+03  0.7818608E-02  0.1193319E+00
         11   -1    0    0    0    0  0.00000000000E+00  0.00000000000E+00  0.10003079384E+04  0.10003079384E+04  0.51100000000E-03 0.  1.
          2   -1    0    0  501    0 -0.00000000000E+00 -0.00000000000E+00 -0.36572965917E+02  0.36572966006E+02  0.25500000000E-02 0.  1.
         11    1    1    2    0    0  0.82887676573E+02 -0.12604529195E+03  0.25967699021E+03  0.30031636951E+03  0.51100000000E-03 0.  1.
         22    1    1    2    0    0  0.40541427527E+02  0.11992014428E+02  0.22362567937E+03  0.22758703880E+03  0.00000000000E+00 0. -1.
          2    1    1    2  501    0 -0.12342910410E+03  0.11405327752E+03  0.48043230286E+03  0.50897749605E+03  0.25500000000E-02 0.  1.
<mgrwt>
<rscale>  0 0.15597343E+03</rscale>
<asrwt>0</asrwt>
<pdfrwt beam="1">  1       11 0.10000000E+01 0.42277840E+02</pdfrwt>
<pdfrwt beam="2">  1        2 0.56283426E-02 0.15597343E+03</pdfrwt>
<totfact> 0.15880151E+03</totfact>
</mgrwt>
</event>
<event>
 5    1  0.6729100E-004  0.6461428E+03  0.7818608E-02  0.9814044E-01
         11   -1    0    0    0    0  0.00000000000E+00  0.00000000000E+00  0.99989591103E+03  0.99989591103E+03  0.51100000000E-03 0. -1.
          2   -1    0    0  501    0 -0.00000000000E+00 -0.00000000000E+00 -0.19255421257E+04  0.19255421257E+04  0.25500000000E-02 0. -1.
         11    1    1    2    0    0  0.38547715800E+03  0.51690657106E+03  0.79518060363E+03  0.10237662013E+04  0.51100000000E-03 0. -1.
         22    1    1    2    0    0  0.11599090486E+02 -0.70529473785E+01  0.31327734283E+02  0.34142494082E+02  0.00000000000E+00 0.  1.
          2    1    1    2  501    0 -0.39707624849E+03 -0.50985362368E+03 -0.17521545526E+04  0.18675293414E+04  0.25500000000E-02 0. -1.
<mgrwt>
<rscale>  0 0.64614276E+03</rscale>
<asrwt>0</asrwt>
<pdfrwt beam="1">  1       11 0.10000000E+01 0.13575086E+02</pdfrwt>
<pdfrwt beam="2">  1        2 0.29620641E+00 0.64614276E+03</pdfrwt>
<totfact> 0.94226066E+00</totfact>
</mgrwt>
</event>
<event>
 5    1  0.6729100E-004  0.3298896E+03  0.7818608E-02  0.1071186E+00
         11   -1    0    0    0    0  0.00000000000E+00  0.00000000000E+00  0.10003024841E+04  0.10003024841E+04  0.51100000000E-03 0. -1.
          2   -1    0    0  501    0 -0.00000000000E+00 -0.00000000000E+00 -0.49139859531E+03  0.49139859532E+03  0.25500000000E-02 0. -1.
         11    1    1    2    0    0 -0.63083158567E+02  0.32544011712E+03  0.78334637663E+03  0.85060114067E+03  0.51100000000E-03 0. -1.
         22    1    1    2    0    0  0.76242922995E+02  0.46825666987E+01  0.11017474437E+03  0.13406485011E+03  0.00000000000E+00 0. -1.
          2    1    1    2  501    0 -0.13159764427E+02 -0.33012268382E+03 -0.38461723222E+03  0.50703508863E+03  0.25500000000E-02 0. -1.
<mgrwt>
<rscale>  0 0.32988962E+03</rscale>
<asrwt>0</asrwt>
<pdfrwt beam="1">  1       11 0.10000000E+01 0.76386581E+02</pdfrwt>
<pdfrwt beam="2">  1        2 0.75622649E-01 0.32988962E+03</pdfrwt>
<totfact> 0.78794118E+01</totfact>
</mgrwt>
</event>
<event>
 5    1  0.6729100E-004  0.1443507E+03  0.7818608E-02  0.1207592E+00
         11   -1    0    0    0    0  0.00000000000E+00  0.00000000000E+00  0.99973822044E+03  0.99973822044E+03  0.51100000000E-03 0. -1.
          2   -1    0    0  501    0 -0.00000000000E+00 -0.00000000000E+00 -0.38290194535E+03  0.38290194536E+03  0.25500000000E-02 0. -1.
         11    1    1    2    0    0  0.86349111481E+02 -0.14724475340E+03  0.85050872452E+03  0.86746889105E+03  0.51100000000E-03 0. -1.
         22    1    1    2    0    0 -0.11127888585E+02  0.24540734518E+02  0.12543455753E+03  0.12829616431E+03  0.00000000000E+00 0. -1.
          2    1    1    2  501    0 -0.75221222896E+02  0.12270401888E+03 -0.35910700696E+03  0.38687511044E+03  0.25500000000E-02 0. -1.
<mgrwt>
<rscale>  0 0.14435067E+03</rscale>
<asrwt>0</asrwt>
<pdfrwt beam="1">  1       11 0.10000000E+01 0.26945826E+02</pdfrwt>
<pdfrwt beam="2">  1        2 0.58892569E-01 0.14435067E+03</pdfrwt>
<totfact> 0.10452516E+02</totfact>
</mgrwt>
</event>
<event>
 5    1  0.6729100E-004  0.5430573E+03  0.7818608E-02  0.1006001E+00
         11   -1    0    0    0    0  0.00000000000E+00  0.00000000000E+00  0.10001234523E+04  0.10001234523E+04  0.51100000000E-03 0. -1.
          2   -1    0    0  501    0 -0.00000000000E+00 -0.00000000000E+00 -0.31680617390E+03  0.31680617391E+03  0.25500000000E-02 0. -1.
         11    1    1    2    0    0 -0.10225933807E+02  0.48396333851E+03  0.51851689194E+03  0.70935523539E+03  0.51100000000E-03 0. -1.
         22    1    1    2    0    0  0.25103316225E+02  0.46783379280E+02  0.24012650889E+02  0.58270648401E+02  0.00000000000E+00 0. -1.
          2    1    1    2  501    0 -0.14877382419E+02 -0.53074671779E+03  0.14078773559E+03  0.54930374243E+03  0.25500000000E-02 0. -1.
<mgrwt>
<rscale>  0 0.53095519E+03</rscale>
<asrwt>0</asrwt>
<pdfrwt beam="1">  1       11 0.10000000E+01 0.54305726E+03</pdfrwt>
<pdfrwt beam="2">  1        2 0.48745427E-01 0.53095519E+03</pdfrwt>
<totfact> 0.12778591E+02</totfact>
</mgrwt>
</event>
<event>
 5    1  0.6729100E-004  0.2758980E+03  0.7818608E-02  0.1097951E+00
         11   -1    0    0    0    0  0.00000000000E+00  0.00000000000E+00  0.10004788626E+04  0.10004788626E+04  0.51100000000E-03 0. -1.
          2   -1    0    0  501    0 -0.00000000000E+00 -0.00000000000E+00 -0.93394388220E+02  0.93394388255E+02  0.25500000000E-02 0. -1.
         11    1    1    2    0    0 -0.18934157168E+03  0.19119514545E+03  0.32248899620E+03  0.42000591315E+03  0.51100000000E-03 0. -1.
         22    1    1    2    0    0  0.96239781079E+01  0.30455863680E+02  0.15416688637E+03  0.15744081249E+03  0.00000000000E+00 0.  1.
          2    1    1    2  501    0  0.17971759357E+03 -0.22165100913E+03  0.43042859180E+03  0.51642652520E+03  0.25500000000E-02 0. -1.
<mgrwt>
<rscale>  0 0.27589800E+03</rscale>
<asrwt>0</asrwt>
<pdfrwt beam="1">  1       11 0.10000000E+01 0.31940266E+02</pdfrwt>
<pdfrwt beam="2">  1        2 0.14375247E-01 0.27589800E+03</pdfrwt>
<totfact> 0.50582192E+02</totfact>
</mgrwt>
</event>
<event>
 5    1  0.6729100E-004  0.2124947E+03  0.7818608E-02  0.1139606E+00
         11   -1    0    0    0    0  0.00000000000E+00  0.00000000000E+00  0.10001395343E+04  0.10001395343E+04  0.51100000000E-03 0. -1.
          2   -1    0    0  501    0 -0.00000000000E+00 -0.00000000000E+00 -0.17992940905E+04  0.17992940905E+04  0.25500000000E-02 0. -1.
         11    1    1    2    0    0  0.10546039225E+03 -0.19893317654E+02  0.55914476524E+03  0.56935095233E+03  0.51100000000E-03 0. -1.
         22    1    1    2    0    0  0.30315928782E+02  0.18433521725E+03  0.40916821038E+03  0.44979678995E+03  0.00000000000E+00 0. -1.
          2    1    1    2  501    0 -0.13577632103E+03 -0.16444189960E+03 -0.17674675318E+04  0.17802858825E+04  0.25500000000E-02 0. -1.
<mgrwt>
<rscale>  0 0.21249465E+03</rscale>
<asrwt>0</asrwt>
<pdfrwt beam="1">  1       11 0.10000000E+01 0.10732026E+03</pdfrwt>
<pdfrwt beam="2">  1        2 0.27685309E+00 0.21249465E+03</pdfrwt>
<totfact> 0.12133924E+01</totfact>
</mgrwt>
</event>
<event>
 5    1  0.6729100E-004  0.1278155E+03  0.7818608E-02  0.1230734E+00
         11   -1    0    0    0    0  0.00000000000E+00  0.00000000000E+00  0.10003765062E+04  0.10003765062E+04  0.51100000000E-03 0. -1.
          2   -1    0    0  501    0 -0.00000000000E+00 -0.00000000000E+00 -0.61874619808E+03  0.61874619809E+03  0.25500000000E-02 0. -1.
         11    1    1    2    0    0  0.38164207659E+02 -0.23838251573E+03  0.29992860852E+03  0.38501935115E+03  0.51100000000E-03 0. -1.
         22    1    1    2    0    0  0.42011993344E+01  0.12013980369E+03  0.64544134926E+03  0.65654075109E+03  0.00000000000E+00 0. -1.
          2    1    1    2  501    0 -0.42365406994E+02  0.11824271204E+03 -0.56373964967E+03  0.57756260204E+03  0.25500000000E-02 0. -1.
<mgrwt>
<rscale>  0 0.12781552E+03</rscale>
<asrwt>0</asrwt>
<pdfrwt beam="1">  1       11 0.10000000E+01 0.12021324E+03</pdfrwt>
<pdfrwt beam="2">  1        2 0.95227560E-01 0.12781552E+03</pdfrwt>
<totfact> 0.61791033E+01</totfact>
</mgrwt>
</event>
<event>
 5    1  0.6729100E-004  0.2428850E+03  0.7818608E-02  0.1117886E+00
         11   -1    0    0    0    0  0.00000000000E+00  0.00000000000E+00  0.10008274341E+04  0.10008274341E+04  0.51100000000E-03 0.  1.
          2   -1    0    0  501    0 -0.00000000000E+00 -0.00000000000E+00 -0.16069782868E+04  0.16069782868E+04  0.25500000000E-02 0.  1.
         11    1    1    2    0    0  0.24577146027E+03 -0.21911191492E+02  0.77610292357E+03  0.81438287001E+03  0.51100000000E-03 0.  1.
         22    1    1    2    0    0 -0.11857848291E+02 -0.43502276392E+02  0.19369139809E+03  0.19887034548E+03  0.00000000000E+00 0. -1.
          2    1    1    2  501    0 -0.23391361197E+03  0.65413467884E+02 -0.15759451744E+04  0.15945525053E+04  0.25500000000E-02 0.  1.
<mgrwt>
<rscale>  0 0.24288497E+03</rscale>
<asrwt>0</asrwt>
<pdfrwt beam="1">  1       11 0.10000000E+01 0.45089429E+02</pdfrwt>
<pdfrwt beam="2">  1        2 0.24743199E+00 0.24288497E+03</pdfrwt>
<totfact> 0.15108665E+01</totfact>
</mgrwt>
</event>
<event>
 5    1  0.6729100E-004  0.9958971E+02  0.7818608E-02  0.1281161E+00
         11   -1    0    0    0    0  0.00000000000E+00  0.00000000000E+00  0.10001241002E+04  0.10001241002E+04  0.51100000000E-03 0. -1.
          2   -1    0    0  501    0 -0.00000000000E+00 -0.00000000000E+00 -0.12032744857E+02  0.12032745128E+02  0.25500000000E-02 0. -1.
         11    1    1    2    0    0 -0.54406854684E+02 -0.84003581869E+02  0.34107067905E+03  0.35545170658E+03  0.51100000000E-03 0. -1.
         22    1    1    2    0    0  0.11758883095E+02 -0.56728312473E+01  0.72689147126E+02  0.73852315170E+02  0.00000000000E+00 0. -1.
          2    1    1    2  501    0  0.42647971589E+02  0.89676413117E+02  0.57433152914E+03  0.58285282356E+03  0.25500000000E-02 0. -1.
<mgrwt>
<rscale>  0 0.99589709E+02</rscale>
<asrwt>0</asrwt>
<pdfrwt beam="1">  1       11 0.10000000E+01 0.13055740E+02</pdfrwt>
<pdfrwt beam="2">  1        2 0.18514212E-02 0.99589709E+02</pdfrwt>
<totfact> 0.66807357E+03</totfact>
</mgrwt>
</event>
<event>
 5    1  0.6729100E-004  0.1379979E+03  0.7818608E-02  0.1216049E+00
         11   -1    0    0    0    0  0.00000000000E+00  0.00000000000E+00  0.10002652555E+04  0.10002652555E+04  0.51100000000E-03 0. -1.
          2   -1    0    0  501    0 -0.00000000000E+00 -0.00000000000E+00 -0.35131858764E+02  0.35131858857E+02  0.25500000000E-02 0. -1.
         11    1    1    2    0    0  0.52613056988E+01 -0.16803275610E+03  0.39451924661E+03  0.42884510538E+03  0.51100000000E-03 0. -1.
         22    1    1    2    0    0  0.29064094654E+02  0.50805395319E+02  0.34559643791E+03  0.35051791351E+03  0.00000000000E+00 0. -1.
          2    1    1    2  501    0 -0.34325400352E+02  0.11722736078E+03  0.22501771219E+03  0.25603409545E+03  0.25500000000E-02 0. -1.
<mgrwt>
<rscale>  0 0.13799791E+03</rscale>
<asrwt>0</asrwt>
<pdfrwt beam="1">  1       11 0.10000000E+01 0.58531272E+02</pdfrwt>
<pdfrwt beam="2">  1        2 0.54063349E-02 0.13799791E+03</pdfrwt>
<totfact> 0.16575198E+03</totfact>
</mgrwt>
</event>
<event>
 5    1  0.6729100E-004  0.5339522E+03  0.7818608E-02  0.1005278E+00
         11   -1    0    0    0    0  0.00000000000E+00  0.00000000000E+00  0.99999277447E+03  0.99999277447E+03  0.51100000000E-03 0. -1.
          2   -1    0    0  501    0 -0.00000000000E+00 -0.00000000000E+00 -0.74710331416E+03  0.74710331416E+03  0.25500000000E-02 0. -1.
         11    1    1    2    0    0 -0.43023838383E+03 -0.29145952682E+03 -0.56671350831E+03  0.76890696654E+03  0.51100000000E-03 0. -1.
         22    1    1    2    0    0  0.88426643800E+02  0.25771439707E+02  0.84064104806E+02  0.12470048980E+03  0.00000000000E+00 0. -1.
          2    1    1    2  501    0  0.34181174003E+03  0.26568808711E+03  0.73553886382E+03  0.85348863229E+03  0.25500000000E-02 0. -1.
<mgrwt>
<rscale>  0 0.53395218E+03</rscale>
<asrwt>0</asrwt>
<pdfrwt beam="1">  1       11 0.10000000E+01 0.51966719E+03</pdfrwt>
<pdfrwt beam="2">  1        2 0.11493814E+00 0.53395218E+03</pdfrwt>
<totfact> 0.47260825E+01</totfact>
</mgrwt>
</event>
<event>
 5    1  0.6729100E-004  0.3263967E+03  0.7818608E-02  0.1072742E+00
         11   -1    0    0    0    0  0.00000000000E+00  0.00000000000E+00  0.10004661368E+04  0.10004661368E+04  0.51100000000E-03 0.  1.
          2   -1    0    0  501    0 -0.00000000000E+00 -0.00000000000E+00 -0.11860562923E+03  0.11860562926E+03  0.25500000000E-02 0.  1.
         11    1    1    2    0    0 -0.31719123118E+03  0.22837653228E+02  0.63380588320E+03  0.70911334293E+03  0.51100000000E-03 0.  1.
         22    1    1    2    0    0  0.37477767725E+02  0.91871635720E+01  0.60178652456E+02  0.71487462254E+02  0.00000000000E+00 0. -1.
          2    1    1    2  501    0  0.27971346345E+03 -0.32024816800E+02  0.18787597193E+03  0.33847096088E+03  0.25500000000E-02 0.  1.
<mgrwt>
<rscale>  0 0.32639671E+03</rscale>
<asrwt>0</asrwt>
<pdfrwt beam="1">  1       11 0.10000000E+01 0.31801232E+03</pdfrwt>
<pdfrwt beam="2">  1        2 0.18255525E-01 0.32639671E+03</pdfrwt>
<totfact> 0.38311625E+02</totfact>
</mgrwt>
</event>
<event>
 5    1  0.6729100E-004  0.2136821E+03  0.7818608E-02  0.1400201E+00
         11   -1    0    0    0    0  0.00000000000E+00  0.00000000000E+00  0.10000754624E+04  0.10000754624E+04  0.51100000000E-03 0. -1.
          2   -1    0    0  501    0 -0.00000000000E+00 -0.00000000000E+00 -0.51662077641E+02  0.51662077704E+02  0.25500000000E-02 0. -1.
         11    1    1    2    0    0 -0.42037171767E+02 -0.20950254557E+03  0.53921738698E+03  0.58001192301E+03  0.51100000000E-03 0. -1.
         22    1    1    2    0    0 -0.16156204298E+02  0.35138010712E+01  0.11681965997E+02  0.20244457633E+02  0.00000000000E+00 0.  1.
          2    1    1    2  501    0  0.58193376066E+02  0.20598874450E+03  0.39751403175E+03  0.45148115943E+03  0.25500000000E-02 0. -1.
<mgrwt>
<rscale>  0 0.59439024E+02</rscale>
<asrwt>0</asrwt>
<pdfrwt beam="1">  1       11 0.10000000E+01 0.21368209E+03</pdfrwt>
<pdfrwt beam="2">  1        2 0.79486115E-02 0.59439024E+02</pdfrwt>
<totfact> 0.95265908E+02</totfact>
</mgrwt>
</event>
<event>
 5    1  0.6729100E-004  0.2219107E+03  0.7818608E-02  0.1132467E+00
         11   -1    0    0    0    0  0.00000000000E+00  0.00000000000E+00  0.10006606822E+04  0.10006606822E+04  0.51100000000E-03 0. -1.
          2   -1    0    0  501    0 -0.00000000000E+00 -0.00000000000E+00 -0.20745404387E+04  0.20745404387E+04  0.25500000000E-02 0. -1.
         11    1    1    2    0    0 -0.19185433693E+03 -0.14846545443E+03  0.86348171849E+03  0.89691178826E+03  0.51100000000E-03 0. -1.
         22    1    1    2    0    0  0.18000884061E+02  0.10780804944E+02  0.11352475140E+03  0.11544750653E+03  0.00000000000E+00 0.  1.
          2    1    1    2  501    0  0.17385345287E+03  0.13768464949E+03 -0.20508862264E+04  0.20628418261E+04  0.25500000000E-02 0. -1.
<mgrwt>
<rscale>  0 0.22191069E+03</rscale>
<asrwt>0</asrwt>
<pdfrwt beam="1">  1       11 0.10000000E+01 0.20982316E+02</pdfrwt>
<pdfrwt beam="2">  1        2 0.31937092E+00 0.22191069E+03</pdfrwt>
<totfact> 0.86703363E+00</totfact>
</mgrwt>
</event>
<event>
 5    1  0.6729100E-004  0.2980971E+03  0.7818608E-02  0.1088445E+00
         11   -1    0    0    0    0  0.00000000000E+00  0.00000000000E+00  0.99977320985E+03  0.99977320985E+03  0.51100000000E-03 0. -1.
          2   -1    0    0  501    0 -0.00000000000E+00 -0.00000000000E+00 -0.41308681049E+03  0.41308681049E+03  0.25500000000E-02 0. -1.
         11    1    1    2    0    0 -0.12513214324E+03 -0.25119196585E+03  0.87899180816E+03  0.92270366629E+03  0.51100000000E-03 0. -1.
         22    1    1    2    0    0  0.43265481815E+01 -0.16487099585E+02  0.41910847079E+02  0.45244475627E+02  0.00000000000E+00 0. -1.
          2    1    1    2  501    0  0.12080559506E+03  0.26767906543E+03 -0.33421625587E+03  0.44491187843E+03  0.25500000000E-02 0. -1.
<mgrwt>
<rscale>  0 0.29367682E+03</rscale>
<asrwt>0</asrwt>
<pdfrwt beam="1">  1       11 0.10000000E+01 0.29809714E+03</pdfrwt>
<pdfrwt beam="2">  1        2 0.63537402E-01 0.29367682E+03</pdfrwt>
<totfact> 0.95794760E+01</totfact>
</mgrwt>
</event>
<event>
 5    1  0.6729100E-004  0.1712297E+03  0.7818608E-02  0.1176571E+00
         11   -1    0    0    0    0  0.00000000000E+00  0.00000000000E+00  0.10000763601E+04  0.10000763601E+04  0.51100000000E-03 0.  1.
          2   -1    0    0  501    0 -0.00000000000E+00 -0.00000000000E+00 -0.37664848271E+02  0.37664848358E+02  0.25500000000E-02 0.  1.
         11    1    1    2    0    0 -0.11192265370E+03  0.10553232448E+03  0.17984193884E+03  0.23665771672E+03  0.51100000000E-03 0.  1.
         22    1    1    2    0    0  0.67496716617E+02 -0.41586332685E+02  0.23516465286E+03  0.24816857935E+03  0.00000000000E+00 0.  1.
          2    1    1    2  501    0  0.44425937078E+02 -0.63945991791E+02  0.54740492014E+03  0.55291491240E+03  0.25500000000E-02 0.  1.
<mgrwt>
<rscale>  0 0.17122974E+03</rscale>
<asrwt>0</asrwt>
<pdfrwt beam="1">  1       11 0.10000000E+01 0.15383035E+03</pdfrwt>
<pdfrwt beam="2">  1        2 0.57950344E-02 0.17122974E+03</pdfrwt>
<totfact> 0.15394296E+03</totfact>
</mgrwt>
</event>
<event>
 5    1  0.6729100E-004  0.1331943E+03  0.7818608E-02  0.1222791E+00
         11   -1    0    0    0    0  0.00000000000E+00  0.00000000000E+00  0.10000445557E+04  0.10000445557E+04  0.51100000000E-03 0. -1.
          2   -1    0    0  501    0 -0.00000000000E+00 -0.00000000000E+00 -0.22110505054E+02  0.22110505202E+02  0.25500000000E-02 0. -1.
         11    1    1    2    0    0  0.73019179767E+01  0.13645809748E+03  0.39672097737E+03  0.41959702604E+03  0.51100000000E-03 0. -1.
         22    1    1    2    0    0 -0.26872372908E+02 -0.72410646188E+01  0.12007894715E+03  0.12326196084E+03  0.00000000000E+00 0. -1.
          2    1    1    2  501    0  0.19570454931E+02 -0.12921703286E+03  0.46113412613E+03  0.47929607402E+03  0.25500000000E-02 0. -1.
<mgrwt>
<rscale>  0 0.13319431E+03</rscale>
<asrwt>0</asrwt>
<pdfrwt beam="1">  1       11 0.10000000E+01 0.27830872E+02</pdfrwt>
<pdfrwt beam="2">  1        2 0.34017676E-02 0.13319431E+03</pdfrwt>
<totfact> 0.30431217E+03</totfact>
</mgrwt>
</event>
<event>
 5    1  0.6729100E-004  0.1040370E+03  0.7818608E-02  0.1531316E+00
         11   -1    0    0    0    0  0.00000000000E+00  0.00000000000E+00  0.10001558345E+04  0.10001558345E+04  0.51100000000E-03 0. -1.
          2   -1    0    0  501    0 -0.00000000000E+00 -0.00000000000E+00 -0.13313800199E+02  0.13313800444E+02  0.25500000000E-02 0. -1.
         11    1    1    2    0    0  0.88951872030E+02  0.54688646330E+02  0.35308856212E+03  0.36820485640E+03  0.51100000000E-03 0. -1.
         22    1    1    2    0    0 -0.78376881223E+01  0.10592523179E+02  0.32623485032E+02  0.35184125370E+02  0.00000000000E+00 0.  1.
          2    1    1    2  501    0 -0.81114183907E+02 -0.65281169509E+02  0.60112998712E+03  0.61008065315E+03  0.25500000000E-02 0. -1.
<mgrwt>
<rscale>  0 0.37025474E+02</rscale>
<asrwt>0</asrwt>
<pdfrwt beam="1">  1       11 0.10000000E+01 0.10403704E+03</pdfrwt>
<pdfrwt beam="2">  1        2 0.20485961E-02 0.37025474E+02</pdfrwt>
<totfact> 0.50595494E+03</totfact>
</mgrwt>
</event>
<event>
 5    1  0.6729100E-004  0.1559775E+03  0.7818608E-02  0.1332925E+00
         11   -1    0    0    0    0  0.00000000000E+00  0.00000000000E+00  0.99995331936E+03  0.99995331936E+03  0.51100000000E-03 0. -1.
          2   -1    0    0  501    0 -0.00000000000E+00 -0.00000000000E+00 -0.21576959179E+03  0.21576959180E+03  0.25500000000E-02 0. -1.
         11    1    1    2    0    0 -0.11824917733E+03 -0.94845402845E+02  0.16566288435E+03  0.22455001588E+03  0.51100000000E-03 0. -1.
         22    1    1    2    0    0  0.15902168790E+03  0.27588288138E+02  0.78798641162E+03  0.80434544554E+03  0.00000000000E+00 0. -1.
          2    1    1    2  501    0 -0.40772510570E+02  0.67257114707E+02 -0.16946556840E+03  0.18682744974E+03  0.25500000000E-02 0. -1.
<mgrwt>
<rscale>  0 0.78650601E+02</rscale>
<asrwt>0</asrwt>
<pdfrwt beam="1">  1       11 0.10000000E+01 0.15597752E+03</pdfrwt>
<pdfrwt beam="2">  1        2 0.33193771E-01 0.78650601E+02</pdfrwt>
<totfact> 0.19049915E+02</totfact>
</mgrwt>
</event>
<event>
 5    1  0.6729100E-004  0.1089913E+03  0.7818608E-02  0.1312103E+00
         11   -1    0    0    0    0  0.00000000000E+00  0.00000000000E+00  0.10007891976E+04  0.10007891976E+04  0.51100000000E-03 0.  1.
          2   -1    0    0  501    0 -0.00000000000E+00 -0.00000000000E+00 -0.30226999984E+02  0.30227000092E+02  0.25500000000E-02 0.  1.
         11    1    1    2    0    0 -0.75550856215E+02  0.10453460141E+03  0.57159336234E+03  0.58596449264E+03  0.51100000000E-03 0.  1.
         22    1    1    2    0    0  0.98642008131E+02 -0.21395565944E+02  0.28330386218E+03  0.30074755915E+03  0.00000000000E+00 0.  1.
          2    1    1    2  501    0 -0.23091151916E+02 -0.83139035467E+02  0.11566497310E+03  0.14430414590E+03  0.25500000000E-02 0.  1.
<mgrwt>
<rscale>  0 0.86286155E+02</rscale>
<asrwt>0</asrwt>
<pdfrwt beam="1">  1       11 0.10000000E+01 0.10899127E+03</pdfrwt>
<pdfrwt beam="2">  1        2 0.46539776E-02 0.86286155E+02</pdfrwt>
<totfact> 0.19325191E+03</totfact>
</mgrwt>
</event>
<event>
 5    1  0.6729100E-004  0.9465712E+02  0.7818608E-02  0.1291950E+00
         11   -1    0    0    0    0  0.00000000000E+00  0.00000000000E+00  0.10001931457E+04  0.10001931457E+04  0.51100000000E-03 0. -1.
          2   -1    0    0  501    0 -0.00000000000E+00 -0.00000000000E+00 -0.35502109010E+02  0.35502109101E+02  0.25500000000E-02 0. -1.
         11    1    1    2    0    0 -0.50654026032E+02 -0.84330351104E+02  0.48523007936E+02  0.10969011245E+03  0.51100000000E-03 0. -1.
         22    1    1    2    0    0  0.41588812174E+02  0.21834644497E+02  0.14867937413E+03  0.15592285686E+03  0.00000000000E+00 0. -1.
          2    1    1    2  501    0  0.90652138581E+01  0.62495706607E+02  0.76748865464E+03  0.77008228551E+03  0.25500000000E-02 0. -1.
<mgrwt>
<rscale>  0 0.94657120E+02</rscale>
<asrwt>0</asrwt>
<pdfrwt beam="1">  1       11 0.10000000E+01 0.46972130E+02</pdfrwt>
<pdfrwt beam="2">  1        2 0.54629177E-02 0.94657120E+02</pdfrwt>
<totfact> 0.15852585E+03</totfact>
</mgrwt>
</event>
<event>
 5    1  0.6729100E-004  0.9658856E+02  0.7818608E-02  0.1663122E+00
         11   -1    0    0    0    0  0.00000000000E+00  0.00000000000E+00  0.10003748569E+04  0.10003748569E+04  0.51100000000E-03 0.  1.
         -2   -1    0    0    0  501 -0.00000000000E+00 -0.00000000000E+00 -0.69378278560E+02  0.69378278606E+02  0.25500000000E-02 0.  1.
         11    1    1    2    0    0 -0.88480229243E+02  0.53325788335E+02  0.49062221678E+03  0.50138064409E+03  0.51100000000E-03 0.  1.
         22    1    1    2    0    0  0.87913528031E+02 -0.28479231205E+02  0.49753407237E+03  0.50604348449E+03  0.00000000000E+00 0.  1.
         -2    1    1    2    0  501  0.56670121233E+00 -0.24846557130E+02 -0.57159710840E+02  0.62329006902E+02  0.25500000000E-02 0.  1.
<mgrwt>
<rscale>  0 0.24853019E+02</rscale>
<asrwt>0</asrwt>
<pdfrwt beam="1">  1       11 0.10000000E+01 0.96588559E+02</pdfrwt>
<pdfrwt beam="2">  1       -2 0.10677582E-01 0.24853019E+02</pdfrwt>
<totfact> 0.40431465E+02</totfact>
</mgrwt>
</event>
<event>
 5    1  0.6729100E-004  0.8382236E+02  0.7818608E-02  0.1318541E+00
         11   -1    0    0    0    0  0.00000000000E+00  0.00000000000E+00  0.10000862743E+04  0.10000862743E+04  0.51100000000E-03 0. -1.
          2   -1    0    0  501    0 -0.00000000000E+00 -0.00000000000E+00 -0.11014642594E+02  0.11014642889E+02  0.25500000000E-02 0. -1.
         11    1    1    2    0    0  0.78681516880E+02  0.39130024420E+02  0.32636532749E+03  0.33798856030E+03  0.51100000000E-03 0. -1.
         22    1    1    2    0    0  0.36599651012E+01 -0.35198030181E+02  0.21041719131E+03  0.21337218908E+03  0.00000000000E+00 0. -1.
          2    1    1    2  501    0 -0.82341481981E+02 -0.39319942387E+01  0.45228911293E+03  0.45974016783E+03  0.25500000000E-02 0. -1.
<mgrwt>
<rscale>  0 0.83822356E+02</rscale>
<asrwt>0</asrwt>
<pdfrwt beam="1">  1       11 0.10000000E+01 0.35387804E+02</pdfrwt>
<pdfrwt beam="2">  1        2 0.16947066E-02 0.83822356E+02</pdfrwt>
<totfact> 0.73578303E+03</totfact>
</mgrwt>
</event>
<event>
 5    1  0.6729100E-004  0.1069306E+03  0.7818608E-02  0.1548877E+00
         11   -1    0    0    0    0  0.00000000000E+00  0.00000000000E+00  0.10002533625E+04  0.10002533625E+04  0.51100000000E-03 0.  1.
          2   -1    0    0  501    0 -0.00000000000E+00 -0.00000000000E+00 -0.13163753220E+02  0.13163753467E+02  0.25500000000E-02 0.  1.
         11    1    1    2    0    0 -0.41070842027E+02 -0.97393867271E+02  0.53337335646E+03  0.54374582006E+03  0.51100000000E-03 0.  1.
         22    1    1    2    0    0  0.92467178424E+01 -0.67284537845E+01  0.27824466044E+02  0.30082798936E+02  0.00000000000E+00 0.  1.
          2    1    1    2  501    0  0.31824124184E+02  0.10412232106E+03  0.42589178677E+03  0.43958849697E+03  0.25500000000E-02 0.  1.
<mgrwt>
<rscale>  0 0.34968840E+02</rscale>
<asrwt>0</asrwt>
<pdfrwt beam="1">  1       11 0.10000000E+01 0.10693059E+03</pdfrwt>
<pdfrwt beam="2">  1        2 0.20257059E-02 0.34968840E+02</pdfrwt>
<totfact> 0.50867352E+03</totfact>
</mgrwt>
</event>
<event>
 5    1  0.6729100E-004  0.4464605E+03  0.7818608E-02  0.1463407E+00
         11   -1    0    0    0    0  0.00000000000E+00  0.00000000000E+00  0.10010050462E+04  0.10010050462E+04  0.51100000000E-03 0.  1.
          2   -1    0    0  501    0 -0.00000000000E+00 -0.00000000000E+00 -0.19168444350E+04  0.19168444350E+04  0.25500000000E-02 0.  1.
         11    1    1    2    0    0  0.13134250826E+02 -0.47582580493E+03 -0.13069014359E+04  0.13908896679E+04  0.51100000000E-03 0.  1.
         22    1    1    2    0    0  0.21937027761E+02  0.44483785671E+03  0.90618284143E+03  0.10097174328E+04  0.00000000000E+00 0.  1.
          2    1    1    2  501    0 -0.35071278587E+02  0.30987948217E+02 -0.51512079436E+03  0.51724238061E+03  0.25500000000E-02 0.  1.
<mgrwt>
<rscale>  0 0.46800080E+02</rscale>
<asrwt>0</asrwt>
<pdfrwt beam="1">  1       11 0.10000000E+01 0.44646053E+03</pdfrwt>
<pdfrwt beam="2">  1        2 0.29519552E+00 0.46800080E+02</pdfrwt>
<totfact> 0.12321325E+01</totfact>
</mgrwt>
</event>
<event>
 5    1  0.6729100E-004  0.1854438E+03  0.7818608E-02  0.1162636E+00
         11   -1    0    0    0    0  0.00000000000E+00  0.00000000000E+00  0.10003446418E+04  0.10003446418E+04  0.51100000000E-03 0. -1.
          2   -1    0    0  501    0 -0.00000000000E+00 -0.00000000000E+00 -0.65152621546E+02  0.65152621596E+02  0.25500000000E-02 0. -1.
         11    1    1    2    0    0  0.12712493711E+03 -0.13060825557E+03  0.11567073029E+03  0.21586797795E+03  0.51100000000E-03 0. -1.
         22    1    1    2    0    0  0.22769960926E+02 -0.26756942613E+01  0.66023704887E+02  0.69891058565E+02  0.00000000000E+00 0.  1.
          2    1    1    2  501    0 -0.14989489803E+03  0.13328394983E+03  0.75349758506E+03  0.77973822687E+03  0.25500000000E-02 0. -1.
<mgrwt>
<rscale>  0 0.18544384E+03</rscale>
<asrwt>0</asrwt>
<pdfrwt beam="1">  1       11 0.10000000E+01 0.22926632E+02</pdfrwt>
<pdfrwt beam="2">  1        2 0.10026934E-01 0.18544384E+03</pdfrwt>
<totfact> 0.77111150E+02</totfact>
</mgrwt>
</event>
<event>
 5    1  0.6729100E-004  0.2915349E+03  0.7818608E-02  0.1180594E+00
         11   -1    0    0    0    0  0.00000000000E+00  0.00000000000E+00  0.10004132711E+04  0.10004132711E+04  0.51100000000E-03 0. -1.
          2   -1    0    0  501    0 -0.00000000000E+00 -0.00000000000E+00 -0.28041434673E+04  0.28041434673E+04  0.25500000000E-02 0. -1.
         11    1    1    2    0    0  0.24395267405E+03 -0.23825180621E+03  0.30649054182E+03  0.45849022079E+03  0.51100000000E-03 0. -1.
         22    1    1    2    0    0 -0.79863716072E+02  0.27134498954E+03  0.58281845842E+03  0.64782997149E+03  0.00000000000E+00 0. -1.
          2    1    1    2  501    0 -0.16408895798E+03 -0.33093183332E+02 -0.26930391964E+04  0.26982365460E+04  0.25500000000E-02 0. -1.
<mgrwt>
<rscale>  0 0.16739279E+03</rscale>
<asrwt>0</asrwt>
<pdfrwt beam="1">  1       11 0.10000000E+01 0.29153490E+03</pdfrwt>
<pdfrwt beam="2">  1        2 0.43158496E+00 0.16739279E+03</pdfrwt>
<totfact> 0.36267187E+00</totfact>
</mgrwt>
</event>
<event>
 5    1  0.6729100E-004  0.1611780E+03  0.7818608E-02  0.1188716E+00
         11   -1    0    0    0    0  0.00000000000E+00  0.00000000000E+00  0.10003082872E+04  0.10003082872E+04  0.51100000000E-03 0. -1.
          2   -1    0    0  501    0 -0.00000000000E+00 -0.00000000000E+00 -0.34679568972E+02  0.34679569066E+02  0.25500000000E-02 0. -1.
         11    1    1    2    0    0  0.11996527195E+03 -0.82298647455E+02  0.66257752086E+03  0.67836104325E+03  0.51100000000E-03 0. -1.
         22    1    1    2    0    0  0.15119175531E+02 -0.34150019942E+01  0.83749164836E+02  0.85171440742E+02  0.00000000000E+00 0. -1.
          2    1    1    2  501    0 -0.13508444748E+03  0.85713649449E+02  0.21930203249E+03  0.27145537223E+03  0.25500000000E-02 0. -1.
<mgrwt>
<rscale>  0 0.15998324E+03</rscale>
<asrwt>0</asrwt>
<pdfrwt beam="1">  1       11 0.10000000E+01 0.16117795E+03</pdfrwt>
<pdfrwt beam="2">  1        2 0.53369630E-02 0.15998324E+03</pdfrwt>
<totfact> 0.17051746E+03</totfact>
</mgrwt>
</event>
<event>
 5    1  0.6729100E-004  0.3021560E+03  0.7818608E-02  0.1085986E+00
         11   -1    0    0    0    0  0.00000000000E+00  0.00000000000E+00  0.99960066483E+03  0.99960066483E+03  0.51100000000E-03 0. -1.
          2   -1    0    0  501    0 -0.00000000000E+00 -0.00000000000E+00 -0.27921017157E+03  0.27921017158E+03  0.25500000000E-02 0. -1.
         11    1    1    2    0    0  0.23419614114E+03  0.16747284520E+03  0.87295662777E+03  0.91921067247E+03  0.51100000000E-03 0. -1.
         22    1    1    2    0    0  0.10324238677E+02  0.37571154916E+01  0.13972132938E+02  0.17774316300E+02  0.00000000000E+00 0. -1.
          2    1    1    2  501    0 -0.24452037981E+03 -0.17122996069E+03 -0.16653826745E+03  0.34182584764E+03  0.25500000000E-02 0. -1.
<mgrwt>
<rscale>  0 0.29851284E+03</rscale>
<asrwt>0</asrwt>
<pdfrwt beam="1">  1       11 0.10000000E+01 0.30215599E+03</pdfrwt>
<pdfrwt beam="2">  1        2 0.42938256E-01 0.29851284E+03</pdfrwt>
<totfact> 0.14679414E+02</totfact>
</mgrwt>
</event>
<event>
 5    1  0.6729100E-004  0.2342003E+03  0.7818608E-02  0.1124374E+00
         11   -1    0    0    0    0  0.00000000000E+00  0.00000000000E+00  0.10001151085E+04  0.10001151085E+04  0.51100000000E-03 0. -1.
          2   -1    0    0  501    0 -0.00000000000E+00 -0.00000000000E+00 -0.19041008534E+03  0.19041008536E+03  0.25500000000E-02 0. -1.
         11    1    1    2    0    0  0.13494033454E+03  0.17711159532E+03  0.87009259284E+03  0.89813057581E+03  0.51100000000E-03 0. -1.
         22    1    1    2    0    0  0.29565673495E+01  0.11009199427E+02  0.37681411010E+02  0.39367912038E+02  0.00000000000E+00 0. -1.
          2    1    1    2  501    0 -0.13789690189E+03 -0.18812079475E+03 -0.98068980708E+02  0.25302670600E+03  0.25500000000E-02 0. -1.
<mgrwt>
<rscale>  0 0.23324877E+03</rscale>
<asrwt>0</asrwt>
<pdfrwt beam="1">  1       11 0.10000000E+01 0.23420028E+03</pdfrwt>
<pdfrwt beam="2">  1        2 0.29297230E-01 0.23324877E+03</pdfrwt>
<totfact> 0.22233337E+02</totfact>
</mgrwt>
</event>
<event>
 5    1  0.6729100E-004  0.1298118E+03  0.7818608E-02  0.1227735E+00
         11   -1    0    0    0    0  0.00000000000E+00  0.00000000000E+00  0.10002236412E+04  0.10002236412E+04  0.51100000000E-03 0. -1.
          2   -1    0    0  501    0 -0.00000000000E+00 -0.00000000000E+00 -0.10586335091E+03  0.10586335094E+03  0.25500000000E-02 0.  1.
         11    1    1    2    0    0  0.19652229692E+03  0.46941229538E+02  0.37908716356E+03  0.42957137916E+03  0.51100000000E-03 0. -1.
         22    1    1    2    0    0 -0.79227503075E+02 -0.86887607730E+02  0.53786021489E+03  0.55056340632E+03  0.00000000000E+00 0. -1.
          2    1    1    2  501    0 -0.11729479384E+03  0.39946378193E+02 -0.22587088193E+02  0.12595220662E+03  0.25500000000E-02 0.  1.
<mgrwt>
<rscale>  0 0.12981177E+03</rscale>
<asrwt>0</asrwt>
<pdfrwt beam="1">  1       11 0.10000000E+01 0.11758594E+03</pdfrwt>
<pdfrwt beam="2">  1        2 0.16290311E-01 0.12981177E+03</pdfrwt>
<totfact> 0.42417878E+02</totfact>
</mgrwt>
</event>
<event>
 5    1  0.6729100E-004  0.4898373E+03  0.7818608E-02  0.1016466E+00
         11   -1    0    0    0    0  0.00000000000E+00  0.00000000000E+00  0.10015610332E+04  0.10015610332E+04  0.51100000000E-03 0.  1.
          2   -1    0    0  501    0 -0.00000000000E+00 -0.00000000000E+00 -0.19930561263E+04  0.19930561263E+04  0.25500000000E-02 0.  1.
         11    1    1    2    0    0  0.42473518941E+03  0.96769921966E+01  0.62851638851E+03  0.75863461293E+03  0.51100000000E-03 0.  1.
         22    1    1    2    0    0  0.54717833330E+02  0.10613230454E+03  0.26332199606E+03  0.28913073334E+03  0.00000000000E+00 0.  1.
          2    1    1    2  501    0 -0.47945302274E+03 -0.11580929674E+03 -0.18833334777E+04  0.19468518132E+04  0.25500000000E-02 0.  1.
<mgrwt>
<rscale>  0 0.48983731E+03</rscale>
<asrwt>0</asrwt>
<pdfrwt beam="1">  1       11 0.10000000E+01 0.11940732E+03</pdfrwt>
<pdfrwt beam="2">  1        2 0.30710266E+00 0.48983731E+03</pdfrwt>
<totfact> 0.88455989E+00</totfact>
</mgrwt>
</event>
<event>
 5    1  0.6729100E-004  0.9075442E+02  0.7818608E-02  0.1301035E+00
         11   -1    0    0    0    0  0.00000000000E+00  0.00000000000E+00  0.10005353934E+04  0.10005353934E+04  0.51100000000E-03 0.  1.
          2   -1    0    0  501    0 -0.00000000000E+00 -0.00000000000E+00 -0.82646969685E+01  0.82646973619E+01  0.25500000000E-02 0.  1.
         11    1    1    2    0    0  0.86177901962E+02 -0.17546779848E+02  0.39487070183E+03  0.40454590769E+03  0.51100000000E-03 0.  1.
         22    1    1    2    0    0 -0.99533408534E+01 -0.43536068769E+01  0.52436063998E+02  0.53549637670E+02  0.00000000000E+00 0.  1.
          2    1    1    2  501    0 -0.76224561108E+02  0.21900386725E+02  0.54496393064E+03  0.55070454543E+03  0.25500000000E-02 0.  1.
<mgrwt>
<rscale>  0 0.90754417E+02</rscale>
<asrwt>0</asrwt>
<pdfrwt beam="1">  1       11 0.10000000E+01 0.87946165E+02</pdfrwt>
<pdfrwt beam="2">  1        2 0.12721726E-02 0.90754417E+02</pdfrwt>
<totfact> 0.10985824E+04</totfact>
</mgrwt>
</event>
<event>
 5    1  0.6729100E-004  0.2486863E+03  0.7818608E-02  0.1114138E+00
         11   -1    0    0    0    0  0.00000000000E+00  0.00000000000E+00  0.10005332725E+04  0.10005332725E+04  0.51100000000E-03 0. -1.
          2   -1    0    0  501    0 -0.00000000000E+00 -0.00000000000E+00 -0.35733331162E+03  0.35733331162E+03  0.25500000000E-02 0. -1.
         11    1    1    2    0    0  0.14319828951E+03 -0.21504414991E+03  0.88967309101E+03  0.92642751761E+03  0.51100000000E-03 0. -1.
         22    1    1    2    0    0 -0.58773760891E+01  0.82907735990E+01  0.46422922861E+02  0.47522292069E+02  0.00000000000E+00 0.  1.
          2    1    1    2  501    0 -0.13732091342E+03  0.20675337631E+03 -0.29289605295E+03  0.38391677447E+03  0.25500000000E-02 0. -1.
<mgrwt>
<rscale>  0 0.24868632E+03</rscale>
<asrwt>0</asrwt>
<pdfrwt beam="1">  1       11 0.10000000E+01 0.10162700E+02</pdfrwt>
<pdfrwt beam="2">  1        2 0.55003670E-01 0.24868632E+03</pdfrwt>
<totfact> 0.11224570E+02</totfact>
</mgrwt>
</event>
<event>
 5    1  0.6729100E-004  0.1240959E+03  0.7818608E-02  0.1236489E+00
         11   -1    0    0    0    0  0.00000000000E+00  0.00000000000E+00  0.10001789329E+04  0.10001789329E+04  0.51100000000E-03 0. -1.
          2   -1    0    0  501    0 -0.00000000000E+00 -0.00000000000E+00 -0.12999673132E+03  0.12999673135E+03  0.25500000000E-02 0. -1.
         11    1    1    2    0    0  0.16618700739E+03  0.44537217939E+02  0.87601688476E+03  0.89275263516E+03  0.51100000000E-03 0. -1.
         22    1    1    2    0    0 -0.45505513769E+02 -0.24472523678E+02  0.74793515669E+02  0.90905039380E+02  0.00000000000E+00 0.  1.
          2    1    1    2  501    0 -0.12068149362E+03 -0.20064694261E+02 -0.80628198835E+02  0.14651798972E+03  0.25500000000E-02 0. -1.
<mgrwt>
<rscale>  0 0.12409586E+03</rscale>
<asrwt>0</asrwt>
<pdfrwt beam="1">  1       11 0.10000000E+01 0.51668716E+02</pdfrwt>
<pdfrwt beam="2">  1        2 0.20003075E-01 0.12409586E+03</pdfrwt>
<totfact> 0.33491560E+02</totfact>
</mgrwt>
</event>
<event>
 5    1  0.6729100E-004  0.1570485E+03  0.7818608E-02  0.1192070E+00
         11   -1    0    0    0    0  0.00000000000E+00  0.00000000000E+00  0.10003342533E+04  0.10003342533E+04  0.51100000000E-03 0.  1.
          2   -1    0    0  501    0 -0.00000000000E+00 -0.00000000000E+00 -0.22692374309E+03  0.22692374310E+03  0.25500000000E-02 0.  1.
         11    1    1    2    0    0 -0.94479308684E+02  0.85107418208E+02  0.73405349940E+03  0.74498600818E+03  0.51100000000E-03 0.  1.
         22    1    1    2    0    0 -0.50311936665E+02 -0.20757614691E+02  0.22886784734E+03  0.23525020953E+03  0.00000000000E+00 0.  1.
          2    1    1    2  501    0  0.14479124535E+03 -0.64349803517E+02 -0.18951083657E+03  0.24702177865E+03  0.25500000000E-02 0.  1.
<mgrwt>
<rscale>  0 0.15704849E+03</rscale>
<asrwt>0</asrwt>
<pdfrwt beam="1">  1       11 0.10000000E+01 0.54425817E+02</pdfrwt>
<pdfrwt beam="2">  1        2 0.34923013E-01 0.15704849E+03</pdfrwt>
<totfact> 0.18256011E+02</totfact>
</mgrwt>
</event>
<event>
 5    1  0.6729100E-004  0.3828344E+03  0.7818608E-02  0.1052492E+00
         11   -1    0    0    0    0  0.00000000000E+00  0.00000000000E+00  0.10000493607E+04  0.10000493607E+04  0.51100000000E-03 0. -1.
          2   -1    0    0  501    0 -0.00000000000E+00 -0.00000000000E+00 -0.64696411814E+03  0.64696411815E+03  0.25500000000E-02 0. -1.
         11    1    1    2    0    0  0.18842059692E+02 -0.35857775492E+03  0.81559471601E+03  0.89113846866E+03  0.51100000000E-03 0. -1.
         22    1    1    2    0    0 -0.10255884499E+02 -0.17138817741E+02  0.87489423430E+02  0.89740300047E+02  0.00000000000E+00 0. -1.
          2    1    1    2  501    0 -0.85861751927E+01  0.37571657266E+03 -0.54999889692E+03  0.66613471010E+03  0.25500000000E-02 0. -1.
<mgrwt>
<rscale>  0 0.37581467E+03</rscale>
<asrwt>0</asrwt>
<pdfrwt beam="1">  1       11 0.10000000E+01 0.38283442E+03</pdfrwt>
<pdfrwt beam="2">  1        2 0.99537851E-01 0.37581467E+03</pdfrwt>
<totfact> 0.57074439E+01</totfact>
</mgrwt>
</event>
<event>
 5    1  0.6729100E-004  0.1890070E+03  0.7818608E-02  0.1576843E+00
         11   -1    0    0    0    0  0.00000000000E+00  0.00000000000E+00  0.10003091240E+04  0.10003091240E+04  0.51100000000E-03 0.  1.
          2   -1    0    0  501    0 -0.00000000000E+00 -0.00000000000E+00 -0.90929460340E+03  0.90929460340E+03  0.25500000000E-02 0. -1.
         11    1    1    2    0    0  0.17083958709E+03  0.10974924706E+03  0.37723158146E+03  0.42840953280E+03  0.51100000000E-03 0.  1.
         22    1    1    2    0    0 -0.13958769210E+03 -0.11669007946E+03  0.58333700486E+03  0.61105102870E+03  0.00000000000E+00 0.  1.
          2    1    1    2  501    0 -0.31251894989E+02  0.69408323988E+01 -0.86955406568E+03  0.87014316594E+03  0.25500000000E-02 0. -1.
<mgrwt>
<rscale>  0 0.32013374E+02</rscale>
<asrwt>0</asrwt>
<pdfrwt beam="1">  1       11 0.10000000E+01 0.18900704E+03</pdfrwt>
<pdfrwt beam="2">  1        2 0.13993472E+00 0.32013374E+02</pdfrwt>
<totfact> 0.41220220E+01</totfact>
</mgrwt>
</event>
<event>
 5    1  0.6729100E-004  0.1189218E+03  0.7818608E-02  0.1731830E+00
         11   -1    0    0    0    0  0.00000000000E+00  0.00000000000E+00  0.99993007600E+03  0.99993007600E+03  0.51100000000E-03 0. -1.
          2   -1    0    0  501    0 -0.00000000000E+00 -0.00000000000E+00 -0.69059666055E+02  0.69059666102E+02  0.25500000000E-02 0.  1.
         11    1    1    2    0    0  0.11094046523E+03 -0.19796148600E+01  0.52311776666E+03  0.53475592890E+03  0.51100000000E-03 0. -1.
         22    1    1    2    0    0 -0.13155718230E+03  0.16913163719E+00  0.45978535096E+03  0.47823622801E+03  0.00000000000E+00 0.  1.
          2    1    1    2  501    0  0.20616717068E+02  0.18104832228E+01 -0.52032707680E+02  0.55997585190E+02  0.25500000000E-02 0.  1.
<mgrwt>
<rscale>  0 0.20696059E+02</rscale>
<asrwt>0</asrwt>
<pdfrwt beam="1">  1       11 0.10000000E+01 0.11892176E+03</pdfrwt>
<pdfrwt beam="2">  1        2 0.10623821E-01 0.20696059E+02</pdfrwt>
<totfact> 0.61625585E+02</totfact>
</mgrwt>
</event>
<event>
 5    1  0.6729100E-004  0.3238274E+03  0.7818608E-02  0.1637063E+00
         11   -1    0    0    0    0  0.00000000000E+00  0.00000000000E+00  0.10004245156E+04  0.10004245156E+04  0.51100000000E-03 0.  1.
          2   -1    0    0  501    0 -0.00000000000E+00 -0.00000000000E+00 -0.73901090651E+03  0.73901090651E+03  0.25500000000E-02 0. -1.
         11    1    1    2    0    0 -0.27993987731E+03 -0.13771947313E+03  0.43744028227E+03  0.53729599733E+03  0.51100000000E-03 0.  1.
         22    1    1    2    0    0  0.29799604844E+03  0.15745663820E+03  0.45739186722E+03  0.56815627955E+03  0.00000000000E+00 0. -1.
          2    1    1    2  501    0 -0.18056171125E+02 -0.19737165073E+02 -0.63341854044E+03  0.63398314519E+03  0.25500000000E-02 0. -1.
<mgrwt>
<rscale>  0 0.26750346E+02</rscale>
<asrwt>0</asrwt>
<pdfrwt beam="1">  1       11 0.10000000E+01 0.32382741E+03</pdfrwt>
<pdfrwt beam="2">  1        2 0.11374225E+00 0.26750346E+02</pdfrwt>
<totfact> 0.52826000E+01</totfact>
</mgrwt>
</event>
<event>
 5    1  0.6729100E-004  0.1686960E+03  0.7818608E-02  0.1180815E+00
         11   -1    0    0    0    0  0.00000000000E+00  0.00000000000E+00  0.99996339657E+03  0.99996339657E+03  0.51100000000E-03 0. -1.
          2   -1    0    0  501    0 -0.00000000000E+00 -0.00000000000E+00 -0.31878161244E+02  0.31878161346E+02  0.25500000000E-02 0. -1.
         11    1    1    2    0    0 -0.15583457092E+03 -0.22038283640E+02  0.61434725321E+03  0.63418660264E+03  0.51100000000E-03 0. -1.
         22    1    1    2    0    0 -0.87954438408E+01 -0.70845103891E+01  0.46742095125E+02  0.48087145647E+02  0.00000000000E+00 0. -1.
          2    1    1    2  501    0  0.16463001476E+03  0.29122794030E+02  0.30699588700E+03  0.34956780964E+03  0.25500000000E-02 0. -1.
<mgrwt>
<rscale>  0 0.16718606E+03</rscale>
<asrwt>0</asrwt>
<pdfrwt beam="1">  1       11 0.10000000E+01 0.16869600E+03</pdfrwt>
<pdfrwt beam="2">  1        2 0.49041529E-02 0.16718606E+03</pdfrwt>
<totfact> 0.19114499E+03</totfact>
</mgrwt>
</event>
<event>
 5    1  0.6729100E-004  0.2577705E+03  0.7818608E-02  0.1108490E+00
         11   -1    0    0    0    0  0.00000000000E+00  0.00000000000E+00  0.10002743380E+04  0.10002743380E+04  0.51100000000E-03 0.  1.
          2   -1    0    0  501    0 -0.00000000000E+00 -0.00000000000E+00 -0.16619719049E+03  0.16619719051E+03  0.25500000000E-02 0. -1.
         11    1    1    2    0    0 -0.12399636346E+03  0.20512326848E+03  0.82257664258E+03  0.85678642983E+03  0.51100000000E-03 0.  1.
         22    1    1    2    0    0  0.38186132580E+01  0.25822869023E+02  0.40023431733E+02  0.47783652638E+02  0.00000000000E+00 0.  1.
          2    1    1    2  501    0  0.12017775020E+03 -0.23094613750E+03 -0.28522926812E+02  0.26190144603E+03  0.25500000000E-02 0. -1.
<mgrwt>
<rscale>  0 0.25777054E+03</rscale>
<asrwt>0</asrwt>
<pdfrwt beam="1">  1       11 0.10000000E+01 0.26103685E+02</pdfrwt>
<pdfrwt beam="2">  1        2 0.25575812E-01 0.25777054E+03</pdfrwt>
<totfact> 0.25901344E+02</totfact>
</mgrwt>
</event>
<event>
 5    1  0.6729100E-004  0.2269697E+03  0.7818608E-02  0.1129725E+00
         11   -1    0    0    0    0  0.00000000000E+00  0.00000000000E+00  0.10005044516E+04  0.10005044516E+04  0.51100000000E-03 0. -1.
          2   -1    0    0  501    0 -0.00000000000E+00 -0.00000000000E+00 -0.86458488519E+02  0.86458488556E+02  0.25500000000E-02 0. -1.
         11    1    1    2    0    0  0.36648488088E+02 -0.20924074580E+03  0.73347604361E+03  0.76361764511E+03  0.51100000000E-03 0. -1.
         22    1    1    2    0    0  0.16015474316E+00 -0.13406762855E+02  0.71415632465E+02  0.72663329818E+02  0.00000000000E+00 0. -1.
          2    1    1    2  501    0 -0.36808642831E+02  0.22264750866E+03  0.10915428696E+03  0.25068196518E+03  0.25500000000E-02 0. -1.
<mgrwt>
<rscale>  0 0.22566965E+03</rscale>
<asrwt>0</asrwt>
<pdfrwt beam="1">  1       11 0.10000000E+01 0.22696973E+03</pdfrwt>
<pdfrwt beam="2">  1        2 0.13308015E-01 0.22566965E+03</pdfrwt>
<totfact> 0.55071695E+02</totfact>
</mgrwt>
</event>
<event>
 5    1  0.6729100E-004  0.2443499E+03  0.7818608E-02  0.1116928E+00
         11   -1    0    0    0    0  0.00000000000E+00  0.00000000000E+00  0.10000942212E+04  0.10000942212E+04  0.51100000000E-03 0.  1.
          2   -1    0    0  501    0 -0.00000000000E+00 -0.00000000000E+00 -0.11884286439E+03  0.11884286442E+03  0.25500000000E-02 0.  1.
         11    1    1    2    0    0  0.18575458428E+03  0.16720426963E+03  0.73763553107E+03  0.77882489050E+03  0.51100000000E-03 0.  1.
         22    1    1    2    0    0  0.51463583162E+01 -0.16337737157E+02  0.89138983338E+02  0.90769846369E+02  0.00000000000E+00 0.  1.
          2    1    1    2  501    0 -0.19090094259E+03 -0.15086653248E+03  0.54476842362E+02  0.24934234872E+03  0.25500000000E-02 0.  1.
<mgrwt>
<rscale>  0 0.24434994E+03</rscale>
<asrwt>0</asrwt>
<pdfrwt beam="1">  1       11 0.10000000E+01 0.17129117E+02</pdfrwt>
<pdfrwt beam="2">  1        2 0.18285240E-01 0.24434994E+03</pdfrwt>
<totfact> 0.37923649E+02</totfact>
</mgrwt>
</event>
<event>
 5    1  0.6729100E-004  0.4124446E+02  0.7818608E-02  0.1702866E+00
         11   -1    0    0    0    0  0.00000000000E+00  0.00000000000E+00  0.10003261134E+04  0.10003261134E+04  0.51100000000E-03 0.  1.
          2   -1    0    0  501    0 -0.00000000000E+00 -0.00000000000E+00 -0.51172367325E+01  0.51172373678E+01  0.25500000000E-02 0.  1.
         11    1    1    2    0    0  0.21644735476E+02  0.45413689178E+02  0.15722741501E+03  0.16507985270E+03  0.51100000000E-03 0.  1.
         22    1    1    2    0    0 -0.97716487677E+01 -0.70903045451E+01  0.53010844335E+02  0.54368255033E+02  0.00000000000E+00 0.  1.
          2    1    1    2  501    0 -0.11873086709E+02 -0.38323384633E+02  0.78497061733E+03  0.78599524304E+03  0.25500000000E-02 0.  1.
<mgrwt>
<rscale>  0 0.22314670E+02</rscale>
<asrwt>0</asrwt>
<pdfrwt beam="1">  1       11 0.10000000E+01 0.41244460E+02</pdfrwt>
<pdfrwt beam="2">  1        2 0.78752395E-03 0.22314670E+02</pdfrwt>
<totfact> 0.15963791E+04</totfact>
</mgrwt>
</event>
<event>
 5    1  0.6729100E-004  0.1398115E+03  0.7818608E-02  0.1273865E+00
         11   -1    0    0    0    0  0.00000000000E+00  0.00000000000E+00  0.10001547363E+04  0.10001547363E+04  0.51100000000E-03 0. -1.
         -2   -1    0    0    0  501 -0.00000000000E+00 -0.00000000000E+00 -0.41371862587E+03  0.41371862588E+03  0.25500000000E-02 0.  1.
         11    1    1    2    0    0 -0.91732638607E+02  0.10764451496E+03  0.69260575310E+03  0.70689811700E+03  0.51100000000E-03 0. -1.
         22    1    1    2    0    0  0.39488432899E+01 -0.16175659091E+03  0.27118274578E+03  0.31578611381E+03  0.00000000000E+00 0. -1.
         -2    1    1    2    0  501  0.87783795317E+02  0.54112075943E+02 -0.37735238842E+03  0.39118913141E+03  0.25500000000E-02 0.  1.
<mgrwt>
<rscale>  0 0.10312183E+03</rscale>
<asrwt>0</asrwt>
<pdfrwt beam="1">  1       11 0.10000000E+01 0.13981145E+03</pdfrwt>
<pdfrwt beam="2">  1       -2 0.63658866E-01 0.10312183E+03</pdfrwt>
<totfact> 0.19154656E+01</totfact>
</mgrwt>
</event>
<event>
 5    1  0.6729100E-004  0.1134796E+03  0.7818608E-02  0.1254259E+00
         11   -1    0    0    0    0  0.00000000000E+00  0.00000000000E+00  0.10000929867E+04  0.10000929867E+04  0.51100000000E-03 0. -1.
          2   -1    0    0  501    0 -0.00000000000E+00 -0.00000000000E+00 -0.23768771748E+02  0.23768771885E+02  0.25500000000E-02 0. -1.
         11    1    1    2    0    0 -0.93101106071E+02  0.55755914333E+02  0.12725810725E+03  0.16724581847E+03  0.51100000000E-03 0. -1.
         22    1    1    2    0    0  0.30286886094E+02 -0.23206527459E+02  0.19217841561E+03  0.19592953277E+03  0.00000000000E+00 0.  1.
          2    1    1    2  501    0  0.62814219976E+02 -0.32549386874E+02  0.65688769214E+03  0.66068640739E+03  0.25500000000E-02 0. -1.
<mgrwt>
<rscale>  0 0.11347957E+03</rscale>
<asrwt>0</asrwt>
<pdfrwt beam="1">  1       11 0.10000000E+01 0.10851981E+03</pdfrwt>
<pdfrwt beam="2">  1        2 0.36570740E-02 0.11347957E+03</pdfrwt>
<totfact> 0.27208580E+03</totfact>
</mgrwt>
</event>
<event>
 5    1  0.6729100E-004  0.2428338E+03  0.7818608E-02  0.1117919E+00
         11   -1    0    0    0    0  0.00000000000E+00  0.00000000000E+00  0.10010757449E+04  0.10010757449E+04  0.51100000000E-03 0. -1.
          2   -1    0    0  501    0 -0.00000000000E+00 -0.00000000000E+00 -0.14606212916E+04  0.14606212916E+04  0.25500000000E-02 0. -1.
         11    1    1    2    0    0  0.83700865975E+02 -0.36103297252E+03  0.24183494709E+03  0.44253224045E+03  0.51100000000E-03 0. -1.
         22    1    1    2    0    0  0.10632414922E+03  0.21235529807E+03  0.62626070991E+03  0.66977763034E+03  0.00000000000E+00 0. -1.
          2    1    1    2  501    0 -0.19002501519E+03  0.14867767445E+03 -0.13276412037E+04  0.13493871657E+04  0.25500000000E-02 0. -1.
<mgrwt>
<rscale>  0 0.24283381E+03</rscale>
<asrwt>0</asrwt>
<pdfrwt beam="1">  1       11 0.10000000E+01 0.23748599E+03</pdfrwt>
<pdfrwt beam="2">  1        2 0.22495269E+00 0.24283381E+03</pdfrwt>
<totfact> 0.18070558E+01</totfact>
</mgrwt>
</event>
<event>
 5    1  0.6729100E-004  0.2374206E+03  0.7818608E-02  0.1121523E+00
         11   -1    0    0    0    0  0.00000000000E+00  0.00000000000E+00  0.10000642880E+04  0.10000642880E+04  0.51100000000E-03 0. -1.
          2   -1    0    0  501    0 -0.00000000000E+00 -0.00000000000E+00 -0.62343983197E+02  0.62343983250E+02  0.25500000000E-02 0. -1.
         11    1    1    2    0    0  0.22905100574E+03 -0.57946820013E+02  0.29960764880E+03  0.38155856746E+03  0.51100000000E-03 0. -1.
         22    1    1    2    0    0 -0.11277218314E+02  0.71797582436E+01  0.46656200696E+02  0.48533757785E+02  0.00000000000E+00 0.  1.
          2    1    1    2  501    0 -0.21777378742E+03  0.50767061769E+02  0.59145645531E+03  0.63231594601E+03  0.25500000000E-02 0. -1.
<mgrwt>
<rscale>  0 0.23742063E+03</rscale>
<asrwt>0</asrwt>
<pdfrwt beam="1">  1       11 0.10000000E+01 0.23626733E+03</pdfrwt>
<pdfrwt beam="2">  1        2 0.95919984E-02 0.23742063E+03</pdfrwt>
<totfact> 0.82522011E+02</totfact>
</mgrwt>
</event>
<event>
 5    1  0.6729100E-004  0.2204807E+03  0.7818608E-02  0.1133525E+00
         11   -1    0    0    0    0  0.00000000000E+00  0.00000000000E+00  0.99975570622E+03  0.99975570622E+03  0.51100000000E-03 0. -1.
          2   -1    0    0  501    0 -0.00000000000E+00 -0.00000000000E+00 -0.47619133330E+03  0.47619133331E+03  0.25500000000E-02 0. -1.
         11    1    1    2    0    0 -0.10818558931E+03  0.16059758102E+03  0.66583332065E+03  0.69341886018E+03  0.51100000000E-03 0. -1.
         22    1    1    2    0    0  0.87073811177E+02  0.60873435166E+02  0.28316252935E+03  0.30243750054E+03  0.00000000000E+00 0. -1.
          2    1    1    2  501    0  0.21111778128E+02 -0.22147101619E+03 -0.42543147708E+03  0.48009067881E+03  0.25500000000E-02 0. -1.
<mgrwt>
<rscale>  0 0.22048075E+03</rscale>
<asrwt>0</asrwt>
<pdfrwt beam="1">  1       11 0.10000000E+01 0.10624229E+03</pdfrwt>
<pdfrwt beam="2">  1        2 0.73242306E-01 0.22048075E+03</pdfrwt>
<totfact> 0.82154686E+01</totfact>
</mgrwt>
</event>
<event>
 5    1  0.6729100E-004  0.1575294E+03  0.7818608E-02  0.1191515E+00
         11   -1    0    0    0    0  0.00000000000E+00  0.00000000000E+00  0.10007854088E+04  0.10007854088E+04  0.51100000000E-03 0.  1.
          2   -1    0    0  501    0 -0.00000000000E+00 -0.00000000000E+00 -0.95674477604E+02  0.95674477638E+02  0.25500000000E-02 0.  1.
         11    1    1    2    0    0  0.10216044627E+03  0.18537015244E+03  0.40219466508E+03  0.45448806235E+03  0.51100000000E-03 0.  1.
         22    1    1    2    0    0  0.73953971970E+01 -0.84928720570E+02  0.48480364147E+03  0.49224196313E+03  0.00000000000E+00 0.  1.
          2    1    1    2  501    0 -0.10955584347E+03 -0.10044143187E+03  0.18112624592E+02  0.14972986091E+03  0.25500000000E-02 0.  1.
<mgrwt>
<rscale>  0 0.15752942E+03</rscale>
<asrwt>0</asrwt>
<pdfrwt beam="1">  1       11 0.10000000E+01 0.85250100E+02</pdfrwt>
<pdfrwt beam="2">  1        2 0.14730711E-01 0.15752942E+03</pdfrwt>
<totfact> 0.48085846E+02</totfact>
</mgrwt>
</event>
<event>
 5    1  0.6729100E-004  0.1165254E+03  0.7818608E-02  0.1248942E+00
         11   -1    0    0    0    0  0.00000000000E+00  0.00000000000E+00  0.10003467663E+04  0.10003467663E+04  0.51100000000E-03 0.  1.
         -2   -1    0    0    0  501 -0.00000000000E+00 -0.00000000000E+00 -0.10688836437E+03  0.10688836440E+03  0.25500000000E-02 0. -1.
         11    1    1    2    0    0  0.13748189315E+03  0.19118005928E+02  0.76309416062E+03  0.77561554076E+03  0.51100000000E-03 0.  1.
         22    1    1    2    0    0 -0.35074107089E+02  0.35119813883E+02  0.19342285206E+03  0.19968974439E+03  0.00000000000E+00 0. -1.
         -2    1    1    2    0  501 -0.10240778606E+03 -0.54237819811E+02 -0.63058610773E+02  0.13192984553E+03  0.25500000000E-02 0. -1.
<mgrwt>
<rscale>  0 0.11652540E+03</rscale>
<asrwt>0</asrwt>
<pdfrwt beam="1">  1       11 0.10000000E+01 0.49634608E+02</pdfrwt>
<pdfrwt beam="2">  1       -2 0.16450066E-01 0.11652540E+03</pdfrwt>
<totfact> 0.22772665E+02</totfact>
</mgrwt>
</event>
<event>
 5    1  0.6729100E-004  0.3113302E+03  0.7818608E-02  0.1083895E+00
         11   -1    0    0    0    0  0.00000000000E+00  0.00000000000E+00  0.10000510879E+04  0.10000510879E+04  0.51100000000E-03 0. -1.
          2   -1    0    0  501    0 -0.00000000000E+00 -0.00000000000E+00 -0.32337436903E+03  0.32337436904E+03  0.25500000000E-02 0. -1.
         11    1    1    2    0    0  0.16373973724E+03  0.21777553983E+02  0.40626921380E+03  0.43856543126E+03  0.51100000000E-03 0. -1.
         22    1    1    2    0    0  0.12589479435E+03  0.66218390537E+02  0.49042764084E+03  0.51064042671E+03  0.00000000000E+00 0. -1.
          2    1    1    2  501    0 -0.28963453159E+03 -0.87995944520E+02 -0.22002013575E+03  0.37421959901E+03  0.25500000000E-02 0. -1.
<mgrwt>
<rscale>  0 0.30270687E+03</rscale>
<asrwt>0</asrwt>
<pdfrwt beam="1">  1       11 0.10000000E+01 0.31133023E+03</pdfrwt>
<pdfrwt beam="2">  1        2 0.49752443E-01 0.30270687E+03</pdfrwt>
<totfact> 0.12509798E+02</totfact>
</mgrwt>
</event>
<event>
 5    1  0.6729100E-004  0.1731498E+03  0.7818608E-02  0.1180698E+00
         11   -1    0    0    0    0  0.00000000000E+00  0.00000000000E+00  0.10001950831E+04  0.10001950831E+04  0.51100000000E-03 0.  1.
          2   -1    0    0  501    0 -0.00000000000E+00 -0.00000000000E+00 -0.11945618575E+03  0.11945618577E+03  0.25500000000E-02 0.  1.
         11    1    1    2    0    0 -0.79134816912E+02 -0.13127572379E+03  0.85829389232E+03  0.87187386731E+03  0.51100000000E-03 0.  1.
         22    1    1    2    0    0  0.40618491999E+01 -0.18229928760E+02  0.71130322147E+02  0.73541496111E+02  0.00000000000E+00 0.  1.
          2    1    1    2  501    0  0.75072967712E+02  0.14950565255E+03 -0.48685317140E+02  0.17423590542E+03  0.25500000000E-02 0.  1.
<mgrwt>
<rscale>  0 0.16729582E+03</rscale>
<asrwt>0</asrwt>
<pdfrwt beam="1">  1       11 0.10000000E+01 0.17314976E+03</pdfrwt>
<pdfrwt beam="2">  1        2 0.18381459E-01 0.16729582E+03</pdfrwt>
<totfact> 0.37246221E+02</totfact>
</mgrwt>
</event>
<event>
 5    1  0.6729100E-004  0.3372670E+03  0.7818608E-02  0.1184204E+00
         11   -1    0    0    0    0  0.00000000000E+00  0.00000000000E+00  0.10005310317E+04  0.10005310317E+04  0.51100000000E-03 0. -1.
          2   -1    0    0  501    0 -0.00000000000E+00 -0.00000000000E+00 -0.22325376370E+03  0.22325376372E+03  0.25500000000E-02 0. -1.
         11    1    1    2    0    0 -0.24010989274E+03  0.29766183291E+03  0.63010487896E+03  0.73708037951E+03  0.51100000000E-03 0. -1.
         22    1    1    2    0    0  0.78238658805E+02 -0.27104487993E+03  0.15609622617E+03  0.32241688308E+03  0.00000000000E+00 0. -1.
          2    1    1    2  501    0  0.16187123394E+03 -0.26616952979E+02 -0.89238371514E+01  0.16428753282E+03  0.25500000000E-02 0. -1.
<mgrwt>
<rscale>  0 0.16404499E+03</rscale>
<asrwt>0</asrwt>
<pdfrwt beam="1">  1       11 0.10000000E+01 0.33726702E+03</pdfrwt>
<pdfrwt beam="2">  1        2 0.34364971E-01 0.16404499E+03</pdfrwt>
<totfact> 0.18586367E+02</totfact>
</mgrwt>
</event>
<event>
 5    1  0.6729100E-004  0.1183585E+03  0.7818608E-02  0.1475838E+00
         11   -1    0    0    0    0  0.00000000000E+00  0.00000000000E+00  0.10002516959E+04  0.10002516959E+04  0.51100000000E-03 0.  1.
          2   -1    0    0  501    0 -0.00000000000E+00 -0.00000000000E+00 -0.42135857275E+02  0.42135857352E+02  0.25500000000E-02 0. -1.
         11    1    1    2    0    0 -0.10558535748E+03  0.27197337208E+02  0.55121204911E+03  0.56189205899E+03  0.51100000000E-03 0.  1.
         22    1    1    2    0    0  0.14177860402E+03 -0.86075335676E+00  0.41174617491E+03  0.43547310595E+03  0.00000000000E+00 0. -1.
          2    1    1    2  501    0 -0.36193246539E+02 -0.26336583851E+02 -0.48423854211E+01  0.45022388287E+02  0.25500000000E-02 0. -1.
<mgrwt>
<rscale>  0 0.44761219E+02</rscale>
<asrwt>0</asrwt>
<pdfrwt beam="1">  1       11 0.10000000E+01 0.11835853E+03</pdfrwt>
<pdfrwt beam="2">  1        2 0.64840710E-02 0.44761219E+02</pdfrwt>
<totfact> 0.11928288E+03</totfact>
</mgrwt>
</event>
<event>
 5    1  0.6729100E-004  0.2082294E+03  0.7818608E-02  0.1142976E+00
         11   -1    0    0    0    0  0.00000000000E+00  0.00000000000E+00  0.10002317935E+04  0.10002317935E+04  0.51100000000E-03 0. -1.
          2   -1    0    0  501    0 -0.00000000000E+00 -0.00000000000E+00 -0.85076289868E+02  0.85076289906E+02  0.25500000000E-02 0. -1.
         11    1    1    2    0    0  0.99263446113E+02  0.11779760460E+02  0.59767076602E+02  0.11646500735E+03  0.51100000000E-03 0. -1.
         22    1    1    2    0    0  0.12233102029E+03 -0.95065239804E+02  0.60393110118E+03  0.62348620940E+03  0.00000000000E+00 0.  1.
          2    1    1    2  501    0 -0.22159446640E+03  0.83285479344E+02  0.25145732582E+03  0.34535686662E+03  0.25500000000E-02 0. -1.
<mgrwt>
<rscale>  0 0.20822938E+03</rscale>
<asrwt>0</asrwt>
<pdfrwt beam="1">  1       11 0.10000000E+01 0.99960014E+02</pdfrwt>
<pdfrwt beam="2">  1        2 0.13091693E-01 0.20822938E+03</pdfrwt>
<totfact> 0.55982787E+02</totfact>
</mgrwt>
</event>
<event>
 5    1  0.6729100E-004  0.1774316E+03  0.7818608E-02  0.1170312E+00
         11   -1    0    0    0    0  0.00000000000E+00  0.00000000000E+00  0.10002730353E+04  0.10002730353E+04  0.51100000000E-03 0. -1.
          2   -1    0    0  501    0 -0.00000000000E+00 -0.00000000000E+00 -0.52967086102E+03  0.52967086102E+03  0.25500000000E-02 0. -1.
         11    1    1    2    0    0 -0.15049304821E+03 -0.99855430582E+02 -0.49443777127E+03  0.52639146481E+03  0.51100000000E-03 0. -1.
         22    1    1    2    0    0  0.10495628412E+03 -0.31766996512E+02  0.64878891412E+03  0.65799089563E+03  0.00000000000E+00 0. -1.
          2    1    1    2  501    0  0.45536764087E+02  0.13162242709E+03  0.31625103146E+03  0.34556153591E+03  0.25500000000E-02 0. -1.
<mgrwt>
<rscale>  0 0.17743162E+03</rscale>
<asrwt>0</asrwt>
<pdfrwt beam="1">  1       11 0.10000000E+01 0.10965840E+03</pdfrwt>
<pdfrwt beam="2">  1        2 0.81510071E-01 0.17743162E+03</pdfrwt>
<totfact> 0.73173546E+01</totfact>
</mgrwt>
</event>
<event>
 5    1  0.6729100E-004  0.7897880E+02  0.7818608E-02  0.1583686E+00
         11   -1    0    0    0    0  0.00000000000E+00  0.00000000000E+00  0.10002188003E+04  0.10002188003E+04  0.51100000000E-03 0.  1.
          2   -1    0    0  501    0 -0.00000000000E+00 -0.00000000000E+00 -0.11708095384E+02  0.11708095662E+02  0.25500000000E-02 0.  1.
         11    1    1    2    0    0 -0.63088016619E+02  0.49412176933E+02  0.17500327413E+03  0.19247806895E+03  0.51100000000E-03 0.  1.
         22    1    1    2    0    0  0.92794335188E+01  0.82848374220E+01  0.39055916258E+02  0.40989157253E+02  0.00000000000E+00 0.  1.
          2    1    1    2  501    0  0.53808583100E+02 -0.57697014355E+02  0.77445151449E+03  0.77845966972E+03  0.25500000000E-02 0.  1.
<mgrwt>
<rscale>  0 0.31344425E+02</rscale>
<asrwt>0</asrwt>
<pdfrwt beam="1">  1       11 0.10000000E+01 0.78978802E+02</pdfrwt>
<pdfrwt beam="2">  1        2 0.18016395E-02 0.31344425E+02</pdfrwt>
<totfact> 0.58162274E+03</totfact>
</mgrwt>
</event>
<event>
 5    1  0.6729100E-004  0.8923395E+02  0.7818608E-02  0.1327022E+00
         11   -1    0    0    0    0  0.00000000000E+00  0.00000000000E+00  0.10001982968E+04  0.10001982968E+04  0.51100000000E-03 0. -1.
          2   -1    0    0  501    0 -0.00000000000E+00 -0.00000000000E+00 -0.26751461251E+02  0.26751461373E+02  0.25500000000E-02 0. -1.
         11    1    1    2    0    0  0.96985164357E+02 -0.19081438916E+02  0.44574178939E+03  0.45656978243E+03  0.51100000000E-03 0. -1.
         22    1    1    2    0    0 -0.48829880901E+02  0.83863531856E+02  0.44247790666E+03  0.45299464360E+03  0.00000000000E+00 0. -1.
          2    1    1    2  501    0 -0.48155283456E+02 -0.64782092939E+02  0.85227139497E+02  0.11738533215E+03  0.25500000000E-02 0. -1.
<mgrwt>
<rscale>  0 0.80719582E+02</rscale>
<asrwt>0</asrwt>
<pdfrwt beam="1">  1       11 0.10000000E+01 0.89233950E+02</pdfrwt>
<pdfrwt beam="2">  1        2 0.41164254E-02 0.80719582E+02</pdfrwt>
<totfact> 0.22512466E+03</totfact>
</mgrwt>
</event>
<event>
 5    1  0.6729100E-004  0.7155982E+02  0.7818608E-02  0.1379115E+00
         11   -1    0    0    0    0  0.00000000000E+00  0.00000000000E+00  0.10000189165E+04  0.10000189165E+04  0.51100000000E-03 0.  1.
          2   -1    0    0  501    0 -0.00000000000E+00 -0.00000000000E+00 -0.15807695324E+02  0.15807695529E+02  0.25500000000E-02 0.  1.
         11    1    1    2    0    0 -0.50071013345E+02  0.68037621415E+02  0.45632069578E+03  0.46407413385E+03  0.51100000000E-03 0.  1.
         22    1    1    2    0    0  0.72782160284E+02 -0.74579858001E+01  0.41699204160E+03  0.42336181591E+03  0.00000000000E+00 0.  1.
          2    1    1    2  501    0 -0.22711146939E+02 -0.60579635615E+02  0.11089848380E+03  0.12839066229E+03  0.25500000000E-02 0.  1.
<mgrwt>
<rscale>  0 0.64696897E+02</rscale>
<asrwt>0</asrwt>
<pdfrwt beam="1">  1       11 0.10000000E+01 0.71559817E+02</pdfrwt>
<pdfrwt beam="2">  1        2 0.24319991E-02 0.64696897E+02</pdfrwt>
<totfact> 0.43807229E+03</totfact>
</mgrwt>
</event>
<event>
 5    1  0.6729100E-004  0.2667158E+03  0.7818608E-02  0.1103174E+00
         11   -1    0    0    0    0  0.00000000000E+00  0.00000000000E+00  0.10001051659E+04  0.10001051659E+04  0.51100000000E-03 0.  1.
          2   -1    0    0  501    0 -0.00000000000E+00 -0.00000000000E+00 -0.88055829568E+02  0.88055829605E+02  0.25500000000E-02 0.  1.
         11    1    1    2    0    0  0.27869772071E+03 -0.55295216126E+02  0.41074094194E+03  0.49943778576E+03  0.51100000000E-03 0.  1.
         22    1    1    2    0    0 -0.36530045385E+02 -0.15922724127E+02  0.15588542809E+03  0.16089824129E+03  0.00000000000E+00 0. -1.
          2    1    1    2  501    0 -0.24216767532E+03  0.71217940253E+02  0.34542296632E+03  0.42782496848E+03  0.25500000000E-02 0.  1.
<mgrwt>
<rscale>  0 0.26671576E+03</rscale>
<asrwt>0</asrwt>
<pdfrwt beam="1">  1       11 0.10000000E+01 0.39849434E+02</pdfrwt>
<pdfrwt beam="2">  1        2 0.13548475E-01 0.26671576E+03</pdfrwt>
<totfact> 0.54249324E+02</totfact>
</mgrwt>
</event>
<event>
 5    1  0.6729100E-004  0.1284956E+03  0.7818608E-02  0.1668444E+00
         11   -1    0    0    0    0  0.00000000000E+00  0.00000000000E+00  0.10001731371E+04  0.10001731371E+04  0.51100000000E-03 0. -1.
          2   -1    0    0  501    0 -0.00000000000E+00 -0.00000000000E+00 -0.28791487211E+02  0.28791487324E+02  0.25500000000E-02 0. -1.
         11    1    1    2    0    0 -0.10884263054E+03 -0.78782119921E+02  0.70589058047E+03  0.71856443848E+03  0.51100000000E-03 0. -1.
         22    1    1    2    0    0  0.84531190148E+02  0.81730037886E+02  0.25992965130E+03  0.28528712699E+03  0.00000000000E+00 0. -1.
          2    1    1    2  501    0  0.24311440391E+02 -0.29479179644E+01  0.55614181631E+01  0.25113059007E+02  0.25500000000E-02 0. -1.
<mgrwt>
<rscale>  0 0.24489515E+02</rscale>
<asrwt>0</asrwt>
<pdfrwt beam="1">  1       11 0.10000000E+01 0.12849561E+03</pdfrwt>
<pdfrwt beam="2">  1        2 0.44302264E-02 0.24489515E+02</pdfrwt>
<totfact> 0.17803947E+03</totfact>
</mgrwt>
</event>
<event>
 5    1  0.6729100E-004  0.1940307E+03  0.7818608E-02  0.1154875E+00
         11   -1    0    0    0    0  0.00000000000E+00  0.00000000000E+00  0.10001893573E+04  0.10001893573E+04  0.51100000000E-03 0.  1.
          2   -1    0    0  501    0 -0.00000000000E+00 -0.00000000000E+00 -0.76444452830E+02  0.76444452873E+02  0.25500000000E-02 0.  1.
         11    1    1    2    0    0 -0.14326998418E+03 -0.10472860894E+03  0.33889608915E+03  0.38255055763E+03  0.51100000000E-03 0.  1.
         22    1    1    2    0    0  0.52716966503E+02 -0.90020696903E+02  0.39129861892E+03  0.40496594128E+03  0.00000000000E+00 0.  1.
          2    1    1    2  501    0  0.90553017677E+02  0.19474930585E+03  0.19355019638E+03  0.28911731125E+03  0.25500000000E-02 0.  1.
<mgrwt>
<rscale>  0 0.19403067E+03</rscale>
<asrwt>0</asrwt>
<pdfrwt beam="1">  1       11 0.10000000E+01 0.10432068E+03</pdfrwt>
<pdfrwt beam="2">  1        2 0.11762912E-01 0.19403067E+03</pdfrwt>
<totfact> 0.63531988E+02</totfact>
</mgrwt>
</event>
<event>
 5    1  0.6729100E-004  0.1516478E+03  0.7818608E-02  0.1198463E+00
         11   -1    0    0    0    0  0.00000000000E+00  0.00000000000E+00  0.10003371602E+04  0.10003371602E+04  0.51100000000E-03 0. -1.
          2   -1    0    0  501    0 -0.00000000000E+00 -0.00000000000E+00 -0.20014725147E+03  0.20014725149E+03  0.25500000000E-02 0. -1.
         11    1    1    2    0    0 -0.13802512376E+03  0.11594418580E+03  0.69186410085E+03  0.71496148362E+03  0.51100000000E-03 0. -1.
         22    1    1    2    0    0  0.43973695834E+02  0.16220564397E+01  0.26476912604E+03  0.26840083289E+03  0.00000000000E+00 0.  1.
          2    1    1    2  501    0  0.94051427924E+02 -0.11756624224E+03 -0.15644331817E+03  0.21712209518E+03  0.25500000000E-02 0. -1.
<mgrwt>
<rscale>  0 0.15164778E+03</rscale>
<asrwt>0</asrwt>
<pdfrwt beam="1">  1       11 0.10000000E+01 0.44003602E+02</pdfrwt>
<pdfrwt beam="2">  1        2 0.30802266E-01 0.15164778E+03</pdfrwt>
<totfact> 0.20895704E+02</totfact>
</mgrwt>
</event>
<event>
 5    1  0.6729100E-004  0.3016706E+03  0.7818608E-02  0.1084408E+00
         11   -1    0    0    0    0  0.00000000000E+00  0.00000000000E+00  0.10001914495E+04  0.10001914495E+04  0.51100000000E-03 0. -1.
          2   -1    0    0  501    0 -0.00000000000E+00 -0.00000000000E+00 -0.12729130760E+03  0.12729130762E+03  0.25500000000E-02 0. -1.
         11    1    1    2    0    0  0.29472493398E+03  0.22362791822E+02  0.66191440487E+03  0.72490934644E+03  0.51100000000E-03 0. -1.
         22    1    1    2    0    0  0.89784540076E+01 -0.12071758949E+02  0.62636423190E+02  0.64417866393E+02  0.00000000000E+00 0.  1.
          2    1    1    2  501    0 -0.30370338799E+03 -0.10291032873E+02  0.14834931388E+03  0.33815554434E+03  0.25500000000E-02 0. -1.
<mgrwt>
<rscale>  0 0.30167059E+03</rscale>
<asrwt>0</asrwt>
<pdfrwt beam="1">  1       11 0.10000000E+01 0.15044600E+02</pdfrwt>
<pdfrwt beam="2">  1        2 0.19587027E-01 0.30167059E+03</pdfrwt>
<totfact> 0.35222380E+02</totfact>
</mgrwt>
</event>
<event>
 5    1  0.6729100E-004  0.1454827E+03  0.7818608E-02  0.1212159E+00
         11   -1    0    0    0    0  0.00000000000E+00  0.00000000000E+00  0.10003476236E+04  0.10003476236E+04  0.51100000000E-03 0. -1.
          2   -1    0    0  501    0 -0.00000000000E+00 -0.00000000000E+00 -0.28130334734E+02  0.28130334849E+02  0.25500000000E-02 0. -1.
         11    1    1    2    0    0  0.79335791206E+01 -0.12117356215E+03  0.16436285471E+03  0.20435538126E+03  0.51100000000E-03 0. -1.
         22    1    1    2    0    0  0.33493417660E+01 -0.19246595281E+02  0.59520773105E+02  0.62644807855E+02  0.00000000000E+00 0.  1.
          2    1    1    2  501    0 -0.11282920887E+02  0.14042015743E+03  0.74833366106E+03  0.76147776934E+03  0.25500000000E-02 0. -1.
<mgrwt>
<rscale>  0 0.14087273E+03</rscale>
<asrwt>0</asrwt>
<pdfrwt beam="1">  1       11 0.10000000E+01 0.14548272E+03</pdfrwt>
<pdfrwt beam="2">  1        2 0.43292481E-02 0.14087273E+03</pdfrwt>
<totfact> 0.22209191E+03</totfact>
</mgrwt>
</event>
<event>
 5    1  0.6729100E-004  0.1146621E+03  0.7818608E-02  0.1298793E+00
         11   -1    0    0    0    0  0.00000000000E+00  0.00000000000E+00  0.10000699232E+04  0.10000699232E+04  0.51100000000E-03 0. -1.
          2   -1    0    0  501    0 -0.00000000000E+00 -0.00000000000E+00 -0.97418445051E+02  0.97418445085E+02  0.25500000000E-02 0. -1.
         11    1    1    2    0    0 -0.18697824616E+03 -0.39860959953E+02  0.38559717298E+03  0.43038928945E+03  0.51100000000E-03 0. -1.
         22    1    1    2    0    0  0.96640378649E+02  0.24130771004E+02  0.55789561513E+03  0.56671789656E+03  0.00000000000E+00 0. -1.
          2    1    1    2  501    0  0.90337867511E+02  0.15730188949E+02 -0.40841309956E+02  0.10038118228E+03  0.25500000000E-02 0. -1.
<mgrwt>
<rscale>  0 0.91697160E+02</rscale>
<asrwt>0</asrwt>
<pdfrwt beam="1">  1       11 0.10000000E+01 0.11466210E+03</pdfrwt>
<pdfrwt beam="2">  1        2 0.14988501E-01 0.91697160E+02</pdfrwt>
<totfact> 0.46003415E+02</totfact>
</mgrwt>
</event>
<event>
 5    1  0.6729100E-004  0.7014944E+02  0.7818608E-02  0.1546586E+00
         11   -1    0    0    0    0  0.00000000000E+00  0.00000000000E+00  0.10002126684E+04  0.10002126684E+04  0.51100000000E-03 0. -1.
          2   -1    0    0  501    0 -0.00000000000E+00 -0.00000000000E+00 -0.83786484968E+01  0.83786488848E+01  0.25500000000E-02 0. -1.
         11    1    1    2    0    0 -0.64936226146E+02  0.50632918970E+02  0.30832316194E+03  0.31912940657E+03  0.51100000000E-03 0. -1.
         22    1    1    2    0    0  0.17003449997E+02 -0.48837052987E+01  0.63431063898E+02  0.65851862209E+02  0.00000000000E+00 0. -1.
          2    1    1    2  501    0  0.47932776149E+02 -0.45749213671E+02  0.62007979404E+03  0.62361004848E+03  0.25500000000E-02 0. -1.
<mgrwt>
<rscale>  0 0.35227914E+02</rscale>
<asrwt>0</asrwt>
<pdfrwt beam="1">  1       11 0.10000000E+01 0.70149437E+02</pdfrwt>
<pdfrwt beam="2">  1        2 0.12892970E-02 0.35227914E+02</pdfrwt>
<totfact> 0.92129183E+03</totfact>
</mgrwt>
</event>
<event>
 5    1  0.6729100E-004  0.2811764E+03  0.7818608E-02  0.1095048E+00
         11   -1    0    0    0    0  0.00000000000E+00  0.00000000000E+00  0.10000165654E+04  0.10000165654E+04  0.51100000000E-03 0.  1.
         -2   -1    0    0    0  501 -0.00000000000E+00 -0.00000000000E+00 -0.17173494641E+03  0.17173494643E+03  0.25500000000E-02 0. -1.
         11    1    1    2    0    0  0.45622828611E+02 -0.29160218118E+03  0.75104995169E+03  0.80696301308E+03  0.51100000000E-03 0.  1.
         22    1    1    2    0    0  0.41947102015E+01  0.17339860177E+02  0.84082493300E+02  0.85954243782E+02  0.00000000000E+00 0.  1.
         -2    1    1    2    0  501 -0.49817538813E+02  0.27426232100E+03 -0.68508260412E+01  0.27883425492E+03  0.25500000000E-02 0. -1.
<mgrwt>
<rscale>  0 0.28117636E+03</rscale>
<asrwt>0</asrwt>
<pdfrwt beam="1">  1       11 0.10000000E+01 0.17840021E+02</pdfrwt>
<pdfrwt beam="2">  1       -2 0.26421198E-01 0.28117636E+03</pdfrwt>
<totfact> 0.10374590E+02</totfact>
</mgrwt>
</event>
<event>
 5    1  0.6729100E-004  0.1229790E+03  0.7818608E-02  0.1238262E+00
         11   -1    0    0    0    0  0.00000000000E+00  0.00000000000E+00  0.10001710383E+04  0.10001710383E+04  0.51100000000E-03 0. -1.
          2   -1    0    0  501    0 -0.00000000000E+00 -0.00000000000E+00 -0.34491365735E+03  0.34491365736E+03  0.25500000000E-02 0. -1.
         11    1    1    2    0    0  0.17354552902E+03 -0.43991319986E+02  0.90696513098E+03  0.92446689270E+03  0.51100000000E-03 0. -1.
         22    1    1    2    0    0 -0.64966260773E+02 -0.12346477051E+02  0.57790631075E+02  0.87822591481E+02  0.00000000000E+00 0.  1.
          2    1    1    2  501    0 -0.10857926824E+03  0.56337797037E+02 -0.30949838111E+03  0.33279521148E+03  0.25500000000E-02 0. -1.
<mgrwt>
<rscale>  0 0.12297897E+03</rscale>
<asrwt>0</asrwt>
<pdfrwt beam="1">  1       11 0.10000000E+01 0.66129045E+02</pdfrwt>
<pdfrwt beam="2">  1        2 0.53072714E-01 0.12297897E+03</pdfrwt>
<totfact> 0.11679177E+02</totfact>
</mgrwt>
</event>
<event>
 5    1  0.6729100E-004  0.3133380E+03  0.7818608E-02  0.1079307E+00
         11   -1    0    0    0    0  0.00000000000E+00  0.00000000000E+00  0.99989785872E+03  0.99989785872E+03  0.51100000000E-03 0. -1.
          2   -1    0    0  501    0 -0.00000000000E+00 -0.00000000000E+00 -0.98347171409E+02  0.98347171442E+02  0.25500000000E-02 0. -1.
         11    1    1    2    0    0 -0.69074978644E+01  0.30119197207E+03  0.39038218979E+03  0.49311517080E+03  0.51100000000E-03 0. -1.
         22    1    1    2    0    0  0.37331203660E+01  0.10968063606E+02  0.21290306820E+02  0.24238642111E+02  0.00000000000E+00 0. -1.
          2    1    1    2  501    0  0.31743774985E+01 -0.31216003568E+03  0.48987819070E+03  0.58089121725E+03  0.25500000000E-02 0. -1.
<mgrwt>
<rscale>  0 0.31217618E+03</rscale>
<asrwt>0</asrwt>
<pdfrwt beam="1">  1       11 0.10000000E+01 0.31333803E+03</pdfrwt>
<pdfrwt beam="2">  1        2 0.15128788E-01 0.31217618E+03</pdfrwt>
<totfact> 0.47782477E+02</totfact>
</mgrwt>
</event>
<event>
 5    1  0.6729100E-004  0.1378875E+03  0.7818608E-02  0.1216200E+00
         11   -1    0    0    0    0  0.00000000000E+00  0.00000000000E+00  0.10003019448E+04  0.10003019448E+04  0.51100000000E-03 0. -1.
          2   -1    0    0  501    0 -0.00000000000E+00 -0.00000000000E+00 -0.30299239996E+02  0.30299240104E+02  0.25500000000E-02 0. -1.
         11    1    1    2    0    0  0.53435563852E+02  0.12220576379E+03  0.20029071845E+03  0.24063661418E+03  0.51100000000E-03 0. -1.
         22    1    1    2    0    0 -0.97244557018E+01  0.23079943368E+02  0.14087467519E+03  0.14308362217E+03  0.00000000000E+00 0.  1.
          2    1    1    2  501    0 -0.43711108150E+02 -0.14528570716E+03  0.62883731120E+03  0.64688094859E+03  0.25500000000E-02 0. -1.
<mgrwt>
<rscale>  0 0.13788751E+03</rscale>
<asrwt>0</asrwt>
<pdfrwt beam="1">  1       11 0.10000000E+01 0.25044936E+02</pdfrwt>
<pdfrwt beam="2">  1        2 0.46628289E-02 0.13788751E+03</pdfrwt>
<totfact> 0.20105757E+03</totfact>
</mgrwt>
</event>
<event>
 5    1  0.9949195E-004  0.1649339E+03  0.7818608E-02  0.1187029E+00
         11   -1    0    0    0    0  0.00000000000E+00  0.00000000000E+00  0.10003095044E+04  0.10003095044E+04  0.51100000000E-03 0. -1.
          2   -1    0    0  501    0 -0.00000000000E+00 -0.00000000000E+00 -0.70455931409E+03  0.70455931409E+03  0.25500000000E-02 0.  1.
         11    1    1    2    0    0 -0.78795781134E+02  0.12428548517E+03  0.88356209954E+03  0.89573301864E+03  0.51100000000E-03 0. -1.
         22    1    1    2    0    0 -0.16735360941E+02  0.59129505626E+01  0.10054033951E+03  0.10209503004E+03  0.00000000000E+00 0. -1.
          2    1    1    2  501    0  0.95531142075E+02 -0.13019843573E+03 -0.68835224875E+03  0.70704076979E+03  0.25500000000E-02 0.  1.
<mgrwt>
<rscale>  0 0.16148632E+03</rscale>
<asrwt>0</asrwt>
<pdfrwt beam="1">  1       11 0.10000000E+01 0.16493394E+03</pdfrwt>
<pdfrwt beam="2">  1        2 0.10842729E+00 0.16148632E+03</pdfrwt>
<totfact> 0.52746386E+01</totfact>
</mgrwt>
</event>
<event>
 5    1  0.6729100E-004  0.3607355E+03  0.7818608E-02  0.1058293E+00
         11   -1    0    0    0    0  0.00000000000E+00  0.00000000000E+00  0.10004193398E+04  0.10004193398E+04  0.51100000000E-03 0. -1.
          2   -1    0    0  501    0 -0.00000000000E+00 -0.00000000000E+00 -0.54257805296E+03  0.54257805297E+03  0.25500000000E-02 0. -1.
         11    1    1    2    0    0  0.10575036840E+03 -0.34589730330E+03  0.65788344254E+03  0.75075875540E+03  0.51100000000E-03 0. -1.
         22    1    1    2    0    0 -0.40254630439E+02 -0.89555561451E+01  0.22839495870E+03  0.23208811779E+03  0.00000000000E+00 0.  1.
          2    1    1    2  501    0 -0.65495737962E+02  0.35485285945E+03 -0.42843711441E+03  0.56015051956E+03  0.25500000000E-02 0. -1.
<mgrwt>
<rscale>  0 0.36073548E+03</rscale>
<asrwt>0</asrwt>
<pdfrwt beam="1">  1       11 0.10000000E+01 0.41238783E+02</pdfrwt>
<pdfrwt beam="2">  1        2 0.83508548E-01 0.36073548E+03</pdfrwt>
<totfact> 0.70250456E+01</totfact>
</mgrwt>
</event>
<event>
 5    1  0.6729100E-004  0.1266768E+03  0.7818608E-02  0.1232472E+00
         11   -1    0    0    0    0  0.00000000000E+00  0.00000000000E+00  0.99983876475E+03  0.99983876475E+03  0.51100000000E-03 0.  1.
          2   -1    0    0  501    0 -0.00000000000E+00 -0.00000000000E+00 -0.45196548478E+03  0.45196548479E+03  0.25500000000E-02 0.  1.
         11    1    1    2    0    0 -0.12656696541E+03 -0.41985844545E+02  0.79748010912E+03  0.80855212096E+03  0.51100000000E-03 0.  1.
         22    1    1    2    0    0  0.66953913476E-01  0.35706466341E+02  0.18610786269E+03  0.18950222367E+03  0.00000000000E+00 0.  1.
          2    1    1    2  501    0  0.12650001150E+03  0.62793782044E+01 -0.43571469184E+03  0.45374990490E+03  0.25500000000E-02 0.  1.
<mgrwt>
<rscale>  0 0.12667679E+03</rscale>
<asrwt>0</asrwt>
<pdfrwt beam="1">  1       11 0.10000000E+01 0.35706529E+02</pdfrwt>
<pdfrwt beam="2">  1        2 0.69521938E-01 0.12667679E+03</pdfrwt>
<totfact> 0.87566777E+01</totfact>
</mgrwt>
</event>
<event>
 5    1  0.6729100E-004  0.1123596E+03  0.7818608E-02  0.1484060E+00
         11   -1    0    0    0    0  0.00000000000E+00  0.00000000000E+00  0.10007978852E+04  0.10007978852E+04  0.51100000000E-03 0.  1.
          2   -1    0    0  501    0 -0.00000000000E+00 -0.00000000000E+00 -0.14339790593E+04  0.14339790593E+04  0.25500000000E-02 0. -1.
         11    1    1    2    0    0  0.13767776217E+03 -0.18540177622E+02  0.55660811641E+03  0.57368240311E+03  0.51100000000E-03 0.  1.
         22    1    1    2    0    0 -0.95711376534E+02  0.71677914459E+01  0.43002943588E+03  0.44061021386E+03  0.00000000000E+00 0.  1.
          2    1    1    2  501    0 -0.41966385634E+02  0.11372386177E+02 -0.14198187265E+04  0.14204843275E+04  0.25500000000E-02 0. -1.
<mgrwt>
<rscale>  0 0.43479980E+02</rscale>
<asrwt>0</asrwt>
<pdfrwt beam="1">  1       11 0.10000000E+01 0.11235964E+03</pdfrwt>
<pdfrwt beam="2">  1        2 0.22078818E+00 0.43479980E+02</pdfrwt>
<totfact> 0.21340184E+01</totfact>
</mgrwt>
</event>
<event>
 5    1  0.6729100E-004  0.4429399E+02  0.7818608E-02  0.1529108E+00
         11   -1    0    0    0    0  0.00000000000E+00  0.00000000000E+00  0.10001956799E+04  0.10001956799E+04  0.51100000000E-03 0.  1.
          2   -1    0    0  501    0 -0.00000000000E+00 -0.00000000000E+00 -0.19082001787E+02  0.19082001957E+02  0.25500000000E-02 0.  1.
         11    1    1    2    0    0  0.44943196404E+02  0.21055104542E+02  0.23529986398E+02  0.54926028351E+02  0.51100000000E-03 0.  1.
         22    1    1    2    0    0 -0.42730154771E+02  0.16175171090E+02  0.17456114862E+03  0.18044139463E+03  0.00000000000E+00 0.  1.
          2    1    1    2  501    0 -0.22130416323E+01 -0.37230275632E+02  0.78302254314E+03  0.78391025893E+03  0.25500000000E-02 0.  1.
<mgrwt>
<rscale>  0 0.37295992E+02</rscale>
<asrwt>0</asrwt>
<pdfrwt beam="1">  1       11 0.10000000E+01 0.44293988E+02</pdfrwt>
<pdfrwt beam="2">  1        2 0.29362670E-02 0.37295992E+02</pdfrwt>
<totfact> 0.31753841E+03</totfact>
</mgrwt>
</event>
<event>
 5    1  0.6729100E-004  0.1044074E+03  0.7818608E-02  0.1450467E+00
         11   -1    0    0    0    0  0.00000000000E+00  0.00000000000E+00  0.10002837740E+04  0.10002837740E+04  0.51100000000E-03 0. -1.
          2   -1    0    0  501    0 -0.00000000000E+00 -0.00000000000E+00 -0.23336888498E+02  0.23336888637E+02  0.25500000000E-02 0. -1.
         11    1    1    2    0    0 -0.93725466035E+02  0.48354255647E+02  0.63360441497E+03  0.64232168863E+03  0.51100000000E-03 0. -1.
         22    1    1    2    0    0  0.13823117286E+02  0.18451124387E+02  0.57966180665E+00  0.23062059111E+02  0.00000000000E+00 0. -1.
          2    1    1    2  501    0  0.79902348750E+02 -0.66805380033E+02  0.34276280871E+03  0.35823691487E+03  0.25500000000E-02 0. -1.
<mgrwt>
<rscale>  0 0.49062083E+02</rscale>
<asrwt>0</asrwt>
<pdfrwt beam="1">  1       11 0.10000000E+01 0.10440736E+03</pdfrwt>
<pdfrwt beam="2">  1        2 0.35913093E-02 0.49062083E+02</pdfrwt>
<totfact> 0.25404757E+03</totfact>
</mgrwt>
</event>
<event>
 5    1  0.6729100E-004  0.4575994E+03  0.7818608E-02  0.1025480E+00
         11   -1    0    0    0    0  0.00000000000E+00  0.00000000000E+00  0.10008378740E+04  0.10008378740E+04  0.51100000000E-03 0. -1.
          2   -1    0    0  501    0 -0.00000000000E+00 -0.00000000000E+00 -0.13465254127E+04  0.13465254127E+04  0.25500000000E-02 0. -1.
         11    1    1    2    0    0  0.14347279891E+03 -0.43409174952E+03  0.76950079726E+03  0.89507070559E+03  0.51100000000E-03 0. -1.
         22    1    1    2    0    0 -0.61186916203E+02 -0.16278504267E+02  0.11961995855E+03  0.13534313023E+03  0.00000000000E+00 0. -1.
          2    1    1    2  501    0 -0.82285882712E+02  0.45037025379E+03 -0.12348082945E+04  0.13169494509E+04  0.25500000000E-02 0. -1.
<mgrwt>
<rscale>  0 0.45759939E+03</rscale>
<asrwt>0</asrwt>
<pdfrwt beam="1">  1       11 0.10000000E+01 0.63315309E+02</pdfrwt>
<pdfrwt beam="2">  1        2 0.20733132E+00 0.45759939E+03</pdfrwt>
<totfact> 0.20000838E+01</totfact>
</mgrwt>
</event>
<event>
 5    1  0.6729100E-004  0.7155801E+02  0.7818608E-02  0.1603666E+00
         11   -1    0    0    0    0  0.00000000000E+00  0.00000000000E+00  0.10000303192E+04  0.10000303192E+04  0.51100000000E-03 0. -1.
          2   -1    0    0  501    0 -0.00000000000E+00 -0.00000000000E+00 -0.11761933701E+02  0.11761933977E+02  0.25500000000E-02 0. -1.
         11    1    1    2    0    0 -0.22369311984E+02 -0.62529712084E+02  0.10769576315E+03  0.12652560379E+03  0.51100000000E-03 0. -1.
         22    1    1    2    0    0 -0.12094152276E+02 -0.12889308101E+01  0.47130836624E+02  0.48674897255E+02  0.00000000000E+00 0.  1.
          2    1    1    2  501    0  0.34463464260E+02  0.63818642894E+02  0.83344178573E+03  0.83659175214E+03  0.25500000000E-02 0. -1.
<mgrwt>
<rscale>  0 0.29501425E+02</rscale>
<asrwt>0</asrwt>
<pdfrwt beam="1">  1       11 0.10000000E+01 0.71558013E+02</pdfrwt>
<pdfrwt beam="2">  1        2 0.18095831E-02 0.29501425E+02</pdfrwt>
<totfact> 0.57216178E+03</totfact>
</mgrwt>
</event>
<event>
 5    1  0.6729100E-004  0.7843040E+02  0.7818608E-02  0.1333566E+00
         11   -1    0    0    0    0  0.00000000000E+00  0.00000000000E+00  0.10003149689E+04  0.10003149689E+04  0.51100000000E-03 0.  1.
         -2   -1    0    0    0  501 -0.00000000000E+00 -0.00000000000E+00 -0.26179265489E+02  0.26179265613E+02  0.25500000000E-02 0. -1.
         11    1    1    2    0    0  0.39867674679E+02  0.11700021260E+03  0.61533918531E+03  0.62763109723E+03  0.51100000000E-03 0.  1.
         22    1    1    2    0    0  0.50480116510E+01 -0.58936273643E+02  0.29721755850E+03  0.30304660343E+03  0.00000000000E+00 0. -1.
         -2    1    1    2    0  501 -0.44915686330E+02 -0.58063938955E+02  0.61578959584E+02  0.95816533831E+02  0.25500000000E-02 0. -1.
<mgrwt>
<rscale>  0 0.78430402E+02</rscale>
<asrwt>0</asrwt>
<pdfrwt beam="1">  1       11 0.10000000E+01 0.59152065E+02</pdfrwt>
<pdfrwt beam="2">  1       -2 0.40288478E-02 0.78430402E+02</pdfrwt>
<totfact> 0.19281429E+03</totfact>
</mgrwt>
</event>
<event>
 5    1  0.6729100E-004  0.1375098E+03  0.7818608E-02  0.1216720E+00
         11   -1    0    0    0    0  0.00000000000E+00  0.00000000000E+00  0.10005204475E+04  0.10005204475E+04  0.51100000000E-03 0.  1.
          2   -1    0    0  501    0 -0.00000000000E+00 -0.00000000000E+00 -0.22675731120E+02  0.22675731263E+02  0.25500000000E-02 0.  1.
         11    1    1    2    0    0  0.75715243163E+02  0.11736559990E+03  0.33271340481E+03  0.36084025805E+03  0.51100000000E-03 0.  1.
         22    1    1    2    0    0  0.86581070391E+01 -0.12736252704E+02  0.79048846230E+02  0.80535054733E+02  0.00000000000E+00 0. -1.
          2    1    1    2  501    0 -0.84373350202E+02 -0.10462934720E+03  0.56608246530E+03  0.58182086594E+03  0.25500000000E-02 0.  1.
<mgrwt>
<rscale>  0 0.13750982E+03</rscale>
<asrwt>0</asrwt>
<pdfrwt beam="1">  1       11 0.10000000E+01 0.15400485E+02</pdfrwt>
<pdfrwt beam="2">  1        2 0.34903895E-02 0.13750982E+03</pdfrwt>
<totfact> 0.29493828E+03</totfact>
</mgrwt>
</event>
<event>
 5    1  0.6729100E-004  0.3900171E+03  0.7818608E-02  0.1047292E+00
         11   -1    0    0    0    0  0.00000000000E+00  0.00000000000E+00  0.10002254790E+04  0.10002254790E+04  0.51100000000E-03 0. -1.
          2   -1    0    0  501    0 -0.00000000000E+00 -0.00000000000E+00 -0.22411384610E+03  0.22411384611E+03  0.25500000000E-02 0. -1.
         11    1    1    2    0    0  0.35866604190E+03  0.17536997102E+03  0.66012767956E+03  0.77146905944E+03  0.51100000000E-03 0. -1.
         22    1    1    2    0    0  0.28580254336E+01 -0.36150119473E+02  0.47014717627E+02  0.59374936808E+02  0.00000000000E+00 0.  1.
          2    1    1    2  501    0 -0.36152406733E+03 -0.13921985155E+03  0.68969235668E+02  0.39349532882E+03  0.25500000000E-02 0. -1.
<mgrwt>
<rscale>  0 0.39001709E+03</rscale>
<asrwt>0</asrwt>
<pdfrwt beam="1">  1       11 0.10000000E+01 0.36262921E+02</pdfrwt>
<pdfrwt beam="2">  1        2 0.34486827E-01 0.39001709E+03</pdfrwt>
<totfact> 0.18688858E+02</totfact>
</mgrwt>
</event>
<event>
 5    1  0.6729100E-004  0.1018563E+03  0.7818608E-02  0.1520184E+00
         11   -1    0    0    0    0  0.00000000000E+00  0.00000000000E+00  0.10004023125E+04  0.10004023125E+04  0.51100000000E-03 0. -1.
          2   -1    0    0  501    0 -0.00000000000E+00 -0.00000000000E+00 -0.27134224816E+02  0.27134224936E+02  0.25500000000E-02 0. -1.
         11    1    1    2    0    0 -0.12386026029E+03 -0.36313638751E+02  0.19297130550E+03  0.23215936161E+03  0.51100000000E-03 0. -1.
         22    1    1    2    0    0  0.91276901626E+02  0.15959463412E+02  0.31100483874E+03  0.32451531083E+03  0.00000000000E+00 0. -1.
          2    1    1    2  501    0  0.32583358664E+02  0.20354175339E+02  0.46929194342E+03  0.47086186496E+03  0.25500000000E-02 0. -1.
<mgrwt>
<rscale>  0 0.38418325E+02</rscale>
<asrwt>0</asrwt>
<pdfrwt beam="1">  1       11 0.10000000E+01 0.10185632E+03</pdfrwt>
<pdfrwt beam="2">  1        2 0.41761755E-02 0.38418325E+02</pdfrwt>
<totfact> 0.20328996E+03</totfact>
</mgrwt>
</event>
<event>
 5    1  0.6729100E-004  0.2169647E+03  0.7818608E-02  0.1136166E+00
         11   -1    0    0    0    0  0.00000000000E+00  0.00000000000E+00  0.10004650036E+04  0.10004650036E+04  0.51100000000E-03 0. -1.
          2   -1    0    0  501    0 -0.00000000000E+00 -0.00000000000E+00 -0.14544394461E+04  0.14544394461E+04  0.25500000000E-02 0. -1.
         11    1    1    2    0    0 -0.98996784241E+02  0.30317016400E+03  0.29806962519E+03  0.43652950999E+03  0.51100000000E-03 0. -1.
         22    1    1    2    0    0  0.11845207430E+03 -0.88846282371E+02  0.61598035364E+03  0.63352691487E+03  0.00000000000E+00 0. -1.
          2    1    1    2  501    0 -0.19455290056E+02 -0.21432388163E+03 -0.13680244213E+04  0.13848480248E+04  0.25500000000E-02 0. -1.
<mgrwt>
<rscale>  0 0.21696472E+03</rscale>
<asrwt>0</asrwt>
<pdfrwt beam="1">  1       11 0.10000000E+01 0.14806943E+03</pdfrwt>
<pdfrwt beam="2">  1        2 0.22386396E+00 0.21696472E+03</pdfrwt>
<totfact> 0.18379388E+01</totfact>
</mgrwt>
</event>
<event>
 5    1  0.6729100E-004  0.1094109E+03  0.7818608E-02  0.1372133E+00
         11   -1    0    0    0    0  0.00000000000E+00  0.00000000000E+00  0.10001160899E+04  0.10001160899E+04  0.51100000000E-03 0. -1.
          2   -1    0    0  501    0 -0.00000000000E+00 -0.00000000000E+00 -0.65578106751E+02  0.65578106800E+02  0.25500000000E-02 0. -1.
         11    1    1    2    0    0  0.10142932822E+03 -0.64456596537E+02  0.54206866983E+03  0.55523058657E+03  0.51100000000E-03 0. -1.
         22    1    1    2    0    0 -0.10802625610E+03 -0.17934067203E+01  0.42346076170E+03  0.43702620632E+03  0.00000000000E+00 0. -1.
          2    1    1    2  501    0  0.65969278748E+01  0.66250003257E+02 -0.30991448422E+02  0.73437403758E+02  0.25500000000E-02 0. -1.
<mgrwt>
<rscale>  0 0.66577642E+02</rscale>
<asrwt>0</asrwt>
<pdfrwt beam="1">  1       11 0.10000000E+01 0.10941093E+03</pdfrwt>
<pdfrwt beam="2">  1        2 0.10090110E-01 0.66577642E+02</pdfrwt>
<totfact> 0.71972445E+02</totfact>
</mgrwt>
</event>
<event>
 5    1  0.6729100E-004  0.2748573E+03  0.7818608E-02  0.1486009E+00
         11   -1    0    0    0    0  0.00000000000E+00  0.00000000000E+00  0.10001542031E+04  0.10001542031E+04  0.51100000000E-03 0. -1.
          2   -1    0    0  501    0 -0.00000000000E+00 -0.00000000000E+00 -0.70190194072E+03  0.70190194072E+03  0.25500000000E-02 0. -1.
         11    1    1    2    0    0  0.24910352130E+03 -0.64603609135E+02  0.42278288617E+03  0.49494601673E+03  0.51100000000E-03 0. -1.
         22    1    1    2    0    0 -0.29026710239E+03  0.51550015525E+02  0.50034787691E+03  0.58074124423E+03  0.00000000000E+00 0.  1.
          2    1    1    2  501    0  0.41163581082E+02  0.13053593610E+02 -0.62487850072E+03  0.62636888284E+03  0.25500000000E-02 0. -1.
<mgrwt>
<rscale>  0 0.43183755E+02</rscale>
<asrwt>0</asrwt>
<pdfrwt beam="1">  1       11 0.10000000E+01 0.27485727E+03</pdfrwt>
<pdfrwt beam="2">  1        2 0.10800156E+00 0.43183755E+02</pdfrwt>
<totfact> 0.55148473E+01</totfact>
</mgrwt>
</event>
<event>
 5    1  0.6729100E-004  0.5466397E+03  0.7818608E-02  0.1002275E+00
         11   -1    0    0    0    0  0.00000000000E+00  0.00000000000E+00  0.10001255889E+04  0.10001255889E+04  0.51100000000E-03 0. -1.
         -2   -1    0    0    0  501 -0.00000000000E+00 -0.00000000000E+00 -0.84815578692E+03  0.84815578692E+03  0.25500000000E-02 0.  1.
         11    1    1    2    0    0  0.51993083005E+03 -0.22589971255E+03  0.74044774584E+03  0.93253504625E+03  0.51100000000E-03 0. -1.
         22    1    1    2    0    0 -0.18421531644E+02  0.14475171529E+02  0.62782129260E+02  0.67011037698E+02  0.00000000000E+00 0. -1.
         -2    1    1    2    0  501 -0.50150929841E+03  0.21142454102E+03 -0.65126007308E+03  0.84873529191E+03  0.25500000000E-02 0.  1.
<mgrwt>
<rscale>  0 0.54663972E+03</rscale>
<asrwt>0</asrwt>
<pdfrwt beam="1">  1       11 0.10000000E+01 0.23428261E+02</pdfrwt>
<pdfrwt beam="2">  1       -2 0.13050189E+00 0.54663972E+03</pdfrwt>
<totfact> 0.35658650E+00</totfact>
</mgrwt>
</event>
<event>
 5    1  0.6729100E-004  0.1579306E+03  0.7818608E-02  0.1191053E+00
         11   -1    0    0    0    0  0.00000000000E+00  0.00000000000E+00  0.10002180388E+04  0.10002180388E+04  0.51100000000E-03 0.  1.
         -2   -1    0    0    0  501 -0.00000000000E+00 -0.00000000000E+00 -0.24018780149E+02  0.24018780284E+02  0.25500000000E-02 0.  1.
         11    1    1    2    0    0  0.21932314875E+02  0.15021861055E+03  0.49910474692E+03  0.52168209265E+03  0.51100000000E-03 0.  1.
         22    1    1    2    0    0 -0.20130977356E+02 -0.12642112914E+03  0.44161862659E+03  0.45979840092E+03  0.00000000000E+00 0.  1.
         -2    1    1    2    0  501 -0.18013375193E+01 -0.23797481417E+02  0.35475885170E+02  0.42756325541E+02  0.25500000000E-02 0.  1.
<mgrwt>
<rscale>  0 0.15793062E+03</rscale>
<asrwt>0</asrwt>
<pdfrwt beam="1">  1       11 0.10000000E+01 0.15181126E+03</pdfrwt>
<pdfrwt beam="2">  1       -2 0.36960025E-02 0.15793062E+03</pdfrwt>
<totfact> 0.23523788E+03</totfact>
</mgrwt>
</event>
<event>
 5    1  0.6729100E-004  0.2359620E+03  0.7818608E-02  0.1122512E+00
         11   -1    0    0    0    0  0.00000000000E+00  0.00000000000E+00  0.10003119035E+04  0.10003119035E+04  0.51100000000E-03 0.  1.
          2   -1    0    0  501    0 -0.00000000000E+00 -0.00000000000E+00 -0.11190840208E+03  0.11190840211E+03  0.25500000000E-02 0.  1.
         11    1    1    2    0    0  0.21767421020E+03 -0.10362753610E+03  0.75703946227E+02  0.25268916775E+03  0.51100000000E-03 0.  1.
         22    1    1    2    0    0 -0.46225477963E+01  0.56552786807E+02  0.11054385229E+03  0.12425590096E+03  0.00000000000E+00 0. -1.
          2    1    1    2  501    0 -0.21305166240E+03  0.47074749297E+02  0.70215570292E+03  0.73527523691E+03  0.25500000000E-02 0.  1.
<mgrwt>
<rscale>  0 0.23596203E+03</rscale>
<asrwt>0</asrwt>
<pdfrwt beam="1">  1       11 0.10000000E+01 0.56741393E+02</pdfrwt>
<pdfrwt beam="2">  1        2 0.17222047E-01 0.23596203E+03</pdfrwt>
<totfact> 0.40622975E+02</totfact>
</mgrwt>
</event>
<event>
 5    1  0.6729100E-004  0.1192852E+03  0.7818608E-02  0.1426138E+00
         11   -1    0    0    0    0  0.00000000000E+00  0.00000000000E+00  0.10006082828E+04  0.10006082828E+04  0.51100000000E-03 0. -1.
         -2   -1    0    0    0  501 -0.00000000000E+00 -0.00000000000E+00 -0.10496194382E+03  0.10496194385E+03  0.25500000000E-02 0.  1.
         11    1    1    2    0    0  0.10512618778E+03  0.11498248246E+03  0.42874339815E+03  0.45617254201E+03  0.51100000000E-03 0. -1.
         22    1    1    2    0    0 -0.83165664641E+02 -0.65931003826E+02  0.54464437199E+03  0.55488820223E+03  0.00000000000E+00 0. -1.
         -2    1    1    2    0  501 -0.21960523141E+02 -0.49051478633E+02 -0.77741431180E+02  0.94509482387E+02  0.25500000000E-02 0.  1.
<mgrwt>
<rscale>  0 0.53743019E+02</rscale>
<asrwt>0</asrwt>
<pdfrwt beam="1">  1       11 0.10000000E+01 0.11928520E+03</pdfrwt>
<pdfrwt beam="2">  1       -2 0.16157813E-01 0.53743019E+02</pdfrwt>
<totfact> 0.22547883E+02</totfact>
</mgrwt>
</event>
<event>
 5    1  0.6729100E-004  0.1642798E+03  0.7818608E-02  0.1183948E+00
         11   -1    0    0    0    0  0.00000000000E+00  0.00000000000E+00  0.10002011360E+04  0.10002011360E+04  0.51100000000E-03 0.  1.
          2   -1    0    0  501    0 -0.00000000000E+00 -0.00000000000E+00 -0.98710051165E+02  0.98710051198E+02  0.25500000000E-02 0.  1.
         11    1    1    2    0    0 -0.15312142958E+03  0.80033564124E+02  0.85258435386E+03  0.86991472227E+03  0.51100000000E-03 0.  1.
         22    1    1    2    0    0  0.53308141866E+01 -0.99788184485E+01  0.63773016076E+02  0.64768757723E+02  0.00000000000E+00 0. -1.
          2    1    1    2  501    0  0.14779061540E+03 -0.70054745676E+02 -0.14866285049E+02  0.16422770725E+03  0.25500000000E-02 0.  1.
<mgrwt>
<rscale>  0 0.16427976E+03</rscale>
<asrwt>0</asrwt>
<pdfrwt beam="1">  1       11 0.10000000E+01 0.11313461E+02</pdfrwt>
<pdfrwt beam="2">  1        2 0.15189216E-01 0.16427976E+03</pdfrwt>
<totfact> 0.46460919E+02</totfact>
</mgrwt>
</event>
<event>
 5    1  0.6729100E-004  0.2773827E+03  0.7818608E-02  0.1097127E+00
         11   -1    0    0    0    0  0.00000000000E+00  0.00000000000E+00  0.99984164269E+03  0.99984164269E+03  0.51100000000E-03 0.  1.
          2   -1    0    0  501    0 -0.00000000000E+00 -0.00000000000E+00 -0.68952042173E+03  0.68952042174E+03  0.25500000000E-02 0.  1.
         11    1    1    2    0    0  0.24501072830E+02 -0.27109291366E+03  0.92530375301E+03  0.96450956746E+03  0.51100000000E-03 0.  1.
         22    1    1    2    0    0  0.15550707242E+02 -0.35552049072E+01  0.23642611130E+02  0.28520817637E+02  0.00000000000E+00 0. -1.
          2    1    1    2  501    0 -0.40051780071E+02  0.27464811856E+03 -0.63862514318E+03  0.69633167932E+03  0.25500000000E-02 0.  1.
<mgrwt>
<rscale>  0 0.27738274E+03</rscale>
<asrwt>0</asrwt>
<pdfrwt beam="1">  1       11 0.10000000E+01 0.15951927E+02</pdfrwt>
<pdfrwt beam="2">  1        2 0.10606326E+00 0.27738274E+03</pdfrwt>
<totfact> 0.53302493E+01</totfact>
</mgrwt>
</event>
<event>
 5    1  0.6729100E-004  0.3054065E+03  0.7818608E-02  0.1082569E+00
         11   -1    0    0    0    0  0.00000000000E+00  0.00000000000E+00  0.10001030585E+04  0.10001030585E+04  0.51100000000E-03 0. -1.
          2   -1    0    0  501    0 -0.00000000000E+00 -0.00000000000E+00 -0.24475887138E+03  0.24475887139E+03  0.25500000000E-02 0. -1.
         11    1    1    2    0    0 -0.27644114080E+03  0.67667390605E+02  0.64526396216E+03  0.70524049865E+03  0.51100000000E-03 0. -1.
         22    1    1    2    0    0 -0.16098911720E+02  0.31878991978E+02  0.21142024083E+03  0.21441539898E+03  0.00000000000E+00 0. -1.
          2    1    1    2  501    0  0.29254005252E+03 -0.99546382583E+02 -0.10134001585E+03  0.32520603228E+03  0.25500000000E-02 0. -1.
<mgrwt>
<rscale>  0 0.30540648E+03</rscale>
<asrwt>0</asrwt>
<pdfrwt beam="1">  1       11 0.10000000E+01 0.35713374E+02</pdfrwt>
<pdfrwt beam="2">  1        2 0.37659091E-01 0.30540648E+03</pdfrwt>
<totfact> 0.16934772E+02</totfact>
</mgrwt>
</event>
<event>
 5    1  0.6729100E-004  0.4090932E+03  0.7818608E-02  0.1040676E+00
         11   -1    0    0    0    0  0.00000000000E+00  0.00000000000E+00  0.10000598258E+04  0.10000598258E+04  0.51100000000E-03 0. -1.
          2   -1    0    0  501    0 -0.00000000000E+00 -0.00000000000E+00 -0.68967088730E+03  0.68967088730E+03  0.25500000000E-02 0. -1.
         11    1    1    2    0    0  0.36142955650E+03 -0.11890550884E+03  0.66712491573E+03  0.76800097495E+03  0.51100000000E-03 0. -1.
         22    1    1    2    0    0  0.38448353273E+02  0.20361725630E+02  0.21374250659E+03  0.21812550256E+03  0.00000000000E+00 0. -1.
          2    1    1    2  501    0 -0.39987790977E+03  0.98543783213E+02 -0.57047848378E+03  0.70360423563E+03  0.25500000000E-02 0. -1.
<mgrwt>
<rscale>  0 0.40909323E+03</rscale>
<asrwt>0</asrwt>
<pdfrwt beam="1">  1       11 0.10000000E+01 0.43507192E+02</pdfrwt>
<pdfrwt beam="2">  1        2 0.10610956E+00 0.40909323E+03</pdfrwt>
<totfact> 0.52672590E+01</totfact>
</mgrwt>
</event>
<event>
 5    1  0.6729100E-004  0.1216055E+03  0.7818608E-02  0.1544559E+00
         11   -1    0    0    0    0  0.00000000000E+00  0.00000000000E+00  0.10003161759E+04  0.10003161759E+04  0.51100000000E-03 0.  1.
          2   -1    0    0  501    0 -0.00000000000E+00 -0.00000000000E+00 -0.24780307486E+03  0.24780307487E+03  0.25500000000E-02 0.  1.
         11    1    1    2    0    0 -0.45407907186E+02  0.11017818944E+03  0.70779455169E+03  0.71775639242E+03  0.51100000000E-03 0.  1.
         22    1    1    2    0    0  0.80511434075E+02 -0.10516737170E+03  0.27083333053E+03  0.30148459333E+03  0.00000000000E+00 0.  1.
          2    1    1    2  501    0 -0.35103526890E+02 -0.50108177430E+01 -0.22611478121E+03  0.22887826499E+03  0.25500000000E-02 0.  1.
<mgrwt>
<rscale>  0 0.35459356E+02</rscale>
<asrwt>0</asrwt>
<pdfrwt beam="1">  1       11 0.10000000E+01 0.12160552E+03</pdfrwt>
<pdfrwt beam="2">  1        2 0.38135603E-01 0.35459356E+02</pdfrwt>
<totfact> 0.16215378E+02</totfact>
</mgrwt>
</event>
<event>
 5    1  0.6729100E-004  0.2028028E+03  0.7818608E-02  0.1355711E+00
         11   -1    0    0    0    0  0.00000000000E+00  0.00000000000E+00  0.10003809821E+04  0.10003809821E+04  0.51100000000E-03 0. -1.
          2   -1    0    0  501    0 -0.00000000000E+00 -0.00000000000E+00 -0.82277433023E+02  0.82277433062E+02  0.25500000000E-02 0. -1.
         11    1    1    2    0    0  0.19486814410E+03  0.64270092641E+02  0.38662257843E+03  0.43769996178E+03  0.51100000000E-03 0. -1.
         22    1    1    2    0    0 -0.20625321747E+03  0.61199280280E+01  0.53515613151E+03  0.57355900161E+03  0.00000000000E+00 0. -1.
          2    1    1    2  501    0  0.11385073369E+02 -0.70390020669E+02 -0.36751608222E+01  0.71399451812E+02  0.25500000000E-02 0. -1.
<mgrwt>
<rscale>  0 0.71304803E+02</rscale>
<asrwt>0</asrwt>
<pdfrwt beam="1">  1       11 0.10000000E+01 0.20280284E+03</pdfrwt>
<pdfrwt beam="2">  1        2 0.12662889E-01 0.71304803E+02</pdfrwt>
<totfact> 0.55233815E+02</totfact>
</mgrwt>
</event>
<event>
 5    1  0.6729100E-004  0.2020192E+03  0.7818608E-02  0.1265299E+00
         11   -1    0    0    0    0  0.00000000000E+00  0.00000000000E+00  0.10001765411E+04  0.10001765411E+04  0.51100000000E-03 0. -1.
         -2   -1    0    0    0  501 -0.00000000000E+00 -0.00000000000E+00 -0.27018327931E+03  0.27018327932E+03  0.25500000000E-02 0.  1.
         11    1    1    2    0    0  0.28996594507E+03  0.29500221042E+02  0.22621095219E+02  0.29233923153E+03  0.51100000000E-03 0. -1.
         22    1    1    2    0    0 -0.18614540475E+03 -0.57327293825E+02  0.80778161876E+03  0.83093181064E+03  0.00000000000E+00 0. -1.
         -2    1    1    2    0  501 -0.10382054031E+03  0.27827072783E+02 -0.10040945223E+03  0.14708877821E+03  0.25500000000E-02 0.  1.
<mgrwt>
<rscale>  0 0.10748512E+03</rscale>
<asrwt>0</asrwt>
<pdfrwt beam="1">  1       11 0.10000000E+01 0.20201925E+03</pdfrwt>
<pdfrwt beam="2">  1       -2 0.41573995E-01 0.10748512E+03</pdfrwt>
<totfact> 0.44540303E+01</totfact>
</mgrwt>
</event>
<event>
 5    1  0.6729100E-004  0.1353210E+03  0.7818608E-02  0.1219767E+00
         11   -1    0    0    0    0  0.00000000000E+00  0.00000000000E+00  0.10006326080E+04  0.10006326080E+04  0.51100000000E-03 0. -1.
          2   -1    0    0  501    0 -0.00000000000E+00 -0.00000000000E+00 -0.12522887130E+04  0.12522887130E+04  0.25500000000E-02 0. -1.
         11    1    1    2    0    0 -0.17149206020E+03  0.14597828186E+02  0.86972205452E+03  0.88658844761E+03  0.51100000000E-03 0. -1.
         22    1    1    2    0    0  0.36849260716E+02 -0.27076535615E+01  0.11592382165E+03  0.12166976547E+03  0.00000000000E+00 0.  1.
          2    1    1    2  501    0  0.13464279949E+03 -0.11890174625E+02 -0.12373019812E+04  0.12446631080E+04  0.25500000000E-02 0. -1.
<mgrwt>
<rscale>  0 0.13532098E+03</rscale>
<asrwt>0</asrwt>
<pdfrwt beam="1">  1       11 0.10000000E+01 0.36948605E+02</pdfrwt>
<pdfrwt beam="2">  1        2 0.19278167E+00 0.13532098E+03</pdfrwt>
<totfact> 0.24398188E+01</totfact>
</mgrwt>
</event>
<event>
 5    1  0.6729100E-004  0.2617799E+03  0.7818608E-02  0.1106079E+00
         11   -1    0    0    0    0  0.00000000000E+00  0.00000000000E+00  0.99985522574E+03  0.99985522574E+03  0.51100000000E-03 0.  1.
          2   -1    0    0  501    0 -0.00000000000E+00 -0.00000000000E+00 -0.80114582738E+02  0.80114582779E+02  0.25500000000E-02 0.  1.
         11    1    1    2    0    0  0.12600748823E+02 -0.25446654908E+03  0.54261925458E+03  0.59945613593E+03  0.51100000000E-03 0.  1.
         22    1    1    2    0    0  0.10576209487E+02 -0.10626999115E+02  0.81073639782E+02  0.82448313414E+02  0.00000000000E+00 0.  1.
          2    1    1    2  501    0 -0.23176958310E+02  0.26509354819E+03  0.29604774865E+03  0.39806535917E+03  0.25500000000E-02 0.  1.
<mgrwt>
<rscale>  0 0.26177985E+03</rscale>
<asrwt>0</asrwt>
<pdfrwt beam="1">  1       11 0.10000000E+01 0.14992976E+02</pdfrwt>
<pdfrwt beam="2">  1        2 0.12323536E-01 0.26177985E+03</pdfrwt>
<totfact> 0.60814392E+02</totfact>
</mgrwt>
</event>
<event>
 5    1  0.6729100E-004  0.3224655E+03  0.7818608E-02  0.1081473E+00
         11   -1    0    0    0    0  0.00000000000E+00  0.00000000000E+00  0.99998891219E+03  0.99998891219E+03  0.51100000000E-03 0. -1.
         -2   -1    0    0    0  501 -0.00000000000E+00 -0.00000000000E+00 -0.26459162982E+03  0.26459162983E+03  0.25500000000E-02 0.  1.
         11    1    1    2    0    0 -0.43167851093E+02  0.27748709999E+03  0.73555370187E+03  0.78733842937E+03  0.51100000000E-03 0. -1.
         22    1    1    2    0    0 -0.35542596716E+02  0.19933619956E+02  0.13513789548E+03  0.14114841898E+03  0.00000000000E+00 0. -1.
         -2    1    1    2    0  501  0.78710447809E+02 -0.29742071995E+03 -0.13529431498E+03  0.33609369366E+03  0.25500000000E-02 0.  1.
<mgrwt>
<rscale>  0 0.30765958E+03</rscale>
<asrwt>0</asrwt>
<pdfrwt beam="1">  1       11 0.10000000E+01 0.32246546E+03</pdfrwt>
<pdfrwt beam="2">  1       -2 0.40705952E-01 0.30765958E+03</pdfrwt>
<totfact> 0.46568273E+01</totfact>
</mgrwt>
</event>
<event>
 5    1  0.6729100E-004  0.2101597E+03  0.7818608E-02  0.1528624E+00
         11   -1    0    0    0    0  0.00000000000E+00  0.00000000000E+00  0.10007123065E+04  0.10007123065E+04  0.51100000000E-03 0.  1.
          2   -1    0    0  501    0 -0.00000000000E+00 -0.00000000000E+00 -0.16179316883E+04  0.16179316883E+04  0.25500000000E-02 0.  1.
         11    1    1    2    0    0 -0.17360915971E+03 -0.14555824485E+03  0.41857862882E+03  0.47595736309E+03  0.51100000000E-03 0.  1.
         22    1    1    2    0    0  0.13628063213E+03  0.14698391079E+03  0.53506649925E+03  0.57137801790E+03  0.00000000000E+00 0.  1.
          2    1    1    2  501    0  0.37328527580E+02 -0.14256659466E+01 -0.15708645099E+04  0.15713086138E+04  0.25500000000E-02 0.  1.
<mgrwt>
<rscale>  0 0.37355743E+02</rscale>
<asrwt>0</asrwt>
<pdfrwt beam="1">  1       11 0.10000000E+01 0.21015974E+03</pdfrwt>
<pdfrwt beam="2">  1        2 0.24908986E+00 0.37355743E+02</pdfrwt>
<totfact> 0.17598780E+01</totfact>
</mgrwt>
</event>
<event>
 5    1  0.6729100E-004  0.1253719E+03  0.7818608E-02  0.1361117E+00
         11   -1    0    0    0    0  0.00000000000E+00  0.00000000000E+00  0.10003307693E+04  0.10003307693E+04  0.51100000000E-03 0. -1.
          2   -1    0    0  501    0 -0.00000000000E+00 -0.00000000000E+00 -0.34267800463E+02  0.34267800557E+02  0.25500000000E-02 0. -1.
         11    1    1    2    0    0  0.15831183022E+03 -0.32896185729E+02  0.48778320714E+03  0.51388447319E+03  0.51100000000E-03 0. -1.
         22    1    1    2    0    0 -0.92653842883E+02  0.56285827795E+02  0.40631628271E+03  0.42053032068E+03  0.00000000000E+00 0. -1.
          2    1    1    2  501    0 -0.65657987334E+02 -0.23389642066E+02  0.71963478984E+02  0.10018377599E+03  0.25500000000E-02 0. -1.
<mgrwt>
<rscale>  0 0.69699689E+02</rscale>
<asrwt>0</asrwt>
<pdfrwt beam="1">  1       11 0.10000000E+01 0.12537188E+03</pdfrwt>
<pdfrwt beam="2">  1        2 0.52737130E-02 0.69699689E+02</pdfrwt>
<totfact> 0.16128575E+03</totfact>
</mgrwt>
</event>
<event>
 5    1  0.6729100E-004  0.1238344E+03  0.7818608E-02  0.1236902E+00
         11   -1    0    0    0    0  0.00000000000E+00  0.00000000000E+00  0.10004778774E+04  0.10004778774E+04  0.51100000000E-03 0. -1.
          2   -1    0    0  501    0 -0.00000000000E+00 -0.00000000000E+00 -0.10607826440E+03  0.10607826443E+03  0.25500000000E-02 0. -1.
         11    1    1    2    0    0 -0.13333858714E+03  0.31197503831E+02  0.79664297242E+03  0.80832696885E+03  0.51100000000E-03 0. -1.
         22    1    1    2    0    0  0.21598983874E+02  0.21022078840E+02  0.15808040520E+03  0.16092811567E+03  0.00000000000E+00 0.  1.
          2    1    1    2  501    0  0.11173960327E+03 -0.52219582671E+02 -0.60323764630E+02  0.13730105731E+03  0.25500000000E-02 0. -1.
<mgrwt>
<rscale>  0 0.12383439E+03</rscale>
<asrwt>0</asrwt>
<pdfrwt beam="1">  1       11 0.10000000E+01 0.30140403E+02</pdfrwt>
<pdfrwt beam="2">  1        2 0.16327531E-01 0.12383439E+03</pdfrwt>
<totfact> 0.42224438E+02</totfact>
</mgrwt>
</event>
<event>
 5    1  0.6729100E-004  0.1350374E+03  0.7818608E-02  0.1220167E+00
         11   -1    0    0    0    0  0.00000000000E+00  0.00000000000E+00  0.10000103757E+04  0.10000103757E+04  0.51100000000E-03 0. -1.
         -2   -1    0    0    0  501 -0.00000000000E+00 -0.00000000000E+00 -0.21875896608E+02  0.21875896756E+02  0.25500000000E-02 0.  1.
         11    1    1    2    0    0 -0.12405775805E+03  0.56481014899E+02  0.37754683008E+03  0.40140010124E+03  0.51100000000E-03 0. -1.
         22    1    1    2    0    0  0.11748074233E+02  0.17122112987E+02  0.10472620594E+03  0.10676498588E+03  0.00000000000E+00 0.  1.
         -2    1    1    2    0  501  0.11230968382E+03 -0.73603127886E+02  0.49586144306E+03  0.51372118531E+03  0.25500000000E-02 0.  1.
<mgrwt>
<rscale>  0 0.13503736E+03</rscale>
<asrwt>0</asrwt>
<pdfrwt beam="1">  1       11 0.10000000E+01 0.20764971E+02</pdfrwt>
<pdfrwt beam="2">  1       -2 0.33655574E-02 0.13503736E+03</pdfrwt>
<totfact> 0.26609477E+03</totfact>
</mgrwt>
</event>
<event>
 5    1  0.6729100E-004  0.2440533E+03  0.7818608E-02  0.1117122E+00
         11   -1    0    0    0    0  0.00000000000E+00  0.00000000000E+00  0.10002699681E+04  0.10002699681E+04  0.51100000000E-03 0. -1.
          2   -1    0    0  501    0 -0.00000000000E+00 -0.00000000000E+00 -0.17296579168E+04  0.17296579168E+04  0.25500000000E-02 0.  1.
         11    1    1    2    0    0  0.87627788607E+02  0.17978872358E+03  0.49207700839E+03  0.53117077917E+03  0.51100000000E-03 0. -1.
         22    1    1    2    0    0  0.80682661478E+02 -0.18009244728E+01  0.47646292322E+03  0.48324926528E+03  0.00000000000E+00 0.  1.
          2    1    1    2  501    0 -0.16831045009E+03 -0.17798779911E+03 -0.16979278802E+04  0.17155078405E+04  0.25500000000E-02 0.  1.
<mgrwt>
<rscale>  0 0.24405331E+03</rscale>
<asrwt>0</asrwt>
<pdfrwt beam="1">  1       11 0.10000000E+01 0.80702758E+02</pdfrwt>
<pdfrwt beam="2">  1        2 0.26617305E+00 0.24405331E+03</pdfrwt>
<totfact> 0.13030578E+01</totfact>
</mgrwt>
</event>
<event>
 5    1  0.6729100E-004  0.1531086E+03  0.7818608E-02  0.1199062E+00
         11   -1    0    0    0    0  0.00000000000E+00  0.00000000000E+00  0.10002590000E+04  0.10002590000E+04  0.51100000000E-03 0. -1.
          2   -1    0    0  501    0 -0.00000000000E+00 -0.00000000000E+00 -0.53374623924E+02  0.53374623985E+02  0.25500000000E-02 0. -1.
         11    1    1    2    0    0  0.10536497867E+03 -0.95000164676E+02  0.80752757753E+03  0.81989487039E+03  0.51100000000E-03 0. -1.
         22    1    1    2    0    0  0.11167657139E+02 -0.12688491708E+01  0.63743978211E+02  0.64727284064E+02  0.00000000000E+00 0. -1.
          2    1    1    2  501    0 -0.11653263581E+03  0.96269013847E+02  0.75612820379E+02  0.16901146958E+03  0.25500000000E-02 0. -1.
<mgrwt>
<rscale>  0 0.15115415E+03</rscale>
<asrwt>0</asrwt>
<pdfrwt beam="1">  1       11 0.10000000E+01 0.15310856E+03</pdfrwt>
<pdfrwt beam="2">  1        2 0.82136071E-02 0.15115415E+03</pdfrwt>
<totfact> 0.97739788E+02</totfact>
</mgrwt>
</event>
<event>
 5    1  0.6729100E-004  0.1090076E+03  0.7818608E-02  0.1500925E+00
         11   -1    0    0    0    0  0.00000000000E+00  0.00000000000E+00  0.10000175725E+04  0.10000175725E+04  0.51100000000E-03 0.  1.
          2   -1    0    0  501    0 -0.00000000000E+00 -0.00000000000E+00 -0.43771027727E+02  0.43771027801E+02  0.25500000000E-02 0.  1.
         11    1    1    2    0    0 -0.12528578043E+03  0.30787433963E+02  0.42058676848E+03  0.43992911098E+03  0.51100000000E-03 0.  1.
         22    1    1    2    0    0  0.10082154662E+03  0.21234753728E+01  0.55094323472E+03  0.56009636787E+03  0.00000000000E+00 0.  1.
          2    1    1    2  501    0  0.24464233809E+02 -0.32910909336E+02 -0.15283458448E+02  0.43763121436E+02  0.25500000000E-02 0.  1.
<mgrwt>
<rscale>  0 0.41007642E+02</rscale>
<asrwt>0</asrwt>
<pdfrwt beam="1">  1       11 0.10000000E+01 0.10900764E+03</pdfrwt>
<pdfrwt beam="2">  1        2 0.67341224E-02 0.41007642E+02</pdfrwt>
<totfact> 0.11288904E+03</totfact>
</mgrwt>
</event>
<event>
 5    1  0.6729100E-004  0.1121531E+03  0.7818608E-02  0.1256634E+00
         11   -1    0    0    0    0  0.00000000000E+00  0.00000000000E+00  0.10002063549E+04  0.10002063549E+04  0.51100000000E-03 0. -1.
          2   -1    0    0  501    0 -0.00000000000E+00 -0.00000000000E+00 -0.26280314372E+02  0.26280314496E+02  0.25500000000E-02 0. -1.
         11    1    1    2    0    0  0.10866835344E+03  0.88338383149E+01  0.13763049109E+03  0.17558188920E+03  0.51100000000E-03 0. -1.
         22    1    1    2    0    0  0.14473028249E+02  0.25335917693E+02  0.14946821482E+03  0.15228960737E+03  0.00000000000E+00 0. -1.
          2    1    1    2  501    0 -0.12314138169E+03 -0.34169756008E+02  0.68682733465E+03  0.69861517285E+03  0.25500000000E-02 0. -1.
<mgrwt>
<rscale>  0 0.11215315E+03</rscale>
<asrwt>0</asrwt>
<pdfrwt beam="1">  1       11 0.10000000E+01 0.29178370E+02</pdfrwt>
<pdfrwt beam="2">  1        2 0.40439595E-02 0.11215315E+03</pdfrwt>
<totfact> 0.23799764E+03</totfact>
</mgrwt>
</event>
<event>
 5    1  0.6729100E-004  0.3189514E+03  0.7818608E-02  0.1083545E+00
         11   -1    0    0    0    0  0.00000000000E+00  0.00000000000E+00  0.10001364622E+04  0.10001364622E+04  0.51100000000E-03 0. -1.
          2   -1    0    0  501    0 -0.00000000000E+00 -0.00000000000E+00 -0.42963196945E+03  0.42963196946E+03  0.25500000000E-02 0. -1.
         11    1    1    2    0    0 -0.20908339802E+03  0.16715036658E+02  0.50563377036E+03  0.54741279626E+03  0.51100000000E-03 0. -1.
         22    1    1    2    0    0 -0.86625364816E+02  0.51241613130E+02  0.41037400976E+03  0.42253577911E+03  0.00000000000E+00 0. -1.
          2    1    1    2  501    0  0.29570876284E+03 -0.67956649788E+02 -0.34550328735E+03  0.45981985630E+03  0.25500000000E-02 0. -1.
<mgrwt>
<rscale>  0 0.30341684E+03</rscale>
<asrwt>0</asrwt>
<pdfrwt beam="1">  1       11 0.10000000E+01 0.31895138E+03</pdfrwt>
<pdfrwt beam="2">  1        2 0.66106244E-01 0.30341684E+03</pdfrwt>
<totfact> 0.91667575E+01</totfact>
</mgrwt>
</event>
<event>
 5    1  0.6729100E-004  0.1710188E+03  0.7818608E-02  0.1176790E+00
         11   -1    0    0    0    0  0.00000000000E+00  0.00000000000E+00  0.10002133788E+04  0.10002133788E+04  0.51100000000E-03 0. -1.
          2   -1    0    0  501    0 -0.00000000000E+00 -0.00000000000E+00 -0.30329501766E+02  0.30329501873E+02  0.25500000000E-02 0. -1.
         11    1    1    2    0    0 -0.14862474373E+03 -0.79265548225E+02  0.36581456657E+03  0.40273147220E+03  0.51100000000E-03 0. -1.
         22    1    1    2    0    0  0.19029316315E+02  0.22686005274E+02  0.10400392921E+03  0.10813689012E+03  0.00000000000E+00 0.  1.
          2    1    1    2  501    0  0.12959542741E+03  0.56579542952E+02  0.50006538123E+03  0.51967451833E+03  0.25500000000E-02 0. -1.
<mgrwt>
<rscale>  0 0.17101881E+03</rscale>
<asrwt>0</asrwt>
<pdfrwt beam="1">  1       11 0.10000000E+01 0.16844100E+03</pdfrwt>
<pdfrwt beam="2">  1        2 0.46670727E-02 0.17101881E+03</pdfrwt>
<totfact> 0.20440684E+03</totfact>
</mgrwt>
</event>
<event>
 5    1  0.6729100E-004  0.2084495E+03  0.7818608E-02  0.1142800E+00
         11   -1    0    0    0    0  0.00000000000E+00  0.00000000000E+00  0.10002227724E+04  0.10002227724E+04  0.51100000000E-03 0.  1.
         -2   -1    0    0    0  501 -0.00000000000E+00 -0.00000000000E+00 -0.10325388745E+03  0.10325388748E+03  0.25500000000E-02 0. -1.
         11    1    1    2    0    0 -0.23686737417E+03  0.23346113428E+02  0.76699678285E+03  0.80307861313E+03  0.51100000000E-03 0.  1.
         22    1    1    2    0    0  0.33426144820E+02 -0.13152728135E+02  0.84314496124E+02  0.91647344051E+02  0.00000000000E+00 0.  1.
         -2    1    1    2    0  501  0.20344122935E+03 -0.10193385293E+02  0.45657606022E+02  0.20875070275E+03  0.25500000000E-02 0. -1.
<mgrwt>
<rscale>  0 0.20844949E+03</rscale>
<asrwt>0</asrwt>
<pdfrwt beam="1">  1       11 0.10000000E+01 0.35920766E+02</pdfrwt>
<pdfrwt beam="2">  1       -2 0.15888752E-01 0.20844949E+03</pdfrwt>
<totfact> 0.24689987E+02</totfact>
</mgrwt>
</event>
<event>
 5    1  0.6729100E-004  0.1407842E+03  0.7818608E-02  0.1222579E+00
         11   -1    0    0    0    0  0.00000000000E+00  0.00000000000E+00  0.10001851203E+04  0.10001851203E+04  0.51100000000E-03 0. -1.
         -2   -1    0    0    0  501 -0.00000000000E+00 -0.00000000000E+00 -0.56288848380E+02  0.56288848437E+02  0.25500000000E-02 0. -1.
         11    1    1    2    0    0 -0.69286807211E+02 -0.12255409626E+03  0.27170463688E+03  0.30601238188E+03  0.51100000000E-03 0. -1.
         22    1    1    2    0    0  0.15312624717E+03  0.44753798733E+01  0.51240775333E+03  0.53481714844E+03  0.00000000000E+00 0.  1.
         -2    1    1    2    0  501 -0.83839439959E+02  0.11807871638E+03  0.15978388169E+03  0.21564443840E+03  0.25500000000E-02 0. -1.
<mgrwt>
<rscale>  0 0.13334240E+03</rscale>
<asrwt>0</asrwt>
<pdfrwt beam="1">  1       11 0.10000000E+01 0.14078419E+03</pdfrwt>
<pdfrwt beam="2">  1       -2 0.86614257E-02 0.13334240E+03</pdfrwt>
<totfact> 0.63818212E+02</totfact>
</mgrwt>
</event>
<event>
 5    1  0.6729100E-004  0.1100422E+03  0.7818608E-02  0.1696500E+00
         11   -1    0    0    0    0  0.00000000000E+00  0.00000000000E+00  0.10004404270E+04  0.10004404270E+04  0.51100000000E-03 0.  1.
          2   -1    0    0  501    0 -0.00000000000E+00 -0.00000000000E+00 -0.32084095279E+02  0.32084095380E+02  0.25500000000E-02 0.  1.
         11    1    1    2    0    0 -0.86612503290E+01  0.11871314398E+03  0.68877401475E+03  0.69898316948E+03  0.51100000000E-03 0.  1.
         22    1    1    2    0    0  0.86788491275E+01 -0.96017990102E+02  0.29211667960E+03  0.30761490755E+03  0.00000000000E+00 0.  1.
          2    1    1    2  501    0 -0.17598798504E-01 -0.22695153875E+02 -0.12534362588E+02  0.25926445401E+02  0.25500000000E-02 0.  1.
<mgrwt>
<rscale>  0 0.22695161E+02</rscale>
<asrwt>0</asrwt>
<pdfrwt beam="1">  1       11 0.10000000E+01 0.11004223E+03</pdfrwt>
<pdfrwt beam="2">  1        2 0.49381885E-02 0.22695161E+02</pdfrwt>
<totfact> 0.15415712E+03</totfact>
</mgrwt>
</event>
<event>
 5    1  0.6729100E-004  0.1143673E+03  0.7818608E-02  0.1252690E+00
         11   -1    0    0    0    0  0.00000000000E+00  0.00000000000E+00  0.10002488473E+04  0.10002488473E+04  0.51100000000E-03 0. -1.
          2   -1    0    0  501    0 -0.00000000000E+00 -0.00000000000E+00 -0.26316316047E+03  0.26316316048E+03  0.25500000000E-02 0. -1.
         11    1    1    2    0    0  0.50541207970E+01 -0.13271416871E+03  0.75025874135E+03  0.76192307596E+03  0.51100000000E-03 0. -1.
         22    1    1    2    0    0 -0.31241693425E+02  0.21623095123E+02  0.22986540851E+03  0.23298435072E+03  0.00000000000E+00 0.  1.
          2    1    1    2  501    0  0.26187572628E+02  0.11109107359E+03 -0.24303846299E+03  0.26850458114E+03  0.25500000000E-02 0. -1.
<mgrwt>
<rscale>  0 0.11436730E+03</rscale>
<asrwt>0</asrwt>
<pdfrwt beam="1">  1       11 0.10000000E+01 0.37994758E+02</pdfrwt>
<pdfrwt beam="2">  1        2 0.40496714E-01 0.11436730E+03</pdfrwt>
<totfact> 0.15531057E+02</totfact>
</mgrwt>
</event>
<event>
 5    1  0.6729100E-004  0.5176361E+03  0.7818608E-02  0.1011275E+00
         11   -1    0    0    0    0  0.00000000000E+00  0.00000000000E+00  0.10001621678E+04  0.10001621678E+04  0.51100000000E-03 0. -1.
          2   -1    0    0  501    0 -0.00000000000E+00 -0.00000000000E+00 -0.14850233926E+04  0.14850233926E+04  0.25500000000E-02 0. -1.
         11    1    1    2    0    0  0.35459277217E+03  0.33464709546E+03  0.80343378046E+03  0.93980346464E+03  0.51100000000E-03 0. -1.
         22    1    1    2    0    0  0.25260812745E+02  0.52277730263E+01  0.80623014755E+02  0.84649328288E+02  0.00000000000E+00 0. -1.
          2    1    1    2  501    0 -0.37985358491E+03 -0.33987486848E+03 -0.13689180200E+04  0.14607327674E+04  0.25500000000E-02 0. -1.
<mgrwt>
<rscale>  0 0.50970940E+03</rscale>
<asrwt>0</asrwt>
<pdfrwt beam="1">  1       11 0.10000000E+01 0.51763608E+03</pdfrwt>
<pdfrwt beam="2">  1        2 0.22850218E+00 0.50970940E+03</pdfrwt>
<totfact> 0.16653429E+01</totfact>
</mgrwt>
</event>
<event>
 5    1  0.6729100E-004  0.9232605E+03  0.7818608E-02  0.9396963E-01
         11   -1    0    0    0    0  0.00000000000E+00  0.00000000000E+00  0.99903097733E+03  0.99903097733E+03  0.51100000000E-03 0.  1.
          2   -1    0    0  501    0 -0.00000000000E+00 -0.00000000000E+00 -0.20183468476E+04  0.20183468476E+04  0.25500000000E-02 0.  1.
         11    1    1    2    0    0  0.74955500962E+03 -0.65340101415E+03  0.30775159130E+02  0.99484305705E+03  0.51100000000E-03 0.  1.
         22    1    1    2    0    0 -0.12897925775E+03 -0.61432286073E+01  0.33987868444E+03  0.36358067650E+03  0.00000000000E+00 0.  1.
          2    1    1    2  501    0 -0.62057575187E+03  0.65954424276E+03 -0.13899697138E+04  0.16589540914E+04  0.25500000000E-02 0.  1.
<mgrwt>
<rscale>  0 0.92326051E+03</rscale>
<asrwt>0</asrwt>
<pdfrwt beam="1">  1       11 0.10000000E+01 0.12912547E+03</pdfrwt>
<pdfrwt beam="2">  1        2 0.31021399E+00 0.92326051E+03</pdfrwt>
<totfact> 0.81431902E+00</totfact>
</mgrwt>
</event>
<event>
 5    1  0.6729100E-004  0.3741499E+03  0.7818608E-02  0.1053117E+00
         11   -1    0    0    0    0  0.00000000000E+00  0.00000000000E+00  0.99970570146E+03  0.99970570146E+03  0.51100000000E-03 0. -1.
          2   -1    0    0  501    0 -0.00000000000E+00 -0.00000000000E+00 -0.55288763595E+03  0.55288763596E+03  0.25500000000E-02 0. -1.
         11    1    1    2    0    0  0.12277249274E+03 -0.29697333217E+03  0.22872079037E+03  0.39443560304E+03  0.51100000000E-03 0. -1.
         22    1    1    2    0    0 -0.11670159755E+03 -0.96366166986E+02  0.59464449521E+03  0.61360229521E+03  0.00000000000E+00 0. -1.
          2    1    1    2  501    0 -0.60708951864E+01  0.39333949916E+03 -0.37654722007E+03  0.54455543916E+03  0.25500000000E-02 0. -1.
<mgrwt>
<rscale>  0 0.37414988E+03</rscale>
<asrwt>0</asrwt>
<pdfrwt beam="1">  1       11 0.10000000E+01 0.15134630E+03</pdfrwt>
<pdfrwt beam="2">  1        2 0.85034601E-01 0.37414988E+03</pdfrwt>
<totfact> 0.68745196E+01</totfact>
</mgrwt>
</event>
<event>
 5    1  0.6729100E-004  0.8311391E+02  0.7818608E-02  0.1488829E+00
         11   -1    0    0    0    0  0.00000000000E+00  0.00000000000E+00  0.10002733431E+04  0.10002733431E+04  0.51100000000E-03 0. -1.
         -2   -1    0    0    0  501 -0.00000000000E+00 -0.00000000000E+00 -0.15791282154E+02  0.15791282360E+02  0.25500000000E-02 0.  1.
         11    1    1    2    0    0 -0.80154949966E+02 -0.56451492053E+02  0.55416163816E+03  0.56276701055E+03  0.51100000000E-03 0. -1.
         22    1    1    2    0    0  0.72702346048E+02  0.14345732879E+02  0.38047403807E+03  0.38762343172E+03  0.00000000000E+00 0.  1.
         -2    1    1    2    0  501  0.74526039174E+01  0.42105759174E+02  0.49846384693E+02  0.65674183164E+02  0.25500000000E-02 0.  1.
<mgrwt>
<rscale>  0 0.42760218E+02</rscale>
<asrwt>0</asrwt>
<pdfrwt beam="1">  1       11 0.10000000E+01 0.83113907E+02</pdfrwt>
<pdfrwt beam="2">  1       -2 0.24300920E-02 0.42760218E+02</pdfrwt>
<totfact> 0.36830112E+03</totfact>
</mgrwt>
</event>
<event>
 5    1  0.6729100E-004  0.1112374E+03  0.7818608E-02  0.1455370E+00
         11   -1    0    0    0    0  0.00000000000E+00  0.00000000000E+00  0.10002661635E+04  0.10002661635E+04  0.51100000000E-03 0. -1.
         -2   -1    0    0    0  501 -0.00000000000E+00 -0.00000000000E+00 -0.27750086259E+02  0.27750086376E+02  0.25500000000E-02 0.  1.
         11    1    1    2    0    0 -0.76595492723E+02 -0.11725240797E+03  0.29478090470E+03  0.32635989101E+03  0.51100000000E-03 0. -1.
         22    1    1    2    0    0  0.77967082063E+02  0.69084328660E+02  0.60819809341E+03  0.61705464198E+03  0.00000000000E+00 0. -1.
         -2    1    1    2    0  501 -0.13715893402E+01  0.48168079313E+02  0.69537079141E+02  0.84601716909E+02  0.25500000000E-02 0.  1.
<mgrwt>
<rscale>  0 0.48187603E+02</rscale>
<asrwt>0</asrwt>
<pdfrwt beam="1">  1       11 0.10000000E+01 0.11123744E+03</pdfrwt>
<pdfrwt beam="2">  1       -2 0.42703802E-02 0.48187603E+02</pdfrwt>
<totfact> 0.16739216E+03</totfact>
</mgrwt>
</event>
<event>
 5    1  0.6729100E-004  0.1446091E+03  0.7818608E-02  0.1207258E+00
         11   -1    0    0    0    0  0.00000000000E+00  0.00000000000E+00  0.10003625362E+04  0.10003625362E+04  0.51100000000E-03 0. -1.
         -2   -1    0    0    0  501 -0.00000000000E+00 -0.00000000000E+00 -0.53648505942E+02  0.53648506002E+02  0.25500000000E-02 0.  1.
         11    1    1    2    0    0 -0.15742375386E+03  0.54642484310E+02  0.74577974508E+03  0.76416978974E+03  0.51100000000E-03 0. -1.
         22    1    1    2    0    0  0.23084117941E+02 -0.11020705058E+02  0.12866230958E+03  0.13118049530E+03  0.00000000000E+00 0. -1.
         -2    1    1    2    0  501  0.13433963592E+03 -0.43621779252E+02  0.72271975616E+02  0.15866075718E+03  0.25500000000E-02 0.  1.
<mgrwt>
<rscale>  0 0.14460912E+03</rscale>
<asrwt>0</asrwt>
<pdfrwt beam="1">  1       11 0.10000000E+01 0.25579923E+02</pdfrwt>
<pdfrwt beam="2">  1       -2 0.82566083E-02 0.14460912E+03</pdfrwt>
<totfact> 0.69106853E+02</totfact>
</mgrwt>
</event>
<event>
 5    1  0.6729100E-004  0.1359272E+03  0.7818608E-02  0.1218917E+00
         11   -1    0    0    0    0  0.00000000000E+00  0.00000000000E+00  0.10002468968E+04  0.10002468968E+04  0.51100000000E-03 0. -1.
         -2   -1    0    0    0  501 -0.00000000000E+00 -0.00000000000E+00 -0.39568062043E+02  0.39568062125E+02  0.25500000000E-02 0.  1.
         11    1    1    2    0    0 -0.31781027104E+02 -0.13703361380E+03  0.76488400905E+03  0.77771189543E+03  0.51100000000E-03 0. -1.
         22    1    1    2    0    0 -0.16095637184E+02  0.10545210926E+02  0.85344875678E+02  0.87487249439E+02  0.00000000000E+00 0.  1.
         -2    1    1    2    0  501  0.47876664288E+02  0.12648840287E+03  0.11044994998E+03  0.17461581401E+03  0.25500000000E-02 0.  1.
<mgrwt>
<rscale>  0 0.13592719E+03</rscale>
<asrwt>0</asrwt>
<pdfrwt beam="1">  1       11 0.10000000E+01 0.19242427E+02</pdfrwt>
<pdfrwt beam="2">  1       -2 0.60888970E-02 0.13592719E+03</pdfrwt>
<totfact> 0.10974054E+03</totfact>
</mgrwt>
</event>
<event>
 5    1  0.6729100E-004  0.1223005E+03  0.7818608E-02  0.1639234E+00
         11   -1    0    0    0    0  0.00000000000E+00  0.00000000000E+00  0.10005677056E+04  0.10005677056E+04  0.51100000000E-03 0.  1.
          2   -1    0    0  501    0 -0.00000000000E+00 -0.00000000000E+00 -0.11913374238E+04  0.11913374238E+04  0.25500000000E-02 0. -1.
         11    1    1    2    0    0  0.11812654919E+03 -0.18055410440E+02  0.47457523747E+03  0.48938894091E+03  0.51100000000E-03 0.  1.
         22    1    1    2    0    0 -0.12638462867E+03 -0.72138633629E+01  0.51070776859E+03  0.52616303470E+03  0.00000000000E+00 0. -1.
          2    1    1    2  501    0  0.82580794840E+01  0.25269273803E+02 -0.11760527242E+04  0.11763531537E+04  0.25500000000E-02 0. -1.
<mgrwt>
<rscale>  0 0.26584433E+02</rscale>
<asrwt>0</asrwt>
<pdfrwt beam="1">  1       11 0.10000000E+01 0.12230050E+03</pdfrwt>
<pdfrwt beam="2">  1        2 0.18338673E+00 0.26584433E+02</pdfrwt>
<totfact> 0.29332852E+01</totfact>
</mgrwt>
</event>
<event>
 5    1  0.6729100E-004  0.3088942E+03  0.7818608E-02  0.1080877E+00
         11   -1    0    0    0    0  0.00000000000E+00  0.00000000000E+00  0.10002985741E+04  0.10002985741E+04  0.51100000000E-03 0. -1.
         -2   -1    0    0    0  501 -0.00000000000E+00 -0.00000000000E+00 -0.94184401102E+02  0.94184401137E+02  0.25500000000E-02 0.  1.
         11    1    1    2    0    0 -0.26344118008E+03  0.15220320373E+03  0.42279636325E+03  0.52088754580E+03  0.51100000000E-03 0. -1.
         22    1    1    2    0    0  0.13933028167E+02 -0.13615519496E+01  0.45299473847E+02  0.47413346522E+02  0.00000000000E+00 0. -1.
         -2    1    1    2    0  501  0.24950815192E+03 -0.15084165178E+03  0.43801833589E+03  0.52618208290E+03  0.25500000000E-02 0.  1.
<mgrwt>
<rscale>  0 0.30889418E+03</rscale>
<asrwt>0</asrwt>
<pdfrwt beam="1">  1       11 0.10000000E+01 0.30424852E+03</pdfrwt>
<pdfrwt beam="2">  1       -2 0.14494234E-01 0.30889418E+03</pdfrwt>
<totfact> 0.29168723E+02</totfact>
</mgrwt>
</event>
<event>
 5    1  0.6729100E-004  0.8831609E+02  0.7818608E-02  0.1344605E+00
         11   -1    0    0    0    0  0.00000000000E+00  0.00000000000E+00  0.10002597620E+04  0.10002597620E+04  0.51100000000E-03 0. -1.
          2   -1    0    0  501    0 -0.00000000000E+00 -0.00000000000E+00 -0.60825120753E+02  0.60825120807E+02  0.25500000000E-02 0. -1.
         11    1    1    2    0    0  0.46651359559E+02  0.10569017124E+03  0.49875370529E+03  0.51195900245E+03  0.51100000000E-03 0. -1.
         22    1    1    2    0    0 -0.73795070469E+02 -0.36028244186E+02  0.46368708592E+03  0.47090281423E+03  0.00000000000E+00 0. -1.
          2    1    1    2  501    0  0.27143710911E+02 -0.69661927049E+02 -0.23006150010E+02  0.78223066081E+02  0.25500000000E-02 0. -1.
<mgrwt>
<rscale>  0 0.74763394E+02</rscale>
<asrwt>0</asrwt>
<pdfrwt beam="1">  1       11 0.10000000E+01 0.88316087E+02</pdfrwt>
<pdfrwt beam="2">  1        2 0.93601414E-02 0.74763394E+02</pdfrwt>
<totfact> 0.79429546E+02</totfact>
</mgrwt>
</event>
<event>
 5    1  0.6729100E-004  0.2571062E+03  0.7818608E-02  0.1108894E+00
         11   -1    0    0    0    0  0.00000000000E+00  0.00000000000E+00  0.10000324701E+04  0.10000324701E+04  0.51100000000E-03 0.  1.
          2   -1    0    0  501    0 -0.00000000000E+00 -0.00000000000E+00 -0.11227674628E+03  0.11227674631E+03  0.25500000000E-02 0.  1.
         11    1    1    2    0    0  0.24864672232E+03 -0.42076286225E+01  0.27718402625E+03  0.37238942126E+03  0.51100000000E-03 0.  1.
         22    1    1    2    0    0  0.96714455731E+01  0.93002375099E+02  0.35050523439E+03  0.36276286740E+03  0.00000000000E+00 0.  1.
          2    1    1    2  501    0 -0.25831816789E+03 -0.88794746476E+02  0.26006646320E+03  0.37715692775E+03  0.25500000000E-02 0.  1.
<mgrwt>
<rscale>  0 0.25710616E+03</rscale>
<asrwt>0</asrwt>
<pdfrwt beam="1">  1       11 0.10000000E+01 0.93503896E+02</pdfrwt>
<pdfrwt beam="2">  1        2 0.17273906E-01 0.25710616E+03</pdfrwt>
<totfact> 0.40588834E+02</totfact>
</mgrwt>
</event>
<event>
 5    1  0.6729100E-004  0.2340600E+03  0.7818608E-02  0.1123814E+00
         11   -1    0    0    0    0  0.00000000000E+00  0.00000000000E+00  0.99998483465E+03  0.99998483465E+03  0.51100000000E-03 0.  1.
         -2   -1    0    0    0  501 -0.00000000000E+00 -0.00000000000E+00 -0.95381828741E+03  0.95381828741E+03  0.25500000000E-02 0. -1.
         11    1    1    2    0    0 -0.10298724762E+03 -0.12161311518E+03  0.44811641832E+03  0.47560955344E+03  0.51100000000E-03 0.  1.
         22    1    1    2    0    0 -0.96342589746E+02 -0.60461686663E+01  0.51869762139E+03  0.52760370847E+03  0.00000000000E+00 0.  1.
         -2    1    1    2    0  501  0.19932983737E+03  0.12765928385E+03 -0.92064749247E+03  0.95058986015E+03  0.25500000000E-02 0. -1.
<mgrwt>
<rscale>  0 0.23406004E+03</rscale>
<asrwt>0</asrwt>
<pdfrwt beam="1">  1       11 0.10000000E+01 0.96532123E+02</pdfrwt>
<pdfrwt beam="2">  1       -2 0.14673905E+00 0.23406004E+03</pdfrwt>
<totfact> 0.27489688E+00</totfact>
</mgrwt>
</event>
<event>
 5    1  0.6729100E-004  0.3850065E+03  0.7818608E-02  0.1052411E+00
         11   -1    0    0    0    0  0.00000000000E+00  0.00000000000E+00  0.99979541487E+03  0.99979541487E+03  0.51100000000E-03 0. -1.
          2   -1    0    0  501    0 -0.00000000000E+00 -0.00000000000E+00 -0.29198844405E+03  0.29198844406E+03  0.25500000000E-02 0. -1.
         11    1    1    2    0    0  0.33179547681E+03  0.87706761369E+02  0.69421765642E+03  0.77441517864E+03  0.51100000000E-03 0. -1.
         22    1    1    2    0    0  0.36809485973E+02 -0.13354735929E+02  0.12028291118E+03  0.12649611042E+03  0.00000000000E+00 0. -1.
          2    1    1    2  501    0 -0.36860496278E+03 -0.74352025440E+02 -0.10669359678E+03  0.39087256987E+03  0.25500000000E-02 0. -1.
<mgrwt>
<rscale>  0 0.37602904E+03</rscale>
<asrwt>0</asrwt>
<pdfrwt beam="1">  1       11 0.10000000E+01 0.38500646E+03</pdfrwt>
<pdfrwt beam="2">  1        2 0.44912108E-01 0.37602904E+03</pdfrwt>
<totfact> 0.13984882E+02</totfact>
</mgrwt>
</event>
<event>
 5    1  0.6729100E-004  0.9572921E+02  0.7818608E-02  0.1289542E+00
         11   -1    0    0    0    0  0.00000000000E+00  0.00000000000E+00  0.10001507755E+04  0.10001507755E+04  0.51100000000E-03 0. -1.
         -2   -1    0    0    0  501 -0.00000000000E+00 -0.00000000000E+00 -0.56013931340E+02  0.56013931398E+02  0.25500000000E-02 0.  1.
         11    1    1    2    0    0  0.38164375325E+02 -0.87062866349E+02  0.54837996835E+03  0.55655821972E+03  0.51100000000E-03 0. -1.
         22    1    1    2    0    0  0.49130638610E+02  0.43461346415E+02  0.39663688238E+03  0.40202428378E+03  0.00000000000E+00 0.  1.
         -2    1    1    2    0  501 -0.87295013934E+02  0.43601519934E+02 -0.88000659872E+00  0.97582203380E+02  0.25500000000E-02 0.  1.
<mgrwt>
<rscale>  0 0.95729211E+02</rscale>
<asrwt>0</asrwt>
<pdfrwt beam="1">  1       11 0.10000000E+01 0.65595032E+02</pdfrwt>
<pdfrwt beam="2">  1       -2 0.86188270E-02 0.95729211E+02</pdfrwt>
<totfact> 0.62830771E+02</totfact>
</mgrwt>
</event>
<event>
 5    1  0.6729100E-004  0.3810128E+03  0.7818608E-02  0.1060217E+00
         11   -1    0    0    0    0  0.00000000000E+00  0.00000000000E+00  0.10000522487E+04  0.10000522487E+04  0.51100000000E-03 0. -1.
         -2   -1    0    0    0  501 -0.00000000000E+00 -0.00000000000E+00 -0.16071629810E+03  0.16071629812E+03  0.25500000000E-02 0.  1.
         11    1    1    2    0    0 -0.82446347630E+02 -0.22886984549E+03  0.41059235405E+03  0.47724719761E+03  0.51100000000E-03 0. -1.
         22    1    1    2    0    0  0.55235900834E+02 -0.12599344046E+03  0.24976996494E+03  0.28514976270E+03  0.00000000000E+00 0.  1.
         -2    1    1    2    0  501  0.27210446796E+02  0.35486328596E+03  0.17897363163E+03  0.39837158654E+03  0.25500000000E-02 0.  1.
<mgrwt>
<rscale>  0 0.35590499E+03</rscale>
<asrwt>0</asrwt>
<pdfrwt beam="1">  1       11 0.10000000E+01 0.38101277E+03</pdfrwt>
<pdfrwt beam="2">  1       -2 0.24726875E-01 0.35590499E+03</pdfrwt>
<totfact> 0.11719954E+02</totfact>
</mgrwt>
</event>
<event>
 5    1  0.6729100E-004  0.1304391E+03  0.7818608E-02  0.1226806E+00
         11   -1    0    0    0    0  0.00000000000E+00  0.00000000000E+00  0.99976707181E+03  0.99976707181E+03  0.51100000000E-03 0.  1.
          2   -1    0    0  501    0 -0.00000000000E+00 -0.00000000000E+00 -0.95124269707E+02  0.95124269741E+02  0.25500000000E-02 0.  1.
         11    1    1    2    0    0  0.64457462804E+02 -0.15360625636E+03  0.71714004561E+03  0.73623331324E+03  0.51100000000E-03 0.  1.
         22    1    1    2    0    0  0.39671114296E+02  0.76862770309E+02  0.21022494689E+03  0.22732402219E+03  0.00000000000E+00 0.  1.
          2    1    1    2  501    0 -0.10412857710E+03  0.76743486054E+02 -0.22722190400E+02  0.13133400612E+03  0.25500000000E-02 0.  1.
<mgrwt>
<rscale>  0 0.13043905E+03</rscale>
<asrwt>0</asrwt>
<pdfrwt beam="1">  1       11 0.10000000E+01 0.86496721E+02</pdfrwt>
<pdfrwt beam="2">  1        2 0.14631094E-01 0.13043905E+03</pdfrwt>
<totfact> 0.48083613E+02</totfact>
</mgrwt>
</event>
<event>
 5    1  0.6729100E-004  0.1942404E+03  0.7818608E-02  0.1154691E+00
         11   -1    0    0    0    0  0.00000000000E+00  0.00000000000E+00  0.10003182802E+04  0.10003182802E+04  0.51100000000E-03 0.  1.
          2   -1    0    0  501    0 -0.00000000000E+00 -0.00000000000E+00 -0.80505615194E+03  0.80505615195E+03  0.25500000000E-02 0.  1.
         11    1    1    2    0    0  0.97884985522E+02  0.15050824549E+03  0.72064871971E+03  0.74267676655E+03  0.51100000000E-03 0.  1.
         22    1    1    2    0    0  0.47782157501E+02 -0.21494969325E+02  0.25402060948E+03  0.25936776655E+03  0.00000000000E+00 0.  1.
          2    1    1    2  501    0 -0.14566714302E+03 -0.12901327616E+03 -0.77940720089E+03  0.80332989910E+03  0.25500000000E-02 0.  1.
<mgrwt>
<rscale>  0 0.19424044E+03</rscale>
<asrwt>0</asrwt>
<pdfrwt beam="1">  1       11 0.10000000E+01 0.52394354E+02</pdfrwt>
<pdfrwt beam="2">  1        2 0.12389421E+00 0.19424044E+03</pdfrwt>
<totfact> 0.44487110E+01</totfact>
</mgrwt>
</event>
<event>
 5    1  0.6729100E-004  0.3051709E+03  0.7818608E-02  0.1082684E+00
         11   -1    0    0    0    0  0.00000000000E+00  0.00000000000E+00  0.10001233968E+04  0.10001233968E+04  0.51100000000E-03 0. -1.
          2   -1    0    0  501    0 -0.00000000000E+00 -0.00000000000E+00 -0.10072863217E+04  0.10072863217E+04  0.25500000000E-02 0. -1.
         11    1    1    2    0    0 -0.25187530631E+03 -0.28817638851E+03  0.70447076554E+03  0.80172679906E+03  0.51100000000E-03 0. -1.
         22    1    1    2    0    0  0.37218845238E+02  0.74726516952E+02  0.21511512047E+03  0.23074620220E+03  0.00000000000E+00 0.  1.
          2    1    1    2  501    0  0.21465646107E+03  0.21344987156E+03 -0.92674881096E+03  0.97493671722E+03  0.25500000000E-02 0. -1.
<mgrwt>
<rscale>  0 0.30517087E+03</rscale>
<asrwt>0</asrwt>
<pdfrwt beam="1">  1       11 0.10000000E+01 0.83482302E+02</pdfrwt>
<pdfrwt beam="2">  1        2 0.15498624E+00 0.30517087E+03</pdfrwt>
<totfact> 0.32318440E+01</totfact>
</mgrwt>
</event>
<event>
 5    1  0.6729100E-004  0.1031955E+03  0.7818608E-02  0.1273716E+00
         11   -1    0    0    0    0  0.00000000000E+00  0.00000000000E+00  0.10003744282E+04  0.10003744282E+04  0.51100000000E-03 0.  1.
          2   -1    0    0  501    0 -0.00000000000E+00 -0.00000000000E+00 -0.28848394357E+02  0.28848394470E+02  0.25500000000E-02 0.  1.
         11    1    1    2    0    0 -0.25002088091E+02  0.78493501182E+02  0.39243041825E+03  0.40098374942E+03  0.51100000000E-03 0.  1.
         22    1    1    2    0    0  0.69751695056E+02  0.30790617044E+02  0.43642555098E+03  0.44303568999E+03  0.00000000000E+00 0. -1.
          2    1    1    2  501    0 -0.44749606965E+02 -0.10928411823E+03  0.14267006457E+03  0.18520338321E+03  0.25500000000E-02 0.  1.
<mgrwt>
<rscale>  0 0.10319554E+03</rscale>
<asrwt>0</asrwt>
<pdfrwt beam="1">  1       11 0.10000000E+01 0.76245400E+02</pdfrwt>
<pdfrwt beam="2">  1        2 0.44398762E-02 0.10319554E+03</pdfrwt>
<totfact> 0.20893351E+03</totfact>
</mgrwt>
</event>
<event>
 5    1  0.6729100E-004  0.8836326E+02  0.7818608E-02  0.1406801E+00
         11   -1    0    0    0    0  0.00000000000E+00  0.00000000000E+00  0.10003911486E+04  0.10003911486E+04  0.51100000000E-03 0. -1.
          2   -1    0    0  501    0 -0.00000000000E+00 -0.00000000000E+00 -0.59538021766E+02  0.59538021820E+02  0.25500000000E-02 0.  1.
         11    1    1    2    0    0 -0.94843805165E+02 -0.62513816601E+02  0.67469786789E+03  0.68419334809E+03  0.51100000000E-03 0. -1.
         22    1    1    2    0    0  0.36982025570E+02  0.60058846548E+02  0.30032297874E+03  0.30849412769E+03  0.00000000000E+00 0. -1.
          2    1    1    2  501    0  0.57861779596E+02  0.24549700530E+01 -0.34167719785E+02  0.67241694638E+02  0.25500000000E-02 0.  1.
<mgrwt>
<rscale>  0 0.57913836E+02</rscale>
<asrwt>0</asrwt>
<pdfrwt beam="1">  1       11 0.10000000E+01 0.88363262E+02</pdfrwt>
<pdfrwt beam="2">  1        2 0.91632782E-02 0.57913836E+02</pdfrwt>
<totfact> 0.79996004E+02</totfact>
</mgrwt>
</event>
<event>
 5    1  0.6729100E-004  0.2664448E+03  0.7818608E-02  0.1114026E+00
         11   -1    0    0    0    0  0.00000000000E+00  0.00000000000E+00  0.10003443604E+04  0.10003443604E+04  0.51100000000E-03 0. -1.
          2   -1    0    0  501    0 -0.00000000000E+00 -0.00000000000E+00 -0.80493296187E+02  0.80493296228E+02  0.25500000000E-02 0. -1.
         11    1    1    2    0    0 -0.20776110545E+03  0.46920302149E+02  0.55902311286E+03  0.59822490119E+03  0.51100000000E-03 0. -1.
         22    1    1    2    0    0 -0.21991189362E+02  0.48717905053E+02  0.14015980667E+03  0.15000606017E+03  0.00000000000E+00 0. -1.
          2    1    1    2  501    0  0.22975229482E+03 -0.95638207202E+02  0.22066814468E+03  0.33260669526E+03  0.25500000000E-02 0. -1.
<mgrwt>
<rscale>  0 0.24886298E+03</rscale>
<asrwt>0</asrwt>
<pdfrwt beam="1">  1       11 0.10000000E+01 0.26644477E+03</pdfrwt>
<pdfrwt beam="2">  1        2 0.12387848E-01 0.24886298E+03</pdfrwt>
<totfact> 0.60303657E+02</totfact>
</mgrwt>
</event>
<event>
 5    1  0.6729100E-004  0.5517771E+02  0.7818608E-02  0.1674352E+00
         11   -1    0    0    0    0  0.00000000000E+00  0.00000000000E+00  0.10005116252E+04  0.10005116252E+04  0.51100000000E-03 0.  1.
          2   -1    0    0  501    0 -0.00000000000E+00 -0.00000000000E+00 -0.75890559554E+01  0.75890563838E+01  0.25500000000E-02 0.  1.
         11    1    1    2    0    0 -0.45594493599E+02  0.39976802100E+02  0.14283828480E+03  0.15517660312E+03  0.51100000000E-03 0.  1.
         22    1    1    2    0    0  0.10405552767E+02  0.15597069566E+01  0.56265619519E+02  0.57240965698E+02  0.00000000000E+00 0. -1.
          2    1    1    2  501    0  0.35188940831E+02 -0.41536509056E+02  0.79381866494E+03  0.79568311278E+03  0.25500000000E-02 0.  1.
<mgrwt>
<rscale>  0 0.24094986E+02</rscale>
<asrwt>0</asrwt>
<pdfrwt beam="1">  1       11 0.10000000E+01 0.55177707E+02</pdfrwt>
<pdfrwt beam="2">  1        2 0.11681444E-02 0.24094986E+02</pdfrwt>
<totfact> 0.97160276E+03</totfact>
</mgrwt>
</event>
<event>
 5    1  0.6729100E-004  0.2603530E+03  0.7818608E-02  0.1106931E+00
         11   -1    0    0    0    0  0.00000000000E+00  0.00000000000E+00  0.10009014908E+04  0.10009014908E+04  0.51100000000E-03 0. -1.
          2   -1    0    0  501    0 -0.00000000000E+00 -0.00000000000E+00 -0.13873986037E+04  0.13873986037E+04  0.25500000000E-02 0. -1.
         11    1    1    2    0    0 -0.86087148453E+02  0.15960945486E+03  0.75801982325E+03  0.77941017933E+03  0.51100000000E-03 0. -1.
         22    1    1    2    0    0 -0.11953065070E+03  0.25872878014E+01  0.20330829858E+03  0.23585702191E+03  0.00000000000E+00 0.  1.
          2    1    1    2  501    0  0.20561779915E+03 -0.16219674266E+03 -0.13478252347E+04  0.13730328933E+04  0.25500000000E-02 0. -1.
<mgrwt>
<rscale>  0 0.26035302E+03</rscale>
<asrwt>0</asrwt>
<pdfrwt beam="1">  1       11 0.10000000E+01 0.11955865E+03</pdfrwt>
<pdfrwt beam="2">  1        2 0.21363835E+00 0.26035302E+03</pdfrwt>
<totfact> 0.19705619E+01</totfact>
</mgrwt>
</event>
<event>
 5    1  0.6729100E-004  0.1542058E+03  0.7818608E-02  0.1195398E+00
         11   -1    0    0    0    0  0.00000000000E+00  0.00000000000E+00  0.10001117496E+04  0.10001117496E+04  0.51100000000E-03 0. -1.
          2   -1    0    0  501    0 -0.00000000000E+00 -0.00000000000E+00 -0.34684894230E+03  0.34684894231E+03  0.25500000000E-02 0. -1.
         11    1    1    2    0    0  0.43387757009E+02  0.10753137591E+03  0.41024495665E+03  0.42631727471E+03  0.51100000000E-03 0. -1.
         22    1    1    2    0    0  0.93190435331E+02 -0.30167210545E+02  0.55916175353E+03  0.56767630252E+03  0.00000000000E+00 0. -1.
          2    1    1    2  501    0 -0.13657819234E+03 -0.77364165362E+02 -0.31614390288E+03  0.35296711467E+03  0.25500000000E-02 0. -1.
<mgrwt>
<rscale>  0 0.15420579E+03</rscale>
<asrwt>0</asrwt>
<pdfrwt beam="1">  1       11 0.10000000E+01 0.97951610E+02</pdfrwt>
<pdfrwt beam="2">  1        2 0.53367337E-01 0.15420579E+03</pdfrwt>
<totfact> 0.11609461E+02</totfact>
</mgrwt>
</event>
<event>
 5    1  0.6729100E-004  0.2112535E+03  0.7818608E-02  0.1140577E+00
         11   -1    0    0    0    0  0.00000000000E+00  0.00000000000E+00  0.10001462084E+04  0.10001462084E+04  0.51100000000E-03 0. -1.
          2   -1    0    0  501    0 -0.00000000000E+00 -0.00000000000E+00 -0.20365150159E+03  0.20365150160E+03  0.25500000000E-02 0. -1.
         11    1    1    2    0    0 -0.31483813359E+02  0.22707221787E+03  0.83942107707E+03  0.87016134554E+03  0.51100000000E-03 0. -1.
         22    1    1    2    0    0  0.82462775473E+01 -0.18343266544E+02  0.85252429677E+02  0.87592541274E+02  0.00000000000E+00 0.  1.
          2    1    1    2  501    0  0.23237535811E+02 -0.20872895133E+03 -0.12817879991E+03  0.24604382322E+03  0.25500000000E-02 0. -1.
<mgrwt>
<rscale>  0 0.21125352E+03</rscale>
<asrwt>0</asrwt>
<pdfrwt beam="1">  1       11 0.10000000E+01 0.20111602E+02</pdfrwt>
<pdfrwt beam="2">  1        2 0.31335580E-01 0.21125352E+03</pdfrwt>
<totfact> 0.20618655E+02</totfact>
</mgrwt>
</event>
<event>
 5    1  0.6729100E-004  0.1214357E+03  0.7818608E-02  0.1240747E+00
         11   -1    0    0    0    0  0.00000000000E+00  0.00000000000E+00  0.10000349822E+04  0.10000349822E+04  0.51100000000E-03 0. -1.
          2   -1    0    0  501    0 -0.00000000000E+00 -0.00000000000E+00 -0.19539554336E+03  0.19539554338E+03  0.25500000000E-02 0. -1.
         11    1    1    2    0    0 -0.35783523712E+01  0.95130505068E+02  0.56828694208E+03  0.57620540274E+03  0.51100000000E-03 0. -1.
         22    1    1    2    0    0  0.68673847545E+02  0.91316932486E+01  0.40480830380E+03  0.41069361814E+03  0.00000000000E+00 0. -1.
          2    1    1    2  501    0 -0.65095495174E+02 -0.10426219832E+03 -0.16845580708E+03  0.20853150466E+03  0.25500000000E-02 0. -1.
<mgrwt>
<rscale>  0 0.12143568E+03</rscale>
<asrwt>0</asrwt>
<pdfrwt beam="1">  1       11 0.10000000E+01 0.69278317E+02</pdfrwt>
<pdfrwt beam="2">  1        2 0.30061904E-01 0.12143568E+03</pdfrwt>
<totfact> 0.21363065E+02</totfact>
</mgrwt>
</event>
<event>
 5    1  0.6729100E-004  0.4500031E+03  0.7818608E-02  0.1027721E+00
         11   -1    0    0    0    0  0.00000000000E+00  0.00000000000E+00  0.10000841953E+04  0.10000841953E+04  0.51100000000E-03 0. -1.
          2   -1    0    0  501    0 -0.00000000000E+00 -0.00000000000E+00 -0.47634779518E+03  0.47634779518E+03  0.25500000000E-02 0. -1.
         11    1    1    2    0    0  0.45303760480E+03 -0.89365861336E+01  0.31027819575E+03  0.54917710504E+03  0.51100000000E-03 0. -1.
         22    1    1    2    0    0 -0.12362718706E+02  0.11168295661E+03  0.41642950795E+03  0.43132291233E+03  0.00000000000E+00 0. -1.
          2    1    1    2  501    0 -0.44067488610E+03 -0.10274637048E+03 -0.20297130357E+03  0.49593197312E+03  0.25500000000E-02 0. -1.
<mgrwt>
<rscale>  0 0.45000309E+03</rscale>
<asrwt>0</asrwt>
<pdfrwt beam="1">  1       11 0.10000000E+01 0.11236512E+03</pdfrwt>
<pdfrwt beam="2">  1        2 0.73290444E-01 0.45000309E+03</pdfrwt>
<totfact> 0.81248934E+01</totfact>
</mgrwt>
</event>
<event>
 5    1  0.6729100E-004  0.1270545E+03  0.7818608E-02  0.1434620E+00
         11   -1    0    0    0    0  0.00000000000E+00  0.00000000000E+00  0.10000377991E+04  0.10000377991E+04  0.51100000000E-03 0.  1.
          2   -1    0    0  501    0 -0.00000000000E+00 -0.00000000000E+00 -0.43538554312E+02  0.43538554387E+02  0.25500000000E-02 0.  1.
         11    1    1    2    0    0 -0.55866379942E+02 -0.12191985896E+03  0.18509854608E+03  0.22857597463E+03  0.51100000000E-03 0.  1.
         22    1    1    2    0    0  0.41023872602E+01  0.12730773510E+03  0.74653189264E+03  0.75732024648E+03  0.00000000000E+00 0.  1.
          2    1    1    2  501    0  0.51763992681E+02 -0.53878761321E+01  0.24868806040E+02  0.57680132350E+02  0.25500000000E-02 0.  1.
<mgrwt>
<rscale>  0 0.52043637E+02</rscale>
<asrwt>0</asrwt>
<pdfrwt beam="1">  1       11 0.10000000E+01 0.12705450E+03</pdfrwt>
<pdfrwt beam="2">  1        2 0.66984921E-02 0.52043637E+02</pdfrwt>
<totfact> 0.11624252E+03</totfact>
</mgrwt>
</event>
<event>
 5    1  0.6729100E-004  0.2415994E+03  0.7818608E-02  0.1118732E+00
         11   -1    0    0    0    0  0.00000000000E+00  0.00000000000E+00  0.10000505101E+04  0.10000505101E+04  0.51100000000E-03 0. -1.
          2   -1    0    0  501    0 -0.00000000000E+00 -0.00000000000E+00 -0.69426741608E+02  0.69426741654E+02  0.25500000000E-02 0. -1.
         11    1    1    2    0    0 -0.13809690986E+03 -0.20401053414E+03  0.33962363894E+03  0.41956557375E+03  0.51100000000E-03 0. -1.
         22    1    1    2    0    0 -0.17772810465E+02  0.26517386952E+02  0.10139066261E+03  0.10629727686E+03  0.00000000000E+00 0.  1.
          2    1    1    2  501    0  0.15586972032E+03  0.17749314718E+03  0.48960946698E+03  0.54361440118E+03  0.25500000000E-02 0. -1.
<mgrwt>
<rscale>  0 0.24159939E+03</rscale>
<asrwt>0</asrwt>
<pdfrwt beam="1">  1       11 0.10000000E+01 0.31922478E+02</pdfrwt>
<pdfrwt beam="2">  1        2 0.10681576E-01 0.24159939E+03</pdfrwt>
<totfact> 0.72241789E+02</totfact>
</mgrwt>
</event>
<event>
 5    1  0.6729100E-004  0.1991743E+03  0.7818608E-02  0.1150438E+00
         11   -1    0    0    0    0  0.00000000000E+00  0.00000000000E+00  0.10001826282E+04  0.10001826282E+04  0.51100000000E-03 0. -1.
         -2   -1    0    0    0  501 -0.00000000000E+00 -0.00000000000E+00 -0.93882424570E+02  0.93882424605E+02  0.25500000000E-02 0.  1.
         11    1    1    2    0    0 -0.44565514941E+02 -0.84705731446E+02  0.51764648110E+03  0.52642095841E+03  0.51100000000E-03 0. -1.
         22    1    1    2    0    0 -0.16771672311E+02 -0.14622144824E+03  0.25351336069E+03  0.29313994092E+03  0.00000000000E+00 0.  1.
         -2    1    1    2    0  501  0.61337187252E+02  0.23092717968E+03  0.13514036181E+03  0.27450415343E+03  0.25500000000E-02 0.  1.
<mgrwt>
<rscale>  0 0.19917432E+03</rscale>
<asrwt>0</asrwt>
<pdfrwt beam="1">  1       11 0.10000000E+01 0.95713876E+02</pdfrwt>
<pdfrwt beam="2">  1       -2 0.14446087E-01 0.19917432E+03</pdfrwt>
<totfact> 0.28840575E+02</totfact>
</mgrwt>
</event>
<event>
 5    1  0.6729100E-004  0.1458216E+03  0.7818608E-02  0.1205703E+00
         11   -1    0    0    0    0  0.00000000000E+00  0.00000000000E+00  0.10003880345E+04  0.10003880345E+04  0.51100000000E-03 0. -1.
          2   -1    0    0  501    0 -0.00000000000E+00 -0.00000000000E+00 -0.54241072085E+03  0.54241072086E+03  0.25500000000E-02 0. -1.
         11    1    1    2    0    0  0.97521690925E+02 -0.11851464800E+03  0.92658249979E+03  0.93920782094E+03  0.51100000000E-03 0. -1.
         22    1    1    2    0    0  0.54646920431E+01  0.15382855391E+02  0.56408079352E+02  0.58722793831E+02  0.00000000000E+00 0. -1.
          2    1    1    2  501    0 -0.10298638297E+03  0.10313179261E+03 -0.52501326547E+03  0.54486814061E+03  0.25500000000E-02 0. -1.
<mgrwt>
<rscale>  0 0.14582163E+03</rscale>
<asrwt>0</asrwt>
<pdfrwt beam="1">  1       11 0.10000000E+01 0.16324678E+02</pdfrwt>
<pdfrwt beam="2">  1        2 0.83480181E-01 0.14582163E+03</pdfrwt>
<totfact> 0.71496801E+01</totfact>
</mgrwt>
</event>
<event>
 5    1  0.6729100E-004  0.3061010E+03  0.7818608E-02  0.1082230E+00
         11   -1    0    0    0    0  0.00000000000E+00  0.00000000000E+00  0.10003715549E+04  0.10003715549E+04  0.51100000000E-03 0. -1.
         -2   -1    0    0    0  501 -0.00000000000E+00 -0.00000000000E+00 -0.53559860409E+03  0.53559860410E+03  0.25500000000E-02 0.  1.
         11    1    1    2    0    0 -0.37084951855E+03  0.38538607677E+03  0.36873675062E+03  0.64962957509E+03  0.51100000000E-03 0. -1.
         22    1    1    2    0    0  0.16868273267E+03 -0.18976300177E+03  0.39898437656E+03  0.47291901409E+03  0.00000000000E+00 0. -1.
         -2    1    1    2    0  501  0.20216678588E+03 -0.19562307500E+03 -0.30294817640E+03  0.41342156980E+03  0.25500000000E-02 0.  1.
<mgrwt>
<rscale>  0 0.30610100E+03</rscale>
<asrwt>0</asrwt>
<pdfrwt beam="1">  1       11 0.10000000E+01 0.25389734E+03</pdfrwt>
<pdfrwt beam="2">  1       -2 0.82430399E-01 0.30610100E+03</pdfrwt>
<totfact> 0.10791993E+01</totfact>
</mgrwt>
</event>
<event>
 5    1  0.6729100E-004  0.1501354E+03  0.7818608E-02  0.1200307E+00
         11   -1    0    0    0    0  0.00000000000E+00  0.00000000000E+00  0.10003998692E+04  0.10003998692E+04  0.51100000000E-03 0. -1.
          2   -1    0    0  501    0 -0.00000000000E+00 -0.00000000000E+00 -0.30869198539E+03  0.30869198540E+03  0.25500000000E-02 0.  1.
         11    1    1    2    0    0 -0.19593459457E+03  0.17274135491E+02  0.77753447476E+03  0.80202781782E+03  0.51100000000E-03 0. -1.
         22    1    1    2    0    0  0.46964938854E+02 -0.13110658987E+02  0.18859025282E+03  0.19479188463E+03  0.00000000000E+00 0. -1.
          2    1    1    2  501    0  0.14896965572E+03 -0.41634765039E+01 -0.27441684377E+03  0.31227215216E+03  0.25500000000E-02 0.  1.
<mgrwt>
<rscale>  0 0.15013543E+03</rscale>
<asrwt>0</asrwt>
<pdfrwt beam="1">  1       11 0.10000000E+01 0.48760587E+02</pdfrwt>
<pdfrwt beam="2">  1        2 0.47510064E-01 0.15013543E+03</pdfrwt>
<totfact> 0.13138474E+02</totfact>
</mgrwt>
</event>
<event>
 5    1  0.6729100E-004  0.1434719E+03  0.7818608E-02  0.1665412E+00
         11   -1    0    0    0    0  0.00000000000E+00  0.00000000000E+00  0.10004818316E+04  0.10004818316E+04  0.51100000000E-03 0. -1.
          2   -1    0    0  501    0 -0.00000000000E+00 -0.00000000000E+00 -0.15194130673E+04  0.15194130673E+04  0.25500000000E-02 0. -1.
         11    1    1    2    0    0  0.12436685679E+03  0.58896787800E+02  0.37868232737E+03  0.40290973151E+03  0.51100000000E-03 0. -1.
         22    1    1    2    0    0 -0.14248841781E+03 -0.42119225546E+02  0.60052992079E+03  0.61863815283E+03  0.00000000000E+00 0. -1.
          2    1    1    2  501    0  0.18121561019E+02 -0.16777562253E+02 -0.14981434839E+04  0.14983470145E+04  0.25500000000E-02 0. -1.
<mgrwt>
<rscale>  0 0.24695700E+02</rscale>
<asrwt>0</asrwt>
<pdfrwt beam="1">  1       11 0.10000000E+01 0.14347188E+03</pdfrwt>
<pdfrwt beam="2">  1        2 0.23386848E+00 0.24695700E+02</pdfrwt>
<totfact> 0.20421441E+01</totfact>
</mgrwt>
</event>
<event>
 5    1  0.6729100E-004  0.2488567E+03  0.7818608E-02  0.1280373E+00
         11   -1    0    0    0    0  0.00000000000E+00  0.00000000000E+00  0.10001815462E+04  0.10001815462E+04  0.51100000000E-03 0. -1.
          2   -1    0    0  501    0 -0.00000000000E+00 -0.00000000000E+00 -0.89952803702E+02  0.89952803738E+02  0.25500000000E-02 0.  1.
         11    1    1    2    0    0  0.35507131947E+02  0.25159341199E+03  0.68370647801E+03  0.72939327489E+03  0.51100000000E-03 0. -1.
         22    1    1    2    0    0 -0.37364380172E+02 -0.14706218193E+02  0.55770207739E+02  0.68721800256E+02  0.00000000000E+00 0. -1.
          2    1    1    2  501    0  0.18572482245E+01 -0.23688719380E+03  0.17075205672E+03  0.29201927477E+03  0.25500000000E-02 0.  1.
<mgrwt>
<rscale>  0 0.99963351E+02</rscale>
<asrwt>0</asrwt>
<pdfrwt beam="1">  1       11 0.10000000E+01 0.24885667E+03</pdfrwt>
<pdfrwt beam="2">  1        2 0.13841405E-01 0.99963351E+02</pdfrwt>
<totfact> 0.50680133E+02</totfact>
</mgrwt>
</event>
<event>
 5    1  0.6729100E-004  0.1946469E+03  0.7818608E-02  0.1154336E+00
         11   -1    0    0    0    0  0.00000000000E+00  0.00000000000E+00  0.10000957478E+04  0.10000957478E+04  0.51100000000E-03 0.  1.
          2   -1    0    0  501    0 -0.00000000000E+00 -0.00000000000E+00 -0.68431486984E+03  0.68431486984E+03  0.25500000000E-02 0.  1.
         11    1    1    2    0    0 -0.94386713980E+02  0.14791229784E+03  0.88635106964E+03  0.90355139217E+03  0.51100000000E-03 0.  1.
         22    1    1    2    0    0  0.20164114656E+02  0.32402360917E+02  0.86991563548E+02  0.94994929556E+02  0.00000000000E+00 0. -1.
          2    1    1    2  501    0  0.74222599324E+02 -0.18031465875E+03 -0.65756175525E+03  0.68586429590E+03  0.25500000000E-02 0.  1.
<mgrwt>
<rscale>  0 0.19464692E+03</rscale>
<asrwt>0</asrwt>
<pdfrwt beam="1">  1       11 0.10000000E+01 0.38164178E+02</pdfrwt>
<pdfrwt beam="2">  1        2 0.10528929E+00 0.19464692E+03</pdfrwt>
<totfact> 0.54332398E+01</totfact>
</mgrwt>
</event>
<event>
 5    1  0.6729100E-004  0.9652413E+02  0.7818608E-02  0.1287780E+00
         11   -1    0    0    0    0  0.00000000000E+00  0.00000000000E+00  0.10001821566E+04  0.10001821566E+04  0.51100000000E-03 0. -1.
          2   -1    0    0  501    0 -0.00000000000E+00 -0.00000000000E+00 -0.15591520982E+02  0.15591521191E+02  0.25500000000E-02 0. -1.
         11    1    1    2    0    0  0.32770213723E+02  0.89246657081E+02  0.16430758428E+03  0.18983106953E+03  0.51100000000E-03 0. -1.
         22    1    1    2    0    0 -0.43270061274E+01 -0.10457808477E+02  0.59923330355E+02  0.60982737401E+02  0.00000000000E+00 0.  1.
          2    1    1    2  501    0 -0.28443207596E+02 -0.78788848604E+02  0.76035972099E+03  0.76495987087E+03  0.25500000000E-02 0. -1.
<mgrwt>
<rscale>  0 0.96524131E+02</rscale>
<asrwt>0</asrwt>
<pdfrwt beam="1">  1       11 0.10000000E+01 0.95072929E+02</pdfrwt>
<pdfrwt beam="2">  1        2 0.23991324E-02 0.96524131E+02</pdfrwt>
<totfact> 0.46911249E+03</totfact>
</mgrwt>
</event>
<event>
 5    1  0.6729100E-004  0.1718607E+03  0.7818608E-02  0.1175921E+00
         11   -1    0    0    0    0  0.00000000000E+00  0.00000000000E+00  0.10000186611E+04  0.10000186611E+04  0.51100000000E-03 0. -1.
          2   -1    0    0  501    0 -0.00000000000E+00 -0.00000000000E+00 -0.79136740536E+03  0.79136740536E+03  0.25500000000E-02 0. -1.
         11    1    1    2    0    0 -0.21676816687E+02  0.22965093893E+03  0.83157939608E+03  0.86297956529E+03  0.51100000000E-03 0. -1.
         22    1    1    2    0    0 -0.80206168925E+02 -0.91623667629E+02  0.11698856854E+03  0.16886163322E+03  0.00000000000E+00 0.  1.
          2    1    1    2  501    0  0.10188298561E+03 -0.13802727130E+03 -0.73991670887E+03  0.75954486796E+03  0.25500000000E-02 0. -1.
<mgrwt>
<rscale>  0 0.17186068E+03</rscale>
<asrwt>0</asrwt>
<pdfrwt beam="1">  1       11 0.10000000E+01 0.12176997E+03</pdfrwt>
<pdfrwt beam="2">  1        2 0.12175110E+00 0.17186068E+03</pdfrwt>
<totfact> 0.45678442E+01</totfact>
</mgrwt>
</event>
<event>
 5    1  0.6729100E-004  0.8659525E+02  0.7818608E-02  0.1311313E+00
         11   -1    0    0    0    0  0.00000000000E+00  0.00000000000E+00  0.99989843675E+03  0.99989843675E+03  0.51100000000E-03 0. -1.
         -2   -1    0    0    0  501 -0.00000000000E+00 -0.00000000000E+00 -0.40777276866E+02  0.40777276945E+02  0.25500000000E-02 0. -1.
         11    1    1    2    0    0  0.10863457274E+03 -0.70764104170E+02  0.69951368399E+03  0.71142703275E+03  0.51100000000E-03 0. -1.
         22    1    1    2    0    0 -0.42453283387E+02  0.20076666913E+02  0.23873986991E+03  0.24331477413E+03  0.00000000000E+00 0. -1.
         -2    1    1    2    0  501 -0.66181289349E+02  0.50687437257E+02  0.20867605985E+02  0.85933906822E+02  0.25500000000E-02 0. -1.
<mgrwt>
<rscale>  0 0.86595245E+02</rscale>
<asrwt>0</asrwt>
<pdfrwt beam="1">  1       11 0.10000000E+01 0.46961195E+02</pdfrwt>
<pdfrwt beam="2">  1       -2 0.62727899E-02 0.86595245E+02</pdfrwt>
<totfact> 0.10101030E+03</totfact>
</mgrwt>
</event>
<event>
 5    1  0.6729100E-004  0.2334317E+03  0.7818608E-02  0.1124247E+00
         11   -1    0    0    0    0  0.00000000000E+00  0.00000000000E+00  0.10003628154E+04  0.10003628154E+04  0.51100000000E-03 0. -1.
          2   -1    0    0  501    0 -0.00000000000E+00 -0.00000000000E+00 -0.18625055786E+03  0.18625055787E+03  0.25500000000E-02 0. -1.
         11    1    1    2    0    0 -0.25713700797E+03 -0.51116460877E+02  0.82882878719E+03  0.86930402732E+03  0.51100000000E-03 0. -1.
         22    1    1    2    0    0  0.34230864014E+02 -0.83075655348E+01  0.64420629275E+02  0.73421966552E+02  0.00000000000E+00 0.  1.
          2    1    1    2  501    0  0.22290614396E+03  0.59424026412E+02 -0.79137158881E+02  0.24388737944E+03  0.25500000000E-02 0. -1.
<mgrwt>
<rscale>  0 0.23343172E+03</rscale>
<asrwt>0</asrwt>
<pdfrwt beam="1">  1       11 0.10000000E+01 0.35224533E+02</pdfrwt>
<pdfrwt beam="2">  1        2 0.28664327E-01 0.23343172E+03</pdfrwt>
<totfact> 0.22775896E+02</totfact>
</mgrwt>
</event>
<event>
 5    1  0.6729100E-004  0.4684235E+03  0.7818608E-02  0.1022366E+00
         11   -1    0    0    0    0  0.00000000000E+00  0.00000000000E+00  0.10001036951E+04  0.10001036951E+04  0.51100000000E-03 0. -1.
          2   -1    0    0  501    0 -0.00000000000E+00 -0.00000000000E+00 -0.43339784321E+03  0.43339784321E+03  0.25500000000E-02 0. -1.
         11    1    1    2    0    0 -0.39603271501E+03 -0.17183937508E+03  0.25726967536E+03  0.50255185608E+03  0.51100000000E-03 0. -1.
         22    1    1    2    0    0 -0.81120961999E+02  0.60578994122E+02  0.41717964989E+03  0.42928927926E+03  0.00000000000E+00 0. -1.
          2    1    1    2  501    0  0.47715367701E+03  0.11126038096E+03 -0.10774347336E+03  0.50166040297E+03  0.25500000000E-02 0. -1.
<mgrwt>
<rscale>  0 0.46842349E+03</rscale>
<asrwt>0</asrwt>
<pdfrwt beam="1">  1       11 0.10000000E+01 0.10124438E+03</pdfrwt>
<pdfrwt beam="2">  1        2 0.66683503E-01 0.46842349E+03</pdfrwt>
<totfact> 0.90335814E+01</totfact>
</mgrwt>
</event>
<event>
 5    1  0.6729100E-004  0.1247918E+03  0.7818608E-02  0.1257414E+00
         11   -1    0    0    0    0  0.00000000000E+00  0.00000000000E+00  0.10002062530E+04  0.10002062530E+04  0.51100000000E-03 0. -1.
          2   -1    0    0  501    0 -0.00000000000E+00 -0.00000000000E+00 -0.16669624281E+02  0.16669624476E+02  0.25500000000E-02 0. -1.
         11    1    1    2    0    0  0.63647366240E+02  0.29470925847E+02  0.39746233960E+03  0.40360356057E+03  0.51100000000E-03 0. -1.
         22    1    1    2    0    0  0.48022257902E+02 -0.26050342434E+02  0.32099978023E+03  0.32561574978E+03  0.00000000000E+00 0. -1.
          2    1    1    2  501    0 -0.11166962414E+03 -0.34205834125E+01  0.26507450888E+03  0.28765656713E+03  0.25500000000E-02 0. -1.
<mgrwt>
<rscale>  0 0.11172200E+03</rscale>
<asrwt>0</asrwt>
<pdfrwt beam="1">  1       11 0.10000000E+01 0.12479177E+03</pdfrwt>
<pdfrwt beam="2">  1        2 0.25650865E-02 0.11172200E+03</pdfrwt>
<totfact> 0.43616388E+03</totfact>
</mgrwt>
</event>
<event>
 5    1  0.6729100E-004  0.8403032E+02  0.7818608E-02  0.1387476E+00
         11   -1    0    0    0    0  0.00000000000E+00  0.00000000000E+00  0.99992682161E+03  0.99992682161E+03  0.51100000000E-03 0.  1.
          2   -1    0    0  501    0 -0.00000000000E+00 -0.00000000000E+00 -0.16943978081E+02  0.16943978272E+02  0.25500000000E-02 0.  1.
         11    1    1    2    0    0  0.81394893808E+02 -0.86312525813E+02  0.42691582371E+03  0.44309378396E+03  0.51100000000E-03 0.  1.
         22    1    1    2    0    0 -0.21195040276E+02  0.69368540473E+02  0.38177964534E+03  0.38860895736E+03  0.00000000000E+00 0.  1.
          2    1    1    2  501    0 -0.60199853532E+02  0.16943985340E+02  0.17428737448E+03  0.18516805857E+03  0.25500000000E-02 0.  1.
<mgrwt>
<rscale>  0 0.62538956E+02</rscale>
<asrwt>0</asrwt>
<pdfrwt beam="1">  1       11 0.10000000E+01 0.84030320E+02</pdfrwt>
<pdfrwt beam="2">  1        2 0.26065750E-02 0.62538956E+02</pdfrwt>
<totfact> 0.39795514E+03</totfact>
</mgrwt>
</event>
<event>
 5    1  0.6729100E-004  0.1596647E+03  0.7818608E-02  0.1189076E+00
         11   -1    0    0    0    0  0.00000000000E+00  0.00000000000E+00  0.10005824099E+04  0.10005824099E+04  0.51100000000E-03 0.  1.
         -2   -1    0    0    0  501 -0.00000000000E+00 -0.00000000000E+00 -0.10237123113E+03  0.10237123117E+03  0.25500000000E-02 0. -1.
         11    1    1    2    0    0  0.22850150914E+01  0.16521960455E+03  0.89249808369E+03  0.90766489875E+03  0.51100000000E-03 0.  1.
         22    1    1    2    0    0 -0.96570165349E+01 -0.61232539921E+01  0.31896109355E+02  0.33883830949E+02  0.00000000000E+00 0. -1.
         -2    1    1    2    0  501  0.73720014435E+01 -0.15909635056E+03 -0.26183014291E+02  0.16140491136E+03  0.25500000000E-02 0. -1.
<mgrwt>
<rscale>  0 0.15966470E+03</rscale>
<asrwt>0</asrwt>
<pdfrwt beam="1">  1       11 0.10000000E+01 0.11434693E+02</pdfrwt>
<pdfrwt beam="2">  1       -2 0.15758592E-01 0.15966470E+03</pdfrwt>
<totfact> 0.24770419E+02</totfact>
</mgrwt>
</event>
<event>
 5    1  0.6729100E-004  0.1194189E+03  0.7818608E-02  0.1313642E+00
         11   -1    0    0    0    0  0.00000000000E+00  0.00000000000E+00  0.10001961362E+04  0.10001961362E+04  0.51100000000E-03 0. -1.
         -2   -1    0    0    0  501 -0.00000000000E+00 -0.00000000000E+00 -0.31744060043E+02  0.31744060146E+02  0.25500000000E-02 0. -1.
         11    1    1    2    0    0  0.84931578876E+02 -0.96584071851E+02  0.71310661373E+03  0.72461224015E+03  0.51100000000E-03 0. -1.
         22    1    1    2    0    0 -0.61349033335E+02  0.40872641207E+01  0.16424749687E+03  0.17537859005E+03  0.00000000000E+00 0. -1.
         -2    1    1    2    0  501 -0.23582545542E+02  0.92496807730E+02  0.91097965579E+02  0.13194936617E+03  0.25500000000E-02 0. -1.
<mgrwt>
<rscale>  0 0.85688255E+02</rscale>
<asrwt>0</asrwt>
<pdfrwt beam="1">  1       11 0.10000000E+01 0.11941893E+03</pdfrwt>
<pdfrwt beam="2">  1       -2 0.48846593E-02 0.85688255E+02</pdfrwt>
<totfact> 0.14653564E+03</totfact>
</mgrwt>
</event>
<event>
 5    1  0.6729100E-004  0.1345047E+03  0.7818608E-02  0.1220921E+00
         11   -1    0    0    0    0  0.00000000000E+00  0.00000000000E+00  0.10000590310E+04  0.10000590310E+04  0.51100000000E-03 0. -1.
          2   -1    0    0  501    0 -0.00000000000E+00 -0.00000000000E+00 -0.22343499046E+02  0.22343499191E+02  0.25500000000E-02 0. -1.
         11    1    1    2    0    0 -0.11936600200E+03 -0.50364626791E+02  0.24204466411E+03  0.27453680534E+03  0.51100000000E-03 0. -1.
         22    1    1    2    0    0  0.11029000725E+02  0.18101539821E+02  0.99906626967E+02  0.10213049845E+03  0.00000000000E+00 0.  1.
          2    1    1    2  501    0  0.10833700128E+03  0.32263086969E+02  0.63576424083E+03  0.64573522636E+03  0.25500000000E-02 0. -1.
<mgrwt>
<rscale>  0 0.13450471E+03</rscale>
<asrwt>0</asrwt>
<pdfrwt beam="1">  1       11 0.10000000E+01 0.12955638E+03</pdfrwt>
<pdfrwt beam="2">  1        2 0.34376642E-02 0.13450471E+03</pdfrwt>
<totfact> 0.30035900E+03</totfact>
</mgrwt>
</event>
<event>
 5    1  0.6729100E-004  0.1404377E+03  0.7818608E-02  0.1212741E+00
         11   -1    0    0    0    0  0.00000000000E+00  0.00000000000E+00  0.10001598610E+04  0.10001598610E+04  0.51100000000E-03 0.  1.
          2   -1    0    0  501    0 -0.00000000000E+00 -0.00000000000E+00 -0.71841290341E+02  0.71841290386E+02  0.25500000000E-02 0. -1.
         11    1    1    2    0    0  0.97365116983E+02  0.49498372396E+02  0.47528022000E+03  0.48766929614E+03  0.51100000000E-03 0.  1.
         22    1    1    2    0    0 -0.60890466076E+02  0.99674233940E+02  0.40786285507E+03  0.42425783472E+03  0.00000000000E+00 0.  1.
          2    1    1    2  501    0 -0.36474650906E+02 -0.14917260634E+03  0.45175495584E+02  0.16007402053E+03  0.25500000000E-02 0. -1.
<mgrwt>
<rscale>  0 0.14043766E+03</rscale>
<asrwt>0</asrwt>
<pdfrwt beam="1">  1       11 0.10000000E+01 0.10922479E+03</pdfrwt>
<pdfrwt beam="2">  1        2 0.11054273E-01 0.14043766E+03</pdfrwt>
<totfact> 0.67432280E+02</totfact>
</mgrwt>
</event>
<event>
 5    1  0.6729100E-004  0.1357878E+03  0.7818608E-02  0.1220893E+00
         11   -1    0    0    0    0  0.00000000000E+00  0.00000000000E+00  0.10005319675E+04  0.10005319675E+04  0.51100000000E-03 0. -1.
          2   -1    0    0  501    0 -0.00000000000E+00 -0.00000000000E+00 -0.20321665705E+02  0.20321665865E+02  0.25500000000E-02 0. -1.
         11    1    1    2    0    0  0.27358102217E+02  0.12103185042E+03  0.59774148746E+03  0.61048510253E+03  0.51100000000E-03 0. -1.
         22    1    1    2    0    0 -0.30923027874E+01  0.11285648949E+02  0.57100198934E+02  0.58286884692E+02  0.00000000000E+00 0.  1.
          2    1    1    2  501    0 -0.24265799430E+02 -0.13231749936E+03  0.32536861537E+03  0.35208164612E+03  0.25500000000E-02 0. -1.
<mgrwt>
<rscale>  0 0.13452416E+03</rscale>
<asrwt>0</asrwt>
<pdfrwt beam="1">  1       11 0.10000000E+01 0.13578784E+03</pdfrwt>
<pdfrwt beam="2">  1        2 0.31280732E-02 0.13452416E+03</pdfrwt>
<totfact> 0.34079409E+03</totfact>
</mgrwt>
</event>
<event>
 5    1  0.6729100E-004  0.1651052E+03  0.7818608E-02  0.1183051E+00
         11   -1    0    0    0    0  0.00000000000E+00  0.00000000000E+00  0.10000152857E+04  0.10000152857E+04  0.51100000000E-03 0. -1.
          2   -1    0    0  501    0 -0.00000000000E+00 -0.00000000000E+00 -0.10701270585E+04  0.10701270585E+04  0.25500000000E-02 0. -1.
         11    1    1    2    0    0 -0.75255610468E+02  0.17142606834E+03  0.89301318797E+03  0.91242690540E+03  0.51100000000E-03 0. -1.
         22    1    1    2    0    0  0.16507059768E+01 -0.23809584413E+02  0.89304123706E+02  0.92438345133E+02  0.00000000000E+00 0. -1.
          2    1    1    2  501    0  0.73604904492E+02 -0.14761648393E+03 -0.10524290845E+04  0.10652770936E+04  0.25500000000E-02 0. -1.
<mgrwt>
<rscale>  0 0.16510519E+03</rscale>
<asrwt>0</asrwt>
<pdfrwt beam="1">  1       11 0.10000000E+01 0.23866737E+02</pdfrwt>
<pdfrwt beam="2">  1        2 0.16463744E+00 0.16510519E+03</pdfrwt>
<totfact> 0.30570371E+01</totfact>
</mgrwt>
</event>
<event>
 5    1  0.6729100E-004  0.1276945E+03  0.7818608E-02  0.1645981E+00
         11   -1    0    0    0    0  0.00000000000E+00  0.00000000000E+00  0.10000538564E+04  0.10000538564E+04  0.51100000000E-03 0. -1.
          2   -1    0    0  501    0 -0.00000000000E+00 -0.00000000000E+00 -0.50002692819E+03  0.50002692820E+03  0.25500000000E-02 0. -1.
         11    1    1    2    0    0  0.55488562310E+02 -0.94454785463E+02  0.18344209477E+03  0.21366255914E+03  0.51100000000E-03 0. -1.
         22    1    1    2    0    0 -0.75139300166E+02  0.11159891129E+03  0.79549855864E+03  0.80679501004E+03  0.00000000000E+00 0. -1.
          2    1    1    2  501    0  0.19650737856E+02 -0.17144125831E+02 -0.47891372521E+03  0.47962321540E+03  0.25500000000E-02 0. -1.
<mgrwt>
<rscale>  0 0.26078201E+02</rscale>
<asrwt>0</asrwt>
<pdfrwt beam="1">  1       11 0.10000000E+01 0.12769454E+03</pdfrwt>
<pdfrwt beam="2">  1        2 0.76931361E-01 0.26078201E+02</pdfrwt>
<totfact> 0.79940148E+01</totfact>
</mgrwt>
</event>
<event>
 5    1  0.6729100E-004  0.1978842E+03  0.7818608E-02  0.1151536E+00
         11   -1    0    0    0    0  0.00000000000E+00  0.00000000000E+00  0.10002023939E+04  0.10002023939E+04  0.51100000000E-03 0.  1.
          2   -1    0    0  501    0 -0.00000000000E+00 -0.00000000000E+00 -0.14404674854E+03  0.14404674856E+03  0.25500000000E-02 0.  1.
         11    1    1    2    0    0  0.10037166852E+02 -0.21548611977E+03 -0.31615503613E+02  0.21802420187E+03  0.51100000000E-03 0.  1.
         22    1    1    2    0    0 -0.81107570018E+02  0.10380230390E+03  0.44205370827E+03  0.46126438970E+03  0.00000000000E+00 0. -1.
          2    1    1    2  501    0  0.71070403166E+02  0.11168381587E+03  0.44571744067E+03  0.46496055086E+03  0.25500000000E-02 0.  1.
<mgrwt>
<rscale>  0 0.19788424E+03</rscale>
<asrwt>0</asrwt>
<pdfrwt beam="1">  1       11 0.10000000E+01 0.13173214E+03</pdfrwt>
<pdfrwt beam="2">  1        2 0.22165523E-01 0.19788424E+03</pdfrwt>
<totfact> 0.30244555E+02</totfact>
</mgrwt>
</event>
<event>
 5    1  0.6729100E-004  0.6816535E+03  0.7818608E-02  0.9749132E-01
         11   -1    0    0    0    0  0.00000000000E+00  0.00000000000E+00  0.10000331566E+04  0.10000331566E+04  0.51100000000E-03 0. -1.
          2   -1    0    0  501    0 -0.00000000000E+00 -0.00000000000E+00 -0.53727271553E+03  0.53727271553E+03  0.25500000000E-02 0. -1.
         11    1    1    2    0    0 -0.50859617147E+03  0.43619307161E+03  0.37140374792E+03  0.76607780631E+03  0.51100000000E-03 0. -1.
         22    1    1    2    0    0 -0.12311193867E+02  0.14494524176E+02  0.80096012106E+02  0.82322705742E+02  0.00000000000E+00 0.  1.
          2    1    1    2  501    0  0.52090736534E+03 -0.45068759578E+03  0.11260681093E+02  0.68890536012E+03  0.25500000000E-02 0. -1.
<mgrwt>
<rscale>  0 0.68165351E+03</rscale>
<asrwt>0</asrwt>
<pdfrwt beam="1">  1       11 0.10000000E+01 0.19017274E+02</pdfrwt>
<pdfrwt beam="2">  1        2 0.82660079E-01 0.68165351E+03</pdfrwt>
<totfact> 0.70208856E+01</totfact>
</mgrwt>
</event>
<event>
 5    1  0.6729100E-004  0.7084098E+02  0.7818608E-02  0.1548261E+00
         11   -1    0    0    0    0  0.00000000000E+00  0.00000000000E+00  0.99997687290E+03  0.99997687290E+03  0.51100000000E-03 0.  1.
          2   -1    0    0  501    0 -0.00000000000E+00 -0.00000000000E+00 -0.32119428092E+02  0.32119428194E+02  0.25500000000E-02 0.  1.
         11    1    1    2    0    0  0.49244651143E+02 -0.77991352814E+02  0.47895345238E+02  0.10393099093E+03  0.51100000000E-03 0.  1.
         22    1    1    2    0    0 -0.16064969328E+02  0.66731132798E+02  0.32482142428E+03  0.33199410386E+03  0.00000000000E+00 0. -1.
          2    1    1    2  501    0 -0.33179681816E+02  0.11260220015E+02  0.59514067529E+03  0.59617120631E+03  0.25500000000E-02 0.  1.
<mgrwt>
<rscale>  0 0.35038320E+02</rscale>
<asrwt>0</asrwt>
<pdfrwt beam="1">  1       11 0.10000000E+01 0.70840977E+02</pdfrwt>
<pdfrwt beam="2">  1        2 0.49413361E-02 0.35038320E+02</pdfrwt>
<totfact> 0.16273886E+03</totfact>
</mgrwt>
</event>
<event>
 5    1  0.6729100E-004  0.2634762E+03  0.7818608E-02  0.1105072E+00
         11   -1    0    0    0    0  0.00000000000E+00  0.00000000000E+00  0.99984714330E+03  0.99984714330E+03  0.51100000000E-03 0. -1.
         -2   -1    0    0    0  501 -0.00000000000E+00 -0.00000000000E+00 -0.95158055707E+02  0.95158055741E+02  0.25500000000E-02 0.  1.
         11    1    1    2    0    0 -0.25850246505E+03 -0.31528667904E+01  0.74104678284E+03  0.78484635399E+03  0.51100000000E-03 0. -1.
         22    1    1    2    0    0  0.30337034361E+02 -0.92082112486E+01  0.37667269753E+02  0.49233626912E+02  0.00000000000E+00 0.  1.
         -2    1    1    2    0  501  0.22816543069E+03  0.12361078039E+02  0.12597503499E+03  0.26092521814E+03  0.25500000000E-02 0.  1.
<mgrwt>
<rscale>  0 0.26347619E+03</rscale>
<asrwt>0</asrwt>
<pdfrwt beam="1">  1       11 0.10000000E+01 0.25852169E+03</pdfrwt>
<pdfrwt beam="2">  1       -2 0.14637463E-01 0.26347619E+03</pdfrwt>
<totfact> 0.28532179E+02</totfact>
</mgrwt>
</event>
<event>
 5    1  0.6729100E-004  0.1312460E+03  0.7818608E-02  0.1225618E+00
         11   -1    0    0    0    0  0.00000000000E+00  0.00000000000E+00  0.10002241541E+04  0.10002241541E+04  0.51100000000E-03 0.  1.
         -2   -1    0    0    0  501 -0.00000000000E+00 -0.00000000000E+00 -0.64514146393E+02  0.64514146444E+02  0.25500000000E-02 0. -1.
         11    1    1    2    0    0 -0.15037926111E+03  0.43458113561E+01  0.85910586009E+03  0.87217870135E+03  0.51100000000E-03 0.  1.
         22    1    1    2    0    0  0.21069974235E+02 -0.13319345118E+02  0.56019463378E+02  0.61314998539E+02  0.00000000000E+00 0.  1.
         -2    1    1    2    0  501  0.12930928688E+03  0.89735337620E+01  0.20584684289E+02  0.13124460071E+03  0.25500000000E-02 0. -1.
<mgrwt>
<rscale>  0 0.13124604E+03</rscale>
<asrwt>0</asrwt>
<pdfrwt beam="1">  1       11 0.10000000E+01 0.24926868E+02</pdfrwt>
<pdfrwt beam="2">  1       -2 0.99274778E-02 0.13124604E+03</pdfrwt>
<totfact> 0.51526273E+02</totfact>
</mgrwt>
</event>
<event>
 5    1  0.6729100E-004  0.1644863E+03  0.7818608E-02  0.1183723E+00
         11   -1    0    0    0    0  0.00000000000E+00  0.00000000000E+00  0.10004330996E+04  0.10004330996E+04  0.51100000000E-03 0. -1.
          2   -1    0    0  501    0 -0.00000000000E+00 -0.00000000000E+00 -0.55907796555E+02  0.55907796613E+02  0.25500000000E-02 0. -1.
         11    1    1    2    0    0 -0.87934883433E+02  0.12729115521E+03  0.12638768867E+03  0.19977344610E+03  0.51100000000E-03 0. -1.
         22    1    1    2    0    0 -0.38122943958E+02  0.31171574660E+02  0.20620550175E+03  0.21200409165E+03  0.00000000000E+00 0. -1.
          2    1    1    2  501    0  0.12605782739E+03 -0.15846272987E+03  0.61193211262E+03  0.64456335845E+03  0.25500000000E-02 0. -1.
<mgrwt>
<rscale>  0 0.16448628E+03</rscale>
<asrwt>0</asrwt>
<pdfrwt beam="1">  1       11 0.10000000E+01 0.49244552E+02</pdfrwt>
<pdfrwt beam="2">  1        2 0.86049244E-02 0.16448628E+03</pdfrwt>
<totfact> 0.92670430E+02</totfact>
</mgrwt>
</event>
<event>
 5    1  0.6729100E-004  0.1892739E+03  0.7818608E-02  0.1162828E+00
         11   -1    0    0    0    0  0.00000000000E+00  0.00000000000E+00  0.99982266129E+03  0.99982266129E+03  0.51100000000E-03 0. -1.
          2   -1    0    0  501    0 -0.00000000000E+00 -0.00000000000E+00 -0.62370057525E+03  0.62370057526E+03  0.25500000000E-02 0. -1.
         11    1    1    2    0    0  0.68583773180E+02 -0.15695656643E+03  0.94230015552E+03  0.95774144777E+03  0.51100000000E-03 0. -1.
         22    1    1    2    0    0  0.65022561894E+01 -0.12380519764E+02  0.34480874974E+02  0.37208699845E+02  0.00000000000E+00 0. -1.
          2    1    1    2  501    0 -0.75086029369E+02  0.16933708620E+03 -0.60065894446E+03  0.62857308893E+03  0.25500000000E-02 0. -1.
<mgrwt>
<rscale>  0 0.18523758E+03</rscale>
<asrwt>0</asrwt>
<pdfrwt beam="1">  1       11 0.10000000E+01 0.18927391E+03</pdfrwt>
<pdfrwt beam="2">  1        2 0.95936916E-01 0.18523758E+03</pdfrwt>
<totfact> 0.60711580E+01</totfact>
</mgrwt>
</event>
<event>
 5    1  0.6729100E-004  0.1837461E+03  0.7818608E-02  0.1164226E+00
         11   -1    0    0    0    0  0.00000000000E+00  0.00000000000E+00  0.10000211589E+04  0.10000211589E+04  0.51100000000E-03 0. -1.
          2   -1    0    0  501    0 -0.00000000000E+00 -0.00000000000E+00 -0.14631960339E+03  0.14631960341E+03  0.25500000000E-02 0. -1.
         11    1    1    2    0    0  0.16619467312E+03 -0.72367817866E+02  0.89217110377E+03  0.91039938974E+03  0.51100000000E-03 0. -1.
         22    1    1    2    0    0  0.74542332658E+01  0.11675158185E+02  0.35169745169E+02  0.37799284219E+02  0.00000000000E+00 0. -1.
          2    1    1    2  501    0 -0.17364890639E+03  0.60692659682E+02 -0.73639293435E+02  0.19814208834E+03  0.25500000000E-02 0. -1.
<mgrwt>
<rscale>  0 0.18374614E+03</rscale>
<asrwt>0</asrwt>
<pdfrwt beam="1">  1       11 0.10000000E+01 0.13851892E+02</pdfrwt>
<pdfrwt beam="2">  1        2 0.22511184E-01 0.18374614E+03</pdfrwt>
<totfact> 0.29664048E+02</totfact>
</mgrwt>
</event>
<event>
 5    1  0.6729100E-004  0.8351969E+02  0.7818608E-02  0.1567342E+00
         11   -1    0    0    0    0  0.00000000000E+00  0.00000000000E+00  0.10000741699E+04  0.10000741699E+04  0.51100000000E-03 0. -1.
          2   -1    0    0  501    0 -0.00000000000E+00 -0.00000000000E+00 -0.12252151556E+02  0.12252151821E+02  0.25500000000E-02 0. -1.
         11    1    1    2    0    0  0.97398683863E+02  0.55172115294E+01  0.30035029602E+03  0.31579620574E+03  0.51100000000E-03 0. -1.
         22    1    1    2    0    0 -0.76303132245E+02  0.19828742991E+02  0.46766597482E+03  0.47426449481E+03  0.00000000000E+00 0. -1.
          2    1    1    2  501    0 -0.21095551617E+02 -0.25345954521E+02  0.21980574749E+03  0.22226562114E+03  0.25500000000E-02 0. -1.
<mgrwt>
<rscale>  0 0.32976351E+02</rscale>
<asrwt>0</asrwt>
<pdfrwt beam="1">  1       11 0.10000000E+01 0.83519688E+02</pdfrwt>
<pdfrwt beam="2">  1        2 0.18850862E-02 0.32976351E+02</pdfrwt>
<totfact> 0.55316248E+03</totfact>
</mgrwt>
</event>
<event>
 5    1  0.6729100E-004  0.2274622E+03  0.7818608E-02  0.1275299E+00
         11   -1    0    0    0    0  0.00000000000E+00  0.00000000000E+00  0.10001362662E+04  0.10001362662E+04  0.51100000000E-03 0. -1.
          2   -1    0    0  501    0 -0.00000000000E+00 -0.00000000000E+00 -0.86219772360E+02  0.86219772398E+02  0.25500000000E-02 0. -1.
         11    1    1    2    0    0  0.21077436725E+03  0.10251206858E+03  0.73955513945E+03  0.77580691050E+03  0.51100000000E-03 0. -1.
         22    1    1    2    0    0 -0.90794270823E+01 -0.45209439653E+02  0.20430740063E+02  0.50435548668E+02  0.00000000000E+00 0.  1.
          2    1    1    2  501    0 -0.20169494017E+03 -0.57302628923E+02  0.15393061434E+03  0.26011357944E+03  0.25500000000E-02 0. -1.
<mgrwt>
<rscale>  0 0.10241469E+03</rscale>
<asrwt>0</asrwt>
<pdfrwt beam="1">  1       11 0.10000000E+01 0.22746221E+03</pdfrwt>
<pdfrwt beam="2">  1        2 0.13266388E-01 0.10241469E+03</pdfrwt>
<totfact> 0.53334301E+02</totfact>
</mgrwt>
</event>
<event>
 5    1  0.6729100E-004  0.1442105E+03  0.7818608E-02  0.1207773E+00
         11   -1    0    0    0    0  0.00000000000E+00  0.00000000000E+00  0.10000851201E+04  0.10000851201E+04  0.51100000000E-03 0. -1.
          2   -1    0    0  501    0 -0.00000000000E+00 -0.00000000000E+00 -0.21979088801E+03  0.21979088803E+03  0.25500000000E-02 0. -1.
         11    1    1    2    0    0 -0.68462816686E+01 -0.25419141246E+03  0.37707312191E+03  0.45480136874E+03  0.51100000000E-03 0. -1.
         22    1    1    2    0    0  0.15729686798E+02  0.11733268583E+03  0.55093442005E+03  0.56350964269E+03  0.00000000000E+00 0. -1.
          2    1    1    2  501    0 -0.88834051296E+01  0.13685872662E+03 -0.14771330992E+03  0.20156499665E+03  0.25500000000E-02 0. -1.
<mgrwt>
<rscale>  0 0.14421053E+03</rscale>
<asrwt>0</asrwt>
<pdfrwt beam="1">  1       11 0.10000000E+01 0.11838236E+03</pdfrwt>
<pdfrwt beam="2">  1        2 0.33816860E-01 0.14421053E+03</pdfrwt>
<totfact> 0.18876187E+02</totfact>
</mgrwt>
</event>
<event>
 5    1  0.6729100E-004  0.1764081E+03  0.7818608E-02  0.1171325E+00
         11   -1    0    0    0    0  0.00000000000E+00  0.00000000000E+00  0.99990780353E+03  0.99990780353E+03  0.51100000000E-03 0. -1.
          2   -1    0    0  501    0 -0.00000000000E+00 -0.00000000000E+00 -0.43429822805E+02  0.43429822880E+02  0.25500000000E-02 0. -1.
         11    1    1    2    0    0 -0.11840443915E+03 -0.14012101623E+03  0.41710571068E+03  0.45566510102E+03  0.51100000000E-03 0. -1.
         22    1    1    2    0    0  0.47057913693E+02 -0.18298901718E+02  0.20169273425E+03  0.20791646422E+03  0.00000000000E+00 0. -1.
          2    1    1    2  501    0  0.71346525455E+02  0.15841991795E+03  0.33767953580E+03  0.37975606118E+03  0.25500000000E-02 0. -1.
<mgrwt>
<rscale>  0 0.17640808E+03</rscale>
<asrwt>0</asrwt>
<pdfrwt beam="1">  1       11 0.10000000E+01 0.50490564E+02</pdfrwt>
<pdfrwt beam="2">  1        2 0.66808950E-02 0.17640808E+03</pdfrwt>
<totfact> 0.12834899E+03</totfact>
</mgrwt>
</event>
<event>
 5    1  0.6729100E-004  0.1274157E+03  0.7818608E-02  0.1231341E+00
         11   -1    0    0    0    0  0.00000000000E+00  0.00000000000E+00  0.10000769446E+04  0.10000769446E+04  0.51100000000E-03 0. -1.
          2   -1    0    0  501    0 -0.00000000000E+00 -0.00000000000E+00 -0.22894870100E+03  0.22894870101E+03  0.25500000000E-02 0. -1.
         11    1    1    2    0    0  0.10529679530E+03 -0.13859461395E+03  0.67667040979E+03  0.69869787863E+03  0.51100000000E-03 0. -1.
         22    1    1    2    0    0 -0.37535379466E+01  0.63430062202E+02  0.29035481106E+03  0.29722613974E+03  0.00000000000E+00 0. -1.
          2    1    1    2  501    0 -0.10154325736E+03  0.75164551752E+02 -0.19589697721E+03  0.23310162728E+03  0.25500000000E-02 0. -1.
<mgrwt>
<rscale>  0 0.12741572E+03</rscale>
<asrwt>0</asrwt>
<pdfrwt beam="1">  1       11 0.10000000E+01 0.63541025E+02</pdfrwt>
<pdfrwt beam="2">  1        2 0.35225586E-01 0.12741572E+03</pdfrwt>
<totfact> 0.18035538E+02</totfact>
</mgrwt>
</event>
<event>
 5    1  0.6729100E-004  0.2901433E+03  0.7818608E-02  0.1090274E+00
         11   -1    0    0    0    0  0.00000000000E+00  0.00000000000E+00  0.10002343599E+04  0.10002343599E+04  0.51100000000E-03 0. -1.
         -2   -1    0    0    0  501 -0.00000000000E+00 -0.00000000000E+00 -0.14659858266E+03  0.14659858268E+03  0.25500000000E-02 0.  1.
         11    1    1    2    0    0 -0.28679907788E+03  0.78388699928E+02  0.76509699442E+03  0.82083610436E+03  0.51100000000E-03 0. -1.
         22    1    1    2    0    0  0.67753340447E+01 -0.87313808819E+01  0.29444720530E+02  0.31450496508E+02  0.00000000000E+00 0. -1.
         -2    1    1    2    0  501  0.28002374384E+03 -0.69657319046E+02  0.59094062292E+02  0.29454634171E+03  0.25500000000E-02 0.  1.
<mgrwt>
<rscale>  0 0.29014330E+03</rscale>
<asrwt>0</asrwt>
<pdfrwt beam="1">  1       11 0.10000000E+01 0.11051795E+02</pdfrwt>
<pdfrwt beam="2">  1       -2 0.22558913E-01 0.29014330E+03</pdfrwt>
<totfact> 0.13725158E+02</totfact>
</mgrwt>
</event>
<event>
 5    1  0.6729100E-004  0.7589268E+03  0.7818608E-02  0.9621449E-01
         11   -1    0    0    0    0  0.00000000000E+00  0.00000000000E+00  0.10005072780E+04  0.10005072780E+04  0.51100000000E-03 0.  1.
          2   -1    0    0  501    0 -0.00000000000E+00 -0.00000000000E+00 -0.79944839915E+03  0.79944839915E+03  0.25500000000E-02 0.  1.
         11    1    1    2    0    0 -0.67416527597E+03 -0.31553649105E+03  0.42200761695E+03  0.85565911744E+03  0.51100000000E-03 0.  1.
         22    1    1    2    0    0 -0.23458794996E+02  0.23737826035E+01  0.10895568354E+03  0.11147775959E+03  0.00000000000E+00 0.  1.
          2    1    1    2  501    0  0.69762407096E+03  0.31316270845E+03 -0.32990442166E+03  0.83281880009E+03  0.25500000000E-02 0.  1.
<mgrwt>
<rscale>  0 0.75892679E+03</rscale>
<asrwt>0</asrwt>
<pdfrwt beam="1">  1       11 0.10000000E+01 0.23578590E+02</pdfrwt>
<pdfrwt beam="2">  1        2 0.12305445E+00 0.75892679E+03</pdfrwt>
<totfact> 0.42737000E+01</totfact>
</mgrwt>
</event>
<event>
 5    1  0.6729100E-004  0.2059158E+03  0.7818608E-02  0.1144842E+00
         11   -1    0    0    0    0  0.00000000000E+00  0.00000000000E+00  0.10000579517E+04  0.10000579517E+04  0.51100000000E-03 0.  1.
          2   -1    0    0  501    0 -0.00000000000E+00 -0.00000000000E+00 -0.60684308496E+03  0.60684308496E+03  0.25500000000E-02 0.  1.
         11    1    1    2    0    0  0.12597085467E+02  0.22024241960E+03  0.89546315491E+03  0.92223623424E+03  0.51100000000E-03 0.  1.
         22    1    1    2    0    0  0.20873237321E+01 -0.15139366482E+02  0.72576416193E+02  0.74168008773E+02  0.00000000000E+00 0. -1.
          2    1    1    2  501    0 -0.14684409199E+02 -0.20510305312E+03 -0.57482470437E+03  0.61049679363E+03  0.25500000000E-02 0.  1.
<mgrwt>
<rscale>  0 0.20591583E+03</rscale>
<asrwt>0</asrwt>
<pdfrwt beam="1">  1       11 0.10000000E+01 0.15282583E+02</pdfrwt>
<pdfrwt beam="2">  1        2 0.93365882E-01 0.20591583E+03</pdfrwt>
<totfact> 0.62497531E+01</totfact>
</mgrwt>
</event>
<event>
 5    1  0.6729100E-004  0.1227160E+03  0.7818608E-02  0.1238683E+00
         11   -1    0    0    0    0  0.00000000000E+00  0.00000000000E+00  0.10003004441E+04  0.10003004441E+04  0.51100000000E-03 0.  1.
          2   -1    0    0  501    0 -0.00000000000E+00 -0.00000000000E+00 -0.73060391584E+02  0.73060391628E+02  0.25500000000E-02 0.  1.
         11    1    1    2    0    0 -0.78978288613E+02 -0.36810644380E+02  0.25649938986E+03  0.27089579290E+03  0.51100000000E-03 0.  1.
         22    1    1    2    0    0 -0.23600938155E+02  0.11051325441E+03  0.66657380440E+03  0.67608492099E+03  0.00000000000E+00 0.  1.
          2    1    1    2  501    0  0.10257922677E+03 -0.73702610027E+02  0.41668582887E+01  0.12638012187E+03  0.25500000000E-02 0.  1.
<mgrwt>
<rscale>  0 0.12271596E+03</rscale>
<asrwt>0</asrwt>
<pdfrwt beam="1">  1       11 0.10000000E+01 0.87135490E+02</pdfrwt>
<pdfrwt beam="2">  1        2 0.11243437E-01 0.12271596E+03</pdfrwt>
<totfact> 0.65587610E+02</totfact>
</mgrwt>
</event>
<event>
 5    1  0.7587001E-004  0.4143213E+03  0.7818608E-02  0.1039453E+00
         11   -1    0    0    0    0  0.00000000000E+00  0.00000000000E+00  0.10001967985E+04  0.10001967985E+04  0.51100000000E-03 0. -1.
          2   -1    0    0  501    0 -0.00000000000E+00 -0.00000000000E+00 -0.10514185824E+04  0.10514185824E+04  0.25500000000E-02 0. -1.
         11    1    1    2    0    0 -0.21787295498E+03 -0.33359447452E+03  0.86515816747E+03  0.95249805914E+03  0.51100000000E-03 0. -1.
         22    1    1    2    0    0 -0.42515118675E+01 -0.14287558512E+02  0.47925949678E+02  0.50190699676E+02  0.00000000000E+00 0. -1.
          2    1    1    2  501    0  0.22212446685E+03  0.34788203303E+03 -0.96430590106E+03  0.10489266221E+04  0.25500000000E-02 0. -1.
<mgrwt>
<rscale>  0 0.41274833E+03</rscale>
<asrwt>0</asrwt>
<pdfrwt beam="1">  1       11 0.10000000E+01 0.41432130E+03</pdfrwt>
<pdfrwt beam="2">  1        2 0.16178853E+00 0.41274833E+03</pdfrwt>
<totfact> 0.29919310E+01</totfact>
</mgrwt>
</event>
<event>
 5    1  0.6729100E-004  0.1590559E+03  0.7818608E-02  0.1189767E+00
         11   -1    0    0    0    0  0.00000000000E+00  0.00000000000E+00  0.10001981893E+04  0.10001981893E+04  0.51100000000E-03 0.  1.
          2   -1    0    0  501    0 -0.00000000000E+00 -0.00000000000E+00 -0.15736734578E+03  0.15736734580E+03  0.25500000000E-02 0.  1.
         11    1    1    2    0    0  0.17488538226E+03 -0.27472383397E+02  0.66213734422E+03  0.68539440571E+03  0.51100000000E-03 0.  1.
         22    1    1    2    0    0 -0.27063754590E+02  0.87203692497E+02  0.27305504667E+03  0.28791663604E+03  0.00000000000E+00 0.  1.
          2    1    1    2  501    0 -0.14782162767E+03 -0.59731309100E+02 -0.92361547337E+02  0.18425449337E+03  0.25500000000E-02 0.  1.
<mgrwt>
<rscale>  0 0.15905590E+03</rscale>
<asrwt>0</asrwt>
<pdfrwt beam="1">  1       11 0.10000000E+01 0.91306795E+02</pdfrwt>
<pdfrwt beam="2">  1        2 0.24215158E-01 0.15905590E+03</pdfrwt>
<totfact> 0.27239250E+02</totfact>
</mgrwt>
</event>
<event>
 5    1  0.6729100E-004  0.1654639E+03  0.7818608E-02  0.1184443E+00
         11   -1    0    0    0    0  0.00000000000E+00  0.00000000000E+00  0.10001445105E+04  0.10001445105E+04  0.51100000000E-03 0.  1.
          2   -1    0    0  501    0 -0.00000000000E+00 -0.00000000000E+00 -0.28412342118E+02  0.28412342233E+02  0.25500000000E-02 0.  1.
         11    1    1    2    0    0 -0.60566946604E+02  0.12769676791E+03  0.50032754919E+03  0.51990621850E+03  0.51100000000E-03 0.  1.
         22    1    1    2    0    0 -0.16250352231E+01  0.23866578259E+02  0.98190920664E+02  0.10106290713E+03  0.00000000000E+00 0. -1.
          2    1    1    2  501    0  0.62191981827E+02 -0.15156334617E+03  0.37321369853E+03  0.40758772710E+03  0.25500000000E-02 0.  1.
<mgrwt>
<rscale>  0 0.16382701E+03</rscale>
<asrwt>0</asrwt>
<pdfrwt beam="1">  1       11 0.10000000E+01 0.16546388E+03</pdfrwt>
<pdfrwt beam="2">  1        2 0.43717611E-02 0.16382701E+03</pdfrwt>
<totfact> 0.22208409E+03</totfact>
</mgrwt>
</event>
<event>
 5    1  0.6729100E-004  0.1592081E+03  0.7818608E-02  0.1323865E+00
         11   -1    0    0    0    0  0.00000000000E+00  0.00000000000E+00  0.10000709184E+04  0.10000709184E+04  0.51100000000E-03 0.  1.
          2   -1    0    0  501    0 -0.00000000000E+00 -0.00000000000E+00 -0.13283905690E+03  0.13283905693E+03  0.25500000000E-02 0.  1.
         11    1    1    2    0    0 -0.59285085214E+02  0.11933261883E+03  0.14485218903E+03  0.19681755997E+03  0.51100000000E-03 0.  1.
         22    1    1    2    0    0 -0.29343001320E+01 -0.17252250422E+03  0.80292362527E+03  0.82125451146E+03  0.00000000000E+00 0.  1.
          2    1    1    2  501    0  0.62219385346E+02  0.53189885386E+02 -0.80543952832E+02  0.11483790387E+03  0.25500000000E-02 0.  1.
<mgrwt>
<rscale>  0 0.81856068E+02</rscale>
<asrwt>0</asrwt>
<pdfrwt beam="1">  1       11 0.10000000E+01 0.15920808E+03</pdfrwt>
<pdfrwt beam="2">  1        2 0.20438227E-01 0.81856068E+02</pdfrwt>
<totfact> 0.32211654E+02</totfact>
</mgrwt>
</event>
<event>
 5    1  0.6729100E-004  0.1345027E+03  0.7818608E-02  0.1220923E+00
         11   -1    0    0    0    0  0.00000000000E+00  0.00000000000E+00  0.10007528553E+04  0.10007528553E+04  0.51100000000E-03 0. -1.
          2   -1    0    0  501    0 -0.00000000000E+00 -0.00000000000E+00 -0.26034265712E+02  0.26034265837E+02  0.25500000000E-02 0. -1.
         11    1    1    2    0    0  0.13393450318E+03 -0.47811552150E+02  0.29702662365E+03  0.32931627779E+03  0.51100000000E-03 0. -1.
         22    1    1    2    0    0 -0.10494829571E+02  0.38408567618E+02  0.12994515765E+03  0.13590843797E+03  0.00000000000E+00 0.  1.
          2    1    1    2  501    0 -0.12343967361E+03  0.94029845317E+01  0.54774680828E+03  0.56156240537E+03  0.25500000000E-02 0. -1.
<mgrwt>
<rscale>  0 0.13450272E+03</rscale>
<asrwt>0</asrwt>
<pdfrwt beam="1">  1       11 0.10000000E+01 0.39816573E+02</pdfrwt>
<pdfrwt beam="2">  1        2 0.40082869E-02 0.13450272E+03</pdfrwt>
<totfact> 0.24489104E+03</totfact>
</mgrwt>
</event>
<event>
 5    1  0.6729100E-004  0.1349738E+03  0.7818608E-02  0.1220257E+00
         11   -1    0    0    0    0  0.00000000000E+00  0.00000000000E+00  0.10000175277E+04  0.10000175277E+04  0.51100000000E-03 0. -1.
          2   -1    0    0  501    0 -0.00000000000E+00 -0.00000000000E+00 -0.21516301450E+02  0.21516301601E+02  0.25500000000E-02 0. -1.
         11    1    1    2    0    0  0.12042412699E+03 -0.54070456375E+02  0.38388372051E+03  0.40594617314E+03  0.51100000000E-03 0. -1.
         22    1    1    2    0    0 -0.17561766124E+01 -0.19308225779E+02  0.87884622035E+02  0.89997769579E+02  0.00000000000E+00 0.  1.
          2    1    1    2  501    0 -0.11866795038E+03  0.73378682154E+02  0.50673288366E+03  0.52558988654E+03  0.25500000000E-02 0. -1.
<mgrwt>
<rscale>  0 0.13497384E+03</rscale>
<asrwt>0</asrwt>
<pdfrwt beam="1">  1       11 0.10000000E+01 0.19387928E+02</pdfrwt>
<pdfrwt beam="2">  1        2 0.33102582E-02 0.13497384E+03</pdfrwt>
<totfact> 0.31601239E+03</totfact>
</mgrwt>
</event>
<event>
 5    1  0.6729100E-004  0.2258210E+03  0.7818608E-02  0.1652498E+00
         11   -1    0    0    0    0  0.00000000000E+00  0.00000000000E+00  0.10001390748E+04  0.10001390748E+04  0.51100000000E-03 0. -1.
          2   -1    0    0  501    0 -0.00000000000E+00 -0.00000000000E+00 -0.24853422663E+03  0.24853422664E+03  0.25500000000E-02 0. -1.
         11    1    1    2    0    0 -0.20399900572E+03 -0.13161268558E+03 -0.16445639478E+03  0.29322926035E+03  0.51100000000E-03 0. -1.
         22    1    1    2    0    0  0.19787063891E+03  0.10675461908E+03  0.89339044284E+03  0.92124688428E+03  0.00000000000E+00 0. -1.
          2    1    1    2  501    0  0.61283668100E+01  0.24858066507E+02  0.22670800116E+02  0.34197156821E+02  0.25500000000E-02 0. -1.
<mgrwt>
<rscale>  0 0.25602351E+02</rscale>
<asrwt>0</asrwt>
<pdfrwt beam="1">  1       11 0.10000000E+01 0.22582102E+03</pdfrwt>
<pdfrwt beam="2">  1        2 0.38241351E-01 0.25602351E+02</pdfrwt>
<totfact> 0.16035121E+02</totfact>
</mgrwt>
</event>
<event>
 5    1  0.6729100E-004  0.1335398E+03  0.7818608E-02  0.1222296E+00
         11   -1    0    0    0    0  0.00000000000E+00  0.00000000000E+00  0.10003028307E+04  0.10003028307E+04  0.51100000000E-03 0.  1.
          2   -1    0    0  501    0 -0.00000000000E+00 -0.00000000000E+00 -0.44462606102E+02  0.44462606175E+02  0.25500000000E-02 0.  1.
         11    1    1    2    0    0 -0.96812712476E+02  0.91759311363E+02  0.79615809868E+03  0.80725472474E+03  0.51100000000E-03 0.  1.
         22    1    1    2    0    0 -0.95857454729E+01 -0.10859501116E+02  0.81261325816E+02  0.82542221645E+02  0.00000000000E+00 0.  1.
          2    1    1    2  501    0  0.10639845795E+03 -0.80899810247E+02  0.78420800115E+02  0.15496849050E+03  0.25500000000E-02 0.  1.
<mgrwt>
<rscale>  0 0.13353977E+03</rscale>
<asrwt>0</asrwt>
<pdfrwt beam="1">  1       11 0.10000000E+01 0.14485002E+02</pdfrwt>
<pdfrwt beam="2">  1        2 0.68424722E-02 0.13353977E+03</pdfrwt>
<totfact> 0.12213170E+03</totfact>
</mgrwt>
</event>
<event>
 5    1  0.6729100E-004  0.2878766E+03  0.7818608E-02  0.1100665E+00
         11   -1    0    0    0    0  0.00000000000E+00  0.00000000000E+00  0.10004098217E+04  0.10004098217E+04  0.51100000000E-03 0. -1.
          2   -1    0    0  501    0 -0.00000000000E+00 -0.00000000000E+00 -0.12292045018E+03  0.12292045021E+03  0.25500000000E-02 0. -1.
         11    1    1    2    0    0 -0.10656178589E+03 -0.93739700517E+02  0.39024215358E+03  0.41524870150E+03  0.51100000000E-03 0. -1.
         22    1    1    2    0    0 -0.14585805510E+03 -0.50849994734E+01  0.39603536703E+03  0.42207160695E+03  0.00000000000E+00 0.  1.
          2    1    1    2  501    0  0.25241984099E+03  0.98824699991E+02  0.91211850937E+02  0.28600996348E+03  0.25500000000E-02 0. -1.
<mgrwt>
<rscale>  0 0.27107581E+03</rscale>
<asrwt>0</asrwt>
<pdfrwt beam="1">  1       11 0.10000000E+01 0.28787664E+03</pdfrwt>
<pdfrwt beam="2">  1        2 0.18918588E-01 0.27107581E+03</pdfrwt>
<totfact> 0.36563326E+02</totfact>
</mgrwt>
</event>
<event>
 5    1  0.6729100E-004  0.2029385E+03  0.7818608E-02  0.1147283E+00
         11   -1    0    0    0    0  0.00000000000E+00  0.00000000000E+00  0.10002492429E+04  0.10002492429E+04  0.51100000000E-03 0. -1.
         -2   -1    0    0    0  501 -0.00000000000E+00 -0.00000000000E+00 -0.51631324550E+02  0.51631324613E+02  0.25500000000E-02 0. -1.
         11    1    1    2    0    0  0.10221691532E+03 -0.17747392391E+03  0.66928546146E+03  0.69992022429E+03  0.51100000000E-03 0. -1.
         22    1    1    2    0    0 -0.10056694493E+02 -0.25267164918E+01  0.24760246934E+02  0.26843830364E+02  0.00000000000E+00 0. -1.
         -2    1    1    2    0  501 -0.92160220825E+02  0.18000064041E+03  0.25457220997E+03  0.32511651288E+03  0.25500000000E-02 0. -1.
<mgrwt>
<rscale>  0 0.20293853E+03</rscale>
<asrwt>0</asrwt>
<pdfrwt beam="1">  1       11 0.10000000E+01 0.10369253E+02</pdfrwt>
<pdfrwt beam="2">  1       -2 0.79452603E-02 0.20293853E+03</pdfrwt>
<totfact> 0.74988009E+02</totfact>
</mgrwt>
</event>
<event>
 5    1  0.6729100E-004  0.1135770E+03  0.7818608E-02  0.1259802E+00
         11   -1    0    0    0    0  0.00000000000E+00  0.00000000000E+00  0.10001065783E+04  0.10001065783E+04  0.51100000000E-03 0. -1.
          2   -1    0    0  501    0 -0.00000000000E+00 -0.00000000000E+00 -0.12551444211E+02  0.12551444470E+02  0.25500000000E-02 0. -1.
         11    1    1    2    0    0  0.93741625870E+02 -0.32365308565E+01  0.37687296774E+03  0.38836992850E+03  0.51100000000E-03 0. -1.
         22    1    1    2    0    0  0.16538305492E+02  0.87094667852E+01  0.10986152391E+03  0.11144022970E+03  0.00000000000E+00 0.  1.
          2    1    1    2  501    0 -0.11027993136E+03 -0.54729359287E+01  0.50082064246E+03  0.51284786458E+03  0.25500000000E-02 0. -1.
<mgrwt>
<rscale>  0 0.11041565E+03</rscale>
<asrwt>0</asrwt>
<pdfrwt beam="1">  1       11 0.10000000E+01 0.11357697E+03</pdfrwt>
<pdfrwt beam="2">  1        2 0.19311972E-02 0.11041565E+03</pdfrwt>
<totfact> 0.63929340E+03</totfact>
</mgrwt>
</event>
<event>
 5    1  0.6729100E-004  0.9017547E+02  0.7818608E-02  0.1408445E+00
         11   -1    0    0    0    0  0.00000000000E+00  0.00000000000E+00  0.10000962136E+04  0.10000962136E+04  0.51100000000E-03 0.  1.
          2   -1    0    0  501    0 -0.00000000000E+00 -0.00000000000E+00 -0.16362294041E+02  0.16362294240E+02  0.25500000000E-02 0.  1.
         11    1    1    2    0    0  0.37692059141E+01  0.94445451077E+02  0.25315592269E+03  0.27022596348E+03  0.51100000000E-03 0.  1.
         22    1    1    2    0    0  0.51582104024E+02 -0.78717922054E+02  0.47895876787E+03  0.48811753301E+03  0.00000000000E+00 0. -1.
          2    1    1    2  501    0 -0.55351309938E+02 -0.15727529023E+02  0.25161922903E+03  0.25811501139E+03  0.25500000000E-02 0.  1.
<mgrwt>
<rscale>  0 0.57542356E+02</rscale>
<asrwt>0</asrwt>
<pdfrwt beam="1">  1       11 0.10000000E+01 0.90175469E+02</pdfrwt>
<pdfrwt beam="2">  1        2 0.25175181E-02 0.57542356E+02</pdfrwt>
<totfact> 0.41203128E+03</totfact>
</mgrwt>
</event>
<event>
 5    1  0.6729100E-004  0.1486725E+03  0.7818608E-02  0.1202114E+00
         11   -1    0    0    0    0  0.00000000000E+00  0.00000000000E+00  0.10000100462E+04  0.10000100462E+04  0.51100000000E-03 0.  1.
          2   -1    0    0  501    0 -0.00000000000E+00 -0.00000000000E+00 -0.18489594355E+03  0.18489594356E+03  0.25500000000E-02 0.  1.
         11    1    1    2    0    0 -0.91659526912E+02  0.94107652185E+02  0.76546091191E+03  0.77665186971E+03  0.51100000000E-03 0.  1.
         22    1    1    2    0    0  0.37193447881E+02  0.45449867790E+02  0.19249824343E+03  0.20125758811E+03  0.00000000000E+00 0. -1.
          2    1    1    2  501    0  0.54466079031E+02 -0.13955751998E+03 -0.14284505269E+03  0.20699653193E+03  0.25500000000E-02 0.  1.
<mgrwt>
<rscale>  0 0.14867253E+03</rscale>
<asrwt>0</asrwt>
<pdfrwt beam="1">  1       11 0.10000000E+01 0.58728554E+02</pdfrwt>
<pdfrwt beam="2">  1        2 0.28445815E-01 0.14867253E+03</pdfrwt>
<totfact> 0.22776354E+02</totfact>
</mgrwt>
</event>
<event>
 5    1  0.6729100E-004  0.1058602E+03  0.7818608E-02  0.1509087E+00
         11   -1    0    0    0    0  0.00000000000E+00  0.00000000000E+00  0.99998662495E+03  0.99998662495E+03  0.51100000000E-03 0.  1.
          2   -1    0    0  501    0 -0.00000000000E+00 -0.00000000000E+00 -0.14169152585E+02  0.14169152814E+02  0.25500000000E-02 0.  1.
         11    1    1    2    0    0  0.10582823053E+03 -0.15697450823E+01  0.33198490139E+03  0.34844806389E+03  0.51100000000E-03 0.  1.
         22    1    1    2    0    0 -0.87729500815E+00 -0.14999055576E+02  0.39625664341E+02  0.42378468461E+02  0.00000000000E+00 0. -1.
          2    1    1    2  501    0 -0.10495093553E+03  0.16568800658E+02  0.61420690664E+03  0.62332924542E+03  0.25500000000E-02 0.  1.
<mgrwt>
<rscale>  0 0.39881266E+02</rscale>
<asrwt>0</asrwt>
<pdfrwt beam="1">  1       11 0.10000000E+01 0.10586016E+03</pdfrwt>
<pdfrwt beam="2">  1        2 0.21798404E-02 0.39881266E+02</pdfrwt>
<totfact> 0.47205213E+03</totfact>
</mgrwt>
</event>
<event>
 5    1  0.6729100E-004  0.1923330E+03  0.7818608E-02  0.1297487E+00
         11   -1    0    0    0    0  0.00000000000E+00  0.00000000000E+00  0.10004223335E+04  0.10004223335E+04  0.51100000000E-03 0. -1.
          2   -1    0    0  501    0 -0.00000000000E+00 -0.00000000000E+00 -0.10865845156E+03  0.10865845159E+03  0.25500000000E-02 0. -1.
         11    1    1    2    0    0 -0.12937974209E+03  0.87414840489E+01 -0.27553186482E+02  0.13256963941E+03  0.51100000000E-03 0. -1.
         22    1    1    2    0    0  0.19567160850E+03  0.55413754359E+02  0.80136622537E+03  0.82676834102E+03  0.00000000000E+00 0. -1.
          2    1    1    2  501    0 -0.66291866405E+02 -0.64155238407E+02  0.11795084310E+03  0.14974280471E+03  0.25500000000E-02 0. -1.
<mgrwt>
<rscale>  0 0.92252405E+02</rscale>
<asrwt>0</asrwt>
<pdfrwt beam="1">  1       11 0.10000000E+01 0.19233300E+03</pdfrwt>
<pdfrwt beam="2">  1        2 0.16723744E-01 0.92252405E+02</pdfrwt>
<totfact> 0.40571871E+02</totfact>
</mgrwt>
</event>
<event>
 5    1  0.6729100E-004  0.1802374E+03  0.7818608E-02  0.1184837E+00
         11   -1    0    0    0    0  0.00000000000E+00  0.00000000000E+00  0.10004019277E+04  0.10004019277E+04  0.51100000000E-03 0.  1.
         -2   -1    0    0    0  501 -0.00000000000E+00 -0.00000000000E+00 -0.36243523325E+02  0.36243523415E+02  0.25500000000E-02 0. -1.
         11    1    1    2    0    0  0.96560882595E+02 -0.10244384215E+02  0.29173981215E+03  0.30747531518E+03  0.51100000000E-03 0.  1.
         22    1    1    2    0    0  0.64758730750E+02  0.36655473246E+02  0.43250518799E+03  0.43885994869E+03  0.00000000000E+00 0.  1.
         -2    1    1    2    0  501 -0.16131961334E+03 -0.26411089030E+02  0.23991340422E+03  0.29031018722E+03  0.25500000000E-02 0. -1.
<mgrwt>
<rscale>  0 0.16346732E+03</rscale>
<asrwt>0</asrwt>
<pdfrwt beam="1">  1       11 0.10000000E+01 0.18023736E+03</pdfrwt>
<pdfrwt beam="2">  1       -2 0.55781676E-02 0.16346732E+03</pdfrwt>
<totfact> 0.12719284E+03</totfact>
</mgrwt>
</event>
<event>
 5    1  0.6729100E-004  0.1355299E+03  0.7818608E-02  0.1222233E+00
         11   -1    0    0    0    0  0.00000000000E+00  0.00000000000E+00  0.10001502459E+04  0.10001502459E+04  0.51100000000E-03 0. -1.
         -2   -1    0    0    0  501 -0.00000000000E+00 -0.00000000000E+00 -0.23497763079E+02  0.23497763217E+02  0.25500000000E-02 0.  1.
         11    1    1    2    0    0  0.18492210258E+02  0.11724093514E+03  0.66538903423E+03  0.67589197775E+03  0.51100000000E-03 0. -1.
         22    1    1    2    0    0  0.94244226204E+01  0.13392906391E+02  0.70899625297E+02  0.72766383383E+02  0.00000000000E+00 0. -1.
         -2    1    1    2    0  501 -0.27916632879E+02 -0.13063384153E+03  0.24036382332E+03  0.27498964801E+03  0.25500000000E-02 0.  1.
<mgrwt>
<rscale>  0 0.13358345E+03</rscale>
<asrwt>0</asrwt>
<pdfrwt beam="1">  1       11 0.10000000E+01 0.13552989E+03</pdfrwt>
<pdfrwt beam="2">  1       -2 0.36155835E-02 0.13358345E+03</pdfrwt>
<totfact> 0.23910355E+03</totfact>
</mgrwt>
</event>
<event>
 5    1  0.6729100E-004  0.1050044E+03  0.7818608E-02  0.1318845E+00
         11   -1    0    0    0    0  0.00000000000E+00  0.00000000000E+00  0.99977752155E+03  0.99977752155E+03  0.51100000000E-03 0. -1.
          2   -1    0    0  501    0 -0.00000000000E+00 -0.00000000000E+00 -0.22428164187E+04  0.22428164187E+04  0.25500000000E-02 0. -1.
         11    1    1    2    0    0  0.68322968162E+02  0.13080921020E+03  0.62410746837E+03  0.64131833712E+03  0.51100000000E-03 0. -1.
         22    1    1    2    0    0  0.21661567426E+01 -0.85660948083E+02  0.36126724455E+03  0.37129033417E+03  0.00000000000E+00 0. -1.
          2    1    1    2  501    0 -0.70489124905E+02 -0.45148262114E+02 -0.22284136100E+04  0.22299852689E+04  0.25500000000E-02 0. -1.
<mgrwt>
<rscale>  0 0.83708317E+02</rscale>
<asrwt>0</asrwt>
<pdfrwt beam="1">  1       11 0.10000000E+01 0.10500445E+03</pdfrwt>
<pdfrwt beam="2">  1        2 0.34497190E+00 0.83708317E+02</pdfrwt>
<totfact> 0.79441948E+00</totfact>
</mgrwt>
</event>
<event>
 5    1  0.6729100E-004  0.9419446E+02  0.7818608E-02  0.1316404E+00
         11   -1    0    0    0    0  0.00000000000E+00  0.00000000000E+00  0.10002388401E+04  0.10002388401E+04  0.51100000000E-03 0. -1.
         -2   -1    0    0    0  501 -0.00000000000E+00 -0.00000000000E+00 -0.84167306818E+02  0.84167306856E+02  0.25500000000E-02 0.  1.
         11    1    1    2    0    0  0.60713670327E+02  0.78735862576E+02  0.42979083385E+03  0.44114130013E+03  0.51100000000E-03 0. -1.
         22    1    1    2    0    0 -0.10641168813E+03 -0.75048451656E+01  0.53505548578E+03  0.54558605456E+03  0.00000000000E+00 0. -1.
         -2    1    1    2    0  501  0.45698017799E+02 -0.71231017411E+02 -0.48774786333E+02  0.97678792276E+02  0.25500000000E-02 0.  1.
<mgrwt>
<rscale>  0 0.84629585E+02</rscale>
<asrwt>0</asrwt>
<pdfrwt beam="1">  1       11 0.10000000E+01 0.94194460E+02</pdfrwt>
<pdfrwt beam="2">  1       -2 0.12951909E-01 0.84629585E+02</pdfrwt>
<totfact> 0.32975825E+02</totfact>
</mgrwt>
</event>
<event>
 5    1  0.6729100E-004  0.1734416E+03  0.7818608E-02  0.1174306E+00
         11   -1    0    0    0    0  0.00000000000E+00  0.00000000000E+00  0.10012854321E+04  0.10012854321E+04  0.51100000000E-03 0.  1.
          2   -1    0    0  501    0 -0.00000000000E+00 -0.00000000000E+00 -0.24064042153E+04  0.24064042153E+04  0.25500000000E-02 0.  1.
         11    1    1    2    0    0  0.27339431268E+03  0.77074779347E+02  0.64908388586E+03  0.70851595797E+03  0.51100000000E-03 0.  1.
         22    1    1    2    0    0 -0.12256131783E+03  0.75748122467E+01  0.30751779531E+03  0.33112814565E+03  0.00000000000E+00 0.  1.
          2    1    1    2  501    0 -0.15083299485E+03 -0.84649591593E+02 -0.23617204644E+04  0.23680455438E+04  0.25500000000E-02 0.  1.
<mgrwt>
<rscale>  0 0.17344158E+03</rscale>
<asrwt>0</asrwt>
<pdfrwt beam="1">  1       11 0.10000000E+01 0.12279517E+03</pdfrwt>
<pdfrwt beam="2">  1        2 0.37069191E+00 0.17344158E+03</pdfrwt>
<totfact> 0.59430931E+00</totfact>
</mgrwt>
</event>
<event>
 5    1  0.6729100E-004  0.1245425E+03  0.7818608E-02  0.1235786E+00
         11   -1    0    0    0    0  0.00000000000E+00  0.00000000000E+00  0.10003280922E+04  0.10003280922E+04  0.51100000000E-03 0. -1.
          2   -1    0    0  501    0 -0.00000000000E+00 -0.00000000000E+00 -0.15390088507E+02  0.15390088719E+02  0.25500000000E-02 0. -1.
         11    1    1    2    0    0  0.91367852611E+01 -0.12191328618E+03  0.43492597158E+03  0.45178195067E+03  0.51100000000E-03 0. -1.
         22    1    1    2    0    0  0.80685434914E+01  0.39771061878E+02  0.17292930386E+03  0.17762708940E+03  0.00000000000E+00 0.  1.
          2    1    1    2  501    0 -0.17205328753E+02  0.82142224299E+02  0.37708272823E+03  0.38630914082E+03  0.25500000000E-02 0. -1.
<mgrwt>
<rscale>  0 0.12454251E+03</rscale>
<asrwt>0</asrwt>
<pdfrwt beam="1">  1       11 0.10000000E+01 0.12225525E+03</pdfrwt>
<pdfrwt beam="2">  1        2 0.23684827E-02 0.12454251E+03</pdfrwt>
<totfact> 0.49170951E+03</totfact>
</mgrwt>
</event>
<event>
 5    1  0.6729100E-004  0.3154466E+03  0.7818608E-02  0.1077764E+00
         11   -1    0    0    0    0  0.00000000000E+00  0.00000000000E+00  0.10001147602E+04  0.10001147602E+04  0.51100000000E-03 0. -1.
          2   -1    0    0  501    0 -0.00000000000E+00 -0.00000000000E+00 -0.11731909817E+03  0.11731909820E+03  0.25500000000E-02 0. -1.
         11    1    1    2    0    0 -0.55833227905E+02 -0.29940741111E+03  0.33293941053E+03  0.45123253234E+03  0.51100000000E-03 0. -1.
         22    1    1    2    0    0 -0.74073387365E+01 -0.23018506367E+02  0.13421258461E+03  0.13637352445E+03  0.00000000000E+00 0. -1.
          2    1    1    2  501    0  0.63240566641E+02  0.32242591747E+03  0.41564366689E+03  0.52982780161E+03  0.25500000000E-02 0. -1.
<mgrwt>
<rscale>  0 0.31544657E+03</rscale>
<asrwt>0</asrwt>
<pdfrwt beam="1">  1       11 0.10000000E+01 0.24180991E+02</pdfrwt>
<pdfrwt beam="2">  1        2 0.18051163E-01 0.31544657E+03</pdfrwt>
<totfact> 0.38782939E+02</totfact>
</mgrwt>
</event>
<event>
 5    1  0.6729100E-004  0.1901482E+03  0.7818608E-02  0.1158328E+00
         11   -1    0    0    0    0  0.00000000000E+00  0.00000000000E+00  0.10001218921E+04  0.10001218921E+04  0.51100000000E-03 0.  1.
          2   -1    0    0  501    0 -0.00000000000E+00 -0.00000000000E+00 -0.30717853024E+03  0.30717853025E+03  0.25500000000E-02 0. -1.
         11    1    1    2    0    0  0.15160035254E+03  0.95103096733E+02  0.94405290711E+03  0.96086583731E+03  0.51100000000E-03 0.  1.
         22    1    1    2    0    0  0.85093925028E+01  0.81347823127E+01  0.15058675005E+02  0.19114082164E+02  0.00000000000E+00 0. -1.
          2    1    1    2  501    0 -0.16010974504E+03 -0.10323787905E+03 -0.26616822025E+03  0.32732050287E+03  0.25500000000E-02 0. -1.
<mgrwt>
<rscale>  0 0.19014817E+03</rscale>
<asrwt>0</asrwt>
<pdfrwt beam="1">  1       11 0.10000000E+01 0.11772189E+02</pdfrwt>
<pdfrwt beam="2">  1        2 0.47263994E-01 0.19014817E+03</pdfrwt>
<totfact> 0.13219929E+02</totfact>
</mgrwt>
</event>
<event>
 5    1  0.6729100E-004  0.2851609E+03  0.7818608E-02  0.1093685E+00
         11   -1    0    0    0    0  0.00000000000E+00  0.00000000000E+00  0.10004704358E+04  0.10004704358E+04  0.51100000000E-03 0. -1.
          2   -1    0    0  501    0 -0.00000000000E+00 -0.00000000000E+00 -0.55892948345E+03  0.55892948346E+03  0.25500000000E-02 0. -1.
         11    1    1    2    0    0 -0.12473817394E+03 -0.24217847748E+03  0.88127696795E+03  0.92242025196E+03  0.51100000000E-03 0. -1.
         22    1    1    2    0    0 -0.70238454857E+01 -0.90680624316E+01  0.60671401124E+02  0.61746117903E+02  0.00000000000E+00 0.  1.
          2    1    1    2  501    0  0.13176201943E+03  0.25124653991E+03 -0.50040741675E+03  0.57523354937E+03  0.25500000000E-02 0. -1.
<mgrwt>
<rscale>  0 0.28370064E+03</rscale>
<asrwt>0</asrwt>
<pdfrwt beam="1">  1       11 0.10000000E+01 0.28516086E+03</pdfrwt>
<pdfrwt beam="2">  1        2 0.86029601E-01 0.28370064E+03</pdfrwt>
<totfact> 0.68211169E+01</totfact>
</mgrwt>
</event>
<event>
 5    1  0.6729100E-004  0.2433000E+03  0.7818608E-02  0.1127354E+00
         11   -1    0    0    0    0  0.00000000000E+00  0.00000000000E+00  0.10003773958E+04  0.10003773958E+04  0.51100000000E-03 0. -1.
          2   -1    0    0  501    0 -0.00000000000E+00 -0.00000000000E+00 -0.62405184521E+02  0.62405184574E+02  0.25500000000E-02 0. -1.
         11    1    1    2    0    0 -0.13819708884E+03  0.14858133160E+03  0.50180730205E+03  0.54128127240E+03  0.51100000000E-03 0. -1.
         22    1    1    2    0    0 -0.36311924346E+02 -0.31646499599E+00  0.15342486019E+03  0.15766370453E+03  0.00000000000E+00 0.  1.
          2    1    1    2  501    0  0.17450901319E+03 -0.14826486660E+03  0.28274004907E+03  0.36383760348E+03  0.25500000000E-02 0. -1.
<mgrwt>
<rscale>  0 0.22898879E+03</rscale>
<asrwt>0</asrwt>
<pdfrwt beam="1">  1       11 0.10000000E+01 0.24330001E+03</pdfrwt>
<pdfrwt beam="2">  1        2 0.96044206E-02 0.22898879E+03</pdfrwt>
<totfact> 0.82238615E+02</totfact>
</mgrwt>
</event>
<event>
 5    1  0.6729100E-004  0.3145029E+03  0.7818608E-02  0.1078207E+00
         11   -1    0    0    0    0  0.00000000000E+00  0.00000000000E+00  0.10000668803E+04  0.10000668803E+04  0.51100000000E-03 0.  1.
         -2   -1    0    0    0  501 -0.00000000000E+00 -0.00000000000E+00 -0.43228697407E+03  0.43228697408E+03  0.25500000000E-02 0. -1.
         11    1    1    2    0    0  0.11255892830E+03  0.29841524038E+03  0.68434711921E+03  0.75501797833E+03  0.51100000000E-03 0.  1.
         22    1    1    2    0    0  0.53292682944E+02 -0.31084280318E+02  0.21297826992E+03  0.22173426888E+03  0.00000000000E+00 0.  1.
         -2    1    1    2    0  501 -0.16585161124E+03 -0.26733096006E+03 -0.32954548289E+03  0.45560160717E+03  0.25500000000E-02 0. -1.
<mgrwt>
<rscale>  0 0.31450295E+03</rscale>
<asrwt>0</asrwt>
<pdfrwt beam="1">  1       11 0.10000000E+01 0.61695563E+02</pdfrwt>
<pdfrwt beam="2">  1       -2 0.66510134E-01 0.31450295E+03</pdfrwt>
<totfact> 0.17224887E+01</totfact>
</mgrwt>
</event>
<event>
 5    1  0.6729100E-004  0.1440719E+03  0.7818608E-02  0.1207953E+00
         11   -1    0    0    0    0  0.00000000000E+00  0.00000000000E+00  0.99981252001E+03  0.99981252001E+03  0.51100000000E-03 0. -1.
          2   -1    0    0  501    0 -0.00000000000E+00 -0.00000000000E+00 -0.30347943878E+03  0.30347943879E+03  0.25500000000E-02 0. -1.
         11    1    1    2    0    0 -0.10854633828E+03 -0.10892548262E+03  0.92707791211E+03  0.93974492466E+03  0.51100000000E-03 0. -1.
         22    1    1    2    0    0  0.52947629550E+01  0.87072348338E+01  0.48420024602E+02  0.49480796635E+02  0.00000000000E+00 0.  1.
          2    1    1    2  501    0  0.10325157532E+03  0.10021824779E+03 -0.27916485548E+03  0.31406623750E+03  0.25500000000E-02 0. -1.
<mgrwt>
<rscale>  0 0.14407191E+03</rscale>
<asrwt>0</asrwt>
<pdfrwt beam="1">  1       11 0.10000000E+01 0.10190704E+02</pdfrwt>
<pdfrwt beam="2">  1        2 0.46680390E-01 0.14407191E+03</pdfrwt>
<totfact> 0.13384667E+02</totfact>
</mgrwt>
</event>
<event>
 5    1  0.6729100E-004  0.5895699E+03  0.7818608E-02  0.9927284E-01
         11   -1    0    0    0    0  0.00000000000E+00  0.00000000000E+00  0.10008713583E+04  0.10008713583E+04  0.51100000000E-03 0.  1.
          2   -1    0    0  501    0 -0.00000000000E+00 -0.00000000000E+00 -0.20606175023E+04  0.20606175023E+04  0.25500000000E-02 0.  1.
         11    1    1    2    0    0 -0.51012827027E+03  0.14676190735E+03  0.50857431465E+03  0.73513110606E+03  0.51100000000E-03 0.  1.
         22    1    1    2    0    0 -0.61328276586E+02  0.14794016265E+02  0.33069227334E+03  0.33665620457E+03  0.00000000000E+00 0.  1.
          2    1    1    2  501    0  0.57145654685E+03 -0.16155592362E+03 -0.18990127320E+04  0.19897015499E+04  0.25500000000E-02 0.  1.
<mgrwt>
<rscale>  0 0.58956995E+03</rscale>
<asrwt>0</asrwt>
<pdfrwt beam="1">  1       11 0.10000000E+01 0.63087403E+02</pdfrwt>
<pdfrwt beam="2">  1        2 0.31729430E+00 0.58956995E+03</pdfrwt>
<totfact> 0.80061277E+00</totfact>
</mgrwt>
</event>
<event>
 5    1  0.6729100E-004  0.3307643E+03  0.7818608E-02  0.1071722E+00
         11   -1    0    0    0    0  0.00000000000E+00  0.00000000000E+00  0.10002197060E+04  0.10002197060E+04  0.51100000000E-03 0.  1.
          2   -1    0    0  501    0 -0.00000000000E+00 -0.00000000000E+00 -0.22411255259E+03  0.22411255260E+03  0.25500000000E-02 0.  1.
         11    1    1    2    0    0  0.28662289567E+03  0.13677769871E+03  0.77645295814E+03  0.83889213812E+03  0.51100000000E-03 0.  1.
         22    1    1    2    0    0  0.10287788924E+02  0.42014039015E+01  0.51508914859E+02  0.52694010150E+02  0.00000000000E+00 0. -1.
          2    1    1    2  501    0 -0.29691068459E+03 -0.14097910261E+03 -0.51854719586E+02  0.33274611034E+03  0.25500000000E-02 0.  1.
<mgrwt>
<rscale>  0 0.32868079E+03</rscale>
<asrwt>0</asrwt>
<pdfrwt beam="1">  1       11 0.10000000E+01 0.33076426E+03</pdfrwt>
<pdfrwt beam="2">  1        2 0.34486428E-01 0.32868079E+03</pdfrwt>
<totfact> 0.18660924E+02</totfact>
</mgrwt>
</event>
<event>
 5    1  0.6729100E-004  0.1662050E+03  0.7818608E-02  0.1181864E+00
         11   -1    0    0    0    0  0.00000000000E+00  0.00000000000E+00  0.10002329686E+04  0.10002329686E+04  0.51100000000E-03 0. -1.
          2   -1    0    0  501    0 -0.00000000000E+00 -0.00000000000E+00 -0.44395367055E+03  0.44395367056E+03  0.25500000000E-02 0. -1.
         11    1    1    2    0    0  0.90086703885E+02 -0.15381855330E+03  0.91558394572E+03  0.93277528013E+03  0.51100000000E-03 0. -1.
         22    1    1    2    0    0 -0.31669090703E+01  0.12394971194E+02  0.59525427144E+02  0.60884654065E+02  0.00000000000E+00 0.  1.
          2    1    1    2  501    0 -0.86919794814E+02  0.14142358211E+03 -0.41883007482E+03  0.45052670496E+03  0.25500000000E-02 0. -1.
<mgrwt>
<rscale>  0 0.16620504E+03</rscale>
<asrwt>0</asrwt>
<pdfrwt beam="1">  1       11 0.10000000E+01 0.12793148E+02</pdfrwt>
<pdfrwt beam="2">  1        2 0.68316475E-01 0.16620504E+03</pdfrwt>
<totfact> 0.88989044E+01</totfact>
</mgrwt>
</event>
<event>
 5    1  0.6729100E-004  0.1333068E+03  0.7818608E-02  0.1222630E+00
         11   -1    0    0    0    0  0.00000000000E+00  0.00000000000E+00  0.10002802185E+04  0.10002802185E+04  0.51100000000E-03 0. -1.
         -2   -1    0    0    0  501 -0.00000000000E+00 -0.00000000000E+00 -0.32027644747E+02  0.32027644848E+02  0.25500000000E-02 0.  1.
         11    1    1    2    0    0 -0.43846187051E+02  0.13269471837E+03  0.74708979290E+03  0.76004837678E+03  0.51100000000E-03 0. -1.
         22    1    1    2    0    0 -0.11578167233E+02 -0.12941890348E+02  0.67574664928E+02  0.69770207270E+02  0.00000000000E+00 0. -1.
         -2    1    1    2    0  501  0.55424354283E+02 -0.11975282802E+03  0.15358811592E+03  0.20248927929E+03  0.25500000000E-02 0.  1.
<mgrwt>
<rscale>  0 0.13330683E+03</rscale>
<asrwt>0</asrwt>
<pdfrwt beam="1">  1       11 0.10000000E+01 0.17365094E+02</pdfrwt>
<pdfrwt beam="2">  1       -2 0.49287106E-02 0.13330683E+03</pdfrwt>
<totfact> 0.15070872E+03</totfact>
</mgrwt>
</event>
<event>
 5    1  0.6729100E-004  0.1088703E+03  0.7818608E-02  0.1446834E+00
         11   -1    0    0    0    0  0.00000000000E+00  0.00000000000E+00  0.10002564525E+04  0.10002564525E+04  0.51100000000E-03 0.  1.
         -2   -1    0    0    0  501 -0.00000000000E+00 -0.00000000000E+00 -0.56034631968E+02  0.56034632026E+02  0.25500000000E-02 0. -1.
         11    1    1    2    0    0  0.69966224359E+02 -0.12405637020E+03  0.44727207643E+03  0.46940128450E+03  0.51100000000E-03 0.  1.
         22    1    1    2    0    0 -0.59340770535E+02  0.75480481791E+02  0.52231706438E+03  0.53106849456E+03  0.00000000000E+00 0.  1.
         -2    1    1    2    0  501 -0.10625453824E+02  0.48575888412E+02 -0.25367320242E+02  0.55821305492E+02  0.25500000000E-02 0. -1.
<mgrwt>
<rscale>  0 0.49724413E+02</rscale>
<asrwt>0</asrwt>
<pdfrwt beam="1">  1       11 0.10000000E+01 0.10887027E+03</pdfrwt>
<pdfrwt beam="2">  1       -2 0.86229232E-02 0.49724413E+02</pdfrwt>
<totfact> 0.59545705E+02</totfact>
</mgrwt>
</event>
<event>
 5    1  0.6729100E-004  0.3011783E+03  0.7818608E-02  0.1094590E+00
         11   -1    0    0    0    0  0.00000000000E+00  0.00000000000E+00  0.10000585659E+04  0.10000585659E+04  0.51100000000E-03 0. -1.
          2   -1    0    0  501    0 -0.00000000000E+00 -0.00000000000E+00 -0.10121877958E+03  0.10121877962E+03  0.25500000000E-02 0. -1.
         11    1    1    2    0    0  0.19082720049E+03 -0.99437540832E+02  0.39349383570E+03  0.44848661486E+03  0.51100000000E-03 0. -1.
         22    1    1    2    0    0  0.70437215956E+02 -0.67539313568E+01  0.28847241029E+03  0.29702415470E+03  0.00000000000E+00 0. -1.
          2    1    1    2  501    0 -0.26126441645E+03  0.10619147219E+03  0.21687354035E+03  0.35576657597E+03  0.25500000000E-02 0. -1.
<mgrwt>
<rscale>  0 0.28202079E+03</rscale>
<asrwt>0</asrwt>
<pdfrwt beam="1">  1       11 0.10000000E+01 0.30117826E+03</pdfrwt>
<pdfrwt beam="2">  1        2 0.15573031E-01 0.28202079E+03</pdfrwt>
<totfact> 0.46007937E+02</totfact>
</mgrwt>
</event>
<event>
 5    1  0.6729100E-004  0.1400119E+03  0.7818608E-02  0.1213313E+00
         11   -1    0    0    0    0  0.00000000000E+00  0.00000000000E+00  0.10001428966E+04  0.10001428966E+04  0.51100000000E-03 0. -1.
          2   -1    0    0  501    0 -0.00000000000E+00 -0.00000000000E+00 -0.14467049190E+03  0.14467049192E+03  0.25500000000E-02 0. -1.
         11    1    1    2    0    0 -0.57791024520E+02 -0.14431971092E+03  0.65078368853E+03  0.66909445576E+03  0.51100000000E-03 0. -1.
         22    1    1    2    0    0 -0.48925587532E+02  0.53553991504E+02  0.29845249414E+03  0.30714106593E+03  0.00000000000E+00 0. -1.
          2    1    1    2  501    0  0.10671661205E+03  0.90765719412E+02 -0.93763777990E+02  0.16857786681E+03  0.25500000000E-02 0. -1.
<mgrwt>
<rscale>  0 0.14001192E+03</rscale>
<asrwt>0</asrwt>
<pdfrwt beam="1">  1       11 0.10000000E+01 0.72537874E+02</pdfrwt>
<pdfrwt beam="2">  1        2 0.22260179E-01 0.14001192E+03</pdfrwt>
<totfact> 0.29816179E+02</totfact>
</mgrwt>
</event>
<event>
 5    1  0.6729100E-004  0.1590039E+03  0.7818608E-02  0.1189826E+00
         11   -1    0    0    0    0  0.00000000000E+00  0.00000000000E+00  0.10009130819E+04  0.10009130819E+04  0.51100000000E-03 0.  1.
         -2   -1    0    0    0  501 -0.00000000000E+00 -0.00000000000E+00 -0.19993049722E+04  0.19993049722E+04  0.25500000000E-02 0. -1.
         11    1    1    2    0    0 -0.14165155427E+02 -0.12482172658E+03  0.61742888188E+03  0.63007899444E+03  0.51100000000E-03 0.  1.
         22    1    1    2    0    0 -0.12944601752E+03  0.55254077432E+02  0.36070008806E+03  0.38718708405E+03  0.00000000000E+00 0.  1.
         -2    1    1    2    0  501  0.14361117295E+03  0.69567649146E+02 -0.19765208602E+04  0.19829519756E+04  0.25500000000E-02 0. -1.
<mgrwt>
<rscale>  0 0.15900387E+03</rscale>
<asrwt>0</asrwt>
<pdfrwt beam="1">  1       11 0.10000000E+01 0.12562291E+03</pdfrwt>
<pdfrwt beam="2">  1       -2 0.30786622E+00 0.15900387E+03</pdfrwt>
<totfact> 0.28363626E-01</totfact>
</mgrwt>
</event>
<event>
 5    1  0.6729100E-004  0.6858079E+02  0.7818608E-02  0.1364987E+00
         11   -1    0    0    0    0  0.00000000000E+00  0.00000000000E+00  0.10001825454E+04  0.10001825454E+04  0.51100000000E-03 0.  1.
          2   -1    0    0  501    0 -0.00000000000E+00 -0.00000000000E+00 -0.12918784187E+02  0.12918784439E+02  0.25500000000E-02 0.  1.
         11    1    1    2    0    0 -0.71094339160E+02  0.53823600135E+01  0.11181345993E+03  0.13261080153E+03  0.51100000000E-03 0.  1.
         22    1    1    2    0    0  0.17852237967E+02 -0.22710449439E+02  0.14213377073E+03  0.14503956596E+03  0.00000000000E+00 0.  1.
          2    1    1    2  501    0  0.53242101193E+02  0.17328089426E+02  0.73331653059E+03  0.73545096238E+03  0.25500000000E-02 0.  1.
<mgrwt>
<rscale>  0 0.68580793E+02</rscale>
<asrwt>0</asrwt>
<pdfrwt beam="1">  1       11 0.10000000E+01 0.28887141E+02</pdfrwt>
<pdfrwt beam="2">  1        2 0.19878680E-02 0.68580793E+02</pdfrwt>
<totfact> 0.57743157E+03</totfact>
</mgrwt>
</event>
<event>
 5    1  0.6729100E-004  0.2630473E+03  0.7818608E-02  0.1380113E+00
         11   -1    0    0    0    0  0.00000000000E+00  0.00000000000E+00  0.10000531047E+04  0.10000531047E+04  0.51100000000E-03 0. -1.
          2   -1    0    0  501    0 -0.00000000000E+00 -0.00000000000E+00 -0.24776596582E+04  0.24776596582E+04  0.25500000000E-02 0. -1.
         11    1    1    2    0    0  0.14823438519E+03 -0.17992419789E+03  0.16080443305E+03  0.28320348803E+03  0.51100000000E-03 0. -1.
         22    1    1    2    0    0 -0.13254829119E+03  0.24241978953E+03  0.75307337777E+03  0.80215703958E+03  0.00000000000E+00 0. -1.
          2    1    1    2  501    0 -0.15686094000E+02 -0.62495591632E+02 -0.23914843643E+04  0.23923522352E+04  0.25500000000E-02 0. -1.
<mgrwt>
<rscale>  0 0.64434094E+02</rscale>
<asrwt>0</asrwt>
<pdfrwt beam="1">  1       11 0.10000000E+01 0.26304733E+03</pdfrwt>
<pdfrwt beam="2">  1        2 0.38119864E+00 0.64434094E+02</pdfrwt>
<totfact> 0.62325651E+00</totfact>
</mgrwt>
</event>
<event>
 5    1  0.6729100E-004  0.1698701E+03  0.7818608E-02  0.1182634E+00
         11   -1    0    0    0    0  0.00000000000E+00  0.00000000000E+00  0.10002823574E+04  0.10002823574E+04  0.51100000000E-03 0. -1.
          2   -1    0    0  501    0 -0.00000000000E+00 -0.00000000000E+00 -0.45881005878E+02  0.45881005949E+02  0.25500000000E-02 0. -1.
         11    1    1    2    0    0  0.73357997466E+02  0.20265599375E+02  0.30775035252E+03  0.31702108729E+03  0.51100000000E-03 0. -1.
         22    1    1    2    0    0  0.74484323970E+02  0.54096252756E+02  0.49880677117E+03  0.50723023770E+03  0.00000000000E+00 0. -1.
          2    1    1    2  501    0 -0.14784232144E+03 -0.74361852131E+02  0.14784422786E+03  0.22191203838E+03  0.25500000000E-02 0. -1.
<mgrwt>
<rscale>  0 0.16549029E+03</rscale>
<asrwt>0</asrwt>
<pdfrwt beam="1">  1       11 0.10000000E+01 0.16987011E+03</pdfrwt>
<pdfrwt beam="2">  1        2 0.70606091E-02 0.16549029E+03</pdfrwt>
<totfact> 0.11906908E+03</totfact>
</mgrwt>
</event>
<event>
 5    1  0.6729100E-004  0.2342742E+03  0.7818608E-02  0.1123667E+00
         11   -1    0    0    0    0  0.00000000000E+00  0.00000000000E+00  0.10002795118E+04  0.10002795118E+04  0.51100000000E-03 0.  1.
          2   -1    0    0  501    0 -0.00000000000E+00 -0.00000000000E+00 -0.22691132511E+03  0.22691132513E+03  0.25500000000E-02 0.  1.
         11    1    1    2    0    0  0.21830078042E+03  0.70505549125E+02  0.86730244173E+03  0.89712863549E+03  0.51100000000E-03 0.  1.
         22    1    1    2    0    0  0.82161491882E+01 -0.92537728635E+01  0.52186223693E+02  0.53633379187E+02  0.00000000000E+00 0. -1.
          2    1    1    2  501    0 -0.22651692961E+03 -0.61251776262E+02 -0.14612047869E+03  0.27642882229E+03  0.25500000000E-02 0.  1.
<mgrwt>
<rscale>  0 0.23427419E+03</rscale>
<asrwt>0</asrwt>
<pdfrwt beam="1">  1       11 0.10000000E+01 0.12374870E+02</pdfrwt>
<pdfrwt beam="2">  1        2 0.34919191E-01 0.23427419E+03</pdfrwt>
<totfact> 0.18345987E+02</totfact>
</mgrwt>
</event>
<event>
 5    1  0.6729100E-004  0.1783778E+03  0.7818608E-02  0.1180147E+00
         11   -1    0    0    0    0  0.00000000000E+00  0.00000000000E+00  0.10000397675E+04  0.10000397675E+04  0.51100000000E-03 0.  1.
          2   -1    0    0  501    0 -0.00000000000E+00 -0.00000000000E+00 -0.73969232208E+02  0.73969232252E+02  0.25500000000E-02 0.  1.
         11    1    1    2    0    0  0.24176317417E+02  0.14612819828E+03  0.71073579611E+03  0.72600503892E+03  0.51100000000E-03 0.  1.
         22    1    1    2    0    0  0.26441519786E+02  0.13869718615E+02  0.17215330818E+03  0.17472345172E+03  0.00000000000E+00 0. -1.
          2    1    1    2  501    0 -0.50617837203E+02 -0.15999791690E+03  0.43181431021E+02  0.17328050914E+03  0.25500000000E-02 0.  1.
<mgrwt>
<rscale>  0 0.16781388E+03</rscale>
<asrwt>0</asrwt>
<pdfrwt beam="1">  1       11 0.10000000E+01 0.17837781E+03</pdfrwt>
<pdfrwt beam="2">  1        2 0.11380334E-01 0.16781388E+03</pdfrwt>
<totfact> 0.65682867E+02</totfact>
</mgrwt>
</event>
<event>
 5    1  0.6729100E-004  0.1421918E+03  0.7818608E-02  0.1356305E+00
         11   -1    0    0    0    0  0.00000000000E+00  0.00000000000E+00  0.10003427673E+04  0.10003427673E+04  0.51100000000E-03 0.  1.
          2   -1    0    0  501    0 -0.00000000000E+00 -0.00000000000E+00 -0.31121774931E+02  0.31121775035E+02  0.25500000000E-02 0.  1.
         11    1    1    2    0    0  0.13010260592E+03 -0.51208909624E+02  0.62042137295E+03  0.63598091206E+03  0.51100000000E-03 0.  1.
         22    1    1    2    0    0  0.19211282970E+02  0.29945347719E+02  0.67689791225E+02  0.76470288867E+02  0.00000000000E+00 0. -1.
          2    1    1    2  501    0 -0.14931388889E+03  0.21263561905E+02  0.28110982815E+03  0.31901334136E+03  0.25500000000E-02 0.  1.
<mgrwt>
<rscale>  0 0.71125992E+02</rscale>
<asrwt>0</asrwt>
<pdfrwt beam="1">  1       11 0.10000000E+01 0.14219182E+03</pdfrwt>
<pdfrwt beam="2">  1        2 0.47896064E-02 0.71125992E+02</pdfrwt>
<totfact> 0.18277062E+03</totfact>
</mgrwt>
</event>
<event>
 5    1  0.6729100E-004  0.4795878E+03  0.7818608E-02  0.1148993E+00
         11   -1    0    0    0    0  0.00000000000E+00  0.00000000000E+00  0.10003221466E+04  0.10003221466E+04  0.51100000000E-03 0. -1.
          2   -1    0    0  501    0 -0.00000000000E+00 -0.00000000000E+00 -0.79231865259E+03  0.79231865259E+03  0.25500000000E-02 0. -1.
         11    1    1    2    0    0  0.55806863062E+03  0.89270976962E+02  0.31845313319E+03  0.64870817926E+03  0.51100000000E-03 0. -1.
         22    1    1    2    0    0 -0.39052065098E+03 -0.20009962338E+03  0.40100957004E+03  0.59443663529E+03  0.00000000000E+00 0. -1.
          2    1    1    2  501    0 -0.16754797964E+03  0.11082864642E+03 -0.51145920925E+03  0.54949598460E+03  0.25500000000E-02 0. -1.
<mgrwt>
<rscale>  0 0.20088632E+03</rscale>
<asrwt>0</asrwt>
<pdfrwt beam="1">  1       11 0.10000000E+01 0.47958782E+03</pdfrwt>
<pdfrwt beam="2">  1        2 0.12193444E+00 0.20088632E+03</pdfrwt>
<totfact> 0.45336448E+01</totfact>
</mgrwt>
</event>
<event>
 5    1  0.6729100E-004  0.1024740E+03  0.7818608E-02  0.1560426E+00
         11   -1    0    0    0    0  0.00000000000E+00  0.00000000000E+00  0.10003794497E+04  0.10003794497E+04  0.51100000000E-03 0. -1.
          2   -1    0    0  501    0 -0.00000000000E+00 -0.00000000000E+00 -0.37739540010E+02  0.37739540096E+02  0.25500000000E-02 0.  1.
         11    1    1    2    0    0 -0.65702726844E+02 -0.60114662734E+02  0.38493942125E+03  0.39510628826E+03  0.51100000000E-03 0. -1.
         22    1    1    2    0    0  0.98988647204E+02  0.65402422994E+02  0.59388841003E+03  0.60562337536E+03  0.00000000000E+00 0. -1.
          2    1    1    2  501    0 -0.33285920359E+02 -0.52877602605E+01 -0.16187921567E+02  0.37389326203E+02  0.25500000000E-02 0.  1.
<mgrwt>
<rscale>  0 0.33703307E+02</rscale>
<asrwt>0</asrwt>
<pdfrwt beam="1">  1       11 0.10000000E+01 0.10247395E+03</pdfrwt>
<pdfrwt beam="2">  1        2 0.58082860E-02 0.33703307E+02</pdfrwt>
<totfact> 0.13260635E+03</totfact>
</mgrwt>
</event>
<event>
 5    1  0.6729100E-004  0.2369208E+03  0.7818608E-02  0.1665836E+00
         11   -1    0    0    0    0  0.00000000000E+00  0.00000000000E+00  0.99987904147E+03  0.99987904147E+03  0.51100000000E-03 0. -1.
          2   -1    0    0  501    0 -0.00000000000E+00 -0.00000000000E+00 -0.21987306681E+03  0.21987306682E+03  0.25500000000E-02 0.  1.
         11    1    1    2    0    0  0.55904916026E+02  0.23562100797E+03  0.80180332532E+03  0.83757458864E+03  0.51100000000E-03 0. -1.
         22    1    1    2    0    0 -0.48581320624E+02 -0.21206658783E+03  0.11299032867E+03  0.24515137519E+03  0.00000000000E+00 0. -1.
          2    1    1    2  501    0 -0.73235954028E+01 -0.23554420143E+02 -0.13478767933E+03  0.13702614446E+03  0.25500000000E-02 0.  1.
<mgrwt>
<rscale>  0 0.24666693E+02</rscale>
<asrwt>0</asrwt>
<pdfrwt beam="1">  1       11 0.10000000E+01 0.23692084E+03</pdfrwt>
<pdfrwt beam="2">  1        2 0.33822533E-01 0.24666693E+02</pdfrwt>
<totfact> 0.18114184E+02</totfact>
</mgrwt>
</event>
<event>
 5    1  0.6729100E-004  0.1869972E+03  0.7818608E-02  0.1238815E+00
         11   -1    0    0    0    0  0.00000000000E+00  0.00000000000E+00  0.10000257109E+04  0.10000257109E+04  0.51100000000E-03 0. -1.
          2   -1    0    0  501    0 -0.00000000000E+00 -0.00000000000E+00 -0.54112205594E+02  0.54112205654E+02  0.25500000000E-02 0.  1.
         11    1    1    2    0    0 -0.23523968113E+02 -0.20476322422E+03  0.50544599438E+03  0.54585438379E+03  0.51100000000E-03 0. -1.
         22    1    1    2    0    0 -0.60244189633E+02  0.53277891985E+02  0.13230948795E+03  0.15483441723E+03  0.00000000000E+00 0.  1.
          2    1    1    2  501    0  0.83768157746E+02  0.15148533224E+03  0.30815802299E+03  0.35344911554E+03  0.25500000000E-02 0.  1.
<mgrwt>
<rscale>  0 0.12263328E+03</rscale>
<asrwt>0</asrwt>
<pdfrwt beam="1">  1       11 0.10000000E+01 0.18699724E+03</pdfrwt>
<pdfrwt beam="2">  1        2 0.83251685E-02 0.12263328E+03</pdfrwt>
<totfact> 0.94836878E+02</totfact>
</mgrwt>
</event>
<event>
 5    1  0.6729100E-004  0.2192703E+03  0.7818608E-02  0.1630467E+00
         11   -1    0    0    0    0  0.00000000000E+00  0.00000000000E+00  0.10001206351E+04  0.10001206351E+04  0.51100000000E-03 0. -1.
          2   -1    0    0  501    0 -0.00000000000E+00 -0.00000000000E+00 -0.52147997045E+03  0.52147997045E+03  0.25500000000E-02 0. -1.
         11    1    1    2    0    0 -0.17533976268E+03  0.15916386192E+03 -0.15479528844E+03  0.28291120274E+03  0.51100000000E-03 0. -1.
         22    1    1    2    0    0  0.14810304026E+03 -0.16037576571E+03  0.92268544599E+03  0.94815786081E+03  0.00000000000E+00 0. -1.
          2    1    1    2  501    0  0.27236722416E+02  0.12119037907E+01 -0.28924949289E+03  0.29053154201E+03  0.25500000000E-02 0. -1.
<mgrwt>
<rscale>  0 0.27263671E+02</rscale>
<asrwt>0</asrwt>
<pdfrwt beam="1">  1       11 0.10000000E+01 0.21927026E+03</pdfrwt>
<pdfrwt beam="2">  1        2 0.80237364E-01 0.27263671E+02</pdfrwt>
<totfact> 0.76541043E+01</totfact>
</mgrwt>
</event>
<event>
 5    1  0.6729100E-004  0.2311754E+03  0.7818608E-02  0.1125815E+00
         11   -1    0    0    0    0  0.00000000000E+00  0.00000000000E+00  0.10002374026E+04  0.10002374026E+04  0.51100000000E-03 0. -1.
          2   -1    0    0  501    0 -0.00000000000E+00 -0.00000000000E+00 -0.67894937672E+02  0.67894937720E+02  0.25500000000E-02 0. -1.
         11    1    1    2    0    0 -0.14464719586E+03  0.18463519915E+03  0.60858060836E+03  0.65221417104E+03  0.51100000000E-03 0. -1.
         22    1    1    2    0    0  0.16844755275E+02  0.63640964159E+01  0.75494470151E+02  0.77612257582E+02  0.00000000000E+00 0.  1.
          2    1    1    2  501    0  0.12780244059E+03 -0.19099929556E+03  0.24826738642E+03  0.33830591170E+03  0.25500000000E-02 0. -1.
<mgrwt>
<rscale>  0 0.23117543E+03</rscale>
<asrwt>0</asrwt>
<pdfrwt beam="1">  1       11 0.10000000E+01 0.18006874E+02</pdfrwt>
<pdfrwt beam="2">  1        2 0.10447854E-01 0.23117543E+03</pdfrwt>
<totfact> 0.74095285E+02</totfact>
</mgrwt>
</event>
<event>
 5    1  0.6729100E-004  0.2160545E+03  0.7818608E-02  0.1136859E+00
         11   -1    0    0    0    0  0.00000000000E+00  0.00000000000E+00  0.10000742254E+04  0.10000742254E+04  0.51100000000E-03 0. -1.
         -2   -1    0    0    0  501 -0.00000000000E+00 -0.00000000000E+00 -0.88183428302E+02  0.88183428338E+02  0.25500000000E-02 0. -1.
         11    1    1    2    0    0 -0.18039851357E+03 -0.17923544727E+03  0.32846221702E+03  0.41539908193E+03  0.51100000000E-03 0. -1.
         22    1    1    2    0    0  0.45080523318E+01  0.93494582620E+02  0.37691816205E+03  0.38836691466E+03  0.00000000000E+00 0.  1.
         -2    1    1    2    0  501  0.17589046123E+03  0.85740864653E+02  0.20651041799E+03  0.28449165711E+03  0.25500000000E-02 0. -1.
<mgrwt>
<rscale>  0 0.21605447E+03</rscale>
<asrwt>0</asrwt>
<pdfrwt beam="1">  1       11 0.10000000E+01 0.93603202E+02</pdfrwt>
<pdfrwt beam="2">  1       -2 0.13567688E-01 0.21605447E+03</pdfrwt>
<totfact> 0.32069375E+02</totfact>
</mgrwt>
</event>
<event>
 5    1  0.6729100E-004  0.1282622E+03  0.7818608E-02  0.1234437E+00
         11   -1    0    0    0    0  0.00000000000E+00  0.00000000000E+00  0.10000791493E+04  0.10000791493E+04  0.51100000000E-03 0. -1.
          2   -1    0    0  501    0 -0.00000000000E+00 -0.00000000000E+00 -0.16091764791E+02  0.16091764993E+02  0.25500000000E-02 0. -1.
         11    1    1    2    0    0 -0.10682592172E+03  0.42140135551E+02  0.43881208364E+03  0.45358969711E+03  0.51100000000E-03 0. -1.
         22    1    1    2    0    0 -0.12378137163E+02 -0.31921969668E+01  0.68702866846E+02  0.69881988480E+02  0.00000000000E+00 0.  1.
          2    1    1    2  501    0  0.11920405888E+03 -0.38947938584E+02  0.47647243398E+03  0.49269922866E+03  0.25500000000E-02 0. -1.
<mgrwt>
<rscale>  0 0.12540554E+03</rscale>
<asrwt>0</asrwt>
<pdfrwt beam="1">  1       11 0.10000000E+01 0.12826216E+03</pdfrwt>
<pdfrwt beam="2">  1        2 0.24758520E-02 0.12540554E+03</pdfrwt>
<totfact> 0.46344932E+03</totfact>
</mgrwt>
</event>
<event>
 5    1  0.6729100E-004  0.3238271E+03  0.7818608E-02  0.1073901E+00
         11   -1    0    0    0    0  0.00000000000E+00  0.00000000000E+00  0.10005451762E+04  0.10005451762E+04  0.51100000000E-03 0. -1.
          2   -1    0    0  501    0 -0.00000000000E+00 -0.00000000000E+00 -0.13417961280E+03  0.13417961282E+03  0.25500000000E-02 0. -1.
         11    1    1    2    0    0 -0.13723591653E+03  0.27156654471E+03  0.49263024278E+03  0.57902214215E+03  0.51100000000E-03 0. -1.
         22    1    1    2    0    0  0.31458889654E+01  0.36073105556E+02  0.14529233835E+03  0.14973653243E+03  0.00000000000E+00 0. -1.
          2    1    1    2  501    0  0.13409002757E+03 -0.30763965027E+03  0.22844298223E+03  0.40596611440E+03  0.25500000000E-02 0. -1.
<mgrwt>
<rscale>  0 0.32382705E+03</rscale>
<asrwt>0</asrwt>
<pdfrwt beam="1">  1       11 0.10000000E+01 0.36210020E+02</pdfrwt>
<pdfrwt beam="2">  1        2 0.20654271E-01 0.32382705E+03</pdfrwt>
<totfact> 0.33186792E+02</totfact>
</mgrwt>
</event>
<event>
 5    1  0.6729100E-004  0.4500258E+02  0.7818608E-02  0.1523007E+00
         11   -1    0    0    0    0  0.00000000000E+00  0.00000000000E+00  0.10000740605E+04  0.10000740605E+04  0.51100000000E-03 0. -1.
          2   -1    0    0  501    0 -0.00000000000E+00 -0.00000000000E+00 -0.49160007656E+01  0.49160014269E+01  0.25500000000E-02 0. -1.
         11    1    1    2    0    0 -0.45594562844E+02 -0.25381135532E+02  0.25513655732E+03  0.26041837317E+03  0.51100000000E-03 0. -1.
         22    1    1    2    0    0  0.27789222054E+02 -0.16237657115E+02  0.19153862796E+03  0.19422396446E+03  0.00000000000E+00 0. -1.
          2    1    1    2  501    0  0.17805340790E+02  0.41618792647E+02  0.54848287449E+03  0.55034772433E+03  0.25500000000E-02 0. -1.
<mgrwt>
<rscale>  0 0.38058207E+02</rscale>
<asrwt>0</asrwt>
<pdfrwt beam="1">  1       11 0.10000000E+01 0.45002584E+02</pdfrwt>
<pdfrwt beam="2">  1        2 0.75636385E-03 0.38058207E+02</pdfrwt>
<totfact> 0.18990201E+04</totfact>
</mgrwt>
</event>
<event>
 5    1  0.6729100E-004  0.8057443E+02  0.7818608E-02  0.1610064E+00
         11   -1    0    0    0    0  0.00000000000E+00  0.00000000000E+00  0.10000802488E+04  0.10000802488E+04  0.51100000000E-03 0. -1.
         -2   -1    0    0    0  501 -0.00000000000E+00 -0.00000000000E+00 -0.77254454371E+01  0.77254458579E+01  0.25500000000E-02 0.  1.
         11    1    1    2    0    0  0.80947978035E+02 -0.97360974519E+01  0.45736996884E+03  0.46458008474E+03  0.51100000000E-03 0. -1.
         22    1    1    2    0    0 -0.90175944232E+00  0.10358068980E+02  0.26294789933E+02  0.28275762425E+02  0.00000000000E+00 0. -1.
         -2    1    1    2    0  501 -0.80046218593E+02 -0.62197152795E+00  0.50869004454E+03  0.51494984745E+03  0.25500000000E-02 0.  1.
<mgrwt>
<rscale>  0 0.28943945E+02</rscale>
<asrwt>0</asrwt>
<pdfrwt beam="1">  1       11 0.10000000E+01 0.80574433E+02</pdfrwt>
<pdfrwt beam="2">  1       -2 0.11886254E-02 0.28943945E+02</pdfrwt>
<totfact> 0.92682229E+03</totfact>
</mgrwt>
</event>
<event>
 5    1  0.6729100E-004  0.5288921E+02  0.7818608E-02  0.1528794E+00
         11   -1    0    0    0    0  0.00000000000E+00  0.00000000000E+00  0.10002411605E+04  0.10002411605E+04  0.51100000000E-03 0.  1.
          2   -1    0    0  501    0 -0.00000000000E+00 -0.00000000000E+00 -0.69556116120E+01  0.69556120794E+01  0.25500000000E-02 0.  1.
         11    1    1    2    0    0 -0.49728502290E+02  0.44135456614E+02  0.35315867022E+03  0.35936319904E+03  0.51100000000E-03 0.  1.
         22    1    1    2    0    0  0.42344424467E+02 -0.75382126039E+01  0.14354168184E+03  0.14984688638E+03  0.00000000000E+00 0.  1.
          2    1    1    2  501    0  0.73840778226E+01 -0.36597244010E+02  0.49658519678E+03  0.49798668711E+03  0.25500000000E-02 0.  1.
<mgrwt>
<rscale>  0 0.37334741E+02</rscale>
<asrwt>0</asrwt>
<pdfrwt beam="1">  1       11 0.10000000E+01 0.52889212E+02</pdfrwt>
<pdfrwt beam="2">  1        2 0.10703522E-02 0.37334741E+02</pdfrwt>
<totfact> 0.11916521E+04</totfact>
</mgrwt>
</event>
<event>
 5    1  0.6729100E-004  0.3233612E+03  0.7818608E-02  0.1076079E+00
         11   -1    0    0    0    0  0.00000000000E+00  0.00000000000E+00  0.10001021109E+04  0.10001021109E+04  0.51100000000E-03 0. -1.
          2   -1    0    0  501    0 -0.00000000000E+00 -0.00000000000E+00 -0.12659922024E+03  0.12659922027E+03  0.25500000000E-02 0. -1.
         11    1    1    2    0    0 -0.48351654222E+02  0.30271226307E+03  0.62097372333E+03  0.69251784218E+03  0.51100000000E-03 0. -1.
         22    1    1    2    0    0 -0.20553809532E+01  0.12349387242E+02  0.60509144415E+02  0.61790683068E+02  0.00000000000E+00 0. -1.
          2    1    1    2  501    0  0.50407035175E+02 -0.31506165031E+03  0.19202002290E+03  0.37239280591E+03  0.25500000000E-02 0. -1.
<mgrwt>
<rscale>  0 0.31906851E+03</rscale>
<asrwt>0</asrwt>
<pdfrwt beam="1">  1       11 0.10000000E+01 0.32336118E+03</pdfrwt>
<pdfrwt beam="2">  1        2 0.19478791E-01 0.31906851E+03</pdfrwt>
<totfact> 0.35500858E+02</totfact>
</mgrwt>
</event>
<event>
 5    1  0.6729100E-004  0.7103832E+02  0.7818608E-02  0.1356597E+00
         11   -1    0    0    0    0  0.00000000000E+00  0.00000000000E+00  0.10001427278E+04  0.10001427278E+04  0.51100000000E-03 0.  1.
          2   -1    0    0  501    0 -0.00000000000E+00 -0.00000000000E+00 -0.41138593895E+03  0.41138593896E+03  0.25500000000E-02 0.  1.
         11    1    1    2    0    0 -0.54225286288E+02  0.16849351223E+02  0.25111888197E+03  0.25745868638E+03  0.51100000000E-03 0.  1.
         22    1    1    2    0    0  0.12288394534E+03 -0.34137420685E+02  0.73726728853E+03  0.74821713576E+03  0.00000000000E+00 0.  1.
          2    1    1    2  501    0 -0.68658659050E+02  0.17288069463E+02 -0.39962938164E+03  0.40585284462E+03  0.25500000000E-02 0.  1.
<mgrwt>
<rscale>  0 0.71038323E+02</rscale>
<asrwt>0</asrwt>
<pdfrwt beam="1">  1       11 0.10000000E+01 0.56782764E+02</pdfrwt>
<pdfrwt beam="2">  1        2 0.63299176E-01 0.71038323E+02</pdfrwt>
<totfact> 0.97154804E+01</totfact>
</mgrwt>
</event>
<event>
 5    1  0.6729100E-004  0.2536921E+03  0.7818608E-02  0.1457865E+00
         11   -1    0    0    0    0  0.00000000000E+00  0.00000000000E+00  0.10001264001E+04  0.10001264001E+04  0.51100000000E-03 0.  1.
          2   -1    0    0  501    0 -0.00000000000E+00 -0.00000000000E+00 -0.18632069962E+03  0.18632069964E+03  0.25500000000E-02 0.  1.
         11    1    1    2    0    0  0.21479824587E+03 -0.14173059839E+03  0.31912861137E+03  0.40996209526E+03  0.51100000000E-03 0.  1.
         22    1    1    2    0    0 -0.18182824077E+03  0.17627210283E+03  0.60522111626E+03  0.65606856574E+03  0.00000000000E+00 0.  1.
          2    1    1    2  501    0 -0.32970005098E+02 -0.34541504434E+02 -0.11054402718E+03  0.12041643873E+03  0.25500000000E-02 0.  1.
<mgrwt>
<rscale>  0 0.47750778E+02</rscale>
<asrwt>0</asrwt>
<pdfrwt beam="1">  1       11 0.10000000E+01 0.25369213E+03</pdfrwt>
<pdfrwt beam="2">  1        2 0.28668345E-01 0.47750778E+02</pdfrwt>
<totfact> 0.21939024E+02</totfact>
</mgrwt>
</event>
<event>
 5    1  0.6729100E-004  0.4622608E+03  0.7818608E-02  0.1024128E+00
         11   -1    0    0    0    0  0.00000000000E+00  0.00000000000E+00  0.10000401120E+04  0.10000401120E+04  0.51100000000E-03 0. -1.
          2   -1    0    0  501    0 -0.00000000000E+00 -0.00000000000E+00 -0.45835171800E+03  0.45835171801E+03  0.25500000000E-02 0. -1.
         11    1    1    2    0    0 -0.76688381036E+02  0.45749244587E+03 -0.21320335679E+03  0.51052533450E+03  0.51100000000E-03 0. -1.
         22    1    1    2    0    0 -0.69354240679E+02 -0.20787702740E+02  0.26844795623E+03  0.27804036485E+03  0.00000000000E+00 0. -1.
          2    1    1    2  501    0  0.14604262171E+03 -0.43670474313E+03  0.48644379457E+03  0.66982613066E+03  0.25500000000E-02 0. -1.
<mgrwt>
<rscale>  0 0.46226081E+03</rscale>
<asrwt>0</asrwt>
<pdfrwt beam="1">  1       11 0.10000000E+01 0.72402619E+02</pdfrwt>
<pdfrwt beam="2">  1        2 0.70518475E-01 0.46226081E+03</pdfrwt>
<totfact> 0.84840876E+01</totfact>
</mgrwt>
</event>
<event>
 5    1  0.6729100E-004  0.1606729E+03  0.7818608E-02  0.1187939E+00
         11   -1    0    0    0    0  0.00000000000E+00  0.00000000000E+00  0.10002420045E+04  0.10002420045E+04  0.51100000000E-03 0. -1.
         -2   -1    0    0    0  501 -0.00000000000E+00 -0.00000000000E+00 -0.37250035665E+02  0.37250035753E+02  0.25500000000E-02 0.  1.
         11    1    1    2    0    0 -0.13161540475E+03 -0.64119947729E+02  0.78151021996E+03  0.79510515428E+03  0.51100000000E-03 0. -1.
         22    1    1    2    0    0  0.53455544805E+02  0.53963174784E+02  0.12171650843E+03  0.14347274280E+03  0.00000000000E+00 0.  1.
         -2    1    1    2    0  501  0.78159859944E+02  0.10156772945E+02  0.59765240400E+02  0.98914143123E+02  0.25500000000E-02 0.  1.
<mgrwt>
<rscale>  0 0.16067289E+03</rscale>
<asrwt>0</asrwt>
<pdfrwt beam="1">  1       11 0.10000000E+01 0.14640349E+03</pdfrwt>
<pdfrwt beam="2">  1       -2 0.57321614E-02 0.16067289E+03</pdfrwt>
<totfact> 0.12187925E+03</totfact>
</mgrwt>
</event>
<event>
 5    1  0.6729100E-004  0.1471077E+03  0.7818608E-02  0.1297506E+00
         11   -1    0    0    0    0  0.00000000000E+00  0.00000000000E+00  0.10003573019E+04  0.10003573019E+04  0.51100000000E-03 0.  1.
          2   -1    0    0  501    0 -0.00000000000E+00 -0.00000000000E+00 -0.10413042339E+03  0.10413042343E+03  0.25500000000E-02 0. -1.
         11    1    1    2    0    0 -0.14683826560E+03  0.32306939660E+02  0.90088644928E+03  0.91334637958E+03  0.51100000000E-03 0.  1.
         22    1    1    2    0    0  0.53100262188E+02  0.22935904937E+02  0.43281496259E+02  0.72242518631E+02  0.00000000000E+00 0. -1.
          2    1    1    2  501    0  0.93738003407E+02 -0.55242844597E+02 -0.47941067071E+02  0.11889882708E+03  0.25500000000E-02 0. -1.
<mgrwt>
<rscale>  0 0.92244238E+02</rscale>
<asrwt>0</asrwt>
<pdfrwt beam="1">  1       11 0.10000000E+01 0.14710770E+03</pdfrwt>
<pdfrwt beam="2">  1        2 0.16025789E-01 0.92244238E+02</pdfrwt>
<totfact> 0.42601027E+02</totfact>
</mgrwt>
</event>
<event>
 5    1  0.6729100E-004  0.9122130E+02  0.7818608E-02  0.1678624E+00
         11   -1    0    0    0    0  0.00000000000E+00  0.00000000000E+00  0.10003775551E+04  0.10003775551E+04  0.51100000000E-03 0. -1.
         -2   -1    0    0    0  501 -0.00000000000E+00 -0.00000000000E+00 -0.82787211049E+02  0.82787211089E+02  0.25500000000E-02 0.  1.
         11    1    1    2    0    0 -0.15040598740E+01  0.10324842141E+03  0.50363981338E+03  0.51411629068E+03  0.51100000000E-03 0. -1.
         22    1    1    2    0    0  0.13037935391E+02 -0.82412319761E+02  0.48602827048E+03  0.49313817325E+03  0.00000000000E+00 0. -1.
         -2    1    1    2    0  501 -0.11533875517E+02 -0.20836101646E+02 -0.72077739779E+02  0.75910302294E+02  0.25500000000E-02 0.  1.
<mgrwt>
<rscale>  0 0.23815403E+02</rscale>
<asrwt>0</asrwt>
<pdfrwt beam="1">  1       11 0.10000000E+01 0.91221299E+02</pdfrwt>
<pdfrwt beam="2">  1       -2 0.12741302E-01 0.23815403E+02</pdfrwt>
<totfact> 0.30815057E+02</totfact>
</mgrwt>
</event>
<event>
 5    1  0.6729100E-004  0.4711036E+03  0.7818608E-02  0.1021609E+00
         11   -1    0    0    0    0  0.00000000000E+00  0.00000000000E+00  0.10001230293E+04  0.10001230293E+04  0.51100000000E-03 0. -1.
          2   -1    0    0  501    0 -0.00000000000E+00 -0.00000000000E+00 -0.41516167116E+03  0.41516167116E+03  0.25500000000E-02 0. -1.
         11    1    1    2    0    0  0.44818056759E+03  0.19243465733E+03  0.66719390783E+03  0.82646514092E+03  0.51100000000E-03 0. -1.
         22    1    1    2    0    0 -0.22909093689E+02  0.16859406238E+01  0.88274242891E+02  0.91214093908E+02  0.00000000000E+00 0.  1.
          2    1    1    2  501    0 -0.42527147391E+03 -0.19412059796E+03 -0.17050679261E+03  0.49760546560E+03  0.25500000000E-02 0. -1.
<mgrwt>
<rscale>  0 0.47110358E+03</rscale>
<asrwt>0</asrwt>
<pdfrwt beam="1">  1       11 0.10000000E+01 0.22971046E+02</pdfrwt>
<pdfrwt beam="2">  1        2 0.63878883E-01 0.47110358E+03</pdfrwt>
<totfact> 0.94778979E+01</totfact>
</mgrwt>
</event>
<event>
 5    1  0.9773534E-004  0.9551825E+02  0.7818608E-02  0.1473378E+00
         11   -1    0    0    0    0  0.00000000000E+00  0.00000000000E+00  0.10011734089E+04  0.10011734089E+04  0.51100000000E-03 0.  1.
          2   -1    0    0  501    0 -0.00000000000E+00 -0.00000000000E+00 -0.28529678343E+04  0.28529678343E+04  0.25500000000E-02 0.  1.
         11    1    1    2    0    0 -0.96557006501E+02 -0.68014406911E+02  0.69452365919E+03  0.70449437772E+03  0.51100000000E-03 0.  1.
         22    1    1    2    0    0  0.54655554050E+02  0.51185381870E+02  0.29683548932E+03  0.30613474260E+03  0.00000000000E+00 0.  1.
          2    1    1    2  501    0  0.41901452451E+02  0.16829025041E+02 -0.28431535739E+04  0.28435121229E+04  0.25500000000E-02 0.  1.
<mgrwt>
<rscale>  0 0.45154710E+02</rscale>
<asrwt>0</asrwt>
<pdfrwt beam="1">  1       11 0.10000000E+01 0.95518250E+02</pdfrwt>
<pdfrwt beam="2">  1        2 0.43943315E+00 0.45154710E+02</pdfrwt>
<totfact> 0.41686546E+00</totfact>
</mgrwt>
</event>
<event>
 5    1  0.6729100E-004  0.1612405E+03  0.7818608E-02  0.1187303E+00
         11   -1    0    0    0    0  0.00000000000E+00  0.00000000000E+00  0.10000686638E+04  0.10000686638E+04  0.51100000000E-03 0.  1.
          2   -1    0    0  501    0 -0.00000000000E+00 -0.00000000000E+00 -0.39148752318E+02  0.39148752401E+02  0.25500000000E-02 0.  1.
         11    1    1    2    0    0 -0.14342535210E+03 -0.58103783445E+02  0.65591539902E+03  0.67392276409E+03  0.51100000000E-03 0.  1.
         22    1    1    2    0    0  0.27894356995E+01 -0.26381092750E+02  0.95954543098E+02  0.99554092570E+02  0.00000000000E+00 0. -1.
          2    1    1    2  501    0  0.14063591640E+03  0.84484876195E+02  0.20904996931E+03  0.26574055950E+03  0.25500000000E-02 0.  1.
<mgrwt>
<rscale>  0 0.16124054E+03</rscale>
<asrwt>0</asrwt>
<pdfrwt beam="1">  1       11 0.10000000E+01 0.26528155E+02</pdfrwt>
<pdfrwt beam="2">  1        2 0.60232984E-02 0.16124054E+03</pdfrwt>
<totfact> 0.14579353E+03</totfact>
</mgrwt>
</event>
<event>
 5    1  0.6729100E-004  0.7965768E+02  0.7818608E-02  0.1580216E+00
         11   -1    0    0    0    0  0.00000000000E+00  0.00000000000E+00  0.10002667815E+04  0.10002667815E+04  0.51100000000E-03 0. -1.
          2   -1    0    0  501    0 -0.00000000000E+00 -0.00000000000E+00 -0.38075148250E+02  0.38075148336E+02  0.25500000000E-02 0. -1.
         11    1    1    2    0    0  0.12809641117E+02  0.96273016079E+02  0.58030795854E+03  0.58837905067E+03  0.51100000000E-03 0. -1.
         22    1    1    2    0    0  0.11245424948E+01 -0.67820645719E+02  0.40506590487E+03  0.41070584592E+03  0.00000000000E+00 0. -1.
          2    1    1    2  501    0 -0.13934183612E+02 -0.28452370361E+02 -0.23182230202E+02  0.39257033200E+02  0.25500000000E-02 0. -1.
<mgrwt>
<rscale>  0 0.31681207E+02</rscale>
<asrwt>0</asrwt>
<pdfrwt beam="1">  1       11 0.10000000E+01 0.79657682E+02</pdfrwt>
<pdfrwt beam="2">  1        2 0.58592777E-02 0.31681207E+02</pdfrwt>
<totfact> 0.13027905E+03</totfact>
</mgrwt>
</event>
<event>
 5    1  0.6729100E-004  0.1499317E+03  0.7818608E-02  0.1200557E+00
         11   -1    0    0    0    0  0.00000000000E+00  0.00000000000E+00  0.10000666080E+04  0.10000666080E+04  0.51100000000E-03 0. -1.
          2   -1    0    0  501    0 -0.00000000000E+00 -0.00000000000E+00 -0.11065702899E+03  0.11065702902E+03  0.25500000000E-02 0. -1.
         11    1    1    2    0    0 -0.19810679774E+02 -0.14618988369E+03 -0.34665922230E+02  0.15154428822E+03  0.51100000000E-03 0. -1.
         22    1    1    2    0    0  0.37545214511E+02 -0.41454823352E+02  0.10802473116E+03  0.12164492614E+03  0.00000000000E+00 0. -1.
          2    1    1    2  501    0 -0.17734534737E+02  0.18764470704E+03  0.81605077004E+03  0.83753442263E+03  0.25500000000E-02 0. -1.
<mgrwt>
<rscale>  0 0.14993172E+03</rscale>
<asrwt>0</asrwt>
<pdfrwt beam="1">  1       11 0.10000000E+01 0.55929827E+02</pdfrwt>
<pdfrwt beam="2">  1        2 0.17025292E-01 0.14993172E+03</pdfrwt>
<totfact> 0.40530272E+02</totfact>
</mgrwt>
</event>
<event>
 5    1  0.6729100E-004  0.4406101E+02  0.7818608E-02  0.1503108E+00
         11   -1    0    0    0    0  0.00000000000E+00  0.00000000000E+00  0.10001695299E+04  0.10001695299E+04  0.51100000000E-03 0.  1.
          2   -1    0    0  501    0 -0.00000000000E+00 -0.00000000000E+00 -0.92355316871E+01  0.92355320391E+01  0.25500000000E-02 0.  1.
         11    1    1    2    0    0 -0.72487817075E+01 -0.57922165359E+02  0.12059673927E+03  0.13398169874E+03  0.51100000000E-03 0.  1.
         22    1    1    2    0    0 -0.26202914189E+02  0.34735165845E+02  0.25045501380E+03  0.25420629103E+03  0.00000000000E+00 0. -1.
          2    1    1    2  501    0  0.33451695897E+02  0.23186999515E+02  0.61988224518E+03  0.62121707221E+03  0.25500000000E-02 0.  1.
<mgrwt>
<rscale>  0 0.40702001E+02</rscale>
<asrwt>0</asrwt>
<pdfrwt beam="1">  1       11 0.10000000E+01 0.44061006E+02</pdfrwt>
<pdfrwt beam="2">  1        2 0.14210919E-02 0.40702001E+02</pdfrwt>
<totfact> 0.83162237E+03</totfact>
</mgrwt>
</event>
<event>
 5    1  0.6729100E-004  0.1144592E+03  0.7818608E-02  0.1717337E+00
         11   -1    0    0    0    0  0.00000000000E+00  0.00000000000E+00  0.10000550774E+04  0.10000550774E+04  0.51100000000E-03 0.  1.
          2   -1    0    0  501    0 -0.00000000000E+00 -0.00000000000E+00 -0.16076465259E+02  0.16076465461E+02  0.25500000000E-02 0.  1.
         11    1    1    2    0    0  0.10096573618E+03  0.37032300055E+02  0.33530291326E+03  0.35212712870E+03  0.51100000000E-03 0.  1.
         22    1    1    2    0    0 -0.11791273409E+03 -0.23828197636E+02  0.55769226160E+03  0.57051893440E+03  0.00000000000E+00 0.  1.
          2    1    1    2  501    0  0.16946997904E+02 -0.13204102419E+02  0.90983437292E+02  0.93485479764E+02  0.25500000000E-02 0.  1.
<mgrwt>
<rscale>  0 0.21483693E+02</rscale>
<asrwt>0</asrwt>
<pdfrwt beam="1">  1       11 0.10000000E+01 0.11445925E+03</pdfrwt>
<pdfrwt beam="2">  1        2 0.24734385E-02 0.21483693E+02</pdfrwt>
<totfact> 0.36210831E+03</totfact>
</mgrwt>
</event>
<event>
 5    1  0.6729100E-004  0.9796717E+02  0.7818608E-02  0.1453407E+00
         11   -1    0    0    0    0  0.00000000000E+00  0.00000000000E+00  0.10001961044E+04  0.10001961044E+04  0.51100000000E-03 0.  1.
         -2   -1    0    0    0  501 -0.00000000000E+00 -0.00000000000E+00 -0.61035263712E+02  0.61035263766E+02  0.25500000000E-02 0. -1.
         11    1    1    2    0    0 -0.31472818351E+02 -0.92274118532E+02  0.56058194584E+03  0.56899663378E+03  0.51100000000E-03 0.  1.
         22    1    1    2    0    0 -0.15470393782E+02  0.10460236063E+03  0.41708508840E+03  0.43028009238E+03  0.00000000000E+00 0.  1.
         -2    1    1    2    0  501  0.46943212133E+02 -0.12328242094E+02 -0.38506193551E+02  0.61954642012E+02  0.25500000000E-02 0. -1.
<mgrwt>
<rscale>  0 0.48535046E+02</rscale>
<asrwt>0</asrwt>
<pdfrwt beam="1">  1       11 0.10000000E+01 0.97967168E+02</pdfrwt>
<pdfrwt beam="2">  1       -2 0.93918817E-02 0.48535046E+02</pdfrwt>
<totfact> 0.52206595E+02</totfact>
</mgrwt>
</event>
<event>
 5    1  0.6729100E-004  0.2034028E+03  0.7818608E-02  0.1146899E+00
         11   -1    0    0    0    0  0.00000000000E+00  0.00000000000E+00  0.10001817613E+04  0.10001817613E+04  0.51100000000E-03 0. -1.
          2   -1    0    0  501    0 -0.00000000000E+00 -0.00000000000E+00 -0.66667269854E+02  0.66667269902E+02  0.25500000000E-02 0.  1.
         11    1    1    2    0    0 -0.19227427747E+03  0.19004150857E+02  0.65373338264E+03  0.68168753187E+03  0.51100000000E-03 0. -1.
         22    1    1    2    0    0 -0.10787814223E+02  0.19872314036E+02  0.12464604978E+03  0.12668039914E+03  0.00000000000E+00 0.  1.
          2    1    1    2  501    0  0.20306209170E+03 -0.38876464893E+02  0.15513505901E+03  0.25848110017E+03  0.25500000000E-02 0.  1.
<mgrwt>
<rscale>  0 0.20340284E+03</rscale>
<asrwt>0</asrwt>
<pdfrwt beam="1">  1       11 0.10000000E+01 0.22611630E+02</pdfrwt>
<pdfrwt beam="2">  1        2 0.10258367E-01 0.20340284E+03</pdfrwt>
<totfact> 0.75318503E+02</totfact>
</mgrwt>
</event>
<event>
 5    1  0.6729100E-004  0.1457752E+03  0.7818608E-02  0.1205763E+00
         11   -1    0    0    0    0  0.00000000000E+00  0.00000000000E+00  0.10000813312E+04  0.10000813312E+04  0.51100000000E-03 0. -1.
          2   -1    0    0  501    0 -0.00000000000E+00 -0.00000000000E+00 -0.51314077249E+03  0.51314077250E+03  0.25500000000E-02 0. -1.
         11    1    1    2    0    0  0.81966637656E+02 -0.10903754291E+03  0.79297659628E+03  0.80462388586E+03  0.51100000000E-03 0. -1.
         22    1    1    2    0    0  0.29462433897E+02  0.14788336395E+02  0.18933122243E+03  0.19217971197E+03  0.00000000000E+00 0. -1.
          2    1    1    2  501    0 -0.11142907155E+03  0.94249206515E+02 -0.49536726000E+03  0.51641850587E+03  0.25500000000E-02 0. -1.
<mgrwt>
<rscale>  0 0.14577515E+03</rscale>
<asrwt>0</asrwt>
<pdfrwt beam="1">  1       11 0.10000000E+01 0.32965587E+02</pdfrwt>
<pdfrwt beam="2">  1        2 0.78951153E-01 0.14577515E+03</pdfrwt>
<totfact> 0.76069357E+01</totfact>
</mgrwt>
</event>
<event>
 5    1  0.6729100E-004  0.3858696E+03  0.7818608E-02  0.1054719E+00
         11   -1    0    0    0    0  0.00000000000E+00  0.00000000000E+00  0.10000917325E+04  0.10000917325E+04  0.51100000000E-03 0. -1.
          2   -1    0    0  501    0 -0.00000000000E+00 -0.00000000000E+00 -0.36572933908E+03  0.36572933909E+03  0.25500000000E-02 0. -1.
         11    1    1    2    0    0  0.94309378119E+02 -0.13976387057E+03  0.33430779181E+03  0.37441941454E+03  0.51100000000E-03 0. -1.
         22    1    1    2    0    0  0.82776402983E+01 -0.21565867736E+03  0.51861601349E+03  0.56172925320E+03  0.00000000000E+00 0. -1.
          2    1    1    2  501    0 -0.10258701842E+03  0.35542254793E+03 -0.21856141184E+03  0.42967240390E+03  0.25500000000E-02 0. -1.
<mgrwt>
<rscale>  0 0.36993146E+03</rscale>
<asrwt>0</asrwt>
<pdfrwt beam="1">  1       11 0.10000000E+01 0.38586955E+03</pdfrwt>
<pdfrwt beam="2">  1        2 0.56271212E-01 0.36993146E+03</pdfrwt>
<totfact> 0.10927211E+02</totfact>
</mgrwt>
</event>
<event>
 5    1  0.6729100E-004  0.3066633E+03  0.7818608E-02  0.1284096E+00
         11   -1    0    0    0    0  0.00000000000E+00  0.00000000000E+00  0.10002231949E+04  0.10002231949E+04  0.51100000000E-03 0. -1.
          2   -1    0    0  501    0 -0.00000000000E+00 -0.00000000000E+00 -0.33582060742E+03  0.33582060743E+03  0.25500000000E-02 0. -1.
         11    1    1    2    0    0 -0.37355030331E+03 -0.12287477543E+02  0.20661196244E+02  0.37432298385E+03  0.51100000000E-03 0. -1.
         22    1    1    2    0    0  0.28990959714E+03  0.63769008728E+02  0.75622234098E+03  0.81239540249E+03  0.00000000000E+00 0. -1.
          2    1    1    2  501    0  0.83640706177E+02 -0.51481531185E+02 -0.11248094978E+03  0.14932541596E+03  0.25500000000E-02 0. -1.
<mgrwt>
<rscale>  0 0.98214641E+02</rscale>
<asrwt>0</asrwt>
<pdfrwt beam="1">  1       11 0.10000000E+01 0.30666333E+03</pdfrwt>
<pdfrwt beam="2">  1        2 0.51676239E-01 0.98214641E+02</pdfrwt>
<totfact> 0.12008724E+02</totfact>
</mgrwt>
</event>
<event>
 5    1  0.6729100E-004  0.9279440E+02  0.7818608E-02  0.1372125E+00
         11   -1    0    0    0    0  0.00000000000E+00  0.00000000000E+00  0.10004486759E+04  0.10004486759E+04  0.51100000000E-03 0.  1.
         -2   -1    0    0    0  501 -0.00000000000E+00 -0.00000000000E+00 -0.30981636415E+03  0.30981636416E+03  0.25500000000E-02 0. -1.
         11    1    1    2    0    0  0.44439109208E+02  0.64056017537E+02  0.47161116442E+03  0.47801160887E+03  0.51100000000E-03 0.  1.
         22    1    1    2    0    0 -0.10630336960E+03 -0.88666781716E+02  0.51273253853E+03  0.53109025658E+03  0.00000000000E+00 0. -1.
         -2    1    1    2    0  501  0.61864260396E+02  0.24610764180E+02 -0.29371139119E+03  0.30116317462E+03  0.25500000000E-02 0. -1.
<mgrwt>
<rscale>  0 0.66579850E+02</rscale>
<asrwt>0</asrwt>
<pdfrwt beam="1">  1       11 0.10000000E+01 0.92794400E+02</pdfrwt>
<pdfrwt beam="2">  1       -2 0.47685440E-01 0.66579850E+02</pdfrwt>
<totfact> 0.34141345E+01</totfact>
</mgrwt>
</event>
<event>
 5    1  0.6729100E-004  0.1429393E+03  0.7818608E-02  0.1209428E+00
         11   -1    0    0    0    0  0.00000000000E+00  0.00000000000E+00  0.10001692778E+04  0.10001692778E+04  0.51100000000E-03 0.  1.
          2   -1    0    0  501    0 -0.00000000000E+00 -0.00000000000E+00 -0.53566674051E+02  0.53566674112E+02  0.25500000000E-02 0.  1.
         11    1    1    2    0    0 -0.35771547123E+02  0.14453158212E+03  0.77244618927E+03  0.78666517473E+03  0.51100000000E-03 0.  1.
         22    1    1    2    0    0 -0.25408349104E+02 -0.15890066996E+02  0.10409907490E+03  0.10832680106E+03  0.00000000000E+00 0.  1.
          2    1    1    2  501    0  0.61179896227E+02 -0.12864151513E+03  0.70057339565E+02  0.15874397611E+03  0.25500000000E-02 0.  1.
<mgrwt>
<rscale>  0 0.14293931E+03</rscale>
<asrwt>0</asrwt>
<pdfrwt beam="1">  1       11 0.10000000E+01 0.29967957E+02</pdfrwt>
<pdfrwt beam="2">  1        2 0.82424216E-02 0.14293931E+03</pdfrwt>
<totfact> 0.96972305E+02</totfact>
</mgrwt>
</event>
<event>
 5    1  0.6729100E-004  0.1858429E+03  0.7818608E-02  0.1524523E+00
         11   -1    0    0    0    0  0.00000000000E+00  0.00000000000E+00  0.10000631667E+04  0.10000631667E+04  0.51100000000E-03 0.  1.
         -2   -1    0    0    0  501 -0.00000000000E+00 -0.00000000000E+00 -0.15568265655E+03  0.15568265657E+03  0.25500000000E-02 0. -1.
         11    1    1    2    0    0  0.16300986446E+03  0.94644475508E+02  0.55937648466E+03  0.59028115694E+03  0.51100000000E-03 0.  1.
         22    1    1    2    0    0 -0.17495075128E+03 -0.58709677762E+02  0.40208611362E+03  0.44241138593E+03  0.00000000000E+00 0. -1.
         -2    1    1    2    0  501  0.11940886813E+02 -0.35934797746E+02 -0.11708208809E+03  0.12305328044E+03  0.25500000000E-02 0. -1.
<mgrwt>
<rscale>  0 0.37866799E+02</rscale>
<asrwt>0</asrwt>
<pdfrwt beam="1">  1       11 0.10000000E+01 0.18584288E+03</pdfrwt>
<pdfrwt beam="2">  1       -2 0.23952690E-01 0.37866799E+02</pdfrwt>
<totfact> 0.11597643E+02</totfact>
</mgrwt>
</event>
<event>
 5    1  0.6729100E-004  0.2279691E+03  0.7818608E-02  0.1128077E+00
         11   -1    0    0    0    0  0.00000000000E+00  0.00000000000E+00  0.10003204540E+04  0.10003204540E+04  0.51100000000E-03 0. -1.
          2   -1    0    0  501    0 -0.00000000000E+00 -0.00000000000E+00 -0.28502346666E+03  0.28502346668E+03  0.25500000000E-02 0. -1.
         11    1    1    2    0    0 -0.11470364497E+03  0.20484357071E+03  0.71759654329E+03  0.75502490924E+03  0.51100000000E-03 0. -1.
         22    1    1    2    0    0 -0.26379290400E+02 -0.26120052637E+02  0.21344168723E+03  0.21664597379E+03  0.00000000000E+00 0. -1.
          2    1    1    2  501    0  0.14108293537E+03 -0.17872351807E+03 -0.21574124315E+03  0.31367303768E+03  0.25500000000E-02 0. -1.
<mgrwt>
<rscale>  0 0.22796908E+03</rscale>
<asrwt>0</asrwt>
<pdfrwt beam="1">  1       11 0.10000000E+01 0.37123094E+02</pdfrwt>
<pdfrwt beam="2">  1        2 0.43863815E-01 0.22796908E+03</pdfrwt>
<totfact> 0.14331305E+02</totfact>
</mgrwt>
</event>
<event>
 5    1  0.6729100E-004  0.1380949E+03  0.7818608E-02  0.1215916E+00
         11   -1    0    0    0    0  0.00000000000E+00  0.00000000000E+00  0.10002583554E+04  0.10002583554E+04  0.51100000000E-03 0. -1.
         -2   -1    0    0    0  501 -0.00000000000E+00 -0.00000000000E+00 -0.58331796804E+02  0.58331796859E+02  0.25500000000E-02 0. -1.
         11    1    1    2    0    0  0.73203219327E+02 -0.10273426858E+03  0.57189483802E+03  0.58564216636E+03  0.51100000000E-03 0. -1.
         22    1    1    2    0    0  0.59760088353E+02  0.48494341464E+02  0.30633422249E+03  0.31585380349E+03  0.00000000000E+00 0. -1.
         -2    1    1    2    0  501 -0.13296330768E+03  0.54239927116E+02  0.63697498117E+02  0.15709418244E+03  0.25500000000E-02 0. -1.
<mgrwt>
<rscale>  0 0.13809495E+03</rscale>
<asrwt>0</asrwt>
<pdfrwt beam="1">  1       11 0.10000000E+01 0.76960830E+02</pdfrwt>
<pdfrwt beam="2">  1       -2 0.89764408E-02 0.13809495E+03</pdfrwt>
<totfact> 0.60505794E+02</totfact>
</mgrwt>
</event>
<event>
 5    1  0.6729100E-004  0.7972927E+02  0.7818608E-02  0.1329821E+00
         11   -1    0    0    0    0  0.00000000000E+00  0.00000000000E+00  0.10001311839E+04  0.10001311839E+04  0.51100000000E-03 0. -1.
          2   -1    0    0  501    0 -0.00000000000E+00 -0.00000000000E+00 -0.30091347348E+02  0.30091347456E+02  0.25500000000E-02 0. -1.
         11    1    1    2    0    0  0.14594884443E+02 -0.29196734741E+02 -0.11648314222E+02  0.34657512835E+02  0.51100000000E-03 0. -1.
         22    1    1    2    0    0 -0.17369373882E+02  0.90736368571E+02  0.39538800812E+03  0.40603751144E+03  0.00000000000E+00 0. -1.
          2    1    1    2  501    0  0.27744894384E+01 -0.61539633830E+02  0.58630014266E+03  0.58952750709E+03  0.25500000000E-02 0. -1.
<mgrwt>
<rscale>  0 0.79729269E+02</rscale>
<asrwt>0</asrwt>
<pdfrwt beam="1">  1       11 0.10000000E+01 0.32641401E+02</pdfrwt>
<pdfrwt beam="2">  1        2 0.46300452E-02 0.79729269E+02</pdfrwt>
<totfact> 0.19306853E+03</totfact>
</mgrwt>
</event>
<event>
 5    1  0.6729100E-004  0.1177625E+03  0.7818608E-02  0.1412553E+00
         11   -1    0    0    0    0  0.00000000000E+00  0.00000000000E+00  0.10003259479E+04  0.10003259479E+04  0.51100000000E-03 0. -1.
          2   -1    0    0  501    0 -0.00000000000E+00 -0.00000000000E+00 -0.17935766649E+02  0.17935766830E+02  0.25500000000E-02 0. -1.
         11    1    1    2    0    0  0.10379871160E+03 -0.64211780309E+02  0.55607134344E+03  0.56930893569E+03  0.51100000000E-03 0. -1.
         22    1    1    2    0    0  0.34448154576E+01  0.27011834660E+02  0.80579163319E+02  0.85055908239E+02  0.00000000000E+00 0. -1.
          2    1    1    2  501    0 -0.10724352706E+03  0.37199945649E+02  0.34573967447E+03  0.36389687078E+03  0.25500000000E-02 0. -1.
<mgrwt>
<rscale>  0 0.56628127E+02</rscale>
<asrwt>0</asrwt>
<pdfrwt beam="1">  1       11 0.10000000E+01 0.11776251E+03</pdfrwt>
<pdfrwt beam="2">  1        2 0.27602481E-02 0.56628127E+02</pdfrwt>
<totfact> 0.36429878E+03</totfact>
</mgrwt>
</event>
<event>
 5    1  0.6729100E-004  0.1309015E+03  0.7818608E-02  0.1543261E+00
         11   -1    0    0    0    0  0.00000000000E+00  0.00000000000E+00  0.99985146839E+03  0.99985146839E+03  0.51100000000E-03 0. -1.
         -2   -1    0    0    0  501 -0.00000000000E+00 -0.00000000000E+00 -0.17225420374E+03  0.17225420376E+03  0.25500000000E-02 0.  1.
         11    1    1    2    0    0 -0.62208321477E+02  0.12315832815E+03  0.20994321904E+03  0.25122500727E+03  0.51100000000E-03 0. -1.
         22    1    1    2    0    0  0.86442803164E+02 -0.97068689945E+02  0.76159171011E+03  0.77260379348E+03  0.00000000000E+00 0. -1.
         -2    1    1    2    0  501 -0.24234481687E+02 -0.26089638206E+02 -0.14393766451E+03  0.14827687141E+03  0.25500000000E-02 0.  1.
<mgrwt>
<rscale>  0 0.35608697E+02</rscale>
<asrwt>0</asrwt>
<pdfrwt beam="1">  1       11 0.10000000E+01 0.13090154E+03</pdfrwt>
<pdfrwt beam="2">  1       -2 0.26496710E-01 0.35608697E+02</pdfrwt>
<totfact> 0.97512667E+01</totfact>
</mgrwt>
</event>
<event>
 5    1  0.6729100E-004  0.2578610E+03  0.7818608E-02  0.1112523E+00
         11   -1    0    0    0    0  0.00000000000E+00  0.00000000000E+00  0.10002937172E+04  0.10002937172E+04  0.51100000000E-03 0.  1.
          2   -1    0    0  501    0 -0.00000000000E+00 -0.00000000000E+00 -0.26118400545E+03  0.26118400546E+03  0.25500000000E-02 0.  1.
         11    1    1    2    0    0  0.21347758999E+03 -0.40212719006E+02  0.72851486231E+03  0.76021289702E+03  0.51100000000E-03 0.  1.
         22    1    1    2    0    0  0.36228225340E+02  0.12482517461E+02  0.18917918968E+03  0.19302088840E+03  0.00000000000E+00 0. -1.
          2    1    1    2  501    0 -0.24970581533E+03  0.27730201545E+02 -0.17858434021E+03  0.30824393727E+03  0.25500000000E-02 0.  1.
<mgrwt>
<rscale>  0 0.25124084E+03</rscale>
<asrwt>0</asrwt>
<pdfrwt beam="1">  1       11 0.10000000E+01 0.25786096E+03</pdfrwt>
<pdfrwt beam="2">  1        2 0.40193956E-01 0.25124084E+03</pdfrwt>
<totfact> 0.15756148E+02</totfact>
</mgrwt>
</event>
<event>
 5    1  0.6729100E-004  0.1052981E+03  0.7818608E-02  0.1276142E+00
         11   -1    0    0    0    0  0.00000000000E+00  0.00000000000E+00  0.10002524301E+04  0.10002524301E+04  0.51100000000E-03 0. -1.
         -2   -1    0    0    0  501 -0.00000000000E+00 -0.00000000000E+00 -0.10740864723E+02  0.10740865025E+02  0.25500000000E-02 0.  1.
         11    1    1    2    0    0  0.59650838864E+02  0.38271003871E+01  0.32657361990E+03  0.33199879290E+03  0.51100000000E-03 0. -1.
         22    1    1    2    0    0  0.39633298695E+02  0.19561276464E+02  0.17353920731E+03  0.17907902829E+03  0.00000000000E+00 0. -1.
         -2    1    1    2    0  501 -0.99284137560E+02 -0.23388376851E+02  0.48939873819E+03  0.49991547395E+03  0.25500000000E-02 0.  1.
<mgrwt>
<rscale>  0 0.10200175E+03</rscale>
<asrwt>0</asrwt>
<pdfrwt beam="1">  1       11 0.10000000E+01 0.10529815E+03</pdfrwt>
<pdfrwt beam="2">  1       -2 0.16528578E-02 0.10200175E+03</pdfrwt>
<totfact> 0.72329485E+03</totfact>
</mgrwt>
</event>
<event>
 5    1  0.6729100E-004  0.1554149E+03  0.7818608E-02  0.1579849E+00
         11   -1    0    0    0    0  0.00000000000E+00  0.00000000000E+00  0.10001161329E+04  0.10001161329E+04  0.51100000000E-03 0. -1.
         -2   -1    0    0    0  501 -0.00000000000E+00 -0.00000000000E+00 -0.60253234576E+02  0.60253234630E+02  0.25500000000E-02 0. -1.
         11    1    1    2    0    0 -0.43936224696E+02 -0.14591225330E+03  0.45384048627E+03  0.47873997585E+03  0.51100000000E-03 0. -1.
         22    1    1    2    0    0  0.15116672519E+02  0.15915642873E+03  0.51464596277E+03  0.53890606750E+03  0.00000000000E+00 0. -1.
         -2    1    1    2    0  501  0.28819552177E+02 -0.13244175433E+02 -0.28623550686E+02  0.42723324203E+02  0.25500000000E-02 0. -1.
<mgrwt>
<rscale>  0 0.31717105E+02</rscale>
<asrwt>0</asrwt>
<pdfrwt beam="1">  1       11 0.10000000E+01 0.15541489E+03</pdfrwt>
<pdfrwt beam="2">  1       -2 0.92708047E-02 0.31717105E+02</pdfrwt>
<totfact> 0.51192619E+02</totfact>
</mgrwt>
</event>
<event>
 5    1  0.6729100E-004  0.1395399E+03  0.7818608E-02  0.1213949E+00
         11   -1    0    0    0    0  0.00000000000E+00  0.00000000000E+00  0.10001924468E+04  0.10001924468E+04  0.51100000000E-03 0. -1.
          2   -1    0    0  501    0 -0.00000000000E+00 -0.00000000000E+00 -0.10949288809E+03  0.10949288812E+03  0.25500000000E-02 0. -1.
         11    1    1    2    0    0  0.57803621851E+02  0.54665342691E+02  0.31879218591E+03  0.32856965196E+03  0.51100000000E-03 0. -1.
         22    1    1    2    0    0 -0.61984058625E+02  0.88773693770E+02  0.62029790542E+03  0.62967633249E+03  0.00000000000E+00 0. -1.
          2    1    1    2  501    0  0.41804367744E+01 -0.14343903646E+03 -0.48390532579E+02  0.15143935051E+03  0.25500000000E-02 0. -1.
<mgrwt>
<rscale>  0 0.13953986E+03</rscale>
<asrwt>0</asrwt>
<pdfrwt beam="1">  1       11 0.10000000E+01 0.79558522E+02</pdfrwt>
<pdfrwt beam="2">  1        2 0.16848301E-01 0.13953986E+03</pdfrwt>
<totfact> 0.40912383E+02</totfact>
</mgrwt>
</event>
<event>
 5    1  0.6729100E-004  0.6872354E+02  0.7818608E-02  0.1412211E+00
         11   -1    0    0    0    0  0.00000000000E+00  0.00000000000E+00  0.10001324159E+04  0.10001324159E+04  0.51100000000E-03 0. -1.
          2   -1    0    0  501    0 -0.00000000000E+00 -0.00000000000E+00 -0.11465178444E+02  0.11465178728E+02  0.25500000000E-02 0. -1.
         11    1    1    2    0    0  0.64349071704E+01  0.59477645561E+02  0.33514193375E+03  0.34043958952E+03  0.51100000000E-03 0. -1.
         22    1    1    2    0    0  0.45421637318E+02 -0.82416255006E+02  0.45845785546E+03  0.46801620641E+03  0.00000000000E+00 0. -1.
          2    1    1    2  501    0 -0.51856544488E+02  0.22938609444E+02  0.19506744823E+03  0.20314179869E+03  0.25500000000E-02 0. -1.
<mgrwt>
<rscale>  0 0.56703448E+02</rscale>
<asrwt>0</asrwt>
<pdfrwt beam="1">  1       11 0.10000000E+01 0.68723540E+02</pdfrwt>
<pdfrwt beam="2">  1        2 0.17641071E-02 0.56703448E+02</pdfrwt>
<totfact> 0.65874831E+03</totfact>
</mgrwt>
</event>
<event>
 5    1  0.6729100E-004  0.3165238E+03  0.7818608E-02  0.1078798E+00
         11   -1    0    0    0    0  0.00000000000E+00  0.00000000000E+00  0.10002168586E+04  0.10002168586E+04  0.51100000000E-03 0. -1.
          2   -1    0    0  501    0 -0.00000000000E+00 -0.00000000000E+00 -0.20648723235E+03  0.20648723236E+03  0.25500000000E-02 0. -1.
         11    1    1    2    0    0  0.28072564577E+03 -0.10950405227E+03  0.76749532330E+03  0.82452840881E+03  0.51100000000E-03 0. -1.
         22    1    1    2    0    0  0.10803257320E+02 -0.51138168548E+01  0.65402012425E+02  0.66485221823E+02  0.00000000000E+00 0.  1.
          2    1    1    2  501    0 -0.29152890309E+03  0.11461786913E+03 -0.39167709482E+02  0.31569046032E+03  0.25500000000E-02 0. -1.
<mgrwt>
<rscale>  0 0.31325127E+03</rscale>
<asrwt>0</asrwt>
<pdfrwt beam="1">  1       11 0.10000000E+01 0.31652380E+03</pdfrwt>
<pdfrwt beam="2">  1        2 0.31774155E-01 0.31325127E+03</pdfrwt>
<totfact> 0.20412699E+02</totfact>
</mgrwt>
</event>
<event>
 5    1  0.6729100E-004  0.5376899E+03  0.7818608E-02  0.1004384E+00
         11   -1    0    0    0    0  0.00000000000E+00  0.00000000000E+00  0.99999105450E+03  0.99999105450E+03  0.51100000000E-03 0.  1.
          2   -1    0    0  501    0 -0.00000000000E+00 -0.00000000000E+00 -0.10289500715E+04  0.10289500715E+04  0.25500000000E-02 0.  1.
         11    1    1    2    0    0 -0.51128395734E+03  0.15200315019E+03 -0.87602007892E+03  0.10256351307E+04  0.51100000000E-03 0.  1.
         22    1    1    2    0    0  0.13448278384E+02  0.39228295116E+01  0.10894692652E+02  0.17746523909E+02  0.00000000000E+00 0.  1.
          2    1    1    2  501    0  0.49783567895E+03 -0.15592597970E+03  0.83616636931E+03  0.98555947134E+03  0.25500000000E-02 0.  1.
<mgrwt>
<rscale>  0 0.53768995E+03</rscale>
<asrwt>0</asrwt>
<pdfrwt beam="1">  1       11 0.10000000E+01 0.53340091E+03</pdfrwt>
<pdfrwt beam="2">  1        2 0.15829859E+00 0.53768995E+03</pdfrwt>
<totfact> 0.30505395E+01</totfact>
</mgrwt>
</event>
<event>
 5    1  0.6729100E-004  0.1099002E+03  0.7818608E-02  0.1260755E+00
         11   -1    0    0    0    0  0.00000000000E+00  0.00000000000E+00  0.99992381570E+03  0.99992381570E+03  0.51100000000E-03 0.  1.
          2   -1    0    0  501    0 -0.00000000000E+00 -0.00000000000E+00 -0.71930979480E+03  0.71930979481E+03  0.25500000000E-02 0.  1.
         11    1    1    2    0    0  0.14958450108E+03  0.65466912121E+02  0.75125454908E+03  0.76879440493E+03  0.51100000000E-03 0.  1.
         22    1    1    2    0    0 -0.44338602568E+02 -0.34847744295E+02  0.23227810922E+03  0.23902593370E+03  0.00000000000E+00 0.  1.
          2    1    1    2  501    0 -0.10524589851E+03 -0.30619167826E+02 -0.70291863740E+03  0.71141327187E+03  0.25500000000E-02 0.  1.
<mgrwt>
<rscale>  0 0.10990021E+03</rscale>
<asrwt>0</asrwt>
<pdfrwt beam="1">  1       11 0.10000000E+01 0.56393944E+02</pdfrwt>
<pdfrwt beam="2">  1        2 0.11065461E+00 0.10990021E+03</pdfrwt>
<totfact> 0.52099303E+01</totfact>
</mgrwt>
</event>
<event>
 5    1  0.6729100E-004  0.2755491E+03  0.7818608E-02  0.1099716E+00
         11   -1    0    0    0    0  0.00000000000E+00  0.00000000000E+00  0.10002026767E+04  0.10002026767E+04  0.51100000000E-03 0. -1.
          2   -1    0    0  501    0 -0.00000000000E+00 -0.00000000000E+00 -0.18145774244E+03  0.18145774246E+03  0.25500000000E-02 0. -1.
         11    1    1    2    0    0  0.25423672686E+03 -0.48393796125E+02  0.78441192302E+03  0.82600262576E+03  0.51100000000E-03 0. -1.
         22    1    1    2    0    0  0.12825696101E+02 -0.70144756193E+01  0.78067128432E+02  0.79424038492E+02  0.00000000000E+00 0. -1.
          2    1    1    2  501    0 -0.26706242296E+03  0.55408271744E+02 -0.43734117195E+02  0.27623375490E+03  0.25500000000E-02 0. -1.
<mgrwt>
<rscale>  0 0.27274973E+03</rscale>
<asrwt>0</asrwt>
<pdfrwt beam="1">  1       11 0.10000000E+01 0.27554914E+03</pdfrwt>
<pdfrwt beam="2">  1        2 0.27922233E-01 0.27274973E+03</pdfrwt>
<totfact> 0.23508003E+02</totfact>
</mgrwt>
</event>
<event>
 5    1  0.6729100E-004  0.9305834E+02  0.7818608E-02  0.1550787E+00
         11   -1    0    0    0    0  0.00000000000E+00  0.00000000000E+00  0.10003516208E+04  0.10003516208E+04  0.51100000000E-03 0. -1.
          2   -1    0    0  501    0 -0.00000000000E+00 -0.00000000000E+00 -0.18783434470E+02  0.18783434643E+02  0.25500000000E-02 0. -1.
         11    1    1    2    0    0  0.97054318053E+02  0.58715972754E+02  0.26278260662E+03  0.28621985335E+03  0.51100000000E-03 0. -1.
         22    1    1    2    0    0 -0.62705234825E+02 -0.53419608535E+02  0.25823687787E+03  0.27105697951E+03  0.00000000000E+00 0. -1.
          2    1    1    2  501    0 -0.34349083228E+02 -0.52963642192E+01  0.46054870180E+03  0.46185822254E+03  0.25500000000E-02 0. -1.
<mgrwt>
<rscale>  0 0.34755014E+02</rscale>
<asrwt>0</asrwt>
<pdfrwt beam="1">  1       11 0.10000000E+01 0.93058337E+02</pdfrwt>
<pdfrwt beam="2">  1        2 0.28907752E-02 0.34755014E+02</pdfrwt>
<totfact> 0.32070003E+03</totfact>
</mgrwt>
</event>
<event>
 5    1  0.6729100E-004  0.3093830E+03  0.7818608E-02  0.1081242E+00
         11   -1    0    0    0    0  0.00000000000E+00  0.00000000000E+00  0.10000623221E+04  0.10000623221E+04  0.51100000000E-03 0.  1.
          2   -1    0    0  501    0 -0.00000000000E+00 -0.00000000000E+00 -0.25093691096E+03  0.25093691097E+03  0.25500000000E-02 0.  1.
         11    1    1    2    0    0  0.29774778185E+03  0.22766254836E+02  0.82718866972E+03  0.87943910492E+03  0.51100000000E-03 0.  1.
         22    1    1    2    0    0  0.91885307475E+01  0.44233279729E+01  0.40225032762E+02  0.41497568464E+02  0.00000000000E+00 0.  1.
          2    1    1    2  501    0 -0.30693631260E+03 -0.27189582809E+02 -0.11828829137E+03  0.33006255966E+03  0.25500000000E-02 0.  1.
<mgrwt>
<rscale>  0 0.30813824E+03</rscale>
<asrwt>0</asrwt>
<pdfrwt beam="1">  1       11 0.10000000E+01 0.30938297E+03</pdfrwt>
<pdfrwt beam="2">  1        2 0.38608083E-01 0.30813824E+03</pdfrwt>
<totfact> 0.16481672E+02</totfact>
</mgrwt>
</event>
<event>
 5    1  0.6729100E-004  0.2169723E+03  0.7818608E-02  0.1136161E+00
         11   -1    0    0    0    0  0.00000000000E+00  0.00000000000E+00  0.99996288397E+03  0.99996288397E+03  0.51100000000E-03 0.  1.
          2   -1    0    0  501    0 -0.00000000000E+00 -0.00000000000E+00 -0.32652888875E+03  0.32652888876E+03  0.25500000000E-02 0.  1.
         11    1    1    2    0    0  0.17415424668E+02  0.63323918455E+02 -0.21799506623E+03  0.22767315293E+03  0.51100000000E-03 0.  1.
         22    1    1    2    0    0 -0.96748438850E+02  0.14611748387E+03  0.85394416653E+03  0.87174033924E+03  0.00000000000E+00 0.  1.
          2    1    1    2  501    0  0.79333014181E+02 -0.20944140232E+03  0.37484894920E+02  0.22707828056E+03  0.25500000000E-02 0.  1.
<mgrwt>
<rscale>  0 0.21697231E+03</rscale>
<asrwt>0</asrwt>
<pdfrwt beam="1">  1       11 0.10000000E+01 0.65675109E+02</pdfrwt>
<pdfrwt beam="2">  1        2 0.50233348E-01 0.21697231E+03</pdfrwt>
<totfact> 0.12384082E+02</totfact>
</mgrwt>
</event>
<event>
 5    1  0.6729100E-004  0.1168682E+03  0.7818608E-02  0.1540973E+00
         11   -1    0    0    0    0  0.00000000000E+00  0.00000000000E+00  0.10005833176E+04  0.10005833176E+04  0.51100000000E-03 0. -1.
          2   -1    0    0  501    0 -0.00000000000E+00 -0.00000000000E+00 -0.25520720064E+02  0.25520720191E+02  0.25500000000E-02 0. -1.
         11    1    1    2    0    0 -0.37502938950E+02 -0.11545265078E+03  0.65062501898E+03  0.66185247625E+03  0.51100000000E-03 0. -1.
         22    1    1    2    0    0  0.64378097819E+02  0.91689862873E+02  0.30157248261E+03  0.32171032421E+03  0.00000000000E+00 0. -1.
          2    1    1    2  501    0 -0.26875158869E+02  0.23762787904E+02  0.22865095910E+02  0.42541237296E+02  0.25500000000E-02 0. -1.
<mgrwt>
<rscale>  0 0.35874005E+02</rscale>
<asrwt>0</asrwt>
<pdfrwt beam="1">  1       11 0.10000000E+01 0.11686818E+03</pdfrwt>
<pdfrwt beam="2">  1        2 0.39285548E-02 0.35874005E+02</pdfrwt>
<totfact> 0.21776319E+03</totfact>
</mgrwt>
</event>
<event>
 5    1  0.6729100E-004  0.1664054E+03  0.7818608E-02  0.1282715E+00
         11   -1    0    0    0    0  0.00000000000E+00  0.00000000000E+00  0.10003221490E+04  0.10003221490E+04  0.51100000000E-03 0.  1.
          2   -1    0    0  501    0 -0.00000000000E+00 -0.00000000000E+00 -0.10246982302E+04  0.10246982302E+04  0.25500000000E-02 0.  1.
         11    1    1    2    0    0 -0.55473277433E+02  0.10771921363E+03  0.24272603485E+03  0.27128700944E+03  0.51100000000E-03 0.  1.
         22    1    1    2    0    0  0.12365256540E+03 -0.17930550941E+03  0.72485004219E+03  0.75686723161E+03  0.00000000000E+00 0.  1.
          2    1    1    2  501    0 -0.68179287963E+02  0.71586295783E+02 -0.99195215829E+03  0.99686613815E+03  0.25500000000E-02 0.  1.
<mgrwt>
<rscale>  0 0.98858551E+02</rscale>
<asrwt>0</asrwt>
<pdfrwt beam="1">  1       11 0.10000000E+01 0.16640542E+03</pdfrwt>
<pdfrwt beam="2">  1        2 0.15769666E+00 0.98858551E+02</pdfrwt>
<totfact> 0.33371925E+01</totfact>
</mgrwt>
</event>
<event>
 5    1  0.6729100E-004  0.1464007E+03  0.7818608E-02  0.1313811E+00
         11   -1    0    0    0    0  0.00000000000E+00  0.00000000000E+00  0.10003247254E+04  0.10003247254E+04  0.51100000000E-03 0. -1.
          2   -1    0    0  501    0 -0.00000000000E+00 -0.00000000000E+00 -0.38169024238E+02  0.38169024324E+02  0.25500000000E-02 0. -1.
         11    1    1    2    0    0  0.29062229782E+02  0.13718563588E+03  0.31767157194E+03  0.34724593519E+03  0.51100000000E-03 0. -1.
         22    1    1    2    0    0 -0.11282568253E+03 -0.11943710602E+03  0.42534483540E+03  0.45597487423E+03  0.00000000000E+00 0. -1.
          2    1    1    2  501    0  0.83763452750E+02 -0.17748529858E+02  0.21913929378E+03  0.23527294025E+03  0.25500000000E-02 0. -1.
<mgrwt>
<rscale>  0 0.85623165E+02</rscale>
<asrwt>0</asrwt>
<pdfrwt beam="1">  1       11 0.10000000E+01 0.14640072E+03</pdfrwt>
<pdfrwt beam="2">  1        2 0.58740643E-02 0.85623165E+02</pdfrwt>
<totfact> 0.14324853E+03</totfact>
</mgrwt>
</event>
<event>
 5    1  0.6729100E-004  0.2182230E+03  0.7818608E-02  0.1139519E+00
         11   -1    0    0    0    0  0.00000000000E+00  0.00000000000E+00  0.10004833925E+04  0.10004833925E+04  0.51100000000E-03 0. -1.
          2   -1    0    0  501    0 -0.00000000000E+00 -0.00000000000E+00 -0.97147113244E+03  0.97147113244E+03  0.25500000000E-02 0. -1.
         11    1    1    2    0    0 -0.11021849795E+03 -0.12635917631E+03  0.84570945733E+03  0.86217123876E+03  0.51100000000E-03 0. -1.
         22    1    1    2    0    0 -0.34499972173E+02 -0.29390505094E+02  0.13095441796E+03  0.13857528442E+03  0.00000000000E+00 0. -1.
          2    1    1    2  501    0  0.14471847012E+03  0.15574968140E+03 -0.94765161522E+03  0.97120800177E+03  0.25500000000E-02 0. -1.
<mgrwt>
<rscale>  0 0.21260621E+03</rscale>
<asrwt>0</asrwt>
<pdfrwt beam="1">  1       11 0.10000000E+01 0.21822300E+03</pdfrwt>
<pdfrwt beam="2">  1        2 0.14952934E+00 0.21260621E+03</pdfrwt>
<totfact> 0.34574099E+01</totfact>
</mgrwt>
</event>
<event>
 5    1  0.6729100E-004  0.1331048E+03  0.7818608E-02  0.1495427E+00
         11   -1    0    0    0    0  0.00000000000E+00  0.00000000000E+00  0.99996660430E+03  0.99996660430E+03  0.51100000000E-03 0.  1.
         -2   -1    0    0    0  501 -0.00000000000E+00 -0.00000000000E+00 -0.28849558952E+02  0.28849559064E+02  0.25500000000E-02 0.  1.
         11    1    1    2    0    0 -0.91788396886E+01 -0.13005649080E+03  0.72909023030E+03  0.74065613197E+03  0.51100000000E-03 0.  1.
         22    1    1    2    0    0  0.21062556493E+01 -0.12951346559E+02  0.23153204479E+02  0.26612864713E+02  0.00000000000E+00 0. -1.
         -2    1    1    2    0  501  0.70725840393E+01  0.14300783736E+03  0.21887361057E+03  0.26154716669E+03  0.25500000000E-02 0.  1.
<mgrwt>
<rscale>  0 0.41791555E+02</rscale>
<asrwt>0</asrwt>
<pdfrwt beam="1">  1       11 0.10000000E+01 0.13310479E+03</pdfrwt>
<pdfrwt beam="2">  1       -2 0.44382453E-02 0.41791555E+02</pdfrwt>
<totfact> 0.15554856E+03</totfact>
</mgrwt>
</event>
<event>
 5    1  0.6729100E-004  0.1287140E+03  0.7818608E-02  0.1229376E+00
         11   -1    0    0    0    0  0.00000000000E+00  0.00000000000E+00  0.10005549219E+04  0.10005549219E+04  0.51100000000E-03 0. -1.
          2   -1    0    0  501    0 -0.00000000000E+00 -0.00000000000E+00 -0.31775642171E+02  0.31775642274E+02  0.25500000000E-02 0. -1.
         11    1    1    2    0    0  0.10905871221E+03 -0.58501907439E+02  0.11512397733E+03  0.16902605136E+03  0.51100000000E-03 0. -1.
         22    1    1    2    0    0 -0.18313311785E+02  0.14909487879E+02  0.90193941311E+02  0.93234206526E+02  0.00000000000E+00 0. -1.
          2    1    1    2  501    0 -0.90745400423E+02  0.43592419560E+02  0.76346136114E+03  0.77007030634E+03  0.25500000000E-02 0. -1.
<mgrwt>
<rscale>  0 0.12871405E+03</rscale>
<asrwt>0</asrwt>
<pdfrwt beam="1">  1       11 0.10000000E+01 0.12375900E+03</pdfrwt>
<pdfrwt beam="2">  1        2 0.48912730E-02 0.12871405E+03</pdfrwt>
<totfact> 0.18776448E+03</totfact>
</mgrwt>
</event>
<event>
 5    1  0.6729100E-004  0.2109474E+03  0.7818608E-02  0.1151641E+00
         11   -1    0    0    0    0  0.00000000000E+00  0.00000000000E+00  0.10002775070E+04  0.10002775070E+04  0.51100000000E-03 0. -1.
          2   -1    0    0  501    0 -0.00000000000E+00 -0.00000000000E+00 -0.46400243796E+03  0.46400243797E+03  0.25500000000E-02 0. -1.
         11    1    1    2    0    0 -0.16322636863E+03 -0.29308898700E+02  0.82971263084E+03  0.84612345951E+03  0.51100000000E-03 0. -1.
         22    1    1    2    0    0 -0.23856495634E+02 -0.34799397228E+02  0.13759657857E+03  0.14391993908E+03  0.00000000000E+00 0. -1.
          2    1    1    2  501    0  0.18708286426E+03  0.64108295927E+02 -0.43103414040E+03  0.47423654636E+03  0.25500000000E-02 0. -1.
<mgrwt>
<rscale>  0 0.19776216E+03</rscale>
<asrwt>0</asrwt>
<pdfrwt beam="1">  1       11 0.10000000E+01 0.21094744E+03</pdfrwt>
<pdfrwt beam="2">  1        2 0.71404798E-01 0.19776216E+03</pdfrwt>
<totfact> 0.84615716E+01</totfact>
</mgrwt>
</event>
<event>
 5    1  0.6729100E-004  0.3276657E+03  0.7818608E-02  0.1072174E+00
         11   -1    0    0    0    0  0.00000000000E+00  0.00000000000E+00  0.10000873363E+04  0.10000873363E+04  0.51100000000E-03 0.  1.
          2   -1    0    0  501    0 -0.00000000000E+00 -0.00000000000E+00 -0.62285523758E+03  0.62285523759E+03  0.25500000000E-02 0. -1.
         11    1    1    2    0    0  0.30827342067E+03  0.16428202835E+03  0.78914241449E+03  0.86299874685E+03  0.51100000000E-03 0.  1.
         22    1    1    2    0    0 -0.30464488908E+02  0.72658395159E+01  0.12647167081E+03  0.13029183024E+03  0.00000000000E+00 0. -1.
          2    1    1    2  501    0 -0.27780893176E+03 -0.17154786786E+03 -0.53838198661E+03  0.62965199677E+03  0.25500000000E-02 0. -1.
<mgrwt>
<rscale>  0 0.32766567E+03</rscale>
<asrwt>0</asrwt>
<pdfrwt beam="1">  1       11 0.10000000E+01 0.31318964E+02</pdfrwt>
<pdfrwt beam="2">  1        2 0.95832249E-01 0.32766567E+03</pdfrwt>
<totfact> 0.59934853E+01</totfact>
</mgrwt>
</event>
<event>
 5    1  0.6729100E-004  0.3847056E+03  0.7818608E-02  0.1049208E+00
         11   -1    0    0    0    0  0.00000000000E+00  0.00000000000E+00  0.10004252416E+04  0.10004252416E+04  0.51100000000E-03 0. -1.
          2   -1    0    0  501    0 -0.00000000000E+00 -0.00000000000E+00 -0.29670129219E+03  0.29670129220E+03  0.25500000000E-02 0. -1.
         11    1    1    2    0    0  0.32165774374E+03 -0.19789288764E+03  0.75562169182E+03  0.84474223301E+03  0.51100000000E-03 0. -1.
         22    1    1    2    0    0  0.30298573909E+00 -0.15114221089E+02  0.50726834616E+02  0.52931495630E+02  0.00000000000E+00 0.  1.
          2    1    1    2  501    0 -0.32196072947E+03  0.21300710873E+03 -0.10262457706E+03  0.39945280512E+03  0.25500000000E-02 0. -1.
<mgrwt>
<rscale>  0 0.38470561E+03</rscale>
<asrwt>0</asrwt>
<pdfrwt beam="1">  1       11 0.10000000E+01 0.15117258E+02</pdfrwt>
<pdfrwt beam="2">  1        2 0.45665762E-01 0.38470561E+03</pdfrwt>
<totfact> 0.13733102E+02</totfact>
</mgrwt>
</event>
<event>
 5    1  0.6729100E-004  0.3689577E+03  0.7818608E-02  0.1061096E+00
         11   -1    0    0    0    0  0.00000000000E+00  0.00000000000E+00  0.10002514553E+04  0.10002514553E+04  0.51100000000E-03 0.  1.
          2   -1    0    0  501    0 -0.00000000000E+00 -0.00000000000E+00 -0.38018358393E+03  0.38018358393E+03  0.25500000000E-02 0. -1.
         11    1    1    2    0    0  0.18064302185E+03  0.27093634730E+03  0.71539100129E+03  0.78601697842E+03  0.51100000000E-03 0.  1.
         22    1    1    2    0    0  0.35572225806E+02  0.90163392890E+01  0.15615502675E+03  0.16040907082E+03  0.00000000000E+00 0.  1.
          2    1    1    2  501    0 -0.21621524766E+03 -0.27995268659E+03 -0.25147815671E+03  0.43400898995E+03  0.25500000000E-02 0. -1.
<mgrwt>
<rscale>  0 0.35372665E+03</rscale>
<asrwt>0</asrwt>
<pdfrwt beam="1">  1       11 0.10000000E+01 0.36895770E+03</pdfrwt>
<pdfrwt beam="2">  1        2 0.58504488E-01 0.35372665E+03</pdfrwt>
<totfact> 0.10472945E+02</totfact>
</mgrwt>
</event>
<event>
 5    1  0.6729100E-004  0.2095345E+03  0.7818608E-02  0.1141935E+00
         11   -1    0    0    0    0  0.00000000000E+00  0.00000000000E+00  0.10001390566E+04  0.10001390566E+04  0.51100000000E-03 0.  1.
          2   -1    0    0  501    0 -0.00000000000E+00 -0.00000000000E+00 -0.60153806213E+02  0.60153806267E+02  0.25500000000E-02 0.  1.
         11    1    1    2    0    0 -0.18981007029E+03 -0.79671476477E+02  0.22953119560E+03  0.30831797985E+03  0.51100000000E-03 0.  1.
         22    1    1    2    0    0 -0.19088582597E+02  0.15155539364E+02  0.11740580032E+03  0.11990907516E+03  0.00000000000E+00 0. -1.
          2    1    1    2  501    0  0.20889865288E+03  0.64515937113E+02  0.59304825450E+03  0.63206580788E+03  0.25500000000E-02 0.  1.
<mgrwt>
<rscale>  0 0.20953448E+03</rscale>
<asrwt>0</asrwt>
<pdfrwt beam="1">  1       11 0.10000000E+01 0.24373436E+02</pdfrwt>
<pdfrwt beam="2">  1        2 0.92557184E-02 0.20953448E+03</pdfrwt>
<totfact> 0.85734432E+02</totfact>
</mgrwt>
</event>
<event>
 5    1  0.6729100E-004  0.5719751E+03  0.7818608E-02  0.9965318E-01
         11   -1    0    0    0    0  0.00000000000E+00  0.00000000000E+00  0.10001051951E+04  0.10001051951E+04  0.51100000000E-03 0. -1.
          2   -1    0    0  501    0 -0.00000000000E+00 -0.00000000000E+00 -0.43314415139E+03  0.43314415140E+03  0.25500000000E-02 0. -1.
         11    1    1    2    0    0  0.12678878504E+02  0.58484812178E+03  0.33002039281E+03  0.67165581899E+03  0.51100000000E-03 0. -1.
         22    1    1    2    0    0  0.32281916088E+02 -0.22244196689E+02  0.19138652858E+03  0.19536051216E+03  0.00000000000E+00 0. -1.
          2    1    1    2  501    0 -0.44960794592E+02 -0.56260392509E+03  0.45554122310E+02  0.56623301533E+03  0.25500000000E-02 0. -1.
<mgrwt>
<rscale>  0 0.57197506E+03</rscale>
<asrwt>0</asrwt>
<pdfrwt beam="1">  1       11 0.10000000E+01 0.39203653E+02</pdfrwt>
<pdfrwt beam="2">  1        2 0.66644570E-01 0.57197506E+03</pdfrwt>
<totfact> 0.90176536E+01</totfact>
</mgrwt>
</event>
<event>
 5    1  0.6729100E-004  0.5861024E+02  0.7818608E-02  0.1433055E+00
         11   -1    0    0    0    0  0.00000000000E+00  0.00000000000E+00  0.10003467125E+04  0.10003467125E+04  0.51100000000E-03 0. -1.
          2   -1    0    0  501    0 -0.00000000000E+00 -0.00000000000E+00 -0.34964530071E+01  0.34964539369E+01  0.25500000000E-02 0. -1.
         11    1    1    2    0    0  0.17494097843E+01  0.40373182163E+02  0.24275403004E+03  0.24609464312E+03  0.51100000000E-03 0. -1.
         22    1    1    2    0    0 -0.15022013352E+02  0.10268009195E+02  0.10682362132E+03  0.10836225805E+03  0.00000000000E+00 0.  1.
          2    1    1    2  501    0  0.13272603568E+02 -0.50641191358E+02  0.64727260813E+03  0.64938626526E+03  0.25500000000E-02 0. -1.
<mgrwt>
<rscale>  0 0.52351622E+02</rscale>
<asrwt>0</asrwt>
<pdfrwt beam="1">  1       11 0.10000000E+01 0.58610242E+02</pdfrwt>
<pdfrwt beam="2">  1        2 0.53810241E-03 0.52351622E+02</pdfrwt>
<totfact> 0.32094866E+04</totfact>
</mgrwt>
</event>
<event>
 5    1  0.6729100E-004  0.2895914E+03  0.7818608E-02  0.1090563E+00
         11   -1    0    0    0    0  0.00000000000E+00  0.00000000000E+00  0.10002603401E+04  0.10002603401E+04  0.51100000000E-03 0. -1.
          2   -1    0    0  501    0 -0.00000000000E+00 -0.00000000000E+00 -0.13804122982E+03  0.13804122985E+03  0.25500000000E-02 0. -1.
         11    1    1    2    0    0  0.26921853742E+03  0.10579905271E+03  0.11150529706E+03  0.31000885748E+03  0.51100000000E-03 0. -1.
         22    1    1    2    0    0  0.20075074307E+02 -0.50507712036E+02  0.94564046511E+02  0.10907060317E+03  0.00000000000E+00 0. -1.
          2    1    1    2  501    0 -0.28929361172E+03 -0.55291340677E+02  0.65614976668E+03  0.71922210927E+03  0.25500000000E-02 0. -1.
<mgrwt>
<rscale>  0 0.28959143E+03</rscale>
<asrwt>0</asrwt>
<pdfrwt beam="1">  1       11 0.10000000E+01 0.54351059E+02</pdfrwt>
<pdfrwt beam="2">  1        2 0.21242641E-01 0.28959143E+03</pdfrwt>
<totfact> 0.32046586E+02</totfact>
</mgrwt>
</event>
<event>
 5    1  0.6729100E-004  0.2708649E+03  0.7818608E-02  0.1100786E+00
         11   -1    0    0    0    0  0.00000000000E+00  0.00000000000E+00  0.10001175635E+04  0.10001175635E+04  0.51100000000E-03 0. -1.
          2   -1    0    0  501    0 -0.00000000000E+00 -0.00000000000E+00 -0.68223584315E+02  0.68223584363E+02  0.25500000000E-02 0. -1.
         11    1    1    2    0    0  0.23040070886E+03  0.62133290560E+02  0.32003983400E+03  0.39921238431E+03  0.51100000000E-03 0. -1.
         22    1    1    2    0    0 -0.64516180749E+02 -0.81203640737E+02  0.24620835326E+03  0.26716085429E+03  0.00000000000E+00 0. -1.
          2    1    1    2  501    0 -0.16588452811E+03  0.19070350177E+02  0.36564579190E+03  0.40196790924E+03  0.25500000000E-02 0. -1.
<mgrwt>
<rscale>  0 0.27086492E+03</rscale>
<asrwt>0</asrwt>
<pdfrwt beam="1">  1       11 0.10000000E+01 0.23863170E+03</pdfrwt>
<pdfrwt beam="2">  1        2 0.10497170E-01 0.27086492E+03</pdfrwt>
<totfact> 0.74209273E+02</totfact>
</mgrwt>
</event>
<event>
 5    1  0.6729100E-004  0.2340343E+03  0.7818608E-02  0.1123832E+00
         11   -1    0    0    0    0  0.00000000000E+00  0.00000000000E+00  0.10000876424E+04  0.10000876424E+04  0.51100000000E-03 0.  1.
         -2   -1    0    0    0  501 -0.00000000000E+00 -0.00000000000E+00 -0.62992073724E+03  0.62992073724E+03  0.25500000000E-02 0. -1.
         11    1    1    2    0    0 -0.15913742801E+03 -0.18102702290E+03  0.93608442672E+03  0.96661758620E+03  0.51100000000E-03 0.  1.
         22    1    1    2    0    0 -0.63720592703E+01  0.15778017956E+02  0.23645209356E+02  0.29131510697E+02  0.00000000000E+00 0. -1.
         -2    1    1    2    0  501  0.16550948728E+03  0.16524900494E+03 -0.58956273093E+03  0.63425928272E+03  0.25500000000E-02 0. -1.
<mgrwt>
<rscale>  0 0.23403429E+03</rscale>
<asrwt>0</asrwt>
<pdfrwt beam="1">  1       11 0.10000000E+01 0.17016139E+02</pdfrwt>
<pdfrwt beam="2">  1       -2 0.96919373E-01 0.23403429E+03</pdfrwt>
<totfact> 0.75281645E+00</totfact>
</mgrwt>
</event>
<event>
 5    1  0.6729100E-004  0.1153317E+03  0.7818608E-02  0.1251003E+00
         11   -1    0    0    0    0  0.00000000000E+00  0.00000000000E+00  0.10002945416E+04  0.10002945416E+04  0.51100000000E-03 0.  1.
          2   -1    0    0  501    0 -0.00000000000E+00 -0.00000000000E+00 -0.38409099802E+03  0.38409099803E+03  0.25500000000E-02 0. -1.
         11    1    1    2    0    0  0.42242701449E+02  0.66163591780E+02  0.29069966359E+03  0.30111187474E+03  0.51100000000E-03 0.  1.
         22    1    1    2    0    0  0.21202564599E+02 -0.16198728818E+03  0.68585331922E+03  0.70504198865E+03  0.00000000000E+00 0.  1.
          2    1    1    2  501    0 -0.63445266047E+02  0.95823696398E+02 -0.36034943921E+03  0.37823167625E+03  0.25500000000E-02 0. -1.
<mgrwt>
<rscale>  0 0.11533168E+03</rscale>
<asrwt>0</asrwt>
<pdfrwt beam="1">  1       11 0.10000000E+01 0.78498832E+02</pdfrwt>
<pdfrwt beam="2">  1        2 0.59108326E-01 0.11533168E+03</pdfrwt>
<totfact> 0.10421466E+02</totfact>
</mgrwt>
</event>
<event>
 5    1  0.6729100E-004  0.1845774E+03  0.7818608E-02  0.1163445E+00
         11   -1    0    0    0    0  0.00000000000E+00  0.00000000000E+00  0.10000655196E+04  0.10000655196E+04  0.51100000000E-03 0.  1.
          2   -1    0    0  501    0 -0.00000000000E+00 -0.00000000000E+00 -0.21158190616E+03  0.21158190617E+03  0.25500000000E-02 0.  1.
         11    1    1    2    0    0 -0.19771011966E+03  0.21497517478E+02  0.65924927252E+03  0.68859352160E+03  0.51100000000E-03 0.  1.
         22    1    1    2    0    0  0.20438091612E+02 -0.72839595501E+02  0.27667611776E+03  0.28683269758E+03  0.00000000000E+00 0.  1.
          2    1    1    2  501    0  0.17727202805E+03  0.51342078022E+02 -0.14744177681E+03  0.23622120662E+03  0.25500000000E-02 0.  1.
<mgrwt>
<rscale>  0 0.18457742E+03</rscale>
<asrwt>0</asrwt>
<pdfrwt beam="1">  1       11 0.10000000E+01 0.75652642E+02</pdfrwt>
<pdfrwt beam="2">  1        2 0.32553194E-01 0.18457742E+03</pdfrwt>
<totfact> 0.19740852E+02</totfact>
</mgrwt>
</event>
<event>
 5    1  0.6729100E-004  0.1792779E+03  0.7818608E-02  0.1168504E+00
         11   -1    0    0    0    0  0.00000000000E+00  0.00000000000E+00  0.10001394113E+04  0.10001394113E+04  0.51100000000E-03 0.  1.
         -2   -1    0    0    0  501 -0.00000000000E+00 -0.00000000000E+00 -0.57769398535E+02  0.57769398592E+02  0.25500000000E-02 0.  1.
         11    1    1    2    0    0  0.19391272736E+03  0.26160568447E+02  0.71859063757E+03  0.74475433908E+03  0.51100000000E-03 0.  1.
         22    1    1    2    0    0 -0.20516650004E+02 -0.20501273762E+00  0.90832330669E+02  0.93120820724E+02  0.00000000000E+00 0. -1.
         -2    1    1    2    0  501 -0.17339607735E+03 -0.25955555709E+02  0.13294704451E+03  0.22003365007E+03  0.25500000000E-02 0.  1.
<mgrwt>
<rscale>  0 0.17927792E+03</rscale>
<asrwt>0</asrwt>
<pdfrwt beam="1">  1       11 0.10000000E+01 0.20517674E+02</pdfrwt>
<pdfrwt beam="2">  1       -2 0.88888386E-02 0.17927792E+03</pdfrwt>
<totfact> 0.62449780E+02</totfact>
</mgrwt>
</event>
<event>
 5    1  0.6729100E-004  0.1279326E+03  0.7818608E-02  0.1485097E+00
         11   -1    0    0    0    0  0.00000000000E+00  0.00000000000E+00  0.10009087484E+04  0.10009087484E+04  0.51100000000E-03 0.  1.
          2   -1    0    0  501    0 -0.00000000000E+00 -0.00000000000E+00 -0.15328139487E+04  0.15328139487E+04  0.25500000000E-02 0.  1.
         11    1    1    2    0    0  0.67274824387E+02  0.12230159828E+03  0.33663423204E+03  0.36442583487E+03  0.51100000000E-03 0.  1.
         22    1    1    2    0    0 -0.23953336974E+02 -0.12253168207E+03  0.64407392047E+03  0.65606325190E+03  0.00000000000E+00 0.  1.
          2    1    1    2  501    0 -0.43321487413E+02  0.23008378559E+00 -0.15126133529E+04  0.15132336103E+04  0.25500000000E-02 0.  1.
<mgrwt>
<rscale>  0 0.43322098E+02</rscale>
<asrwt>0</asrwt>
<pdfrwt beam="1">  1       11 0.10000000E+01 0.12793258E+03</pdfrwt>
<pdfrwt beam="2">  1        2 0.23603182E+00 0.43322098E+02</pdfrwt>
<totfact> 0.19079602E+01</totfact>
</mgrwt>
</event>
<event>
 5    1  0.6729100E-004  0.3162876E+03  0.7818608E-02  0.1077371E+00
         11   -1    0    0    0    0  0.00000000000E+00  0.00000000000E+00  0.10011088827E+04  0.10011088827E+04  0.51100000000E-03 0. -1.
          2   -1    0    0  501    0 -0.00000000000E+00 -0.00000000000E+00 -0.11750467194E+04  0.11750467194E+04  0.25500000000E-02 0.  1.
         11    1    1    2    0    0 -0.16389292172E+02  0.32774095883E+03  0.88257498699E+03  0.94160573100E+03  0.51100000000E-03 0. -1.
         22    1    1    2    0    0 -0.20230407360E+00 -0.12172801498E+02  0.66663685185E+02  0.67766252263E+02  0.00000000000E+00 0.  1.
          2    1    1    2  501    0  0.16591596246E+02 -0.31556815733E+03 -0.11231765089E+04  0.11667836188E+04  0.25500000000E-02 0.  1.
<mgrwt>
<rscale>  0 0.31628758E+03</rscale>
<asrwt>0</asrwt>
<pdfrwt beam="1">  1       11 0.10000000E+01 0.12174482E+02</pdfrwt>
<pdfrwt beam="2">  1        2 0.18097687E+00 0.31628758E+03</pdfrwt>
<totfact> 0.25591474E+01</totfact>
</mgrwt>
</event>
<event>
 5    1  0.6729100E-004  0.5740978E+03  0.7818608E-02  0.9960652E-01
         11   -1    0    0    0    0  0.00000000000E+00  0.00000000000E+00  0.99981212042E+03  0.99981212042E+03  0.51100000000E-03 0.  1.
          2   -1    0    0  501    0 -0.00000000000E+00 -0.00000000000E+00 -0.13455028536E+04  0.13455028536E+04  0.25500000000E-02 0.  1.
         11    1    1    2    0    0  0.81345629525E+02  0.57760589538E+03  0.73214428830E+03  0.93609878790E+03  0.51100000000E-03 0.  1.
         22    1    1    2    0    0  0.25936515294E+02 -0.14314475732E+02  0.97263678639E+02  0.10167512097E+03  0.00000000000E+00 0. -1.
          2    1    1    2  501    0 -0.10728214482E+03 -0.56329141965E+03 -0.11750987001E+04  0.13075410651E+04  0.25500000000E-02 0.  1.
<mgrwt>
<rscale>  0 0.57409775E+03</rscale>
<asrwt>0</asrwt>
<pdfrwt beam="1">  1       11 0.10000000E+01 0.29624433E+02</pdfrwt>
<pdfrwt beam="2">  1        2 0.20696154E+00 0.57409775E+03</pdfrwt>
<totfact> 0.19777339E+01</totfact>
</mgrwt>
</event>
<event>
 5    1  0.6729100E-004  0.2207388E+03  0.7818608E-02  0.1462906E+00
         11   -1    0    0    0    0  0.00000000000E+00  0.00000000000E+00  0.10012609714E+04  0.10012609714E+04  0.51100000000E-03 0.  1.
          2   -1    0    0  501    0 -0.00000000000E+00 -0.00000000000E+00 -0.11083376606E+04  0.11083376606E+04  0.25500000000E-02 0. -1.
         11    1    1    2    0    0 -0.16766229270E+03 -0.11609772527E+03  0.42582005904E+03  0.47213562552E+03  0.51100000000E-03 0.  1.
         22    1    1    2    0    0  0.17842014920E+03  0.16173176555E+03  0.52548892288E+03  0.57803937728E+03  0.00000000000E+00 0.  1.
          2    1    1    2  501    0 -0.10757856499E+02 -0.45634040277E+02 -0.10583856712E+04  0.10594236292E+04  0.25500000000E-02 0. -1.
<mgrwt>
<rscale>  0 0.46884935E+02</rscale>
<asrwt>0</asrwt>
<pdfrwt beam="1">  1       11 0.10000000E+01 0.22073883E+03</pdfrwt>
<pdfrwt beam="2">  1        2 0.17072849E+00 0.46884935E+02</pdfrwt>
<totfact> 0.31206581E+01</totfact>
</mgrwt>
</event>
<event>
 5    1  0.6729100E-004  0.1096769E+03  0.7818608E-02  0.1261169E+00
         11   -1    0    0    0    0  0.00000000000E+00  0.00000000000E+00  0.10002218350E+04  0.10002218350E+04  0.51100000000E-03 0. -1.
         -2   -1    0    0    0  501 -0.00000000000E+00 -0.00000000000E+00 -0.26972644485E+02  0.26972644605E+02  0.25500000000E-02 0.  1.
         11    1    1    2    0    0 -0.99536414723E+02 -0.76978550347E+02  0.69264946933E+03  0.70398613796E+03  0.51100000000E-03 0. -1.
         22    1    1    2    0    0  0.29814261232E+02 -0.38959926827E+01  0.15708301443E+03  0.15993480657E+03  0.00000000000E+00 0. -1.
         -2    1    1    2    0  501  0.69722153491E+02  0.80874543030E+02  0.12351670670E+03  0.16327353502E+03  0.25500000000E-02 0.  1.
<mgrwt>
<rscale>  0 0.10967687E+03</rscale>
<asrwt>0</asrwt>
<pdfrwt beam="1">  1       11 0.10000000E+01 0.30067739E+02</pdfrwt>
<pdfrwt beam="2">  1       -2 0.41505580E-02 0.10967687E+03</pdfrwt>
<totfact> 0.19114914E+03</totfact>
</mgrwt>
</event>
<event>
 5    1  0.6729100E-004  0.5921046E+02  0.7818608E-02  0.1485871E+00
         11   -1    0    0    0    0  0.00000000000E+00  0.00000000000E+00  0.10002838691E+04  0.10002838691E+04  0.51100000000E-03 0.  1.
          2   -1    0    0  501    0 -0.00000000000E+00 -0.00000000000E+00 -0.61533993407E+01  0.61533998691E+01  0.25500000000E-02 0.  1.
         11    1    1    2    0    0 -0.61197198337E+02  0.47764937086E+01  0.33642500690E+03  0.34197908890E+03  0.51100000000E-03 0.  1.
         22    1    1    2    0    0  0.60153512006E+01 -0.30946442677E+02  0.16526623747E+03  0.16824623625E+03  0.00000000000E+00 0.  1.
          2    1    1    2  501    0  0.55181847136E+02  0.26169948969E+02  0.49243922542E+03  0.49621194386E+03  0.25500000000E-02 0.  1.
<mgrwt>
<rscale>  0 0.43204714E+02</rscale>
<asrwt>0</asrwt>
<pdfrwt beam="1">  1       11 0.10000000E+01 0.59210455E+02</pdfrwt>
<pdfrwt beam="2">  1        2 0.94694557E-03 0.43204714E+02</pdfrwt>
<totfact> 0.14431609E+04</totfact>
</mgrwt>
</event>
<event>
 5    1  0.6729100E-004  0.3116186E+03  0.7818608E-02  0.1079573E+00
         11   -1    0    0    0    0  0.00000000000E+00  0.00000000000E+00  0.10002898090E+04  0.10002898090E+04  0.51100000000E-03 0.  1.
         -2   -1    0    0    0  501 -0.00000000000E+00 -0.00000000000E+00 -0.78388285463E+03  0.78388285463E+03  0.25500000000E-02 0. -1.
         11    1    1    2    0    0 -0.25358946057E+03 -0.18015462503E+03  0.87825266130E+03  0.93171403365E+03  0.51100000000E-03 0.  1.
         22    1    1    2    0    0  0.86242127225E+01 -0.12506415391E+02  0.62285200879E+02  0.64111104495E+02  0.00000000000E+00 0.  1.
         -2    1    1    2    0  501  0.24496524785E+03  0.19266104042E+03 -0.72413090785E+03  0.78834752543E+03  0.25500000000E-02 0. -1.
<mgrwt>
<rscale>  0 0.31161864E+03</rscale>
<asrwt>0</asrwt>
<pdfrwt beam="1">  1       11 0.10000000E+01 0.15191691E+02</pdfrwt>
<pdfrwt beam="2">  1       -2 0.12063231E+00 0.31161864E+03</pdfrwt>
<totfact> 0.44350307E+00</totfact>
</mgrwt>
</event>
<event>
 5    1  0.6729100E-004  0.3921512E+03  0.7818608E-02  0.1052343E+00
         11   -1    0    0    0    0  0.00000000000E+00  0.00000000000E+00  0.10002714246E+04  0.10002714246E+04  0.51100000000E-03 0.  1.
          2   -1    0    0  501    0 -0.00000000000E+00 -0.00000000000E+00 -0.31964318708E+03  0.31964318709E+03  0.25500000000E-02 0.  1.
         11    1    1    2    0    0  0.26129874753E+03 -0.21275989059E+03  0.64527234645E+03  0.72795618522E+03  0.51100000000E-03 0.  1.
         22    1    1    2    0    0  0.14944694641E+02 -0.42632463230E+02  0.18248945053E+03  0.18799805950E+03  0.00000000000E+00 0. -1.
          2    1    1    2  501    0 -0.27624344217E+03  0.25539235382E+03 -0.14713355949E+03  0.40396036695E+03  0.25500000000E-02 0.  1.
<mgrwt>
<rscale>  0 0.37621230E+03</rscale>
<asrwt>0</asrwt>
<pdfrwt beam="1">  1       11 0.10000000E+01 0.39215123E+03</pdfrwt>
<pdfrwt beam="2">  1        2 0.49189221E-01 0.37621230E+03</pdfrwt>
<totfact> 0.12661634E+02</totfact>
</mgrwt>
</event>
<event>
 5    1  0.6729100E-004  0.2896487E+03  0.7818608E-02  0.1090533E+00
         11   -1    0    0    0    0  0.00000000000E+00  0.00000000000E+00  0.10002906350E+04  0.10002906350E+04  0.51100000000E-03 0. -1.
          2   -1    0    0  501    0 -0.00000000000E+00 -0.00000000000E+00 -0.24710715122E+03  0.24710715123E+03  0.25500000000E-02 0. -1.
         11    1    1    2    0    0  0.34940994158E+03  0.27440282646E+02  0.66329870788E+03  0.75020360720E+03  0.51100000000E-03 0. -1.
         22    1    1    2    0    0 -0.10532361004E+03  0.11860632760E+03  0.13611821110E+03  0.20901839912E+03  0.00000000000E+00 0.  1.
          2    1    1    2  501    0 -0.24408633154E+03 -0.14604661024E+03 -0.46233435163E+02  0.28817577993E+03  0.25500000000E-02 0. -1.
<mgrwt>
<rscale>  0 0.28964873E+03</rscale>
<asrwt>0</asrwt>
<pdfrwt beam="1">  1       11 0.10000000E+01 0.15862069E+03</pdfrwt>
<pdfrwt beam="2">  1        2 0.38027533E-01 0.28964873E+03</pdfrwt>
<totfact> 0.16749654E+02</totfact>
</mgrwt>
</event>
<event>
 5    1  0.6729100E-004  0.2130819E+03  0.7818608E-02  0.1139148E+00
         11   -1    0    0    0    0  0.00000000000E+00  0.00000000000E+00  0.10003661994E+04  0.10003661994E+04  0.51100000000E-03 0. -1.
          2   -1    0    0  501    0 -0.00000000000E+00 -0.00000000000E+00 -0.14139985010E+03  0.14139985013E+03  0.25500000000E-02 0. -1.
         11    1    1    2    0    0 -0.49590283965E+02  0.10381606747E+03  0.20483500823E+03  0.23493478398E+03  0.51100000000E-03 0. -1.
         22    1    1    2    0    0 -0.11329759368E+03  0.55642236072E+02  0.66669560412E+03  0.67853918952E+03  0.00000000000E+00 0. -1.
          2    1    1    2  501    0  0.16288787764E+03 -0.15945830355E+03 -0.12564263070E+02  0.22829207600E+03  0.25500000000E-02 0. -1.
<mgrwt>
<rscale>  0 0.21308188E+03</rscale>
<asrwt>0</asrwt>
<pdfrwt beam="1">  1       11 0.10000000E+01 0.11505204E+03</pdfrwt>
<pdfrwt beam="2">  1        2 0.21761789E-01 0.21308188E+03</pdfrwt>
<totfact> 0.30938850E+02</totfact>
</mgrwt>
</event>
<event>
 5    1  0.6729100E-004  0.1485083E+03  0.7818608E-02  0.1202318E+00
         11   -1    0    0    0    0  0.00000000000E+00  0.00000000000E+00  0.10000365612E+04  0.10000365612E+04  0.51100000000E-03 0.  1.
          2   -1    0    0  501    0 -0.00000000000E+00 -0.00000000000E+00 -0.44950836462E+03  0.44950836463E+03  0.25500000000E-02 0.  1.
         11    1    1    2    0    0  0.81314910648E+02 -0.87104766585E+01  0.42489908161E+03  0.43269760417E+03  0.51100000000E-03 0.  1.
         22    1    1    2    0    0  0.39714434304E+02  0.97072844926E+02  0.55357487512E+03  0.56342303456E+03  0.00000000000E+00 0.  1.
          2    1    1    2  501    0 -0.12102934495E+03 -0.88362368267E+02 -0.42794576016E+03  0.45342428708E+03  0.25500000000E-02 0.  1.
<mgrwt>
<rscale>  0 0.14850833E+03</rscale>
<asrwt>0</asrwt>
<pdfrwt beam="1">  1       11 0.10000000E+01 0.81780114E+02</pdfrwt>
<pdfrwt beam="2">  1        2 0.69157659E-01 0.14850833E+03</pdfrwt>
<totfact> 0.87918061E+01</totfact>
</mgrwt>
</event>
<event>
 5    1  0.6729100E-004  0.1109429E+03  0.7818608E-02  0.1258834E+00
         11   -1    0    0    0    0  0.00000000000E+00  0.00000000000E+00  0.10002910755E+04  0.10002910755E+04  0.51100000000E-03 0.  1.
          2   -1    0    0  501    0 -0.00000000000E+00 -0.00000000000E+00 -0.11530491178E+02  0.11530491460E+02  0.25500000000E-02 0.  1.
         11    1    1    2    0    0 -0.57599385083E+02 -0.85633068149E+02  0.51580917649E+03  0.52603214548E+03  0.51100000000E-03 0.  1.
         22    1    1    2    0    0  0.21118766497E+02  0.55708825487E+02  0.32754312694E+03  0.33291737044E+03  0.00000000000E+00 0.  1.
          2    1    1    2  501    0  0.36480618586E+02  0.29924242662E+02  0.14540828085E+03  0.15287205100E+03  0.25500000000E-02 0.  1.
<mgrwt>
<rscale>  0 0.11094290E+03</rscale>
<asrwt>0</asrwt>
<pdfrwt beam="1">  1       11 0.10000000E+01 0.10320228E+03</pdfrwt>
<pdfrwt beam="2">  1        2 0.17744380E-02 0.11094290E+03</pdfrwt>
<totfact> 0.71770371E+03</totfact>
</mgrwt>
</event>
<event>
 5    1  0.6729100E-004  0.1271115E+03  0.7818608E-02  0.1231806E+00
         11   -1    0    0    0    0  0.00000000000E+00  0.00000000000E+00  0.10002011159E+04  0.10002011159E+04  0.51100000000E-03 0. -1.
         -2   -1    0    0    0  501 -0.00000000000E+00 -0.00000000000E+00 -0.44167524115E+02  0.44167524189E+02  0.25500000000E-02 0. -1.
         11    1    1    2    0    0 -0.10645597977E+03  0.46808877467E+02  0.67743974044E+03  0.68734892781E+03  0.51100000000E-03 0. -1.
         22    1    1    2    0    0  0.84024508330E+01  0.37989888008E+02  0.20353952610E+03  0.20722492962E+03  0.00000000000E+00 0. -1.
         -2    1    1    2    0  501  0.98053528935E+02 -0.84798765475E+02  0.75054325218E+02  0.14979478263E+03  0.25500000000E-02 0. -1.
<mgrwt>
<rscale>  0 0.12711155E+03</rscale>
<asrwt>0</asrwt>
<pdfrwt beam="1">  1       11 0.10000000E+01 0.38908004E+02</pdfrwt>
<pdfrwt beam="2">  1       -2 0.67963701E-02 0.12711155E+03</pdfrwt>
<totfact> 0.92352873E+02</totfact>
</mgrwt>
</event>
<event>
 5    1  0.6729100E-004  0.1221489E+03  0.7818608E-02  0.1239594E+00
         11   -1    0    0    0    0  0.00000000000E+00  0.00000000000E+00  0.99991954296E+03  0.99991954296E+03  0.51100000000E-03 0. -1.
          2   -1    0    0  501    0 -0.00000000000E+00 -0.00000000000E+00 -0.11448769543E+03  0.11448769546E+03  0.25500000000E-02 0. -1.
         11    1    1    2    0    0 -0.51092589645E+02  0.18312099219E+03  0.55464799024E+03  0.58632597041E+03  0.51100000000E-03 0. -1.
         22    1    1    2    0    0  0.70560506301E+02 -0.66028093924E+02  0.38546352279E+03  0.39739227677E+03  0.00000000000E+00 0. -1.
          2    1    1    2  501    0 -0.19467916656E+02 -0.11709289826E+03 -0.54679665510E+02  0.13068899123E+03  0.25500000000E-02 0. -1.
<mgrwt>
<rscale>  0 0.12214888E+03</rscale>
<asrwt>0</asrwt>
<pdfrwt beam="1">  1       11 0.10000000E+01 0.96635885E+02</pdfrwt>
<pdfrwt beam="2">  1        2 0.17612074E-01 0.12214888E+03</pdfrwt>
<totfact> 0.38680858E+02</totfact>
</mgrwt>
</event>
<event>
 5    1  0.6729100E-004  0.9005859E+02  0.7818608E-02  0.1302710E+00
         11   -1    0    0    0    0  0.00000000000E+00  0.00000000000E+00  0.10001517522E+04  0.10001517522E+04  0.51100000000E-03 0. -1.
          2   -1    0    0  501    0 -0.00000000000E+00 -0.00000000000E+00 -0.49815987624E+02  0.49815987690E+02  0.25500000000E-02 0. -1.
         11    1    1    2    0    0 -0.38514481146E+02 -0.72357745796E+02 -0.12510610381E+02  0.82918779579E+02  0.51100000000E-03 0. -1.
         22    1    1    2    0    0  0.14638514636E+02  0.21485387621E+02  0.14792643348E+03  0.15019366735E+03  0.00000000000E+00 0. -1.
          2    1    1    2  501    0  0.23875966510E+02  0.50872358175E+02  0.81491994144E+03  0.81685529292E+03  0.25500000000E-02 0. -1.
<mgrwt>
<rscale>  0 0.90058591E+02</rscale>
<asrwt>0</asrwt>
<pdfrwt beam="1">  1       11 0.10000000E+01 0.81969600E+02</pdfrwt>
<pdfrwt beam="2">  1        2 0.76651609E-02 0.90058591E+02</pdfrwt>
<totfact> 0.10289483E+03</totfact>
</mgrwt>
</event>
<event>
 5    1  0.6729100E-004  0.3598755E+03  0.7818608E-02  0.1058633E+00
         11   -1    0    0    0    0  0.00000000000E+00  0.00000000000E+00  0.99990935352E+03  0.99990935352E+03  0.51100000000E-03 0.  1.
          2   -1    0    0  501    0 -0.00000000000E+00 -0.00000000000E+00 -0.15004683615E+03  0.15004683617E+03  0.25500000000E-02 0.  1.
         11    1    1    2    0    0  0.26214173505E+03 -0.23669521313E+03  0.52788484590E+03  0.63514197130E+03  0.51100000000E-03 0.  1.
         22    1    1    2    0    0  0.18953936048E+02  0.53959728846E+01  0.68381113997E+02  0.71164211276E+02  0.00000000000E+00 0. -1.
          2    1    1    2  501    0 -0.28109567110E+03  0.23129924025E+03  0.25359655747E+03  0.44365000712E+03  0.25500000000E-02 0.  1.
<mgrwt>
<rscale>  0 0.35987553E+03</rscale>
<asrwt>0</asrwt>
<pdfrwt beam="1">  1       11 0.10000000E+01 0.19707060E+02</pdfrwt>
<pdfrwt beam="2">  1        2 0.23082035E-01 0.35987553E+03</pdfrwt>
<totfact> 0.29281373E+02</totfact>
</mgrwt>
</event>
<event>
 5    1  0.6729100E-004  0.1597511E+03  0.7818608E-02  0.1188978E+00
         11   -1    0    0    0    0  0.00000000000E+00  0.00000000000E+00  0.10001556280E+04  0.10001556280E+04  0.51100000000E-03 0. -1.
          2   -1    0    0  501    0 -0.00000000000E+00 -0.00000000000E+00 -0.48773066925E+02  0.48773066992E+02  0.25500000000E-02 0. -1.
         11    1    1    2    0    0 -0.76041833125E+02  0.57942359300E+01  0.38259889593E+03  0.39012542691E+03  0.51100000000E-03 0. -1.
         22    1    1    2    0    0 -0.87025373977E+02 -0.94714236839E+02  0.34370853466E+03  0.36698741010E+03  0.00000000000E+00 0. -1.
          2    1    1    2  501    0  0.16306720710E+03  0.88920000909E+02  0.22507513045E+03  0.29181585795E+03  0.25500000000E-02 0. -1.
<mgrwt>
<rscale>  0 0.15975109E+03</rscale>
<asrwt>0</asrwt>
<pdfrwt beam="1">  1       11 0.10000000E+01 0.76262268E+02</pdfrwt>
<pdfrwt beam="2">  1        2 0.75047163E-02 0.15975109E+03</pdfrwt>
<totfact> 0.10992365E+03</totfact>
</mgrwt>
</event>
<event>
 5    1  0.6729100E-004  0.1182198E+03  0.7818608E-02  0.1246063E+00
         11   -1    0    0    0    0  0.00000000000E+00  0.00000000000E+00  0.10000609026E+04  0.10000609026E+04  0.51100000000E-03 0. -1.
          2   -1    0    0  501    0 -0.00000000000E+00 -0.00000000000E+00 -0.16864067176E+02  0.16864067369E+02  0.25500000000E-02 0. -1.
         11    1    1    2    0    0 -0.87653681987E+02 -0.74176128627E+02  0.33326145458E+03  0.35248895463E+03  0.51100000000E-03 0. -1.
         22    1    1    2    0    0 -0.13311451754E+02  0.19100651283E+01  0.81113758522E+02  0.82220951820E+02  0.00000000000E+00 0. -1.
          2    1    1    2  501    0  0.10096513374E+03  0.72266063499E+02  0.56882162227E+03  0.58221506347E+03  0.25500000000E-02 0. -1.
<mgrwt>
<rscale>  0 0.11821976E+03</rscale>
<asrwt>0</asrwt>
<pdfrwt beam="1">  1       11 0.10000000E+01 0.13447792E+02</pdfrwt>
<pdfrwt beam="2">  1        2 0.25946298E-02 0.11821976E+03</pdfrwt>
<totfact> 0.43220498E+03</totfact>
</mgrwt>
</event>
<event>
 5    1  0.6729100E-004  0.3911595E+03  0.7818608E-02  0.1046885E+00
         11   -1    0    0    0    0  0.00000000000E+00  0.00000000000E+00  0.10000544074E+04  0.10000544074E+04  0.51100000000E-03 0. -1.
          2   -1    0    0  501    0 -0.00000000000E+00 -0.00000000000E+00 -0.59948012818E+03  0.59948012819E+03  0.25500000000E-02 0.  1.
         11    1    1    2    0    0 -0.29535349186E+03 -0.27138235279E+03  0.85245575664E+03  0.94210555862E+03  0.51100000000E-03 0. -1.
         22    1    1    2    0    0  0.34910757877E+01  0.12096590514E+02  0.32763816845E+02  0.35099612626E+02  0.00000000000E+00 0.  1.
          2    1    1    2  501    0  0.29186241608E+03  0.25928576227E+03 -0.48464529428E+03  0.62232936433E+03  0.25500000000E-02 0.  1.
<mgrwt>
<rscale>  0 0.39115952E+03</rscale>
<asrwt>0</asrwt>
<pdfrwt beam="1">  1       11 0.10000000E+01 0.12590278E+02</pdfrwt>
<pdfrwt beam="2">  1        2 0.92232727E-01 0.39115952E+03</pdfrwt>
<totfact> 0.62448027E+01</totfact>
</mgrwt>
</event>
<event>
 5    1  0.6729100E-004  0.1759345E+03  0.7818608E-02  0.1460137E+00
         11   -1    0    0    0    0  0.00000000000E+00  0.00000000000E+00  0.10003590755E+04  0.10003590755E+04  0.51100000000E-03 0. -1.
          2   -1    0    0  501    0 -0.00000000000E+00 -0.00000000000E+00 -0.69970857700E+02  0.69970857747E+02  0.25500000000E-02 0. -1.
         11    1    1    2    0    0  0.17205055983E+03 -0.71979483487E+02  0.74269360067E+03  0.76575206539E+03  0.51100000000E-03 0. -1.
         22    1    1    2    0    0 -0.15164702465E+03  0.29242478927E+02  0.20276188684E+03  0.25488100245E+03  0.00000000000E+00 0. -1.
          2    1    1    2  501    0 -0.20403535182E+02  0.42737004561E+02 -0.15067269711E+02  0.49696865392E+02  0.25500000000E-02 0. -1.
<mgrwt>
<rscale>  0 0.47357743E+02</rscale>
<asrwt>0</asrwt>
<pdfrwt beam="1">  1       11 0.10000000E+01 0.17593454E+03</pdfrwt>
<pdfrwt beam="2">  1        2 0.10768612E-01 0.47357743E+02</pdfrwt>
<totfact> 0.65031899E+02</totfact>
</mgrwt>
</event>
<event>
 5    1  0.6729100E-004  0.6677356E+02  0.7818608E-02  0.1371422E+00
         11   -1    0    0    0    0  0.00000000000E+00  0.00000000000E+00  0.10001722058E+04  0.10001722058E+04  0.51100000000E-03 0.  1.
          2   -1    0    0  501    0 -0.00000000000E+00 -0.00000000000E+00 -0.11646557564E+02  0.11646557844E+02  0.25500000000E-02 0.  1.
         11    1    1    2    0    0  0.66276659173E+02  0.11837049906E+02  0.11749552486E+03  0.13541753824E+03  0.51100000000E-03 0.  1.
         22    1    1    2    0    0 -0.19205713915E+00 -0.24146621722E+02  0.12240075328E+03  0.12475993199E+03  0.00000000000E+00 0.  1.
          2    1    1    2  501    0 -0.66084602034E+02  0.12309571816E+02  0.74862937013E+03  0.75164129344E+03  0.25500000000E-02 0.  1.
<mgrwt>
<rscale>  0 0.66773555E+02</rscale>
<asrwt>0</asrwt>
<pdfrwt beam="1">  1       11 0.10000000E+01 0.24147386E+02</pdfrwt>
<pdfrwt beam="2">  1        2 0.17920866E-02 0.66773555E+02</pdfrwt>
<totfact> 0.66084683E+03</totfact>
</mgrwt>
</event>
<event>
 5    1  0.6729100E-004  0.2880130E+03  0.7818608E-02  0.1091391E+00
         11   -1    0    0    0    0  0.00000000000E+00  0.00000000000E+00  0.10001380543E+04  0.10001380543E+04  0.51100000000E-03 0.  1.
          2   -1    0    0  501    0 -0.00000000000E+00 -0.00000000000E+00 -0.17346869873E+03  0.17346869875E+03  0.25500000000E-02 0.  1.
         11    1    1    2    0    0 -0.96634290275E+02 -0.28393401906E+03  0.62403799042E+03  0.69237282351E+03  0.51100000000E-03 0.  1.
         22    1    1    2    0    0  0.50157010399E+02  0.16943742388E+01  0.18825776643E+03  0.19483219245E+03  0.00000000000E+00 0. -1.
          2    1    1    2  501    0  0.46477279876E+02  0.28223964482E+03  0.14373598705E+02  0.28640173708E+03  0.25500000000E-02 0.  1.
<mgrwt>
<rscale>  0 0.28801301E+03</rscale>
<asrwt>0</asrwt>
<pdfrwt beam="1">  1       11 0.10000000E+01 0.50185621E+02</pdfrwt>
<pdfrwt beam="2">  1        2 0.26691176E-01 0.28801301E+03</pdfrwt>
<totfact> 0.24743333E+02</totfact>
</mgrwt>
</event>
<event>
 5    1  0.6729100E-004  0.1262207E+03  0.7818608E-02  0.1460492E+00
         11   -1    0    0    0    0  0.00000000000E+00  0.00000000000E+00  0.10001778713E+04  0.10001778713E+04  0.51100000000E-03 0. -1.
          2   -1    0    0  501    0 -0.00000000000E+00 -0.00000000000E+00 -0.35375391884E+02  0.35375391976E+02  0.25500000000E-02 0. -1.
         11    1    1    2    0    0 -0.58394126735E+01 -0.12497844235E+03  0.10710619190E+03  0.16469804533E+03  0.51100000000E-03 0. -1.
         22    1    1    2    0    0  0.17691524943E+02 -0.10539001736E+01  0.45089713665E+02  0.48447735126E+02  0.00000000000E+00 0.  1.
          2    1    1    2  501    0 -0.11852112269E+02  0.12603234252E+03  0.81260657381E+03  0.82240748278E+03  0.25500000000E-02 0. -1.
<mgrwt>
<rscale>  0 0.47296871E+02</rscale>
<asrwt>0</asrwt>
<pdfrwt beam="1">  1       11 0.10000000E+01 0.12622069E+03</pdfrwt>
<pdfrwt beam="2">  1        2 0.54433359E-02 0.47296871E+02</pdfrwt>
<totfact> 0.14908644E+03</totfact>
</mgrwt>
</event>
<event>
 5    1  0.1222255E-003  0.1775381E+03  0.7818608E-02  0.1176878E+00
         11   -1    0    0    0    0  0.00000000000E+00  0.00000000000E+00  0.10007277710E+04  0.10007277710E+04  0.51100000000E-03 0.  1.
          2   -1    0    0  501    0 -0.00000000000E+00 -0.00000000000E+00 -0.10959462716E+04  0.10959462716E+04  0.25500000000E-02 0. -1.
         11    1    1    2    0    0 -0.66914022322E+02  0.14471203971E+03  0.88793899358E+03  0.90213896775E+03  0.51100000000E-03 0.  1.
         22    1    1    2    0    0 -0.17692621292E+02  0.38133175649E+01  0.98147791977E+02  0.99802601715E+02  0.00000000000E+00 0. -1.
          2    1    1    2  501    0  0.84606643614E+02 -0.14852535728E+03 -0.10813052862E+04  0.10947324731E+04  0.25500000000E-02 0. -1.
<mgrwt>
<rscale>  0 0.17093293E+03</rscale>
<asrwt>0</asrwt>
<pdfrwt beam="1">  1       11 0.10000000E+01 0.17753805E+03</pdfrwt>
<pdfrwt beam="2">  1        2 0.16872982E+00 0.17093293E+03</pdfrwt>
<totfact> 0.29445862E+01</totfact>
</mgrwt>
</event>
<event>
 5    1  0.6729100E-004  0.2195762E+03  0.7818608E-02  0.1489500E+00
         11   -1    0    0    0    0  0.00000000000E+00  0.00000000000E+00  0.10002048852E+04  0.10002048852E+04  0.51100000000E-03 0.  1.
          2   -1    0    0  501    0 -0.00000000000E+00 -0.00000000000E+00 -0.71886180977E+03  0.71886180978E+03  0.25500000000E-02 0.  1.
         11    1    1    2    0    0  0.16674766602E+03 -0.15036852743E+03  0.56477458017E+03  0.60777117781E+03  0.51100000000E-03 0.  1.
         22    1    1    2    0    0 -0.12985163603E+03  0.17178308848E+03  0.38519983495E+03  0.44130464502E+03  0.00000000000E+00 0.  1.
          2    1    1    2  501    0 -0.36896029987E+02 -0.21414561054E+02 -0.66863133965E+03  0.66999087220E+03  0.25500000000E-02 0.  1.
<mgrwt>
<rscale>  0 0.42660291E+02</rscale>
<asrwt>0</asrwt>
<pdfrwt beam="1">  1       11 0.10000000E+01 0.21957619E+03</pdfrwt>
<pdfrwt beam="2">  1        2 0.11061678E+00 0.42660291E+02</pdfrwt>
<totfact> 0.53698140E+01</totfact>
</mgrwt>
</event>
<event>
 5    1  0.6729100E-004  0.4294276E+03  0.7818608E-02  0.1034041E+00
         11   -1    0    0    0    0  0.00000000000E+00  0.00000000000E+00  0.10002496961E+04  0.10002496961E+04  0.51100000000E-03 0.  1.
          2   -1    0    0  501    0 -0.00000000000E+00 -0.00000000000E+00 -0.15594093258E+04  0.15594093258E+04  0.25500000000E-02 0.  1.
         11    1    1    2    0    0  0.28754199874E+03 -0.34103298413E+03  0.87672581806E+03  0.98368290488E+03  0.51100000000E-03 0.  1.
         22    1    1    2    0    0  0.62355120897E+01  0.28543288223E+02  0.33979957939E+02  0.44813373619E+02  0.00000000000E+00 0. -1.
          2    1    1    2  501    0 -0.29377751083E+03  0.31248969591E+03 -0.14698654057E+04  0.15311627434E+04  0.25500000000E-02 0.  1.
<mgrwt>
<rscale>  0 0.42942759E+03</rscale>
<asrwt>0</asrwt>
<pdfrwt beam="1">  1       11 0.10000000E+01 0.29216449E+02</pdfrwt>
<pdfrwt beam="2">  1        2 0.23996902E+00 0.42942759E+03</pdfrwt>
<totfact> 0.15351160E+01</totfact>
</mgrwt>
</event>
<event>
 5    1  0.6729100E-004  0.3439636E+03  0.7818608E-02  0.1065120E+00
         11   -1    0    0    0    0  0.00000000000E+00  0.00000000000E+00  0.10000396440E+04  0.10000396440E+04  0.51100000000E-03 0. -1.
          2   -1    0    0  501    0 -0.00000000000E+00 -0.00000000000E+00 -0.83683447971E+03  0.83683447971E+03  0.25500000000E-02 0.  1.
         11    1    1    2    0    0  0.30208046036E+03  0.48188449980E+02  0.65185266486E+03  0.72006015577E+03  0.51100000000E-03 0. -1.
         22    1    1    2    0    0  0.33880436127E+02  0.34953524559E+02  0.27453768757E+03  0.27881996831E+03  0.00000000000E+00 0. -1.
          2    1    1    2  501    0 -0.33596089648E+03 -0.83141974539E+02 -0.76318518818E+03  0.83799399959E+03  0.25500000000E-02 0.  1.
<mgrwt>
<rscale>  0 0.34396358E+03</rscale>
<asrwt>0</asrwt>
<pdfrwt beam="1">  1       11 0.10000000E+01 0.48678875E+02</pdfrwt>
<pdfrwt beam="2">  1        2 0.12874887E+00 0.34396358E+03</pdfrwt>
<totfact> 0.41438507E+01</totfact>
</mgrwt>
</event>
<event>
 5    1  0.6729100E-004  0.1170497E+03  0.7818608E-02  0.1530762E+00
         11   -1    0    0    0    0  0.00000000000E+00  0.00000000000E+00  0.10002179829E+04  0.10002179829E+04  0.51100000000E-03 0.  1.
          2   -1    0    0  501    0 -0.00000000000E+00 -0.00000000000E+00 -0.26841877507E+03  0.26841877508E+03  0.25500000000E-02 0. -1.
         11    1    1    2    0    0  0.13258134914E+03 -0.18783338574E+02  0.30480732014E+03  0.33292361039E+03  0.51100000000E-03 0.  1.
         22    1    1    2    0    0 -0.11180817404E+03 -0.11947265691E+02  0.67532640755E+03  0.68462366426E+03  0.00000000000E+00 0. -1.
          2    1    1    2  501    0 -0.20773175093E+02  0.30730604265E+02 -0.24833451989E+03  0.25108948329E+03  0.25500000000E-02 0. -1.
<mgrwt>
<rscale>  0 0.37093057E+02</rscale>
<asrwt>0</asrwt>
<pdfrwt beam="1">  1       11 0.10000000E+01 0.11704971E+03</pdfrwt>
<pdfrwt beam="2">  1        2 0.41304197E-01 0.37093057E+02</pdfrwt>
<totfact> 0.14971186E+02</totfact>
</mgrwt>
</event>
<event>
 5    1  0.6729100E-004  0.4426816E+03  0.7818608E-02  0.1131212E+00
         11   -1    0    0    0    0  0.00000000000E+00  0.00000000000E+00  0.10004256562E+04  0.10004256562E+04  0.51100000000E-03 0. -1.
          2   -1    0    0  501    0 -0.00000000000E+00 -0.00000000000E+00 -0.25537931280E+04  0.25537931280E+04  0.25500000000E-02 0. -1.
         11    1    1    2    0    0 -0.18047971493E+03 -0.36881556629E+03  0.58693503717E+03  0.71630341846E+03  0.51100000000E-03 0. -1.
         22    1    1    2    0    0  0.95644657852E+02  0.57571914425E+03  0.95141760276E+02  0.59131411972E+03  0.00000000000E+00 0. -1.
          2    1    1    2  501    0  0.84835057075E+02 -0.20690357796E+03 -0.22354442693E+04  0.22466012460E+04  0.25500000000E-02 0. -1.
<mgrwt>
<rscale>  0 0.22362039E+03</rscale>
<asrwt>0</asrwt>
<pdfrwt beam="1">  1       11 0.10000000E+01 0.44268159E+03</pdfrwt>
<pdfrwt beam="2">  1        2 0.39305848E+00 0.22362039E+03</pdfrwt>
<totfact> 0.48054355E+00</totfact>
</mgrwt>
</event>
<event>
 5    1  0.6729100E-004  0.1073623E+03  0.7818608E-02  0.1441056E+00
         11   -1    0    0    0    0  0.00000000000E+00  0.00000000000E+00  0.10000945551E+04  0.10000945551E+04  0.51100000000E-03 0.  1.
          2   -1    0    0  501    0 -0.00000000000E+00 -0.00000000000E+00 -0.14520599651E+02  0.14520599875E+02  0.25500000000E-02 0.  1.
         11    1    1    2    0    0  0.95469915419E+02 -0.59616215536E+02  0.44071687858E+03  0.45486257812E+03  0.51100000000E-03 0.  1.
         22    1    1    2    0    0  0.23148188151E+01  0.23928322542E+02  0.92436149100E+02  0.95511070909E+02  0.00000000000E+00 0.  1.
          2    1    1    2  501    0 -0.97784734234E+02  0.35687892994E+02  0.45242092774E+03  0.46424150592E+03  0.25500000000E-02 0.  1.
<mgrwt>
<rscale>  0 0.50803452E+02</rscale>
<asrwt>0</asrwt>
<pdfrwt beam="1">  1       11 0.10000000E+01 0.10736226E+03</pdfrwt>
<pdfrwt beam="2">  1        2 0.22341496E-02 0.50803452E+02</pdfrwt>
<totfact> 0.47395346E+03</totfact>
</mgrwt>
</event>
<event>
 5    1  0.6729100E-004  0.1291689E+03  0.7818608E-02  0.1228694E+00
         11   -1    0    0    0    0  0.00000000000E+00  0.00000000000E+00  0.10003938997E+04  0.10003938997E+04  0.51100000000E-03 0. -1.
         -2   -1    0    0    0  501 -0.00000000000E+00 -0.00000000000E+00 -0.21605859064E+02  0.21605859215E+02  0.25500000000E-02 0. -1.
         11    1    1    2    0    0  0.93205820982E+02  0.81701722694E+02  0.22190409246E+03  0.25417301747E+03  0.51100000000E-03 0. -1.
         22    1    1    2    0    0 -0.19879521261E+02 -0.21232628994E+01  0.87681275590E+02  0.89931694635E+02  0.00000000000E+00 0. -1.
         -2    1    1    2    0  501 -0.73326299721E+02 -0.79578459795E+02  0.66920267254E+03  0.67789504677E+03  0.25500000000E-02 0. -1.
<mgrwt>
<rscale>  0 0.12916886E+03</rscale>
<asrwt>0</asrwt>
<pdfrwt beam="1">  1       11 0.10000000E+01 0.12394560E+03</pdfrwt>
<pdfrwt beam="2">  1       -2 0.33252875E-02 0.12916886E+03</pdfrwt>
<totfact> 0.26961823E+03</totfact>
</mgrwt>
</event>
<event>
 5    1  0.6729100E-004  0.6900092E+03  0.7818608E-02  0.9778908E-01
         11   -1    0    0    0    0  0.00000000000E+00  0.00000000000E+00  0.10000033210E+04  0.10000033210E+04  0.51100000000E-03 0. -1.
          2   -1    0    0  501    0 -0.00000000000E+00 -0.00000000000E+00 -0.49623280377E+03  0.49623280378E+03  0.25500000000E-02 0. -1.
         11    1    1    2    0    0 -0.25912204546E+03 -0.39841299892E+03 -0.18444148421E+02  0.47562310580E+03  0.51100000000E-03 0. -1.
         22    1    1    2    0    0 -0.17595754210E+03 -0.10459967860E+03  0.69885209715E+02  0.21630092908E+03  0.00000000000E+00 0.  1.
          2    1    1    2  501    0  0.43507958757E+03  0.50301267752E+03  0.45232945596E+03  0.80431208992E+03  0.25500000000E-02 0. -1.
<mgrwt>
<rscale>  0 0.66506842E+03</rscale>
<asrwt>0</asrwt>
<pdfrwt beam="1">  1       11 0.10000000E+01 0.69000919E+03</pdfrwt>
<pdfrwt beam="2">  1        2 0.76343760E-01 0.66506842E+03</pdfrwt>
<totfact> 0.77054384E+01</totfact>
</mgrwt>
</event>
<event>
 5    1  0.6729100E-004  0.1891797E+03  0.7818608E-02  0.1159203E+00
         11   -1    0    0    0    0  0.00000000000E+00  0.00000000000E+00  0.99997033729E+03  0.99997033729E+03  0.51100000000E-03 0.  1.
          2   -1    0    0  501    0 -0.00000000000E+00 -0.00000000000E+00 -0.16273568696E+03  0.16273568698E+03  0.25500000000E-02 0.  1.
         11    1    1    2    0    0  0.11186019860E+03  0.14130036276E+03 -0.13305391230E+02  0.18070841149E+03  0.51100000000E-03 0.  1.
         22    1    1    2    0    0  0.16930851694E+03 -0.37324072916E+02  0.19355087894E+03  0.25984688389E+03  0.00000000000E+00 0. -1.
          2    1    1    2  501    0 -0.28116871553E+03 -0.10397628985E+03  0.65698916261E+03  0.72215072889E+03  0.25500000000E-02 0.  1.
<mgrwt>
<rscale>  0 0.18917972E+03</rscale>
<asrwt>0</asrwt>
<pdfrwt beam="1">  1       11 0.10000000E+01 0.17337376E+03</pdfrwt>
<pdfrwt beam="2">  1        2 0.25035516E-01 0.18917972E+03</pdfrwt>
<totfact> 0.26355778E+02</totfact>
</mgrwt>
</event>
<event>
 5    1  0.6729100E-004  0.2053444E+03  0.7818608E-02  0.1146453E+00
         11   -1    0    0    0    0  0.00000000000E+00  0.00000000000E+00  0.10000907553E+04  0.10000907553E+04  0.51100000000E-03 0. -1.
          2   -1    0    0  501    0 -0.00000000000E+00 -0.00000000000E+00 -0.12950469182E+03  0.12950469185E+03  0.25500000000E-02 0. -1.
         11    1    1    2    0    0 -0.17194322596E+03 -0.91640268702E+02  0.86729863406E+03  0.88891469357E+03  0.51100000000E-03 0. -1.
         22    1    1    2    0    0 -0.59061476234E+01 -0.81733652130E+01  0.33070286000E+02  0.34573549063E+02  0.00000000000E+00 0.  1.
          2    1    1    2  501    0  0.17784937358E+03  0.99813633915E+02 -0.29782856588E+02  0.20610720451E+03  0.25500000000E-02 0. -1.
<mgrwt>
<rscale>  0 0.20394401E+03</rscale>
<asrwt>0</asrwt>
<pdfrwt beam="1">  1       11 0.10000000E+01 0.20534445E+03</pdfrwt>
<pdfrwt beam="2">  1        2 0.19925606E-01 0.20394401E+03</pdfrwt>
<totfact> 0.34165726E+02</totfact>
</mgrwt>
</event>
<event>
 5    1  0.6729100E-004  0.1128050E+03  0.7818608E-02  0.1255462E+00
         11   -1    0    0    0    0  0.00000000000E+00  0.00000000000E+00  0.10010400029E+04  0.10010400029E+04  0.51100000000E-03 0. -1.
          2   -1    0    0  501    0 -0.00000000000E+00 -0.00000000000E+00 -0.14627265559E+04  0.14627265559E+04  0.25500000000E-02 0. -1.
         11    1    1    2    0    0 -0.78796697328E+02  0.38634313279E+01  0.14034227808E+03  0.16099627520E+03  0.51100000000E-03 0. -1.
         22    1    1    2    0    0  0.11400703486E+03 -0.11095530295E+03  0.84071216934E+03  0.85563171687E+03  0.00000000000E+00 0. -1.
          2    1    1    2  501    0 -0.35210337527E+02  0.10709187162E+03 -0.14427410005E+04  0.14471385667E+04  0.25500000000E-02 0. -1.
<mgrwt>
<rscale>  0 0.11280502E+03</rscale>
<asrwt>0</asrwt>
<pdfrwt beam="1">  1       11 0.10000000E+01 0.78891353E+02</pdfrwt>
<pdfrwt beam="2">  1        2 0.22526889E+00 0.11280502E+03</pdfrwt>
<totfact> 0.19094621E+01</totfact>
</mgrwt>
</event>
<event>
 5    1  0.6729100E-004  0.7973687E+03  0.7818608E-02  0.9563834E-01
         11   -1    0    0    0    0  0.00000000000E+00  0.00000000000E+00  0.99999692986E+03  0.99999692986E+03  0.51100000000E-03 0. -1.
          2   -1    0    0  501    0 -0.00000000000E+00 -0.00000000000E+00 -0.69453521439E+03  0.69453521439E+03  0.25500000000E-02 0. -1.
         11    1    1    2    0    0 -0.50067950426E+03  0.61621835636E+03  0.32540232266E+03  0.85807441420E+03  0.51100000000E-03 0. -1.
         22    1    1    2    0    0  0.81763599822E+01  0.13664234672E+02  0.31436320710E+02  0.35239273992E+02  0.00000000000E+00 0. -1.
          2    1    1    2  501    0  0.49250314428E+03 -0.62988259103E+03 -0.51376927890E+02  0.80121845606E+03  0.25500000000E-02 0. -1.
<mgrwt>
<rscale>  0 0.79736871E+03</rscale>
<asrwt>0</asrwt>
<pdfrwt beam="1">  1       11 0.10000000E+01 0.15923698E+02</pdfrwt>
<pdfrwt beam="2">  1        2 0.10685124E+00 0.79736871E+03</pdfrwt>
<totfact> 0.51210499E+01</totfact>
</mgrwt>
</event>
<event>
 5    1  0.6729100E-004  0.4487491E+03  0.7818608E-02  0.1028096E+00
         11   -1    0    0    0    0  0.00000000000E+00  0.00000000000E+00  0.99997724835E+03  0.99997724835E+03  0.51100000000E-03 0.  1.
          2   -1    0    0  501    0 -0.00000000000E+00 -0.00000000000E+00 -0.25471967712E+03  0.25471967713E+03  0.25500000000E-02 0.  1.
         11    1    1    2    0    0 -0.10742785813E+03  0.42882521081E+03  0.12956325637E+03  0.46067173077E+03  0.51100000000E-03 0.  1.
         22    1    1    2    0    0 -0.25796298543E+01  0.20378736549E+02  0.96752684821E+02  0.98909197821E+02  0.00000000000E+00 0.  1.
          2    1    1    2  501    0  0.11000748798E+03 -0.44920394736E+03  0.51894163004E+03  0.69511599689E+03  0.25500000000E-02 0.  1.
<mgrwt>
<rscale>  0 0.44874911E+03</rscale>
<asrwt>0</asrwt>
<pdfrwt beam="1">  1       11 0.10000000E+01 0.20541358E+02</pdfrwt>
<pdfrwt beam="2">  1        2 0.39186750E-01 0.44874911E+03</pdfrwt>
<totfact> 0.16246838E+02</totfact>
</mgrwt>
</event>
<event>
 5    1  0.6729100E-004  0.1635056E+03  0.7818608E-02  0.1184795E+00
         11   -1    0    0    0    0  0.00000000000E+00  0.00000000000E+00  0.10000735460E+04  0.10000735460E+04  0.51100000000E-03 0.  1.
         -2   -1    0    0    0  501 -0.00000000000E+00 -0.00000000000E+00 -0.68444656687E+02  0.68444656734E+02  0.25500000000E-02 0.  1.
         11    1    1    2    0    0  0.49078876285E+02 -0.17821132981E+03  0.76497453534E+03  0.78699050432E+03  0.51100000000E-03 0.  1.
         22    1    1    2    0    0 -0.16546762443E+02  0.21161679930E+02  0.10714252788E+03  0.11045874037E+03  0.00000000000E+00 0.  1.
         -2    1    1    2    0  501 -0.32532113842E+02  0.15704964988E+03  0.59511826123E+02  0.17106895807E+03  0.25500000000E-02 0.  1.
<mgrwt>
<rscale>  0 0.16350558E+03</rscale>
<asrwt>0</asrwt>
<pdfrwt beam="1">  1       11 0.10000000E+01 0.26862838E+02</pdfrwt>
<pdfrwt beam="2">  1       -2 0.10530721E-01 0.16350558E+03</pdfrwt>
<totfact> 0.47556963E+02</totfact>
</mgrwt>
</event>
<event>
 5    1  0.6729100E-004  0.2050004E+03  0.7818608E-02  0.1147664E+00
         11   -1    0    0    0    0  0.00000000000E+00  0.00000000000E+00  0.10002893091E+04  0.10002893091E+04  0.51100000000E-03 0. -1.
         -2   -1    0    0    0  501 -0.00000000000E+00 -0.00000000000E+00 -0.16953122150E+03  0.16953122152E+03  0.25500000000E-02 0.  1.
         11    1    1    2    0    0 -0.19350834742E+03 -0.44815871789E+01  0.89659885520E+03  0.91725409364E+03  0.51100000000E-03 0. -1.
         22    1    1    2    0    0 -0.89704304322E+01  0.47792097995E+01  0.27713820196E+02  0.29518897309E+02  0.00000000000E+00 0. -1.
         -2    1    1    2    0  501  0.20247877785E+03 -0.29762262058E+00 -0.93554587778E+02  0.22304753969E+03  0.25500000000E-02 0.  1.
<mgrwt>
<rscale>  0 0.20247900E+03</rscale>
<asrwt>0</asrwt>
<pdfrwt beam="1">  1       11 0.10000000E+01 0.20500043E+03</pdfrwt>
<pdfrwt beam="2">  1       -2 0.26089271E-01 0.20247900E+03</pdfrwt>
<totfact> 0.10548650E+02</totfact>
</mgrwt>
</event>
<event>
 5    1  0.6729100E-004  0.2463817E+03  0.7818608E-02  0.1121390E+00
         11   -1    0    0    0    0  0.00000000000E+00  0.00000000000E+00  0.10003532712E+04  0.10003532712E+04  0.51100000000E-03 0. -1.
          2   -1    0    0  501    0 -0.00000000000E+00 -0.00000000000E+00 -0.76485266740E+02  0.76485266782E+02  0.25500000000E-02 0. -1.
         11    1    1    2    0    0 -0.82421406137E+02  0.18379764010E+03  0.66209895252E+03  0.69206205186E+03  0.51100000000E-03 0. -1.
         22    1    1    2    0    0 -0.29078715966E+02  0.26035214017E+02  0.66981322127E+02  0.77523555163E+02  0.00000000000E+00 0. -1.
          2    1    1    2  501    0  0.11150012210E+03 -0.20983285412E+03  0.19478772983E+03  0.30725293098E+03  0.25500000000E-02 0. -1.
<mgrwt>
<rscale>  0 0.23761756E+03</rscale>
<asrwt>0</asrwt>
<pdfrwt beam="1">  1       11 0.10000000E+01 0.24638174E+03</pdfrwt>
<pdfrwt beam="2">  1        2 0.11771121E-01 0.23761756E+03</pdfrwt>
<totfact> 0.64057115E+02</totfact>
</mgrwt>
</event>
<event>
 5    1  0.6729100E-004  0.1620377E+03  0.7818608E-02  0.1186415E+00
         11   -1    0    0    0    0  0.00000000000E+00  0.00000000000E+00  0.10002273076E+04  0.10002273076E+04  0.51100000000E-03 0. -1.
          2   -1    0    0  501    0 -0.00000000000E+00 -0.00000000000E+00 -0.66501645968E+02  0.66501646017E+02  0.25500000000E-02 0. -1.
         11    1    1    2    0    0 -0.81391668534E+02 -0.14017066518E+03  0.72607166595E+03  0.74394387098E+03  0.51100000000E-03 0. -1.
         22    1    1    2    0    0  0.46137269795E+02 -0.19121027663E+02  0.13547074757E+03  0.14438346447E+03  0.00000000000E+00 0.  1.
          2    1    1    2  501    0  0.35254398739E+02  0.15929169284E+03  0.72183248061E+02  0.17840161812E+03  0.25500000000E-02 0. -1.
<mgrwt>
<rscale>  0 0.16203771E+03</rscale>
<asrwt>0</asrwt>
<pdfrwt beam="1">  1       11 0.10000000E+01 0.49942581E+02</pdfrwt>
<pdfrwt beam="2">  1        2 0.10233348E-01 0.16203771E+03</pdfrwt>
<totfact> 0.74666730E+02</totfact>
</mgrwt>
</event>
<event>
 5    1  0.6729100E-004  0.1331817E+03  0.7818608E-02  0.1236611E+00
         11   -1    0    0    0    0  0.00000000000E+00  0.00000000000E+00  0.10001378652E+04  0.10001378652E+04  0.51100000000E-03 0. -1.
          2   -1    0    0  501    0 -0.00000000000E+00 -0.00000000000E+00 -0.16535765518E+02  0.16535765715E+02  0.25500000000E-02 0. -1.
         11    1    1    2    0    0 -0.98812783979E+02  0.24753785752E+02  0.34333455469E+03  0.35812753682E+03  0.51100000000E-03 0. -1.
         22    1    1    2    0    0 -0.15624833849E+02  0.23044578102E+02  0.16667795124E+03  0.16898735882E+03  0.00000000000E+00 0. -1.
          2    1    1    2  501    0  0.11443761783E+03 -0.47798363855E+02  0.47358959378E+03  0.48955873530E+03  0.25500000000E-02 0. -1.
<mgrwt>
<rscale>  0 0.12401876E+03</rscale>
<asrwt>0</asrwt>
<pdfrwt beam="1">  1       11 0.10000000E+01 0.13318167E+03</pdfrwt>
<pdfrwt beam="2">  1        2 0.25443146E-02 0.12401876E+03</pdfrwt>
<totfact> 0.44613160E+03</totfact>
</mgrwt>
</event>
<event>
 5    1  0.6729100E-004  0.1608693E+03  0.7818608E-02  0.1187719E+00
         11   -1    0    0    0    0  0.00000000000E+00  0.00000000000E+00  0.10001141211E+04  0.10001141211E+04  0.51100000000E-03 0. -1.
          2   -1    0    0  501    0 -0.00000000000E+00 -0.00000000000E+00 -0.95309090596E+03  0.95309090596E+03  0.25500000000E-02 0. -1.
         11    1    1    2    0    0 -0.10806678843E+03 -0.23366968211E+02  0.61210556281E+03  0.62201098543E+03  0.51100000000E-03 0. -1.
         22    1    1    2    0    0  0.29264456543E+02  0.16427888561E+03  0.35753504971E+03  0.39455705854E+03  0.00000000000E+00 0. -1.
          2    1    1    2  501    0  0.78802331892E+02 -0.14091191740E+03 -0.92261739742E+03  0.93663698305E+03  0.25500000000E-02 0. -1.
<mgrwt>
<rscale>  0 0.16086925E+03</rscale>
<asrwt>0</asrwt>
<pdfrwt beam="1">  1       11 0.10000000E+01 0.11056422E+03</pdfrwt>
<pdfrwt beam="2">  1        2 0.14664610E+00 0.16086925E+03</pdfrwt>
<totfact> 0.35970145E+01</totfact>
</mgrwt>
</event>
<event>
 5    1  0.6729100E-004  0.3845469E+03  0.7818608E-02  0.1051099E+00
         11   -1    0    0    0    0  0.00000000000E+00  0.00000000000E+00  0.10014253720E+04  0.10014253720E+04  0.51100000000E-03 0. -1.
          2   -1    0    0  501    0 -0.00000000000E+00 -0.00000000000E+00 -0.11404064597E+04  0.11404064597E+04  0.25500000000E-02 0. -1.
         11    1    1    2    0    0 -0.33670048655E+03 -0.14988574819E+03  0.88682624105E+03  0.96036125337E+03  0.51100000000E-03 0. -1.
         22    1    1    2    0    0 -0.51640375306E+01 -0.15004837377E+02  0.43763254750E+02  0.46551422048E+02  0.00000000000E+00 0.  1.
          2    1    1    2  501    0  0.34186452408E+03  0.16489058557E+03 -0.10695705835E+04  0.11349191562E+04  0.25500000000E-02 0. -1.
<mgrwt>
<rscale>  0 0.37955271E+03</rscale>
<asrwt>0</asrwt>
<pdfrwt beam="1">  1       11 0.10000000E+01 0.38454691E+03</pdfrwt>
<pdfrwt beam="2">  1        2 0.17569722E+00 0.37955271E+03</pdfrwt>
<totfact> 0.26527488E+01</totfact>
</mgrwt>
</event>
<event>
 5    1  0.6729100E-004  0.1823365E+03  0.7818608E-02  0.1172571E+00
         11   -1    0    0    0    0  0.00000000000E+00  0.00000000000E+00  0.99989727010E+03  0.99989727010E+03  0.51100000000E-03 0.  1.
          2   -1    0    0  501    0 -0.00000000000E+00 -0.00000000000E+00 -0.60983441119E+02  0.60983441173E+02  0.25500000000E-02 0.  1.
         11    1    1    2    0    0  0.11576749987E+03  0.70658753142E+02  0.66076642802E+03  0.67454210085E+03  0.51100000000E-03 0.  1.
         22    1    1    2    0    0  0.45818857916E+02 -0.30496727536E+01  0.17956165935E+03  0.18534038349E+03  0.00000000000E+00 0.  1.
          2    1    1    2  501    0 -0.16158635779E+03 -0.67609080389E+02  0.98585741617E+02  0.20099822694E+03  0.25500000000E-02 0.  1.
<mgrwt>
<rscale>  0 0.17516032E+03</rscale>
<asrwt>0</asrwt>
<pdfrwt beam="1">  1       11 0.10000000E+01 0.18233648E+03</pdfrwt>
<pdfrwt beam="2">  1        2 0.93811038E-02 0.17516032E+03</pdfrwt>
<totfact> 0.83494205E+02</totfact>
</mgrwt>
</event>
<event>
 5    1  0.6729100E-004  0.1232835E+03  0.7818608E-02  0.1237777E+00
         11   -1    0    0    0    0  0.00000000000E+00  0.00000000000E+00  0.99995353226E+03  0.99995353226E+03  0.51100000000E-03 0. -1.
          2   -1    0    0  501    0 -0.00000000000E+00 -0.00000000000E+00 -0.27970398331E+03  0.27970398332E+03  0.25500000000E-02 0. -1.
         11    1    1    2    0    0  0.18118282514E+03 -0.16960861081E+02  0.71934823965E+03  0.74200860967E+03  0.51100000000E-03 0. -1.
         22    1    1    2    0    0 -0.93047213473E+02 -0.68675639916E+02  0.24134485904E+03  0.26762187585E+03  0.00000000000E+00 0. -1.
          2    1    1    2  501    0 -0.88135611666E+02  0.85636500997E+02 -0.24044354974E+03  0.27002703006E+03  0.25500000000E-02 0. -1.
<mgrwt>
<rscale>  0 0.12328347E+03</rscale>
<asrwt>0</asrwt>
<pdfrwt beam="1">  1       11 0.10000000E+01 0.11564656E+03</pdfrwt>
<pdfrwt beam="2">  1        2 0.43029381E-01 0.12328347E+03</pdfrwt>
<totfact> 0.14576957E+02</totfact>
</mgrwt>
</event>
<event>
 5    1  0.6729100E-004  0.1602028E+03  0.7818608E-02  0.1188468E+00
         11   -1    0    0    0    0  0.00000000000E+00  0.00000000000E+00  0.10000961563E+04  0.10000961563E+04  0.51100000000E-03 0.  1.
          2   -1    0    0  501    0 -0.00000000000E+00 -0.00000000000E+00 -0.24991257047E+03  0.24991257049E+03  0.25500000000E-02 0.  1.
         11    1    1    2    0    0  0.16002891504E+03  0.13306208862E+02  0.79519329577E+03  0.81124514574E+03  0.51100000000E-03 0.  1.
         22    1    1    2    0    0 -0.19576133479E+02  0.64698583505E+02  0.16269283400E+03  0.17617630358E+03  0.00000000000E+00 0.  1.
          2    1    1    2  501    0 -0.14045278156E+03 -0.78004792367E+02 -0.20770254399E+03  0.26258727742E+03  0.25500000000E-02 0.  1.
<mgrwt>
<rscale>  0 0.16020278E+03</rscale>
<asrwt>0</asrwt>
<pdfrwt beam="1">  1       11 0.10000000E+01 0.67595353E+02</pdfrwt>
<pdfrwt beam="2">  1        2 0.38451784E-01 0.16020278E+03</pdfrwt>
<totfact> 0.16467486E+02</totfact>
</mgrwt>
</event>
<event>
 5    1  0.6729100E-004  0.9933979E+02  0.7818608E-02  0.1281690E+00
         11   -1    0    0    0    0  0.00000000000E+00  0.00000000000E+00  0.10003739119E+04  0.10003739119E+04  0.51100000000E-03 0.  1.
          2   -1    0    0  501    0 -0.00000000000E+00 -0.00000000000E+00 -0.18088262494E+02  0.18088262674E+02  0.25500000000E-02 0.  1.
         11    1    1    2    0    0  0.85506123949E+02  0.32469234188E+02  0.19803432755E+03  0.21813560757E+03  0.51100000000E-03 0.  1.
         22    1    1    2    0    0  0.19190851144E+02  0.30829342799E+02  0.21857335958E+03  0.22156951655E+03  0.00000000000E+00 0.  1.
          2    1    1    2  501    0 -0.10469697509E+03 -0.63298576988E+02  0.56567796226E+03  0.57875705044E+03  0.25500000000E-02 0.  1.
<mgrwt>
<rscale>  0 0.99339787E+02</rscale>
<asrwt>0</asrwt>
<pdfrwt beam="1">  1       11 0.10000000E+01 0.36314421E+02</pdfrwt>
<pdfrwt beam="2">  1        2 0.27838501E-02 0.99339787E+02</pdfrwt>
<totfact> 0.38567043E+03</totfact>
</mgrwt>
</event>
<event>
 5    1  0.6729100E-004  0.1610703E+03  0.7818608E-02  0.1264935E+00
         11   -1    0    0    0    0  0.00000000000E+00  0.00000000000E+00  0.10001739702E+04  0.10001739702E+04  0.51100000000E-03 0.  1.
          2   -1    0    0  501    0 -0.00000000000E+00 -0.00000000000E+00 -0.15328202929E+03  0.15328202931E+03  0.25500000000E-02 0.  1.
         11    1    1    2    0    0  0.85741679299E+02  0.14453917460E+03  0.54095397259E+03  0.56645777338E+03  0.51100000000E-03 0.  1.
         22    1    1    2    0    0  0.18702397688E+02 -0.17072228954E+03  0.40548505183E+03  0.44035668166E+03  0.00000000000E+00 0.  1.
          2    1    1    2  501    0 -0.10444407699E+03  0.26183114945E+02 -0.99547083501E+02  0.14664154447E+03  0.25500000000E-02 0.  1.
<mgrwt>
<rscale>  0 0.10767600E+03</rscale>
<asrwt>0</asrwt>
<pdfrwt beam="1">  1       11 0.10000000E+01 0.16107029E+03</pdfrwt>
<pdfrwt beam="2">  1        2 0.23585953E-01 0.10767600E+03</pdfrwt>
<totfact> 0.27748256E+02</totfact>
</mgrwt>
</event>
<event>
 5    1  0.6729100E-004  0.1575913E+03  0.7818608E-02  0.1536037E+00
         11   -1    0    0    0    0  0.00000000000E+00  0.00000000000E+00  0.10005745128E+04  0.10005745128E+04  0.51100000000E-03 0. -1.
          2   -1    0    0  501    0 -0.00000000000E+00 -0.00000000000E+00 -0.10948011103E+04  0.10948011103E+04  0.25500000000E-02 0. -1.
         11    1    1    2    0    0 -0.82396423576E+02 -0.13330357401E+03  0.67395273066E+03  0.69193301455E+03  0.51100000000E-03 0. -1.
         22    1    1    2    0    0  0.52278662953E+02  0.15384550617E+03  0.29651926361E+03  0.33812005569E+03  0.00000000000E+00 0. -1.
          2    1    1    2  501    0  0.30117760623E+02 -0.20541932152E+02 -0.10646985918E+04  0.10653225529E+04  0.25500000000E-02 0. -1.
<mgrwt>
<rscale>  0 0.36456145E+02</rscale>
<asrwt>0</asrwt>
<pdfrwt beam="1">  1       11 0.10000000E+01 0.15759130E+03</pdfrwt>
<pdfrwt beam="2">  1        2 0.16852770E+00 0.36456145E+02</pdfrwt>
<totfact> 0.32257477E+01</totfact>
</mgrwt>
</event>
<event>
 5    1  0.6729100E-004  0.1537908E+03  0.7818608E-02  0.1195891E+00
         11   -1    0    0    0    0  0.00000000000E+00  0.00000000000E+00  0.10003548090E+04  0.10003548090E+04  0.51100000000E-03 0.  1.
          2   -1    0    0  501    0 -0.00000000000E+00 -0.00000000000E+00 -0.28504106182E+02  0.28504106296E+02  0.25500000000E-02 0.  1.
         11    1    1    2    0    0  0.14873831813E+03  0.64756387319E+01  0.55767685397E+03  0.57720749703E+03  0.51100000000E-03 0.  1.
         22    1    1    2    0    0  0.80748285644E+01 -0.16192597023E+02  0.85001150596E+02  0.86905688291E+02  0.00000000000E+00 0.  1.
          2    1    1    2  501    0 -0.15681314669E+03  0.97169582908E+01  0.32917269825E+03  0.36474572998E+03  0.25500000000E-02 0.  1.
<mgrwt>
<rscale>  0 0.15379075E+03</rscale>
<asrwt>0</asrwt>
<pdfrwt beam="1">  1       11 0.10000000E+01 0.18094282E+02</pdfrwt>
<pdfrwt beam="2">  1        2 0.43868029E-02 0.15379075E+03</pdfrwt>
<totfact> 0.21990306E+03</totfact>
</mgrwt>
</event>
<event>
 5    1  0.6729100E-004  0.1102486E+03  0.7818608E-02  0.1260110E+00
         11   -1    0    0    0    0  0.00000000000E+00  0.00000000000E+00  0.10005261846E+04  0.10005261846E+04  0.51100000000E-03 0. -1.
          2   -1    0    0  501    0 -0.00000000000E+00 -0.00000000000E+00 -0.26204257215E+04  0.26204257215E+04  0.25500000000E-02 0. -1.
         11    1    1    2    0    0  0.53243188971E+02  0.16438059049E+03  0.40794655047E+03  0.44303070293E+03  0.51100000000E-03 0. -1.
         22    1    1    2    0    0 -0.89392068583E+02 -0.60307251687E+02  0.56880389086E+03  0.57893503331E+03  0.00000000000E+00 0.  1.
          2    1    1    2  501    0  0.36148879612E+02 -0.10407333880E+03 -0.25966499783E+04  0.25989861698E+04  0.25500000000E-02 0. -1.
<mgrwt>
<rscale>  0 0.11024863E+03</rscale>
<asrwt>0</asrwt>
<pdfrwt beam="1">  1       11 0.10000000E+01 0.10783277E+03</pdfrwt>
<pdfrwt beam="2">  1        2 0.40335453E+00 0.11024863E+03</pdfrwt>
<totfact> 0.48525292E+00</totfact>
</mgrwt>
</event>
<event>
 5    1  0.6729100E-004  0.2160634E+03  0.7818608E-02  0.1136852E+00
         11   -1    0    0    0    0  0.00000000000E+00  0.00000000000E+00  0.10007595697E+04  0.10007595697E+04  0.51100000000E-03 0. -1.
          2   -1    0    0  501    0 -0.00000000000E+00 -0.00000000000E+00 -0.11622654369E+04  0.11622654369E+04  0.25500000000E-02 0. -1.
         11    1    1    2    0    0  0.29069660435E+03  0.77198830306E+02  0.63993474905E+03  0.70709310435E+03  0.51100000000E-03 0. -1.
         22    1    1    2    0    0 -0.13201793411E+03  0.68277935343E+02  0.29938842984E+03  0.33425146717E+03  0.00000000000E+00 0.  1.
          2    1    1    2  501    0 -0.15867867023E+03 -0.14547676565E+03 -0.11008290460E+04  0.11216804350E+04  0.25500000000E-02 0. -1.
<mgrwt>
<rscale>  0 0.21606336E+03</rscale>
<asrwt>0</asrwt>
<pdfrwt beam="1">  1       11 0.10000000E+01 0.14862911E+03</pdfrwt>
<pdfrwt beam="2">  1        2 0.17894588E+00 0.21606336E+03</pdfrwt>
<totfact> 0.26615848E+01</totfact>
</mgrwt>
</event>
<event>
 5    1  0.6729100E-004  0.5655886E+03  0.7818608E-02  0.9979488E-01
         11   -1    0    0    0    0  0.00000000000E+00  0.00000000000E+00  0.99986623112E+03  0.99986623112E+03  0.51100000000E-03 0. -1.
          2   -1    0    0  501    0 -0.00000000000E+00 -0.00000000000E+00 -0.87165690590E+03  0.87165690590E+03  0.25500000000E-02 0.  1.
         11    1    1    2    0    0 -0.39535513593E+03  0.39517084780E+03  0.79151125139E+03  0.96899728768E+03  0.51100000000E-03 0. -1.
         22    1    1    2    0    0 -0.16009043688E+02 -0.58518582422E+01  0.12226719755E+02  0.20976806255E+02  0.00000000000E+00 0. -1.
          2    1    1    2  501    0  0.41136417961E+03 -0.38931898955E+03 -0.67552864592E+03  0.88154904308E+03  0.25500000000E-02 0.  1.
<mgrwt>
<rscale>  0 0.56558859E+03</rscale>
<asrwt>0</asrwt>
<pdfrwt beam="1">  1       11 0.10000000E+01 0.17045050E+02</pdfrwt>
<pdfrwt beam="2">  1        2 0.13408312E+00 0.56558859E+03</pdfrwt>
<totfact> 0.38501272E+01</totfact>
</mgrwt>
</event>
<event>
 5    1  0.6729100E-004  0.1341130E+03  0.7818608E-02  0.1221477E+00
         11   -1    0    0    0    0  0.00000000000E+00  0.00000000000E+00  0.10004626186E+04  0.10004626186E+04  0.51100000000E-03 0. -1.
          2   -1    0    0  501    0 -0.00000000000E+00 -0.00000000000E+00 -0.90536262980E+02  0.90536263016E+02  0.25500000000E-02 0. -1.
         11    1    1    2    0    0  0.99482635040E+02 -0.88569600704E+02  0.57776197083E+03  0.59291674270E+03  0.51100000000E-03 0. -1.
         22    1    1    2    0    0 -0.48041726488E+02 -0.36683060798E+02  0.35556861656E+03  0.36066978736E+03  0.00000000000E+00 0. -1.
          2    1    1    2  501    0 -0.51440908552E+02  0.12525266150E+03 -0.23404231771E+02  0.13741235155E+03  0.25500000000E-02 0. -1.
<mgrwt>
<rscale>  0 0.13411302E+03</rscale>
<asrwt>0</asrwt>
<pdfrwt beam="1">  1       11 0.10000000E+01 0.60445467E+02</pdfrwt>
<pdfrwt beam="2">  1        2 0.13935099E-01 0.13411302E+03</pdfrwt>
<totfact> 0.50984799E+02</totfact>
</mgrwt>
</event>
<event>
 5    1  0.6729100E-004  0.1307440E+03  0.7818608E-02  0.1670902E+00
         11   -1    0    0    0    0  0.00000000000E+00  0.00000000000E+00  0.10001646004E+04  0.10001646004E+04  0.51100000000E-03 0.  1.
         -2   -1    0    0    0  501 -0.00000000000E+00 -0.00000000000E+00 -0.41758005395E+02  0.41758005473E+02  0.25500000000E-02 0. -1.
         11    1    1    2    0    0 -0.91598218936E+02 -0.85717125998E+02  0.34648439732E+03  0.36849572181E+03  0.51100000000E-03 0.  1.
         22    1    1    2    0    0  0.11287977112E+03  0.73937281662E+02  0.62925383564E+03  0.64355959632E+03  0.00000000000E+00 0. -1.
         -2    1    1    2    0  501 -0.21281552182E+02  0.11779844336E+02 -0.17331637965E+02  0.29867287740E+02  0.25500000000E-02 0. -1.
<mgrwt>
<rscale>  0 0.24324251E+02</rscale>
<asrwt>0</asrwt>
<pdfrwt beam="1">  1       11 0.10000000E+01 0.13074397E+03</pdfrwt>
<pdfrwt beam="2">  1       -2 0.64253658E-02 0.24324251E+02</pdfrwt>
<totfact> 0.85155277E+02</totfact>
</mgrwt>
</event>
<event>
 5    1  0.6729100E-004  0.1044840E+03  0.7818608E-02  0.1271140E+00
         11   -1    0    0    0    0  0.00000000000E+00  0.00000000000E+00  0.10003185908E+04  0.10003185908E+04  0.51100000000E-03 0.  1.
          2   -1    0    0  501    0 -0.00000000000E+00 -0.00000000000E+00 -0.12684516844E+02  0.12684517100E+02  0.25500000000E-02 0.  1.
         11    1    1    2    0    0 -0.86992655147E+02  0.63642037146E+02  0.40344295992E+03  0.41759340614E+03  0.51100000000E-03 0.  1.
         22    1    1    2    0    0  0.13282639974E+02  0.50775423589E+01  0.77696882555E+02  0.78987439001E+02  0.00000000000E+00 0. -1.
          2    1    1    2  501    0  0.73710015173E+02 -0.68719579504E+02  0.50649423146E+03  0.51642226274E+03  0.25500000000E-02 0.  1.
<mgrwt>
<rscale>  0 0.10448397E+03</rscale>
<asrwt>0</asrwt>
<pdfrwt beam="1">  1       11 0.10000000E+01 0.14220055E+02</pdfrwt>
<pdfrwt beam="2">  1        2 0.19520858E-02 0.10448397E+03</pdfrwt>
<totfact> 0.62565428E+03</totfact>
</mgrwt>
</event>
<event>
 5    1  0.6729100E-004  0.2484161E+03  0.7818608E-02  0.1114310E+00
         11   -1    0    0    0    0  0.00000000000E+00  0.00000000000E+00  0.10002167145E+04  0.10002167145E+04  0.51100000000E-03 0. -1.
          2   -1    0    0  501    0 -0.00000000000E+00 -0.00000000000E+00 -0.54095026637E+03  0.54095026637E+03  0.25500000000E-02 0. -1.
         11    1    1    2    0    0  0.24730663835E+03  0.61135289793E+01  0.91541429052E+03  0.94825169227E+03  0.51100000000E-03 0. -1.
         22    1    1    2    0    0  0.11112901376E+01 -0.10437645066E+02  0.38214719997E+02  0.39630092414E+02  0.00000000000E+00 0.  1.
          2    1    1    2  501    0 -0.24841792848E+03  0.43241160868E+01 -0.49436256241E+03  0.55328519616E+03  0.25500000000E-02 0. -1.
<mgrwt>
<rscale>  0 0.24841614E+03</rscale>
<asrwt>0</asrwt>
<pdfrwt beam="1">  1       11 0.10000000E+01 0.10496638E+02</pdfrwt>
<pdfrwt beam="2">  1        2 0.83241151E-01 0.24841614E+03</pdfrwt>
<totfact> 0.71017856E+01</totfact>
</mgrwt>
</event>
<event>
 5    1  0.6729100E-004  0.1175102E+03  0.7818608E-02  0.1247262E+00
         11   -1    0    0    0    0  0.00000000000E+00  0.00000000000E+00  0.10000850801E+04  0.10000850801E+04  0.51100000000E-03 0.  1.
          2   -1    0    0  501    0 -0.00000000000E+00 -0.00000000000E+00 -0.13647349604E+02  0.13647349842E+02  0.25500000000E-02 0.  1.
         11    1    1    2    0    0  0.10377267814E+03 -0.46413254087E+02  0.55862837380E+03  0.57007773057E+03  0.51100000000E-03 0.  1.
         22    1    1    2    0    0 -0.16090186635E+02 -0.31512524981E+01  0.73537341299E+02  0.75342982842E+02  0.00000000000E+00 0.  1.
          2    1    1    2  501    0 -0.87682491500E+02  0.49564506585E+02  0.35427201536E+03  0.36831171649E+03  0.25500000000E-02 0.  1.
<mgrwt>
<rscale>  0 0.11751020E+03</rscale>
<asrwt>0</asrwt>
<pdfrwt beam="1">  1       11 0.10000000E+01 0.11367919E+03</pdfrwt>
<pdfrwt beam="2">  1        2 0.20997708E-02 0.11751020E+03</pdfrwt>
<totfact> 0.57497640E+03</totfact>
</mgrwt>
</event>
<event>
 5    1  0.6729100E-004  0.1541598E+03  0.7818608E-02  0.1195453E+00
         11   -1    0    0    0    0  0.00000000000E+00  0.00000000000E+00  0.99985856627E+03  0.99985856627E+03  0.51100000000E-03 0. -1.
         -2   -1    0    0    0  501 -0.00000000000E+00 -0.00000000000E+00 -0.26686681260E+02  0.26686681382E+02  0.25500000000E-02 0.  1.
         11    1    1    2    0    0  0.14238347663E+03  0.77469553140E+01  0.68546840224E+03  0.70014284271E+03  0.51100000000E-03 0. -1.
         22    1    1    2    0    0 -0.31843141059E+02 -0.45197740512E+01  0.12913574360E+03  0.13308063069E+03  0.00000000000E+00 0.  1.
         -2    1    1    2    0  501 -0.11054033557E+03 -0.32271812628E+01  0.15856773918E+03  0.19332177426E+03  0.25500000000E-02 0.  1.
<mgrwt>
<rscale>  0 0.15415977E+03</rscale>
<asrwt>0</asrwt>
<pdfrwt beam="1">  1       11 0.10000000E+01 0.14259407E+03</pdfrwt>
<pdfrwt beam="2">  1       -2 0.41050625E-02 0.15415977E+03</pdfrwt>
<totfact> 0.20072983E+03</totfact>
</mgrwt>
</event>
<event>
 5    1  0.6729100E-004  0.9306927E+02  0.7818608E-02  0.1387962E+00
         11   -1    0    0    0    0  0.00000000000E+00  0.00000000000E+00  0.10002214394E+04  0.10002214394E+04  0.51100000000E-03 0. -1.
          2   -1    0    0  501    0 -0.00000000000E+00 -0.00000000000E+00 -0.15509784693E+02  0.15509784902E+02  0.25500000000E-02 0. -1.
         11    1    1    2    0    0 -0.61998571552E+02 -0.86837815126E+02  0.55792862880E+03  0.56803959707E+03  0.51100000000E-03 0. -1.
         22    1    1    2    0    0  0.41394841757E+02  0.62191800625E+01  0.72023853622E+02  0.83304541385E+02  0.00000000000E+00 0.  1.
          2    1    1    2  501    0  0.20603729795E+02  0.80618635064E+02  0.35475917225E+03  0.36438708581E+03  0.25500000000E-02 0. -1.
<mgrwt>
<rscale>  0 0.62416535E+02</rscale>
<asrwt>0</asrwt>
<pdfrwt beam="1">  1       11 0.10000000E+01 0.93069272E+02</pdfrwt>
<pdfrwt beam="2">  1        2 0.23866491E-02 0.62416535E+02</pdfrwt>
<totfact> 0.44700960E+03</totfact>
</mgrwt>
</event>
<event>
 5    1  0.6729100E-004  0.2778345E+03  0.7818608E-02  0.1096878E+00
         11   -1    0    0    0    0  0.00000000000E+00  0.00000000000E+00  0.10002936488E+04  0.10002936488E+04  0.51100000000E-03 0. -1.
          2   -1    0    0  501    0 -0.00000000000E+00 -0.00000000000E+00 -0.93628249825E+02  0.93628249860E+02  0.25500000000E-02 0. -1.
         11    1    1    2    0    0  0.18671557829E+03  0.21419581374E+03  0.58371564396E+03  0.64920451847E+03  0.51100000000E-03 0. -1.
         22    1    1    2    0    0  0.11027018077E+02 -0.23289625604E+02  0.55601576064E+02  0.61282436711E+02  0.00000000000E+00 0. -1.
          2    1    1    2  501    0 -0.19774259637E+03 -0.19090618814E+03  0.26734817897E+03  0.38343494349E+03  0.25500000000E-02 0. -1.
<mgrwt>
<rscale>  0 0.27783452E+03</rscale>
<asrwt>0</asrwt>
<pdfrwt beam="1">  1       11 0.10000000E+01 0.25768232E+02</pdfrwt>
<pdfrwt beam="2">  1        2 0.14408576E-01 0.27783452E+03</pdfrwt>
<totfact> 0.50454795E+02</totfact>
</mgrwt>
</event>
<event>
 5    1  0.6729100E-004  0.1440530E+03  0.7818608E-02  0.1207977E+00
         11   -1    0    0    0    0  0.00000000000E+00  0.00000000000E+00  0.10005837585E+04  0.10005837585E+04  0.51100000000E-03 0.  1.
         -2   -1    0    0    0  501 -0.00000000000E+00 -0.00000000000E+00 -0.11590183812E+03  0.11590183814E+03  0.25500000000E-02 0. -1.
         11    1    1    2    0    0  0.16269270691E+03 -0.49222788700E+02  0.75588733100E+03  0.77476283918E+03  0.51100000000E-03 0.  1.
         22    1    1    2    0    0 -0.20818022222E+02  0.34962064851E+02  0.18427934088E+03  0.18871833908E+03  0.00000000000E+00 0.  1.
         -2    1    1    2    0  501 -0.14187468468E+03  0.14260723849E+02 -0.55484751479E+02  0.15300441841E+03  0.25500000000E-02 0. -1.
<mgrwt>
<rscale>  0 0.14405300E+03</rscale>
<asrwt>0</asrwt>
<pdfrwt beam="1">  1       11 0.10000000E+01 0.40690736E+02</pdfrwt>
<pdfrwt beam="2">  1       -2 0.17841461E-01 0.14405300E+03</pdfrwt>
<totfact> 0.20077906E+02</totfact>
</mgrwt>
</event>
<event>
 5    1  0.6729100E-004  0.2619007E+03  0.7818608E-02  0.1120432E+00
         11   -1    0    0    0    0  0.00000000000E+00  0.00000000000E+00  0.10001991305E+04  0.10001991305E+04  0.51100000000E-03 0. -1.
          2   -1    0    0  501    0 -0.00000000000E+00 -0.00000000000E+00 -0.16490381318E+03  0.16490381320E+03  0.25500000000E-02 0. -1.
         11    1    1    2    0    0  0.20243049074E+03  0.20598894121E+03  0.47749931153E+03  0.55804582249E+03  0.51100000000E-03 0. -1.
         22    1    1    2    0    0  0.69272190172E+02 -0.20689092059E+03  0.14544648201E+03  0.26221588144E+03  0.00000000000E+00 0.  1.
          2    1    1    2  501    0 -0.27170268092E+03  0.90197937493E+00  0.21234952377E+03  0.34484123975E+03  0.25500000000E-02 0. -1.
<mgrwt>
<rscale>  0 0.23904285E+03</rscale>
<asrwt>0</asrwt>
<pdfrwt beam="1">  1       11 0.10000000E+01 0.26190072E+03</pdfrwt>
<pdfrwt beam="2">  1        2 0.25374869E-01 0.23904285E+03</pdfrwt>
<totfact> 0.26092480E+02</totfact>
</mgrwt>
</event>
<event>
 5    1  0.6729100E-004  0.1293109E+03  0.7818608E-02  0.1228482E+00
         11   -1    0    0    0    0  0.00000000000E+00  0.00000000000E+00  0.99984579236E+03  0.99984579236E+03  0.51100000000E-03 0.  1.
          2   -1    0    0  501    0 -0.00000000000E+00 -0.00000000000E+00 -0.82712303991E+03  0.82712303991E+03  0.25500000000E-02 0. -1.
         11    1    1    2    0    0 -0.14765889457E+03 -0.14613382865E+02  0.45136969470E+03  0.47513293024E+03  0.51100000000E-03 0.  1.
         22    1    1    2    0    0  0.69489519264E+02  0.11762240188E+03  0.52263061953E+03  0.54019125056E+03  0.00000000000E+00 0.  1.
          2    1    1    2  501    0  0.78169375303E+02 -0.10300901901E+03 -0.80127756178E+03  0.81164465147E+03  0.25500000000E-02 0. -1.
<mgrwt>
<rscale>  0 0.12931090E+03</rscale>
<asrwt>0</asrwt>
<pdfrwt beam="1">  1       11 0.10000000E+01 0.12650093E+03</pdfrwt>
<pdfrwt beam="2">  1        2 0.12723007E+00 0.12931090E+03</pdfrwt>
<totfact> 0.43687520E+01</totfact>
</mgrwt>
</event>
<event>
 5    1  0.6729100E-004  0.1640227E+03  0.7818608E-02  0.1720335E+00
         11   -1    0    0    0    0  0.00000000000E+00  0.00000000000E+00  0.99991980593E+03  0.99991980593E+03  0.51100000000E-03 0.  1.
          2   -1    0    0  501    0 -0.00000000000E+00 -0.00000000000E+00 -0.14974644436E+03  0.14974644438E+03  0.25500000000E-02 0.  1.
         11    1    1    2    0    0 -0.16162085402E+03 -0.79454621174E+02  0.71722430321E+02  0.19385160379E+03  0.51100000000E-03 0.  1.
         22    1    1    2    0    0  0.14036164420E+03  0.81026241265E+02  0.85814682195E+03  0.87331701630E+03  0.00000000000E+00 0.  1.
          2    1    1    2  501    0  0.21259209821E+02 -0.15716200911E+01 -0.79695890696E+02  0.82497630222E+02  0.25500000000E-02 0.  1.
<mgrwt>
<rscale>  0 0.21317223E+02</rscale>
<asrwt>0</asrwt>
<pdfrwt beam="1">  1       11 0.10000000E+01 0.16402271E+03</pdfrwt>
<pdfrwt beam="2">  1        2 0.23036066E-01 0.21317223E+02</pdfrwt>
<totfact> 0.26626495E+02</totfact>
</mgrwt>
</event>
<event>
 5    1  0.6729100E-004  0.2286360E+03  0.7818608E-02  0.1127603E+00
         11   -1    0    0    0    0  0.00000000000E+00  0.00000000000E+00  0.10002863671E+04  0.10002863671E+04  0.51100000000E-03 0. -1.
          2   -1    0    0  501    0 -0.00000000000E+00 -0.00000000000E+00 -0.68023544465E+02  0.68023544512E+02  0.25500000000E-02 0. -1.
         11    1    1    2    0    0  0.21280676121E+03  0.12212027132E+03  0.50710652907E+03  0.56334457494E+03  0.51100000000E-03 0. -1.
         22    1    1    2    0    0 -0.12946815301E+02 -0.32211252538E+02  0.14595771055E+03  0.15002945740E+03  0.00000000000E+00 0.  1.
          2    1    1    2  501    0 -0.19985994591E+03 -0.89909018785E+02  0.27919858300E+03  0.35493587927E+03  0.25500000000E-02 0. -1.
<mgrwt>
<rscale>  0 0.22863602E+03</rscale>
<asrwt>0</asrwt>
<pdfrwt beam="1">  1       11 0.10000000E+01 0.34715772E+02</pdfrwt>
<pdfrwt beam="2">  1        2 0.10468157E-01 0.22863602E+03</pdfrwt>
<totfact> 0.73877616E+02</totfact>
</mgrwt>
</event>
<event>
 5    1  0.6729100E-004  0.1734661E+03  0.7818608E-02  0.1174281E+00
         11   -1    0    0    0    0  0.00000000000E+00  0.00000000000E+00  0.10003309131E+04  0.10003309131E+04  0.51100000000E-03 0. -1.
          2   -1    0    0  501    0 -0.00000000000E+00 -0.00000000000E+00 -0.76853410267E+02  0.76853410309E+02  0.25500000000E-02 0. -1.
         11    1    1    2    0    0 -0.51310200464E+02 -0.17036706772E+03  0.84898909505E+03  0.86743308558E+03  0.51100000000E-03 0. -1.
         22    1    1    2    0    0  0.10623262715E+02  0.23078411585E+01  0.28975310656E+02  0.30947511518E+02  0.00000000000E+00 0. -1.
          2    1    1    2  501    0  0.40686937749E+02  0.16805922656E+03  0.45513097158E+02  0.17880372635E+03  0.25500000000E-02 0. -1.
<mgrwt>
<rscale>  0 0.17346609E+03</rscale>
<asrwt>0</asrwt>
<pdfrwt beam="1">  1       11 0.10000000E+01 0.10871055E+02</pdfrwt>
<pdfrwt beam="2">  1        2 0.11827514E-01 0.17346609E+03</pdfrwt>
<totfact> 0.62778447E+02</totfact>
</mgrwt>
</event>
<event>
 5    1  0.6729100E-004  0.1756485E+03  0.7818608E-02  0.1172082E+00
         11   -1    0    0    0    0  0.00000000000E+00  0.00000000000E+00  0.99989363745E+03  0.99989363745E+03  0.51100000000E-03 0.  1.
          2   -1    0    0  501    0 -0.00000000000E+00 -0.00000000000E+00 -0.81553321638E+03  0.81553321638E+03  0.25500000000E-02 0.  1.
         11    1    1    2    0    0 -0.14807068094E+03 -0.60020418071E+02  0.93011747506E+03  0.94374037455E+03  0.51100000000E-03 0.  1.
         22    1    1    2    0    0 -0.21090132263E+02  0.12088117869E+02  0.50608085671E+02  0.56143517950E+02  0.00000000000E+00 0.  1.
          2    1    1    2  501    0  0.16916081320E+03  0.47932300202E+02 -0.79636513965E+03  0.81554296134E+03  0.25500000000E-02 0.  1.
<mgrwt>
<rscale>  0 0.17564852E+03</rscale>
<asrwt>0</asrwt>
<pdfrwt beam="1">  1       11 0.10000000E+01 0.24308769E+02</pdfrwt>
<pdfrwt beam="2">  1        2 0.12545330E+00 0.17564852E+03</pdfrwt>
<totfact> 0.43952933E+01</totfact>
</mgrwt>
</event>
<event>
 5    1  0.6729100E-004  0.2933784E+03  0.7818608E-02  0.1088598E+00
         11   -1    0    0    0    0  0.00000000000E+00  0.00000000000E+00  0.99940894567E+03  0.99940894567E+03  0.51100000000E-03 0. -1.
          2   -1    0    0  501    0 -0.00000000000E+00 -0.00000000000E+00 -0.33064860897E+04  0.33064860897E+04  0.25500000000E-02 0. -1.
         11    1    1    2    0    0 -0.12283347759E+03 -0.19784491831E+02  0.11946973103E+03  0.17248914738E+03  0.51100000000E-03 0. -1.
         22    1    1    2    0    0 -0.55121333226E+02  0.25359935319E+03  0.82692496778E+03  0.86669250352E+03  0.00000000000E+00 0. -1.
          2    1    1    2  501    0  0.17795481081E+03 -0.23381486136E+03 -0.32534718429E+04  0.32667133845E+04  0.25500000000E-02 0. -1.
<mgrwt>
<rscale>  0 0.29337842E+03</rscale>
<asrwt>0</asrwt>
<pdfrwt beam="1">  1       11 0.10000000E+01 0.12441660E+03</pdfrwt>
<pdfrwt beam="2">  1        2 0.50838949E+00 0.29337842E+03</pdfrwt>
<totfact> 0.16812493E+00</totfact>
</mgrwt>
</event>
<event>
 5    1  0.6729100E-004  0.3053232E+03  0.7818608E-02  0.1082609E+00
         11   -1    0    0    0    0  0.00000000000E+00  0.00000000000E+00  0.10007000411E+04  0.10007000411E+04  0.51100000000E-03 0. -1.
          2   -1    0    0  501    0 -0.00000000000E+00 -0.00000000000E+00 -0.19626713664E+04  0.19626713664E+04  0.25500000000E-02 0. -1.
         11    1    1    2    0    0 -0.31496696079E+03  0.97404967422E+01  0.93307316220E+03  0.98484749565E+03  0.51100000000E-03 0. -1.
         22    1    1    2    0    0  0.10062335719E+02  0.36993153754E+01  0.28743098712E+02  0.30677373713E+02  0.00000000000E+00 0.  1.
          2    1    1    2  501    0  0.30490462507E+03 -0.13439812118E+02 -0.19237875863E+04  0.19478465381E+04  0.25500000000E-02 0. -1.
<mgrwt>
<rscale>  0 0.30532321E+03</rscale>
<asrwt>0</asrwt>
<pdfrwt beam="1">  1       11 0.10000000E+01 0.10720799E+02</pdfrwt>
<pdfrwt beam="2">  1        2 0.30216081E+00 0.30532321E+03</pdfrwt>
<totfact> 0.96195721E+00</totfact>
</mgrwt>
</event>
<event>
 5    1  0.6729100E-004  0.1095425E+03  0.7818608E-02  0.1530095E+00
         11   -1    0    0    0    0  0.00000000000E+00  0.00000000000E+00  0.10001650202E+04  0.10001650202E+04  0.51100000000E-03 0.  1.
          2   -1    0    0  501    0 -0.00000000000E+00 -0.00000000000E+00 -0.26404539817E+03  0.26404539818E+03  0.25500000000E-02 0.  1.
         11    1    1    2    0    0  0.23778426959E+02 -0.91299491498E+02  0.42082846481E+03  0.43127439934E+03  0.51100000000E-03 0.  1.
         22    1    1    2    0    0 -0.32186558843E+02  0.12751089381E+03  0.56518937178E+03  0.58028788423E+03  0.00000000000E+00 0. -1.
          2    1    1    2  501    0  0.84081318837E+01 -0.36211402311E+02 -0.24989821460E+03  0.25264813477E+03  0.25500000000E-02 0.  1.
<mgrwt>
<rscale>  0 0.37174754E+02</rscale>
<asrwt>0</asrwt>
<pdfrwt beam="1">  1       11 0.10000000E+01 0.10954252E+03</pdfrwt>
<pdfrwt beam="2">  1        2 0.40629071E-01 0.37174754E+02</pdfrwt>
<totfact> 0.15223267E+02</totfact>
</mgrwt>
</event>
<event>
 5    1  0.6729100E-004  0.4016842E+03  0.7818608E-02  0.1043198E+00
         11   -1    0    0    0    0  0.00000000000E+00  0.00000000000E+00  0.99999060457E+03  0.99999060457E+03  0.51100000000E-03 0.  1.
          2   -1    0    0  501    0 -0.00000000000E+00 -0.00000000000E+00 -0.48310670980E+03  0.48310670981E+03  0.25500000000E-02 0.  1.
         11    1    1    2    0    0 -0.39025998617E+03 -0.45491599695E+02  0.68044005854E+03  0.78572960725E+03  0.51100000000E-03 0.  1.
         22    1    1    2    0    0 -0.14360028762E+01 -0.49998075303E+02  0.16805634108E+03  0.17534196137E+03  0.00000000000E+00 0.  1.
          2    1    1    2  501    0  0.39169598904E+03  0.95489674998E+02 -0.33161250485E+03  0.52202574576E+03  0.25500000000E-02 0.  1.
<mgrwt>
<rscale>  0 0.40168424E+03</rscale>
<asrwt>0</asrwt>
<pdfrwt beam="1">  1       11 0.10000000E+01 0.50018693E+02</pdfrwt>
<pdfrwt beam="2">  1        2 0.74323409E-01 0.40168424E+03</pdfrwt>
<totfact> 0.80108323E+01</totfact>
</mgrwt>
</event>
<event>
 5    1  0.6729100E-004  0.1388276E+03  0.7818608E-02  0.1214915E+00
         11   -1    0    0    0    0  0.00000000000E+00  0.00000000000E+00  0.10003099692E+04  0.10003099692E+04  0.51100000000E-03 0.  1.
          2   -1    0    0  501    0 -0.00000000000E+00 -0.00000000000E+00 -0.66235810420E+02  0.66235810469E+02  0.25500000000E-02 0.  1.
         11    1    1    2    0    0  0.84457244632E+02 -0.10897755980E+03  0.23418873508E+02  0.13984841203E+03  0.51100000000E-03 0.  1.
         22    1    1    2    0    0  0.20083337502E+02  0.19579093242E+01  0.70717755820E+02  0.73540294005E+02  0.00000000000E+00 0. -1.
          2    1    1    2  501    0 -0.10454058213E+03  0.10701965048E+03  0.83993752940E+03  0.85315707359E+03  0.25500000000E-02 0.  1.
<mgrwt>
<rscale>  0 0.13882763E+03</rscale>
<asrwt>0</asrwt>
<pdfrwt beam="1">  1       11 0.10000000E+01 0.20178549E+02</pdfrwt>
<pdfrwt beam="2">  1        2 0.10193283E-01 0.13882763E+03</pdfrwt>
<totfact> 0.74397240E+02</totfact>
</mgrwt>
</event>
<event>
 5    1  0.6729100E-004  0.5102778E+03  0.7818608E-02  0.1012549E+00
         11   -1    0    0    0    0  0.00000000000E+00  0.00000000000E+00  0.10001692736E+04  0.10001692736E+04  0.51100000000E-03 0.  1.
         -2   -1    0    0    0  501 -0.00000000000E+00 -0.00000000000E+00 -0.79006633463E+03  0.79006633464E+03  0.25500000000E-02 0. -1.
         11    1    1    2    0    0  0.36301838341E+03 -0.32739501086E+03  0.78085901302E+03  0.92125492565E+03  0.51100000000E-03 0.  1.
         22    1    1    2    0    0  0.74030125599E+01 -0.15463152527E+02  0.59272164244E+02  0.61701727166E+02  0.00000000000E+00 0.  1.
         -2    1    1    2    0  501 -0.37042139597E+03  0.34285816339E+03 -0.63002823830E+03  0.80727895541E+03  0.25500000000E-02 0. -1.
<mgrwt>
<rscale>  0 0.50474125E+03</rscale>
<asrwt>0</asrwt>
<pdfrwt beam="1">  1       11 0.10000000E+01 0.51027775E+03</pdfrwt>
<pdfrwt beam="2">  1       -2 0.12156924E+00 0.50474125E+03</pdfrwt>
<totfact> 0.42703060E+00</totfact>
</mgrwt>
</event>
<event>
 5    1  0.6729100E-004  0.1089776E+03  0.7818608E-02  0.1609523E+00
         11   -1    0    0    0    0  0.00000000000E+00  0.00000000000E+00  0.99988034671E+03  0.99988034671E+03  0.51100000000E-03 0.  1.
         -2   -1    0    0    0  501 -0.00000000000E+00 -0.00000000000E+00 -0.48099841628E+02  0.48099841696E+02  0.25500000000E-02 0.  1.
         11    1    1    2    0    0 -0.19661399017E+02  0.97241392682E+02  0.37602431802E+03  0.38889169032E+03  0.51100000000E-03 0.  1.
         22    1    1    2    0    0  0.45947511559E+02 -0.10946789671E+03  0.60580883770E+03  0.61733195452E+03  0.00000000000E+00 0.  1.
         -2    1    1    2    0  501 -0.26286112542E+02  0.12226504027E+02 -0.30052650641E+02  0.41756543563E+02  0.25500000000E-02 0.  1.
<mgrwt>
<rscale>  0 0.28990466E+02</rscale>
<asrwt>0</asrwt>
<pdfrwt beam="1">  1       11 0.10000000E+01 0.10897763E+03</pdfrwt>
<pdfrwt beam="2">  1       -2 0.73990900E-02 0.28990466E+02</pdfrwt>
<totfact> 0.70826082E+02</totfact>
</mgrwt>
</event>
<event>
 5    1  0.6729100E-004  0.2279148E+03  0.7818608E-02  0.1272559E+00
         11   -1    0    0    0    0  0.00000000000E+00  0.00000000000E+00  0.10002253167E+04  0.10002253167E+04  0.51100000000E-03 0. -1.
          2   -1    0    0  501    0 -0.00000000000E+00 -0.00000000000E+00 -0.92919334540E+02  0.92919334575E+02  0.25500000000E-02 0. -1.
         11    1    1    2    0    0  0.25750205509E+03  0.97085601032E+02  0.46931162805E+03  0.54404625403E+03  0.51100000000E-03 0. -1.
         22    1    1    2    0    0 -0.20074506699E+03 -0.10211215920E+02  0.38083677224E+03  0.43062686625E+03  0.00000000000E+00 0. -1.
          2    1    1    2  501    0 -0.56756988108E+02 -0.86874385111E+02  0.57157581912E+02  0.11847153103E+03  0.25500000000E-02 0. -1.
<mgrwt>
<rscale>  0 0.10377145E+03</rscale>
<asrwt>0</asrwt>
<pdfrwt beam="1">  1       11 0.10000000E+01 0.22791481E+03</pdfrwt>
<pdfrwt beam="2">  1        2 0.14298503E-01 0.10377145E+03</pdfrwt>
<totfact> 0.48879774E+02</totfact>
</mgrwt>
</event>
<event>
 5    1  0.6729100E-004  0.1837789E+03  0.7818608E-02  0.1164195E+00
         11   -1    0    0    0    0  0.00000000000E+00  0.00000000000E+00  0.10003838884E+04  0.10003838884E+04  0.51100000000E-03 0. -1.
          2   -1    0    0  501    0 -0.00000000000E+00 -0.00000000000E+00 -0.13379787774E+03  0.13379787777E+03  0.25500000000E-02 0. -1.
         11    1    1    2    0    0  0.46968378841E+01  0.15551447214E+03  0.68797907241E+03  0.70535240512E+03  0.51100000000E-03 0. -1.
         22    1    1    2    0    0  0.76657363735E+02  0.14102253979E+02  0.22241575442E+03  0.23567773080E+03  0.00000000000E+00 0.  1.
          2    1    1    2  501    0 -0.81354201619E+02 -0.16961672612E+03 -0.43808816144E+02  0.19315163028E+03  0.25500000000E-02 0. -1.
<mgrwt>
<rscale>  0 0.18377891E+03</rscale>
<asrwt>0</asrwt>
<pdfrwt beam="1">  1       11 0.10000000E+01 0.77943730E+02</pdfrwt>
<pdfrwt beam="2">  1        2 0.20592190E-01 0.18377891E+03</pdfrwt>
<totfact> 0.32808828E+02</totfact>
</mgrwt>
</event>
<event>
 5    1  0.6729100E-004  0.5796789E+03  0.7818608E-02  0.1005928E+00
         11   -1    0    0    0    0  0.00000000000E+00  0.00000000000E+00  0.99973310180E+03  0.99973310180E+03  0.51100000000E-03 0. -1.
          2   -1    0    0  501    0 -0.00000000000E+00 -0.00000000000E+00 -0.59997794576E+03  0.59997794577E+03  0.25500000000E-02 0. -1.
         11    1    1    2    0    0 -0.12656356672E+03 -0.29649716563E+03  0.30868488583E+03  0.44633537210E+03  0.51100000000E-03 0. -1.
         22    1    1    2    0    0  0.54339373129E+02 -0.22982467470E+03  0.45278436079E+03  0.51067193574E+03  0.00000000000E+00 0. -1.
          2    1    1    2  501    0  0.72224193589E+02  0.52632184033E+03 -0.36171409058E+03  0.64270373974E+03  0.25500000000E-02 0. -1.
<mgrwt>
<rscale>  0 0.53125419E+03</rscale>
<asrwt>0</asrwt>
<pdfrwt beam="1">  1       11 0.10000000E+01 0.57967885E+03</pdfrwt>
<pdfrwt beam="2">  1        2 0.92279661E-01 0.53125419E+03</pdfrwt>
<totfact> 0.61962817E+01</totfact>
</mgrwt>
</event>
<event>
 5    1  0.6729100E-004  0.3131384E+03  0.7818608E-02  0.1078851E+00
         11   -1    0    0    0    0  0.00000000000E+00  0.00000000000E+00  0.99953730474E+03  0.99953730474E+03  0.51100000000E-03 0.  1.
          2   -1    0    0  501    0 -0.00000000000E+00 -0.00000000000E+00 -0.32824437535E+03  0.32824437536E+03  0.25500000000E-02 0.  1.
         11    1    1    2    0    0  0.22383347898E+03  0.25522243550E+03  0.80048622750E+03  0.86949302373E+03  0.51100000000E-03 0.  1.
         22    1    1    2    0    0  0.70293429745E+01 -0.47293071187E+02  0.73238641316E+02  0.87463963017E+02  0.00000000000E+00 0.  1.
          2    1    1    2  501    0 -0.23086282195E+03 -0.20792936432E+03 -0.20243193942E+03  0.37082469337E+03  0.25500000000E-02 0.  1.
<mgrwt>
<rscale>  0 0.31313838E+03</rscale>
<asrwt>0</asrwt>
<pdfrwt beam="1">  1       11 0.10000000E+01 0.47812616E+02</pdfrwt>
<pdfrwt beam="2">  1        2 0.50475768E-01 0.31313838E+03</pdfrwt>
<totfact> 0.12314222E+02</totfact>
</mgrwt>
</event>
<event>
 5    1  0.6729100E-004  0.2604338E+03  0.7818608E-02  0.1106883E+00
         11   -1    0    0    0    0  0.00000000000E+00  0.00000000000E+00  0.10001660321E+04  0.10001660321E+04  0.51100000000E-03 0. -1.
          2   -1    0    0  501    0 -0.00000000000E+00 -0.00000000000E+00 -0.18120119153E+03  0.18120119155E+03  0.25500000000E-02 0. -1.
         11    1    1    2    0    0  0.28004311435E+03 -0.48208271892E+02  0.81367722227E+03  0.86186936679E+03  0.51100000000E-03 0. -1.
         22    1    1    2    0    0 -0.27425697081E+02 -0.11223565396E+01  0.51155041143E+02  0.58053998819E+02  0.00000000000E+00 0.  1.
          2    1    1    2  501    0 -0.25261741727E+03  0.49330628432E+02 -0.45867422863E+02  0.26144385802E+03  0.25500000000E-02 0. -1.
<mgrwt>
<rscale>  0 0.26043384E+03</rscale>
<asrwt>0</asrwt>
<pdfrwt beam="1">  1       11 0.10000000E+01 0.27448653E+02</pdfrwt>
<pdfrwt beam="2">  1        2 0.27881734E-01 0.26043384E+03</pdfrwt>
<totfact> 0.23527531E+02</totfact>
</mgrwt>
</event>
<event>
 5    1  0.6729100E-004  0.2480038E+03  0.7818608E-02  0.1124120E+00
         11   -1    0    0    0    0  0.00000000000E+00  0.00000000000E+00  0.10002929630E+04  0.10002929630E+04  0.51100000000E-03 0. -1.
          2   -1    0    0  501    0 -0.00000000000E+00 -0.00000000000E+00 -0.25251092949E+03  0.25251092950E+03  0.25500000000E-02 0. -1.
         11    1    1    2    0    0  0.23963669155E+02  0.12263396321E+03  0.55620540316E+03  0.57006823879E+03  0.51100000000E-03 0. -1.
         22    1    1    2    0    0  0.84448003321E+02  0.84304892474E+02  0.37000725232E+03  0.38877261598E+03  0.00000000000E+00 0. -1.
          2    1    1    2  501    0 -0.10841167248E+03 -0.20693885568E+03 -0.17843062194E+03  0.29396303776E+03  0.25500000000E-02 0. -1.
<mgrwt>
<rscale>  0 0.23361674E+03</rscale>
<asrwt>0</asrwt>
<pdfrwt beam="1">  1       11 0.10000000E+01 0.24800383E+03</pdfrwt>
<pdfrwt beam="2">  1        2 0.38859215E-01 0.23361674E+03</pdfrwt>
<totfact> 0.16335070E+02</totfact>
</mgrwt>
</event>
<event>
 5    1  0.6729100E-004  0.1693742E+03  0.7818608E-02  0.1313860E+00
         11   -1    0    0    0    0  0.00000000000E+00  0.00000000000E+00  0.10003637437E+04  0.10003637437E+04  0.51100000000E-03 0. -1.
         -2   -1    0    0    0  501 -0.00000000000E+00 -0.00000000000E+00 -0.24517636465E+03  0.24517636467E+03  0.25500000000E-02 0. -1.
         11    1    1    2    0    0 -0.19708008612E+03  0.10697534844E+02  0.39680981379E+03  0.44318509217E+03  0.51100000000E-03 0. -1.
         22    1    1    2    0    0  0.14963223510E+03  0.60554000390E+02  0.56027197608E+03  0.58306198634E+03  0.00000000000E+00 0. -1.
         -2    1    1    2    0  501  0.47447851025E+02 -0.71251535234E+02 -0.20189441079E+03  0.21929302989E+03  0.25500000000E-02 0. -1.
<mgrwt>
<rscale>  0 0.85604205E+02</rscale>
<asrwt>0</asrwt>
<pdfrwt beam="1">  1       11 0.10000000E+01 0.16937424E+03</pdfrwt>
<pdfrwt beam="2">  1       -2 0.37733160E-01 0.85604205E+02</pdfrwt>
<totfact> 0.53287572E+01</totfact>
</mgrwt>
</event>
<event>
 5    1  0.6729100E-004  0.9043643E+02  0.7818608E-02  0.1301798E+00
         11   -1    0    0    0    0  0.00000000000E+00  0.00000000000E+00  0.10002216101E+04  0.10002216101E+04  0.51100000000E-03 0.  1.
          2   -1    0    0  501    0 -0.00000000000E+00 -0.00000000000E+00 -0.87947556599E+02  0.87947556636E+02  0.25500000000E-02 0.  1.
         11    1    1    2    0    0  0.89994246133E+02  0.33958812348E+01 -0.59968625852E+02  0.10819765447E+03  0.51100000000E-03 0.  1.
         22    1    1    2    0    0  0.13743826608E+02  0.10265017735E+02  0.98058054514E+02  0.99547201939E+02  0.00000000000E+00 0.  1.
          2    1    1    2  501    0 -0.10373807274E+03 -0.13660898970E+02  0.87418462479E+03  0.88042431028E+03  0.25500000000E-02 0.  1.
<mgrwt>
<rscale>  0 0.90436434E+02</rscale>
<asrwt>0</asrwt>
<pdfrwt beam="1">  1       11 0.10000000E+01 0.17154106E+02</pdfrwt>
<pdfrwt beam="2">  1        2 0.13533391E-01 0.90436434E+02</pdfrwt>
<totfact> 0.51772481E+02</totfact>
</mgrwt>
</event>
<event>
 5    1  0.6729100E-004  0.1648189E+03  0.7818608E-02  0.1186950E+00
         11   -1    0    0    0    0  0.00000000000E+00  0.00000000000E+00  0.10006391238E+04  0.10006391238E+04  0.51100000000E-03 0. -1.
          2   -1    0    0  501    0 -0.00000000000E+00 -0.00000000000E+00 -0.12209762098E+03  0.12209762101E+03  0.25500000000E-02 0. -1.
         11    1    1    2    0    0 -0.12649224561E+03 -0.23679845636E+02  0.72286776395E+03  0.73423349655E+03  0.51100000000E-03 0. -1.
         22    1    1    2    0    0 -0.28387706393E+02 -0.22286157245E+02  0.21378718085E+03  0.21681211538E+03  0.00000000000E+00 0. -1.
          2    1    1    2  501    0  0.15487995201E+03  0.45966002882E+02 -0.58113442007E+02  0.17169113286E+03  0.25500000000E-02 0. -1.
<mgrwt>
<rscale>  0 0.16155703E+03</rscale>
<asrwt>0</asrwt>
<pdfrwt beam="1">  1       11 0.10000000E+01 0.16481890E+03</pdfrwt>
<pdfrwt beam="2">  1        2 0.18796254E-01 0.16155703E+03</pdfrwt>
<totfact> 0.36263532E+02</totfact>
</mgrwt>
</event>
<event>
 5    1  0.6729100E-004  0.9807488E+02  0.7818608E-02  0.1284397E+00
         11   -1    0    0    0    0  0.00000000000E+00  0.00000000000E+00  0.99975988789E+03  0.99975988789E+03  0.51100000000E-03 0. -1.
          2   -1    0    0  501    0 -0.00000000000E+00 -0.00000000000E+00 -0.33387761950E+02  0.33387762047E+02  0.25500000000E-02 0. -1.
         11    1    1    2    0    0 -0.69421247862E+02 -0.73916571144E+02  0.56040990863E+02  0.11586009581E+03  0.51100000000E-03 0. -1.
         22    1    1    2    0    0  0.22559582213E+02  0.24505755080E+02  0.13812124724E+03  0.14208077182E+03  0.00000000000E+00 0.  1.
          2    1    1    2  501    0  0.46861665649E+02  0.49410816064E+02  0.77220988783E+03  0.77520678230E+03  0.25500000000E-02 0. -1.
<mgrwt>
<rscale>  0 0.98074876E+02</rscale>
<asrwt>0</asrwt>
<pdfrwt beam="1">  1       11 0.10000000E+01 0.33308659E+02</pdfrwt>
<pdfrwt beam="2">  1        2 0.51353453E-02 0.98074876E+02</pdfrwt>
<totfact> 0.17218193E+03</totfact>
</mgrwt>
</event>
<event>
 5    1  0.6729100E-004  0.1206790E+03  0.7818608E-02  0.1241981E+00
         11   -1    0    0    0    0  0.00000000000E+00  0.00000000000E+00  0.10001401091E+04  0.10001401091E+04  0.51100000000E-03 0. -1.
          2   -1    0    0  501    0 -0.00000000000E+00 -0.00000000000E+00 -0.29857803667E+02  0.29857803776E+02  0.25500000000E-02 0. -1.
         11    1    1    2    0    0 -0.69848230779E+02 -0.10830130192E+03  0.15424392102E+03  0.20099535943E+03  0.51100000000E-03 0. -1.
         22    1    1    2    0    0 -0.75550466788E+01  0.46079414075E+02  0.26885199348E+03  0.27287686880E+03  0.00000000000E+00 0. -1.
          2    1    1    2  501    0  0.77403277458E+02  0.62221887842E+02  0.54718639095E+03  0.55612568466E+03  0.25500000000E-02 0. -1.
<mgrwt>
<rscale>  0 0.12067901E+03</rscale>
<asrwt>0</asrwt>
<pdfrwt beam="1">  1       11 0.10000000E+01 0.46694658E+02</pdfrwt>
<pdfrwt beam="2">  1        2 0.45941517E-02 0.12067901E+03</pdfrwt>
<totfact> 0.20265766E+03</totfact>
</mgrwt>
</event>
<event>
 5    1  0.6729100E-004  0.2309594E+03  0.7818608E-02  0.1125966E+00
         11   -1    0    0    0    0  0.00000000000E+00  0.00000000000E+00  0.10001073146E+04  0.10001073146E+04  0.51100000000E-03 0.  1.
         -2   -1    0    0    0  501 -0.00000000000E+00 -0.00000000000E+00 -0.62185286765E+02  0.62185286818E+02  0.25500000000E-02 0.  1.
         11    1    1    2    0    0 -0.31239883348E+02  0.24098475850E+03  0.47040247720E+03  0.52946017291E+03  0.51100000000E-03 0.  1.
         22    1    1    2    0    0  0.31817555816E+01 -0.21156769848E+02  0.11104780541E+03  0.11308999764E+03  0.00000000000E+00 0. -1.
         -2    1    1    2    0  501  0.28058127767E+02 -0.21982798865E+03  0.35647174526E+03  0.41974243091E+03  0.25500000000E-02 0.  1.
<mgrwt>
<rscale>  0 0.23095945E+03</rscale>
<asrwt>0</asrwt>
<pdfrwt beam="1">  1       11 0.10000000E+01 0.21394683E+02</pdfrwt>
<pdfrwt beam="2">  1       -2 0.95679936E-02 0.23095945E+03</pdfrwt>
<totfact> 0.56419906E+02</totfact>
</mgrwt>
</event>
<event>
 5    1  0.6729100E-004  0.1241571E+03  0.7818608E-02  0.1236393E+00
         11   -1    0    0    0    0  0.00000000000E+00  0.00000000000E+00  0.10000459566E+04  0.10000459566E+04  0.51100000000E-03 0.  1.
          2   -1    0    0  501    0 -0.00000000000E+00 -0.00000000000E+00 -0.28065896176E+02  0.28065896292E+02  0.25500000000E-02 0.  1.
         11    1    1    2    0    0 -0.98813938098E+02 -0.12232908388E+03  0.45900931239E+03  0.48519908077E+03  0.51100000000E-03 0.  1.
         22    1    1    2    0    0  0.23316544015E+02  0.44622694571E+02  0.29757308576E+03  0.30180223237E+03  0.00000000000E+00 0.  1.
          2    1    1    2  501    0  0.75497394083E+02  0.77706389313E+02  0.21539766223E+03  0.24111053970E+03  0.25500000000E-02 0.  1.
<mgrwt>
<rscale>  0 0.12415707E+03</rscale>
<asrwt>0</asrwt>
<pdfrwt beam="1">  1       11 0.10000000E+01 0.50347255E+02</pdfrwt>
<pdfrwt beam="2">  1        2 0.43180285E-02 0.12415707E+03</pdfrwt>
<totfact> 0.22037927E+03</totfact>
</mgrwt>
</event>
<event>
 5    1  0.6729100E-004  0.3084149E+03  0.7818608E-02  0.1081108E+00
         11   -1    0    0    0    0  0.00000000000E+00  0.00000000000E+00  0.10002967840E+04  0.10002967840E+04  0.51100000000E-03 0. -1.
          2   -1    0    0  501    0 -0.00000000000E+00 -0.00000000000E+00 -0.17578593699E+03  0.17578593701E+03  0.25500000000E-02 0. -1.
         11    1    1    2    0    0  0.16833800630E+03  0.20363747357E+03  0.41476061704E+03  0.49176445017E+03  0.51100000000E-03 0. -1.
         22    1    1    2    0    0  0.20495935261E+01  0.78102179198E+02  0.33855545394E+03  0.34745351721E+03  0.00000000000E+00 0. -1.
          2    1    1    2  501    0 -0.17038759983E+03 -0.28173965276E+03  0.71194776071E+02  0.33686475366E+03  0.25500000000E-02 0. -1.
<mgrwt>
<rscale>  0 0.30841485E+03</rscale>
<asrwt>0</asrwt>
<pdfrwt beam="1">  1       11 0.10000000E+01 0.78129068E+02</pdfrwt>
<pdfrwt beam="2">  1        2 0.27052016E-01 0.30841485E+03</pdfrwt>
<totfact> 0.24402217E+02</totfact>
</mgrwt>
</event>
<event>
 5    1  0.6729100E-004  0.9935437E+02  0.7818608E-02  0.1463110E+00
         11   -1    0    0    0    0  0.00000000000E+00  0.00000000000E+00  0.10001545281E+04  0.10001545281E+04  0.51100000000E-03 0. -1.
          2   -1    0    0  501    0 -0.00000000000E+00 -0.00000000000E+00 -0.16810655841E+02  0.16810656034E+02  0.25500000000E-02 0. -1.
         11    1    1    2    0    0  0.73377348232E+02  0.79342587078E+02  0.55880519620E+03  0.56915966886E+03  0.51100000000E-03 0. -1.
         22    1    1    2    0    0 -0.27615689454E+02 -0.89384261268E+02  0.31671407228E+03  0.33024229900E+03  0.00000000000E+00 0. -1.
          2    1    1    2  501    0 -0.45761658777E+02  0.10041674190E+02  0.10782460377E+03  0.11756321627E+03  0.25500000000E-02 0. -1.
<mgrwt>
<rscale>  0 0.46850450E+02</rscale>
<asrwt>0</asrwt>
<pdfrwt beam="1">  1       11 0.10000000E+01 0.99354366E+02</pdfrwt>
<pdfrwt beam="2">  1        2 0.25866543E-02 0.46850450E+02</pdfrwt>
<totfact> 0.38657243E+03</totfact>
</mgrwt>
</event>
<event>
 5    1  0.6729100E-004  0.1484779E+03  0.7818608E-02  0.1202356E+00
         11   -1    0    0    0    0  0.00000000000E+00  0.00000000000E+00  0.10002051517E+04  0.10002051517E+04  0.51100000000E-03 0. -1.
          2   -1    0    0  501    0 -0.00000000000E+00 -0.00000000000E+00 -0.42405116803E+02  0.42405116879E+02  0.25500000000E-02 0. -1.
         11    1    1    2    0    0 -0.42511908252E+02 -0.27805864905E+02  0.36139642704E+02  0.62341817758E+02  0.51100000000E-03 0. -1.
         22    1    1    2    0    0 -0.10859756990E+03  0.71836442841E+02  0.67661583354E+03  0.68903040056E+03  0.00000000000E+00 0. -1.
          2    1    1    2  501    0  0.15110947815E+03 -0.44030577936E+02  0.24504455862E+03  0.29123805022E+03  0.25500000000E-02 0. -1.
<mgrwt>
<rscale>  0 0.14847785E+03</rscale>
<asrwt>0</asrwt>
<pdfrwt beam="1">  1       11 0.10000000E+01 0.50797943E+02</pdfrwt>
<pdfrwt beam="2">  1        2 0.65252023E-02 0.14847785E+03</pdfrwt>
<totfact> 0.13073779E+03</totfact>
</mgrwt>
</event>
<event>
 5    1  0.6729100E-004  0.2135402E+03  0.7818608E-02  0.1151480E+00
         11   -1    0    0    0    0  0.00000000000E+00  0.00000000000E+00  0.10002736568E+04  0.10002736568E+04  0.51100000000E-03 0.  1.
          2   -1    0    0  501    0 -0.00000000000E+00 -0.00000000000E+00 -0.10995837417E+03  0.10995837420E+03  0.25500000000E-02 0. -1.
         11    1    1    2    0    0  0.87700581104E+01 -0.62341124964E+02  0.23676235840E+03  0.24498927352E+03  0.51100000000E-03 0.  1.
         22    1    1    2    0    0 -0.96365784539E+02 -0.11517352223E+03  0.65014482720E+03  0.66726276757E+03  0.00000000000E+00 0.  1.
          2    1    1    2  501    0  0.87595726429E+02  0.17751464719E+03  0.34080969789E+01  0.19797998987E+03  0.25500000000E-02 0. -1.
<mgrwt>
<rscale>  0 0.19795065E+03</rscale>
<asrwt>0</asrwt>
<pdfrwt beam="1">  1       11 0.10000000E+01 0.21354023E+03</pdfrwt>
<pdfrwt beam="2">  1        2 0.16921302E-01 0.19795065E+03</pdfrwt>
<totfact> 0.41226493E+02</totfact>
</mgrwt>
</event>
<event>
 5    1  0.6729100E-004  0.3133869E+03  0.7818608E-02  0.1080669E+00
         11   -1    0    0    0    0  0.00000000000E+00  0.00000000000E+00  0.10000009093E+04  0.10000009093E+04  0.51100000000E-03 0. -1.
         -2   -1    0    0    0  501 -0.00000000000E+00 -0.00000000000E+00 -0.14800219253E+03  0.14800219255E+03  0.25500000000E-02 0.  1.
         11    1    1    2    0    0 -0.29492344011E+03  0.13727183183E+02  0.69770260007E+03  0.75759962330E+03  0.51100000000E-03 0. -1.
         22    1    1    2    0    0 -0.13657635573E+02  0.77436988978E+01  0.67255254208E+02  0.69063486016E+02  0.00000000000E+00 0. -1.
         -2    1    1    2    0  501  0.30858107568E+03 -0.21470882081E+02  0.87040862474E+02  0.32133999252E+03  0.25500000000E-02 0.  1.
<mgrwt>
<rscale>  0 0.30932714E+03</rscale>
<asrwt>0</asrwt>
<pdfrwt beam="1">  1       11 0.10000000E+01 0.31338695E+03</pdfrwt>
<pdfrwt beam="2">  1       -2 0.22769588E-01 0.30932714E+03</pdfrwt>
<totfact> 0.13521388E+02</totfact>
</mgrwt>
</event>
<event>
 5    1  0.6729100E-004  0.1305267E+03  0.7818608E-02  0.1235187E+00
         11   -1    0    0    0    0  0.00000000000E+00  0.00000000000E+00  0.10002122793E+04  0.10002122793E+04  0.51100000000E-03 0.  1.
          2   -1    0    0  501    0 -0.00000000000E+00 -0.00000000000E+00 -0.16382418174E+02  0.16382418372E+02  0.25500000000E-02 0.  1.
         11    1    1    2    0    0  0.75681196388E+02  0.79250659350E+02  0.42971456939E+03  0.44346693410E+03  0.51100000000E-03 0.  1.
         22    1    1    2    0    0  0.20211728897E+02  0.81593145721E+00  0.10664533173E+03  0.10854679410E+03  0.00000000000E+00 0.  1.
          2    1    1    2  501    0 -0.95892925286E+02 -0.80066590808E+02  0.44746996003E+03  0.46458096949E+03  0.25500000000E-02 0.  1.
<mgrwt>
<rscale>  0 0.12492443E+03</rscale>
<asrwt>0</asrwt>
<pdfrwt beam="1">  1       11 0.10000000E+01 0.13052667E+03</pdfrwt>
<pdfrwt beam="2">  1        2 0.25209070E-02 0.12492443E+03</pdfrwt>
<totfact> 0.45209923E+03</totfact>
</mgrwt>
</event>
<event>
 5    1  0.6729100E-004  0.1267326E+03  0.7818608E-02  0.1232386E+00
         11   -1    0    0    0    0  0.00000000000E+00  0.00000000000E+00  0.10002760877E+04  0.10002760877E+04  0.51100000000E-03 0.  1.
          2   -1    0    0  501    0 -0.00000000000E+00 -0.00000000000E+00 -0.28571778010E+02  0.28571778124E+02  0.25500000000E-02 0.  1.
         11    1    1    2    0    0 -0.98685375517E+02  0.83474621534E+02  0.77737008442E+03  0.78804255211E+03  0.51100000000E-03 0.  1.
         22    1    1    2    0    0  0.97837253471E+01  0.61669745475E+01  0.38764777576E+02  0.40453193165E+02  0.00000000000E+00 0. -1.
          2    1    1    2  501    0  0.88901650170E+02 -0.89641596082E+02  0.15556944774E+03  0.20035212060E+03  0.25500000000E-02 0.  1.
<mgrwt>
<rscale>  0 0.12673257E+03</rscale>
<asrwt>0</asrwt>
<pdfrwt beam="1">  1       11 0.10000000E+01 0.11565157E+02</pdfrwt>
<pdfrwt beam="2">  1        2 0.43968716E-02 0.12673257E+03</pdfrwt>
<totfact> 0.21559644E+03</totfact>
</mgrwt>
</event>
<event>
 5    1  0.6729100E-004  0.1743540E+03  0.7818608E-02  0.1173382E+00
         11   -1    0    0    0    0  0.00000000000E+00  0.00000000000E+00  0.10001999613E+04  0.10001999613E+04  0.51100000000E-03 0. -1.
          2   -1    0    0  501    0 -0.00000000000E+00 -0.00000000000E+00 -0.33268148140E+02  0.33268148238E+02  0.25500000000E-02 0. -1.
         11    1    1    2    0    0 -0.10392048512E+03 -0.14078574706E+03  0.49842307372E+03  0.52824772051E+03  0.51100000000E-03 0. -1.
         22    1    1    2    0    0  0.10970952402E+02 -0.63485346760E+01  0.57559929948E+02  0.58939046690E+02  0.00000000000E+00 0.  1.
          2    1    1    2  501    0  0.92949532722E+02  0.14713428174E+03  0.41094880954E+03  0.44628134239E+03  0.25500000000E-02 0. -1.
<mgrwt>
<rscale>  0 0.17435404E+03</rscale>
<asrwt>0</asrwt>
<pdfrwt beam="1">  1       11 0.10000000E+01 0.12675397E+02</pdfrwt>
<pdfrwt beam="2">  1        2 0.51191999E-02 0.17435404E+03</pdfrwt>
<totfact> 0.18125342E+03</totfact>
</mgrwt>
</event>
<event>
 5    1  0.6729100E-004  0.1590212E+03  0.7818608E-02  0.1217904E+00
         11   -1    0    0    0    0  0.00000000000E+00  0.00000000000E+00  0.10000010438E+04  0.10000010438E+04  0.51100000000E-03 0. -1.
          2   -1    0    0  501    0 -0.00000000000E+00 -0.00000000000E+00 -0.67522064618E+03  0.67522064618E+03  0.25500000000E-02 0. -1.
         11    1    1    2    0    0 -0.81061699390E+02 -0.25085479915E+03 -0.20606704326E+02  0.26443102244E+03  0.51100000000E-03 0. -1.
         22    1    1    2    0    0  0.10279307264E+03  0.11594048915E+03  0.86230461772E+03  0.87611521305E+03  0.00000000000E+00 0. -1.
          2    1    1    2  501    0 -0.21731373248E+02  0.13491431000E+03 -0.51691751572E+03  0.53467545454E+03  0.25500000000E-02 0. -1.
<mgrwt>
<rscale>  0 0.13665330E+03</rscale>
<asrwt>0</asrwt>
<pdfrwt beam="1">  1       11 0.10000000E+01 0.15902123E+03</pdfrwt>
<pdfrwt beam="2">  1        2 0.10388020E+00 0.13665330E+03</pdfrwt>
<totfact> 0.55769117E+01</totfact>
</mgrwt>
</event>
<event>
 5    1  0.6729100E-004  0.1450490E+03  0.7818608E-02  0.1518988E+00
         11   -1    0    0    0    0  0.00000000000E+00  0.00000000000E+00  0.10003643856E+04  0.10003643856E+04  0.51100000000E-03 0. -1.
          2   -1    0    0  501    0 -0.00000000000E+00 -0.00000000000E+00 -0.47386703535E+02  0.47386703604E+02  0.25500000000E-02 0.  1.
         11    1    1    2    0    0 -0.30880109248E+01  0.15217623293E+03  0.50367897688E+03  0.52617454654E+03  0.51100000000E-03 0. -1.
         22    1    1    2    0    0 -0.32308688138E+02 -0.13684966172E+03  0.46043630307E+03  0.48142836480E+03  0.00000000000E+00 0. -1.
          2    1    1    2  501    0  0.35396699063E+02 -0.15326571207E+02 -0.11137597917E+02  0.40148177834E+02  0.25500000000E-02 0.  1.
<mgrwt>
<rscale>  0 0.38572401E+02</rscale>
<asrwt>0</asrwt>
<pdfrwt beam="1">  1       11 0.10000000E+01 0.14504897E+03</pdfrwt>
<pdfrwt beam="2">  1        2 0.72929183E-02 0.38572401E+02</pdfrwt>
<totfact> 0.10182404E+03</totfact>
</mgrwt>
</event>
<event>
 5    1  0.6729100E-004  0.1713778E+03  0.7818608E-02  0.1176419E+00
         11   -1    0    0    0    0  0.00000000000E+00  0.00000000000E+00  0.10000415985E+04  0.10000415985E+04  0.51100000000E-03 0. -1.
          2   -1    0    0  501    0 -0.00000000000E+00 -0.00000000000E+00 -0.43311660781E+03  0.43311660782E+03  0.25500000000E-02 0. -1.
         11    1    1    2    0    0 -0.16081282181E+03  0.59467265822E+01  0.94198789640E+03  0.95563451391E+03  0.51100000000E-03 0. -1.
         22    1    1    2    0    0 -0.10322526708E+02 -0.18387463162E+02  0.30543994153E+02  0.37115885251E+02  0.00000000000E+00 0.  1.
          2    1    1    2  501    0  0.17113534852E+03  0.12440736580E+02 -0.40560689983E+03  0.44040780719E+03  0.25500000000E-02 0. -1.
<mgrwt>
<rscale>  0 0.17137782E+03</rscale>
<asrwt>0</asrwt>
<pdfrwt beam="1">  1       11 0.10000000E+01 0.21086805E+02</pdfrwt>
<pdfrwt beam="2">  1        2 0.66636094E-01 0.17137782E+03</pdfrwt>
<totfact> 0.91402282E+01</totfact>
</mgrwt>
</event>
<event>
 5    1  0.6729100E-004  0.9629345E+02  0.7818608E-02  0.1288289E+00
         11   -1    0    0    0    0  0.00000000000E+00  0.00000000000E+00  0.10000826551E+04  0.10000826551E+04  0.51100000000E-03 0.  1.
          2   -1    0    0  501    0 -0.00000000000E+00 -0.00000000000E+00 -0.27068913589E+02  0.27068913709E+02  0.25500000000E-02 0.  1.
         11    1    1    2    0    0 -0.96162124722E+02 -0.54037072252E+01  0.82721103785E+02  0.12696115664E+03  0.51100000000E-03 0.  1.
         22    1    1    2    0    0 -0.95578386814E+00  0.30933190134E+02  0.15372661314E+03  0.15681086494E+03  0.00000000000E+00 0.  1.
          2    1    1    2  501    0  0.97117908591E+02 -0.25529482909E+02  0.73656602463E+03  0.74337954728E+03  0.25500000000E-02 0.  1.
<mgrwt>
<rscale>  0 0.96293454E+02</rscale>
<asrwt>0</asrwt>
<pdfrwt beam="1">  1       11 0.10000000E+01 0.30947953E+02</pdfrwt>
<pdfrwt beam="2">  1        2 0.41647923E-02 0.96293454E+02</pdfrwt>
<totfact> 0.22565239E+03</totfact>
</mgrwt>
</event>
<event>
 5    1  0.6729100E-004  0.2809210E+03  0.7818608E-02  0.1144839E+00
         11   -1    0    0    0    0  0.00000000000E+00  0.00000000000E+00  0.10003178002E+04  0.10003178002E+04  0.51100000000E-03 0. -1.
          2   -1    0    0  501    0 -0.00000000000E+00 -0.00000000000E+00 -0.15656994683E+03  0.15656994685E+03  0.25500000000E-02 0. -1.
         11    1    1    2    0    0 -0.21389202847E+03  0.21839629680E+03  0.45211228299E+03  0.54575842525E+03  0.51100000000E-03 0. -1.
         22    1    1    2    0    0 -0.50870375933E+02 -0.14211207904E+03  0.25786383409E+02  0.15312927782E+03  0.00000000000E+00 0. -1.
          2    1    1    2  501    0  0.26476240441E+03 -0.76284217759E+02  0.36584918694E+03  0.45800004395E+03  0.25500000000E-02 0. -1.
<mgrwt>
<rscale>  0 0.20591962E+03</rscale>
<asrwt>0</asrwt>
<pdfrwt beam="1">  1       11 0.10000000E+01 0.28092095E+03</pdfrwt>
<pdfrwt beam="2">  1        2 0.24095339E-01 0.20591962E+03</pdfrwt>
<totfact> 0.27559773E+02</totfact>
</mgrwt>
</event>
<event>
 5    1  0.6729100E-004  0.3373660E+03  0.7818608E-02  0.1067923E+00
         11   -1    0    0    0    0  0.00000000000E+00  0.00000000000E+00  0.10001553967E+04  0.10001553967E+04  0.51100000000E-03 0.  1.
          2   -1    0    0  501    0 -0.00000000000E+00 -0.00000000000E+00 -0.16684435319E+03  0.16684435321E+03  0.25500000000E-02 0.  1.
         11    1    1    2    0    0  0.26934045796E+03 -0.20414784991E+03  0.62465190866E+03  0.71021872259E+03  0.51100000000E-03 0.  1.
         22    1    1    2    0    0  0.19103237003E+02  0.28696545671E+02  0.94172499150E+02  0.10028402163E+03  0.00000000000E+00 0. -1.
          2    1    1    2  501    0 -0.28844369497E+03  0.17545130424E+03  0.11448663573E+03  0.35649700573E+03  0.25500000000E-02 0.  1.
<mgrwt>
<rscale>  0 0.33736598E+03</rscale>
<asrwt>0</asrwt>
<pdfrwt beam="1">  1       11 0.10000000E+01 0.34473546E+02</pdfrwt>
<pdfrwt beam="2">  1        2 0.25672350E-01 0.33736598E+03</pdfrwt>
<totfact> 0.25921040E+02</totfact>
</mgrwt>
</event>
<event>
 5    1  0.6729100E-004  0.1352954E+03  0.7818608E-02  0.1219803E+00
         11   -1    0    0    0    0  0.00000000000E+00  0.00000000000E+00  0.10011651767E+04  0.10011651767E+04  0.51100000000E-03 0.  1.
          2   -1    0    0  501    0 -0.00000000000E+00 -0.00000000000E+00 -0.14323706472E+04  0.14323706472E+04  0.25500000000E-02 0.  1.
         11    1    1    2    0    0 -0.84501729040E+02 -0.18486243458E+02  0.17372588176E+03  0.19406948601E+03  0.51100000000E-03 0.  1.
         22    1    1    2    0    0  0.36291053114E+02  0.14495435510E+03  0.80717432430E+03  0.82088927110E+03  0.00000000000E+00 0.  1.
          2    1    1    2  501    0  0.48210675926E+02 -0.12646811164E+03 -0.14121056766E+04  0.14185770668E+04  0.25500000000E-02 0.  1.
<mgrwt>
<rscale>  0 0.13529535E+03</rscale>
<asrwt>0</asrwt>
<pdfrwt beam="1">  1       11 0.10000000E+01 0.86500193E+02</pdfrwt>
<pdfrwt beam="2">  1        2 0.22062147E+00 0.13529535E+03</pdfrwt>
<totfact> 0.19527530E+01</totfact>
</mgrwt>
</event>
<event>
 5    1  0.6729100E-004  0.1625750E+03  0.7818608E-02  0.1189146E+00
         11   -1    0    0    0    0  0.00000000000E+00  0.00000000000E+00  0.10002987276E+04  0.10002987276E+04  0.51100000000E-03 0.  1.
          2   -1    0    0  501    0 -0.00000000000E+00 -0.00000000000E+00 -0.13362862617E+03  0.13362862619E+03  0.25500000000E-02 0.  1.
         11    1    1    2    0    0  0.54987741308E+02 -0.13555223284E+03  0.86334357115E+03  0.87564843480E+03  0.51100000000E-03 0.  1.
         22    1    1    2    0    0  0.13617809811E+02 -0.85531373096E+01  0.79726761542E+02  0.81332388431E+02  0.00000000000E+00 0. -1.
          2    1    1    2  501    0 -0.68605551119E+02  0.14410537015E+03 -0.76400231229E+02  0.17694653059E+03  0.25500000000E-02 0.  1.
<mgrwt>
<rscale>  0 0.15960288E+03</rscale>
<asrwt>0</asrwt>
<pdfrwt beam="1">  1       11 0.10000000E+01 0.16257504E+03</pdfrwt>
<pdfrwt beam="2">  1        2 0.20564391E-01 0.15960288E+03</pdfrwt>
<totfact> 0.32723572E+02</totfact>
</mgrwt>
</event>
<event>
 5    1  0.6729100E-004  0.6159261E+03  0.7818608E-02  0.9872905E-01
         11   -1    0    0    0    0  0.00000000000E+00  0.00000000000E+00  0.10005241184E+04  0.10005241184E+04  0.51100000000E-03 0. -1.
          2   -1    0    0  501    0 -0.00000000000E+00 -0.00000000000E+00 -0.10405450831E+04  0.10405450831E+04  0.25500000000E-02 0. -1.
         11    1    1    2    0    0  0.60128937499E+03 -0.11115555273E+03  0.72098675470E+03  0.94537102232E+03  0.51100000000E-03 0. -1.
         22    1    1    2    0    0  0.27664534544E+01 -0.12007967303E+02  0.64350175390E+02  0.65519383515E+02  0.00000000000E+00 0. -1.
          2    1    1    2  501    0 -0.60405582844E+03  0.12316352003E+03 -0.82535789483E+03  0.10301787957E+04  0.25500000000E-02 0. -1.
<mgrwt>
<rscale>  0 0.61592605E+03</rscale>
<asrwt>0</asrwt>
<pdfrwt beam="1">  1       11 0.10000000E+01 0.12322522E+02</pdfrwt>
<pdfrwt beam="2">  1        2 0.16016776E+00 0.61592605E+03</pdfrwt>
<totfact> 0.29784968E+01</totfact>
</mgrwt>
</event>
<event>
 5    1  0.6729100E-004  0.4417188E+03  0.7818608E-02  0.1034604E+00
         11   -1    0    0    0    0  0.00000000000E+00  0.00000000000E+00  0.10004703244E+04  0.10004703244E+04  0.51100000000E-03 0. -1.
          2   -1    0    0  501    0 -0.00000000000E+00 -0.00000000000E+00 -0.46014979239E+03  0.46014979240E+03  0.25500000000E-02 0.  1.
         11    1    1    2    0    0 -0.37333724678E+03 -0.15773769513E+03  0.74158347521E+03  0.84510823627E+03  0.51100000000E-03 0. -1.
         22    1    1    2    0    0 -0.91976237942E+01 -0.33452725986E+02  0.91094436830E+02  0.97477574759E+02  0.00000000000E+00 0. -1.
          2    1    1    2  501    0  0.38253487058E+03  0.19119042112E+03 -0.29235738001E+03  0.51803430580E+03  0.25500000000E-02 0.  1.
<mgrwt>
<rscale>  0 0.42765255E+03</rscale>
<asrwt>0</asrwt>
<pdfrwt beam="1">  1       11 0.10000000E+01 0.44171881E+03</pdfrwt>
<pdfrwt beam="2">  1        2 0.70825569E-01 0.42765255E+03</pdfrwt>
<totfact> 0.84516900E+01</totfact>
</mgrwt>
</event>
<event>
 5    1  0.6729100E-004  0.3251913E+03  0.7818608E-02  0.1073285E+00
         11   -1    0    0    0    0  0.00000000000E+00  0.00000000000E+00  0.10010061424E+04  0.10010061424E+04  0.51100000000E-03 0.  1.
          2   -1    0    0  501    0 -0.00000000000E+00 -0.00000000000E+00 -0.13705120594E+04  0.13705120594E+04  0.25500000000E-02 0.  1.
         11    1    1    2    0    0 -0.26779734654E+03 -0.21694265118E+03  0.78069985734E+03  0.85338842268E+03  0.51100000000E-03 0.  1.
         22    1    1    2    0    0  0.33301149433E+02 -0.77192883618E+01  0.16239451025E+03  0.16595339986E+03  0.00000000000E+00 0. -1.
          2    1    1    2  501    0  0.23449619711E+03  0.22466193954E+03 -0.13126002846E+04  0.13521763793E+04  0.25500000000E-02 0.  1.
<mgrwt>
<rscale>  0 0.32519133E+03</rscale>
<asrwt>0</asrwt>
<pdfrwt beam="1">  1       11 0.10000000E+01 0.34184119E+02</pdfrwt>
<pdfrwt beam="2">  1        2 0.21106015E+00 0.32519133E+03</pdfrwt>
<totfact> 0.19826158E+01</totfact>
</mgrwt>
</event>
<event>
 5    1  0.6729100E-004  0.1986161E+03  0.7818608E-02  0.1150912E+00
         11   -1    0    0    0    0  0.00000000000E+00  0.00000000000E+00  0.10002424608E+04  0.10002424608E+04  0.51100000000E-03 0. -1.
          2   -1    0    0  501    0 -0.00000000000E+00 -0.00000000000E+00 -0.56191614803E+02  0.56191614861E+02  0.25500000000E-02 0. -1.
         11    1    1    2    0    0  0.45427406949E+02  0.19371628964E+03  0.65751407700E+03  0.68696026932E+03  0.51100000000E-03 0. -1.
         22    1    1    2    0    0 -0.14549068701E+02  0.25023229502E+01  0.85842912425E+02  0.87103057546E+02  0.00000000000E+00 0.  1.
          2    1    1    2  501    0 -0.30878338248E+02 -0.19621861259E+03  0.20069385657E+03  0.28237074879E+03  0.25500000000E-02 0. -1.
<mgrwt>
<rscale>  0 0.19861614E+03</rscale>
<asrwt>0</asrwt>
<pdfrwt beam="1">  1       11 0.10000000E+01 0.14762690E+02</pdfrwt>
<pdfrwt beam="2">  1        2 0.86469596E-02 0.19861614E+03</pdfrwt>
<totfact> 0.93108919E+02</totfact>
</mgrwt>
</event>
<event>
 5    1  0.6729100E-004  0.1063386E+03  0.7818608E-02  0.1267505E+00
         11   -1    0    0    0    0  0.00000000000E+00  0.00000000000E+00  0.10001992131E+04  0.10001992131E+04  0.51100000000E-03 0. -1.
         -2   -1    0    0    0  501 -0.00000000000E+00 -0.00000000000E+00 -0.11277304148E+02  0.11277304436E+02  0.25500000000E-02 0. -1.
         11    1    1    2    0    0 -0.95879046713E+02 -0.38514903194E+02  0.56859151383E+03  0.57790353777E+03  0.51100000000E-03 0. -1.
         22    1    1    2    0    0  0.52353472788E+01  0.91704790632E+01  0.56265637201E+02  0.57247956095E+02  0.00000000000E+00 0.  1.
         -2    1    1    2    0  501  0.90643699434E+02  0.29344424131E+02  0.36406475792E+03  0.37632502367E+03  0.25500000000E-02 0. -1.
<mgrwt>
<rscale>  0 0.10633855E+03</rscale>
<asrwt>0</asrwt>
<pdfrwt beam="1">  1       11 0.10000000E+01 0.10332565E+03</pdfrwt>
<pdfrwt beam="2">  1       -2 0.17353155E-02 0.10633855E+03</pdfrwt>
<totfact> 0.67831801E+03</totfact>
</mgrwt>
</event>
<event>
 5    1  0.6729100E-004  0.4715714E+03  0.7818608E-02  0.1155744E+00
         11   -1    0    0    0    0  0.00000000000E+00  0.00000000000E+00  0.10002800003E+04  0.10002800003E+04  0.51100000000E-03 0. -1.
          2   -1    0    0  501    0 -0.00000000000E+00 -0.00000000000E+00 -0.57038532854E+03  0.57038532855E+03  0.25500000000E-02 0.  1.
         11    1    1    2    0    0 -0.30883007134E+03  0.41815719655E+03  0.68821627579E+03  0.86248078022E+03  0.51100000000E-03 0. -1.
         22    1    1    2    0    0  0.30702394228E+03 -0.22512180450E+03  0.61369369690E+01  0.38076395574E+03  0.00000000000E+00 0.  1.
          2    1    1    2  501    0  0.18061290612E+01 -0.19303539205E+03 -0.26445854104E+03  0.32742059285E+03  0.25500000000E-02 0.  1.
<mgrwt>
<rscale>  0 0.19304384E+03</rscale>
<asrwt>0</asrwt>
<pdfrwt beam="1">  1       11 0.10000000E+01 0.47157145E+03</pdfrwt>
<pdfrwt beam="2">  1        2 0.87776157E-01 0.19304384E+03</pdfrwt>
<totfact> 0.67191104E+01</totfact>
</mgrwt>
</event>
<event>
 5    1  0.6729100E-004  0.2273585E+03  0.7818608E-02  0.1128513E+00
         11   -1    0    0    0    0  0.00000000000E+00  0.00000000000E+00  0.10000460203E+04  0.10000460203E+04  0.51100000000E-03 0. -1.
          2   -1    0    0  501    0 -0.00000000000E+00 -0.00000000000E+00 -0.83074815547E+02  0.83074815586E+02  0.25500000000E-02 0. -1.
         11    1    1    2    0    0  0.33135607866E+02 -0.22226937714E+03  0.71153082282E+03  0.74617541929E+03  0.51100000000E-03 0. -1.
         22    1    1    2    0    0 -0.16063905620E+02 -0.53065907684E+01  0.69022471214E+02  0.71065536668E+02  0.00000000000E+00 0. -1.
          2    1    1    2  501    0 -0.17071702246E+02  0.22757596790E+03  0.13641791073E+03  0.26587987994E+03  0.25500000000E-02 0. -1.
<mgrwt>
<rscale>  0 0.22735848E+03</rscale>
<asrwt>0</asrwt>
<pdfrwt beam="1">  1       11 0.10000000E+01 0.16917712E+02</pdfrwt>
<pdfrwt beam="2">  1        2 0.12781329E-01 0.22735848E+03</pdfrwt>
<totfact> 0.57840753E+02</totfact>
</mgrwt>
</event>
<event>
 5    1  0.6729100E-004  0.5423096E+03  0.7818608E-02  0.1003290E+00
         11   -1    0    0    0    0  0.00000000000E+00  0.00000000000E+00  0.10005808868E+04  0.10005808868E+04  0.51100000000E-03 0.  1.
         -2   -1    0    0    0  501 -0.00000000000E+00 -0.00000000000E+00 -0.13224890819E+04  0.13224890819E+04  0.25500000000E-02 0. -1.
         11    1    1    2    0    0 -0.22361743427E+03 -0.51568061322E+03  0.64739612569E+03  0.85735231691E+03  0.51100000000E-03 0.  1.
         22    1    1    2    0    0  0.64116315602E+02 -0.12458837373E+01  0.18236943186E+03  0.19331596889E+03  0.00000000000E+00 0.  1.
         -2    1    1    2    0  501  0.15950111867E+03  0.51692649696E+03 -0.11516737527E+04  0.12724016829E+04  0.25500000000E-02 0. -1.
<mgrwt>
<rscale>  0 0.54230963E+03</rscale>
<asrwt>0</asrwt>
<pdfrwt beam="1">  1       11 0.10000000E+01 0.64128419E+02</pdfrwt>
<pdfrwt beam="2">  1       -2 0.20357804E+00 0.54230963E+03</pdfrwt>
<totfact> 0.10612722E+00</totfact>
</mgrwt>
</event>
<event>
 5    1  0.6729100E-004  0.1111432E+03  0.7818608E-02  0.1678203E+00
         11   -1    0    0    0    0  0.00000000000E+00  0.00000000000E+00  0.10002816656E+04  0.10002816656E+04  0.51100000000E-03 0. -1.
         -2   -1    0    0    0  501 -0.00000000000E+00 -0.00000000000E+00 -0.18449937635E+03  0.18449937636E+03  0.25500000000E-02 0.  1.
         11    1    1    2    0    0  0.96187445556E+02  0.45494673820E+02  0.58098153373E+03  0.59064484469E+03  0.51100000000E-03 0. -1.
         22    1    1    2    0    0 -0.99099006637E+02 -0.69158965564E+02  0.40481026775E+03  0.42246293152E+03  0.00000000000E+00 0. -1.
         -2    1    1    2    0  501  0.29115610817E+01  0.23664291744E+02 -0.17000951226E+03  0.17167326571E+03  0.25500000000E-02 0.  1.
<mgrwt>
<rscale>  0 0.23842733E+02</rscale>
<asrwt>0</asrwt>
<pdfrwt beam="1">  1       11 0.10000000E+01 0.11114318E+03</pdfrwt>
<pdfrwt beam="2">  1       -2 0.28392514E-01 0.23842733E+02</pdfrwt>
<totfact> 0.85118379E+01</totfact>
</mgrwt>
</event>
<event>
 5    1  0.6729100E-004  0.1794507E+03  0.7818608E-02  0.1244636E+00
         11   -1    0    0    0    0  0.00000000000E+00  0.00000000000E+00  0.10003984804E+04  0.10003984804E+04  0.51100000000E-03 0.  1.
          2   -1    0    0  501    0 -0.00000000000E+00 -0.00000000000E+00 -0.18316617534E+03  0.18316617536E+03  0.25500000000E-02 0.  1.
         11    1    1    2    0    0 -0.86012576956E+02  0.87566076509E+02  0.18811281611E+03  0.22461614531E+03  0.51100000000E-03 0.  1.
         22    1    1    2    0    0  0.19423312826E+03 -0.13722987230E+03  0.75148021437E+03  0.78821384063E+03  0.00000000000E+00 0.  1.
          2    1    1    2  501    0 -0.10822055130E+03  0.49663795795E+02 -0.12236072544E+03  0.17073466981E+03  0.25500000000E-02 0.  1.
<mgrwt>
<rscale>  0 0.11907216E+03</rscale>
<asrwt>0</asrwt>
<pdfrwt beam="1">  1       11 0.10000000E+01 0.17945068E+03</pdfrwt>
<pdfrwt beam="2">  1        2 0.28190640E-01 0.11907216E+03</pdfrwt>
<totfact> 0.22891545E+02</totfact>
</mgrwt>
</event>
<event>
 5    1  0.6729100E-004  0.1374825E+03  0.7818608E-02  0.1650066E+00
         11   -1    0    0    0    0  0.00000000000E+00  0.00000000000E+00  0.10002492862E+04  0.10002492862E+04  0.51100000000E-03 0.  1.
          2   -1    0    0  501    0 -0.00000000000E+00 -0.00000000000E+00 -0.43801598318E+02  0.43801598392E+02  0.25500000000E-02 0.  1.
         11    1    1    2    0    0 -0.12486581300E+02 -0.12874323767E+03  0.41311396142E+03  0.43289014897E+03  0.51100000000E-03 0.  1.
         22    1    1    2    0    0 -0.69498756551E+01  0.14567701882E+03  0.56117090011E+03  0.57981279196E+03  0.00000000000E+00 0.  1.
          2    1    1    2  501    0  0.19436456956E+02 -0.16933781150E+02 -0.17837173635E+02  0.31347943677E+02  0.25500000000E-02 0.  1.
<mgrwt>
<rscale>  0 0.25778456E+02</rscale>
<asrwt>0</asrwt>
<pdfrwt beam="1">  1       11 0.10000000E+01 0.13748251E+03</pdfrwt>
<pdfrwt beam="2">  1        2 0.67403871E-02 0.25778456E+02</pdfrwt>
<totfact> 0.10737290E+03</totfact>
</mgrwt>
</event>
<event>
 5    1  0.6729100E-004  0.2411259E+03  0.7818608E-02  0.1121261E+00
         11   -1    0    0    0    0  0.00000000000E+00  0.00000000000E+00  0.10001621086E+04  0.10001621086E+04  0.51100000000E-03 0. -1.
          2   -1    0    0  501    0 -0.00000000000E+00 -0.00000000000E+00 -0.23881866471E+03  0.23881866473E+03  0.25500000000E-02 0. -1.
         11    1    1    2    0    0 -0.16105698806E+03  0.11079345670E+03  0.80715903467E+03  0.83049397993E+03  0.51100000000E-03 0. -1.
         22    1    1    2    0    0 -0.31677803552E+02  0.28513036874E+02  0.11417376179E+03  0.12186929224E+03  0.00000000000E+00 0.  1.
          2    1    1    2  501    0  0.19273479162E+03 -0.13930649357E+03 -0.15998935254E+03  0.28661750118E+03  0.25500000000E-02 0. -1.
<mgrwt>
<rscale>  0 0.23780874E+03</rscale>
<asrwt>0</asrwt>
<pdfrwt beam="1">  1       11 0.10000000E+01 0.24112586E+03</pdfrwt>
<pdfrwt beam="2">  1        2 0.36747288E-01 0.23780874E+03</pdfrwt>
<totfact> 0.17358149E+02</totfact>
</mgrwt>
</event>
<event>
 5    1  0.6729100E-004  0.2935097E+03  0.7818608E-02  0.1088531E+00
         11   -1    0    0    0    0  0.00000000000E+00  0.00000000000E+00  0.99996346291E+03  0.99996346291E+03  0.51100000000E-03 0.  1.
          2   -1    0    0  501    0 -0.00000000000E+00 -0.00000000000E+00 -0.80133366835E+02  0.80133366875E+02  0.25500000000E-02 0.  1.
         11    1    1    2    0    0  0.26615048809E+03  0.56379811327E+02  0.41807936960E+03  0.49880369357E+03  0.51100000000E-03 0.  1.
         22    1    1    2    0    0 -0.12300215318E+03  0.18306699762E+02  0.15441900280E+03  0.19826722717E+03  0.00000000000E+00 0. -1.
          2    1    1    2  501    0 -0.14314833491E+03 -0.74686511088E+02  0.34733172368E+03  0.38302590905E+03  0.25500000000E-02 0.  1.
<mgrwt>
<rscale>  0 0.29350966E+03</rscale>
<asrwt>0</asrwt>
<pdfrwt beam="1">  1       11 0.10000000E+01 0.27205668E+03</pdfrwt>
<pdfrwt beam="2">  1        2 0.12327759E-01 0.29350966E+03</pdfrwt>
<totfact> 0.61071846E+02</totfact>
</mgrwt>
</event>
<event>
 5    1  0.6729100E-004  0.3412419E+03  0.7818608E-02  0.1066268E+00
         11   -1    0    0    0    0  0.00000000000E+00  0.00000000000E+00  0.10001652075E+04  0.10001652075E+04  0.51100000000E-03 0.  1.
          2   -1    0    0  501    0 -0.00000000000E+00 -0.00000000000E+00 -0.12320081676E+03  0.12320081678E+03  0.25500000000E-02 0.  1.
         11    1    1    2    0    0 -0.22039995939E+02 -0.33477975405E+03  0.41850592331E+03  0.53638647726E+03  0.51100000000E-03 0.  1.
         22    1    1    2    0    0  0.11840178825E+01 -0.11524280636E+02  0.48789878250E+02  0.50146417242E+02  0.00000000000E+00 0.  1.
          2    1    1    2  501    0  0.20855978056E+02  0.34630403469E+03  0.40966858922E+03  0.53683312981E+03  0.25500000000E-02 0.  1.
<mgrwt>
<rscale>  0 0.34124186E+03</rscale>
<asrwt>0</asrwt>
<pdfrwt beam="1">  1       11 0.10000000E+01 0.11584945E+02</pdfrwt>
<pdfrwt beam="2">  1        2 0.18957103E-01 0.34124186E+03</pdfrwt>
<totfact> 0.36704331E+02</totfact>
</mgrwt>
</event>
<event>
 5    1  0.6729100E-004  0.2931986E+03  0.7818608E-02  0.1100124E+00
         11   -1    0    0    0    0  0.00000000000E+00  0.00000000000E+00  0.99990234429E+03  0.99990234429E+03  0.51100000000E-03 0. -1.
          2   -1    0    0  501    0 -0.00000000000E+00 -0.00000000000E+00 -0.12909198934E+03  0.12909198936E+03  0.25500000000E-02 0. -1.
         11    1    1    2    0    0  0.21611992614E+03  0.56222565905E+02  0.54521121410E+03  0.58917235796E+03  0.51100000000E-03 0. -1.
         22    1    1    2    0    0  0.30957635770E+02  0.57585563645E+02  0.24867534692E+03  0.25712623460E+03  0.00000000000E+00 0.  1.
          2    1    1    2  501    0 -0.24707756191E+03 -0.11380812955E+03  0.76923793923E+02  0.28269574109E+03  0.25500000000E-02 0. -1.
<mgrwt>
<rscale>  0 0.27202870E+03</rscale>
<asrwt>0</asrwt>
<pdfrwt beam="1">  1       11 0.10000000E+01 0.29319863E+03</pdfrwt>
<pdfrwt beam="2">  1        2 0.19858366E-01 0.27202870E+03</pdfrwt>
<totfact> 0.34573272E+02</totfact>
</mgrwt>
</event>
<event>
 5    1  0.6729100E-004  0.1694968E+03  0.7818608E-02  0.1586078E+00
         11   -1    0    0    0    0  0.00000000000E+00  0.00000000000E+00  0.10001012361E+04  0.10001012361E+04  0.51100000000E-03 0. -1.
         -2   -1    0    0    0  501 -0.00000000000E+00 -0.00000000000E+00 -0.36636167789E+02  0.36636167878E+02  0.25500000000E-02 0.  1.
         11    1    1    2    0    0 -0.16815277943E+03  0.56270272055E+02  0.48453576443E+03  0.51596182781E+03  0.51100000000E-03 0. -1.
         22    1    1    2    0    0  0.16133841725E+03 -0.25910318133E+02  0.44813923253E+03  0.47700125911E+03  0.00000000000E+00 0.  1.
         -2    1    1    2    0  501  0.68143621746E+01 -0.30359953923E+02  0.30790071395E+02  0.43774317094E+02  0.25500000000E-02 0.  1.
<mgrwt>
<rscale>  0 0.31115307E+02</rscale>
<asrwt>0</asrwt>
<pdfrwt beam="1">  1       11 0.10000000E+01 0.16949679E+03</pdfrwt>
<pdfrwt beam="2">  1       -2 0.56369040E-02 0.31115307E+02</pdfrwt>
<totfact> 0.10613063E+03</totfact>
</mgrwt>
</event>
<event>
 5    1  0.6729100E-004  0.2196132E+03  0.7818608E-02  0.1287608E+00
         11   -1    0    0    0    0  0.00000000000E+00  0.00000000000E+00  0.10002588945E+04  0.10002588945E+04  0.51100000000E-03 0. -1.
          2   -1    0    0  501    0 -0.00000000000E+00 -0.00000000000E+00 -0.87355943456E+03  0.87355943456E+03  0.25500000000E-02 0. -1.
         11    1    1    2    0    0 -0.20000138170E+03  0.15437157185E+03  0.80408992511E+03  0.84284740169E+03  0.51100000000E-03 0. -1.
         22    1    1    2    0    0  0.13563060401E+03 -0.82341398676E+02  0.13775321586E+03  0.21012309526E+03  0.00000000000E+00 0. -1.
          2    1    1    2  501    0  0.64370777683E+02 -0.72030173176E+02 -0.81514368099E+03  0.82084783215E+03  0.25500000000E-02 0. -1.
<mgrwt>
<rscale>  0 0.96601982E+02</rscale>
<asrwt>0</asrwt>
<pdfrwt beam="1">  1       11 0.10000000E+01 0.21961317E+03</pdfrwt>
<pdfrwt beam="2">  1        2 0.13442855E+00 0.96601982E+02</pdfrwt>
<totfact> 0.41238635E+01</totfact>
</mgrwt>
</event>
<event>
 5    1  0.6729100E-004  0.2355442E+03  0.7818608E-02  0.1122797E+00
         11   -1    0    0    0    0  0.00000000000E+00  0.00000000000E+00  0.10002961413E+04  0.10002961413E+04  0.51100000000E-03 0.  1.
          2   -1    0    0  501    0 -0.00000000000E+00 -0.00000000000E+00 -0.90618694836E+02  0.90618694872E+02  0.25500000000E-02 0.  1.
         11    1    1    2    0    0 -0.21274737661E+03 -0.12216568044E+03  0.67866611557E+03  0.72164644816E+03  0.51100000000E-03 0.  1.
         22    1    1    2    0    0  0.23702038832E+02 -0.14053095671E+02  0.96203061911E+02  0.10007150076E+03  0.00000000000E+00 0. -1.
          2    1    1    2  501    0  0.18904533777E+03  0.13621877611E+03  0.13480826894E+03  0.26919688721E+03  0.25500000000E-02 0.  1.
<mgrwt>
<rscale>  0 0.23554421E+03</rscale>
<asrwt>0</asrwt>
<pdfrwt beam="1">  1       11 0.10000000E+01 0.27554966E+02</pdfrwt>
<pdfrwt beam="2">  1        2 0.13945466E-01 0.23554421E+03</pdfrwt>
<totfact> 0.52150053E+02</totfact>
</mgrwt>
</event>
<event>
 5    1  0.6729100E-004  0.4119870E+03  0.7818608E-02  0.1039706E+00
         11   -1    0    0    0    0  0.00000000000E+00  0.00000000000E+00  0.10006758539E+04  0.10006758539E+04  0.51100000000E-03 0. -1.
          2   -1    0    0  501    0 -0.00000000000E+00 -0.00000000000E+00 -0.17511827443E+04  0.17511827443E+04  0.25500000000E-02 0. -1.
         11    1    1    2    0    0 -0.46265914375E+02  0.41306156982E+03  0.84953747949E+03  0.94576652740E+03  0.51100000000E-03 0. -1.
         22    1    1    2    0    0 -0.41608217358E+02 -0.10597787508E+02  0.72119542743E+02  0.83933219272E+02  0.00000000000E+00 0. -1.
          2    1    1    2  501    0  0.87874131733E+02 -0.40246378231E+03 -0.16721639126E+04  0.17221588515E+04  0.25500000000E-02 0. -1.
<mgrwt>
<rscale>  0 0.41198702E+03</rscale>
<asrwt>0</asrwt>
<pdfrwt beam="1">  1       11 0.10000000E+01 0.42936661E+02</pdfrwt>
<pdfrwt beam="2">  1        2 0.26959481E+00 0.41198702E+03</pdfrwt>
<totfact> 0.12132373E+01</totfact>
</mgrwt>
</event>
<event>
 5    1  0.6729100E-004  0.1593305E+03  0.7818608E-02  0.1717777E+00
         11   -1    0    0    0    0  0.00000000000E+00  0.00000000000E+00  0.10003717744E+04  0.10003717744E+04  0.51100000000E-03 0. -1.
          2   -1    0    0  501    0 -0.00000000000E+00 -0.00000000000E+00 -0.18621639089E+03  0.18621639091E+03  0.25500000000E-02 0. -1.
         11    1    1    2    0    0 -0.99252570560E+02  0.12453657748E+03  0.62989779504E+03  0.64971660290E+03  0.51100000000E-03 0. -1.
         22    1    1    2    0    0  0.11585247654E+03 -0.11093741202E+03  0.34196258751E+03  0.37771327348E+03  0.00000000000E+00 0. -1.
          2    1    1    2  501    0 -0.16599905978E+02 -0.13599165458E+02 -0.15770499908E+03  0.15915828888E+03  0.25500000000E-02 0. -1.
<mgrwt>
<rscale>  0 0.21459128E+02</rscale>
<asrwt>0</asrwt>
<pdfrwt beam="1">  1       11 0.10000000E+01 0.15933051E+03</pdfrwt>
<pdfrwt beam="2">  1        2 0.28659326E-01 0.21459128E+02</pdfrwt>
<totfact> 0.21290265E+02</totfact>
</mgrwt>
</event>
<event>
 5    1  0.6729100E-004  0.1237640E+03  0.7818608E-02  0.1369103E+00
         11   -1    0    0    0    0  0.00000000000E+00  0.00000000000E+00  0.10005703567E+04  0.10005703567E+04  0.51100000000E-03 0. -1.
          2   -1    0    0  501    0 -0.00000000000E+00 -0.00000000000E+00 -0.34539600764E+02  0.34539600858E+02  0.25500000000E-02 0. -1.
         11    1    1    2    0    0  0.14351979733E+03  0.52402154621E+02  0.41162528292E+03  0.43906638630E+03  0.51100000000E-03 0. -1.
         22    1    1    2    0    0 -0.81694648762E+02 -0.79285645627E+02  0.48912989980E+03  0.50220343300E+03  0.00000000000E+00 0. -1.
          2    1    1    2  501    0 -0.61825148565E+02  0.26883491005E+02  0.65275573207E+02  0.93840138255E+02  0.25500000000E-02 0. -1.
<mgrwt>
<rscale>  0 0.67417142E+02</rscale>
<asrwt>0</asrwt>
<pdfrwt beam="1">  1       11 0.10000000E+01 0.12376404E+03</pdfrwt>
<pdfrwt beam="2">  1        2 0.53168153E-02 0.67417142E+02</pdfrwt>
<totfact> 0.15911755E+03</totfact>
</mgrwt>
</event>
<event>
 5    1  0.6729100E-004  0.1944485E+03  0.7818608E-02  0.1159339E+00
         11   -1    0    0    0    0  0.00000000000E+00  0.00000000000E+00  0.99995512008E+03  0.99995512008E+03  0.51100000000E-03 0.  1.
         -2   -1    0    0    0  501 -0.00000000000E+00 -0.00000000000E+00 -0.30712730770E+03  0.30712730771E+03  0.25500000000E-02 0. -1.
         11    1    1    2    0    0 -0.13998018596E+03 -0.11550065715E+03  0.89882340356E+03  0.91696148504E+03  0.51100000000E-03 0.  1.
         22    1    1    2    0    0 -0.12425224938E+02  0.36741641502E+01  0.61346640316E+02  0.62700047648E+02  0.00000000000E+00 0.  1.
         -2    1    1    2    0  501  0.15240541089E+03  0.11182649300E+03 -0.26734223149E+03  0.32742089510E+03  0.25500000000E-02 0. -1.
<mgrwt>
<rscale>  0 0.18903062E+03</rscale>
<asrwt>0</asrwt>
<pdfrwt beam="1">  1       11 0.10000000E+01 0.19444846E+03</pdfrwt>
<pdfrwt beam="2">  1       -2 0.47248233E-01 0.18903062E+03</pdfrwt>
<totfact> 0.34844020E+01</totfact>
</mgrwt>
</event>
<event>
 5    1  0.6729100E-004  0.1690644E+03  0.7818608E-02  0.1286836E+00
         11   -1    0    0    0    0  0.00000000000E+00  0.00000000000E+00  0.99986710036E+03  0.99986710036E+03  0.51100000000E-03 0. -1.
         -2   -1    0    0    0  501 -0.00000000000E+00 -0.00000000000E+00 -0.93769919774E+03  0.93769919775E+03  0.25500000000E-02 0.  1.
         11    1    1    2    0    0 -0.15156858213E+03 -0.11787175554E+03  0.81297467627E+03  0.83534101426E+03  0.51100000000E-03 0. -1.
         22    1    1    2    0    0  0.54615448555E+02  0.11807765898E+03  0.14866051856E+03  0.19754779308E+03  0.00000000000E+00 0. -1.
         -2    1    1    2    0  501  0.96953133571E+02 -0.20590343761E+00 -0.89946729222E+03  0.90467749076E+03  0.25500000000E-02 0.  1.
<mgrwt>
<rscale>  0 0.96953352E+02</rscale>
<asrwt>0</asrwt>
<pdfrwt beam="1">  1       11 0.10000000E+01 0.16906438E+03</pdfrwt>
<pdfrwt beam="2">  1       -2 0.14424224E+00 0.96953352E+02</pdfrwt>
<totfact> 0.29908751E+00</totfact>
</mgrwt>
</event>
<event>
 5    1  0.6729100E-004  0.3965855E+03  0.7818608E-02  0.1044968E+00
         11   -1    0    0    0    0  0.00000000000E+00  0.00000000000E+00  0.10005705975E+04  0.10005705975E+04  0.51100000000E-03 0. -1.
          2   -1    0    0  501    0 -0.00000000000E+00 -0.00000000000E+00 -0.39624055938E+03  0.39624055939E+03  0.25500000000E-02 0. -1.
         11    1    1    2    0    0 -0.61299852721E+02  0.39027507356E+03  0.75106817012E+03  0.84863166400E+03  0.51100000000E-03 0. -1.
         22    1    1    2    0    0 -0.19822184867E+02 -0.17905467261E+01  0.85886835146E+02  0.88162767209E+02  0.00000000000E+00 0. -1.
          2    1    1    2  501    0  0.81122037588E+02 -0.38848452684E+03 -0.23262496713E+03  0.46001672569E+03  0.25500000000E-02 0. -1.
<mgrwt>
<rscale>  0 0.39658547E+03</rscale>
<asrwt>0</asrwt>
<pdfrwt beam="1">  1       11 0.10000000E+01 0.19902891E+02</pdfrwt>
<pdfrwt beam="2">  1        2 0.60994868E-01 0.39658547E+03</pdfrwt>
<totfact> 0.99936792E+01</totfact>
</mgrwt>
</event>
<event>
 5    1  0.6729100E-004  0.2545939E+03  0.7818608E-02  0.1330202E+00
         11   -1    0    0    0    0  0.00000000000E+00  0.00000000000E+00  0.10003247831E+04  0.10003247831E+04  0.51100000000E-03 0. -1.
          2   -1    0    0  501    0 -0.00000000000E+00 -0.00000000000E+00 -0.91910183065E+03  0.91910183065E+03  0.25500000000E-02 0. -1.
         11    1    1    2    0    0  0.23821686568E+03  0.75595088558E+02  0.85572065020E+03  0.89147054000E+03  0.51100000000E-03 0. -1.
         22    1    1    2    0    0 -0.27260926591E+03 -0.14737724803E+03 -0.68360308700E+02  0.31734680856E+03  0.00000000000E+00 0.  1.
          2    1    1    2  501    0  0.34392400231E+02  0.71782159472E+02 -0.70613738903E+03  0.71060926521E+03  0.25500000000E-02 0. -1.
<mgrwt>
<rscale>  0 0.79595952E+02</rscale>
<asrwt>0</asrwt>
<pdfrwt beam="1">  1       11 0.10000000E+01 0.25459386E+03</pdfrwt>
<pdfrwt beam="2">  1        2 0.14144620E+00 0.79595952E+02</pdfrwt>
<totfact> 0.38973936E+01</totfact>
</mgrwt>
</event>
<event>
 5    1  0.6729100E-004  0.1952360E+03  0.7818608E-02  0.1153822E+00
         11   -1    0    0    0    0  0.00000000000E+00  0.00000000000E+00  0.99982887110E+03  0.99982887110E+03  0.51100000000E-03 0.  1.
          2   -1    0    0  501    0 -0.00000000000E+00 -0.00000000000E+00 -0.33122378049E+03  0.33122378050E+03  0.25500000000E-02 0. -1.
         11    1    1    2    0    0 -0.17902074495E+03 -0.36424961739E+02  0.78686884795E+03  0.80779811143E+03  0.51100000000E-03 0.  1.
         22    1    1    2    0    0  0.74699164442E+01 -0.58421540330E+02  0.16702842811E+03  0.17710836181E+03  0.00000000000E+00 0.  1.
          2    1    1    2  501    0  0.17155082850E+03  0.94846502069E+02 -0.28529218545E+03  0.34614617837E+03  0.25500000000E-02 0. -1.
<mgrwt>
<rscale>  0 0.19523596E+03</rscale>
<asrwt>0</asrwt>
<pdfrwt beam="1">  1       11 0.10000000E+01 0.58897165E+02</pdfrwt>
<pdfrwt beam="2">  1        2 0.50948783E-01 0.19523596E+03</pdfrwt>
<totfact> 0.12197989E+02</totfact>
</mgrwt>
</event>
<event>
 5    1  0.6729100E-004  0.1265672E+03  0.7818608E-02  0.1442449E+00
         11   -1    0    0    0    0  0.00000000000E+00  0.00000000000E+00  0.99964127869E+03  0.99964127869E+03  0.51100000000E-03 0. -1.
          2   -1    0    0  501    0 -0.00000000000E+00 -0.00000000000E+00 -0.20078062553E+02  0.20078062715E+02  0.25500000000E-02 0. -1.
         11    1    1    2    0    0 -0.75181510131E+02  0.10731543102E+03  0.37327821834E+03  0.39560774700E+03  0.51100000000E-03 0. -1.
         22    1    1    2    0    0  0.19772635257E+02  0.40420762324E+01  0.46773722339E+02  0.50941894220E+02  0.00000000000E+00 0.  1.
          2    1    1    2  501    0  0.55408874874E+02 -0.11135750725E+03  0.55951127546E+03  0.57316970018E+03  0.25500000000E-02 0. -1.
<mgrwt>
<rscale>  0 0.50540313E+02</rscale>
<asrwt>0</asrwt>
<pdfrwt beam="1">  1       11 0.10000000E+01 0.12656723E+03</pdfrwt>
<pdfrwt beam="2">  1        2 0.30878246E-02 0.50540313E+02</pdfrwt>
<totfact> 0.31006933E+03</totfact>
</mgrwt>
</event>
<event>
 5    1  0.6729100E-004  0.3565924E+03  0.7818608E-02  0.1059941E+00
         11   -1    0    0    0    0  0.00000000000E+00  0.00000000000E+00  0.99977126615E+03  0.99977126615E+03  0.51100000000E-03 0.  1.
          2   -1    0    0  501    0 -0.00000000000E+00 -0.00000000000E+00 -0.76169343934E+03  0.76169343935E+03  0.25500000000E-02 0.  1.
         11    1    1    2    0    0  0.14324738021E+03  0.23517755822E+03  0.69935558604E+03  0.75161594684E+03  0.51100000000E-03 0.  1.
         22    1    1    2    0    0 -0.15895746057E+03  0.12945264808E+03  0.17946164006E+03  0.27245539566E+03  0.00000000000E+00 0.  1.
          2    1    1    2  501    0  0.15710080363E+02 -0.36463020630E+03 -0.64073939930E+03  0.73739336300E+03  0.25500000000E-02 0.  1.
<mgrwt>
<rscale>  0 0.35659238E+03</rscale>
<asrwt>0</asrwt>
<pdfrwt beam="1">  1       11 0.10000000E+01 0.20500113E+03</pdfrwt>
<pdfrwt beam="2">  1        2 0.11715680E+00 0.35659238E+03</pdfrwt>
<totfact> 0.46743502E+01</totfact>
</mgrwt>
</event>
<event>
 5    1  0.6729100E-004  0.1715905E+03  0.7818608E-02  0.1176199E+00
         11   -1    0    0    0    0  0.00000000000E+00  0.00000000000E+00  0.10001602492E+04  0.10001602492E+04  0.51100000000E-03 0.  1.
          2   -1    0    0  501    0 -0.00000000000E+00 -0.00000000000E+00 -0.34744814761E+02  0.34744814854E+02  0.25500000000E-02 0.  1.
         11    1    1    2    0    0  0.15464370216E+03 -0.85356453007E+02  0.55514398462E+03  0.58256780065E+03  0.51100000000E-03 0.  1.
         22    1    1    2    0    0 -0.13659753052E+02 -0.72465439297E+01  0.80052963611E+02  0.81532682007E+02  0.00000000000E+00 0. -1.
          2    1    1    2  501    0 -0.14098394911E+03  0.92602996937E+02  0.33021848618E+03  0.37080458137E+03  0.25500000000E-02 0.  1.
<mgrwt>
<rscale>  0 0.17159050E+03</rscale>
<asrwt>0</asrwt>
<pdfrwt beam="1">  1       11 0.10000000E+01 0.15462899E+02</pdfrwt>
<pdfrwt beam="2">  1        2 0.53462126E-02 0.17159050E+03</pdfrwt>
<totfact> 0.17102996E+03</totfact>
</mgrwt>
</event>
<event>
 5    1  0.6729100E-004  0.2452337E+03  0.7818608E-02  0.1129661E+00
         11   -1    0    0    0    0  0.00000000000E+00  0.00000000000E+00  0.10001221775E+04  0.10001221775E+04  0.51100000000E-03 0. -1.
          2   -1    0    0  501    0 -0.00000000000E+00 -0.00000000000E+00 -0.56063856004E+02  0.56063856062E+02  0.25500000000E-02 0. -1.
         11    1    1    2    0    0  0.73769085023E+02  0.16589919926E+03  0.36272584203E+03  0.40562847373E+03  0.51100000000E-03 0. -1.
         22    1    1    2    0    0  0.57479737835E+02  0.17787197568E+02  0.18374508205E+03  0.19334570033E+03  0.00000000000E+00 0. -1.
          2    1    1    2  501    0 -0.13124882286E+03 -0.18368639683E+03  0.39758739741E+03  0.45721185950E+03  0.25500000000E-02 0. -1.
<mgrwt>
<rscale>  0 0.22575860E+03</rscale>
<asrwt>0</asrwt>
<pdfrwt beam="1">  1       11 0.10000000E+01 0.24523375E+03</pdfrwt>
<pdfrwt beam="2">  1        2 0.86262622E-02 0.22575860E+03</pdfrwt>
<totfact> 0.94052858E+02</totfact>
</mgrwt>
</event>
<event>
 5    1  0.6729100E-004  0.3164292E+03  0.7818608E-02  0.1078524E+00
         11   -1    0    0    0    0  0.00000000000E+00  0.00000000000E+00  0.10002465711E+04  0.10002465711E+04  0.51100000000E-03 0. -1.
          2   -1    0    0  501    0 -0.00000000000E+00 -0.00000000000E+00 -0.26723969016E+03  0.26723969017E+03  0.25500000000E-02 0. -1.
         11    1    1    2    0    0  0.27570761702E+03 -0.10358814567E+03  0.79882381232E+03  0.85138985026E+03  0.51100000000E-03 0. -1.
         22    1    1    2    0    0  0.21427798672E+02  0.25893099686E+01  0.70653399914E+02  0.73876640431E+02  0.00000000000E+00 0. -1.
          2    1    1    2  501    0 -0.29713541569E+03  0.10099883570E+03 -0.13647033126E+03  0.34221977060E+03  0.25500000000E-02 0. -1.
<mgrwt>
<rscale>  0 0.31383152E+03</rscale>
<asrwt>0</asrwt>
<pdfrwt beam="1">  1       11 0.10000000E+01 0.31642923E+03</pdfrwt>
<pdfrwt beam="2">  1        2 0.41123935E-01 0.31383152E+03</pdfrwt>
<totfact> 0.15387594E+02</totfact>
</mgrwt>
</event>
<event>
 5    1  0.6729100E-004  0.2014227E+03  0.7818608E-02  0.1465223E+00
         11   -1    0    0    0    0  0.00000000000E+00  0.00000000000E+00  0.10001970541E+04  0.10001970541E+04  0.51100000000E-03 0.  1.
          2   -1    0    0  501    0 -0.00000000000E+00 -0.00000000000E+00 -0.26579949299E+03  0.26579949300E+03  0.25500000000E-02 0.  1.
         11    1    1    2    0    0  0.97302180404E+02 -0.17597408567E+03  0.93618918256E+03  0.95754100627E+03  0.51100000000E-03 0.  1.
         22    1    1    2    0    0  0.99436215375E+01 -0.40379749373E+01  0.68705116482E+01  0.12743028729E+02  0.00000000000E+00 0.  1.
          2    1    1    2  501    0 -0.10724580194E+03  0.18001206060E+03 -0.20866213312E+03  0.29571251208E+03  0.25500000000E-02 0.  1.
<mgrwt>
<rscale>  0 0.46494250E+02</rscale>
<asrwt>0</asrwt>
<pdfrwt beam="1">  1       11 0.10000000E+01 0.20142267E+03</pdfrwt>
<pdfrwt beam="2">  1        2 0.40900287E-01 0.46494250E+02</pdfrwt>
<totfact> 0.15184237E+02</totfact>
</mgrwt>
</event>
<event>
 5    1  0.6729100E-004  0.2868470E+03  0.7818608E-02  0.1608220E+00
         11   -1    0    0    0    0  0.00000000000E+00  0.00000000000E+00  0.10004790296E+04  0.10004790296E+04  0.51100000000E-03 0. -1.
          2   -1    0    0  501    0 -0.00000000000E+00 -0.00000000000E+00 -0.94214285831E+02  0.94214285865E+02  0.25500000000E-02 0. -1.
         11    1    1    2    0    0 -0.24589521552E+03  0.13222660819E+03  0.44801601642E+03  0.52788889352E+03  0.51100000000E-03 0. -1.
         22    1    1    2    0    0  0.24813305738E+03 -0.16124353509E+03  0.44596714483E+03  0.53521601811E+03  0.00000000000E+00 0. -1.
          2    1    1    2  501    0 -0.22378418520E+01  0.29016926903E+02  0.12281582564E+02  0.31588403883E+02  0.25500000000E-02 0. -1.
<mgrwt>
<rscale>  0 0.29103092E+02</rscale>
<asrwt>0</asrwt>
<pdfrwt beam="1">  1       11 0.10000000E+01 0.28684700E+03</pdfrwt>
<pdfrwt beam="2">  1        2 0.14501448E-01 0.29103092E+02</pdfrwt>
<totfact> 0.44667393E+02</totfact>
</mgrwt>
</event>
<event>
 5    1  0.6729100E-004  0.1107903E+03  0.7818608E-02  0.1506082E+00
         11   -1    0    0    0    0  0.00000000000E+00  0.00000000000E+00  0.99996948214E+03  0.99996948214E+03  0.51100000000E-03 0.  1.
          2   -1    0    0  501    0 -0.00000000000E+00 -0.00000000000E+00 -0.16086361002E+02  0.16086361204E+02  0.25500000000E-02 0.  1.
         11    1    1    2    0    0  0.32177790256E+02  0.10380352458E+03  0.61454868870E+03  0.62408386670E+03  0.51100000000E-03 0.  1.
         22    1    1    2    0    0  0.14537224297E+02  0.18341890428E+01  0.27653307098E+02  0.31295375588E+02  0.00000000000E+00 0.  1.
          2    1    1    2  501    0 -0.46715014553E+02 -0.10563771362E+03  0.34168112534E+03  0.36067660105E+03  0.25500000000E-02 0.  1.
<mgrwt>
<rscale>  0 0.40290853E+02</rscale>
<asrwt>0</asrwt>
<pdfrwt beam="1">  1       11 0.10000000E+01 0.11079032E+03</pdfrwt>
<pdfrwt beam="2">  1        2 0.24747492E-02 0.40290853E+02</pdfrwt>
<totfact> 0.40069325E+03</totfact>
</mgrwt>
</event>
<event>
 5    1  0.6729100E-004  0.1197574E+03  0.7818608E-02  0.1255001E+00
         11   -1    0    0    0    0  0.00000000000E+00  0.00000000000E+00  0.10000564961E+04  0.10000564961E+04  0.51100000000E-03 0. -1.
         -2   -1    0    0    0  501 -0.00000000000E+00 -0.00000000000E+00 -0.15088682087E+02  0.15088682303E+02  0.25500000000E-02 0.  1.
         11    1    1    2    0    0 -0.95024207080E+02  0.35115936315E+02  0.60282476131E+03  0.61127769611E+03  0.51100000000E-03 0. -1.
         22    1    1    2    0    0 -0.14823295898E+02 -0.83456077241E+01  0.64376655685E+02  0.66586282872E+02  0.00000000000E+00 0.  1.
         -2    1    1    2    0  501  0.10984750298E+03 -0.26770328591E+02  0.31776639705E+03  0.33728119945E+03  0.25500000000E-02 0.  1.
<mgrwt>
<rscale>  0 0.11306248E+03</rscale>
<asrwt>0</asrwt>
<pdfrwt beam="1">  1       11 0.10000000E+01 0.11975743E+03</pdfrwt>
<pdfrwt beam="2">  1       -2 0.23214668E-02 0.11306248E+03</pdfrwt>
<totfact> 0.44910844E+03</totfact>
</mgrwt>
</event>
<event>
 5    1  0.6729100E-004  0.1561579E+03  0.7818608E-02  0.1193104E+00
         11   -1    0    0    0    0  0.00000000000E+00  0.00000000000E+00  0.10003436342E+04  0.10003436342E+04  0.51100000000E-03 0.  1.
         -2   -1    0    0    0  501 -0.00000000000E+00 -0.00000000000E+00 -0.89979414681E+02  0.89979414718E+02  0.25500000000E-02 0.  1.
         11    1    1    2    0    0 -0.93124320218E+02 -0.41362468904E+02  0.49510758120E+03  0.50548443083E+03  0.51100000000E-03 0.  1.
         22    1    1    2    0    0 -0.72814952386E+02  0.82292821071E+02  0.39819330125E+03  0.41307630149E+03  0.00000000000E+00 0.  1.
         -2    1    1    2    0  501  0.16593927260E+03 -0.40930352167E+02  0.17063337056E+02  0.17176231659E+03  0.25500000000E-02 0.  1.
<mgrwt>
<rscale>  0 0.15615792E+03</rscale>
<asrwt>0</asrwt>
<pdfrwt beam="1">  1       11 0.10000000E+01 0.10189697E+03</pdfrwt>
<pdfrwt beam="2">  1       -2 0.13847743E-01 0.15615792E+03</pdfrwt>
<totfact> 0.30577795E+02</totfact>
</mgrwt>
</event>
<event>
 5    1  0.6729100E-004  0.9917130E+02  0.7818608E-02  0.1282048E+00
         11   -1    0    0    0    0  0.00000000000E+00  0.00000000000E+00  0.10000116917E+04  0.10000116917E+04  0.51100000000E-03 0. -1.
          2   -1    0    0  501    0 -0.00000000000E+00 -0.00000000000E+00 -0.47124173968E+03  0.47124173969E+03  0.25500000000E-02 0. -1.
         11    1    1    2    0    0 -0.17083415527E+03  0.35505369893E+02  0.49814164930E+03  0.52781629632E+03  0.51100000000E-03 0. -1.
         22    1    1    2    0    0  0.87271194741E+02  0.16632878284E+02  0.47757404730E+03  0.48576731542E+03  0.00000000000E+00 0. -1.
          2    1    1    2  501    0  0.83562960526E+02 -0.52138248178E+02 -0.44694574454E+03  0.45766981970E+03  0.25500000000E-02 0. -1.
<mgrwt>
<rscale>  0 0.99171302E+02</rscale>
<asrwt>0</asrwt>
<pdfrwt beam="1">  1       11 0.10000000E+01 0.88842074E+02</pdfrwt>
<pdfrwt beam="2">  1        2 0.72499575E-01 0.99171302E+02</pdfrwt>
<totfact> 0.83922577E+01</totfact>
</mgrwt>
</event>
<event>
 5    1  0.6729100E-004  0.1131219E+03  0.7818608E-02  0.1631578E+00
         11   -1    0    0    0    0  0.00000000000E+00  0.00000000000E+00  0.10002155880E+04  0.10002155880E+04  0.51100000000E-03 0. -1.
          2   -1    0    0  501    0 -0.00000000000E+00 -0.00000000000E+00 -0.74919623197E+03  0.74919623198E+03  0.25500000000E-02 0. -1.
         11    1    1    2    0    0  0.10770955813E+03 -0.22205022339E+02  0.42220631338E+03  0.43629414732E+03  0.51100000000E-03 0. -1.
         22    1    1    2    0    0 -0.10630932636E+03  0.49345152220E+02  0.56469724961E+03  0.57673182732E+03  0.00000000000E+00 0. -1.
          2    1    1    2  501    0 -0.14002317699E+01 -0.27140129881E+02 -0.73588420692E+03  0.73638584539E+03  0.25500000000E-02 0. -1.
<mgrwt>
<rscale>  0 0.27176227E+02</rscale>
<asrwt>0</asrwt>
<pdfrwt beam="1">  1       11 0.10000000E+01 0.11312187E+03</pdfrwt>
<pdfrwt beam="2">  1        2 0.11528580E+00 0.27176227E+02</pdfrwt>
<totfact> 0.52010064E+01</totfact>
</mgrwt>
</event>
<event>
 5    1  0.6729100E-004  0.1707905E+03  0.7818608E-02  0.1177026E+00
         11   -1    0    0    0    0  0.00000000000E+00  0.00000000000E+00  0.10001730202E+04  0.10001730202E+04  0.51100000000E-03 0. -1.
          2   -1    0    0  501    0 -0.00000000000E+00 -0.00000000000E+00 -0.53464268355E+03  0.53464268355E+03  0.25500000000E-02 0. -1.
         11    1    1    2    0    0  0.11136580071E+03 -0.14996068514E+03  0.30685477433E+03  0.35923585732E+03  0.51100000000E-03 0. -1.
         22    1    1    2    0    0 -0.10532557036E+03 -0.21407340444E+02  0.64811774537E+03  0.65696907223E+03  0.00000000000E+00 0. -1.
          2    1    1    2  501    0 -0.60402303511E+01  0.17136802558E+03 -0.48944218305E+03  0.51861077421E+03  0.25500000000E-02 0. -1.
<mgrwt>
<rscale>  0 0.17079046E+03</rscale>
<asrwt>0</asrwt>
<pdfrwt beam="1">  1       11 0.10000000E+01 0.10747907E+03</pdfrwt>
<pdfrwt beam="2">  1        2 0.82266950E-01 0.17079046E+03</pdfrwt>
<totfact> 0.72468892E+01</totfact>
</mgrwt>
</event>
<event>
 5    1  0.6729100E-004  0.1250372E+03  0.7818608E-02  0.1573844E+00
         11   -1    0    0    0    0  0.00000000000E+00  0.00000000000E+00  0.10001341786E+04  0.10001341786E+04  0.51100000000E-03 0.  1.
          2   -1    0    0  501    0 -0.00000000000E+00 -0.00000000000E+00 -0.40623710306E+02  0.40623710386E+02  0.25500000000E-02 0.  1.
         11    1    1    2    0    0  0.20373397129E+02 -0.11119760274E+03  0.34022681715E+03  0.35851676289E+03  0.51100000000E-03 0.  1.
         22    1    1    2    0    0  0.10661715579E+01  0.13537349937E+03  0.63287046246E+03  0.64718787327E+03  0.00000000000E+00 0.  1.
          2    1    1    2  501    0 -0.21439568687E+02 -0.24175896636E+02 -0.13586811335E+02  0.35053252807E+02  0.25500000000E-02 0.  1.
<mgrwt>
<rscale>  0 0.32312986E+02</rscale>
<asrwt>0</asrwt>
<pdfrwt beam="1">  1       11 0.10000000E+01 0.12503718E+03</pdfrwt>
<pdfrwt beam="2">  1        2 0.62506400E-02 0.32312986E+02</pdfrwt>
<totfact> 0.12063406E+03</totfact>
</mgrwt>
</event>
<event>
 5    1  0.6729100E-004  0.8793688E+02  0.7818608E-02  0.1307926E+00
         11   -1    0    0    0    0  0.00000000000E+00  0.00000000000E+00  0.10001744549E+04  0.10001744549E+04  0.51100000000E-03 0. -1.
          2   -1    0    0  501    0 -0.00000000000E+00 -0.00000000000E+00 -0.12704178252E+02  0.12704178508E+02  0.25500000000E-02 0. -1.
         11    1    1    2    0    0  0.28328578239E+02 -0.73410289680E+02  0.13790650748E+03  0.15877589169E+03  0.51100000000E-03 0. -1.
         22    1    1    2    0    0 -0.17215871351E+02  0.36067309935E+02  0.24084600489E+03  0.24413937648E+03  0.00000000000E+00 0. -1.
          2    1    1    2  501    0 -0.11112706888E+02  0.37342979745E+02  0.60871776424E+03  0.60996336521E+03  0.25500000000E-02 0. -1.
<mgrwt>
<rscale>  0 0.87936884E+02</rscale>
<asrwt>0</asrwt>
<pdfrwt beam="1">  1       11 0.10000000E+01 0.78686626E+02</pdfrwt>
<pdfrwt beam="2">  1        2 0.19548299E-02 0.87936884E+02</pdfrwt>
<totfact> 0.61076649E+03</totfact>
</mgrwt>
</event>
<event>
 5    1  0.6729100E-004  0.4557553E+03  0.7818608E-02  0.1026020E+00
         11   -1    0    0    0    0  0.00000000000E+00  0.00000000000E+00  0.99972205978E+03  0.99972205978E+03  0.51100000000E-03 0. -1.
          2   -1    0    0  501    0 -0.00000000000E+00 -0.00000000000E+00 -0.29287224434E+03  0.29287224435E+03  0.25500000000E-02 0. -1.
         11    1    1    2    0    0 -0.10115529654E+03 -0.44109305515E+03  0.20998246813E+02  0.45303024589E+03  0.51100000000E-03 0. -1.
         22    1    1    2    0    0  0.73560200223E+01 -0.14972063277E+02  0.40314663373E+02  0.43629643503E+02  0.00000000000E+00 0. -1.
          2    1    1    2  501    0  0.93799276517E+02  0.45606511843E+03  0.64553690525E+03  0.79593441474E+03  0.25500000000E-02 0. -1.
<mgrwt>
<rscale>  0 0.45575526E+03</rscale>
<asrwt>0</asrwt>
<pdfrwt beam="1">  1       11 0.10000000E+01 0.16681538E+02</pdfrwt>
<pdfrwt beam="2">  1        2 0.45044744E-01 0.45575526E+03</pdfrwt>
<totfact> 0.13941276E+02</totfact>
</mgrwt>
</event>
<event>
 5    1  0.6729100E-004  0.9415278E+02  0.7818608E-02  0.1333716E+00
         11   -1    0    0    0    0  0.00000000000E+00  0.00000000000E+00  0.10003719756E+04  0.10003719756E+04  0.51100000000E-03 0.  1.
          2   -1    0    0  501    0 -0.00000000000E+00 -0.00000000000E+00 -0.18148154933E+02  0.18148155112E+02  0.25500000000E-02 0.  1.
         11    1    1    2    0    0 -0.41371259350E+02  0.72822865780E+02  0.33390055620E+03  0.34424458211E+03  0.51100000000E-03 0.  1.
         22    1    1    2    0    0 -0.63497113771E+02 -0.15011052157E+02  0.21144826230E+03  0.22128620105E+03  0.00000000000E+00 0.  1.
          2    1    1    2  501    0  0.10486837312E+03 -0.57811813623E+02  0.43687500219E+03  0.45298934758E+03  0.25500000000E-02 0.  1.
<mgrwt>
<rscale>  0 0.78378686E+02</rscale>
<asrwt>0</asrwt>
<pdfrwt beam="1">  1       11 0.10000000E+01 0.94152782E+02</pdfrwt>
<pdfrwt beam="2">  1        2 0.27930623E-02 0.78378686E+02</pdfrwt>
<totfact> 0.37355160E+03</totfact>
</mgrwt>
</event>
<event>
 5    1  0.6729100E-004  0.1158915E+03  0.7818608E-02  0.1415575E+00
         11   -1    0    0    0    0  0.00000000000E+00  0.00000000000E+00  0.99978376819E+03  0.99978376819E+03  0.51100000000E-03 0.  1.
          2   -1    0    0  501    0 -0.00000000000E+00 -0.00000000000E+00 -0.29394029548E+03  0.29394029549E+03  0.25500000000E-02 0.  1.
         11    1    1    2    0    0  0.14792773882E+02 -0.11353697657E+03  0.32646407946E+03  0.34595992020E+03  0.51100000000E-03 0.  1.
         22    1    1    2    0    0 -0.69078838291E+02  0.99918499560E+02  0.65517818688E+03  0.66634379191E+03  0.00000000000E+00 0.  1.
          2    1    1    2  501    0  0.54286064409E+02  0.13618477011E+02 -0.27579879363E+03  0.28142035157E+03  0.25500000000E-02 0.  1.
<mgrwt>
<rscale>  0 0.55968203E+02</rscale>
<asrwt>0</asrwt>
<pdfrwt beam="1">  1       11 0.10000000E+01 0.11589149E+03</pdfrwt>
<pdfrwt beam="2">  1        2 0.45211804E-01 0.55968203E+02</pdfrwt>
<totfact> 0.13741636E+02</totfact>
</mgrwt>
</event>
<event>
 5    1  0.6729100E-004  0.3007233E+03  0.7818608E-02  0.1087724E+00
         11   -1    0    0    0    0  0.00000000000E+00  0.00000000000E+00  0.10002083999E+04  0.10002083999E+04  0.51100000000E-03 0.  1.
          2   -1    0    0  501    0 -0.00000000000E+00 -0.00000000000E+00 -0.88367112613E+03  0.88367112613E+03  0.25500000000E-02 0.  1.
         11    1    1    2    0    0  0.18006742276E+03 -0.20221939359E+03  0.80541108537E+03  0.84970817127E+03  0.51100000000E-03 0.  1.
         22    1    1    2    0    0  0.19880726012E+02 -0.14794386269E+02  0.14630869909E+03  0.14839256235E+03  0.00000000000E+00 0. -1.
          2    1    1    2  501    0 -0.19994814877E+03  0.21701377986E+03 -0.83518251071E+03  0.88577879239E+03  0.25500000000E-02 0.  1.
<mgrwt>
<rscale>  0 0.29508345E+03</rscale>
<asrwt>0</asrwt>
<pdfrwt beam="1">  1       11 0.10000000E+01 0.30072334E+03</pdfrwt>
<pdfrwt beam="2">  1        2 0.13597773E+00 0.29508345E+03</pdfrwt>
<totfact> 0.38778023E+01</totfact>
</mgrwt>
</event>
<event>
 5    1  0.6729100E-004  0.2866894E+03  0.7818608E-02  0.1092090E+00
         11   -1    0    0    0    0  0.00000000000E+00  0.00000000000E+00  0.10000643283E+04  0.10000643283E+04  0.51100000000E-03 0. -1.
          2   -1    0    0  501    0 -0.00000000000E+00 -0.00000000000E+00 -0.11305075014E+03  0.11305075017E+03  0.25500000000E-02 0. -1.
         11    1    1    2    0    0 -0.23419381277E+03  0.15135756305E+03  0.19920088177E+03  0.34269059679E+03  0.51100000000E-03 0. -1.
         22    1    1    2    0    0 -0.63523173617E+01  0.35877116606E+02  0.12698557905E+03  0.13210926053E+03  0.00000000000E+00 0. -1.
          2    1    1    2  501    0  0.24054613013E+03 -0.18723467966E+03  0.56082711733E+03  0.63831522113E+03  0.25500000000E-02 0. -1.
<mgrwt>
<rscale>  0 0.28668944E+03</rscale>
<asrwt>0</asrwt>
<pdfrwt beam="1">  1       11 0.10000000E+01 0.36435140E+02</pdfrwt>
<pdfrwt beam="2">  1        2 0.17393541E-01 0.28668944E+03</pdfrwt>
<totfact> 0.40396512E+02</totfact>
</mgrwt>
</event>
<event>
 5    1  0.6729100E-004  0.1700268E+03  0.7818608E-02  0.1524181E+00
         11   -1    0    0    0    0  0.00000000000E+00  0.00000000000E+00  0.10003502003E+04  0.10003502003E+04  0.51100000000E-03 0. -1.
          2   -1    0    0  501    0 -0.00000000000E+00 -0.00000000000E+00 -0.11848808198E+04  0.11848808198E+04  0.25500000000E-02 0.  1.
         11    1    1    2    0    0 -0.73431049506E+02 -0.15685871176E+03  0.93928557158E+03  0.95511997124E+03  0.51100000000E-03 0. -1.
         22    1    1    2    0    0  0.55815258511E+02  0.12329017883E+03 -0.33875337419E+02  0.13951110983E+03  0.00000000000E+00 0. -1.
          2    1    1    2  501    0  0.17615790995E+02  0.33568532922E+02 -0.10899408536E+04  0.10905999390E+04  0.25500000000E-02 0.  1.
<mgrwt>
<rscale>  0 0.37909926E+02</rscale>
<asrwt>0</asrwt>
<pdfrwt beam="1">  1       11 0.10000000E+01 0.17002681E+03</pdfrwt>
<pdfrwt beam="2">  1        2 0.18235319E+00 0.37909926E+02</pdfrwt>
<totfact> 0.28850579E+01</totfact>
</mgrwt>
</event>
<event>
 5    1  0.6729100E-004  0.1218432E+03  0.7818608E-02  0.1240087E+00
         11   -1    0    0    0    0  0.00000000000E+00  0.00000000000E+00  0.10001869012E+04  0.10001869012E+04  0.51100000000E-03 0.  1.
          2   -1    0    0  501    0 -0.00000000000E+00 -0.00000000000E+00 -0.16338335916E+02  0.16338336115E+02  0.25500000000E-02 0.  1.
         11    1    1    2    0    0  0.66609059505E+02 -0.99973177731E+02  0.65290639523E+03  0.66386607384E+03  0.51100000000E-03 0.  1.
         22    1    1    2    0    0 -0.67919981022E+01  0.19284834458E+02  0.41063967224E+02  0.45872491566E+02  0.00000000000E+00 0. -1.
          2    1    1    2  501    0 -0.59817061403E+02  0.80688343273E+02  0.28987820288E+03  0.30678667195E+03  0.25500000000E-02 0.  1.
<mgrwt>
<rscale>  0 0.12184320E+03</rscale>
<asrwt>0</asrwt>
<pdfrwt beam="1">  1       11 0.10000000E+01 0.12013077E+03</pdfrwt>
<pdfrwt beam="2">  1        2 0.25140599E-02 0.12184320E+03</pdfrwt>
<totfact> 0.45250105E+03</totfact>
</mgrwt>
</event>
<event>
 5    1  0.6729100E-004  0.1356067E+03  0.7818608E-02  0.1219366E+00
         11   -1    0    0    0    0  0.00000000000E+00  0.00000000000E+00  0.10003175588E+04  0.10003175588E+04  0.51100000000E-03 0. -1.
          2   -1    0    0  501    0 -0.00000000000E+00 -0.00000000000E+00 -0.55306586198E+02  0.55306586257E+02  0.25500000000E-02 0. -1.
         11    1    1    2    0    0  0.76024566885E+02  0.16141343104E+03  0.58900622839E+03  0.61543672914E+03  0.51100000000E-03 0. -1.
         22    1    1    2    0    0  0.25813929735E+02 -0.80494714581E+02  0.27323632186E+03  0.28601371580E+03  0.00000000000E+00 0.  1.
          2    1    1    2  501    0 -0.10183849662E+03 -0.80918716463E+02  0.82768422391E+02  0.15417370015E+03  0.25500000000E-02 0. -1.
<mgrwt>
<rscale>  0 0.13560671E+03</rscale>
<asrwt>0</asrwt>
<pdfrwt beam="1">  1       11 0.10000000E+01 0.84532586E+02</pdfrwt>
<pdfrwt beam="2">  1        2 0.85114073E-02 0.13560671E+03</pdfrwt>
<totfact> 0.92851468E+02</totfact>
</mgrwt>
</event>
<event>
 5    1  0.6729100E-004  0.8052917E+02  0.7818608E-02  0.1327556E+00
         11   -1    0    0    0    0  0.00000000000E+00  0.00000000000E+00  0.10003373299E+04  0.10003373299E+04  0.51100000000E-03 0. -1.
          2   -1    0    0  501    0 -0.00000000000E+00 -0.00000000000E+00 -0.24095337592E+02  0.24095337727E+02  0.25500000000E-02 0. -1.
         11    1    1    2    0    0 -0.10271405057E+02  0.12306936548E+03  0.48619235477E+03  0.50163191317E+03  0.51100000000E-03 0. -1.
         22    1    1    2    0    0 -0.30413572737E+02 -0.61228480018E+02  0.40198696375E+03  0.40775903571E+03  0.00000000000E+00 0. -1.
          2    1    1    2  501    0  0.40684977794E+02 -0.61840885457E+02  0.88062673806E+02  0.11504171877E+03  0.25500000000E-02 0. -1.
<mgrwt>
<rscale>  0 0.80529166E+02</rscale>
<asrwt>0</asrwt>
<pdfrwt beam="1">  1       11 0.10000000E+01 0.68366016E+02</pdfrwt>
<pdfrwt beam="2">  1        2 0.37082254E-02 0.80529166E+02</pdfrwt>
<totfact> 0.25792668E+03</totfact>
</mgrwt>
</event>
<event>
 5    1  0.6729100E-004  0.2371302E+03  0.7818608E-02  0.1348610E+00
         11   -1    0    0    0    0  0.00000000000E+00  0.00000000000E+00  0.10004265775E+04  0.10004265775E+04  0.51100000000E-03 0.  1.
          2   -1    0    0  501    0 -0.00000000000E+00 -0.00000000000E+00 -0.13867403032E+04  0.13867403032E+04  0.25500000000E-02 0. -1.
         11    1    1    2    0    0 -0.82304730659E+01 -0.21672982150E+03  0.21543186349E+03  0.30569665359E+03  0.51100000000E-03 0.  1.
         22    1    1    2    0    0  0.78970734358E+02  0.23664611904E+03  0.71778056988E+03  0.75989914399E+03  0.00000000000E+00 0.  1.
          2    1    1    2  501    0 -0.70740261292E+02 -0.19916297545E+02 -0.13195261590E+04  0.13215710831E+04  0.25500000000E-02 0. -1.
<mgrwt>
<rscale>  0 0.73490431E+02</rscale>
<asrwt>0</asrwt>
<pdfrwt beam="1">  1       11 0.10000000E+01 0.23713022E+03</pdfrwt>
<pdfrwt beam="2">  1        2 0.21343566E+00 0.73490431E+02</pdfrwt>
<totfact> 0.21628460E+01</totfact>
</mgrwt>
</event>
<event>
 5    1  0.6729100E-004  0.1653371E+03  0.7818608E-02  0.1182800E+00
         11   -1    0    0    0    0  0.00000000000E+00  0.00000000000E+00  0.10002014604E+04  0.10002014604E+04  0.51100000000E-03 0. -1.
          2   -1    0    0  501    0 -0.00000000000E+00 -0.00000000000E+00 -0.22118327355E+03  0.22118327357E+03  0.25500000000E-02 0.  1.
         11    1    1    2    0    0 -0.16948366471E+03  0.91580175361E+01  0.81744185310E+03  0.83487709580E+03  0.51100000000E-03 0. -1.
         22    1    1    2    0    0  0.77495314123E+01  0.24695520576E+02  0.14055311869E+03  0.14291642015E+03  0.00000000000E+00 0. -1.
          2    1    1    2  501    0  0.16173413330E+03 -0.33853538112E+02 -0.17897678497E+03  0.24359121799E+03  0.25500000000E-02 0.  1.
<mgrwt>
<rscale>  0 0.16533709E+03</rscale>
<asrwt>0</asrwt>
<pdfrwt beam="1">  1       11 0.10000000E+01 0.25882890E+02</pdfrwt>
<pdfrwt beam="2">  1        2 0.34035050E-01 0.16533709E+03</pdfrwt>
<totfact> 0.18782792E+02</totfact>
</mgrwt>
</event>
<event>
 5    1  0.6729100E-004  0.1394044E+03  0.7818608E-02  0.1357137E+00
         11   -1    0    0    0    0  0.00000000000E+00  0.00000000000E+00  0.10003527456E+04  0.10003527456E+04  0.51100000000E-03 0.  1.
          2   -1    0    0  501    0 -0.00000000000E+00 -0.00000000000E+00 -0.31046107552E+02  0.31046107657E+02  0.25500000000E-02 0. -1.
         11    1    1    2    0    0 -0.80306522941E+02  0.11603041020E+03  0.67184196156E+03  0.68650113986E+03  0.51100000000E-03 0.  1.
         22    1    1    2    0    0 -0.24763955510E+02 -0.26178232854E+02  0.69519082309E+02  0.78303615325E+02  0.00000000000E+00 0. -1.
          2    1    1    2  501    0  0.10507047845E+03 -0.89852177344E+02  0.22794559419E+03  0.26659409809E+03  0.25500000000E-02 0. -1.
<mgrwt>
<rscale>  0 0.70876653E+02</rscale>
<asrwt>0</asrwt>
<pdfrwt beam="1">  1       11 0.10000000E+01 0.13940440E+03</pdfrwt>
<pdfrwt beam="2">  1        2 0.47780089E-02 0.70876653E+02</pdfrwt>
<totfact> 0.18327594E+03</totfact>
</mgrwt>
</event>
<event>
 5    1  0.6729100E-004  0.2792003E+03  0.7818608E-02  0.1100401E+00
         11   -1    0    0    0    0  0.00000000000E+00  0.00000000000E+00  0.10000099645E+04  0.10000099645E+04  0.51100000000E-03 0.  1.
          2   -1    0    0  501    0 -0.00000000000E+00 -0.00000000000E+00 -0.94345729892E+02  0.94345729927E+02  0.25500000000E-02 0.  1.
         11    1    1    2    0    0 -0.24185877575E+03  0.45438494113E+01  0.55246265374E+03  0.60310139923E+03  0.51100000000E-03 0.  1.
         22    1    1    2    0    0 -0.29673842977E+02 -0.23507984227E+01  0.14782543484E+03  0.15079264703E+03  0.00000000000E+00 0.  1.
          2    1    1    2  501    0  0.27153261873E+03 -0.21930509886E+01  0.20537614600E+03  0.34046164814E+03  0.25500000000E-02 0.  1.
<mgrwt>
<rscale>  0 0.27154147E+03</rscale>
<asrwt>0</asrwt>
<pdfrwt beam="1">  1       11 0.10000000E+01 0.27920033E+03</pdfrwt>
<pdfrwt beam="2">  1        2 0.14514872E-01 0.27154147E+03</pdfrwt>
<totfact> 0.49970676E+02</totfact>
</mgrwt>
</event>
<event>
 5    1  0.6729100E-004  0.1609665E+03  0.7818608E-02  0.1187610E+00
         11   -1    0    0    0    0  0.00000000000E+00  0.00000000000E+00  0.10000389420E+04  0.10000389420E+04  0.51100000000E-03 0. -1.
          2   -1    0    0  501    0 -0.00000000000E+00 -0.00000000000E+00 -0.94234833566E+02  0.94234833600E+02  0.25500000000E-02 0. -1.
         11    1    1    2    0    0 -0.96818433877E+02 -0.53096090315E+01  0.56098733531E+03  0.56930553437E+03  0.51100000000E-03 0. -1.
         22    1    1    2    0    0 -0.59928422998E+02 -0.84039470836E+02  0.32788913762E+03  0.34375185106E+03  0.00000000000E+00 0. -1.
          2    1    1    2  501    0  0.15674685688E+03  0.89349079867E+02  0.16927635502E+02  0.18121639016E+03  0.25500000000E-02 0. -1.
<mgrwt>
<rscale>  0 0.16096648E+03</rscale>
<asrwt>0</asrwt>
<pdfrwt beam="1">  1       11 0.10000000E+01 0.96963916E+02</pdfrwt>
<pdfrwt beam="2">  1        2 0.14498231E-01 0.16096648E+03</pdfrwt>
<totfact> 0.49040917E+02</totfact>
</mgrwt>
</event>
<event>
 5    1  0.6729100E-004  0.2266966E+03  0.7818608E-02  0.1128987E+00
         11   -1    0    0    0    0  0.00000000000E+00  0.00000000000E+00  0.10004218649E+04  0.10004218649E+04  0.51100000000E-03 0. -1.
         -2   -1    0    0    0  501 -0.00000000000E+00 -0.00000000000E+00 -0.72618051463E+02  0.72618051508E+02  0.25500000000E-02 0. -1.
         11    1    1    2    0    0 -0.15519758397E+03  0.14804353478E+03  0.14707807407E+03  0.26006756455E+03  0.51100000000E-03 0. -1.
         22    1    1    2    0    0  0.30007891973E+02  0.32660055653E+01  0.11357113397E+03  0.11751401127E+03  0.00000000000E+00 0. -1.
         -2    1    1    2    0  501  0.12518969200E+03 -0.15130954034E+03  0.66715460540E+03  0.69545834058E+03  0.25500000000E-02 0. -1.
<mgrwt>
<rscale>  0 0.22669664E+03</rscale>
<asrwt>0</asrwt>
<pdfrwt beam="1">  1       11 0.10000000E+01 0.21448362E+03</pdfrwt>
<pdfrwt beam="2">  1       -2 0.11176721E-01 0.22669664E+03</pdfrwt>
<totfact> 0.43990400E+02</totfact>
</mgrwt>
</event>
<event>
 5    1  0.6729100E-004  0.1377483E+03  0.7818608E-02  0.1387455E+00
         11   -1    0    0    0    0  0.00000000000E+00  0.00000000000E+00  0.10001719317E+04  0.10001719317E+04  0.51100000000E-03 0. -1.
         -2   -1    0    0    0  501 -0.00000000000E+00 -0.00000000000E+00 -0.19437136626E+03  0.19437136628E+03  0.25500000000E-02 0.  1.
         11    1    1    2    0    0 -0.11488899423E+03  0.68913731317E+02  0.63890520717E+03  0.65280046500E+03  0.51100000000E-03 0. -1.
         22    1    1    2    0    0  0.91050830269E+02 -0.12673690019E+03  0.33109879449E+03  0.36603129275E+03  0.00000000000E+00 0. -1.
         -2    1    1    2    0  501  0.23838163960E+02  0.57823168870E+02 -0.16420343618E+03  0.17571154026E+03  0.25500000000E-02 0.  1.
<mgrwt>
<rscale>  0 0.62544200E+02</rscale>
<asrwt>0</asrwt>
<pdfrwt beam="1">  1       11 0.10000000E+01 0.13774832E+03</pdfrwt>
<pdfrwt beam="2">  1       -2 0.29908428E-01 0.62544200E+02</pdfrwt>
<totfact> 0.80605406E+01</totfact>
</mgrwt>
</event>
<event>
 5    1  0.6729100E-004  0.2344881E+03  0.7818608E-02  0.1128673E+00
         11   -1    0    0    0    0  0.00000000000E+00  0.00000000000E+00  0.10004023812E+04  0.10004023812E+04  0.51100000000E-03 0. -1.
         -2   -1    0    0    0  501 -0.00000000000E+00 -0.00000000000E+00 -0.50051677492E+03  0.50051677493E+03  0.25500000000E-02 0.  1.
         11    1    1    2    0    0 -0.11725921245E+03  0.18217842948E+03  0.89583919853E+03  0.92166510875E+03  0.51100000000E-03 0. -1.
         22    1    1    2    0    0 -0.17687276701E+02  0.52172547429E+00  0.63932350148E+02  0.66335943123E+02  0.00000000000E+00 0.  1.
         -2    1    1    2    0  501  0.13494648915E+03 -0.18270015495E+03 -0.45988594245E+03  0.51291810420E+03  0.25500000000E-02 0.  1.
<mgrwt>
<rscale>  0 0.22713410E+03</rscale>
<asrwt>0</asrwt>
<pdfrwt beam="1">  1       11 0.10000000E+01 0.23448807E+03</pdfrwt>
<pdfrwt beam="2">  1       -2 0.77033563E-01 0.22713410E+03</pdfrwt>
<totfact> 0.12616927E+01</totfact>
</mgrwt>
</event>
<event>
 5    1  0.6729100E-004  0.1113049E+03  0.7818608E-02  0.1459712E+00
         11   -1    0    0    0    0  0.00000000000E+00  0.00000000000E+00  0.10005719964E+04  0.10005719964E+04  0.51100000000E-03 0. -1.
          2   -1    0    0  501    0 -0.00000000000E+00 -0.00000000000E+00 -0.49183839222E+03  0.49183839223E+03  0.25500000000E-02 0. -1.
         11    1    1    2    0    0 -0.76551756101E+02  0.62214101120E+02  0.29894983281E+03  0.31480433332E+03  0.51100000000E-03 0. -1.
         22    1    1    2    0    0  0.60819057759E+02 -0.10695986246E+03  0.68705406436E+03  0.69798471138E+03  0.00000000000E+00 0. -1.
          2    1    1    2  501    0  0.15732698342E+02  0.44745761342E+02 -0.47727029300E+03  0.47962134392E+03  0.25500000000E-02 0. -1.
<mgrwt>
<rscale>  0 0.47431013E+02</rscale>
<asrwt>0</asrwt>
<pdfrwt beam="1">  1       11 0.10000000E+01 0.11130487E+03</pdfrwt>
<pdfrwt beam="2">  1        2 0.75710724E-01 0.47431013E+02</pdfrwt>
<totfact> 0.80808777E+01</totfact>
</mgrwt>
</event>
<event>
 5    1  0.6729100E-004  0.2405840E+03  0.7818608E-02  0.1119404E+00
         11   -1    0    0    0    0  0.00000000000E+00  0.00000000000E+00  0.10005390991E+04  0.10005390991E+04  0.51100000000E-03 0. -1.
          2   -1    0    0  501    0 -0.00000000000E+00 -0.00000000000E+00 -0.17095458267E+04  0.17095458267E+04  0.25500000000E-02 0. -1.
         11    1    1    2    0    0  0.15021144557E+02  0.20739358114E+03  0.93140381859E+03  0.95433264932E+03  0.51100000000E-03 0. -1.
         22    1    1    2    0    0 -0.12135700822E+02  0.33473477792E+02  0.42639970266E+02  0.55551021721E+02  0.00000000000E+00 0. -1.
          2    1    1    2  501    0 -0.28854437348E+01 -0.24086705893E+03 -0.16830505164E+04  0.17002012548E+04  0.25500000000E-02 0. -1.
<mgrwt>
<rscale>  0 0.24058400E+03</rscale>
<asrwt>0</asrwt>
<pdfrwt beam="1">  1       11 0.10000000E+01 0.35605462E+02</pdfrwt>
<pdfrwt beam="2">  1        2 0.26314883E+00 0.24058400E+03</pdfrwt>
<totfact> 0.13359869E+01</totfact>
</mgrwt>
</event>
<event>
 5    1  0.6729100E-004  0.2504147E+03  0.7818608E-02  0.1113043E+00
         11   -1    0    0    0    0  0.00000000000E+00  0.00000000000E+00  0.10002101272E+04  0.10002101272E+04  0.51100000000E-03 0. -1.
          2   -1    0    0  501    0 -0.00000000000E+00 -0.00000000000E+00 -0.78438056910E+02  0.78438056951E+02  0.25500000000E-02 0. -1.
         11    1    1    2    0    0 -0.24608371349E+03  0.48275869489E+02  0.30381918386E+03  0.39394650665E+03  0.51100000000E-03 0. -1.
         22    1    1    2    0    0 -0.59032740879E+01 -0.42207180552E+02  0.98444938447E+02  0.10727395136E+03  0.00000000000E+00 0. -1.
          2    1    1    2  501    0  0.25198698757E+03 -0.60686889367E+01  0.51950794799E+03  0.57742772614E+03  0.25500000000E-02 0. -1.
<mgrwt>
<rscale>  0 0.25041466E+03</rscale>
<asrwt>0</asrwt>
<pdfrwt beam="1">  1       11 0.10000000E+01 0.42618010E+02</pdfrwt>
<pdfrwt beam="2">  1        2 0.12069929E-01 0.25041466E+03</pdfrwt>
<totfact> 0.62262515E+02</totfact>
</mgrwt>
</event>
<event>
 5    1  0.6729100E-004  0.2069293E+03  0.7818608E-02  0.1156906E+00
         11   -1    0    0    0    0  0.00000000000E+00  0.00000000000E+00  0.10000424078E+04  0.10000424078E+04  0.51100000000E-03 0.  1.
          2   -1    0    0  501    0 -0.00000000000E+00 -0.00000000000E+00 -0.12945688531E+03  0.12945688534E+03  0.25500000000E-02 0. -1.
         11    1    1    2    0    0 -0.15472810406E+03  0.11080058052E+02  0.65143922226E+03  0.66965410039E+03  0.51100000000E-03 0.  1.
         22    1    1    2    0    0 -0.29587696699E+02  0.41739508567E+02  0.25900616160E+03  0.26401100378E+03  0.00000000000E+00 0.  1.
          2    1    1    2  501    0  0.18431580076E+03 -0.52819566619E+02 -0.39859861345E+02  0.19583418899E+03  0.25500000000E-02 0. -1.
<mgrwt>
<rscale>  0 0.19173477E+03</rscale>
<asrwt>0</asrwt>
<pdfrwt beam="1">  1       11 0.10000000E+01 0.20692929E+03</pdfrwt>
<pdfrwt beam="2">  1        2 0.19917288E-01 0.19173477E+03</pdfrwt>
<totfact> 0.34121379E+02</totfact>
</mgrwt>
</event>
<event>
 5    1  0.6729100E-004  0.2500644E+03  0.7818608E-02  0.1113264E+00
         11   -1    0    0    0    0  0.00000000000E+00  0.00000000000E+00  0.10001171245E+04  0.10001171245E+04  0.51100000000E-03 0.  1.
          2   -1    0    0  501    0 -0.00000000000E+00 -0.00000000000E+00 -0.18341050081E+03  0.18341050083E+03  0.25500000000E-02 0.  1.
         11    1    1    2    0    0 -0.19292500612E+03 -0.29710486344E+02  0.39492348997E+03  0.44053074117E+03  0.51100000000E-03 0.  1.
         22    1    1    2    0    0 -0.70266613986E+02  0.79859982538E+02  0.46019659587E+03  0.47233030890E+03  0.00000000000E+00 0. -1.
          2    1    1    2  501    0  0.26319162010E+03 -0.50149496194E+02 -0.38413462193E+02  0.27066657523E+03  0.25500000000E-02 0.  1.
<mgrwt>
<rscale>  0 0.25006441E+03</rscale>
<asrwt>0</asrwt>
<pdfrwt beam="1">  1       11 0.10000000E+01 0.10637205E+03</pdfrwt>
<pdfrwt beam="2">  1        2 0.28220304E-01 0.25006441E+03</pdfrwt>
<totfact> 0.23198810E+02</totfact>
</mgrwt>
</event>
<event>
 5    1  0.6729100E-004  0.8975179E+02  0.7818608E-02  0.1713314E+00
         11   -1    0    0    0    0  0.00000000000E+00  0.00000000000E+00  0.10001368774E+04  0.10001368774E+04  0.51100000000E-03 0. -1.
          2   -1    0    0  501    0 -0.00000000000E+00 -0.00000000000E+00 -0.24520410694E+03  0.24520410695E+03  0.25500000000E-02 0. -1.
         11    1    1    2    0    0  0.34665991637E+02  0.78534500857E+02  0.47370765482E+03  0.48142324521E+03  0.51100000000E-03 0. -1.
         22    1    1    2    0    0 -0.18841267320E+02 -0.93397483932E+02  0.51772711920E+03  0.52642136480E+03  0.00000000000E+00 0. -1.
          2    1    1    2  501    0 -0.15824724317E+02  0.14862983075E+02 -0.23650200352E+03  0.23749637437E+03  0.25500000000E-02 0. -1.
<mgrwt>
<rscale>  0 0.21710140E+02</rscale>
<asrwt>0</asrwt>
<pdfrwt beam="1">  1       11 0.10000000E+01 0.89751792E+02</pdfrwt>
<pdfrwt beam="2">  1        2 0.37728871E-01 0.21710140E+02</pdfrwt>
<totfact> 0.16172959E+02</totfact>
</mgrwt>
</event>
<event>
 5    1  0.6729100E-004  0.1211588E+03  0.7818608E-02  0.1682740E+00
         11   -1    0    0    0    0  0.00000000000E+00  0.00000000000E+00  0.99987122382E+03  0.99987122382E+03  0.51100000000E-03 0.  1.
          2   -1    0    0  501    0 -0.00000000000E+00 -0.00000000000E+00 -0.11507894756E+03  0.11507894759E+03  0.25500000000E-02 0.  1.
         11    1    1    2    0    0  0.10237690467E+03  0.66409869575E+02  0.62150487051E+03  0.63337161718E+03  0.51100000000E-03 0.  1.
         22    1    1    2    0    0 -0.11241999973E+03 -0.45108214730E+02  0.36114955902E+03  0.38092257922E+03  0.00000000000E+00 0.  1.
          2    1    1    2  501    0  0.10043095057E+02 -0.21301654844E+02 -0.97862153263E+02  0.10065597501E+03  0.25500000000E-02 0.  1.
<mgrwt>
<rscale>  0 0.23550462E+02</rscale>
<asrwt>0</asrwt>
<pdfrwt beam="1">  1       11 0.10000000E+01 0.12115876E+03</pdfrwt>
<pdfrwt beam="2">  1        2 0.17702173E-01 0.23550462E+02</pdfrwt>
<totfact> 0.35386125E+02</totfact>
</mgrwt>
</event>
<event>
 5    1  0.6729100E-004  0.1242981E+03  0.7818608E-02  0.1416023E+00
         11   -1    0    0    0    0  0.00000000000E+00  0.00000000000E+00  0.10001371714E+04  0.10001371714E+04  0.51100000000E-03 0.  1.
         -2   -1    0    0    0  501 -0.00000000000E+00 -0.00000000000E+00 -0.32937316677E+02  0.32937316776E+02  0.25500000000E-02 0. -1.
         11    1    1    2    0    0 -0.76169364768E+02 -0.14259629581E+03  0.46669224812E+03  0.49389991918E+03  0.51100000000E-03 0.  1.
         22    1    1    2    0    0  0.59640210859E+02  0.89226036933E+02  0.45390022111E+03  0.46641574924E+03  0.00000000000E+00 0.  1.
         -2    1    1    2    0  501  0.16529153909E+02  0.53370258876E+02  0.46607385457E+02  0.72758819720E+02  0.25500000000E-02 0. -1.
<mgrwt>
<rscale>  0 0.55871258E+02</rscale>
<asrwt>0</asrwt>
<pdfrwt beam="1">  1       11 0.10000000E+01 0.12429814E+03</pdfrwt>
<pdfrwt beam="2">  1       -2 0.50679744E-02 0.55871258E+02</pdfrwt>
<totfact> 0.13271644E+03</totfact>
</mgrwt>
</event>
<event>
 5    1  0.6729100E-004  0.4130495E+03  0.7818608E-02  0.1039353E+00
         11   -1    0    0    0    0  0.00000000000E+00  0.00000000000E+00  0.10003890549E+04  0.10003890549E+04  0.51100000000E-03 0.  1.
          2   -1    0    0  501    0 -0.00000000000E+00 -0.00000000000E+00 -0.28169971022E+03  0.28169971023E+03  0.25500000000E-02 0.  1.
         11    1    1    2    0    0 -0.40169673423E+03 -0.43117429172E+02  0.70060129454E+03  0.80874072044E+03  0.51100000000E-03 0.  1.
         22    1    1    2    0    0 -0.13313744507E+02  0.23017050886E+02  0.49996522265E+02  0.56627666938E+02  0.00000000000E+00 0.  1.
          2    1    1    2  501    0  0.41501047874E+03  0.20100378286E+02 -0.31908472072E+02  0.41672037779E+03  0.25500000000E-02 0.  1.
<mgrwt>
<rscale>  0 0.41304946E+03</rscale>
<asrwt>0</asrwt>
<pdfrwt beam="1">  1       11 0.10000000E+01 0.26590232E+02</pdfrwt>
<pdfrwt beam="2">  1        2 0.43355277E-01 0.41304946E+03</pdfrwt>
<totfact> 0.14537072E+02</totfact>
</mgrwt>
</event>
<event>
 5    1  0.6729100E-004  0.1225618E+03  0.7818608E-02  0.1272411E+00
         11   -1    0    0    0    0  0.00000000000E+00  0.00000000000E+00  0.10003857389E+04  0.10003857389E+04  0.51100000000E-03 0. -1.
          2   -1    0    0  501    0 -0.00000000000E+00 -0.00000000000E+00 -0.88778457215E+03  0.88778457215E+03  0.25500000000E-02 0.  1.
         11    1    1    2    0    0 -0.11514520618E+03 -0.15426568096E+02  0.62636902949E+03  0.63705145680E+03  0.51100000000E-03 0. -1.
         22    1    1    2    0    0  0.14980614597E+03 -0.82463648073E+02  0.34555078432E+03  0.38554828384E+03  0.00000000000E+00 0. -1.
          2    1    1    2  501    0 -0.34660939784E+02  0.97890216169E+02 -0.85931864706E+03  0.86557057041E+03  0.25500000000E-02 0.  1.
<mgrwt>
<rscale>  0 0.10384544E+03</rscale>
<asrwt>0</asrwt>
<pdfrwt beam="1">  1       11 0.10000000E+01 0.12256183E+03</pdfrwt>
<pdfrwt beam="2">  1        2 0.13663492E+00 0.10384544E+03</pdfrwt>
<totfact> 0.40265400E+01</totfact>
</mgrwt>
</event>
<event>
 5    1  0.6729100E-004  0.2655162E+03  0.7818608E-02  0.1103874E+00
         11   -1    0    0    0    0  0.00000000000E+00  0.00000000000E+00  0.99991079233E+03  0.99991079233E+03  0.51100000000E-03 0. -1.
          2   -1    0    0  501    0 -0.00000000000E+00 -0.00000000000E+00 -0.20795054697E+03  0.20795054698E+03  0.25500000000E-02 0. -1.
         11    1    1    2    0    0 -0.17806814653E+03 -0.13842567639E+03  0.51125861370E+02  0.23126561871E+03  0.51100000000E-03 0. -1.
         22    1    1    2    0    0 -0.77284388362E+02 -0.81749093215E+02  0.60123834999E+03  0.61167257943E+03  0.00000000000E+00 0. -1.
          2    1    1    2  501    0  0.25535253490E+03  0.22017476961E+03  0.13959603400E+03  0.36492314118E+03  0.25500000000E-02 0. -1.
<mgrwt>
<rscale>  0 0.26551616E+03</rscale>
<asrwt>0</asrwt>
<pdfrwt beam="1">  1       11 0.10000000E+01 0.11249796E+03</pdfrwt>
<pdfrwt beam="2">  1        2 0.31989537E-01 0.26551616E+03</pdfrwt>
<totfact> 0.20220357E+02</totfact>
</mgrwt>
</event>
<event>
 5    1  0.6729100E-004  0.2550638E+03  0.7818608E-02  0.1110146E+00
         11   -1    0    0    0    0  0.00000000000E+00  0.00000000000E+00  0.10000384272E+04  0.10000384272E+04  0.51100000000E-03 0.  1.
          2   -1    0    0  501    0 -0.00000000000E+00 -0.00000000000E+00 -0.62555295126E+03  0.62555295127E+03  0.25500000000E-02 0.  1.
         11    1    1    2    0    0 -0.24116986926E+03 -0.12478614850E+02  0.23308456797E+03  0.33562931561E+03  0.51100000000E-03 0.  1.
         22    1    1    2    0    0  0.30462654135E+02 -0.14025026018E+03  0.67830026532E+03  0.69331764633E+03  0.00000000000E+00 0.  1.
          2    1    1    2  501    0  0.21070721513E+03  0.15272887503E+03 -0.53689935738E+03  0.59664441650E+03  0.25500000000E-02 0.  1.
<mgrwt>
<rscale>  0 0.25506376E+03</rscale>
<asrwt>0</asrwt>
<pdfrwt beam="1">  1       11 0.10000000E+01 0.14352041E+03</pdfrwt>
<pdfrwt beam="2">  1        2 0.96242611E-01 0.25506376E+03</pdfrwt>
<totfact> 0.60006932E+01</totfact>
</mgrwt>
</event>
<event>
 5    1  0.7056677E-004  0.2937641E+03  0.7818608E-02  0.1091083E+00
         11   -1    0    0    0    0  0.00000000000E+00  0.00000000000E+00  0.99978998146E+03  0.99978998146E+03  0.51100000000E-03 0. -1.
          2   -1    0    0  501    0 -0.00000000000E+00 -0.00000000000E+00 -0.16825169364E+04  0.16825169364E+04  0.25500000000E-02 0.  1.
         11    1    1    2    0    0  0.16635378778E+03  0.19335829929E+03  0.79691933206E+03  0.83674454670E+03  0.51100000000E-03 0. -1.
         22    1    1    2    0    0  0.10253549199E+02  0.34893313131E+02  0.16847921388E+03  0.17235986796E+03  0.00000000000E+00 0.  1.
          2    1    1    2  501    0 -0.17660733698E+03 -0.22825161242E+03 -0.16481255009E+04  0.16732025032E+04  0.25500000000E-02 0.  1.
<mgrwt>
<rscale>  0 0.28859825E+03</rscale>
<asrwt>0</asrwt>
<pdfrwt beam="1">  1       11 0.10000000E+01 0.29376414E+03</pdfrwt>
<pdfrwt beam="2">  1        2 0.25879439E+00 0.28859825E+03</pdfrwt>
<totfact> 0.13617543E+01</totfact>
</mgrwt>
</event>
<event>
 5    1  0.6729100E-004  0.1448192E+03  0.7818608E-02  0.1217052E+00
         11   -1    0    0    0    0  0.00000000000E+00  0.00000000000E+00  0.10004265788E+04  0.10004265788E+04  0.51100000000E-03 0.  1.
          2   -1    0    0  501    0 -0.00000000000E+00 -0.00000000000E+00 -0.26879424398E+02  0.26879424519E+02  0.25500000000E-02 0.  1.
         11    1    1    2    0    0 -0.10695660632E+02 -0.51193999024E+02  0.22211394838E+03  0.22818814333E+03  0.51100000000E-03 0.  1.
         22    1    1    2    0    0  0.34385542141E+02 -0.84014871313E+02  0.53625207811E+03  0.54388156375E+03  0.00000000000E+00 0.  1.
          2    1    1    2  501    0 -0.23689881509E+02  0.13520887034E+03  0.21518112795E+03  0.25523629627E+03  0.25500000000E-02 0.  1.
<mgrwt>
<rscale>  0 0.13726853E+03</rscale>
<asrwt>0</asrwt>
<pdfrwt beam="1">  1       11 0.10000000E+01 0.14481921E+03</pdfrwt>
<pdfrwt beam="2">  1        2 0.41370600E-02 0.13726853E+03</pdfrwt>
<totfact> 0.23528483E+03</totfact>
</mgrwt>
</event>
<event>
 5    1  0.6729100E-004  0.8574477E+02  0.7818608E-02  0.1638214E+00
         11   -1    0    0    0    0  0.00000000000E+00  0.00000000000E+00  0.10001127546E+04  0.10001127546E+04  0.51100000000E-03 0.  1.
         -2   -1    0    0    0  501 -0.00000000000E+00 -0.00000000000E+00 -0.32273142080E+03  0.32273142082E+03  0.25500000000E-02 0. -1.
         11    1    1    2    0    0  0.71995690841E+02  0.66169881091E+02  0.53052036536E+03  0.53945684788E+03  0.51100000000E-03 0.  1.
         22    1    1    2    0    0 -0.66625858494E+02 -0.40053986586E+02  0.46130780321E+03  0.46781215906E+03  0.00000000000E+00 0. -1.
         -2    1    1    2    0  501 -0.53698323463E+01 -0.26115894504E+02 -0.31444683478E+03  0.31557516847E+03  0.25500000000E-02 0. -1.
<mgrwt>
<rscale>  0 0.26662240E+02</rscale>
<asrwt>0</asrwt>
<pdfrwt beam="1">  1       11 0.10000000E+01 0.85744771E+02</pdfrwt>
<pdfrwt beam="2">  1       -2 0.49656585E-01 0.26662240E+02</pdfrwt>
<totfact> 0.31261689E+01</totfact>
</mgrwt>
</event>
<event>
 5    1  0.6729100E-004  0.1526506E+03  0.7818608E-02  0.1197253E+00
         11   -1    0    0    0    0  0.00000000000E+00  0.00000000000E+00  0.10002955230E+04  0.10002955230E+04  0.51100000000E-03 0. -1.
          2   -1    0    0  501    0 -0.00000000000E+00 -0.00000000000E+00 -0.48498432712E+02  0.48498432779E+02  0.25500000000E-02 0. -1.
         11    1    1    2    0    0 -0.35744808810E+02  0.15669104797E+03  0.73988840586E+03  0.75714240999E+03  0.51100000000E-03 0. -1.
         22    1    1    2    0    0  0.25154836498E+02 -0.57099025665E+01  0.10039248426E+03  0.10365336310E+03  0.00000000000E+00 0. -1.
          2    1    1    2  501    0  0.10589972312E+02 -0.15098114541E+03  0.11151620012E+03  0.18799818264E+03  0.25500000000E-02 0. -1.
<mgrwt>
<rscale>  0 0.15265065E+03</rscale>
<asrwt>0</asrwt>
<pdfrwt beam="1">  1       11 0.10000000E+01 0.25794743E+02</pdfrwt>
<pdfrwt beam="2">  1        2 0.74635021E-02 0.15265065E+03</pdfrwt>
<totfact> 0.11036442E+03</totfact>
</mgrwt>
</event>
<event>
 5    1  0.6729100E-004  0.1709194E+03  0.7818608E-02  0.1180897E+00
         11   -1    0    0    0    0  0.00000000000E+00  0.00000000000E+00  0.10004699212E+04  0.10004699212E+04  0.51100000000E-03 0. -1.
          2   -1    0    0  501    0 -0.00000000000E+00 -0.00000000000E+00 -0.28817471938E+02  0.28817472051E+02  0.25500000000E-02 0. -1.
         11    1    1    2    0    0 -0.97841011956E+02 -0.98985962447E+02  0.35087175563E+03  0.37746797649E+03  0.51100000000E-03 0. -1.
         22    1    1    2    0    0 -0.76972219568E+01 -0.30578291764E+02  0.91014595751E+02  0.96322042092E+02  0.00000000000E+00 0. -1.
          2    1    1    2  501    0  0.10553823391E+03  0.12956425421E+03  0.52976609792E+03  0.55549737470E+03  0.25500000000E-02 0. -1.
<mgrwt>
<rscale>  0 0.16710839E+03</rscale>
<asrwt>0</asrwt>
<pdfrwt beam="1">  1       11 0.10000000E+01 0.17091938E+03</pdfrwt>
<pdfrwt beam="2">  1        2 0.44355405E-02 0.16710839E+03</pdfrwt>
<totfact> 0.21822134E+03</totfact>
</mgrwt>
</event>
<event>
 5    1  0.6729100E-004  0.1472475E+03  0.7818608E-02  0.1203897E+00
         11   -1    0    0    0    0  0.00000000000E+00  0.00000000000E+00  0.10003444777E+04  0.10003444777E+04  0.51100000000E-03 0. -1.
          2   -1    0    0  501    0 -0.00000000000E+00 -0.00000000000E+00 -0.26254005794E+02  0.26254005918E+02  0.25500000000E-02 0. -1.
         11    1    1    2    0    0  0.11748129023E+03  0.67225026606E+02  0.72263603657E+03  0.73520330461E+03  0.51100000000E-03 0. -1.
         22    1    1    2    0    0 -0.44771585794E+02 -0.35792452538E+02  0.16234815472E+03  0.17217002612E+03  0.00000000000E+00 0.  1.
          2    1    1    2  501    0 -0.72709704431E+02 -0.31432574068E+02  0.89106280630E+02  0.11922515291E+03  0.25500000000E-02 0. -1.
<mgrwt>
<rscale>  0 0.14724747E+03</rscale>
<asrwt>0</asrwt>
<pdfrwt beam="1">  1       11 0.10000000E+01 0.13535530E+03</pdfrwt>
<pdfrwt beam="2">  1        2 0.40404691E-02 0.14724747E+03</pdfrwt>
<totfact> 0.24427554E+03</totfact>
</mgrwt>
</event>
<event>
 5    1  0.6729100E-004  0.9985111E+02  0.7818608E-02  0.1280609E+00
         11   -1    0    0    0    0  0.00000000000E+00  0.00000000000E+00  0.10001702815E+04  0.10001702815E+04  0.51100000000E-03 0.  1.
          2   -1    0    0  501    0 -0.00000000000E+00 -0.00000000000E+00 -0.55557631583E+03  0.55557631584E+03  0.25500000000E-02 0.  1.
         11    1    1    2    0    0 -0.41972725665E+02 -0.42138579880E+02  0.35001734944E+03  0.35503452582E+03  0.51100000000E-03 0.  1.
         22    1    1    2    0    0  0.13798866100E+02  0.13772268128E+03  0.63564687246E+03  0.65054199873E+03  0.00000000000E+00 0.  1.
          2    1    1    2  501    0  0.28173859565E+02 -0.95584101395E+02 -0.54107025624E+03  0.55017007279E+03  0.25500000000E-02 0.  1.
<mgrwt>
<rscale>  0 0.99851109E+02</rscale>
<asrwt>0</asrwt>
<pdfrwt beam="1">  1       11 0.10000000E+01 0.59475790E+02</pdfrwt>
<pdfrwt beam="2">  1        2 0.85487831E-01 0.99851109E+02</pdfrwt>
<totfact> 0.70126438E+01</totfact>
</mgrwt>
</event>
<event>
 5    1  0.6729100E-004  0.1211442E+03  0.7818608E-02  0.1659715E+00
         11   -1    0    0    0    0  0.00000000000E+00  0.00000000000E+00  0.10002018669E+04  0.10002018669E+04  0.51100000000E-03 0. -1.
          2   -1    0    0  501    0 -0.00000000000E+00 -0.00000000000E+00 -0.41716824935E+02  0.41716825013E+02  0.25500000000E-02 0.  1.
         11    1    1    2    0    0  0.84713192709E+02  0.10811458527E+03  0.42123368240E+03  0.44306083528E+03  0.51100000000E-03 0. -1.
         22    1    1    2    0    0 -0.65891067868E+02 -0.91524665271E+02  0.55613585779E+03  0.56745527533E+03  0.00000000000E+00 0. -1.
          2    1    1    2  501    0 -0.18822124841E+02 -0.16589920000E+02 -0.18884498265E+02  0.31402581269E+02  0.25500000000E-02 0.  1.
<mgrwt>
<rscale>  0 0.25089795E+02</rscale>
<asrwt>0</asrwt>
<pdfrwt beam="1">  1       11 0.10000000E+01 0.12114416E+03</pdfrwt>
<pdfrwt beam="2">  1        2 0.64192685E-02 0.25089795E+02</pdfrwt>
<totfact> 0.11351794E+03</totfact>
</mgrwt>
</event>
<event>
 5    1  0.6729100E-004  0.2661334E+03  0.7818608E-02  0.1106938E+00
         11   -1    0    0    0    0  0.00000000000E+00  0.00000000000E+00  0.10003110383E+04  0.10003110383E+04  0.51100000000E-03 0.  1.
          2   -1    0    0  501    0 -0.00000000000E+00 -0.00000000000E+00 -0.87060818593E+02  0.87060818630E+02  0.25500000000E-02 0.  1.
         11    1    1    2    0    0  0.24741817190E+03  0.14428010913E+02  0.63962605431E+03  0.68596312484E+03  0.51100000000E-03 0.  1.
         22    1    1    2    0    0  0.11525017831E+02  0.12515988223E+02  0.66741603745E+02  0.68876103749E+02  0.00000000000E+00 0. -1.
          2    1    1    2  501    0 -0.25894318973E+03 -0.26943999136E+02  0.20688256166E+03  0.33253262836E+03  0.25500000000E-02 0.  1.
<mgrwt>
<rscale>  0 0.26034123E+03</rscale>
<asrwt>0</asrwt>
<pdfrwt beam="1">  1       11 0.10000000E+01 0.26613341E+03</pdfrwt>
<pdfrwt beam="2">  1        2 0.13398138E-01 0.26034123E+03</pdfrwt>
<totfact> 0.54933684E+02</totfact>
</mgrwt>
</event>
<event>
 5    1  0.6729100E-004  0.9294703E+02  0.7818608E-02  0.1295868E+00
         11   -1    0    0    0    0  0.00000000000E+00  0.00000000000E+00  0.10005070540E+04  0.10005070540E+04  0.51100000000E-03 0. -1.
         -2   -1    0    0    0  501 -0.00000000000E+00 -0.00000000000E+00 -0.10493616311E+03  0.10493616314E+03  0.25500000000E-02 0. -1.
         11    1    1    2    0    0 -0.47664528818E+02 -0.97651231681E+02  0.57215051402E+03  0.58237778207E+03  0.51100000000E-03 0. -1.
         22    1    1    2    0    0  0.74502952446E+02  0.81715012899E+01  0.39708556084E+03  0.40409702546E+03  0.00000000000E+00 0. -1.
         -2    1    1    2    0  501 -0.26838423628E+02  0.89479730391E+02 -0.73665184016E+02  0.11896840957E+03  0.25500000000E-02 0. -1.
<mgrwt>
<rscale>  0 0.92947030E+02</rscale>
<asrwt>0</asrwt>
<pdfrwt beam="1">  1       11 0.10000000E+01 0.74949739E+02</pdfrwt>
<pdfrwt beam="2">  1       -2 0.16152211E-01 0.92947030E+02</pdfrwt>
<totfact> 0.23223683E+02</totfact>
</mgrwt>
</event>
<event>
 5    1  0.6729100E-004  0.2498981E+03  0.7818608E-02  0.1260508E+00
         11   -1    0    0    0    0  0.00000000000E+00  0.00000000000E+00  0.99996219134E+03  0.99996219134E+03  0.51100000000E-03 0. -1.
          2   -1    0    0  501    0 -0.00000000000E+00 -0.00000000000E+00 -0.27166065574E+03  0.27166065575E+03  0.25500000000E-02 0. -1.
         11    1    1    2    0    0  0.21495666667E+03  0.76638254638E+02  0.54328625453E+03  0.58927051936E+03  0.51100000000E-03 0. -1.
         22    1    1    2    0    0 -0.31124961664E+03 -0.23393405720E+02  0.35948631045E+03  0.47608190754E+03  0.00000000000E+00 0. -1.
          2    1    1    2  501    0  0.96292949967E+02 -0.53244848918E+02 -0.17447102938E+03  0.20627042020E+03  0.25500000000E-02 0. -1.
<mgrwt>
<rscale>  0 0.11003339E+03</rscale>
<asrwt>0</asrwt>
<pdfrwt beam="1">  1       11 0.10000000E+01 0.24989810E+03</pdfrwt>
<pdfrwt beam="2">  1        2 0.41792366E-01 0.11003339E+03</pdfrwt>
<totfact> 0.15018257E+02</totfact>
</mgrwt>
</event>
<event>
 5    1  0.6729100E-004  0.1830990E+03  0.7818608E-02  0.1164837E+00
         11   -1    0    0    0    0  0.00000000000E+00  0.00000000000E+00  0.10002015009E+04  0.10002015009E+04  0.51100000000E-03 0.  1.
          2   -1    0    0  501    0 -0.00000000000E+00 -0.00000000000E+00 -0.62481241688E+02  0.62481241740E+02  0.25500000000E-02 0.  1.
         11    1    1    2    0    0  0.90140225346E+02 -0.14031688366E+03  0.28962273651E+03  0.33420864377E+03  0.51100000000E-03 0.  1.
         22    1    1    2    0    0  0.83038894832E+02  0.26899356299E+02  0.37922539188E+03  0.38914127418E+03  0.00000000000E+00 0.  1.
          2    1    1    2  501    0 -0.17317912018E+03  0.11341752736E+03  0.26887213085E+03  0.33933282472E+03  0.25500000000E-02 0.  1.
<mgrwt>
<rscale>  0 0.18309901E+03</rscale>
<asrwt>0</asrwt>
<pdfrwt beam="1">  1       11 0.10000000E+01 0.87287075E+02</pdfrwt>
<pdfrwt beam="2">  1        2 0.96144354E-02 0.18309901E+03</pdfrwt>
<totfact> 0.81178620E+02</totfact>
</mgrwt>
</event>
<event>
 5    1  0.6729100E-004  0.2880972E+03  0.7818608E-02  0.1091347E+00
         11   -1    0    0    0    0  0.00000000000E+00  0.00000000000E+00  0.10006792762E+04  0.10006792762E+04  0.51100000000E-03 0.  1.
          2   -1    0    0  501    0 -0.00000000000E+00 -0.00000000000E+00 -0.81070905154E+02  0.81070905194E+02  0.25500000000E-02 0.  1.
         11    1    1    2    0    0  0.77516446190E+02 -0.25934693614E+03  0.34090090698E+03  0.43529652088E+03  0.51100000000E-03 0.  1.
         22    1    1    2    0    0  0.26343713901E+01  0.95748522325E+02  0.28670528780E+03  0.30228238700E+03  0.00000000000E+00 0.  1.
          2    1    1    2  501    0 -0.80150817580E+02  0.16359841381E+03  0.29200217630E+03  0.34417127354E+03  0.25500000000E-02 0.  1.
<mgrwt>
<rscale>  0 0.28809722E+03</rscale>
<asrwt>0</asrwt>
<pdfrwt beam="1">  1       11 0.10000000E+01 0.27068377E+03</pdfrwt>
<pdfrwt beam="2">  1        2 0.12480919E-01 0.28809722E+03</pdfrwt>
<totfact> 0.60113185E+02</totfact>
</mgrwt>
</event>
<event>
 5    1  0.6729100E-004  0.1431994E+03  0.7818608E-02  0.1209088E+00
         11   -1    0    0    0    0  0.00000000000E+00  0.00000000000E+00  0.10002388852E+04  0.10002388853E+04  0.51100000000E-03 0. -1.
          2   -1    0    0  501    0 -0.00000000000E+00 -0.00000000000E+00 -0.24703960944E+03  0.24703960945E+03  0.25500000000E-02 0. -1.
         11    1    1    2    0    0  0.13252697740E+03  0.57381985332E+02  0.84190268189E+03  0.85419916750E+03  0.51100000000E-03 0. -1.
         22    1    1    2    0    0 -0.25810629215E+02  0.38336374531E+02  0.12640002957E+03  0.13458392797E+03  0.00000000000E+00 0. -1.
          2    1    1    2  501    0 -0.10671634819E+03 -0.95718359863E+02 -0.21510343565E+03  0.25849539923E+03  0.25500000000E-02 0. -1.
<mgrwt>
<rscale>  0 0.14319937E+03</rscale>
<asrwt>0</asrwt>
<pdfrwt beam="1">  1       11 0.10000000E+01 0.46215432E+02</pdfrwt>
<pdfrwt beam="2">  1        2 0.38015172E-01 0.14319937E+03</pdfrwt>
<totfact> 0.16649868E+02</totfact>
</mgrwt>
</event>
<event>
 5    1  0.6729100E-004  0.8273600E+02  0.7818608E-02  0.1434266E+00
         11   -1    0    0    0    0  0.00000000000E+00  0.00000000000E+00  0.10002574223E+04  0.10002574223E+04  0.51100000000E-03 0.  1.
          2   -1    0    0  501    0 -0.00000000000E+00 -0.00000000000E+00 -0.10128223429E+04  0.10128223429E+04  0.25500000000E-02 0.  1.
         11    1    1    2    0    0 -0.58272476204E+02 -0.96160019029E+02  0.66385075815E+03  0.67330547291E+03  0.51100000000E-03 0.  1.
         22    1    1    2    0    0  0.44898839026E+02  0.45792193778E+02  0.32789740142E+03  0.33411006662E+03  0.00000000000E+00 0.  1.
          2    1    1    2  501    0  0.13373637178E+02  0.50367825251E+02 -0.10043130801E+04  0.10056642257E+04  0.25500000000E-02 0.  1.
<mgrwt>
<rscale>  0 0.52113069E+02</rscale>
<asrwt>0</asrwt>
<pdfrwt beam="1">  1       11 0.10000000E+01 0.82735998E+02</pdfrwt>
<pdfrwt beam="2">  1        2 0.15585893E+00 0.52113069E+02</pdfrwt>
<totfact> 0.35076087E+01</totfact>
</mgrwt>
</event>
<event>
 5    1  0.6729100E-004  0.2660490E+03  0.7818608E-02  0.1103562E+00
         11   -1    0    0    0    0  0.00000000000E+00  0.00000000000E+00  0.10001647869E+04  0.10001647869E+04  0.51100000000E-03 0. -1.
         -2   -1    0    0    0  501 -0.00000000000E+00 -0.00000000000E+00 -0.98123840891E+02  0.98123840924E+02  0.25500000000E-02 0.  1.
         11    1    1    2    0    0 -0.22620666534E+03  0.11271955189E+03  0.57744207041E+03  0.63032888043E+03  0.51100000000E-03 0. -1.
         22    1    1    2    0    0 -0.31010097264E+02 -0.22369273778E+02  0.12324306457E+03  0.12903822498E+03  0.00000000000E+00 0.  1.
         -2    1    1    2    0  501  0.25721676260E+03 -0.90350278116E+02  0.20135581105E+03  0.33892152243E+03  0.25500000000E-02 0.  1.
<mgrwt>
<rscale>  0 0.26604899E+03</rscale>
<asrwt>0</asrwt>
<pdfrwt beam="1">  1       11 0.10000000E+01 0.38236246E+02</pdfrwt>
<pdfrwt beam="2">  1       -2 0.15098463E-01 0.26604899E+03</pdfrwt>
<totfact> 0.27113103E+02</totfact>
</mgrwt>
</event>
<event>
 5    1  0.6729100E-004  0.9678559E+02  0.7818608E-02  0.1680467E+00
         11   -1    0    0    0    0  0.00000000000E+00  0.00000000000E+00  0.10001248390E+04  0.10001248390E+04  0.51100000000E-03 0.  1.
          2   -1    0    0  501    0 -0.00000000000E+00 -0.00000000000E+00 -0.14705203650E+03  0.14705203653E+03  0.25500000000E-02 0.  1.
         11    1    1    2    0    0  0.88483673591E+02  0.81265011907E+00  0.52618625297E+03  0.53357473114E+03  0.51100000000E-03 0.  1.
         22    1    1    2    0    0 -0.11174341236E+03  0.37144081443E+01  0.46255719561E+03  0.47587765890E+03  0.00000000000E+00 0.  1.
          2    1    1    2  501    0  0.23259738768E+02 -0.45270582634E+01 -0.13567064605E+03  0.13772448552E+03  0.25500000000E-02 0.  1.
<mgrwt>
<rscale>  0 0.23696196E+02</rscale>
<asrwt>0</asrwt>
<pdfrwt beam="1">  1       11 0.10000000E+01 0.96785594E+02</pdfrwt>
<pdfrwt beam="2">  1        2 0.22626214E-01 0.23696196E+02</pdfrwt>
<totfact> 0.27288031E+02</totfact>
</mgrwt>
</event>
<event>
 5    1  0.6729100E-004  0.1673759E+03  0.7818608E-02  0.1180612E+00
         11   -1    0    0    0    0  0.00000000000E+00  0.00000000000E+00  0.10002506027E+04  0.10002506027E+04  0.51100000000E-03 0.  1.
          2   -1    0    0  501    0 -0.00000000000E+00 -0.00000000000E+00 -0.26975395641E+02  0.26975395762E+02  0.25500000000E-02 0.  1.
         11    1    1    2    0    0 -0.66369013479E+02  0.14670095796E+03  0.49185514333E+03  0.51753985260E+03  0.51100000000E-03 0.  1.
         22    1    1    2    0    0 -0.39594367061E+01 -0.16908470876E+02  0.82995602979E+02  0.84792945699E+02  0.00000000000E+00 0.  1.
          2    1    1    2  501    0  0.70328450185E+02 -0.12979248708E+03  0.39842446072E+03  0.42489320013E+03  0.25500000000E-02 0.  1.
<mgrwt>
<rscale>  0 0.16737589E+03</rscale>
<asrwt>0</asrwt>
<pdfrwt beam="1">  1       11 0.10000000E+01 0.16101558E+03</pdfrwt>
<pdfrwt beam="2">  1        2 0.41511008E-02 0.16737589E+03</pdfrwt>
<totfact> 0.23830688E+03</totfact>
</mgrwt>
</event>
<event>
 5    1  0.6729100E-004  0.9417281E+02  0.7818608E-02  0.1293050E+00
         11   -1    0    0    0    0  0.00000000000E+00  0.00000000000E+00  0.10001568492E+04  0.10001568492E+04  0.51100000000E-03 0.  1.
         -2   -1    0    0    0  501 -0.00000000000E+00 -0.00000000000E+00 -0.23156883980E+02  0.23156884121E+02  0.25500000000E-02 0. -1.
         11    1    1    2    0    0  0.55900458271E+02  0.65867643504E+02  0.17649192320E+03  0.19650141641E+03  0.51100000000E-03 0.  1.
         22    1    1    2    0    0 -0.45621703106E+02  0.58650919418E+02  0.41388668320E+03  0.42050381292E+03  0.00000000000E+00 0.  1.
         -2    1    1    2    0  501 -0.10278755166E+02 -0.12451856292E+03  0.38662135878E+03  0.40630850396E+03  0.25500000000E-02 0. -1.
<mgrwt>
<rscale>  0 0.94172808E+02</rscale>
<asrwt>0</asrwt>
<pdfrwt beam="1">  1       11 0.10000000E+01 0.74305250E+02</pdfrwt>
<pdfrwt beam="2">  1       -2 0.35631562E-02 0.94172808E+02</pdfrwt>
<totfact> 0.23550560E+03</totfact>
</mgrwt>
</event>
<event>
 5    1  0.6729100E-004  0.2707888E+03  0.7818608E-02  0.1100829E+00
         11   -1    0    0    0    0  0.00000000000E+00  0.00000000000E+00  0.10002397119E+04  0.10002397119E+04  0.51100000000E-03 0. -1.
          2   -1    0    0  501    0 -0.00000000000E+00 -0.00000000000E+00 -0.89031448526E+02  0.89031448562E+02  0.25500000000E-02 0. -1.
         11    1    1    2    0    0  0.24971520091E+03 -0.86462568244E+02  0.20982953363E+03  0.33743427576E+03  0.51100000000E-03 0. -1.
         22    1    1    2    0    0 -0.73033744943E+02  0.47139502813E+02  0.17905214025E+03  0.19903700549E+03  0.00000000000E+00 0. -1.
          2    1    1    2  501    0 -0.17668145597E+03  0.39323065432E+02  0.52232658947E+03  0.55279987919E+03  0.25500000000E-02 0. -1.
<mgrwt>
<rscale>  0 0.27078881E+03</rscale>
<asrwt>0</asrwt>
<pdfrwt beam="1">  1       11 0.10000000E+01 0.26426034E+03</pdfrwt>
<pdfrwt beam="2">  1        2 0.13700429E-01 0.27078881E+03</pdfrwt>
<totfact> 0.53555437E+02</totfact>
</mgrwt>
</event>
<event>
 5    1  0.6729100E-004  0.7323173E+02  0.7818608E-02  0.1571799E+00
         11   -1    0    0    0    0  0.00000000000E+00  0.00000000000E+00  0.10002423905E+04  0.10002423905E+04  0.51100000000E-03 0. -1.
          2   -1    0    0  501    0 -0.00000000000E+00 -0.00000000000E+00 -0.68444674523E+01  0.68444679274E+01  0.25500000000E-02 0. -1.
         11    1    1    2    0    0  0.24421671775E+02  0.72925888756E+02  0.42021136778E+03  0.42719105435E+03  0.51100000000E-03 0. -1.
         22    1    1    2    0    0 -0.14222428841E+02 -0.25016211815E+01  0.55781632246E+02  0.57620535287E+02  0.00000000000E+00 0.  1.
          2    1    1    2  501    0 -0.10199242934E+02 -0.70424267574E+02  0.51740492306E+03  0.52227526884E+03  0.25500000000E-02 0. -1.
<mgrwt>
<rscale>  0 0.32519553E+02</rscale>
<asrwt>0</asrwt>
<pdfrwt beam="1">  1       11 0.10000000E+01 0.73231726E+02</pdfrwt>
<pdfrwt beam="2">  1        2 0.10532502E-02 0.32519553E+02</pdfrwt>
<totfact> 0.11844161E+04</totfact>
</mgrwt>
</event>
<event>
 5    1  0.6729100E-004  0.1720481E+03  0.7818608E-02  0.1175729E+00
         11   -1    0    0    0    0  0.00000000000E+00  0.00000000000E+00  0.10001257023E+04  0.10001257023E+04  0.51100000000E-03 0. -1.
          2   -1    0    0  501    0 -0.00000000000E+00 -0.00000000000E+00 -0.46231939858E+03  0.46231939859E+03  0.25500000000E-02 0. -1.
         11    1    1    2    0    0 -0.15832418043E+03  0.59625239357E+02  0.87839202973E+03  0.89453578641E+03  0.51100000000E-03 0. -1.
         22    1    1    2    0    0  0.40997812859E+01  0.16786886508E+02  0.96563348512E+02  0.98097339622E+02  0.00000000000E+00 0.  1.
          2    1    1    2  501    0  0.15422439914E+03 -0.76412125865E+02 -0.43714907457E+03  0.46981197481E+03  0.25500000000E-02 0. -1.
<mgrwt>
<rscale>  0 0.17204808E+03</rscale>
<asrwt>0</asrwt>
<pdfrwt beam="1">  1       11 0.10000000E+01 0.17280271E+02</pdfrwt>
<pdfrwt beam="2">  1        2 0.71135000E-01 0.17204808E+03</pdfrwt>
<totfact> 0.85114485E+01</totfact>
</mgrwt>
</event>
<event>
 5    1  0.6729100E-004  0.1696512E+03  0.7818608E-02  0.1488921E+00
         11   -1    0    0    0    0  0.00000000000E+00  0.00000000000E+00  0.10000386651E+04  0.10000386651E+04  0.51100000000E-03 0.  1.
          2   -1    0    0  501    0 -0.00000000000E+00 -0.00000000000E+00 -0.31489804825E+02  0.31489804928E+02  0.25500000000E-02 0.  1.
         11    1    1    2    0    0 -0.16658476264E+03  0.29566761140E+02  0.49666441481E+03  0.52469059211E+03  0.51100000000E-03 0.  1.
         22    1    1    2    0    0  0.10865348098E+01  0.10715744512E+02  0.10605105997E+02  0.15115422969E+02  0.00000000000E+00 0.  1.
          2    1    1    2  501    0  0.16549822783E+03 -0.40282505652E+02  0.46127933948E+03  0.49172245496E+03  0.25500000000E-02 0.  1.
<mgrwt>
<rscale>  0 0.42746471E+02</rscale>
<asrwt>0</asrwt>
<pdfrwt beam="1">  1       11 0.10000000E+01 0.16965125E+03</pdfrwt>
<pdfrwt beam="2">  1        2 0.48447725E-02 0.42746471E+02</pdfrwt>
<totfact> 0.17069980E+03</totfact>
</mgrwt>
</event>
<event>
 5    1  0.6729100E-004  0.2326610E+03  0.7818608E-02  0.1136672E+00
         11   -1    0    0    0    0  0.00000000000E+00  0.00000000000E+00  0.10002786293E+04  0.10002786293E+04  0.51100000000E-03 0. -1.
          2   -1    0    0  501    0 -0.00000000000E+00 -0.00000000000E+00 -0.10310703661E+04  0.10310703661E+04  0.25500000000E-02 0. -1.
         11    1    1    2    0    0 -0.70776473854E+02  0.14227609570E+03  0.82710275698E+03  0.84222964046E+03  0.51100000000E-03 0. -1.
         22    1    1    2    0    0 -0.47749347398E+02  0.38659089644E+02  0.14799293870E+03  0.16023868226E+03  0.00000000000E+00 0.  1.
          2    1    1    2  501    0  0.11852582125E+03 -0.18093518535E+03 -0.10058874326E+04  0.10288806727E+04  0.25500000000E-02 0. -1.
<mgrwt>
<rscale>  0 0.21630051E+03</rscale>
<asrwt>0</asrwt>
<pdfrwt beam="1">  1       11 0.10000000E+01 0.23266096E+03</pdfrwt>
<pdfrwt beam="2">  1        2 0.15867040E+00 0.21630051E+03</pdfrwt>
<totfact> 0.31784538E+01</totfact>
</mgrwt>
</event>
<event>
 5    1  0.6729100E-004  0.2264581E+03  0.7818608E-02  0.1129158E+00
         11   -1    0    0    0    0  0.00000000000E+00  0.00000000000E+00  0.10001849644E+04  0.10001849644E+04  0.51100000000E-03 0. -1.
          2   -1    0    0  501    0 -0.00000000000E+00 -0.00000000000E+00 -0.27172117670E+03  0.27172117671E+03  0.25500000000E-02 0.  1.
         11    1    1    2    0    0  0.10382414548E+03  0.16363530853E+03  0.84303338605E+03  0.86502095777E+03  0.51100000000E-03 0. -1.
         22    1    1    2    0    0 -0.30642201595E+02  0.53120570289E+02  0.83964672098E+02  0.10397502425E+03  0.00000000000E+00 0. -1.
          2    1    1    2  501    0 -0.73181943880E+02 -0.21675587882E+03 -0.19853427047E+03  0.30291015907E+03  0.25500000000E-02 0.  1.
<mgrwt>
<rscale>  0 0.22645812E+03</rscale>
<asrwt>0</asrwt>
<pdfrwt beam="1">  1       11 0.10000000E+01 0.61324869E+02</pdfrwt>
<pdfrwt beam="2">  1        2 0.41810989E-01 0.22645812E+03</pdfrwt>
<totfact> 0.15090297E+02</totfact>
</mgrwt>
</event>
<event>
 5    1  0.6729100E-004  0.3815657E+03  0.7818608E-02  0.1050357E+00
         11   -1    0    0    0    0  0.00000000000E+00  0.00000000000E+00  0.99998502272E+03  0.99998502272E+03  0.51100000000E-03 0.  1.
          2   -1    0    0  501    0 -0.00000000000E+00 -0.00000000000E+00 -0.21762831942E+04  0.21762831942E+04  0.25500000000E-02 0.  1.
         11    1    1    2    0    0  0.50362126756E+03  0.41684551120E+03 -0.74271925742E+03  0.98945765786E+03  0.51100000000E-03 0.  1.
         22    1    1    2    0    0 -0.29584479576E+03 -0.15403843266E+03  0.82211093422E+03  0.88719691731E+03  0.00000000000E+00 0.  1.
          2    1    1    2  501    0 -0.20777647180E+03 -0.26280707854E+03 -0.12556898483E+04  0.12996136417E+04  0.25500000000E-02 0.  1.
<mgrwt>
<rscale>  0 0.38156572E+03</rscale>
<asrwt>0</asrwt>
<pdfrwt beam="1">  1       11 0.10000000E+01 0.33354457E+03</pdfrwt>
<pdfrwt beam="2">  1        2 0.33480777E+00 0.38156572E+03</pdfrwt>
<totfact> 0.72530031E+00</totfact>
</mgrwt>
</event>
<event>
 5    1  0.6729100E-004  0.1611745E+03  0.7818608E-02  0.1187377E+00
         11   -1    0    0    0    0  0.00000000000E+00  0.00000000000E+00  0.10000086729E+04  0.10000086729E+04  0.51100000000E-03 0. -1.
          2   -1    0    0  501    0 -0.00000000000E+00 -0.00000000000E+00 -0.61221643952E+02  0.61221644006E+02  0.25500000000E-02 0. -1.
         11    1    1    2    0    0  0.22139423884E+03 -0.54823203250E+00  0.46176284017E+03  0.51209435665E+03  0.51100000000E-03 0. -1.
         22    1    1    2    0    0 -0.95824083072E+02  0.68394114443E+02  0.29641792695E+03  0.31894136954E+03  0.00000000000E+00 0. -1.
          2    1    1    2  501    0 -0.12557015577E+03 -0.67845882411E+02  0.18060626186E+03  0.23019459075E+03  0.25500000000E-02 0. -1.
<mgrwt>
<rscale>  0 0.16117452E+03</rscale>
<asrwt>0</asrwt>
<pdfrwt beam="1">  1       11 0.10000000E+01 0.11772854E+03</pdfrwt>
<pdfrwt beam="2">  1        2 0.94187959E-02 0.16117452E+03</pdfrwt>
<totfact> 0.82699271E+02</totfact>
</mgrwt>
</event>
<event>
 5    1  0.6729100E-004  0.1152975E+03  0.7818608E-02  0.1251063E+00
         11   -1    0    0    0    0  0.00000000000E+00  0.00000000000E+00  0.99998265114E+03  0.99998265114E+03  0.51100000000E-03 0. -1.
          2   -1    0    0  501    0 -0.00000000000E+00 -0.00000000000E+00 -0.28852206691E+02  0.28852206804E+02  0.25500000000E-02 0. -1.
         11    1    1    2    0    0 -0.91568874782E+02 -0.74577780926E+02  0.26654900320E+03  0.29153914891E+03  0.51100000000E-03 0. -1.
         22    1    1    2    0    0  0.58748890716E+02 -0.45193570697E+02  0.42442276009E+03  0.43084634183E+03  0.00000000000E+00 0. -1.
          2    1    1    2  501    0  0.32819984066E+02  0.11977135162E+03  0.28015868116E+03  0.30644936720E+03  0.25500000000E-02 0. -1.
<mgrwt>
<rscale>  0 0.11529750E+03</rscale>
<asrwt>0</asrwt>
<pdfrwt beam="1">  1       11 0.10000000E+01 0.74120787E+02</pdfrwt>
<pdfrwt beam="2">  1        2 0.44387239E-02 0.11529750E+03</pdfrwt>
<totfact> 0.21113962E+03</totfact>
</mgrwt>
</event>
<event>
 5    1  0.6729100E-004  0.5533156E+02  0.7818608E-02  0.1559284E+00
         11   -1    0    0    0    0  0.00000000000E+00  0.00000000000E+00  0.10001104237E+04  0.10001104237E+04  0.51100000000E-03 0. -1.
          2   -1    0    0  501    0 -0.00000000000E+00 -0.00000000000E+00 -0.11680253508E+02  0.11680253787E+02  0.25500000000E-02 0. -1.
         11    1    1    2    0    0 -0.19045621425E+02 -0.70809987997E+02  0.13331922229E+03  0.15215388633E+03  0.51100000000E-03 0. -1.
         22    1    1    2    0    0  0.10299604807E+02  0.17930820134E+02  0.78478350208E+02  0.81156932059E+02  0.00000000000E+00 0.  1.
          2    1    1    2  501    0  0.87460166177E+01  0.52879167863E+02  0.77663259771E+03  0.77847985910E+03  0.25500000000E-02 0. -1.
<mgrwt>
<rscale>  0 0.33825544E+02</rscale>
<asrwt>0</asrwt>
<pdfrwt beam="1">  1       11 0.10000000E+01 0.55331556E+02</pdfrwt>
<pdfrwt beam="2">  1        2 0.17971605E-02 0.33825544E+02</pdfrwt>
<totfact> 0.59131449E+03</totfact>
</mgrwt>
</event>
<event>
 5    1  0.6729100E-004  0.1677409E+03  0.7818608E-02  0.1180224E+00
         11   -1    0    0    0    0  0.00000000000E+00  0.00000000000E+00  0.10002281487E+04  0.10002281487E+04  0.51100000000E-03 0. -1.
          2   -1    0    0  501    0 -0.00000000000E+00 -0.00000000000E+00 -0.15771636412E+03  0.15771636414E+03  0.25500000000E-02 0. -1.
         11    1    1    2    0    0 -0.15396974957E+03 -0.44353956038E+02  0.85945553512E+03  0.87426413288E+03  0.51100000000E-03 0. -1.
         22    1    1    2    0    0 -0.35583667578E+01 -0.14533226976E+02  0.85474038568E+02  0.86773774434E+02  0.00000000000E+00 0.  1.
          2    1    1    2  501    0  0.15752811633E+03  0.58887183015E+02 -0.10241778912E+03  0.19690660551E+03  0.25500000000E-02 0. -1.
<mgrwt>
<rscale>  0 0.16774087E+03</rscale>
<asrwt>0</asrwt>
<pdfrwt beam="1">  1       11 0.10000000E+01 0.14962508E+02</pdfrwt>
<pdfrwt beam="2">  1        2 0.24269591E-01 0.16774087E+03</pdfrwt>
<totfact> 0.27206402E+02</totfact>
</mgrwt>
</event>
<event>
 5    1  0.6729100E-004  0.6356045E+02  0.7818608E-02  0.1383470E+00
         11   -1    0    0    0    0  0.00000000000E+00  0.00000000000E+00  0.10001037589E+04  0.10001037589E+04  0.51100000000E-03 0. -1.
          2   -1    0    0  501    0 -0.00000000000E+00 -0.00000000000E+00 -0.18800666635E+02  0.18800666808E+02  0.25500000000E-02 0. -1.
         11    1    1    2    0    0 -0.61437012188E+02  0.13048336277E+02  0.42886603568E+02  0.76052786353E+02  0.51100000000E-03 0. -1.
         22    1    1    2    0    0 -0.11858298303E+02  0.16946101465E+01  0.55636924683E+02  0.56911847012E+02  0.00000000000E+00 0. -1.
          2    1    1    2  501    0  0.73295310491E+02 -0.14742946423E+02  0.88277956405E+03  0.88593979237E+03  0.25500000000E-02 0. -1.
<mgrwt>
<rscale>  0 0.63560448E+02</rscale>
<asrwt>0</asrwt>
<pdfrwt beam="1">  1       11 0.10000000E+01 0.11978770E+02</pdfrwt>
<pdfrwt beam="2">  1        2 0.28927103E-02 0.63560448E+02</pdfrwt>
<totfact> 0.34765689E+03</totfact>
</mgrwt>
</event>
<event>
 5    1  0.6729100E-004  0.1502130E+03  0.7818608E-02  0.1731625E+00
         11   -1    0    0    0    0  0.00000000000E+00  0.00000000000E+00  0.10004971651E+04  0.10004971651E+04  0.51100000000E-03 0.  1.
         -2   -1    0    0    0  501 -0.00000000000E+00 -0.00000000000E+00 -0.10332662616E+03  0.10332662619E+03  0.25500000000E-02 0.  1.
         11    1    1    2    0    0 -0.13648682586E+03  0.37656549475E+01  0.25655287572E+03  0.29062383218E+03  0.51100000000E-03 0.  1.
         22    1    1    2    0    0  0.15703875828E+03 -0.12368001472E+01  0.71703271169E+03  0.73402902594E+03  0.00000000000E+00 0.  1.
         -2    1    1    2    0  501 -0.20551932425E+02 -0.25288548004E+01 -0.76415048430E+02  0.79170933214E+02  0.25500000000E-02 0.  1.
<mgrwt>
<rscale>  0 0.20706932E+02</rscale>
<asrwt>0</asrwt>
<pdfrwt beam="1">  1       11 0.10000000E+01 0.15021300E+03</pdfrwt>
<pdfrwt beam="2">  1       -2 0.15904307E-01 0.20706932E+02</pdfrwt>
<totfact> 0.21628357E+02</totfact>
</mgrwt>
</event>
<event>
 5    1  0.6729100E-004  0.2035982E+03  0.7818608E-02  0.1357673E+00
         11   -1    0    0    0    0  0.00000000000E+00  0.00000000000E+00  0.10005008012E+04  0.10005008012E+04  0.51100000000E-03 0. -1.
          2   -1    0    0  501    0 -0.00000000000E+00 -0.00000000000E+00 -0.59575744302E+03  0.59575744303E+03  0.25500000000E-02 0. -1.
         11    1    1    2    0    0 -0.21145478613E+03  0.12276389601E+03  0.55446195350E+03  0.60598032857E+03  0.51100000000E-03 0. -1.
         22    1    1    2    0    0  0.15575870690E+03 -0.79189060486E+02  0.39975374591E+03  0.43627369786E+03  0.00000000000E+00 0. -1.
          2    1    1    2  501    0  0.55696079230E+02 -0.43574835524E+02 -0.54947234124E+03  0.55400421778E+03  0.25500000000E-02 0. -1.
<mgrwt>
<rscale>  0 0.70716473E+02</rscale>
<asrwt>0</asrwt>
<pdfrwt beam="1">  1       11 0.10000000E+01 0.20359817E+03</pdfrwt>
<pdfrwt beam="2">  1        2 0.91700890E-01 0.70716473E+02</pdfrwt>
<totfact> 0.65350022E+01</totfact>
</mgrwt>
</event>
<event>
 5    1  0.6729100E-004  0.7886176E+02  0.7818608E-02  0.1492029E+00
         11   -1    0    0    0    0  0.00000000000E+00  0.00000000000E+00  0.10004790091E+04  0.10004790091E+04  0.51100000000E-03 0. -1.
          2   -1    0    0  501    0 -0.00000000000E+00 -0.00000000000E+00 -0.93514805878E+01  0.93514809354E+01  0.25500000000E-02 0. -1.
         11    1    1    2    0    0 -0.63961869903E+02 -0.49807812483E+02  0.29201038021E+03  0.30305445243E+03  0.51100000000E-03 0. -1.
         22    1    1    2    0    0  0.17762643954E+02 -0.14093407184E+02  0.10299780202E+03  0.10546413071E+03  0.00000000000E+00 0. -1.
          2    1    1    2  501    0  0.46199225949E+02  0.63901219666E+02  0.59611934625E+03  0.60131190686E+03  0.25500000000E-02 0. -1.
<mgrwt>
<rscale>  0 0.42286579E+02</rscale>
<asrwt>0</asrwt>
<pdfrwt beam="1">  1       11 0.10000000E+01 0.78861760E+02</pdfrwt>
<pdfrwt beam="2">  1        2 0.14393785E-02 0.42286579E+02</pdfrwt>
<totfact> 0.82316114E+03</totfact>
</mgrwt>
</event>
<event>
 5    1  0.6729100E-004  0.8263919E+02  0.7818608E-02  0.1321724E+00
         11   -1    0    0    0    0  0.00000000000E+00  0.00000000000E+00  0.10001319610E+04  0.10001319610E+04  0.51100000000E-03 0. -1.
          2   -1    0    0  501    0 -0.00000000000E+00 -0.00000000000E+00 -0.69830376114E+03  0.69830376114E+03  0.25500000000E-02 0. -1.
         11    1    1    2    0    0 -0.79390162858E+02 -0.10456850088E+03  0.66064566611E+03  0.67356519023E+03  0.51100000000E-03 0. -1.
         22    1    1    2    0    0  0.12214014000E+02  0.56709272945E+02  0.32801409579E+03  0.33310414410E+03  0.00000000000E+00 0.  1.
          2    1    1    2  501    0  0.67176148858E+02  0.47859227933E+02 -0.68683156205E+03  0.69176638781E+03  0.25500000000E-02 0. -1.
<mgrwt>
<rscale>  0 0.82639194E+02</rscale>
<asrwt>0</asrwt>
<pdfrwt beam="1">  1       11 0.10000000E+01 0.58009687E+02</pdfrwt>
<pdfrwt beam="2">  1        2 0.10744552E+00 0.82639194E+02</pdfrwt>
<totfact> 0.54405800E+01</totfact>
</mgrwt>
</event>
<event>
 5    1  0.6729100E-004  0.1235346E+03  0.7818608E-02  0.1378695E+00
         11   -1    0    0    0    0  0.00000000000E+00  0.00000000000E+00  0.10003801747E+04  0.10003801747E+04  0.51100000000E-03 0. -1.
         -2   -1    0    0    0  501 -0.00000000000E+00 -0.00000000000E+00 -0.56534234521E+02  0.56534234578E+02  0.25500000000E-02 0.  1.
         11    1    1    2    0    0 -0.67326034486E+02  0.15603723097E+03  0.35285459587E+03  0.39164624113E+03  0.51100000000E-03 0. -1.
         22    1    1    2    0    0  0.64338959048E+02 -0.91298099840E+02  0.58997283858E+03  0.60045215875E+03  0.00000000000E+00 0. -1.
         -2    1    1    2    0  501  0.29870754376E+01 -0.64739131129E+02  0.10185057733E+01  0.64816009438E+02  0.25500000000E-02 0.  1.
<mgrwt>
<rscale>  0 0.64808007E+02</rscale>
<asrwt>0</asrwt>
<pdfrwt beam="1">  1       11 0.10000000E+01 0.12353459E+03</pdfrwt>
<pdfrwt beam="2">  1       -2 0.87008809E-02 0.64808007E+02</pdfrwt>
<totfact> 0.60082646E+02</totfact>
</mgrwt>
</event>
<event>
 5    1  0.6729100E-004  0.2406917E+03  0.7818608E-02  0.1119333E+00
         11   -1    0    0    0    0  0.00000000000E+00  0.00000000000E+00  0.10002011676E+04  0.10002011676E+04  0.51100000000E-03 0. -1.
          2   -1    0    0  501    0 -0.00000000000E+00 -0.00000000000E+00 -0.25307916489E+03  0.25307916490E+03  0.25500000000E-02 0.  1.
         11    1    1    2    0    0 -0.51873617903E+02 -0.15586242369E+03  0.30578631580E+03  0.34711559787E+03  0.51100000000E-03 0. -1.
         22    1    1    2    0    0 -0.13240653085E+03 -0.30468314925E+02  0.58960931962E+03  0.60506111874E+03  0.00000000000E+00 0. -1.
          2    1    1    2  501    0  0.18428014876E+03  0.18633073862E+03 -0.14827363267E+03  0.30110361594E+03  0.25500000000E-02 0.  1.
<mgrwt>
<rscale>  0 0.24069174E+03</rscale>
<asrwt>0</asrwt>
<pdfrwt beam="1">  1       11 0.10000000E+01 0.13586687E+03</pdfrwt>
<pdfrwt beam="2">  1        2 0.38943088E-01 0.24069174E+03</pdfrwt>
<totfact> 0.16300354E+02</totfact>
</mgrwt>
</event>
<event>
 5    1  0.6729100E-004  0.7021216E+02  0.7818608E-02  0.1359373E+00
         11   -1    0    0    0    0  0.00000000000E+00  0.00000000000E+00  0.10000600133E+04  0.10000600133E+04  0.51100000000E-03 0.  1.
          2   -1    0    0  501    0 -0.00000000000E+00 -0.00000000000E+00 -0.90721991692E+01  0.90721995275E+01  0.25500000000E-02 0. -1.
         11    1    1    2    0    0 -0.42241336102E+02  0.71672374138E+02  0.40339734998E+03  0.41188673402E+03  0.51100000000E-03 0.  1.
         22    1    1    2    0    0  0.42553527563E+02 -0.81090251605E+01  0.22741186843E+03  0.23150100842E+03  0.00000000000E+00 0. -1.
          2    1    1    2  501    0 -0.31219146076E+00 -0.63563348978E+02  0.36017859574E+03  0.36574447040E+03  0.25500000000E-02 0. -1.
<mgrwt>
<rscale>  0 0.70212162E+02</rscale>
<asrwt>0</asrwt>
<pdfrwt beam="1">  1       11 0.10000000E+01 0.43319268E+02</pdfrwt>
<pdfrwt beam="2">  1        2 0.13958067E-02 0.70212162E+02</pdfrwt>
<totfact> 0.93178720E+03</totfact>
</mgrwt>
</event>
<event>
 5    1  0.6729100E-004  0.4688633E+03  0.7818608E-02  0.1022242E+00
         11   -1    0    0    0    0  0.00000000000E+00  0.00000000000E+00  0.10001077755E+04  0.10001077755E+04  0.51100000000E-03 0. -1.
          2   -1    0    0  501    0 -0.00000000000E+00 -0.00000000000E+00 -0.43205124885E+03  0.43205124885E+03  0.25500000000E-02 0. -1.
         11    1    1    2    0    0  0.31291776417E+03  0.35866323912E+03  0.46897273678E+03  0.66820077378E+03  0.51100000000E-03 0. -1.
         22    1    1    2    0    0 -0.64074636048E+02  0.37807521269E+02  0.25886618271E+03  0.26934488709E+03  0.00000000000E+00 0. -1.
          2    1    1    2  501    0 -0.24884312813E+03 -0.39647076039E+03 -0.15978239285E+03  0.49461336348E+03  0.25500000000E-02 0. -1.
<mgrwt>
<rscale>  0 0.46886330E+03</rscale>
<asrwt>0</asrwt>
<pdfrwt beam="1">  1       11 0.10000000E+01 0.74397363E+02</pdfrwt>
<pdfrwt beam="2">  1        2 0.66476585E-01 0.46886330E+03</pdfrwt>
<totfact> 0.90650180E+01</totfact>
</mgrwt>
</event>
<event>
 5    1  0.6729100E-004  0.1719331E+03  0.7818608E-02  0.1175847E+00
         11   -1    0    0    0    0  0.00000000000E+00  0.00000000000E+00  0.10000778661E+04  0.10000778661E+04  0.51100000000E-03 0. -1.
          2   -1    0    0  501    0 -0.00000000000E+00 -0.00000000000E+00 -0.57759653851E+02  0.57759653907E+02  0.25500000000E-02 0. -1.
         11    1    1    2    0    0  0.18249552923E+03  0.16087220250E+02  0.77932653913E+03  0.80057059117E+03  0.51100000000E-03 0. -1.
         22    1    1    2    0    0 -0.12857053864E+02 -0.10334661618E+02  0.51776030520E+02  0.54340283411E+02  0.00000000000E+00 0.  1.
          2    1    1    2  501    0 -0.16963847537E+03 -0.57525586324E+01  0.11121564257E+03  0.20292664540E+03  0.25500000000E-02 0. -1.
<mgrwt>
<rscale>  0 0.17193313E+03</rscale>
<asrwt>0</asrwt>
<pdfrwt beam="1">  1       11 0.10000000E+01 0.16495729E+02</pdfrwt>
<pdfrwt beam="2">  1        2 0.88867923E-02 0.17193313E+03</pdfrwt>
<totfact> 0.89233003E+02</totfact>
</mgrwt>
</event>
<event>
 5    1  0.6729100E-004  0.1187184E+03  0.7818608E-02  0.1558579E+00
         11   -1    0    0    0    0  0.00000000000E+00  0.00000000000E+00  0.10002788524E+04  0.10002788524E+04  0.51100000000E-03 0. -1.
         -2   -1    0    0    0  501 -0.00000000000E+00 -0.00000000000E+00 -0.33522284950E+02  0.33522285047E+02  0.25500000000E-02 0. -1.
         11    1    1    2    0    0 -0.66820588171E+02  0.10219774588E+03  0.56628867504E+03  0.57930323126E+03  0.51100000000E-03 0. -1.
         22    1    1    2    0    0  0.88725572404E+02 -0.76323541382E+02  0.40381360248E+03  0.42043184431E+03  0.00000000000E+00 0. -1.
         -2    1    1    2    0  501 -0.21904984233E+02 -0.25874204502E+02 -0.33457100202E+01  0.34066061922E+02  0.25500000000E-02 0. -1.
<mgrwt>
<rscale>  0 0.33901369E+02</rscale>
<asrwt>0</asrwt>
<pdfrwt beam="1">  1       11 0.10000000E+01 0.11871843E+03</pdfrwt>
<pdfrwt beam="2">  1       -2 0.51587126E-02 0.33901369E+02</pdfrwt>
<totfact> 0.12193566E+03</totfact>
</mgrwt>
</event>
<event>
 5    1  0.6729100E-004  0.1603385E+03  0.7818608E-02  0.1188315E+00
         11   -1    0    0    0    0  0.00000000000E+00  0.00000000000E+00  0.10000497925E+04  0.10000497925E+04  0.51100000000E-03 0.  1.
          2   -1    0    0  501    0 -0.00000000000E+00 -0.00000000000E+00 -0.33958562713E+03  0.33958562714E+03  0.25500000000E-02 0.  1.
         11    1    1    2    0    0 -0.14854984411E+03  0.85260078839E+00  0.83859933991E+03  0.85165523306E+03  0.51100000000E-03 0.  1.
         22    1    1    2    0    0 -0.98314711622E+01  0.26074766262E+02  0.13403235357E+03  0.13689858679E+03  0.00000000000E+00 0. -1.
          2    1    1    2  501    0  0.15838131527E+03 -0.26927367050E+02 -0.31216752808E+03  0.35108159980E+03  0.25500000000E-02 0.  1.
<mgrwt>
<rscale>  0 0.16033849E+03</rscale>
<asrwt>0</asrwt>
<pdfrwt beam="1">  1       11 0.10000000E+01 0.27866669E+02</pdfrwt>
<pdfrwt beam="2">  1        2 0.52246542E-01 0.16033849E+03</pdfrwt>
<totfact> 0.11875145E+02</totfact>
</mgrwt>
</event>
<event>
 5    1  0.6729100E-004  0.3142310E+03  0.7818608E-02  0.1078335E+00
         11   -1    0    0    0    0  0.00000000000E+00  0.00000000000E+00  0.99987995666E+03  0.99987995666E+03  0.51100000000E-03 0.  1.
         -2   -1    0    0    0  501 -0.00000000000E+00 -0.00000000000E+00 -0.10073787025E+03  0.10073787028E+03  0.25500000000E-02 0. -1.
         11    1    1    2    0    0 -0.24389883685E+03 -0.17939743722E+03  0.57087131898E+03  0.64619203487E+03  0.51100000000E-03 0.  1.
         22    1    1    2    0    0  0.40970016870E+02  0.40171185864E+02  0.11605704088E+03  0.12946622415E+03  0.00000000000E+00 0.  1.
         -2    1    1    2    0  501  0.20292881998E+03  0.13922625135E+03  0.21221372655E+03  0.32495956793E+03  0.25500000000E-02 0. -1.
<mgrwt>
<rscale>  0 0.31423097E+03</rscale>
<asrwt>0</asrwt>
<pdfrwt beam="1">  1       11 0.10000000E+01 0.30277068E+03</pdfrwt>
<pdfrwt beam="2">  1       -2 0.15496273E-01 0.31423097E+03</pdfrwt>
<totfact> 0.26113845E+02</totfact>
</mgrwt>
</event>
<event>
 5    1  0.6729100E-004  0.3622833E+03  0.7818608E-02  0.1057683E+00
         11   -1    0    0    0    0  0.00000000000E+00  0.00000000000E+00  0.10003534508E+04  0.10003534508E+04  0.51100000000E-03 0. -1.
          2   -1    0    0  501    0 -0.00000000000E+00 -0.00000000000E+00 -0.25586786552E+04  0.25586786552E+04  0.25500000000E-02 0. -1.
         11    1    1    2    0    0  0.27866338980E+03 -0.33581121781E+03  0.86954926535E+03  0.97290204218E+03  0.51100000000E-03 0. -1.
         22    1    1    2    0    0 -0.34747177462E+02  0.69362095371E+02  0.43197122186E+02  0.88794470442E+02  0.00000000000E+00 0.  1.
          2    1    1    2  501    0 -0.24391621234E+03  0.26644912244E+03 -0.24710715919E+04  0.24973355934E+04  0.25500000000E-02 0. -1.
<mgrwt>
<rscale>  0 0.36228328E+03</rscale>
<asrwt>0</asrwt>
<pdfrwt beam="1">  1       11 0.10000000E+01 0.77578777E+02</pdfrwt>
<pdfrwt beam="2">  1        2 0.39378199E+00 0.36228328E+03</pdfrwt>
<totfact> 0.45021851E+00</totfact>
</mgrwt>
</event>
<event>
 5    1  0.6729100E-004  0.3597047E+03  0.7818608E-02  0.1058701E+00
         11   -1    0    0    0    0  0.00000000000E+00  0.00000000000E+00  0.10003660360E+04  0.10003660360E+04  0.51100000000E-03 0. -1.
          2   -1    0    0  501    0 -0.00000000000E+00 -0.00000000000E+00 -0.27463319912E+03  0.27463319913E+03  0.25500000000E-02 0. -1.
         11    1    1    2    0    0  0.29438201833E+03  0.19808139838E+03  0.82818185010E+03  0.90098956150E+03  0.51100000000E-03 0. -1.
         22    1    1    2    0    0 -0.12564185502E+02 -0.24312049229E+01  0.60934942436E+01  0.14173926302E+02  0.00000000000E+00 0. -1.
          2    1    1    2  501    0 -0.28181783283E+03 -0.19565019346E+03 -0.10854250749E+03  0.35983574730E+03  0.25500000000E-02 0. -1.
<mgrwt>
<rscale>  0 0.35970465E+03</rscale>
<asrwt>0</asrwt>
<pdfrwt beam="1">  1       11 0.10000000E+01 0.35481969E+03</pdfrwt>
<pdfrwt beam="2">  1        2 0.42266726E-01 0.35970465E+03</pdfrwt>
<totfact> 0.14942096E+02</totfact>
</mgrwt>
</event>
<event>
 5    1  0.6729100E-004  0.3481373E+03  0.7818608E-02  0.1063382E+00
         11   -1    0    0    0    0  0.00000000000E+00  0.00000000000E+00  0.10003985151E+04  0.10003985151E+04  0.51100000000E-03 0. -1.
          2   -1    0    0  501    0 -0.00000000000E+00 -0.00000000000E+00 -0.35508300110E+03  0.35508300111E+03  0.25500000000E-02 0. -1.
         11    1    1    2    0    0 -0.37283355560E+03  0.54438431096E+02  0.62008101728E+03  0.72558174657E+03  0.51100000000E-03 0. -1.
         22    1    1    2    0    0  0.42520195604E+02  0.43006311470E+02  0.22416966583E+03  0.23218429951E+03  0.00000000000E+00 0. -1.
          2    1    1    2  501    0  0.33031335999E+03 -0.97444742565E+02 -0.19893516913E+03  0.39771547011E+03  0.25500000000E-02 0. -1.
<mgrwt>
<rscale>  0 0.34813733E+03</rscale>
<asrwt>0</asrwt>
<pdfrwt beam="1">  1       11 0.10000000E+01 0.60477350E+02</pdfrwt>
<pdfrwt beam="2">  1        2 0.54649923E-01 0.34813733E+03</pdfrwt>
<totfact> 0.11287121E+02</totfact>
</mgrwt>
</event>
<event>
 5    1  0.6729100E-004  0.8929825E+02  0.7818608E-02  0.1511078E+00
         11   -1    0    0    0    0  0.00000000000E+00  0.00000000000E+00  0.10001920292E+04  0.10001920292E+04  0.51100000000E-03 0.  1.
          2   -1    0    0  501    0 -0.00000000000E+00 -0.00000000000E+00 -0.39586843008E+03  0.39586843009E+03  0.25500000000E-02 0.  1.
         11    1    1    2    0    0  0.10852126327E+03  0.15216646712E+02  0.54765611200E+03  0.55851197653E+03  0.51100000000E-03 0.  1.
         22    1    1    2    0    0 -0.77279142192E+02  0.91375336198E+01  0.44270076102E+03  0.44948806897E+03  0.00000000000E+00 0.  1.
          2    1    1    2  501    0 -0.31242121080E+02 -0.24354180332E+02 -0.38603327387E+03  0.38806041381E+03  0.25500000000E-02 0.  1.
<mgrwt>
<rscale>  0 0.39613082E+02</rscale>
<asrwt>0</asrwt>
<pdfrwt beam="1">  1       11 0.10000000E+01 0.89298250E+02</pdfrwt>
<pdfrwt beam="2">  1        2 0.60914529E-01 0.39613082E+02</pdfrwt>
<totfact> 0.10117937E+02</totfact>
</mgrwt>
</event>
<event>
 5    1  0.6729100E-004  0.2413622E+03  0.7818608E-02  0.1129144E+00
         11   -1    0    0    0    0  0.00000000000E+00  0.00000000000E+00  0.10003024673E+04  0.10003024673E+04  0.51100000000E-03 0. -1.
          2   -1    0    0  501    0 -0.00000000000E+00 -0.00000000000E+00 -0.66121008103E+02  0.66121008152E+02  0.25500000000E-02 0. -1.
         11    1    1    2    0    0 -0.10247568524E+03 -0.28369433668E+02  0.32581257359E+03  0.34272426809E+03  0.51100000000E-03 0. -1.
         22    1    1    2    0    0 -0.12220264893E+03  0.56864157742E+02  0.37506558215E+03  0.39854888126E+03  0.00000000000E+00 0. -1.
          2    1    1    2  501    0  0.22467833416E+03 -0.28494724074E+02  0.23330330341E+03  0.32515032605E+03  0.25500000000E-02 0. -1.
<mgrwt>
<rscale>  0 0.22647804E+03</rscale>
<asrwt>0</asrwt>
<pdfrwt beam="1">  1       11 0.10000000E+01 0.24136216E+03</pdfrwt>
<pdfrwt beam="2">  1        2 0.10175539E-01 0.22647804E+03</pdfrwt>
<totfact> 0.76485564E+02</totfact>
</mgrwt>
</event>
<event>
 5    1  0.6729100E-004  0.3699135E+03  0.7818608E-02  0.1054726E+00
         11   -1    0    0    0    0  0.00000000000E+00  0.00000000000E+00  0.10003635198E+04  0.10003635198E+04  0.51100000000E-03 0. -1.
          2   -1    0    0  501    0 -0.00000000000E+00 -0.00000000000E+00 -0.62619791251E+03  0.62619791251E+03  0.25500000000E-02 0. -1.
         11    1    1    2    0    0  0.22230115763E+03  0.26407471239E+03  0.88587493781E+03  0.95075110510E+03  0.51100000000E-03 0. -1.
         22    1    1    2    0    0  0.88930380606E+01  0.26731978899E+02  0.14489023612E+02  0.31679908886E+02  0.00000000000E+00 0. -1.
          2    1    1    2  501    0 -0.23119419569E+03 -0.29080669129E+03 -0.52619835417E+03  0.64413041828E+03  0.25500000000E-02 0. -1.
<mgrwt>
<rscale>  0 0.36991346E+03</rscale>
<asrwt>0</asrwt>
<pdfrwt beam="1">  1       11 0.10000000E+01 0.28172412E+02</pdfrwt>
<pdfrwt beam="2">  1        2 0.96373158E-01 0.36991346E+03</pdfrwt>
<totfact> 0.59354007E+01</totfact>
</mgrwt>
</event>
<event>
 5    1  0.6729100E-004  0.3136154E+03  0.7818608E-02  0.1078626E+00
         11   -1    0    0    0    0  0.00000000000E+00  0.00000000000E+00  0.10002304018E+04  0.10002304018E+04  0.51100000000E-03 0.  1.
          2   -1    0    0  501    0 -0.00000000000E+00 -0.00000000000E+00 -0.21803898203E+03  0.21803898204E+03  0.25500000000E-02 0.  1.
         11    1    1    2    0    0  0.12538849569E+03  0.30267324190E+03  0.46229945933E+03  0.56661641020E+03  0.51100000000E-03 0.  1.
         22    1    1    2    0    0 -0.20678340836E+03  0.14430865878E+02  0.23516979884E+03  0.31348438900E+03  0.00000000000E+00 0. -1.
          2    1    1    2  501    0  0.81394912663E+02 -0.31710410778E+03  0.84722161632E+02  0.33816858467E+03  0.25500000000E-02 0.  1.
<mgrwt>
<rscale>  0 0.31361538E+03</rscale>
<asrwt>0</asrwt>
<pdfrwt beam="1">  1       11 0.10000000E+01 0.20728634E+03</pdfrwt>
<pdfrwt beam="2">  1        2 0.33552187E-01 0.31361538E+03</pdfrwt>
<totfact> 0.19224158E+02</totfact>
</mgrwt>
</event>
<event>
 5    1  0.6729100E-004  0.2882060E+03  0.7818608E-02  0.1091290E+00
         11   -1    0    0    0    0  0.00000000000E+00  0.00000000000E+00  0.10007378312E+04  0.10007378312E+04  0.51100000000E-03 0. -1.
          2   -1    0    0  501    0 -0.00000000000E+00 -0.00000000000E+00 -0.20681915179E+04  0.20681915179E+04  0.25500000000E-02 0. -1.
         11    1    1    2    0    0  0.30443324504E+03 -0.14222287137E+03  0.15694604374E+03  0.37086251695E+03  0.51100000000E-03 0. -1.
         22    1    1    2    0    0 -0.10912448144E+03 -0.68399522937E+02  0.72057616140E+03  0.73199498056E+03  0.00000000000E+00 0. -1.
          2    1    1    2  501    0 -0.19530876360E+03  0.21062239431E+03 -0.19449758918E+04  0.19660718516E+04  0.25500000000E-02 0. -1.
<mgrwt>
<rscale>  0 0.28820597E+03</rscale>
<asrwt>0</asrwt>
<pdfrwt beam="1">  1       11 0.10000000E+01 0.12878916E+03</pdfrwt>
<pdfrwt beam="2">  1        2 0.31841807E+00 0.28820597E+03</pdfrwt>
<totfact> 0.85058839E+00</totfact>
</mgrwt>
</event>
<event>
 5    1  0.6729100E-004  0.1511223E+03  0.7818608E-02  0.1313352E+00
         11   -1    0    0    0    0  0.00000000000E+00  0.00000000000E+00  0.10000022164E+04  0.10000022164E+04  0.51100000000E-03 0.  1.
          2   -1    0    0  501    0 -0.00000000000E+00 -0.00000000000E+00 -0.62826994375E+03  0.62826994376E+03  0.25500000000E-02 0.  1.
         11    1    1    2    0    0  0.27850075037E+02 -0.19313039353E+03  0.73379713001E+03  0.75929783589E+03  0.51100000000E-03 0.  1.
         22    1    1    2    0    0 -0.94077564322E+01  0.10933528820E+03  0.23838188523E+03  0.26242834133E+03  0.00000000000E+00 0. -1.
          2    1    1    2  501    0 -0.18442318605E+02  0.83795105328E+02 -0.60044674256E+03  0.60654598296E+03  0.25500000000E-02 0.  1.
<mgrwt>
<rscale>  0 0.85800576E+02</rscale>
<asrwt>0</asrwt>
<pdfrwt beam="1">  1       11 0.10000000E+01 0.15112233E+03</pdfrwt>
<pdfrwt beam="2">  1        2 0.96657126E-01 0.85800576E+02</pdfrwt>
<totfact> 0.61345618E+01</totfact>
</mgrwt>
</event>
<event>
 5    1  0.6729100E-004  0.1825747E+03  0.7818608E-02  0.1165334E+00
         11   -1    0    0    0    0  0.00000000000E+00  0.00000000000E+00  0.10005643289E+04  0.10005643289E+04  0.51100000000E-03 0.  1.
          2   -1    0    0  501    0 -0.00000000000E+00 -0.00000000000E+00 -0.55188006801E+02  0.55188006860E+02  0.25500000000E-02 0.  1.
         11    1    1    2    0    0 -0.60218448379E+02  0.16752340906E+03  0.72594359351E+03  0.74745197509E+03  0.51100000000E-03 0.  1.
         22    1    1    2    0    0  0.94220587635E+01  0.91659891449E+01  0.70453735846E+02  0.71669515437E+02  0.00000000000E+00 0. -1.
          2    1    1    2  501    0  0.50796389615E+02 -0.17668939821E+03  0.14897899278E+03  0.23663084527E+03  0.25500000000E-02 0.  1.
<mgrwt>
<rscale>  0 0.18257473E+03</rscale>
<asrwt>0</asrwt>
<pdfrwt beam="1">  1       11 0.10000000E+01 0.13144982E+02</pdfrwt>
<pdfrwt beam="2">  1        2 0.84952538E-02 0.18257473E+03</pdfrwt>
<totfact> 0.94749376E+02</totfact>
</mgrwt>
</event>
<event>
 5    1  0.6729100E-004  0.8310968E+03  0.7818608E-02  0.1165150E+00
         11   -1    0    0    0    0  0.00000000000E+00  0.00000000000E+00  0.99973534309E+03  0.99973534309E+03  0.51100000000E-03 0.  1.
          2   -1    0    0  501    0 -0.00000000000E+00 -0.00000000000E+00 -0.10575182115E+04  0.10575182115E+04  0.25500000000E-02 0.  1.
         11    1    1    2    0    0  0.20593115308E+03  0.82679560342E+03 -0.58805704203E+03  0.10352824225E+04  0.51100000000E-03 0.  1.
         22    1    1    2    0    0 -0.35298313563E+02 -0.19223316136E+02 -0.12881400518E+01  0.40214004134E+02  0.00000000000E+00 0.  1.
          2    1    1    2  501    0 -0.17063283952E+03 -0.80757228729E+03  0.53156231363E+03  0.98175712800E+03  0.25500000000E-02 0.  1.
<mgrwt>
<rscale>  0 0.18276915E+03</rscale>
<asrwt>0</asrwt>
<pdfrwt beam="1">  1       11 0.10000000E+01 0.83109679E+03</pdfrwt>
<pdfrwt beam="2">  1        2 0.16265205E+00 0.18276915E+03</pdfrwt>
<totfact> 0.30942325E+01</totfact>
</mgrwt>
</event>
<event>
 5    1  0.6729100E-004  0.4028093E+03  0.7818608E-02  0.1284929E+00
         11   -1    0    0    0    0  0.00000000000E+00  0.00000000000E+00  0.10002227778E+04  0.10002227778E+04  0.51100000000E-03 0.  1.
          2   -1    0    0  501    0 -0.00000000000E+00 -0.00000000000E+00 -0.81792411025E+03  0.81792411025E+03  0.25500000000E-02 0.  1.
         11    1    1    2    0    0 -0.31730771909E+03  0.12848373480E+03  0.70698468486E+02  0.34955762350E+03  0.51100000000E-03 0.  1.
         22    1    1    2    0    0  0.37570789380E+03 -0.20696849508E+03  0.72773141298E+03  0.84473983502E+03  0.00000000000E+00 0.  1.
          2    1    1    2  501    0 -0.58400174715E+02  0.78484760276E+02 -0.61613121390E+03  0.62384942955E+03  0.25500000000E-02 0.  1.
<mgrwt>
<rscale>  0 0.97828615E+02</rscale>
<asrwt>0</asrwt>
<pdfrwt beam="1">  1       11 0.10000000E+01 0.40280925E+03</pdfrwt>
<pdfrwt beam="2">  1        2 0.12586251E+00 0.97828615E+02</pdfrwt>
<totfact> 0.44761610E+01</totfact>
</mgrwt>
</event>
<event>
 5    1  0.6729100E-004  0.3690407E+03  0.7818608E-02  0.1055060E+00
         11   -1    0    0    0    0  0.00000000000E+00  0.00000000000E+00  0.10004499848E+04  0.10004499848E+04  0.51100000000E-03 0.  1.
          2   -1    0    0  501    0 -0.00000000000E+00 -0.00000000000E+00 -0.76960700823E+03  0.76960700823E+03  0.25500000000E-02 0.  1.
         11    1    1    2    0    0  0.39557015808E+02  0.37769685195E+03  0.82468296779E+03  0.90792161933E+03  0.51100000000E-03 0.  1.
         22    1    1    2    0    0 -0.14705146402E+02 -0.10059800681E+02  0.86555456238E+02  0.88370175540E+02  0.00000000000E+00 0.  1.
          2    1    1    2  501    0 -0.24851869406E+02 -0.36763705127E+03 -0.68039544749E+03  0.77376519814E+03  0.25500000000E-02 0.  1.
<mgrwt>
<rscale>  0 0.36904071E+03</rscale>
<asrwt>0</asrwt>
<pdfrwt beam="1">  1       11 0.10000000E+01 0.17816872E+02</pdfrwt>
<pdfrwt beam="2">  1        2 0.11845435E+00 0.36904071E+03</pdfrwt>
<totfact> 0.46040208E+01</totfact>
</mgrwt>
</event>
<event>
 5    1  0.6729100E-004  0.1968504E+03  0.7818608E-02  0.1152424E+00
         11   -1    0    0    0    0  0.00000000000E+00  0.00000000000E+00  0.10000121628E+04  0.10000121628E+04  0.51100000000E-03 0.  1.
          2   -1    0    0  501    0 -0.00000000000E+00 -0.00000000000E+00 -0.48955353619E+03  0.48955353620E+03  0.25500000000E-02 0.  1.
         11    1    1    2    0    0 -0.32181242903E+03  0.11756905816E+03  0.36175589414E+03  0.49824998731E+03  0.51100000000E-03 0.  1.
         22    1    1    2    0    0  0.14220305176E+03 -0.57310996777E+02  0.53743535391E+03  0.55887656769E+03  0.00000000000E+00 0.  1.
          2    1    1    2  501    0  0.17960937728E+03 -0.60258061380E+02 -0.38873262139E+03  0.43243914405E+03  0.25500000000E-02 0.  1.
<mgrwt>
<rscale>  0 0.19685040E+03</rscale>
<asrwt>0</asrwt>
<pdfrwt beam="1">  1       11 0.10000000E+01 0.15331751E+03</pdfrwt>
<pdfrwt beam="2">  1        2 0.75316843E-01 0.19685040E+03</pdfrwt>
<totfact> 0.79777690E+01</totfact>
</mgrwt>
</event>
<event>
 5    1  0.6729100E-004  0.2648890E+03  0.7818608E-02  0.1104241E+00
         11   -1    0    0    0    0  0.00000000000E+00  0.00000000000E+00  0.10002288425E+04  0.10002288425E+04  0.51100000000E-03 0. -1.
          2   -1    0    0  501    0 -0.00000000000E+00 -0.00000000000E+00 -0.10069512859E+03  0.10069512862E+03  0.25500000000E-02 0. -1.
         11    1    1    2    0    0 -0.22232995317E+03 -0.14625452994E+03  0.15695171054E+03  0.30895765898E+03  0.51100000000E-03 0. -1.
         22    1    1    2    0    0  0.10789598705E+02 -0.68765880458E+01  0.21104324935E+02  0.24679858880E+02  0.00000000000E+00 0.  1.
          2    1    1    2  501    0  0.21154035446E+03  0.15313111798E+03  0.72147767839E+03  0.76728645321E+03  0.25500000000E-02 0. -1.
<mgrwt>
<rscale>  0 0.26488899E+03</rscale>
<asrwt>0</asrwt>
<pdfrwt beam="1">  1       11 0.10000000E+01 0.12794644E+02</pdfrwt>
<pdfrwt beam="2">  1        2 0.15495103E-01 0.26488899E+03</pdfrwt>
<totfact> 0.46184002E+02</totfact>
</mgrwt>
</event>
<event>
 5    1  0.6729100E-004  0.6261109E+03  0.7818608E-02  0.9882588E-01
         11   -1    0    0    0    0  0.00000000000E+00  0.00000000000E+00  0.99965620297E+03  0.99965620297E+03  0.51100000000E-03 0. -1.
          2   -1    0    0  501    0 -0.00000000000E+00 -0.00000000000E+00 -0.16885144217E+04  0.16885144217E+04  0.25500000000E-02 0. -1.
         11    1    1    2    0    0 -0.55807177914E+03 -0.14136479240E+03  0.73951861823E+03  0.93718509480E+03  0.51100000000E-03 0. -1.
         22    1    1    2    0    0 -0.41286051810E+02  0.22011664904E+02  0.97026078212E+02  0.10771773911E+03  0.00000000000E+00 0. -1.
          2    1    1    2  501    0  0.59935783095E+03  0.11935312749E+03 -0.15254029152E+04  0.16432677908E+04  0.25500000000E-02 0. -1.
<mgrwt>
<rscale>  0 0.61112599E+03</rscale>
<asrwt>0</asrwt>
<pdfrwt beam="1">  1       11 0.10000000E+01 0.62611094E+03</pdfrwt>
<pdfrwt beam="2">  1        2 0.25968213E+00 0.61112599E+03</pdfrwt>
<totfact> 0.12732937E+01</totfact>
</mgrwt>
</event>
<event>
 5    1  0.6729100E-004  0.1758297E+03  0.7818608E-02  0.1171901E+00
         11   -1    0    0    0    0  0.00000000000E+00  0.00000000000E+00  0.10002286076E+04  0.10002286076E+04  0.51100000000E-03 0.  1.
          2   -1    0    0  501    0 -0.00000000000E+00 -0.00000000000E+00 -0.30095442446E+02  0.30095442554E+02  0.25500000000E-02 0.  1.
         11    1    1    2    0    0  0.96547814098E+02  0.14113465904E+03  0.49454513130E+03  0.52327369443E+03  0.51100000000E-03 0.  1.
         22    1    1    2    0    0 -0.49468094678E+02 -0.10219090556E+03  0.28004869258E+03  0.30218759701E+03  0.00000000000E+00 0.  1.
          2    1    1    2  501    0 -0.47079719420E+02 -0.38943753476E+02  0.19553934125E+03  0.20486275869E+03  0.25500000000E-02 0.  1.
<mgrwt>
<rscale>  0 0.17582971E+03</rscale>
<asrwt>0</asrwt>
<pdfrwt beam="1">  1       11 0.10000000E+01 0.17099846E+03</pdfrwt>
<pdfrwt beam="2">  1        2 0.46311264E-02 0.17582971E+03</pdfrwt>
<totfact> 0.20696383E+03</totfact>
</mgrwt>
</event>
<event>
 5    1  0.6729100E-004  0.1735090E+03  0.7818608E-02  0.1174237E+00
         11   -1    0    0    0    0  0.00000000000E+00  0.00000000000E+00  0.10003651653E+04  0.10003651653E+04  0.51100000000E-03 0. -1.
          2   -1    0    0  501    0 -0.00000000000E+00 -0.00000000000E+00 -0.51098460019E+02  0.51098460083E+02  0.25500000000E-02 0. -1.
         11    1    1    2    0    0  0.12748682270E+03  0.11292280650E+03  0.77249200594E+03  0.79104257118E+03  0.51100000000E-03 0. -1.
         22    1    1    2    0    0  0.90007936599E+01 -0.44961252879E+01  0.32889879211E+02  0.34394383024E+02  0.00000000000E+00 0. -1.
          2    1    1    2  501    0 -0.13648761636E+03 -0.10842668121E+03  0.14388482017E+03  0.22602667121E+03  0.25500000000E-02 0. -1.
<mgrwt>
<rscale>  0 0.17350902E+03</rscale>
<asrwt>0</asrwt>
<pdfrwt beam="1">  1       11 0.10000000E+01 0.10061284E+02</pdfrwt>
<pdfrwt beam="2">  1        2 0.78641720E-02 0.17350902E+03</pdfrwt>
<totfact> 0.10412843E+03</totfact>
</mgrwt>
</event>
<event>
 5    1  0.6729100E-004  0.1927776E+03  0.7818608E-02  0.1164075E+00
         11   -1    0    0    0    0  0.00000000000E+00  0.00000000000E+00  0.99995530374E+03  0.99995530374E+03  0.51100000000E-03 0.  1.
         -2   -1    0    0    0  501 -0.00000000000E+00 -0.00000000000E+00 -0.35561065447E+02  0.35561065538E+02  0.25500000000E-02 0. -1.
         11    1    1    2    0    0 -0.59795079341E+02 -0.13524169516E+03  0.30325923872E+03  0.33738988350E+03  0.51100000000E-03 0.  1.
         22    1    1    2    0    0 -0.21167309410E+02 -0.29884189949E+02  0.16469094700E+03  0.16871344884E+03  0.00000000000E+00 0. -1.
         -2    1    1    2    0  501  0.80962388751E+02  0.16512588511E+03  0.49644405257E+03  0.52941303693E+03  0.25500000000E-02 0. -1.
<mgrwt>
<rscale>  0 0.18390613E+03</rscale>
<asrwt>0</asrwt>
<pdfrwt beam="1">  1       11 0.10000000E+01 0.19277761E+03</pdfrwt>
<pdfrwt beam="2">  1       -2 0.54706885E-02 0.18390613E+03</pdfrwt>
<totfact> 0.13221992E+03</totfact>
</mgrwt>
</event>
<event>
 5    1  0.6729100E-004  0.1382577E+03  0.7818608E-02  0.1294566E+00
         11   -1    0    0    0    0  0.00000000000E+00  0.00000000000E+00  0.10003853610E+04  0.10003853610E+04  0.51100000000E-03 0. -1.
          2   -1    0    0  501    0 -0.00000000000E+00 -0.00000000000E+00 -0.12184629853E+03  0.12184629856E+03  0.25500000000E-02 0. -1.
         11    1    1    2    0    0  0.14794205640E+03 -0.66170476974E+02  0.55779557603E+03  0.58086253857E+03  0.51100000000E-03 0. -1.
         22    1    1    2    0    0 -0.12738909183E+03 -0.25053499612E+02  0.39890099496E+03  0.41949691577E+03  0.00000000000E+00 0. -1.
          2    1    1    2  501    0 -0.20552964566E+02  0.91223976586E+02 -0.78157508526E+02  0.12187220521E+03  0.25500000000E-02 0. -1.
<mgrwt>
<rscale>  0 0.93510632E+02</rscale>
<asrwt>0</asrwt>
<pdfrwt beam="1">  1       11 0.10000000E+01 0.13825772E+03</pdfrwt>
<pdfrwt beam="2">  1        2 0.18752808E-01 0.93510632E+02</pdfrwt>
<totfact> 0.35648875E+02</totfact>
</mgrwt>
</event>
<event>
 5    1  0.6729100E-004  0.1358832E+03  0.7818608E-02  0.1218978E+00
         11   -1    0    0    0    0  0.00000000000E+00  0.00000000000E+00  0.10001058768E+04  0.10001058768E+04  0.51100000000E-03 0. -1.
          2   -1    0    0  501    0 -0.00000000000E+00 -0.00000000000E+00 -0.21521721054E+02  0.21521721205E+02  0.25500000000E-02 0. -1.
         11    1    1    2    0    0 -0.13439376429E+03 -0.24478261194E+02  0.58125894606E+03  0.59709532868E+03  0.51100000000E-03 0. -1.
         22    1    1    2    0    0  0.33378108511E+01 -0.10392982728E+02  0.59673722947E+02  0.60663896031E+02  0.00000000000E+00 0.  1.
          2    1    1    2  501    0  0.13105595343E+03  0.34871243922E+02  0.33765148672E+03  0.36386837328E+03  0.25500000000E-02 0. -1.
<mgrwt>
<rscale>  0 0.13588324E+03</rscale>
<asrwt>0</asrwt>
<pdfrwt beam="1">  1       11 0.10000000E+01 0.10915817E+02</pdfrwt>
<pdfrwt beam="2">  1        2 0.33113845E-02 0.13588324E+03</pdfrwt>
<totfact> 0.31607460E+03</totfact>
</mgrwt>
</event>
<event>
 5    1  0.6729100E-004  0.3706446E+03  0.7818608E-02  0.1055630E+00
         11   -1    0    0    0    0  0.00000000000E+00  0.00000000000E+00  0.99986305681E+03  0.99986305681E+03  0.51100000000E-03 0. -1.
          2   -1    0    0  501    0 -0.00000000000E+00 -0.00000000000E+00 -0.64297345356E+03  0.64297345356E+03  0.25500000000E-02 0. -1.
         11    1    1    2    0    0  0.35655458718E+03  0.45383678420E+01  0.85138021057E+03  0.92303847881E+03  0.51100000000E-03 0. -1.
         22    1    1    2    0    0  0.10995044288E+02 -0.18523943735E+01  0.56428910549E+02  0.57519947058E+02  0.00000000000E+00 0.  1.
          2    1    1    2  501    0 -0.36754963147E+03 -0.26859734685E+01 -0.55091951786E+03  0.66227808450E+03  0.25500000000E-02 0. -1.
<mgrwt>
<rscale>  0 0.36755945E+03</rscale>
<asrwt>0</asrwt>
<pdfrwt beam="1">  1       11 0.10000000E+01 0.37064461E+03</pdfrwt>
<pdfrwt beam="2">  1        2 0.98905444E-01 0.36755945E+03</pdfrwt>
<totfact> 0.57547680E+01</totfact>
</mgrwt>
</event>
<event>
 5    1  0.6729100E-004  0.4166891E+03  0.7818608E-02  0.1038149E+00
         11   -1    0    0    0    0  0.00000000000E+00  0.00000000000E+00  0.10003556272E+04  0.10003556272E+04  0.51100000000E-03 0. -1.
          2   -1    0    0  501    0 -0.00000000000E+00 -0.00000000000E+00 -0.19201902973E+03  0.19201902974E+03  0.25500000000E-02 0. -1.
         11    1    1    2    0    0  0.39845951753E+03  0.10613843401E+03  0.46755403982E+03  0.62341168936E+03  0.51100000000E-03 0. -1.
         22    1    1    2    0    0  0.10262014618E+02 -0.10087783792E+02  0.65139289849E+02  0.66709814930E+02  0.00000000000E+00 0. -1.
          2    1    1    2  501    0 -0.40872153214E+03 -0.96050650217E+02  0.27564326778E+03  0.50225315263E+03  0.25500000000E-02 0. -1.
<mgrwt>
<rscale>  0 0.41668914E+03</rscale>
<asrwt>0</asrwt>
<pdfrwt beam="1">  1       11 0.10000000E+01 0.14390008E+02</pdfrwt>
<pdfrwt beam="2">  1        2 0.29551894E-01 0.41668914E+03</pdfrwt>
<totfact> 0.22202261E+02</totfact>
</mgrwt>
</event>
<event>
 5    1  0.6729100E-004  0.2316503E+03  0.7818608E-02  0.1133407E+00
         11   -1    0    0    0    0  0.00000000000E+00  0.00000000000E+00  0.99977226225E+03  0.99977226225E+03  0.51100000000E-03 0. -1.
          2   -1    0    0  501    0 -0.00000000000E+00 -0.00000000000E+00 -0.37375682392E+03  0.37375682393E+03  0.25500000000E-02 0.  1.
         11    1    1    2    0    0 -0.20108354220E+03  0.23759584551E+02  0.79938064338E+03  0.82462629221E+03  0.51100000000E-03 0. -1.
         22    1    1    2    0    0 -0.19523008253E+02 -0.19953501088E+02  0.15268418539E+03  0.15521517492E+03  0.00000000000E+00 0. -1.
          2    1    1    2  501    0  0.22060655045E+03 -0.38060834631E+01 -0.32604939044E+03  0.39368761905E+03  0.25500000000E-02 0.  1.
<mgrwt>
<rscale>  0 0.22063938E+03</rscale>
<asrwt>0</asrwt>
<pdfrwt beam="1">  1       11 0.10000000E+01 0.23165030E+03</pdfrwt>
<pdfrwt beam="2">  1        2 0.57487953E-01 0.22063938E+03</pdfrwt>
<totfact> 0.10705651E+02</totfact>
</mgrwt>
</event>
<event>
 5    1  0.6729100E-004  0.3968104E+02  0.7818608E-02  0.1674589E+00
         11   -1    0    0    0    0  0.00000000000E+00  0.00000000000E+00  0.10003714751E+04  0.10003714751E+04  0.51100000000E-03 0.  1.
          2   -1    0    0  501    0 -0.00000000000E+00 -0.00000000000E+00 -0.89642236039E+01  0.89642239666E+01  0.25500000000E-02 0.  1.
         11    1    1    2    0    0  0.17232856120E+02 -0.50140341616E+02  0.89048646466E+02  0.10363728395E+03  0.51100000000E-03 0.  1.
         22    1    1    2    0    0 -0.16281251967E+01  0.14520918836E+02  0.42143001584E+02  0.44604265020E+02  0.00000000000E+00 0.  1.
          2    1    1    2  501    0 -0.15604730923E+02  0.35619422781E+02  0.86021560348E+03  0.86109415012E+03  0.25500000000E-02 0.  1.
<mgrwt>
<rscale>  0 0.24079358E+02</rscale>
<asrwt>0</asrwt>
<pdfrwt beam="1">  1       11 0.10000000E+01 0.39681043E+02</pdfrwt>
<pdfrwt beam="2">  1        2 0.13796236E-02 0.24079358E+02</pdfrwt>
<totfact> 0.78262386E+03</totfact>
</mgrwt>
</event>
<event>
 5    1  0.6729100E-004  0.1437234E+03  0.7818608E-02  0.1506800E+00
         11   -1    0    0    0    0  0.00000000000E+00  0.00000000000E+00  0.10002119493E+04  0.10002119493E+04  0.51100000000E-03 0.  1.
          2   -1    0    0  501    0 -0.00000000000E+00 -0.00000000000E+00 -0.36097110293E+02  0.36097110383E+02  0.25500000000E-02 0.  1.
         11    1    1    2    0    0  0.33574229408E+02  0.14328100370E+03  0.49926770985E+03  0.52050448701E+03  0.51100000000E-03 0.  1.
         22    1    1    2    0    0  0.66154272024E+01 -0.14281243795E+03  0.45127954583E+03  0.47338397184E+03  0.00000000000E+00 0.  1.
          2    1    1    2  501    0 -0.40189656611E+02 -0.46856575264E+00  0.13567583352E+02  0.42420600855E+02  0.25500000000E-02 0.  1.
<mgrwt>
<rscale>  0 0.40192388E+02</rscale>
<asrwt>0</asrwt>
<pdfrwt beam="1">  1       11 0.10000000E+01 0.14372344E+03</pdfrwt>
<pdfrwt beam="2">  1        2 0.55545785E-02 0.40192388E+02</pdfrwt>
<totfact> 0.14287616E+03</totfact>
</mgrwt>
</event>
<event>
 5    1  0.6729100E-004  0.2430847E+03  0.7818608E-02  0.1119159E+00
         11   -1    0    0    0    0  0.00000000000E+00  0.00000000000E+00  0.99990265786E+03  0.99990265786E+03  0.51100000000E-03 0. -1.
          2   -1    0    0  501    0 -0.00000000000E+00 -0.00000000000E+00 -0.79538615721E+03  0.79538615721E+03  0.25500000000E-02 0. -1.
         11    1    1    2    0    0  0.21273948548E+03 -0.45812782729E+01  0.88432375151E+03  0.90956449704E+03  0.51100000000E-03 0. -1.
         22    1    1    2    0    0  0.28213307412E+02  0.50197610205E+01  0.81924336877E+02  0.86791622226E+02  0.00000000000E+00 0. -1.
          2    1    1    2  501    0 -0.24095279289E+03 -0.43848274756E+00 -0.76173158774E+03  0.79893269581E+03  0.25500000000E-02 0. -1.
<mgrwt>
<rscale>  0 0.24095319E+03</rscale>
<asrwt>0</asrwt>
<pdfrwt beam="1">  1       11 0.10000000E+01 0.24308465E+03</pdfrwt>
<pdfrwt beam="2">  1        2 0.12235519E+00 0.24095319E+03</pdfrwt>
<totfact> 0.44844744E+01</totfact>
</mgrwt>
</event>
<event>
 5    1  0.6729100E-004  0.1604600E+03  0.7818608E-02  0.1306845E+00
         11   -1    0    0    0    0  0.00000000000E+00  0.00000000000E+00  0.10000512845E+04  0.10000512845E+04  0.51100000000E-03 0. -1.
          2   -1    0    0  501    0 -0.00000000000E+00 -0.00000000000E+00 -0.21329218802E+04  0.21329218802E+04  0.25500000000E-02 0. -1.
         11    1    1    2    0    0  0.15976352089E+03  0.46925158541E+01  0.72899460663E+03  0.74631061818E+03  0.51100000000E-03 0. -1.
         22    1    1    2    0    0 -0.15474906880E+03 -0.92921058647E+02  0.23031310451E+03  0.29261873410E+03  0.00000000000E+00 0.  1.
          2    1    1    2  501    0 -0.50144520875E+01  0.88228542793E+02 -0.20921783068E+04  0.20940438124E+04  0.25500000000E-02 0. -1.
<mgrwt>
<rscale>  0 0.88370926E+02</rscale>
<asrwt>0</asrwt>
<pdfrwt beam="1">  1       11 0.10000000E+01 0.16046000E+03</pdfrwt>
<pdfrwt beam="2">  1        2 0.32815865E+00 0.88370926E+02</pdfrwt>
<totfact> 0.89656894E+00</totfact>
</mgrwt>
</event>
<event>
 5    1  0.6729100E-004  0.1990509E+03  0.7818608E-02  0.1150542E+00
         11   -1    0    0    0    0  0.00000000000E+00  0.00000000000E+00  0.10005297962E+04  0.10005297962E+04  0.51100000000E-03 0. -1.
         -2   -1    0    0    0  501 -0.00000000000E+00 -0.00000000000E+00 -0.73839389929E+02  0.73839389973E+02  0.25500000000E-02 0. -1.
         11    1    1    2    0    0 -0.20635351355E+03 -0.86300503917E+01  0.77810802994E+03  0.80505177261E+03  0.51100000000E-03 0. -1.
         22    1    1    2    0    0  0.93739296498E+01 -0.60315271855E+01  0.44843893760E+02  0.46208491479E+02  0.00000000000E+00 0. -1.
         -2    1    1    2    0  501  0.19697958390E+03  0.14661577577E+02  0.10373848253E+03  0.22310892204E+03  0.25500000000E-02 0. -1.
<mgrwt>
<rscale>  0 0.19905085E+03</rscale>
<asrwt>0</asrwt>
<pdfrwt beam="1">  1       11 0.10000000E+01 0.11146743E+02</pdfrwt>
<pdfrwt beam="2">  1       -2 0.11365924E-01 0.19905085E+03</pdfrwt>
<totfact> 0.42548273E+02</totfact>
</mgrwt>
</event>
<event>
 5    1  0.6729100E-004  0.2042309E+03  0.7818608E-02  0.1155190E+00
         11   -1    0    0    0    0  0.00000000000E+00  0.00000000000E+00  0.10002807148E+04  0.10002807148E+04  0.51100000000E-03 0.  1.
          2   -1    0    0  501    0 -0.00000000000E+00 -0.00000000000E+00 -0.61001122835E+02  0.61001122888E+02  0.25500000000E-02 0.  1.
         11    1    1    2    0    0 -0.56149145588E+01 -0.10872458131E+03  0.34736780283E+03  0.36402877948E+03  0.51100000000E-03 0.  1.
         22    1    1    2    0    0  0.40087373328E+02 -0.81854905961E+02  0.44480428860E+03  0.45404633936E+03  0.00000000000E+00 0.  1.
          2    1    1    2  501    0 -0.34472458769E+02  0.19057948727E+03  0.14710750058E+03  0.24320671890E+03  0.25500000000E-02 0.  1.
<mgrwt>
<rscale>  0 0.19367212E+03</rscale>
<asrwt>0</asrwt>
<pdfrwt beam="1">  1       11 0.10000000E+01 0.20423094E+03</pdfrwt>
<pdfrwt beam="2">  1        2 0.93874223E-02 0.19367212E+03</pdfrwt>
<totfact> 0.83884853E+02</totfact>
</mgrwt>
</event>
<event>
 5    1  0.6729100E-004  0.9214171E+02  0.7818608E-02  0.1297747E+00
         11   -1    0    0    0    0  0.00000000000E+00  0.00000000000E+00  0.99997017569E+03  0.99997017569E+03  0.51100000000E-03 0. -1.
          2   -1    0    0  501    0 -0.00000000000E+00 -0.00000000000E+00 -0.40247446771E+02  0.40247446852E+02  0.25500000000E-02 0.  1.
         11    1    1    2    0    0 -0.72755320172E+02  0.72526378657E+02  0.49106316158E+03  0.50169357268E+03  0.51100000000E-03 0. -1.
         22    1    1    2    0    0  0.10158459748E+03  0.14989149445E+02  0.42376238856E+03  0.43602599349E+03  0.00000000000E+00 0.  1.
          2    1    1    2  501    0 -0.28829277305E+02 -0.87515528102E+02  0.44897178781E+02  0.10249805636E+03  0.25500000000E-02 0.  1.
<mgrwt>
<rscale>  0 0.92141711E+02</rscale>
<asrwt>0</asrwt>
<pdfrwt beam="1">  1       11 0.10000000E+01 0.91855195E+02</pdfrwt>
<pdfrwt beam="2">  1        2 0.61917300E-02 0.92141711E+02</pdfrwt>
<totfact> 0.13480933E+03</totfact>
</mgrwt>
</event>
<event>
 5    1  0.6729100E-004  0.1740489E+03  0.7818608E-02  0.1174956E+00
         11   -1    0    0    0    0  0.00000000000E+00  0.00000000000E+00  0.99989570372E+03  0.99989570372E+03  0.51100000000E-03 0. -1.
         -2   -1    0    0    0  501 -0.00000000000E+00 -0.00000000000E+00 -0.73104302831E+02  0.73104302876E+02  0.25500000000E-02 0. -1.
         11    1    1    2    0    0  0.75299137482E+02 -0.14213602814E+03  0.83727692033E+03  0.85258738667E+03  0.51100000000E-03 0. -1.
         22    1    1    2    0    0  0.53316109643E+01 -0.10702463010E+02  0.38384718462E+02  0.40203922711E+02  0.00000000000E+00 0.  1.
         -2    1    1    2    0  501 -0.80630748446E+02  0.15283849115E+03  0.51129762104E+02  0.18020869722E+03  0.25500000000E-02 0. -1.
<mgrwt>
<rscale>  0 0.17280313E+03</rscale>
<asrwt>0</asrwt>
<pdfrwt beam="1">  1       11 0.10000000E+01 0.17404889E+03</pdfrwt>
<pdfrwt beam="2">  1       -2 0.11245643E-01 0.17280313E+03</pdfrwt>
<totfact> 0.42965777E+02</totfact>
</mgrwt>
</event>
<event>
 5    1  0.6729100E-004  0.1089527E+03  0.7818608E-02  0.1399601E+00
         11   -1    0    0    0    0  0.00000000000E+00  0.00000000000E+00  0.10001602738E+04  0.10001602738E+04  0.51100000000E-03 0.  1.
         -2   -1    0    0    0  501 -0.00000000000E+00 -0.00000000000E+00 -0.35876117453E+02  0.35876117544E+02  0.25500000000E-02 0. -1.
         11    1    1    2    0    0 -0.14406431888E+03  0.31078889804E+02  0.52591421236E+03  0.54617413352E+03  0.51100000000E-03 0.  1.
         22    1    1    2    0    0  0.90795637986E+02 -0.43902738348E+01  0.41664271130E+03  0.42644374924E+03  0.00000000000E+00 0. -1.
         -2    1    1    2    0  501  0.53268680893E+02 -0.26688615970E+02  0.21727232707E+02  0.63418508608E+02  0.25500000000E-02 0. -1.
<mgrwt>
<rscale>  0 0.59580488E+02</rscale>
<asrwt>0</asrwt>
<pdfrwt beam="1">  1       11 0.10000000E+01 0.10895271E+03</pdfrwt>
<pdfrwt beam="2">  1       -2 0.55202872E-02 0.59580488E+02</pdfrwt>
<totfact> 0.11785140E+03</totfact>
</mgrwt>
</event>
<event>
 5    1  0.6729100E-004  0.4143677E+03  0.7818608E-02  0.1038915E+00
         11   -1    0    0    0    0  0.00000000000E+00  0.00000000000E+00  0.99993597696E+03  0.99993597696E+03  0.51100000000E-03 0. -1.
          2   -1    0    0  501    0 -0.00000000000E+00 -0.00000000000E+00 -0.92282009185E+03  0.92282009185E+03  0.25500000000E-02 0. -1.
         11    1    1    2    0    0  0.33641920894E+03  0.16776706176E+03  0.63526002970E+03  0.73815918100E+03  0.51100000000E-03 0. -1.
         22    1    1    2    0    0  0.48919232566E+02 -0.77768300062E+01  0.26081636734E+03  0.26547833786E+03  0.00000000000E+00 0.  1.
          2    1    1    2  501    0 -0.38533844151E+03 -0.15999023175E+03 -0.81896051193E+03  0.91911854995E+03  0.25500000000E-02 0. -1.
<mgrwt>
<rscale>  0 0.41436766E+03</rscale>
<asrwt>0</asrwt>
<pdfrwt beam="1">  1       11 0.10000000E+01 0.49533528E+02</pdfrwt>
<pdfrwt beam="2">  1        2 0.14196323E+00 0.41436766E+03</pdfrwt>
<totfact> 0.36056105E+01</totfact>
</mgrwt>
</event>
<event>
 5    1  0.6729100E-004  0.9933584E+02  0.7818608E-02  0.1377990E+00
         11   -1    0    0    0    0  0.00000000000E+00  0.00000000000E+00  0.10007077892E+04  0.10007077892E+04  0.51100000000E-03 0. -1.
          2   -1    0    0  501    0 -0.00000000000E+00 -0.00000000000E+00 -0.17208433011E+04  0.17208433011E+04  0.25500000000E-02 0.  1.
         11    1    1    2    0    0  0.72600716096E+02  0.10546909058E+03  0.74499354737E+03  0.75591664796E+03  0.51100000000E-03 0. -1.
         22    1    1    2    0    0 -0.61079188819E+02 -0.41503328334E+02  0.24417390031E+03  0.25509623118E+03  0.00000000000E+00 0. -1.
          2    1    1    2  501    0 -0.11521527277E+02 -0.63965762242E+02 -0.17093029595E+04  0.17105382112E+04  0.25500000000E-02 0.  1.
<mgrwt>
<rscale>  0 0.64995110E+02</rscale>
<asrwt>0</asrwt>
<pdfrwt beam="1">  1       11 0.10000000E+01 0.99335842E+02</pdfrwt>
<pdfrwt beam="2">  1        2 0.26493250E+00 0.64995110E+02</pdfrwt>
<totfact> 0.14848380E+01</totfact>
</mgrwt>
</event>
<event>
 5    1  0.6729100E-004  0.2725395E+02  0.7818608E-02  0.1734487E+00
         11   -1    0    0    0    0  0.00000000000E+00  0.00000000000E+00  0.10000972981E+04  0.10000972981E+04  0.51100000000E-03 0. -1.
          2   -1    0    0  501    0 -0.00000000000E+00 -0.00000000000E+00 -0.26782249329E+01  0.26782261469E+01  0.25500000000E-02 0. -1.
         11    1    1    2    0    0  0.12399826117E+02 -0.29207943328E+02  0.14365913802E+03  0.14712174407E+03  0.51100000000E-03 0. -1.
         22    1    1    2    0    0  0.90381861562E+01  0.12597720125E+02  0.84166813946E+02  0.85582965192E+02  0.00000000000E+00 0. -1.
          2    1    1    2  501    0 -0.21438012273E+02  0.16610223203E+02  0.76959312123E+03  0.77007081501E+03  0.25500000000E-02 0. -1.
<mgrwt>
<rscale>  0 0.20556270E+02</rscale>
<asrwt>0</asrwt>
<pdfrwt beam="1">  1       11 0.10000000E+01 0.27253946E+02</pdfrwt>
<pdfrwt beam="2">  1        2 0.41207478E-03 0.20556270E+02</pdfrwt>
<totfact> 0.36433424E+04</totfact>
</mgrwt>
</event>
<event>
 5    1  0.6729100E-004  0.1258452E+03  0.7818608E-02  0.1438938E+00
         11   -1    0    0    0    0  0.00000000000E+00  0.00000000000E+00  0.99969482623E+03  0.99969482623E+03  0.51100000000E-03 0. -1.
          2   -1    0    0  501    0 -0.00000000000E+00 -0.00000000000E+00 -0.25283062059E+04  0.25283062059E+04  0.25500000000E-02 0.  1.
         11    1    1    2    0    0  0.11396822464E+03 -0.35138299226E+02  0.28927357860E+03  0.31289400694E+03  0.51100000000E-03 0. -1.
         22    1    1    2    0    0 -0.13209202180E+03 -0.12754030287E+02  0.69204539045E+03  0.70465437624E+03  0.00000000000E+00 0. -1.
          2    1    1    2  501    0  0.18123797158E+02  0.47892329513E+02 -0.25099303487E+04  0.25104526490E+04  0.25500000000E-02 0.  1.
<mgrwt>
<rscale>  0 0.51206906E+02</rscale>
<asrwt>0</asrwt>
<pdfrwt beam="1">  1       11 0.10000000E+01 0.12584525E+03</pdfrwt>
<pdfrwt beam="2">  1        2 0.38885147E+00 0.51206906E+02</pdfrwt>
<totfact> 0.60754219E+00</totfact>
</mgrwt>
</event>
<event>
 5    1  0.6729100E-004  0.3051457E+03  0.7818608E-02  0.1082696E+00
         11   -1    0    0    0    0  0.00000000000E+00  0.00000000000E+00  0.10001685563E+04  0.10001685563E+04  0.51100000000E-03 0. -1.
          2   -1    0    0  501    0 -0.00000000000E+00 -0.00000000000E+00 -0.10774649551E+03  0.10774649555E+03  0.25500000000E-02 0. -1.
         11    1    1    2    0    0 -0.30132108087E+03 -0.73725627110E+02  0.59838462000E+03  0.67401336435E+03  0.51100000000E-03 0. -1.
         22    1    1    2    0    0  0.91948017022E+01 -0.49612396865E+01  0.31993531192E+02  0.33656267109E+02  0.00000000000E+00 0. -1.
          2    1    1    2  501    0  0.29212627916E+03  0.78686866797E+02  0.26204390961E+03  0.40024542041E+03  0.25500000000E-02 0. -1.
<mgrwt>
<rscale>  0 0.30514569E+03</rscale>
<asrwt>0</asrwt>
<pdfrwt beam="1">  1       11 0.10000000E+01 0.10447884E+02</pdfrwt>
<pdfrwt beam="2">  1        2 0.16579178E-01 0.30514569E+03</pdfrwt>
<totfact> 0.42823689E+02</totfact>
</mgrwt>
</event>
<event>
 5    1  0.6729100E-004  0.3469199E+03  0.7818608E-02  0.1063886E+00
         11   -1    0    0    0    0  0.00000000000E+00  0.00000000000E+00  0.10005405702E+04  0.10005405702E+04  0.51100000000E-03 0. -1.
          2   -1    0    0  501    0 -0.00000000000E+00 -0.00000000000E+00 -0.23101912354E+04  0.23101912354E+04  0.25500000000E-02 0. -1.
         11    1    1    2    0    0 -0.31481811971E+02  0.35813255233E+03  0.43768568530E+03  0.56640867635E+03  0.51100000000E-03 0. -1.
         22    1    1    2    0    0  0.16847409159E+03 -0.38552431666E+02  0.46954374539E+03  0.50034102207E+03  0.00000000000E+00 0. -1.
          2    1    1    2  501    0 -0.13699227962E+03 -0.31958012067E+03 -0.22168800958E+04  0.22439821072E+04  0.25500000000E-02 0. -1.
<mgrwt>
<rscale>  0 0.34691992E+03</rscale>
<asrwt>0</asrwt>
<pdfrwt beam="1">  1       11 0.10000000E+01 0.17282884E+03</pdfrwt>
<pdfrwt beam="2">  1        2 0.35560615E+00 0.34691992E+03</pdfrwt>
<totfact> 0.61930718E+00</totfact>
</mgrwt>
</event>
<event>
 5    1  0.6729100E-004  0.1446021E+03  0.7818608E-02  0.1207267E+00
         11   -1    0    0    0    0  0.00000000000E+00  0.00000000000E+00  0.10002687325E+04  0.10002687325E+04  0.51100000000E-03 0. -1.
          2   -1    0    0  501    0 -0.00000000000E+00 -0.00000000000E+00 -0.69362772163E+02  0.69362772209E+02  0.25500000000E-02 0. -1.
         11    1    1    2    0    0 -0.80633405391E+02 -0.86519137016E+02  0.56392788158E+03  0.57619611484E+03  0.51100000000E-03 0. -1.
         22    1    1    2    0    0  0.33782275325E+02 -0.56588167563E+02  0.33248514088E+03  0.33895402599E+03  0.00000000000E+00 0. -1.
          2    1    1    2  501    0  0.46851130066E+02  0.14310730458E+03  0.34492937875E+02  0.15448136387E+03  0.25500000000E-02 0. -1.
<mgrwt>
<rscale>  0 0.14460212E+03</rscale>
<asrwt>0</asrwt>
<pdfrwt beam="1">  1       11 0.10000000E+01 0.65904953E+02</pdfrwt>
<pdfrwt beam="2">  1        2 0.10674063E-01 0.14460212E+03</pdfrwt>
<totfact> 0.70476159E+02</totfact>
</mgrwt>
</event>
<event>
 5    1  0.6729100E-004  0.2089690E+03  0.7818608E-02  0.1142385E+00
         11   -1    0    0    0    0  0.00000000000E+00  0.00000000000E+00  0.10001416783E+04  0.10001416783E+04  0.51100000000E-03 0. -1.
          2   -1    0    0  501    0 -0.00000000000E+00 -0.00000000000E+00 -0.28263842593E+03  0.28263842594E+03  0.25500000000E-02 0. -1.
         11    1    1    2    0    0 -0.51270500110E+02 -0.20364043302E+03  0.37038403148E+03  0.42577273388E+03  0.51100000000E-03 0. -1.
         22    1    1    2    0    0 -0.14089247553E+03  0.10354255693E+03  0.53957967495E+03  0.56720188327E+03  0.00000000000E+00 0. -1.
          2    1    1    2  501    0  0.19216297564E+03  0.10009787609E+03 -0.19246045402E+03  0.28980548714E+03  0.25500000000E-02 0. -1.
<mgrwt>
<rscale>  0 0.20896902E+03</rscale>
<asrwt>0</asrwt>
<pdfrwt beam="1">  1       11 0.10000000E+01 0.17484779E+03</pdfrwt>
<pdfrwt beam="2">  1        2 0.43488994E-01 0.20896902E+03</pdfrwt>
<totfact> 0.14458848E+02</totfact>
</mgrwt>
</event>
<event>
 5    1  0.6729100E-004  0.1542578E+03  0.7818608E-02  0.1195337E+00
         11   -1    0    0    0    0  0.00000000000E+00  0.00000000000E+00  0.10003119218E+04  0.10003119218E+04  0.51100000000E-03 0. -1.
          2   -1    0    0  501    0 -0.00000000000E+00 -0.00000000000E+00 -0.30337201367E+02  0.30337201474E+02  0.25500000000E-02 0. -1.
         11    1    1    2    0    0 -0.47050801063E+01  0.14651843037E+03  0.49207914506E+03  0.51345075053E+03  0.51100000000E-03 0. -1.
         22    1    1    2    0    0  0.26627489492E+02  0.12557487661E+02  0.14033482825E+03  0.14338960113E+03  0.00000000000E+00 0.  1.
          2    1    1    2  501    0 -0.21922409386E+02 -0.15907591803E+03  0.33756074715E+03  0.37380877164E+03  0.25500000000E-02 0. -1.
<mgrwt>
<rscale>  0 0.15425778E+03</rscale>
<asrwt>0</asrwt>
<pdfrwt beam="1">  1       11 0.10000000E+01 0.29440002E+02</pdfrwt>
<pdfrwt beam="2">  1        2 0.46687174E-02 0.15425778E+03</pdfrwt>
<totfact> 0.20261080E+03</totfact>
</mgrwt>
</event>
<event>
 5    1  0.6729100E-004  0.1884637E+03  0.7818608E-02  0.1420147E+00
         11   -1    0    0    0    0  0.00000000000E+00  0.00000000000E+00  0.99995913880E+03  0.99995913880E+03  0.51100000000E-03 0.  1.
          2   -1    0    0  501    0 -0.00000000000E+00 -0.00000000000E+00 -0.20062391318E+04  0.20062391318E+04  0.25500000000E-02 0.  1.
         11    1    1    2    0    0 -0.21631743530E+03 -0.10882639324E+01  0.38254088631E+03  0.43946779954E+03  0.51100000000E-03 0.  1.
         22    1    1    2    0    0  0.17317014465E+03  0.35179203292E+02  0.57530670212E+03  0.60183326332E+03  0.00000000000E+00 0.  1.
          2    1    1    2  501    0  0.43147290657E+02 -0.34090939360E+02 -0.19641275815E+04  0.19648972078E+04  0.25500000000E-02 0.  1.
<mgrwt>
<rscale>  0 0.54989825E+02</rscale>
<asrwt>0</asrwt>
<pdfrwt beam="1">  1       11 0.10000000E+01 0.18846372E+03</pdfrwt>
<pdfrwt beam="2">  1        2 0.30863955E+00 0.54989825E+02</pdfrwt>
<totfact> 0.10963453E+01</totfact>
</mgrwt>
</event>
<event>
 5    1  0.6729100E-004  0.4804273E+03  0.7818608E-02  0.1019018E+00
         11   -1    0    0    0    0  0.00000000000E+00  0.00000000000E+00  0.10003428280E+04  0.10003428280E+04  0.51100000000E-03 0.  1.
          2   -1    0    0  501    0 -0.00000000000E+00 -0.00000000000E+00 -0.58143651796E+03  0.58143651797E+03  0.25500000000E-02 0.  1.
         11    1    1    2    0    0 -0.29072793607E+03 -0.38806510704E+03  0.40468931249E+03  0.63157794432E+03  0.51100000000E-03 0.  1.
         22    1    1    2    0    0 -0.10764523015E+03  0.11257108684E+03  0.33487359439E+03  0.36932380019E+03  0.00000000000E+00 0. -1.
          2    1    1    2  501    0  0.39837316621E+03  0.27549402020E+03 -0.32065659687E+03  0.58087760143E+03  0.25500000000E-02 0.  1.
<mgrwt>
<rscale>  0 0.48042733E+03</rscale>
<asrwt>0</asrwt>
<pdfrwt beam="1">  1       11 0.10000000E+01 0.15575540E+03</pdfrwt>
<pdfrwt beam="2">  1        2 0.89482436E-01 0.48042733E+03</pdfrwt>
<totfact> 0.64419473E+01</totfact>
</mgrwt>
</event>
<event>
 5    1  0.6729100E-004  0.1294990E+03  0.7818608E-02  0.1312007E+00
         11   -1    0    0    0    0  0.00000000000E+00  0.00000000000E+00  0.99986821165E+03  0.99986821165E+03  0.51100000000E-03 0. -1.
         -2   -1    0    0    0  501 -0.00000000000E+00 -0.00000000000E+00 -0.17280643264E+03  0.17280643266E+03  0.25500000000E-02 0. -1.
         11    1    1    2    0    0  0.46965390161E+02 -0.17054370325E+03  0.31945010231E+03  0.36515650132E+03  0.51100000000E-03 0. -1.
         22    1    1    2    0    0 -0.80006603346E+02  0.90794020298E+02  0.63897317279E+03  0.65033170478E+03  0.00000000000E+00 0. -1.
         -2    1    1    2    0  501  0.33041213185E+02  0.79749682951E+02 -0.13136149608E+03  0.15718643822E+03  0.25500000000E-02 0. -1.
<mgrwt>
<rscale>  0 0.86323425E+02</rscale>
<asrwt>0</asrwt>
<pdfrwt beam="1">  1       11 0.10000000E+01 0.12949896E+03</pdfrwt>
<pdfrwt beam="2">  1       -2 0.26582101E-01 0.86323425E+02</pdfrwt>
<totfact> 0.10002905E+02</totfact>
</mgrwt>
</event>
<event>
 5    1  0.6729100E-004  0.7553240E+02  0.7818608E-02  0.1409922E+00
         11   -1    0    0    0    0  0.00000000000E+00  0.00000000000E+00  0.10003056749E+04  0.10003056749E+04  0.51100000000E-03 0. -1.
         -2   -1    0    0    0  501 -0.00000000000E+00 -0.00000000000E+00 -0.15375066042E+02  0.15375066254E+02  0.25500000000E-02 0.  1.
         11    1    1    2    0    0 -0.96460984350E+02  0.47517911789E+02  0.49758347418E+03  0.50906972727E+03  0.51100000000E-03 0. -1.
         22    1    1    2    0    0  0.39298322959E+02 -0.49877765576E+02  0.37704267736E+03  0.38235236397E+03  0.00000000000E+00 0.  1.
         -2    1    1    2    0  501  0.57162661391E+02  0.23598537873E+01  0.11030445732E+03  0.12425864991E+03  0.25500000000E-02 0.  1.
<mgrwt>
<rscale>  0 0.57211352E+02</rscale>
<asrwt>0</asrwt>
<pdfrwt beam="1">  1       11 0.10000000E+01 0.75532398E+02</pdfrwt>
<pdfrwt beam="2">  1       -2 0.23661178E-02 0.57211352E+02</pdfrwt>
<totfact> 0.39937547E+03</totfact>
</mgrwt>
</event>
<event>
 5    1  0.6729100E-004  0.2806641E+03  0.7818608E-02  0.1243279E+00
         11   -1    0    0    0    0  0.00000000000E+00  0.00000000000E+00  0.10002152295E+04  0.10002152295E+04  0.51100000000E-03 0.  1.
          2   -1    0    0  501    0 -0.00000000000E+00 -0.00000000000E+00 -0.14694213993E+03  0.14694213996E+03  0.25500000000E-02 0.  1.
         11    1    1    2    0    0 -0.22036499325E+03 -0.20301694166E+03  0.32010546377E+03  0.43845651642E+03  0.51100000000E-03 0.  1.
         22    1    1    2    0    0  0.11229469533E+03  0.25492491219E+03  0.51760828188E+03  0.58780536143E+03  0.00000000000E+00 0.  1.
          2    1    1    2  501    0  0.10807029792E+03 -0.51907970535E+02  0.15559343893E+02  0.12089549159E+03  0.25500000000E-02 0.  1.
<mgrwt>
<rscale>  0 0.11989006E+03</rscale>
<asrwt>0</asrwt>
<pdfrwt beam="1">  1       11 0.10000000E+01 0.28066415E+03</pdfrwt>
<pdfrwt beam="2">  1        2 0.22611348E-01 0.11989006E+03</pdfrwt>
<totfact> 0.29166981E+02</totfact>
</mgrwt>
</event>
<event>
 5    1  0.6729100E-004  0.2003798E+03  0.7818608E-02  0.1149419E+00
         11   -1    0    0    0    0  0.00000000000E+00  0.00000000000E+00  0.10003288400E+04  0.10003288401E+04  0.51100000000E-03 0. -1.
          2   -1    0    0  501    0 -0.00000000000E+00 -0.00000000000E+00 -0.84855122424E+02  0.84855122462E+02  0.25500000000E-02 0. -1.
         11    1    1    2    0    0  0.44296330668E+02 -0.85270680574E+02  0.12907227439E+03  0.16091272756E+03  0.51100000000E-03 0. -1.
         22    1    1    2    0    0  0.10379892949E+03 -0.79734737995E+02  0.65197747066E+03  0.66498606636E+03  0.00000000000E+00 0. -1.
          2    1    1    2  501    0 -0.14809526016E+03  0.16500541857E+03  0.13442397258E+03  0.25928516859E+03  0.25500000000E-02 0. -1.
<mgrwt>
<rscale>  0 0.20037978E+03</rscale>
<asrwt>0</asrwt>
<pdfrwt beam="1">  1       11 0.10000000E+01 0.96089870E+02</pdfrwt>
<pdfrwt beam="2">  1        2 0.13058927E-01 0.20037978E+03</pdfrwt>
<totfact> 0.56061926E+02</totfact>
</mgrwt>
</event>
<event>
 5    1  0.6729100E-004  0.3547279E+03  0.7818608E-02  0.1063431E+00
         11   -1    0    0    0    0  0.00000000000E+00  0.00000000000E+00  0.10002764544E+04  0.10002764544E+04  0.51100000000E-03 0. -1.
          2   -1    0    0  501    0 -0.00000000000E+00 -0.00000000000E+00 -0.15163356571E+04  0.15163356571E+04  0.25500000000E-02 0. -1.
         11    1    1    2    0    0  0.29836316512E+03  0.15087697953E+03  0.88078638776E+03  0.94210885895E+03  0.51100000000E-03 0. -1.
         22    1    1    2    0    0  0.52910279761E+01  0.19155064982E+02  0.66985453448E+02  0.69871041677E+02  0.00000000000E+00 0. -1.
          2    1    1    2  501    0 -0.30365419310E+03 -0.17003204451E+03 -0.14638310438E+04  0.15046322109E+04  0.25500000000E-02 0. -1.
<mgrwt>
<rscale>  0 0.34801834E+03</rscale>
<asrwt>0</asrwt>
<pdfrwt beam="1">  1       11 0.10000000E+01 0.35472786E+03</pdfrwt>
<pdfrwt beam="2">  1        2 0.23334689E+00 0.34801834E+03</pdfrwt>
<totfact> 0.16450131E+01</totfact>
</mgrwt>
</event>
<event>
 5    1  0.6729100E-004  0.2880416E+03  0.7818608E-02  0.1091376E+00
         11   -1    0    0    0    0  0.00000000000E+00  0.00000000000E+00  0.10000667089E+04  0.10000667089E+04  0.51100000000E-03 0. -1.
         -2   -1    0    0    0  501 -0.00000000000E+00 -0.00000000000E+00 -0.11604662296E+03  0.11604662298E+03  0.25500000000E-02 0.  1.
         11    1    1    2    0    0  0.24629442287E+03  0.14210407897E+03  0.68232644868E+03  0.73920490702E+03  0.51100000000E-03 0. -1.
         22    1    1    2    0    0 -0.78638532167E+00  0.10997014668E+02  0.48073138855E+02  0.49321186248E+02  0.00000000000E+00 0. -1.
         -2    1    1    2    0  501 -0.24550803755E+03 -0.15310109364E+03  0.15362049844E+03  0.32758723864E+03  0.25500000000E-02 0.  1.
<mgrwt>
<rscale>  0 0.28804161E+03</rscale>
<asrwt>0</asrwt>
<pdfrwt beam="1">  1       11 0.10000000E+01 0.11025096E+02</pdfrwt>
<pdfrwt beam="2">  1       -2 0.17854517E-01 0.28804161E+03</pdfrwt>
<totfact> 0.20521952E+02</totfact>
</mgrwt>
</event>
<event>
 5    1  0.6729100E-004  0.1755234E+03  0.7818608E-02  0.1176337E+00
         11   -1    0    0    0    0  0.00000000000E+00  0.00000000000E+00  0.10001654136E+04  0.10001654136E+04  0.51100000000E-03 0. -1.
          2   -1    0    0  501    0 -0.00000000000E+00 -0.00000000000E+00 -0.38239823298E+02  0.38239823383E+02  0.25500000000E-02 0. -1.
         11    1    1    2    0    0 -0.11914825456E+03  0.10642814046E+03  0.21118943760E+03  0.26480980760E+03  0.51100000000E-03 0. -1.
         22    1    1    2    0    0 -0.13547080476E+02  0.21504676748E+01  0.34586977231E+02  0.37207618772E+02  0.00000000000E+00 0.  1.
          2    1    1    2  501    0  0.13269533503E+03 -0.10857860814E+03  0.71614917549E+03  0.73638781063E+03  0.25500000000E-02 0. -1.
<mgrwt>
<rscale>  0 0.17145660E+03</rscale>
<asrwt>0</asrwt>
<pdfrwt beam="1">  1       11 0.10000000E+01 0.17552344E+03</pdfrwt>
<pdfrwt beam="2">  1        2 0.58840227E-02 0.17145660E+03</pdfrwt>
<totfact> 0.15093998E+03</totfact>
</mgrwt>
</event>
<event>
 5    1  0.6729100E-004  0.4104957E+03  0.7818608E-02  0.1040205E+00
         11   -1    0    0    0    0  0.00000000000E+00  0.00000000000E+00  0.10000404344E+04  0.10000404344E+04  0.51100000000E-03 0.  1.
          2   -1    0    0  501    0 -0.00000000000E+00 -0.00000000000E+00 -0.33386203065E+03  0.33386203066E+03  0.25500000000E-02 0.  1.
         11    1    1    2    0    0 -0.38499688331E+03 -0.14986480949E+03  0.76008986276E+03  0.86511193538E+03  0.51100000000E-03 0.  1.
         22    1    1    2    0    0  0.83798189793E+01 -0.12304271284E+02  0.35754224238E+02  0.38729588286E+02  0.00000000000E+00 0.  1.
          2    1    1    2  501    0  0.37661706433E+03  0.16216908078E+03 -0.12966568323E+03  0.43006094140E+03  0.25500000000E-02 0.  1.
<mgrwt>
<rscale>  0 0.41049571E+03</rscale>
<asrwt>0</asrwt>
<pdfrwt beam="1">  1       11 0.10000000E+01 0.14886788E+02</pdfrwt>
<pdfrwt beam="2">  1        2 0.51365465E-01 0.41049571E+03</pdfrwt>
<totfact> 0.12072636E+02</totfact>
</mgrwt>
</event>
<event>
 5    1  0.6729100E-004  0.2906884E+03  0.7818608E-02  0.1089990E+00
         11   -1    0    0    0    0  0.00000000000E+00  0.00000000000E+00  0.10001277537E+04  0.10001277537E+04  0.51100000000E-03 0. -1.
          2   -1    0    0  501    0 -0.00000000000E+00 -0.00000000000E+00 -0.32674917948E+03  0.32674917949E+03  0.25500000000E-02 0. -1.
         11    1    1    2    0    0 -0.28025070110E+03  0.43359800656E+02 -0.19192634199E+03  0.34242699737E+03  0.51100000000E-03 0. -1.
         22    1    1    2    0    0 -0.84834508850E+02  0.83064029729E+01  0.80051195083E+02  0.11693623928E+03  0.00000000000E+00 0. -1.
          2    1    1    2  501    0  0.36508520995E+03 -0.51666203629E+02  0.78525372116E+03  0.86751369656E+03  0.25500000000E-02 0. -1.
<mgrwt>
<rscale>  0 0.29068843E+03</rscale>
<asrwt>0</asrwt>
<pdfrwt beam="1">  1       11 0.10000000E+01 0.85240191E+02</pdfrwt>
<pdfrwt beam="2">  1        2 0.50275525E-01 0.29068843E+03</pdfrwt>
<totfact> 0.12369268E+02</totfact>
</mgrwt>
</event>
<event>
 5    1  0.6729100E-004  0.3385383E+03  0.7818608E-02  0.1067420E+00
         11   -1    0    0    0    0  0.00000000000E+00  0.00000000000E+00  0.10002398605E+04  0.10002398605E+04  0.51100000000E-03 0.  1.
          2   -1    0    0  501    0 -0.00000000000E+00 -0.00000000000E+00 -0.12523713282E+03  0.12523713284E+03  0.25500000000E-02 0.  1.
         11    1    1    2    0    0  0.49558336109E+02  0.33233204771E+03  0.31598626825E+03  0.46124607352E+03  0.51100000000E-03 0.  1.
         22    1    1    2    0    0  0.15346589047E+02  0.39484246928E+01  0.31954166446E+02  0.35667584811E+02  0.00000000000E+00 0. -1.
          2    1    1    2  501    0 -0.64904925156E+02 -0.33628047241E+03  0.52706229299E+03  0.62856333502E+03  0.25500000000E-02 0.  1.
<mgrwt>
<rscale>  0 0.33853830E+03</rscale>
<asrwt>0</asrwt>
<pdfrwt beam="1">  1       11 0.10000000E+01 0.15846383E+02</pdfrwt>
<pdfrwt beam="2">  1        2 0.19271872E-01 0.33853830E+03</pdfrwt>
<totfact> 0.35999719E+02</totfact>
</mgrwt>
</event>
<event>
 5    1  0.6729100E-004  0.1870216E+03  0.7818608E-02  0.1166029E+00
         11   -1    0    0    0    0  0.00000000000E+00  0.00000000000E+00  0.10002163943E+04  0.10002163943E+04  0.51100000000E-03 0. -1.
          2   -1    0    0  501    0 -0.00000000000E+00 -0.00000000000E+00 -0.34916948025E+02  0.34916948118E+02  0.25500000000E-02 0.  1.
         11    1    1    2    0    0  0.55675434971E+02 -0.15792524201E+03  0.49263446702E+03  0.52031610989E+03  0.51100000000E-03 0. -1.
         22    1    1    2    0    0  0.15874655864E+02 -0.92524913283E+01  0.80091908385E+02  0.82172544583E+02  0.00000000000E+00 0. -1.
          2    1    1    2  501    0 -0.71550090835E+02  0.16717773334E+03  0.39257307087E+03  0.43264468794E+03  0.25500000000E-02 0.  1.
<mgrwt>
<rscale>  0 0.18184557E+03</rscale>
<asrwt>0</asrwt>
<pdfrwt beam="1">  1       11 0.10000000E+01 0.18702160E+03</pdfrwt>
<pdfrwt beam="2">  1        2 0.53730004E-02 0.18184557E+03</pdfrwt>
<totfact> 0.17065303E+03</totfact>
</mgrwt>
</event>
<event>
 5    1  0.6729100E-004  0.9403828E+02  0.7818608E-02  0.1399219E+00
         11   -1    0    0    0    0  0.00000000000E+00  0.00000000000E+00  0.99999980933E+03  0.99999980933E+03  0.51100000000E-03 0.  1.
          2   -1    0    0  501    0 -0.00000000000E+00 -0.00000000000E+00 -0.68490740084E+02  0.68490740131E+02  0.25500000000E-02 0.  1.
         11    1    1    2    0    0  0.71667985153E+02 -0.87192827171E+02  0.60887522689E+03  0.61924787535E+03  0.51100000000E-03 0.  1.
         22    1    1    2    0    0 -0.12162717158E+02  0.82751605146E+02  0.36602724921E+03  0.37546199143E+03  0.00000000000E+00 0. -1.
          2    1    1    2  501    0 -0.59505267995E+02  0.44412220248E+01 -0.43393406853E+02  0.73780682682E+02  0.25500000000E-02 0.  1.
<mgrwt>
<rscale>  0 0.59670775E+02</rscale>
<asrwt>0</asrwt>
<pdfrwt beam="1">  1       11 0.10000000E+01 0.94038277E+02</pdfrwt>
<pdfrwt beam="2">  1        2 0.10537035E-01 0.59670775E+02</pdfrwt>
<totfact> 0.67831575E+02</totfact>
</mgrwt>
</event>
<event>
 5    1  0.6729100E-004  0.1144482E+03  0.7818608E-02  0.1252547E+00
         11   -1    0    0    0    0  0.00000000000E+00  0.00000000000E+00  0.10001352610E+04  0.10001352610E+04  0.51100000000E-03 0. -1.
          2   -1    0    0  501    0 -0.00000000000E+00 -0.00000000000E+00 -0.20617384945E+02  0.20617385103E+02  0.25500000000E-02 0. -1.
         11    1    1    2    0    0 -0.12303332782E+03 -0.52456194031E+02  0.39723617408E+03  0.41914845824E+03  0.51100000000E-03 0. -1.
         22    1    1    2    0    0  0.44254888049E+02 -0.10340943332E+02  0.26003238319E+03  0.26397399594E+03  0.00000000000E+00 0. -1.
          2    1    1    2  501    0  0.78778439776E+02  0.62797137364E+02  0.32224931883E+03  0.33763019196E+03  0.25500000000E-02 0. -1.
<mgrwt>
<rscale>  0 0.11444821E+03</rscale>
<asrwt>0</asrwt>
<pdfrwt beam="1">  1       11 0.10000000E+01 0.45447005E+02</pdfrwt>
<pdfrwt beam="2">  1        2 0.31723343E-02 0.11444821E+03</pdfrwt>
<totfact> 0.32896459E+03</totfact>
</mgrwt>
</event>
<event>
 5    1  0.6729100E-004  0.1888111E+03  0.7818608E-02  0.1166010E+00
         11   -1    0    0    0    0  0.00000000000E+00  0.00000000000E+00  0.10001108296E+04  0.10001108296E+04  0.51100000000E-03 0. -1.
          2   -1    0    0  501    0 -0.00000000000E+00 -0.00000000000E+00 -0.89625803766E+03  0.89625803767E+03  0.25500000000E-02 0. -1.
         11    1    1    2    0    0 -0.12791156592E+03 -0.10687365834E+03  0.93528087709E+03  0.95001771910E+03  0.51100000000E-03 0. -1.
         22    1    1    2    0    0 -0.53675594437E+01 -0.16866078804E+02  0.46515358758E+02  0.49769005506E+02  0.00000000000E+00 0. -1.
          2    1    1    2  501    0  0.13327912536E+03  0.12373973715E+03 -0.87794344392E+03  0.89658214266E+03  0.25500000000E-02 0. -1.
<mgrwt>
<rscale>  0 0.18186492E+03</rscale>
<asrwt>0</asrwt>
<pdfrwt beam="1">  1       11 0.10000000E+01 0.18881114E+03</pdfrwt>
<pdfrwt beam="2">  1        2 0.13790113E+00 0.18186492E+03</pdfrwt>
<totfact> 0.38838526E+01</totfact>
</mgrwt>
</event>
<event>
 5    1  0.6729100E-004  0.2900835E+03  0.7818608E-02  0.1090306E+00
         11   -1    0    0    0    0  0.00000000000E+00  0.00000000000E+00  0.10000941200E+04  0.10000941200E+04  0.51100000000E-03 0.  1.
          2   -1    0    0  501    0 -0.00000000000E+00 -0.00000000000E+00 -0.80841609704E+03  0.80841609704E+03  0.25500000000E-02 0.  1.
         11    1    1    2    0    0 -0.17445175464E+03 -0.16528035002E+03  0.58678922073E+03  0.63409194788E+03  0.51100000000E-03 0.  1.
         22    1    1    2    0    0  0.35950031524E+02 -0.92760696182E+02  0.35525752950E+03  0.36892392683E+03  0.00000000000E+00 0.  1.
          2    1    1    2  501    0  0.13850172312E+03  0.25804104620E+03 -0.75036872721E+03  0.80549434239E+03  0.25500000000E-02 0.  1.
<mgrwt>
<rscale>  0 0.29008350E+03</rscale>
<asrwt>0</asrwt>
<pdfrwt beam="1">  1       11 0.10000000E+01 0.99483423E+02</pdfrwt>
<pdfrwt beam="2">  1        2 0.12438341E+00 0.29008350E+03</pdfrwt>
<totfact> 0.43616828E+01</totfact>
</mgrwt>
</event>
<event>
 5    1  0.6729100E-004  0.2278414E+03  0.7818608E-02  0.1128168E+00
         11   -1    0    0    0    0  0.00000000000E+00  0.00000000000E+00  0.99993765195E+03  0.99993765195E+03  0.51100000000E-03 0. -1.
          2   -1    0    0  501    0 -0.00000000000E+00 -0.00000000000E+00 -0.34323878648E+03  0.34323878649E+03  0.25500000000E-02 0. -1.
         11    1    1    2    0    0  0.25830882692E+03 -0.15726579120E+02  0.82820850279E+03  0.86769816149E+03  0.51100000000E-03 0. -1.
         22    1    1    2    0    0 -0.32273511254E+02  0.31383983078E+01  0.10974306543E+03  0.11443325339E+03  0.00000000000E+00 0. -1.
          2    1    1    2  501    0 -0.22603531567E+03  0.12588180812E+02 -0.28125270275E+03  0.36104502356E+03  0.25500000000E-02 0. -1.
<mgrwt>
<rscale>  0 0.22784141E+03</rscale>
<asrwt>0</asrwt>
<pdfrwt beam="1">  1       11 0.10000000E+01 0.32425747E+02</pdfrwt>
<pdfrwt beam="2">  1        2 0.52802673E-01 0.22784141E+03</pdfrwt>
<totfact> 0.11735040E+02</totfact>
</mgrwt>
</event>
<event>
 5    1  0.6729100E-004  0.1752613E+03  0.7818608E-02  0.1364294E+00
         11   -1    0    0    0    0  0.00000000000E+00  0.00000000000E+00  0.10003575231E+04  0.10003575231E+04  0.51100000000E-03 0. -1.
          2   -1    0    0  501    0 -0.00000000000E+00 -0.00000000000E+00 -0.44486767375E+03  0.44486767375E+03  0.25500000000E-02 0.  1.
         11    1    1    2    0    0  0.26829712424E+02  0.22746502726E+03  0.17611039683E+03  0.28892048035E+03  0.51100000000E-03 0. -1.
         22    1    1    2    0    0 -0.44289778236E+02 -0.16093882818E+03  0.75561575403E+03  0.77383335325E+03  0.00000000000E+00 0. -1.
          2    1    1    2  501    0  0.17460065812E+02 -0.66526199074E+02 -0.37623630155E+03  0.38247136321E+03  0.25500000000E-02 0.  1.
<mgrwt>
<rscale>  0 0.68779278E+02</rscale>
<asrwt>0</asrwt>
<pdfrwt beam="1">  1       11 0.10000000E+01 0.17526132E+03</pdfrwt>
<pdfrwt beam="2">  1        2 0.68465648E-01 0.68779278E+02</pdfrwt>
<totfact> 0.89502593E+01</totfact>
</mgrwt>
</event>
<event>
 5    1  0.6729100E-004  0.5036642E+03  0.7818608E-02  0.1014730E+00
         11   -1    0    0    0    0  0.00000000000E+00  0.00000000000E+00  0.10002566061E+04  0.10002566061E+04  0.51100000000E-03 0. -1.
          2   -1    0    0  501    0 -0.00000000000E+00 -0.00000000000E+00 -0.39712351344E+03  0.39712351345E+03  0.25500000000E-02 0. -1.
         11    1    1    2    0    0  0.26685773359E+03 -0.40248607596E+03  0.67859667257E+03  0.83288746859E+03  0.51100000000E-03 0. -1.
         22    1    1    2    0    0 -0.17362152230E+01 -0.17153676596E+02  0.49679837583E+02  0.52586588845E+02  0.00000000000E+00 0.  1.
          2    1    1    2  501    0 -0.26512151836E+03  0.41963975255E+03 -0.12514341755E+03  0.51190606207E+03  0.25500000000E-02 0. -1.
<mgrwt>
<rscale>  0 0.49637379E+03</rscale>
<asrwt>0</asrwt>
<pdfrwt beam="1">  1       11 0.10000000E+01 0.50366420E+03</pdfrwt>
<pdfrwt beam="2">  1        2 0.61111601E-01 0.49637379E+03</pdfrwt>
<totfact> 0.99524450E+01</totfact>
</mgrwt>
</event>
<event>
 5    1  0.6729100E-004  0.3151551E+03  0.7818608E-02  0.1085836E+00
         11   -1    0    0    0    0  0.00000000000E+00  0.00000000000E+00  0.99996348243E+03  0.99996348243E+03  0.51100000000E-03 0.  1.
         -2   -1    0    0    0  501 -0.00000000000E+00 -0.00000000000E+00 -0.14767320915E+03  0.14767320917E+03  0.25500000000E-02 0.  1.
         11    1    1    2    0    0 -0.27550486209E+02 -0.26325972216E+03  0.58057210345E+03  0.63806635855E+03  0.51100000000E-03 0.  1.
         22    1    1    2    0    0  0.17300131579E+02 -0.35377210587E+02  0.19789244180E+03  0.20177279327E+03  0.00000000000E+00 0.  1.
         -2    1    1    2    0  501  0.10250354630E+02  0.29863693275E+03  0.73825728026E+02  0.30779753978E+03  0.25500000000E-02 0.  1.
<mgrwt>
<rscale>  0 0.29881280E+03</rscale>
<asrwt>0</asrwt>
<pdfrwt beam="1">  1       11 0.10000000E+01 0.31515512E+03</pdfrwt>
<pdfrwt beam="2">  1       -2 0.22718125E-01 0.29881280E+03</pdfrwt>
<totfact> 0.13565531E+02</totfact>
</mgrwt>
</event>
<event>
 5    1  0.6729100E-004  0.1162324E+04  0.7818608E-02  0.9146489E-01
         11   -1    0    0    0    0  0.00000000000E+00  0.00000000000E+00  0.99975017962E+03  0.99975017962E+03  0.51100000000E-03 0.  1.
          2   -1    0    0  501    0 -0.00000000000E+00 -0.00000000000E+00 -0.15029067252E+04  0.15029067252E+04  0.25500000000E-02 0.  1.
         11    1    1    2    0    0  0.42412965725E+03 -0.10723449864E+04 -0.45897974496E+03  0.12411575816E+04  0.51100000000E-03 0.  1.
         22    1    1    2    0    0 -0.14066259826E+02 -0.28661947465E+02  0.74084713513E+02  0.80671628683E+02  0.00000000000E+00 0. -1.
          2    1    1    2  501    0 -0.41006339742E+03  0.11010069339E+04 -0.11826151409E+03  0.11808276945E+04  0.25500000000E-02 0.  1.
<mgrwt>
<rscale>  0 0.11623243E+04</rscale>
<asrwt>0</asrwt>
<pdfrwt beam="1">  1       11 0.10000000E+01 0.31927526E+02</pdfrwt>
<pdfrwt beam="2">  1        2 0.23115865E+00 0.11623243E+04</pdfrwt>
<totfact> 0.15400171E+01</totfact>
</mgrwt>
</event>
<event>
 5    1  0.6729100E-004  0.1474071E+03  0.7818608E-02  0.1203696E+00
         11   -1    0    0    0    0  0.00000000000E+00  0.00000000000E+00  0.10001779839E+04  0.10001779839E+04  0.51100000000E-03 0.  1.
          2   -1    0    0  501    0 -0.00000000000E+00 -0.00000000000E+00 -0.94960564272E+02  0.94960564306E+02  0.25500000000E-02 0.  1.
         11    1    1    2    0    0  0.21250660179E+03  0.14549067077E+02  0.72388664956E+03  0.75457445793E+03  0.51100000000E-03 0.  1.
         22    1    1    2    0    0 -0.81354760432E+02 -0.70256816177E+02  0.16529404072E+03  0.19717184678E+03  0.00000000000E+00 0.  1.
          2    1    1    2  501    0 -0.13115184136E+03  0.55707749099E+02  0.16036729359E+02  0.14339224350E+03  0.25500000000E-02 0.  1.
<mgrwt>
<rscale>  0 0.14740713E+03</rscale>
<asrwt>0</asrwt>
<pdfrwt beam="1">  1       11 0.10000000E+01 0.10749241E+03</pdfrwt>
<pdfrwt beam="2">  1        2 0.14611917E-01 0.14740713E+03</pdfrwt>
<totfact> 0.48410520E+02</totfact>
</mgrwt>
</event>
<event>
 5    1  0.6729100E-004  0.9738962E+03  0.7818608E-02  0.9337648E-01
         11   -1    0    0    0    0  0.00000000000E+00  0.00000000000E+00  0.10002456060E+04  0.10002456060E+04  0.51100000000E-03 0. -1.
          2   -1    0    0  501    0 -0.00000000000E+00 -0.00000000000E+00 -0.12406224050E+04  0.12406224050E+04  0.25500000000E-02 0. -1.
         11    1    1    2    0    0  0.12867959132E+03  0.96390471038E+03 -0.63419411497E+03  0.11609792864E+04  0.51100000000E-03 0. -1.
         22    1    1    2    0    0 -0.93980435960E+01  0.65458244725E+01  0.37537503684E+02  0.39245830661E+02  0.00000000000E+00 0. -1.
          2    1    1    2  501    0 -0.11928154772E+03 -0.97045053486E+03  0.35627981223E+03  0.10406428940E+04  0.25500000000E-02 0. -1.
<mgrwt>
<rscale>  0 0.97389621E+03</rscale>
<asrwt>0</asrwt>
<pdfrwt beam="1">  1       11 0.10000000E+01 0.11452993E+02</pdfrwt>
<pdfrwt beam="2">  1        2 0.19091186E+00 0.97389621E+03</pdfrwt>
<totfact> 0.22021883E+01</totfact>
</mgrwt>
</event>
<event>
 5    1  0.6729100E-004  0.9370874E+02  0.7818608E-02  0.1447709E+00
         11   -1    0    0    0    0  0.00000000000E+00  0.00000000000E+00  0.99979167773E+03  0.99979167773E+03  0.51100000000E-03 0. -1.
         -2   -1    0    0    0  501 -0.00000000000E+00 -0.00000000000E+00 -0.14220305301E+03  0.14220305303E+03  0.25500000000E-02 0.  1.
         11    1    1    2    0    0 -0.97170800157E+02 -0.70934374274E+02  0.70341962531E+03  0.71363367292E+03  0.51100000000E-03 0. -1.
         22    1    1    2    0    0  0.55387204268E+02  0.44275595947E+02  0.28225197391E+03  0.29102276126E+03  0.00000000000E+00 0.  1.
         -2    1    1    2    0  501  0.41783595889E+02  0.26658778328E+02 -0.12808297450E+03  0.13733829659E+03  0.25500000000E-02 0.  1.
<mgrwt>
<rscale>  0 0.49563690E+02</rscale>
<asrwt>0</asrwt>
<pdfrwt beam="1">  1       11 0.10000000E+01 0.93708738E+02</pdfrwt>
<pdfrwt beam="2">  1       -2 0.21872835E-01 0.49563690E+02</pdfrwt>
<totfact> 0.13672193E+02</totfact>
</mgrwt>
</event>
<event>
 5    1  0.6729100E-004  0.2129547E+03  0.7818608E-02  0.1139247E+00
         11   -1    0    0    0    0  0.00000000000E+00  0.00000000000E+00  0.10000429856E+04  0.10000429856E+04  0.51100000000E-03 0. -1.
          2   -1    0    0  501    0 -0.00000000000E+00 -0.00000000000E+00 -0.54429592193E+02  0.54429592253E+02  0.25500000000E-02 0. -1.
         11    1    1    2    0    0 -0.23918355643E+02 -0.20579136938E+03  0.32037866993E+03  0.38152937973E+03  0.51100000000E-03 0. -1.
         22    1    1    2    0    0 -0.14999242220E+02 -0.12786607633E+02  0.11238115633E+03  0.11409644561E+03  0.00000000000E+00 0.  1.
          2    1    1    2  501    0  0.38917597864E+02  0.21857797702E+03  0.51285356715E+03  0.55884675252E+03  0.25500000000E-02 0. -1.
<mgrwt>
<rscale>  0 0.21295473E+03</rscale>
<asrwt>0</asrwt>
<pdfrwt beam="1">  1       11 0.10000000E+01 0.19709759E+02</pdfrwt>
<pdfrwt beam="2">  1        2 0.83741431E-02 0.21295473E+03</pdfrwt>
<totfact> 0.97331036E+02</totfact>
</mgrwt>
</event>
<event>
 5    1  0.6729100E-004  0.2851618E+03  0.7818608E-02  0.1463918E+00
         11   -1    0    0    0    0  0.00000000000E+00  0.00000000000E+00  0.10008632414E+04  0.10008632414E+04  0.51100000000E-03 0.  1.
          2   -1    0    0  501    0 -0.00000000000E+00 -0.00000000000E+00 -0.31217757305E+03  0.31217757306E+03  0.25500000000E-02 0.  1.
         11    1    1    2    0    0 -0.87488188034E-01 -0.27901294913E+03  0.62923919454E+03  0.68832419497E+03  0.51100000000E-03 0.  1.
         22    1    1    2    0    0  0.42740199853E+02  0.29806342274E+03  0.27279896235E+03  0.40630998329E+03  0.00000000000E+00 0.  1.
          2    1    1    2  501    0 -0.42652711665E+02 -0.19050473613E+02 -0.21335248854E+03  0.21840663619E+03  0.25500000000E-02 0.  1.
<mgrwt>
<rscale>  0 0.46713749E+02</rscale>
<asrwt>0</asrwt>
<pdfrwt beam="1">  1       11 0.10000000E+01 0.28516184E+03</pdfrwt>
<pdfrwt beam="2">  1        2 0.48068777E-01 0.46713749E+02</pdfrwt>
<totfact> 0.12882214E+02</totfact>
</mgrwt>
</event>
<event>
 5    1  0.6729100E-004  0.1010717E+03  0.7818608E-02  0.1278058E+00
         11   -1    0    0    0    0  0.00000000000E+00  0.00000000000E+00  0.10000984450E+04  0.10000984450E+04  0.51100000000E-03 0.  1.
          2   -1    0    0  501    0 -0.00000000000E+00 -0.00000000000E+00 -0.15608371009E+03  0.15608371011E+03  0.25500000000E-02 0.  1.
         11    1    1    2    0    0 -0.17596545086E+03 -0.67277585517E+01  0.73382579220E+03  0.75465846310E+03  0.51100000000E-03 0.  1.
         22    1    1    2    0    0  0.79104529395E+02 -0.15371087999E+02  0.23126564863E+03  0.24490324039E+03  0.00000000000E+00 0.  1.
          2    1    1    2  501    0  0.96860921469E+02  0.22098846551E+02 -0.12107670595E+03  0.15662045159E+03  0.25500000000E-02 0.  1.
<mgrwt>
<rscale>  0 0.10107166E+03</rscale>
<asrwt>0</asrwt>
<pdfrwt beam="1">  1       11 0.10000000E+01 0.80584098E+02</pdfrwt>
<pdfrwt beam="2">  1        2 0.24015242E-01 0.10107166E+03</pdfrwt>
<totfact> 0.27151493E+02</totfact>
</mgrwt>
</event>
<event>
 5    1  0.6729100E-004  0.1397550E+03  0.7818608E-02  0.1213659E+00
         11   -1    0    0    0    0  0.00000000000E+00  0.00000000000E+00  0.10004981257E+04  0.10004981257E+04  0.51100000000E-03 0. -1.
          2   -1    0    0  501    0 -0.00000000000E+00 -0.00000000000E+00 -0.81286497420E+02  0.81286497460E+02  0.25500000000E-02 0.  1.
         11    1    1    2    0    0  0.12523589685E+03  0.85469573234E+02  0.84907180207E+03  0.86250333500E+03  0.51100000000E-03 0. -1.
         22    1    1    2    0    0 -0.45987695125E+01 -0.16659875691E+02  0.78276297870E+02  0.80161580244E+02  0.00000000000E+00 0.  1.
          2    1    1    2  501    0 -0.12063712733E+03 -0.68809697543E+02 -0.81364716155E+01  0.13911970796E+03  0.25500000000E-02 0.  1.
<mgrwt>
<rscale>  0 0.13975500E+03</rscale>
<asrwt>0</asrwt>
<pdfrwt beam="1">  1       11 0.10000000E+01 0.17282944E+02</pdfrwt>
<pdfrwt beam="2">  1        2 0.12511844E-01 0.13975500E+03</pdfrwt>
<totfact> 0.58061731E+02</totfact>
</mgrwt>
</event>
<event>
 5    1  0.6729100E-004  0.1492073E+03  0.7818608E-02  0.1377085E+00
         11   -1    0    0    0    0  0.00000000000E+00  0.00000000000E+00  0.10014336159E+04  0.10014336159E+04  0.51100000000E-03 0. -1.
          2   -1    0    0  501    0 -0.00000000000E+00 -0.00000000000E+00 -0.19370977378E+04  0.19370977378E+04  0.25500000000E-02 0. -1.
         11    1    1    2    0    0  0.51049377289E+02 -0.14118366931E+03  0.10250207739E+03  0.18178433175E+03  0.51100000000E-03 0. -1.
         22    1    1    2    0    0 -0.10663450341E+03  0.10703579535E+03  0.85208196260E+03  0.86537347417E+03  0.00000000000E+00 0. -1.
          2    1    1    2  501    0  0.55585126119E+02  0.34147873962E+02 -0.18902481619E+04  0.18913735477E+04  0.25500000000E-02 0. -1.
<mgrwt>
<rscale>  0 0.65236367E+02</rscale>
<asrwt>0</asrwt>
<pdfrwt beam="1">  1       11 0.10000000E+01 0.14920731E+03</pdfrwt>
<pdfrwt beam="2">  1        2 0.29844227E+00 0.65236367E+02</pdfrwt>
<totfact> 0.11590137E+01</totfact>
</mgrwt>
</event>
<event>
 5    1  0.6729100E-004  0.1007547E+03  0.7818608E-02  0.1432680E+00
         11   -1    0    0    0    0  0.00000000000E+00  0.00000000000E+00  0.10005592157E+04  0.10005592157E+04  0.51100000000E-03 0.  1.
          2   -1    0    0  501    0 -0.00000000000E+00 -0.00000000000E+00 -0.11560669026E+03  0.11560669029E+03  0.25500000000E-02 0.  1.
         11    1    1    2    0    0  0.95792853425E+02  0.59837959998E+02  0.51490477745E+03  0.52714683160E+03  0.51100000000E-03 0.  1.
         22    1    1    2    0    0 -0.48804636223E+02 -0.83088122951E+02  0.46805484567E+03  0.47787118269E+03  0.00000000000E+00 0.  1.
          2    1    1    2  501    0 -0.46988217202E+02  0.23250162952E+02 -0.98007097669E+02  0.11114789172E+03  0.25500000000E-02 0.  1.
<mgrwt>
<rscale>  0 0.52425782E+02</rscale>
<asrwt>0</asrwt>
<pdfrwt beam="1">  1       11 0.10000000E+01 0.10075474E+03</pdfrwt>
<pdfrwt beam="2">  1        2 0.17795590E-01 0.52425782E+02</pdfrwt>
<totfact> 0.36844264E+02</totfact>
</mgrwt>
</event>
<event>
 5    1  0.6729100E-004  0.1783693E+03  0.7818608E-02  0.1169391E+00
         11   -1    0    0    0    0  0.00000000000E+00  0.00000000000E+00  0.10003350314E+04  0.10003350314E+04  0.51100000000E-03 0. -1.
          2   -1    0    0  501    0 -0.00000000000E+00 -0.00000000000E+00 -0.80925980067E+03  0.80925980068E+03  0.25500000000E-02 0. -1.
         11    1    1    2    0    0 -0.95184137267E+02  0.16242034236E+03  0.91583003896E+03  0.93497863498E+03  0.51100000000E-03 0. -1.
         22    1    1    2    0    0  0.11504869083E+02 -0.50160603191E+01  0.64382563554E+02  0.65594491869E+02  0.00000000000E+00 0.  1.
          2    1    1    2  501    0  0.83679268185E+02 -0.15740428204E+03 -0.78913737180E+03  0.80902170522E+03  0.25500000000E-02 0. -1.
<mgrwt>
<rscale>  0 0.17836927E+03</rscale>
<asrwt>0</asrwt>
<pdfrwt beam="1">  1       11 0.10000000E+01 0.12550812E+02</pdfrwt>
<pdfrwt beam="2">  1        2 0.12454322E+00 0.17836927E+03</pdfrwt>
<totfact> 0.44334198E+01</totfact>
</mgrwt>
</event>
<event>
 5    1  0.6729100E-004  0.5346661E+03  0.7818608E-02  0.1005107E+00
         11   -1    0    0    0    0  0.00000000000E+00  0.00000000000E+00  0.99986550242E+03  0.99986550242E+03  0.51100000000E-03 0. -1.
          2   -1    0    0  501    0 -0.00000000000E+00 -0.00000000000E+00 -0.40705761990E+03  0.40705761991E+03  0.25500000000E-02 0.  1.
         11    1    1    2    0    0 -0.47485520255E+03  0.26771197714E+03  0.58333898893E+03  0.79839936254E+03  0.51100000000E-03 0. -1.
         22    1    1    2    0    0  0.18831650032E+02  0.45781420182E+01  0.71225613880E+02  0.73815164430E+02  0.00000000000E+00 0.  1.
          2    1    1    2  501    0  0.45602355252E+03 -0.27229011916E+03 -0.61756720297E+02  0.53470859536E+03  0.25500000000E-02 0.  1.
<mgrwt>
<rscale>  0 0.53466608E+03</rscale>
<asrwt>0</asrwt>
<pdfrwt beam="1">  1       11 0.10000000E+01 0.19380156E+02</pdfrwt>
<pdfrwt beam="2">  1        2 0.62615825E-01 0.53466608E+03</pdfrwt>
<totfact> 0.96790113E+01</totfact>
</mgrwt>
</event>
<event>
 5    1  0.6729100E-004  0.4961024E+03  0.7818608E-02  0.1014801E+00
         11   -1    0    0    0    0  0.00000000000E+00  0.00000000000E+00  0.10003537585E+04  0.10003537585E+04  0.51100000000E-03 0. -1.
          2   -1    0    0  501    0 -0.00000000000E+00 -0.00000000000E+00 -0.48496355392E+03  0.48496355393E+03  0.25500000000E-02 0. -1.
         11    1    1    2    0    0  0.37014078694E+03  0.33603082320E+03 -0.22687101203E+03  0.54899123162E+03  0.51100000000E-03 0. -1.
         22    1    1    2    0    0 -0.44138583777E+02  0.20502642685E+02  0.21819831373E+03  0.22356000772E+03  0.00000000000E+00 0. -1.
          2    1    1    2  501    0 -0.32600220316E+03 -0.35653346588E+03  0.52406290285E+03  0.71276607307E+03  0.25500000000E-02 0. -1.
<mgrwt>
<rscale>  0 0.49610245E+03</rscale>
<asrwt>0</asrwt>
<pdfrwt beam="1">  1       11 0.10000000E+01 0.48667987E+02</pdfrwt>
<pdfrwt beam="2">  1        2 0.74636169E-01 0.49610245E+03</pdfrwt>
<totfact> 0.79463974E+01</totfact>
</mgrwt>
</event>
<event>
 5    1  0.6729100E-004  0.5015004E+03  0.7818608E-02  0.1105257E+00
         11   -1    0    0    0    0  0.00000000000E+00  0.00000000000E+00  0.10002695967E+04  0.10002695967E+04  0.51100000000E-03 0. -1.
          2   -1    0    0  501    0 -0.00000000000E+00 -0.00000000000E+00 -0.17569747289E+04  0.17569747289E+04  0.25500000000E-02 0.  1.
         11    1    1    2    0    0 -0.32399038387E+03 -0.55272674292E+03  0.50152364984E+03  0.81363541745E+03  0.51100000000E-03 0. -1.
         22    1    1    2    0    0  0.12702435262E+03  0.37819997958E+03  0.21077665718E+03  0.45121747520E+03  0.00000000000E+00 0. -1.
          2    1    1    2  501    0  0.19696603125E+03  0.17452676334E+03 -0.14690054393E+04  0.14923914330E+04  0.25500000000E-02 0.  1.
<mgrwt>
<rscale>  0 0.26316384E+03</rscale>
<asrwt>0</asrwt>
<pdfrwt beam="1">  1       11 0.10000000E+01 0.50150044E+03</pdfrwt>
<pdfrwt beam="2">  1        2 0.27037667E+00 0.26316384E+03</pdfrwt>
<totfact> 0.12525589E+01</totfact>
</mgrwt>
</event>
<event>
 5    1  0.6729100E-004  0.1792773E+03  0.7818608E-02  0.1175850E+00
         11   -1    0    0    0    0  0.00000000000E+00  0.00000000000E+00  0.10000466049E+04  0.10000466049E+04  0.51100000000E-03 0.  1.
          2   -1    0    0  501    0 -0.00000000000E+00 -0.00000000000E+00 -0.12016632954E+03  0.12016632956E+03  0.25500000000E-02 0.  1.
         11    1    1    2    0    0 -0.19128604340E+02  0.71106171527E+02  0.44090018119E+03  0.44700666763E+03  0.51100000000E-03 0.  1.
         22    1    1    2    0    0 -0.74212333703E+02  0.73280558265E+02  0.48430022055E+03  0.49540308267E+03  0.00000000000E+00 0.  1.
          2    1    1    2  501    0  0.93340938043E+02 -0.14438672979E+03 -0.45320126335E+02  0.17780318420E+03  0.25500000000E-02 0.  1.
<mgrwt>
<rscale>  0 0.17193039E+03</rscale>
<asrwt>0</asrwt>
<pdfrwt beam="1">  1       11 0.10000000E+01 0.17927731E+03</pdfrwt>
<pdfrwt beam="2">  1        2 0.18487989E-01 0.17193039E+03</pdfrwt>
<totfact> 0.37032807E+02</totfact>
</mgrwt>
</event>
<event>
 5    1  0.6729100E-004  0.3036547E+03  0.7818608E-02  0.1083428E+00
         11   -1    0    0    0    0  0.00000000000E+00  0.00000000000E+00  0.10002191617E+04  0.10002191617E+04  0.51100000000E-03 0. -1.
         -2   -1    0    0    0  501 -0.00000000000E+00 -0.00000000000E+00 -0.41560830685E+03  0.41560830685E+03  0.25500000000E-02 0.  1.
         11    1    1    2    0    0  0.19984070303E+03  0.23418990591E+01  0.12396590895E+03  0.23517937338E+03  0.51100000000E-03 0. -1.
         22    1    1    2    0    0  0.15431066894E+03  0.35574473454E+02  0.72181384657E+03  0.73898075402E+03  0.00000000000E+00 0. -1.
         -2    1    1    2    0  501 -0.35415137198E+03 -0.37916372514E+02 -0.26116890066E+03  0.44166734117E+03  0.25500000000E-02 0.  1.
<mgrwt>
<rscale>  0 0.30365466E+03</rscale>
<asrwt>0</asrwt>
<pdfrwt beam="1">  1       11 0.10000000E+01 0.15835822E+03</pdfrwt>
<pdfrwt beam="2">  1       -2 0.63953751E-01 0.30365466E+03</pdfrwt>
<totfact> 0.18727995E+01</totfact>
</mgrwt>
</event>
<event>
 5    1  0.6729100E-004  0.1515372E+03  0.7818608E-02  0.1469910E+00
         11   -1    0    0    0    0  0.00000000000E+00  0.00000000000E+00  0.10001807591E+04  0.10001807591E+04  0.51100000000E-03 0. -1.
          2   -1    0    0  501    0 -0.00000000000E+00 -0.00000000000E+00 -0.25169455792E+02  0.25169455921E+02  0.25500000000E-02 0. -1.
         11    1    1    2    0    0 -0.51206366078E+02 -0.13922679249E+03  0.44063638923E+03  0.46493722069E+03  0.51100000000E-03 0. -1.
         22    1    1    2    0    0 -0.13723855369E+02 -0.13770463773E+01  0.37193240214E+02  0.39668344817E+02  0.00000000000E+00 0. -1.
          2    1    1    2  501    0  0.64930221446E+02  0.14060383886E+03  0.49718167387E+03  0.52074464952E+03  0.25500000000E-02 0. -1.
<mgrwt>
<rscale>  0 0.45717786E+02</rscale>
<asrwt>0</asrwt>
<pdfrwt beam="1">  1       11 0.10000000E+01 0.15153716E+03</pdfrwt>
<pdfrwt beam="2">  1        2 0.38729238E-02 0.45717786E+02</pdfrwt>
<totfact> 0.22859129E+03</totfact>
</mgrwt>
</event>
<event>
 5    1  0.6729100E-004  0.2497854E+03  0.7818608E-02  0.1119946E+00
         11   -1    0    0    0    0  0.00000000000E+00  0.00000000000E+00  0.10019386984E+04  0.10019386984E+04  0.51100000000E-03 0. -1.
          2   -1    0    0  501    0 -0.00000000000E+00 -0.00000000000E+00 -0.19175033711E+04  0.19175033711E+04  0.25500000000E-02 0. -1.
         11    1    1    2    0    0  0.88181049711E+02  0.14868143204E+03  0.65137358788E+03  0.67392107605E+03  0.51100000000E-03 0. -1.
         22    1    1    2    0    0 -0.53616602486E+01  0.76331250886E+02  0.32732157680E+03  0.33614672675E+03  0.00000000000E+00 0.  1.
          2    1    1    2  501    0 -0.82819389463E+02 -0.22501268293E+03 -0.18942598373E+04  0.19093742667E+04  0.25500000000E-02 0. -1.
<mgrwt>
<rscale>  0 0.23977022E+03</rscale>
<asrwt>0</asrwt>
<pdfrwt beam="1">  1       11 0.10000000E+01 0.24978539E+03</pdfrwt>
<pdfrwt beam="2">  1        2 0.29557243E+00 0.23977022E+03</pdfrwt>
<totfact> 0.10366812E+01</totfact>
</mgrwt>
</event>
<event>
 5    1  0.6729100E-004  0.8929599E+02  0.7818608E-02  0.1304566E+00
         11   -1    0    0    0    0  0.00000000000E+00  0.00000000000E+00  0.10004620332E+04  0.10004620332E+04  0.51100000000E-03 0.  1.
         -2   -1    0    0    0  501 -0.00000000000E+00 -0.00000000000E+00 -0.20927332511E+02  0.20927332666E+02  0.25500000000E-02 0.  1.
         11    1    1    2    0    0 -0.82880950852E+02 -0.77504604569E+02  0.56154738407E+03  0.57289761764E+03  0.51100000000E-03 0.  1.
         22    1    1    2    0    0  0.50528006023E+02 -0.14154250387E+01  0.29202925206E+03  0.29637167017E+03  0.00000000000E+00 0.  1.
         -2    1    1    2    0  501  0.32352944829E+02  0.78920029608E+02  0.12595806455E+03  0.15212007804E+03  0.25500000000E-02 0.  1.
<mgrwt>
<rscale>  0 0.89295991E+02</rscale>
<asrwt>0</asrwt>
<pdfrwt beam="1">  1       11 0.10000000E+01 0.50547827E+02</pdfrwt>
<pdfrwt beam="2">  1       -2 0.32210771E-02 0.89295991E+02</pdfrwt>
<totfact> 0.27129553E+03</totfact>
</mgrwt>
</event>
<event>
 5    1  0.6729100E-004  0.3389941E+03  0.7818608E-02  0.1067225E+00
         11   -1    0    0    0    0  0.00000000000E+00  0.00000000000E+00  0.10000527588E+04  0.10000527588E+04  0.51100000000E-03 0.  1.
         -2   -1    0    0    0  501 -0.00000000000E+00 -0.00000000000E+00 -0.19802632009E+03  0.19802632011E+03  0.25500000000E-02 0.  1.
         11    1    1    2    0    0  0.35374625743E+03  0.48213439408E+02  0.49166652475E+03  0.60761576835E+03  0.51100000000E-03 0.  1.
         22    1    1    2    0    0 -0.31240389921E+02  0.34875392476E+02  0.24706785687E+03  0.25146526771E+03  0.00000000000E+00 0.  1.
         -2    1    1    2    0  501 -0.32250586751E+03 -0.83088831884E+02  0.63292057095E+02  0.33899804286E+03  0.25500000000E-02 0.  1.
<mgrwt>
<rscale>  0 0.33899410E+03</rscale>
<asrwt>0</asrwt>
<pdfrwt beam="1">  1       11 0.10000000E+01 0.46821522E+02</pdfrwt>
<pdfrwt beam="2">  1       -2 0.30467194E-01 0.33899410E+03</pdfrwt>
<totfact> 0.80337007E+01</totfact>
</mgrwt>
</event>
<event>
 5    1  0.6729100E-004  0.1420837E+03  0.7818608E-02  0.1220458E+00
         11   -1    0    0    0    0  0.00000000000E+00  0.00000000000E+00  0.10001145898E+04  0.10001145898E+04  0.51100000000E-03 0. -1.
          2   -1    0    0  501    0 -0.00000000000E+00 -0.00000000000E+00 -0.22280974852E+02  0.22280974998E+02  0.25500000000E-02 0. -1.
         11    1    1    2    0    0  0.79575985774E+02  0.80109108300E+02  0.21013175708E+03  0.23854802887E+03  0.51100000000E-03 0. -1.
         22    1    1    2    0    0  0.21206173090E+02  0.94585249815E+01  0.98787528316E+02  0.10147975770E+03  0.00000000000E+00 0.  1.
          2    1    1    2  501    0 -0.10078215886E+03 -0.89567633281E+02  0.66891432960E+03  0.68236777828E+03  0.25500000000E-02 0. -1.
<mgrwt>
<rscale>  0 0.13483102E+03</rscale>
<asrwt>0</asrwt>
<pdfrwt beam="1">  1       11 0.10000000E+01 0.14208368E+03</pdfrwt>
<pdfrwt beam="2">  1        2 0.34282350E-02 0.13483102E+03</pdfrwt>
<totfact> 0.30153241E+03</totfact>
</mgrwt>
</event>
<event>
 5    1  0.6729100E-004  0.1987895E+03  0.7818608E-02  0.1201151E+00
         11   -1    0    0    0    0  0.00000000000E+00  0.00000000000E+00  0.10001529616E+04  0.10001529616E+04  0.51100000000E-03 0.  1.
          2   -1    0    0  501    0 -0.00000000000E+00 -0.00000000000E+00 -0.11945115506E+03  0.11945115508E+03  0.25500000000E-02 0.  1.
         11    1    1    2    0    0 -0.21552436077E+03  0.17075111153E+03  0.18083116882E+03  0.32909968670E+03  0.51100000000E-03 0.  1.
         22    1    1    2    0    0  0.66538747627E+02 -0.15898812178E+03  0.17845755783E+03  0.24809620664E+03  0.00000000000E+00 0.  1.
          2    1    1    2  501    0  0.14898561314E+03 -0.11762989744E+02  0.52141307990E+03  0.54240822335E+03  0.25500000000E-02 0.  1.
<mgrwt>
<rscale>  0 0.14944926E+03</rscale>
<asrwt>0</asrwt>
<pdfrwt beam="1">  1       11 0.10000000E+01 0.19878948E+03</pdfrwt>
<pdfrwt beam="2">  1        2 0.18379911E-01 0.14944926E+03</pdfrwt>
<totfact> 0.37107139E+02</totfact>
</mgrwt>
</event>
<event>
 5    1  0.6729100E-004  0.9055821E+02  0.7818608E-02  0.1703560E+00
         11   -1    0    0    0    0  0.00000000000E+00  0.00000000000E+00  0.10003172364E+04  0.10003172364E+04  0.51100000000E-03 0. -1.
          2   -1    0    0  501    0 -0.00000000000E+00 -0.00000000000E+00 -0.87433900227E+03  0.87433900228E+03  0.25500000000E-02 0.  1.
         11    1    1    2    0    0  0.26042067651E+02  0.81522532986E+02  0.47924088562E+03  0.48682228700E+03  0.51100000000E-03 0. -1.
         22    1    1    2    0    0 -0.10161666971E+02 -0.97140914988E+02  0.51253072045E+03  0.52175411473E+03  0.00000000000E+00 0. -1.
          2    1    1    2  501    0 -0.15880400680E+02  0.15618382003E+02 -0.86579337196E+03  0.86607983692E+03  0.25500000000E-02 0.  1.
<mgrwt>
<rscale>  0 0.22273774E+02</rscale>
<asrwt>0</asrwt>
<pdfrwt beam="1">  1       11 0.10000000E+01 0.90558206E+02</pdfrwt>
<pdfrwt beam="2">  1        2 0.13455636E+00 0.22273774E+02</pdfrwt>
<totfact> 0.43924045E+01</totfact>
</mgrwt>
</event>
<event>
 5    1  0.6729100E-004  0.3231596E+03  0.7818608E-02  0.1186342E+00
         11   -1    0    0    0    0  0.00000000000E+00  0.00000000000E+00  0.10003227469E+04  0.10003227469E+04  0.51100000000E-03 0. -1.
          2   -1    0    0  501    0 -0.00000000000E+00 -0.00000000000E+00 -0.21589401456E+03  0.21589401457E+03  0.25500000000E-02 0. -1.
         11    1    1    2    0    0  0.38446541846E+03  0.33434063370E+02  0.60497736458E+03  0.71758560900E+03  0.51100000000E-03 0. -1.
         22    1    1    2    0    0 -0.25394984677E+03  0.62708501339E+02  0.20779445275E+03  0.33406798022E+03  0.00000000000E+00 0. -1.
          2    1    1    2  501    0 -0.13051557169E+03 -0.96142564709E+02 -0.28343084955E+02  0.16456317229E+03  0.25500000000E-02 0. -1.
<mgrwt>
<rscale>  0 0.16210400E+03</rscale>
<asrwt>0</asrwt>
<pdfrwt beam="1">  1       11 0.10000000E+01 0.32315959E+03</pdfrwt>
<pdfrwt beam="2">  1        2 0.33225183E-01 0.16210400E+03</pdfrwt>
<totfact> 0.19272499E+02</totfact>
</mgrwt>
</event>
<event>
 5    1  0.6729100E-004  0.1402804E+03  0.7818608E-02  0.1212952E+00
         11   -1    0    0    0    0  0.00000000000E+00  0.00000000000E+00  0.99999509611E+03  0.99999509611E+03  0.51100000000E-03 0. -1.
          2   -1    0    0  501    0 -0.00000000000E+00 -0.00000000000E+00 -0.35434631600E+02  0.35434631692E+02  0.25500000000E-02 0.  1.
         11    1    1    2    0    0 -0.44777635849E+02 -0.61407432063E+02  0.14710076484E+03  0.16557338072E+03  0.51100000000E-03 0. -1.
         22    1    1    2    0    0  0.10135054703E+03 -0.81730643859E+02  0.50544898670E+03  0.52194876155E+03  0.00000000000E+00 0. -1.
          2    1    1    2  501    0 -0.56572911183E+02  0.14313807592E+03  0.31201071297E+03  0.34790758554E+03  0.25500000000E-02 0.  1.
<mgrwt>
<rscale>  0 0.14028037E+03</rscale>
<asrwt>0</asrwt>
<pdfrwt beam="1">  1       11 0.10000000E+01 0.75999442E+02</pdfrwt>
<pdfrwt beam="2">  1        2 0.54514549E-02 0.14028037E+03</pdfrwt>
<totfact> 0.16418262E+03</totfact>
</mgrwt>
</event>
<event>
 5    1  0.6729100E-004  0.1203358E+03  0.7818608E-02  0.1242544E+00
         11   -1    0    0    0    0  0.00000000000E+00  0.00000000000E+00  0.10002565082E+04  0.10002565082E+04  0.51100000000E-03 0.  1.
          2   -1    0    0  501    0 -0.00000000000E+00 -0.00000000000E+00 -0.30485414995E+03  0.30485414996E+03  0.25500000000E-02 0.  1.
         11    1    1    2    0    0  0.96180934201E+01 -0.82577332126E+02  0.45491517990E+03  0.46244928847E+03  0.51100000000E-03 0.  1.
         22    1    1    2    0    0  0.10957910121E+03  0.62643529911E+02  0.52160889112E+03  0.53666342018E+03  0.00000000000E+00 0.  1.
          2    1    1    2  501    0 -0.11919719463E+03  0.19933802215E+02 -0.28112171280E+03  0.30599794949E+03  0.25500000000E-02 0.  1.
<mgrwt>
<rscale>  0 0.12033582E+03</rscale>
<asrwt>0</asrwt>
<pdfrwt beam="1">  1       11 0.10000000E+01 0.83135573E+02</pdfrwt>
<pdfrwt beam="2">  1        2 0.46912668E-01 0.12033582E+03</pdfrwt>
<totfact> 0.13304114E+02</totfact>
</mgrwt>
</event>
<event>
 5    1  0.6729100E-004  0.6387998E+02  0.7818608E-02  0.1405440E+00
         11   -1    0    0    0    0  0.00000000000E+00  0.00000000000E+00  0.99992024147E+03  0.99992024147E+03  0.51100000000E-03 0. -1.
          2   -1    0    0  501    0 -0.00000000000E+00 -0.00000000000E+00 -0.45609310702E+01  0.45609317830E+01  0.25500000000E-02 0. -1.
         11    1    1    2    0    0  0.29586674283E+02  0.10376783406E+02  0.16904830142E+03  0.17193131518E+03  0.51100000000E-03 0. -1.
         22    1    1    2    0    0  0.13119086599E+02  0.29198852272E+02  0.13298436844E+03  0.13678276813E+03  0.00000000000E+00 0. -1.
          2    1    1    2  501    0 -0.42705760882E+02 -0.39575635678E+02  0.69332664055E+03  0.69576708995E+03  0.25500000000E-02 0. -1.
<mgrwt>
<rscale>  0 0.58223818E+02</rscale>
<asrwt>0</asrwt>
<pdfrwt beam="1">  1       11 0.10000000E+01 0.63879978E+02</pdfrwt>
<pdfrwt beam="2">  1        2 0.70162577E-03 0.58223818E+02</pdfrwt>
<totfact> 0.22888301E+04</totfact>
</mgrwt>
</event>
<event>
 5    1  0.6729100E-004  0.4583358E+03  0.7818608E-02  0.1025265E+00
         11   -1    0    0    0    0  0.00000000000E+00  0.00000000000E+00  0.10000685792E+04  0.10000685792E+04  0.51100000000E-03 0.  1.
          2   -1    0    0  501    0 -0.00000000000E+00 -0.00000000000E+00 -0.91804672223E+03  0.91804672223E+03  0.25500000000E-02 0.  1.
         11    1    1    2    0    0 -0.92143212464E+02 -0.38444694629E+03  0.48165284230E+03  0.62312060359E+03  0.51100000000E-03 0.  1.
         22    1    1    2    0    0 -0.98809399483E+01 -0.69904417549E+02  0.38020603382E+03  0.38670517028E+03  0.00000000000E+00 0.  1.
          2    1    1    2  501    0  0.10202415241E+03  0.45435136384E+03 -0.77983701913E+03  0.90828952758E+03  0.25500000000E-02 0.  1.
<mgrwt>
<rscale>  0 0.45833578E+03</rscale>
<asrwt>0</asrwt>
<pdfrwt beam="1">  1       11 0.10000000E+01 0.70599296E+02</pdfrwt>
<pdfrwt beam="2">  1        2 0.14124764E+00 0.45833578E+03</pdfrwt>
<totfact> 0.36154697E+01</totfact>
</mgrwt>
</event>
<event>
 5    1  0.6729100E-004  0.2849278E+03  0.7818608E-02  0.1093028E+00
         11   -1    0    0    0    0  0.00000000000E+00  0.00000000000E+00  0.10010538815E+04  0.10010538815E+04  0.51100000000E-03 0.  1.
          2   -1    0    0  501    0 -0.00000000000E+00 -0.00000000000E+00 -0.17365699963E+04  0.17365699963E+04  0.25500000000E-02 0.  1.
         11    1    1    2    0    0  0.14498169849E+03  0.13006852231E+03  0.34533577528E+03  0.39647737777E+03  0.51100000000E-03 0.  1.
         22    1    1    2    0    0 -0.95890977311E+01  0.12442922066E+03  0.61165955937E+03  0.62426116195E+03  0.00000000000E+00 0.  1.
          2    1    1    2  501    0 -0.13539260076E+03 -0.25449774297E+03 -0.16925114495E+04  0.17168853381E+04  0.25500000000E-02 0.  1.
<mgrwt>
<rscale>  0 0.28492779E+03</rscale>
<asrwt>0</asrwt>
<pdfrwt beam="1">  1       11 0.10000000E+01 0.12479816E+03</pdfrwt>
<pdfrwt beam="2">  1        2 0.26744617E+00 0.28492779E+03</pdfrwt>
<totfact> 0.12730497E+01</totfact>
</mgrwt>
</event>
<event>
 5    1  0.6729100E-004  0.3191835E+03  0.7818608E-02  0.1518552E+00
         11   -1    0    0    0    0  0.00000000000E+00  0.00000000000E+00  0.10004616434E+04  0.10004616434E+04  0.51100000000E-03 0.  1.
          2   -1    0    0  501    0 -0.00000000000E+00 -0.00000000000E+00 -0.81373026669E+03  0.81373026669E+03  0.25500000000E-02 0. -1.
         11    1    1    2    0    0  0.27436432033E+03  0.75363086071E+02 -0.23360206288E+03  0.36813760850E+03  0.51100000000E-03 0.  1.
         22    1    1    2    0    0 -0.30864756953E+03 -0.93162901143E+02  0.90455578266E+03  0.96029360733E+03  0.00000000000E+00 0.  1.
          2    1    1    2  501    0  0.34283249197E+02  0.17799815072E+02 -0.48422234306E+03  0.48576069429E+03  0.25500000000E-02 0. -1.
<mgrwt>
<rscale>  0 0.38628676E+02</rscale>
<asrwt>0</asrwt>
<pdfrwt beam="1">  1       11 0.10000000E+01 0.31918352E+03</pdfrwt>
<pdfrwt beam="2">  1        2 0.12524706E+00 0.38628676E+02</pdfrwt>
<totfact> 0.46689778E+01</totfact>
</mgrwt>
</event>
<event>
 5    1  0.6729100E-004  0.1447850E+03  0.7818608E-02  0.1207032E+00
         11   -1    0    0    0    0  0.00000000000E+00  0.00000000000E+00  0.99993367237E+03  0.99993367238E+03  0.51100000000E-03 0. -1.
         -2   -1    0    0    0  501 -0.00000000000E+00 -0.00000000000E+00 -0.28847516636E+02  0.28847516749E+02  0.25500000000E-02 0. -1.
         11    1    1    2    0    0  0.56892082260E+02 -0.13744850170E+03  0.68472799465E+03  0.70070052540E+03  0.51100000000E-03 0. -1.
         22    1    1    2    0    0 -0.98219012114E+01  0.19871263204E+01  0.54826428528E+02  0.55734690091E+02  0.00000000000E+00 0. -1.
         -2    1    1    2    0  501 -0.47070181048E+02  0.13546137538E+03  0.23153173256E+03  0.27234597363E+03  0.25500000000E-02 0. -1.
<mgrwt>
<rscale>  0 0.14478505E+03</rscale>
<asrwt>0</asrwt>
<pdfrwt beam="1">  1       11 0.10000000E+01 0.10020899E+02</pdfrwt>
<pdfrwt beam="2">  1       -2 0.44377850E-02 0.14478505E+03</pdfrwt>
<totfact> 0.17764632E+03</totfact>
</mgrwt>
</event>
<event>
 5    1  0.6729100E-004  0.1830835E+03  0.7818608E-02  0.1164852E+00
         11   -1    0    0    0    0  0.00000000000E+00  0.00000000000E+00  0.10002051750E+04  0.10002051750E+04  0.51100000000E-03 0. -1.
          2   -1    0    0  501    0 -0.00000000000E+00 -0.00000000000E+00 -0.18936959278E+03  0.18936959280E+03  0.25500000000E-02 0. -1.
         11    1    1    2    0    0 -0.60708076626E+02  0.16135917365E+03  0.75588237568E+02  0.18824408396E+03  0.51100000000E-03 0. -1.
         22    1    1    2    0    0  0.13813641946E+03  0.33749515739E+02  0.77478724189E+03  0.78772836079E+03  0.00000000000E+00 0. -1.
          2    1    1    2  501    0 -0.77428342836E+02 -0.19510868939E+03 -0.39539897206E+02  0.21360232308E+03  0.25500000000E-02 0. -1.
<mgrwt>
<rscale>  0 0.18308354E+03</rscale>
<asrwt>0</asrwt>
<pdfrwt beam="1">  1       11 0.10000000E+01 0.14219951E+03</pdfrwt>
<pdfrwt beam="2">  1        2 0.29139760E-01 0.18308354E+03</pdfrwt>
<totfact> 0.22272793E+02</totfact>
</mgrwt>
</event>
<event>
 5    1  0.6729100E-004  0.1395732E+03  0.7818608E-02  0.1462723E+00
         11   -1    0    0    0    0  0.00000000000E+00  0.00000000000E+00  0.10005914032E+04  0.10005914032E+04  0.51100000000E-03 0. -1.
          2   -1    0    0  501    0 -0.00000000000E+00 -0.00000000000E+00 -0.22279027046E+02  0.22279027192E+02  0.25500000000E-02 0. -1.
         11    1    1    2    0    0 -0.13436520008E+03 -0.49210682188E+02  0.56502915834E+03  0.58286674979E+03  0.51100000000E-03 0. -1.
         22    1    1    2    0    0  0.12573836576E+02 -0.95184378619E+01  0.45115529827E+02  0.47792395391E+02  0.00000000000E+00 0. -1.
          2    1    1    2  501    0  0.12179136350E+03  0.58729120050E+02  0.36816768801E+03  0.39221128524E+03  0.25500000000E-02 0. -1.
<mgrwt>
<rscale>  0 0.46915985E+02</rscale>
<asrwt>0</asrwt>
<pdfrwt beam="1">  1       11 0.10000000E+01 0.13957319E+03</pdfrwt>
<pdfrwt beam="2">  1        2 0.34295696E-02 0.46915985E+02</pdfrwt>
<totfact> 0.26809040E+03</totfact>
</mgrwt>
</event>
<event>
 5    1  0.6729100E-004  0.5345827E+02  0.7818608E-02  0.1427534E+00
         11   -1    0    0    0    0  0.00000000000E+00  0.00000000000E+00  0.99996781302E+03  0.99996781302E+03  0.51100000000E-03 0. -1.
          2   -1    0    0  501    0 -0.00000000000E+00 -0.00000000000E+00 -0.59053130270E+01  0.59053135775E+01  0.25500000000E-02 0. -1.
         11    1    1    2    0    0 -0.31230683594E+02 -0.40023773964E+01  0.14230981285E+03  0.14575135490E+03  0.51100000000E-03 0. -1.
         22    1    1    2    0    0  0.18174486315E+02  0.54029573415E+02  0.26319287297E+03  0.26929536783E+03  0.00000000000E+00 0. -1.
          2    1    1    2  501    0  0.13056197278E+02 -0.50027196019E+02  0.58855981418E+03  0.59082640387E+03  0.25500000000E-02 0. -1.
<mgrwt>
<rscale>  0 0.53458272E+02</rscale>
<asrwt>0</asrwt>
<pdfrwt beam="1">  1       11 0.10000000E+01 0.31486118E+02</pdfrwt>
<pdfrwt beam="2">  1        2 0.90848047E-03 0.53458272E+02</pdfrwt>
<totfact> 0.15883619E+04</totfact>
</mgrwt>
</event>
<event>
 5    1  0.6729100E-004  0.1859447E+03  0.7818608E-02  0.1164013E+00
         11   -1    0    0    0    0  0.00000000000E+00  0.00000000000E+00  0.10000913551E+04  0.10000913551E+04  0.51100000000E-03 0. -1.
          2   -1    0    0  501    0 -0.00000000000E+00 -0.00000000000E+00 -0.35827569072E+02  0.35827569163E+02  0.25500000000E-02 0. -1.
         11    1    1    2    0    0 -0.17192701438E+03 -0.64823334583E+01  0.52774278243E+03  0.55507960089E+03  0.51100000000E-03 0. -1.
         22    1    1    2    0    0 -0.11916880601E+02 -0.40177425481E+00  0.67014024669E+02  0.68066533393E+02  0.00000000000E+00 0.  1.
          2    1    1    2  501    0  0.18384389498E+03  0.68841077131E+01  0.36950697892E+03  0.41277278997E+03  0.25500000000E-02 0. -1.
<mgrwt>
<rscale>  0 0.18397274E+03</rscale>
<asrwt>0</asrwt>
<pdfrwt beam="1">  1       11 0.10000000E+01 0.18594474E+03</pdfrwt>
<pdfrwt beam="2">  1        2 0.55124371E-02 0.18397274E+03</pdfrwt>
<totfact> 0.16516943E+03</totfact>
</mgrwt>
</event>
<event>
 5    1  0.6729100E-004  0.1891674E+03  0.7818608E-02  0.1159214E+00
         11   -1    0    0    0    0  0.00000000000E+00  0.00000000000E+00  0.10004242838E+04  0.10004242838E+04  0.51100000000E-03 0. -1.
          2   -1    0    0  501    0 -0.00000000000E+00 -0.00000000000E+00 -0.47885641459E+02  0.47885641527E+02  0.25500000000E-02 0. -1.
         11    1    1    2    0    0  0.16702575311E+03  0.11488464194E+03  0.49228119485E+03  0.53238788300E+03  0.51100000000E-03 0. -1.
         22    1    1    2    0    0 -0.42001930694E+02  0.17232917048E+02  0.14513657007E+03  0.15207156074E+03  0.00000000000E+00 0.  1.
          2    1    1    2  501    0 -0.12502382242E+03 -0.13211755898E+03  0.31512087738E+03  0.36385048156E+03  0.25500000000E-02 0. -1.
<mgrwt>
<rscale>  0 0.18916735E+03</rscale>
<asrwt>0</asrwt>
<pdfrwt beam="1">  1       11 0.10000000E+01 0.45399731E+02</pdfrwt>
<pdfrwt beam="2">  1        2 0.73701473E-02 0.18916735E+03</pdfrwt>
<totfact> 0.11369112E+03</totfact>
</mgrwt>
</event>
<event>
 5    1  0.6729100E-004  0.1631912E+03  0.7818608E-02  0.1408241E+00
         11   -1    0    0    0    0  0.00000000000E+00  0.00000000000E+00  0.99998875231E+03  0.99998875231E+03  0.51100000000E-03 0. -1.
          2   -1    0    0  501    0 -0.00000000000E+00 -0.00000000000E+00 -0.16895540216E+03  0.16895540218E+03  0.25500000000E-02 0. -1.
         11    1    1    2    0    0 -0.74692598860E+02 -0.14542057457E+03  0.93391482114E+03  0.94811551036E+03  0.51100000000E-03 0. -1.
         22    1    1    2    0    0  0.20132171708E+02 -0.27725507588E+01  0.13726939471E+02  0.24523870874E+02  0.00000000000E+00 0.  1.
          2    1    1    2  501    0  0.54560427152E+02  0.14819312533E+03 -0.11660841046E+03  0.19630477326E+03  0.25500000000E-02 0. -1.
<mgrwt>
<rscale>  0 0.57588206E+02</rscale>
<asrwt>0</asrwt>
<pdfrwt beam="1">  1       11 0.10000000E+01 0.16319115E+03</pdfrwt>
<pdfrwt beam="2">  1        2 0.25992846E-01 0.57588206E+02</pdfrwt>
<totfact> 0.24484866E+02</totfact>
</mgrwt>
</event>
<event>
 5    1  0.6729100E-004  0.1395505E+03  0.7818608E-02  0.1213935E+00
         11   -1    0    0    0    0  0.00000000000E+00  0.00000000000E+00  0.99996451254E+03  0.99996451254E+03  0.51100000000E-03 0.  1.
          2   -1    0    0  501    0 -0.00000000000E+00 -0.00000000000E+00 -0.23041748359E+02  0.23041748500E+02  0.25500000000E-02 0.  1.
         11    1    1    2    0    0 -0.12562087828E+03  0.68219453241E+02  0.58113689613E+03  0.59846018322E+03  0.51100000000E-03 0.  1.
         22    1    1    2    0    0 -0.40921183658E+00 -0.12640330864E+02  0.65153572381E+02  0.66369672387E+02  0.00000000000E+00 0. -1.
          2    1    1    2  501    0  0.12603009012E+03 -0.55579122377E+02  0.33063229567E+03  0.35817640543E+03  0.25500000000E-02 0.  1.
<mgrwt>
<rscale>  0 0.13955046E+03</rscale>
<asrwt>0</asrwt>
<pdfrwt beam="1">  1       11 0.10000000E+01 0.12646953E+02</pdfrwt>
<pdfrwt beam="2">  1        2 0.35447585E-02 0.13955046E+03</pdfrwt>
<totfact> 0.28931958E+03</totfact>
</mgrwt>
</event>
<event>
 5    1  0.6729100E-004  0.4247394E+03  0.7818608E-02  0.1035535E+00
         11   -1    0    0    0    0  0.00000000000E+00  0.00000000000E+00  0.10000071125E+04  0.10000071125E+04  0.51100000000E-03 0. -1.
          2   -1    0    0  501    0 -0.00000000000E+00 -0.00000000000E+00 -0.16678924163E+03  0.16678924165E+03  0.25500000000E-02 0. -1.
         11    1    1    2    0    0  0.26427922484E+03 -0.28642981762E+03  0.44284512718E+03  0.58991300695E+03  0.51100000000E-03 0. -1.
         22    1    1    2    0    0  0.19767457366E+01  0.98358881380E+02  0.80378997580E+02  0.12703999497E+03  0.00000000000E+00 0. -1.
          2    1    1    2  501    0 -0.26625597057E+03  0.18807093624E+03  0.30999374615E+03  0.44984335227E+03  0.25500000000E-02 0. -1.
<mgrwt>
<rscale>  0 0.42473935E+03</rscale>
<asrwt>0</asrwt>
<pdfrwt beam="1">  1       11 0.10000000E+01 0.38972497E+03</pdfrwt>
<pdfrwt beam="2">  1        2 0.25660065E-01 0.42473935E+03</pdfrwt>
<totfact> 0.26035226E+02</totfact>
</mgrwt>
</event>
<event>
 5    1  0.6729100E-004  0.1055143E+03  0.7818608E-02  0.1508996E+00
         11   -1    0    0    0    0  0.00000000000E+00  0.00000000000E+00  0.10002541937E+04  0.10002541937E+04  0.51100000000E-03 0.  1.
          2   -1    0    0  501    0 -0.00000000000E+00 -0.00000000000E+00 -0.13995195775E+02  0.13995196008E+02  0.25500000000E-02 0.  1.
         11    1    1    2    0    0  0.70897179614E+02 -0.76657134328E+02  0.58664136449E+03  0.59586140742E+03  0.51100000000E-03 0.  1.
         22    1    1    2    0    0 -0.91610882858E+01 -0.11982390309E+02  0.35140588045E+02  0.38240870077E+02  0.00000000000E+00 0. -1.
          2    1    1    2  501    0 -0.61736091328E+02  0.88639524637E+02  0.36447704540E+03  0.38014711222E+03  0.25500000000E-02 0.  1.
<mgrwt>
<rscale>  0 0.39893535E+02</rscale>
<asrwt>0</asrwt>
<pdfrwt beam="1">  1       11 0.10000000E+01 0.10551429E+03</pdfrwt>
<pdfrwt beam="2">  1        2 0.21536543E-02 0.39893535E+02</pdfrwt>
<totfact> 0.47959059E+03</totfact>
</mgrwt>
</event>
<event>
 5    1  0.6729100E-004  0.2062146E+03  0.7818608E-02  0.1144599E+00
         11   -1    0    0    0    0  0.00000000000E+00  0.00000000000E+00  0.10001629626E+04  0.10001629626E+04  0.51100000000E-03 0.  1.
          2   -1    0    0  501    0 -0.00000000000E+00 -0.00000000000E+00 -0.52384992757E+02  0.52384992819E+02  0.25500000000E-02 0.  1.
         11    1    1    2    0    0  0.14323474704E+03  0.15246796269E+03  0.59010278150E+03  0.62608622820E+03  0.51100000000E-03 0.  1.
         22    1    1    2    0    0  0.68348589368E+01 -0.13028277324E+02  0.80324526965E+02  0.81660767440E+02  0.00000000000E+00 0. -1.
          2    1    1    2  501    0 -0.15006960598E+03 -0.13943968536E+03  0.27735066139E+03  0.34480095979E+03  0.25500000000E-02 0.  1.
<mgrwt>
<rscale>  0 0.20621462E+03</rscale>
<asrwt>0</asrwt>
<pdfrwt beam="1">  1       11 0.10000000E+01 0.14712284E+02</pdfrwt>
<pdfrwt beam="2">  1        2 0.80605428E-02 0.20621462E+03</pdfrwt>
<totfact> 0.10196751E+03</totfact>
</mgrwt>
</event>
<event>
 5    1  0.6729100E-004  0.2259380E+03  0.7818608E-02  0.1129532E+00
         11   -1    0    0    0    0  0.00000000000E+00  0.00000000000E+00  0.10001380426E+04  0.10001380426E+04  0.51100000000E-03 0.  1.
          2   -1    0    0  501    0 -0.00000000000E+00 -0.00000000000E+00 -0.24657449582E+03  0.24657449583E+03  0.25500000000E-02 0.  1.
         11    1    1    2    0    0 -0.14835369740E+03  0.16280183815E+03  0.90626420957E+03  0.93264573960E+03  0.51100000000E-03 0.  1.
         22    1    1    2    0    0  0.45726982984E+01  0.11945305624E+02  0.23839905793E+02  0.27054408225E+02  0.00000000000E+00 0.  1.
          2    1    1    2  501    0  0.14378099910E+03 -0.17474714378E+03 -0.17654056863E+03  0.28701239057E+03  0.25500000000E-02 0.  1.
<mgrwt>
<rscale>  0 0.22593803E+03</rscale>
<asrwt>0</asrwt>
<pdfrwt beam="1">  1       11 0.10000000E+01 0.12790618E+02</pdfrwt>
<pdfrwt beam="2">  1        2 0.37939773E-01 0.22593803E+03</pdfrwt>
<totfact> 0.16759585E+02</totfact>
</mgrwt>
</event>
<event>
 5    1  0.6729100E-004  0.8391314E+02  0.7818608E-02  0.1318300E+00
         11   -1    0    0    0    0  0.00000000000E+00  0.00000000000E+00  0.10000657115E+04  0.10000657115E+04  0.51100000000E-03 0. -1.
         -2   -1    0    0    0  501 -0.00000000000E+00 -0.00000000000E+00 -0.26484598867E+02  0.26484598990E+02  0.25500000000E-02 0. -1.
         11    1    1    2    0    0  0.12256465456E+03  0.35387498868E+02  0.62252925253E+03  0.63546600214E+03  0.51100000000E-03 0. -1.
         22    1    1    2    0    0 -0.45220895050E+02 -0.24695059839E+02  0.28256621453E+03  0.28722541831E+03  0.00000000000E+00 0.  1.
         -2    1    1    2    0  501 -0.77343759506E+02 -0.10692439030E+02  0.68485645615E+02  0.10385889008E+03  0.25500000000E-02 0. -1.
<mgrwt>
<rscale>  0 0.83913139E+02</rscale>
<asrwt>0</asrwt>
<pdfrwt beam="1">  1       11 0.10000000E+01 0.51524512E+02</pdfrwt>
<pdfrwt beam="2">  1       -2 0.40748213E-02 0.83913139E+02</pdfrwt>
<totfact> 0.19102703E+03</totfact>
</mgrwt>
</event>
<event>
 5    1  0.6729100E-004  0.3350356E+03  0.7818608E-02  0.1068930E+00
         11   -1    0    0    0    0  0.00000000000E+00  0.00000000000E+00  0.10002139421E+04  0.10002139421E+04  0.51100000000E-03 0.  1.
          2   -1    0    0  501    0 -0.00000000000E+00 -0.00000000000E+00 -0.25896167640E+03  0.25896167642E+03  0.25500000000E-02 0.  1.
         11    1    1    2    0    0 -0.13837564896E+02 -0.34066597216E+03  0.76115050885E+03  0.83402330898E+03  0.51100000000E-03 0.  1.
         22    1    1    2    0    0  0.13718044224E+02  0.65256674491E+01  0.76015532483E+02  0.77518580042E+02  0.00000000000E+00 0.  1.
          2    1    1    2  501    0  0.11952067280E+00  0.33414030471E+03 -0.95913775639E+02  0.34763372950E+03  0.25500000000E-02 0.  1.
<mgrwt>
<rscale>  0 0.33503562E+03</rscale>
<asrwt>0</asrwt>
<pdfrwt beam="1">  1       11 0.10000000E+01 0.15191085E+02</pdfrwt>
<pdfrwt beam="2">  1        2 0.39848780E-01 0.33503562E+03</pdfrwt>
<totfact> 0.15929998E+02</totfact>
</mgrwt>
</event>
<event>
 5    1  0.6729100E-004  0.2359695E+03  0.7818608E-02  0.1122507E+00
         11   -1    0    0    0    0  0.00000000000E+00  0.00000000000E+00  0.10003029002E+04  0.10003029002E+04  0.51100000000E-03 0. -1.
          2   -1    0    0  501    0 -0.00000000000E+00 -0.00000000000E+00 -0.44832924848E+03  0.44832924848E+03  0.25500000000E-02 0. -1.
         11    1    1    2    0    0 -0.59757636268E+02 -0.24663461801E+03  0.77814276227E+03  0.81847771403E+03  0.51100000000E-03 0. -1.
         22    1    1    2    0    0 -0.19409769545E+02  0.25051490015E+02  0.16807156823E+03  0.17103323757E+03  0.00000000000E+00 0.  1.
          2    1    1    2  501    0  0.79167405814E+02  0.22158312799E+03 -0.39424067880E+03  0.45912119705E+03  0.25500000000E-02 0. -1.
<mgrwt>
<rscale>  0 0.23596951E+03</rscale>
<asrwt>0</asrwt>
<pdfrwt beam="1">  1       11 0.10000000E+01 0.31690950E+02</pdfrwt>
<pdfrwt beam="2">  1        2 0.68994621E-01 0.23596951E+03</pdfrwt>
<totfact> 0.87688857E+01</totfact>
</mgrwt>
</event>
<event>
 5    1  0.6729100E-004  0.2192820E+03  0.7818608E-02  0.1265743E+00
         11   -1    0    0    0    0  0.00000000000E+00  0.00000000000E+00  0.10007216041E+04  0.10007216041E+04  0.51100000000E-03 0. -1.
          2   -1    0    0  501    0 -0.00000000000E+00 -0.00000000000E+00 -0.21737093449E+04  0.21737093449E+04  0.25500000000E-02 0. -1.
         11    1    1    2    0    0 -0.24736524266E+03  0.37714470966E+02  0.85000408084E+03  0.88606934381E+03  0.51100000000E-03 0. -1.
         22    1    1    2    0    0  0.14067440795E+03 -0.48679577627E+02  0.89140460038E+02  0.17350795932E+03  0.00000000000E+00 0.  1.
          2    1    1    2  501    0  0.10669083471E+03  0.10965106660E+02 -0.21121322818E+04  0.21148536459E+04  0.25500000000E-02 0. -1.
<mgrwt>
<rscale>  0 0.10725282E+03</rscale>
<asrwt>0</asrwt>
<pdfrwt beam="1">  1       11 0.10000000E+01 0.21928201E+03</pdfrwt>
<pdfrwt beam="2">  1        2 0.33465813E+00 0.10725282E+03</pdfrwt>
<totfact> 0.83413735E+00</totfact>
</mgrwt>
</event>
<event>
 5    1  0.6729100E-004  0.4330150E+03  0.7818608E-02  0.1032912E+00
         11   -1    0    0    0    0  0.00000000000E+00  0.00000000000E+00  0.10002193853E+04  0.10002193853E+04  0.51100000000E-03 0. -1.
          2   -1    0    0  501    0 -0.00000000000E+00 -0.00000000000E+00 -0.25308377448E+03  0.25308377449E+03  0.25500000000E-02 0. -1.
         11    1    1    2    0    0  0.42523367029E+03 -0.37578581010E+02  0.95552854666E+02  0.43745419433E+03  0.51100000000E-03 0. -1.
         22    1    1    2    0    0  0.21450962556E+02  0.12273850624E+02  0.11303520917E+03  0.11570544376E+03  0.00000000000E+00 0.  1.
          2    1    1    2  501    0 -0.44668463285E+03  0.25304730386E+02  0.53854754700E+03  0.70014352171E+03  0.25500000000E-02 0. -1.
<mgrwt>
<rscale>  0 0.43301502E+03</rscale>
<asrwt>0</asrwt>
<pdfrwt beam="1">  1       11 0.10000000E+01 0.24714190E+02</pdfrwt>
<pdfrwt beam="2">  1        2 0.38944506E-01 0.43301502E+03</pdfrwt>
<totfact> 0.16355690E+02</totfact>
</mgrwt>
</event>
<event>
 5    1  0.6729100E-004  0.1609201E+03  0.7818608E-02  0.1187662E+00
         11   -1    0    0    0    0  0.00000000000E+00  0.00000000000E+00  0.10001203754E+04  0.10001203754E+04  0.51100000000E-03 0. -1.
          2   -1    0    0  501    0 -0.00000000000E+00 -0.00000000000E+00 -0.60104052989E+03  0.60104052989E+03  0.25500000000E-02 0. -1.
         11    1    1    2    0    0 -0.10158768105E+03 -0.62220905728E+02  0.63959009822E+03  0.65058972616E+03  0.51100000000E-03 0. -1.
         22    1    1    2    0    0  0.35492954070E+02 -0.85679995118E+02  0.33764457583E+03  0.35014949799E+03  0.00000000000E+00 0. -1.
          2    1    1    2  501    0  0.66094726979E+02  0.14790090085E+03 -0.57815482854E+03  0.60042168114E+03  0.25500000000E-02 0. -1.
<mgrwt>
<rscale>  0 0.16092009E+03</rscale>
<asrwt>0</asrwt>
<pdfrwt beam="1">  1       11 0.10000000E+01 0.92740559E+02</pdfrwt>
<pdfrwt beam="2">  1        2 0.92478902E-01 0.16092009E+03</pdfrwt>
<totfact> 0.63552714E+01</totfact>
</mgrwt>
</event>
<event>
 5    1  0.6729100E-004  0.8528352E+03  0.7818608E-02  0.9504690E-01
         11   -1    0    0    0    0  0.00000000000E+00  0.00000000000E+00  0.99982155276E+03  0.99982155276E+03  0.51100000000E-03 0. -1.
          2   -1    0    0  501    0 -0.00000000000E+00 -0.00000000000E+00 -0.79397593896E+03  0.79397593896E+03  0.25500000000E-02 0.  1.
         11    1    1    2    0    0  0.33079639165E+03 -0.59679343665E+03  0.30344777671E+03  0.74677253026E+03  0.51100000000E-03 0. -1.
         22    1    1    2    0    0  0.13875346293E+03 -0.98977220183E+02  0.81217860231E+02  0.18879977333E+03  0.00000000000E+00 0.  1.
          2    1    1    2  501    0 -0.46954985459E+03  0.69577065683E+03 -0.17882002314E+03  0.85822518813E+03  0.25500000000E-02 0.  1.
<mgrwt>
<rscale>  0 0.83938899E+03</rscale>
<asrwt>0</asrwt>
<pdfrwt beam="1">  1       11 0.10000000E+01 0.85283520E+03</pdfrwt>
<pdfrwt beam="2">  1        2 0.12212834E+00 0.83938899E+03</pdfrwt>
<totfact> 0.43016252E+01</totfact>
</mgrwt>
</event>
<event>
 5    1  0.6729100E-004  0.1418031E+03  0.7818608E-02  0.1215253E+00
         11   -1    0    0    0    0  0.00000000000E+00  0.00000000000E+00  0.10008923956E+04  0.10008923956E+04  0.51100000000E-03 0. -1.
         -2   -1    0    0    0  501 -0.00000000000E+00 -0.00000000000E+00 -0.20536047157E+02  0.20536047315E+02  0.25500000000E-02 0. -1.
         11    1    1    2    0    0 -0.44096630004E+02 -0.84380690892E+02  0.38394670396E+03  0.39557513225E+03  0.51100000000E-03 0. -1.
         22    1    1    2    0    0 -0.24231852210E+01 -0.46157153383E+02  0.21852895418E+03  0.22336351190E+03  0.00000000000E+00 0. -1.
         -2    1    1    2    0  501  0.46519815225E+02  0.13053784427E+03  0.37788069030E+03  0.40248979876E+03  0.25500000000E-02 0. -1.
<mgrwt>
<rscale>  0 0.13857930E+03</rscale>
<asrwt>0</asrwt>
<pdfrwt beam="1">  1       11 0.10000000E+01 0.14180313E+03</pdfrwt>
<pdfrwt beam="2">  1       -2 0.31622112E-02 0.13857930E+03</pdfrwt>
<totfact> 0.29247938E+03</totfact>
</mgrwt>
</event>
<event>
 5    1  0.6729100E-004  0.5104768E+03  0.7818608E-02  0.1011080E+00
         11   -1    0    0    0    0  0.00000000000E+00  0.00000000000E+00  0.10002379101E+04  0.10002379101E+04  0.51100000000E-03 0.  1.
          2   -1    0    0  501    0 -0.00000000000E+00 -0.00000000000E+00 -0.27200982113E+03  0.27200982115E+03  0.25500000000E-02 0.  1.
         11    1    1    2    0    0  0.47560265462E+03  0.19857294213E+03  0.34838560964E+03  0.62209455184E+03  0.51100000000E-03 0.  1.
         22    1    1    2    0    0 -0.16522584861E+02  0.13516792061E+02  0.21946726364E+02  0.30616307357E+02  0.00000000000E+00 0. -1.
          2    1    1    2  501    0 -0.45908006976E+03 -0.21208973420E+03  0.35789575291E+03  0.61953687199E+03  0.25500000000E-02 0.  1.
<mgrwt>
<rscale>  0 0.51047680E+03</rscale>
<asrwt>0</asrwt>
<pdfrwt beam="1">  1       11 0.10000000E+01 0.21347119E+02</pdfrwt>
<pdfrwt beam="2">  1        2 0.41857620E-01 0.51047680E+03</pdfrwt>
<totfact> 0.15115028E+02</totfact>
</mgrwt>
</event>
<event>
 5    1  0.6729100E-004  0.1396428E+03  0.7818608E-02  0.1213810E+00
         11   -1    0    0    0    0  0.00000000000E+00  0.00000000000E+00  0.10000079197E+04  0.10000079197E+04  0.51100000000E-03 0. -1.
          2   -1    0    0  501    0 -0.00000000000E+00 -0.00000000000E+00 -0.23624932199E+02  0.23624932337E+02  0.25500000000E-02 0. -1.
         11    1    1    2    0    0 -0.13468568453E+03  0.97389372421E+01  0.25187702400E+03  0.28579208480E+03  0.51100000000E-03 0. -1.
         22    1    1    2    0    0  0.66661578766E+01  0.79646269936E+01  0.50801393976E+02  0.51852237887E+02  0.00000000000E+00 0. -1.
          2    1    1    2  501    0  0.12801952665E+03 -0.17703564236E+02  0.67370456957E+03  0.68598852939E+03  0.25500000000E-02 0. -1.
<mgrwt>
<rscale>  0 0.13964278E+03</rscale>
<asrwt>0</asrwt>
<pdfrwt beam="1">  1       11 0.10000000E+01 0.13503740E+03</pdfrwt>
<pdfrwt beam="2">  1        2 0.36346336E-02 0.13964278E+03</pdfrwt>
<totfact> 0.27983745E+03</totfact>
</mgrwt>
</event>
<event>
 5    1  0.6729100E-004  0.2007644E+03  0.7818608E-02  0.1154393E+00
         11   -1    0    0    0    0  0.00000000000E+00  0.00000000000E+00  0.10002927477E+04  0.10002927477E+04  0.51100000000E-03 0.  1.
          2   -1    0    0  501    0 -0.00000000000E+00 -0.00000000000E+00 -0.39262258099E+02  0.39262258182E+02  0.25500000000E-02 0.  1.
         11    1    1    2    0    0 -0.15473578651E+03  0.99567399140E+02  0.39050987084E+03  0.43168830170E+03  0.51100000000E-03 0.  1.
         22    1    1    2    0    0 -0.13410042711E+02 -0.16452885778E+01  0.60463805607E+02  0.61954886882E+02  0.00000000000E+00 0. -1.
          2    1    1    2  501    0  0.16814582922E+03 -0.97922110562E+02  0.51005681319E+03  0.54591181734E+03  0.25500000000E-02 0.  1.
<mgrwt>
<rscale>  0 0.19458098E+03</rscale>
<asrwt>0</asrwt>
<pdfrwt beam="1">  1       11 0.10000000E+01 0.20076439E+03</pdfrwt>
<pdfrwt beam="2">  1        2 0.60421155E-02 0.19458098E+03</pdfrwt>
<totfact> 0.14713714E+03</totfact>
</mgrwt>
</event>
<event>
 5    1  0.6729100E-004  0.1467739E+03  0.7818608E-02  0.1204494E+00
         11   -1    0    0    0    0  0.00000000000E+00  0.00000000000E+00  0.10002025085E+04  0.10002025085E+04  0.51100000000E-03 0.  1.
          2   -1    0    0  501    0 -0.00000000000E+00 -0.00000000000E+00 -0.88884729388E+02  0.88884729424E+02  0.25500000000E-02 0.  1.
         11    1    1    2    0    0  0.93831395776E+02 -0.10604225803E+03  0.83951453314E+03  0.85137180049E+03  0.51100000000E-03 0.  1.
         22    1    1    2    0    0 -0.78256376825E+01 -0.13454329216E+02  0.88212071524E+02  0.89574712628E+02  0.00000000000E+00 0.  1.
          2    1    1    2  501    0 -0.86005758094E+02  0.11949658724E+03 -0.16408825534E+02  0.14814072482E+03  0.25500000000E-02 0.  1.
<mgrwt>
<rscale>  0 0.14677390E+03</rscale>
<asrwt>0</asrwt>
<pdfrwt beam="1">  1       11 0.10000000E+01 0.15564690E+02</pdfrwt>
<pdfrwt beam="2">  1        2 0.13677343E-01 0.14677390E+03</pdfrwt>
<totfact> 0.52333251E+02</totfact>
</mgrwt>
</event>
<event>
 5    1  0.6729100E-004  0.1461371E+03  0.7818608E-02  0.1205302E+00
         11   -1    0    0    0    0  0.00000000000E+00  0.00000000000E+00  0.99990898027E+03  0.99990898027E+03  0.51100000000E-03 0.  1.
          2   -1    0    0  501    0 -0.00000000000E+00 -0.00000000000E+00 -0.23309884613E+02  0.23309884753E+02  0.25500000000E-02 0.  1.
         11    1    1    2    0    0 -0.10766242998E+03  0.93760932972E+02  0.31762901348E+03  0.34823914424E+03  0.51100000000E-03 0.  1.
         22    1    1    2    0    0  0.31367672726E+01 -0.10504532358E+02  0.29247560865E+02  0.31234665446E+02  0.00000000000E+00 0.  1.
          2    1    1    2  501    0  0.10452566271E+03 -0.83256400614E+02  0.62972252131E+03  0.64374505533E+03  0.25500000000E-02 0.  1.
<mgrwt>
<rscale>  0 0.14613711E+03</rscale>
<asrwt>0</asrwt>
<pdfrwt beam="1">  1       11 0.10000000E+01 0.14276670E+03</pdfrwt>
<pdfrwt beam="2">  1        2 0.35858096E-02 0.14613711E+03</pdfrwt>
<totfact> 0.28614184E+03</totfact>
</mgrwt>
</event>
<event>
 5    1  0.6729100E-004  0.9938471E+02  0.7818608E-02  0.1281595E+00
         11   -1    0    0    0    0  0.00000000000E+00  0.00000000000E+00  0.10001029923E+04  0.10001029923E+04  0.51100000000E-03 0. -1.
          2   -1    0    0  501    0 -0.00000000000E+00 -0.00000000000E+00 -0.97329073996E+01  0.97329077336E+01  0.25500000000E-02 0. -1.
         11    1    1    2    0    0 -0.56500307650E+02  0.78966502504E+02  0.53596857451E+03  0.54469285487E+03  0.51100000000E-03 0. -1.
         22    1    1    2    0    0  0.46789595725E+02 -0.55517110787E+02  0.36786091268E+03  0.37495742017E+03  0.00000000000E+00 0. -1.
          2    1    1    2  501    0  0.97107119250E+01 -0.23449391717E+02  0.86540597667E+02  0.90185624958E+02  0.25500000000E-02 0. -1.
<mgrwt>
<rscale>  0 0.99384706E+02</rscale>
<asrwt>0</asrwt>
<pdfrwt beam="1">  1       11 0.10000000E+01 0.97097854E+02</pdfrwt>
<pdfrwt beam="2">  1        2 0.14975246E-02 0.99384706E+02</pdfrwt>
<totfact> 0.89108864E+03</totfact>
</mgrwt>
</event>
<event>
 5    1  0.6729100E-004  0.1994145E+03  0.7818608E-02  0.1150234E+00
         11   -1    0    0    0    0  0.00000000000E+00  0.00000000000E+00  0.10001304798E+04  0.10001304798E+04  0.51100000000E-03 0. -1.
          2   -1    0    0  501    0 -0.00000000000E+00 -0.00000000000E+00 -0.64832207955E+02  0.64832208005E+02  0.25500000000E-02 0. -1.
         11    1    1    2    0    0 -0.66368193108E+02  0.17131462858E+03  0.20547003774E+03  0.27562905404E+03  0.51100000000E-03 0. -1.
         22    1    1    2    0    0 -0.34214919315E+02  0.37726558275E+02  0.26481141033E+03  0.26966467500E+03  0.00000000000E+00 0.  1.
          2    1    1    2  501    0  0.10058311242E+03 -0.20904118685E+03  0.46501682380E+03  0.51966895879E+03  0.25500000000E-02 0. -1.
<mgrwt>
<rscale>  0 0.19941451E+03</rscale>
<asrwt>0</asrwt>
<pdfrwt beam="1">  1       11 0.10000000E+01 0.50930874E+02</pdfrwt>
<pdfrwt beam="2">  1        2 0.99754870E-02 0.19941451E+03</pdfrwt>
<totfact> 0.77896002E+02</totfact>
</mgrwt>
</event>
<event>
 5    1  0.6729100E-004  0.1003461E+03  0.7818608E-02  0.1298905E+00
         11   -1    0    0    0    0  0.00000000000E+00  0.00000000000E+00  0.10001028735E+04  0.10001028735E+04  0.51100000000E-03 0.  1.
          2   -1    0    0  501    0 -0.00000000000E+00 -0.00000000000E+00 -0.24809869495E+02  0.24809869626E+02  0.25500000000E-02 0.  1.
         11    1    1    2    0    0 -0.94149979137E+02  0.80621223633E+02  0.35670241351E+03  0.37762496220E+03  0.51100000000E-03 0.  1.
         22    1    1    2    0    0  0.43319433835E+01 -0.98852198351E+02  0.32070758257E+03  0.33562460632E+03  0.00000000000E+00 0.  1.
          2    1    1    2  501    0  0.89818035754E+02  0.18230974718E+02  0.29788300789E+03  0.31166317457E+03  0.25500000000E-02 0.  1.
<mgrwt>
<rscale>  0 0.91649594E+02</rscale>
<asrwt>0</asrwt>
<pdfrwt beam="1">  1       11 0.10000000E+01 0.10034614E+03</pdfrwt>
<pdfrwt beam="2">  1        2 0.38172956E-02 0.91649594E+02</pdfrwt>
<totfact> 0.25169851E+03</totfact>
</mgrwt>
</event>
<event>
 5    1  0.6729100E-004  0.2229775E+03  0.7818608E-02  0.1215516E+00
         11   -1    0    0    0    0  0.00000000000E+00  0.00000000000E+00  0.10001028939E+04  0.10001028939E+04  0.51100000000E-03 0. -1.
          2   -1    0    0  501    0 -0.00000000000E+00 -0.00000000000E+00 -0.24985855674E+03  0.24985855675E+03  0.25500000000E-02 0. -1.
         11    1    1    2    0    0  0.12677026726E+03  0.23861697001E+03  0.39357473653E+03  0.47739902835E+03  0.51100000000E-03 0. -1.
         22    1    1    2    0    0 -0.17970380905E+03 -0.11075348594E+03  0.51838554904E+03  0.55971722422E+03  0.00000000000E+00 0. -1.
          2    1    1    2  501    0  0.52933541787E+02 -0.12786348407E+03 -0.16171594836E+03  0.21284519813E+03  0.25500000000E-02 0. -1.
<mgrwt>
<rscale>  0 0.13838725E+03</rscale>
<asrwt>0</asrwt>
<pdfrwt beam="1">  1       11 0.10000000E+01 0.22297748E+03</pdfrwt>
<pdfrwt beam="2">  1        2 0.38443732E-01 0.13838725E+03</pdfrwt>
<totfact> 0.16445789E+02</totfact>
</mgrwt>
</event>
<event>
 5    1  0.6729100E-004  0.1037189E+03  0.7818608E-02  0.1413500E+00
         11   -1    0    0    0    0  0.00000000000E+00  0.00000000000E+00  0.99987183123E+03  0.99987183123E+03  0.51100000000E-03 0. -1.
         -2   -1    0    0    0  501 -0.00000000000E+00 -0.00000000000E+00 -0.18726818826E+02  0.18726819000E+02  0.25500000000E-02 0.  1.
         11    1    1    2    0    0 -0.22542901398E+02  0.94740951186E+02  0.58383274303E+03  0.59189923304E+03  0.51100000000E-03 0. -1.
         22    1    1    2    0    0 -0.26170243203E+02  0.16032876727E+02  0.47547496392E+02  0.56592395060E+02  0.00000000000E+00 0.  1.
         -2    1    1    2    0  501  0.48713144601E+02 -0.11077382791E+03  0.34976477299E+03  0.37010702214E+03  0.25500000000E-02 0.  1.
<mgrwt>
<rscale>  0 0.56420133E+02</rscale>
<asrwt>0</asrwt>
<pdfrwt beam="1">  1       11 0.10000000E+01 0.10371887E+03</pdfrwt>
<pdfrwt beam="2">  1       -2 0.28806797E-02 0.56420133E+02</pdfrwt>
<totfact> 0.30099116E+03</totfact>
</mgrwt>
</event>
<event>
 5    1  0.6729100E-004  0.2402359E+03  0.7818608E-02  0.1119636E+00
         11   -1    0    0    0    0  0.00000000000E+00  0.00000000000E+00  0.10010881874E+04  0.10010881874E+04  0.51100000000E-03 0. -1.
          2   -1    0    0  501    0 -0.00000000000E+00 -0.00000000000E+00 -0.18125217782E+04  0.18125217782E+04  0.25500000000E-02 0. -1.
         11    1    1    2    0    0 -0.18724259026E+03  0.14846445365E+03  0.96004439893E+03  0.98933650975E+03  0.51100000000E-03 0. -1.
         22    1    1    2    0    0 -0.12911638481E+02 -0.15573529991E+02  0.12769734801E+02  0.23923030149E+02  0.00000000000E+00 0.  1.
          2    1    1    2  501    0  0.20015422874E+03 -0.13289092366E+03 -0.17842477245E+04  0.18003504257E+04  0.25500000000E-02 0. -1.
<mgrwt>
<rscale>  0 0.24023594E+03</rscale>
<asrwt>0</asrwt>
<pdfrwt beam="1">  1       11 0.10000000E+01 0.20229811E+02</pdfrwt>
<pdfrwt beam="2">  1        2 0.27915294E+00 0.24023594E+03</pdfrwt>
<totfact> 0.11786301E+01</totfact>
</mgrwt>
</event>
<event>
 5    1  0.6729100E-004  0.1378192E+03  0.7818608E-02  0.1702637E+00
         11   -1    0    0    0    0  0.00000000000E+00  0.00000000000E+00  0.10003278671E+04  0.10003278671E+04  0.51100000000E-03 0. -1.
          2   -1    0    0  501    0 -0.00000000000E+00 -0.00000000000E+00 -0.16913667585E+03  0.16913667587E+03  0.25500000000E-02 0.  1.
         11    1    1    2    0    0  0.14628263729E+03  0.39243331976E+02  0.43651634014E+03  0.46204454794E+03  0.51100000000E-03 0. -1.
         22    1    1    2    0    0 -0.12398739610E+03 -0.38030329835E+02  0.54256724267E+03  0.55785158708E+03  0.00000000000E+00 0. -1.
          2    1    1    2  501    0 -0.22295241188E+02 -0.12130021412E+01 -0.14789239158E+03  0.14956840792E+03  0.25500000000E-02 0.  1.
<mgrwt>
<rscale>  0 0.22328214E+02</rscale>
<asrwt>0</asrwt>
<pdfrwt beam="1">  1       11 0.10000000E+01 0.13781924E+03</pdfrwt>
<pdfrwt beam="2">  1        2 0.26029558E-01 0.22328214E+02</pdfrwt>
<totfact> 0.23528704E+02</totfact>
</mgrwt>
</event>
<event>
 5    1  0.6729100E-004  0.1307273E+03  0.7818608E-02  0.1233041E+00
         11   -1    0    0    0    0  0.00000000000E+00  0.00000000000E+00  0.10004035823E+04  0.10004035823E+04  0.51100000000E-03 0.  1.
          2   -1    0    0  501    0 -0.00000000000E+00 -0.00000000000E+00 -0.18512504015E+02  0.18512504190E+02  0.25500000000E-02 0.  1.
         11    1    1    2    0    0  0.73809284902E+02  0.83385786804E+02  0.25451661820E+03  0.27781236279E+03  0.51100000000E-03 0.  1.
         22    1    1    2    0    0  0.13575394214E+02  0.78131958067E+01  0.76421950666E+02  0.78010588387E+02  0.00000000000E+00 0. -1.
          2    1    1    2  501    0 -0.87384679116E+02 -0.91198982611E+02  0.65095250938E+03  0.66309313528E+03  0.25500000000E-02 0.  1.
<mgrwt>
<rscale>  0 0.12630652E+03</rscale>
<asrwt>0</asrwt>
<pdfrwt beam="1">  1       11 0.10000000E+01 0.13072734E+03</pdfrwt>
<pdfrwt beam="2">  1        2 0.28492269E-02 0.12630652E+03</pdfrwt>
<totfact> 0.38380355E+03</totfact>
</mgrwt>
</event>
<event>
 5    1  0.6729100E-004  0.1307874E+03  0.7818608E-02  0.1392424E+00
         11   -1    0    0    0    0  0.00000000000E+00  0.00000000000E+00  0.10000675569E+04  0.10000675569E+04  0.51100000000E-03 0.  1.
          2   -1    0    0  501    0 -0.00000000000E+00 -0.00000000000E+00 -0.25908671800E+02  0.25908671926E+02  0.25500000000E-02 0.  1.
         11    1    1    2    0    0 -0.12523862188E+03 -0.22258465396E+02  0.22244448109E+03  0.25624538798E+03  0.51100000000E-03 0.  1.
         22    1    1    2    0    0 -0.76649219613E+01  0.27697552186E+02  0.80820965523E+02  0.85778399925E+02  0.00000000000E+00 0. -1.
          2    1    1    2  501    0  0.13290354384E+03 -0.54390867900E+01  0.67089343851E+03  0.68395244095E+03  0.25500000000E-02 0.  1.
<mgrwt>
<rscale>  0 0.61307758E+02</rscale>
<asrwt>0</asrwt>
<pdfrwt beam="1">  1       11 0.10000000E+01 0.13078741E+03</pdfrwt>
<pdfrwt beam="2">  1        2 0.39862187E-02 0.61307758E+02</pdfrwt>
<totfact> 0.22793130E+03</totfact>
</mgrwt>
</event>
<event>
 5    1  0.6729100E-004  0.1094939E+03  0.7818608E-02  0.1406719E+00
         11   -1    0    0    0    0  0.00000000000E+00  0.00000000000E+00  0.10006320406E+04  0.10006320406E+04  0.51100000000E-03 0. -1.
          2   -1    0    0  501    0 -0.00000000000E+00 -0.00000000000E+00 -0.17565842984E+02  0.17565843169E+02  0.25500000000E-02 0.  1.
         11    1    1    2    0    0 -0.48449390171E+02  0.10429837062E+03  0.58756113422E+03  0.59870992974E+03  0.51100000000E-03 0. -1.
         22    1    1    2    0    0 -0.18390908221E+02 -0.24521267482E+02  0.49998130302E+02  0.58645810573E+02  0.00000000000E+00 0.  1.
          2    1    1    2  501    0  0.66840298392E+02 -0.79777103135E+02  0.34550693313E+03  0.36084214349E+03  0.25500000000E-02 0.  1.
<mgrwt>
<rscale>  0 0.57932364E+02</rscale>
<asrwt>0</asrwt>
<pdfrwt beam="1">  1       11 0.10000000E+01 0.10949390E+03</pdfrwt>
<pdfrwt beam="2">  1        2 0.27041454E-02 0.57932364E+02</pdfrwt>
<totfact> 0.37536933E+03</totfact>
</mgrwt>
</event>
<event>
 5    1  0.6729100E-004  0.2030829E+03  0.7818608E-02  0.1147164E+00
         11   -1    0    0    0    0  0.00000000000E+00  0.00000000000E+00  0.10002429745E+04  0.10002429745E+04  0.51100000000E-03 0.  1.
          2   -1    0    0  501    0 -0.00000000000E+00 -0.00000000000E+00 -0.19249737666E+03  0.19249737668E+03  0.25500000000E-02 0.  1.
         11    1    1    2    0    0  0.12010736107E+03  0.21790698928E+03  0.77344757248E+03  0.81248408079E+03  0.51100000000E-03 0.  1.
         22    1    1    2    0    0 -0.55047470459E+02 -0.28915624726E+02  0.14069711198E+03  0.15382462312E+03  0.00000000000E+00 0.  1.
          2    1    1    2  501    0 -0.65059890611E+02 -0.18899136456E+03 -0.10639908663E+03  0.22643164727E+03  0.25500000000E-02 0.  1.
<mgrwt>
<rscale>  0 0.20308288E+03</rscale>
<asrwt>0</asrwt>
<pdfrwt beam="1">  1       11 0.10000000E+01 0.62179879E+02</pdfrwt>
<pdfrwt beam="2">  1        2 0.29622176E-01 0.20308288E+03</pdfrwt>
<totfact> 0.21914894E+02</totfact>
</mgrwt>
</event>
<event>
 5    1  0.6729100E-004  0.2481460E+03  0.7818608E-02  0.1114482E+00
         11   -1    0    0    0    0  0.00000000000E+00  0.00000000000E+00  0.10004258140E+04  0.10004258140E+04  0.51100000000E-03 0. -1.
         -2   -1    0    0    0  501 -0.00000000000E+00 -0.00000000000E+00 -0.21939162588E+03  0.21939162589E+03  0.25500000000E-02 0.  1.
         11    1    1    2    0    0 -0.23307525244E+03 -0.11822839326E+03  0.82007997773E+03  0.86071667588E+03  0.51100000000E-03 0. -1.
         22    1    1    2    0    0  0.23303613257E+01  0.29979898141E+02  0.79565098883E+02  0.85057802915E+02  0.00000000000E+00 0.  1.
         -2    1    1    2    0  501  0.23074489111E+03  0.88248495118E+02 -0.11861088847E+03  0.27404296111E+03  0.25500000000E-02 0.  1.
<mgrwt>
<rscale>  0 0.24814595E+03</rscale>
<asrwt>0</asrwt>
<pdfrwt beam="1">  1       11 0.10000000E+01 0.30070332E+02</pdfrwt>
<pdfrwt beam="2">  1       -2 0.33766929E-01 0.24814595E+03</pdfrwt>
<totfact> 0.66254850E+01</totfact>
</mgrwt>
</event>
<event>
 5    1  0.6729100E-004  0.1226011E+03  0.7818608E-02  0.1259090E+00
         11   -1    0    0    0    0  0.00000000000E+00  0.00000000000E+00  0.10001481564E+04  0.10001481564E+04  0.51100000000E-03 0.  1.
          2   -1    0    0  501    0 -0.00000000000E+00 -0.00000000000E+00 -0.14176143313E+02  0.14176143542E+02  0.25500000000E-02 0.  1.
         11    1    1    2    0    0 -0.76520304488E+02  0.42099308032E+02  0.48489360506E+03  0.49269617104E+03  0.51100000000E-03 0.  1.
         22    1    1    2    0    0 -0.30715429149E+02 -0.14210378610E+02  0.13259839304E+03  0.13684921003E+03  0.00000000000E+00 0. -1.
          2    1    1    2  501    0  0.10723573364E+03 -0.27888929422E+02  0.36848001494E+03  0.38477891882E+03  0.25500000000E-02 0.  1.
<mgrwt>
<rscale>  0 0.11080296E+03</rscale>
<asrwt>0</asrwt>
<pdfrwt beam="1">  1       11 0.10000000E+01 0.12260106E+03</pdfrwt>
<pdfrwt beam="2">  1        2 0.21812682E-02 0.11080296E+03</pdfrwt>
<totfact> 0.54225820E+03</totfact>
</mgrwt>
</event>
<event>
 5    1  0.6729100E-004  0.1526935E+03  0.7818608E-02  0.1411042E+00
         11   -1    0    0    0    0  0.00000000000E+00  0.00000000000E+00  0.10004276059E+04  0.10004276059E+04  0.51100000000E-03 0.  1.
          2   -1    0    0  501    0 -0.00000000000E+00 -0.00000000000E+00 -0.20636221166E+04  0.20636221166E+04  0.25500000000E-02 0.  1.
         11    1    1    2    0    0 -0.32645741474E+02  0.16838361229E+03  0.26303301966E+03  0.31401457730E+03  0.51100000000E-03 0.  1.
         22    1    1    2    0    0 -0.20396642671E+02 -0.14761903958E+03  0.70370130692E+03  0.71930725927E+03  0.00000000000E+00 0.  1.
          2    1    1    2  501    0  0.53042384145E+02 -0.20764572708E+02 -0.20299288373E+04  0.20307278859E+04  0.25500000000E-02 0.  1.
<mgrwt>
<rscale>  0 0.56961935E+02</rscale>
<asrwt>0</asrwt>
<pdfrwt beam="1">  1       11 0.10000000E+01 0.15269348E+03</pdfrwt>
<pdfrwt beam="2">  1        2 0.31761607E+00 0.56961935E+02</pdfrwt>
<totfact> 0.10220278E+01</totfact>
</mgrwt>
</event>
<event>
 5    1  0.6729100E-004  0.2336426E+03  0.7818608E-02  0.1124102E+00
         11   -1    0    0    0    0  0.00000000000E+00  0.00000000000E+00  0.10005034821E+04  0.10005034821E+04  0.51100000000E-03 0. -1.
          2   -1    0    0  501    0 -0.00000000000E+00 -0.00000000000E+00 -0.52250665409E+03  0.52250665410E+03  0.25500000000E-02 0. -1.
         11    1    1    2    0    0  0.54090636799E+02  0.27712860848E+03  0.65823379853E+03  0.71623864470E+03  0.51100000000E-03 0. -1.
         22    1    1    2    0    0  0.49203714738E+02 -0.69312414889E+02  0.27930608172E+03  0.29195394104E+03  0.00000000000E+00 0.  1.
          2    1    1    2  501    0 -0.10329435154E+03 -0.20781619360E+03 -0.45954305225E+03  0.51481755046E+03  0.25500000000E-02 0. -1.
<mgrwt>
<rscale>  0 0.23364259E+03</rscale>
<asrwt>0</asrwt>
<pdfrwt beam="1">  1       11 0.10000000E+01 0.85001273E+02</pdfrwt>
<pdfrwt beam="2">  1        2 0.80426110E-01 0.23364259E+03</pdfrwt>
<totfact> 0.73924868E+01</totfact>
</mgrwt>
</event>
<event>
 5    1  0.6729100E-004  0.1868972E+03  0.7818608E-02  0.1163905E+00
         11   -1    0    0    0    0  0.00000000000E+00  0.00000000000E+00  0.10004744637E+04  0.10004744637E+04  0.51100000000E-03 0. -1.
          2   -1    0    0  501    0 -0.00000000000E+00 -0.00000000000E+00 -0.58042136888E+02  0.58042136944E+02  0.25500000000E-02 0. -1.
         11    1    1    2    0    0 -0.77829836665E+02  0.15363837443E+03  0.72862213419E+03  0.74870050622E+03  0.51100000000E-03 0. -1.
         22    1    1    2    0    0  0.15238690975E+01  0.13889016090E+02  0.82551703522E+02  0.83725806651E+02  0.00000000000E+00 0.  1.
          2    1    1    2  501    0  0.76305967568E+02 -0.16752739052E+03  0.13125848910E+03  0.22609028778E+03  0.25500000000E-02 0. -1.
<mgrwt>
<rscale>  0 0.18408701E+03</rscale>
<asrwt>0</asrwt>
<pdfrwt beam="1">  1       11 0.10000000E+01 0.18689722E+03</pdfrwt>
<pdfrwt beam="2">  1        2 0.89337960E-02 0.18408701E+03</pdfrwt>
<totfact> 0.88990241E+02</totfact>
</mgrwt>
</event>
<event>
 5    1  0.6729100E-004  0.9252689E+02  0.7818608E-02  0.1296845E+00
         11   -1    0    0    0    0  0.00000000000E+00  0.00000000000E+00  0.10004925554E+04  0.10004925554E+04  0.51100000000E-03 0. -1.
          2   -1    0    0  501    0 -0.00000000000E+00 -0.00000000000E+00 -0.25770949027E+03  0.25770949029E+03  0.25500000000E-02 0.  1.
         11    1    1    2    0    0 -0.48116253583E+01  0.70376042539E+02  0.39174675792E+03  0.39804705933E+03  0.51100000000E-03 0. -1.
         22    1    1    2    0    0  0.92776155378E+02 -0.40891052640E+02  0.59269261776E+03  0.60130194773E+03  0.00000000000E+00 0. -1.
          2    1    1    2  501    0 -0.87964530019E+02 -0.29484989899E+02 -0.24165631055E+03  0.25885303863E+03  0.25500000000E-02 0.  1.
<mgrwt>
<rscale>  0 0.92526892E+02</rscale>
<asrwt>0</asrwt>
<pdfrwt beam="1">  1       11 0.10000000E+01 0.70540337E+02</pdfrwt>
<pdfrwt beam="2">  1        2 0.39667141E-01 0.92526892E+02</pdfrwt>
<totfact> 0.15834782E+02</totfact>
</mgrwt>
</event>
<event>
 5    1  0.6729100E-004  0.4901681E+03  0.7818608E-02  0.1019735E+00
         11   -1    0    0    0    0  0.00000000000E+00  0.00000000000E+00  0.10004208606E+04  0.10004208606E+04  0.51100000000E-03 0. -1.
          2   -1    0    0  501    0 -0.00000000000E+00 -0.00000000000E+00 -0.14014334419E+04  0.14014334419E+04  0.25500000000E-02 0. -1.
         11    1    1    2    0    0 -0.93980830705E+02  0.39190799076E+03  0.71138892498E+03  0.81761755873E+03  0.51100000000E-03 0. -1.
         22    1    1    2    0    0  0.28271590764E+02  0.81377154349E+02  0.18368109231E+03  0.20287993436E+03  0.00000000000E+00 0. -1.
          2    1    1    2  501    0  0.65709239941E+02 -0.47328514511E+03 -0.12960825986E+04  0.13813568095E+04  0.25500000000E-02 0. -1.
<mgrwt>
<rscale>  0 0.47782479E+03</rscale>
<asrwt>0</asrwt>
<pdfrwt beam="1">  1       11 0.10000000E+01 0.49016813E+03</pdfrwt>
<pdfrwt beam="2">  1        2 0.21569588E+00 0.47782479E+03</pdfrwt>
<totfact> 0.18597666E+01</totfact>
</mgrwt>
</event>
<event>
 5    1  0.6729100E-004  0.1259026E+03  0.7818608E-02  0.1233665E+00
         11   -1    0    0    0    0  0.00000000000E+00  0.00000000000E+00  0.10003830552E+04  0.10003830552E+04  0.51100000000E-03 0.  1.
          2   -1    0    0  501    0 -0.00000000000E+00 -0.00000000000E+00 -0.11831497706E+03  0.11831497709E+03  0.25500000000E-02 0.  1.
         11    1    1    2    0    0 -0.64790509520E+02 -0.14848375141E+01  0.21599481976E+03  0.22550782033E+03  0.51100000000E-03 0.  1.
         22    1    1    2    0    0  0.14755760934E+03 -0.90680808500E+02  0.73245319012E+03  0.75265126906E+03  0.00000000000E+00 0.  1.
          2    1    1    2  501    0 -0.82767099820E+02  0.92165646014E+02 -0.66379931762E+02  0.14053894288E+03  0.25500000000E-02 0.  1.
<mgrwt>
<rscale>  0 0.12590265E+03</rscale>
<asrwt>0</asrwt>
<pdfrwt beam="1">  1       11 0.10000000E+01 0.64807522E+02</pdfrwt>
<pdfrwt beam="2">  1        2 0.18209276E-01 0.12590265E+03</pdfrwt>
<totfact> 0.37276802E+02</totfact>
</mgrwt>
</event>
<event>
 5    1  0.6729100E-004  0.1106512E+03  0.7818608E-02  0.1259369E+00
         11   -1    0    0    0    0  0.00000000000E+00  0.00000000000E+00  0.10000512620E+04  0.10000512620E+04  0.51100000000E-03 0. -1.
          2   -1    0    0  501    0 -0.00000000000E+00 -0.00000000000E+00 -0.43357372600E+02  0.43357372675E+02  0.25500000000E-02 0. -1.
         11    1    1    2    0    0  0.84701228706E+02  0.74556412342E+02  0.64043495149E+03  0.65029984150E+03  0.51100000000E-03 0. -1.
         22    1    1    2    0    0 -0.41287480435E+02  0.28349502557E+02  0.26592838853E+03  0.27060350729E+03  0.00000000000E+00 0. -1.
          2    1    1    2  501    0 -0.43413748271E+02 -0.10290591490E+03  0.50330549378E+02  0.12250528588E+03  0.25500000000E-02 0. -1.
<mgrwt>
<rscale>  0 0.11065117E+03</rscale>
<asrwt>0</asrwt>
<pdfrwt beam="1">  1       11 0.10000000E+01 0.50083434E+02</pdfrwt>
<pdfrwt beam="2">  1        2 0.66707068E-02 0.11065117E+03</pdfrwt>
<totfact> 0.12442368E+03</totfact>
</mgrwt>
</event>
<event>
 5    1  0.6729100E-004  0.5748770E+03  0.7818608E-02  0.9958944E-01
         11   -1    0    0    0    0  0.00000000000E+00  0.00000000000E+00  0.10003359394E+04  0.10003359394E+04  0.51100000000E-03 0. -1.
          2   -1    0    0  501    0 -0.00000000000E+00 -0.00000000000E+00 -0.10515648489E+04  0.10515648489E+04  0.25500000000E-02 0. -1.
         11    1    1    2    0    0 -0.22368644388E+03 -0.50568569027E+03  0.68368543498E+03  0.87930621317E+03  0.51100000000E-03 0. -1.
         22    1    1    2    0    0 -0.22765152929E+02 -0.16419439701E+02  0.12982905639E+03  0.13282858906E+03  0.00000000000E+00 0. -1.
          2    1    1    2  501    0  0.24645159681E+03  0.52210512997E+03 -0.86474340093E+03  0.10397659861E+04  0.25500000000E-02 0. -1.
<mgrwt>
<rscale>  0 0.57487701E+03</rscale>
<asrwt>0</asrwt>
<pdfrwt beam="1">  1       11 0.10000000E+01 0.28068669E+02</pdfrwt>
<pdfrwt beam="2">  1        2 0.16183355E+00 0.57487701E+03</pdfrwt>
<totfact> 0.29425705E+01</totfact>
</mgrwt>
</event>
<event>
 5    1  0.6729100E-004  0.1031625E+03  0.7818608E-02  0.1503910E+00
         11   -1    0    0    0    0  0.00000000000E+00  0.00000000000E+00  0.10003901797E+04  0.10003901797E+04  0.51100000000E-03 0.  1.
          2   -1    0    0  501    0 -0.00000000000E+00 -0.00000000000E+00 -0.39803794891E+02  0.39803794973E+02  0.25500000000E-02 0.  1.
         11    1    1    2    0    0 -0.35784768761E+02 -0.10220742732E+03  0.46478722087E+03  0.47723586261E+03  0.51100000000E-03 0.  1.
         22    1    1    2    0    0  0.67592370741E+02  0.76990979795E+02  0.50982149507E+03  0.52001374634E+03  0.00000000000E+00 0.  1.
          2    1    1    2  501    0 -0.31807601979E+02  0.25216447523E+02 -0.14022331140E+02  0.42944365712E+02  0.25500000000E-02 0.  1.
<mgrwt>
<rscale>  0 0.40590550E+02</rscale>
<asrwt>0</asrwt>
<pdfrwt beam="1">  1       11 0.10000000E+01 0.10316248E+03</pdfrwt>
<pdfrwt beam="2">  1        2 0.61260499E-02 0.40590550E+02</pdfrwt>
<totfact> 0.12668742E+03</totfact>
</mgrwt>
</event>
<event>
 5    1  0.6729100E-004  0.5316153E+02  0.7818608E-02  0.1552896E+00
         11   -1    0    0    0    0  0.00000000000E+00  0.00000000000E+00  0.10000998147E+04  0.10000998147E+04  0.51100000000E-03 0. -1.
          2   -1    0    0  501    0 -0.00000000000E+00 -0.00000000000E+00 -0.55035733781E+01  0.55035739688E+01  0.25500000000E-02 0. -1.
         11    1    1    2    0    0 -0.63296610637E+02 -0.80618917595E+01  0.29278571963E+03  0.29965802615E+03  0.51100000000E-03 0. -1.
         22    1    1    2    0    0  0.13766161929E+02  0.17691734393E+02  0.13053309007E+03  0.13244392128E+03  0.00000000000E+00 0. -1.
          2    1    1    2  501    0  0.49530448709E+02 -0.96298426333E+01  0.57127743158E+03  0.57350144120E+03  0.25500000000E-02 0. -1.
<mgrwt>
<rscale>  0 0.34521022E+02</rscale>
<asrwt>0</asrwt>
<pdfrwt beam="1">  1       11 0.10000000E+01 0.53161527E+02</pdfrwt>
<pdfrwt beam="2">  1        2 0.84678813E-03 0.34521022E+02</pdfrwt>
<totfact> 0.16007848E+04</totfact>
</mgrwt>
</event>
<event>
 5    1  0.6729100E-004  0.1594226E+03  0.7818608E-02  0.1189350E+00
         11   -1    0    0    0    0  0.00000000000E+00  0.00000000000E+00  0.10003504883E+04  0.10003504883E+04  0.51100000000E-03 0. -1.
          2   -1    0    0  501    0 -0.00000000000E+00 -0.00000000000E+00 -0.32435223278E+02  0.32435223378E+02  0.25500000000E-02 0. -1.
         11    1    1    2    0    0  0.13632422761E+03 -0.73089619684E+02  0.27975906501E+03  0.31967408715E+03  0.51100000000E-03 0. -1.
         22    1    1    2    0    0  0.16718714730E+02  0.76494151557E+00  0.86126262260E+02  0.87737298845E+02  0.00000000000E+00 0.  1.
          2    1    1    2  501    0 -0.15304294234E+03  0.72324678168E+02  0.60202993780E+03  0.62537432573E+03  0.25500000000E-02 0. -1.
<mgrwt>
<rscale>  0 0.15942259E+03</rscale>
<asrwt>0</asrwt>
<pdfrwt beam="1">  1       11 0.10000000E+01 0.16736205E+02</pdfrwt>
<pdfrwt beam="2">  1        2 0.49917832E-02 0.15942259E+03</pdfrwt>
<totfact> 0.18605720E+03</totfact>
</mgrwt>
</event>
<event>
 5    1  0.6729100E-004  0.2836827E+03  0.7818608E-02  0.1093694E+00
         11   -1    0    0    0    0  0.00000000000E+00  0.00000000000E+00  0.10010937392E+04  0.10010937392E+04  0.51100000000E-03 0. -1.
          2   -1    0    0  501    0 -0.00000000000E+00 -0.00000000000E+00 -0.14322684414E+04  0.14322684414E+04  0.25500000000E-02 0. -1.
         11    1    1    2    0    0  0.23421653090E+03 -0.14921199978E+03  0.90820476840E+03  0.94971443370E+03  0.51100000000E-03 0. -1.
         22    1    1    2    0    0 -0.41768206183E+02 -0.59530109598E+02  0.34676251484E+02  0.80565870029E+02  0.00000000000E+00 0.  1.
          2    1    1    2  501    0 -0.19244832472E+03  0.20874210938E+03 -0.13740557221E+04  0.14030818769E+04  0.25500000000E-02 0. -1.
<mgrwt>
<rscale>  0 0.28368270E+03</rscale>
<asrwt>0</asrwt>
<pdfrwt beam="1">  1       11 0.10000000E+01 0.72721503E+02</pdfrwt>
<pdfrwt beam="2">  1        2 0.22058999E+00 0.28368270E+03</pdfrwt>
<totfact> 0.18511051E+01</totfact>
</mgrwt>
</event>
<event>
 5    1  0.6729100E-004  0.7998513E+02  0.7818608E-02  0.1329094E+00
         11   -1    0    0    0    0  0.00000000000E+00  0.00000000000E+00  0.10003883032E+04  0.10003883032E+04  0.51100000000E-03 0.  1.
          2   -1    0    0  501    0 -0.00000000000E+00 -0.00000000000E+00 -0.10826361459E+02  0.10826361759E+02  0.25500000000E-02 0.  1.
         11    1    1    2    0    0 -0.26373466856E+02  0.20043711744E+01  0.52347480765E+02  0.58650115094E+02  0.51100000000E-03 0.  1.
         22    1    1    2    0    0 -0.53532464282E+01  0.77976715920E+02  0.32136341335E+03  0.33073171743E+03  0.00000000000E+00 0.  1.
          2    1    1    2  501    0  0.31726713284E+02 -0.79981087094E+02  0.61585104764E+03  0.62183283246E+03  0.25500000000E-02 0.  1.
<mgrwt>
<rscale>  0 0.79985134E+02</rscale>
<asrwt>0</asrwt>
<pdfrwt beam="1">  1       11 0.10000000E+01 0.26449536E+02</pdfrwt>
<pdfrwt beam="2">  1        2 0.16662408E-02 0.79985134E+02</pdfrwt>
<totfact> 0.74788633E+03</totfact>
</mgrwt>
</event>
<event>
 5    1  0.6729100E-004  0.1119334E+03  0.7818608E-02  0.1489127E+00
         11   -1    0    0    0    0  0.00000000000E+00  0.00000000000E+00  0.10002059063E+04  0.10002059063E+04  0.51100000000E-03 0.  1.
         -2   -1    0    0    0  501 -0.00000000000E+00 -0.00000000000E+00 -0.12540083523E+03  0.12540083525E+03  0.25500000000E-02 0. -1.
         11    1    1    2    0    0  0.94581570933E+02  0.60367928708E+02  0.48460051303E+03  0.49742096619E+03  0.51100000000E-03 0.  1.
         22    1    1    2    0    0 -0.67895849332E+02 -0.93722335237E+02  0.49850663758E+03  0.51176419393E+03  0.00000000000E+00 0.  1.
         -2    1    1    2    0  501 -0.26685721601E+02  0.33354406529E+02 -0.10830207957E+03  0.11642158141E+03  0.25500000000E-02 0. -1.
<mgrwt>
<rscale>  0 0.42715854E+02</rscale>
<asrwt>0</asrwt>
<pdfrwt beam="1">  1       11 0.10000000E+01 0.11193340E+03</pdfrwt>
<pdfrwt beam="2">  1       -2 0.19296408E-01 0.42715854E+02</pdfrwt>
<totfact> 0.16693597E+02</totfact>
</mgrwt>
</event>
<event>
 5    1  0.6729100E-004  0.1395558E+03  0.7818608E-02  0.1415628E+00
         11   -1    0    0    0    0  0.00000000000E+00  0.00000000000E+00  0.99994270705E+03  0.99994270705E+03  0.51100000000E-03 0. -1.
          2   -1    0    0  501    0 -0.00000000000E+00 -0.00000000000E+00 -0.16505354420E+04  0.16505354420E+04  0.25500000000E-02 0. -1.
         11    1    1    2    0    0  0.14521582340E+03  0.54181757458E+02  0.51163650493E+03  0.53459817750E+03  0.51100000000E-03 0. -1.
         22    1    1    2    0    0 -0.13140591644E+03  0.44148427201E-01  0.46728262068E+03  0.48540762707E+03  0.00000000000E+00 0. -1.
          2    1    1    2  501    0 -0.13809906964E+02 -0.54225905885E+02 -0.16295118606E+04  0.16304723445E+04  0.25500000000E-02 0. -1.
<mgrwt>
<rscale>  0 0.55956791E+02</rscale>
<asrwt>0</asrwt>
<pdfrwt beam="1">  1       11 0.10000000E+01 0.13955581E+03</pdfrwt>
<pdfrwt beam="2">  1        2 0.25391397E+00 0.55956791E+02</pdfrwt>
<totfact> 0.16340679E+01</totfact>
</mgrwt>
</event>
<event>
 5    1  0.6729100E-004  0.2030479E+03  0.7818608E-02  0.1157315E+00
         11   -1    0    0    0    0  0.00000000000E+00  0.00000000000E+00  0.10004182917E+04  0.10004182917E+04  0.51100000000E-03 0. -1.
          2   -1    0    0  501    0 -0.00000000000E+00 -0.00000000000E+00 -0.39059207930E+02  0.39059208013E+02  0.25500000000E-02 0.  1.
         11    1    1    2    0    0 -0.71688821836E+02  0.11429036495E+03  0.28183141193E+03  0.31245882841E+03  0.51100000000E-03 0. -1.
         22    1    1    2    0    0 -0.45869052357E+02  0.36595989398E+02  0.25053952031E+03  0.25731942725E+03  0.00000000000E+00 0. -1.
          2    1    1    2  501    0  0.11755787419E+03 -0.15088635434E+03  0.42898815155E+03  0.46969924408E+03  0.25500000000E-02 0.  1.
<mgrwt>
<rscale>  0 0.19127610E+03</rscale>
<asrwt>0</asrwt>
<pdfrwt beam="1">  1       11 0.10000000E+01 0.20304790E+03</pdfrwt>
<pdfrwt beam="2">  1        2 0.60116223E-02 0.19127610E+03</pdfrwt>
<totfact> 0.14793306E+03</totfact>
</mgrwt>
</event>
<event>
 5    1  0.6729100E-004  0.9988375E+02  0.7818608E-02  0.1385073E+00
         11   -1    0    0    0    0  0.00000000000E+00  0.00000000000E+00  0.10000461739E+04  0.10000461739E+04  0.51100000000E-03 0. -1.
          2   -1    0    0  501    0 -0.00000000000E+00 -0.00000000000E+00 -0.59049313602E+02  0.59049313657E+02  0.25500000000E-02 0. -1.
         11    1    1    2    0    0  0.62203125882E+02  0.12818481813E+03  0.51704323685E+03  0.53631547175E+03  0.51100000000E-03 0. -1.
         22    1    1    2    0    0 -0.20158648518E+02 -0.81067341007E+02  0.44761534595E+03  0.45534358766E+03  0.00000000000E+00 0. -1.
          2    1    1    2  501    0 -0.42044477364E+02 -0.47117477126E+02 -0.23661722479E+02  0.67436428173E+02  0.25500000000E-02 0. -1.
<mgrwt>
<rscale>  0 0.63148988E+02</rscale>
<asrwt>0</asrwt>
<pdfrwt beam="1">  1       11 0.10000000E+01 0.99883749E+02</pdfrwt>
<pdfrwt beam="2">  1        2 0.90849290E-02 0.63148988E+02</pdfrwt>
<totfact> 0.81359990E+02</totfact>
</mgrwt>
</event>
<event>
 5    1  0.6729100E-004  0.2085270E+03  0.7818608E-02  0.1142738E+00
         11   -1    0    0    0    0  0.00000000000E+00  0.00000000000E+00  0.10001827133E+04  0.10001827133E+04  0.51100000000E-03 0. -1.
          2   -1    0    0  501    0 -0.00000000000E+00 -0.00000000000E+00 -0.29971312149E+03  0.29971312150E+03  0.25500000000E-02 0. -1.
         11    1    1    2    0    0 -0.24045034514E+03  0.24627533853E+02  0.82208890197E+03  0.85688566720E+03  0.51100000000E-03 0. -1.
         22    1    1    2    0    0  0.33997922359E+02 -0.93422691380E+01  0.11986116236E+03  0.12493932511E+03  0.00000000000E+00 0. -1.
          2    1    1    2  501    0  0.20645242278E+03 -0.15285264715E+02 -0.24148047256E+03  0.31807084246E+03  0.25500000000E-02 0. -1.
<mgrwt>
<rscale>  0 0.20852698E+03</rscale>
<asrwt>0</asrwt>
<pdfrwt beam="1">  1       11 0.10000000E+01 0.35258144E+02</pdfrwt>
<pdfrwt beam="2">  1        2 0.46118135E-01 0.20852698E+03</pdfrwt>
<totfact> 0.13575313E+02</totfact>
</mgrwt>
</event>
<event>
 5    1  0.6729100E-004  0.2135092E+03  0.7818608E-02  0.1138817E+00
         11   -1    0    0    0    0  0.00000000000E+00  0.00000000000E+00  0.10002662028E+04  0.10002662028E+04  0.51100000000E-03 0. -1.
          2   -1    0    0  501    0 -0.00000000000E+00 -0.00000000000E+00 -0.56946514643E+03  0.56946514643E+03  0.25500000000E-02 0. -1.
         11    1    1    2    0    0 -0.10037606004E+03  0.20620297168E+03  0.88960739686E+03  0.91869273400E+03  0.51100000000E-03 0. -1.
         22    1    1    2    0    0 -0.13443812321E+02 -0.25951237057E+02  0.72710339392E+02  0.78364508861E+02  0.00000000000E+00 0.  1.
          2    1    1    2  501    0  0.11381987236E+03 -0.18025173462E+03 -0.53151667985E+03  0.57267410640E+03  0.25500000000E-02 0. -1.
<mgrwt>
<rscale>  0 0.21350917E+03</rscale>
<asrwt>0</asrwt>
<pdfrwt beam="1">  1       11 0.10000000E+01 0.29226748E+02</pdfrwt>
<pdfrwt beam="2">  1        2 0.87633342E-01 0.21350917E+03</pdfrwt>
<totfact> 0.67174405E+01</totfact>
</mgrwt>
</event>
<event>
 5    1  0.6729100E-004  0.1673806E+03  0.7818608E-02  0.1343248E+00
         11   -1    0    0    0    0  0.00000000000E+00  0.00000000000E+00  0.10002805731E+04  0.10002805731E+04  0.51100000000E-03 0. -1.
         -2   -1    0    0    0  501 -0.00000000000E+00 -0.00000000000E+00 -0.72339791968E+02  0.72339792013E+02  0.25500000000E-02 0. -1.
         11    1    1    2    0    0  0.20132558910E+03  0.67565830407E+01  0.53433901070E+03  0.57104800376E+03  0.51100000000E-03 0. -1.
         22    1    1    2    0    0 -0.13843829782E+03 -0.47993425701E+02  0.40010520755E+03  0.42609002373E+03  0.00000000000E+00 0. -1.
         -2    1    1    2    0  501 -0.62887291283E+02  0.41236842660E+02 -0.65034370836E+01  0.75482337655E+02  0.25500000000E-02 0. -1.
<mgrwt>
<rscale>  0 0.75201653E+02</rscale>
<asrwt>0</asrwt>
<pdfrwt beam="1">  1       11 0.10000000E+01 0.16738060E+03</pdfrwt>
<pdfrwt beam="2">  1       -2 0.11132321E-01 0.75201653E+02</pdfrwt>
<totfact> 0.41548074E+02</totfact>
</mgrwt>
</event>
<event>
 5    1  0.6729100E-004  0.3823173E+03  0.7818608E-02  0.1050081E+00
         11   -1    0    0    0    0  0.00000000000E+00  0.00000000000E+00  0.99995930732E+03  0.99995930732E+03  0.51100000000E-03 0. -1.
         -2   -1    0    0    0  501 -0.00000000000E+00 -0.00000000000E+00 -0.36210972770E+03  0.36210972771E+03  0.25500000000E-02 0. -1.
         11    1    1    2    0    0  0.15345867596E+03 -0.36100729339E+03  0.67694098862E+03  0.78238413403E+03  0.51100000000E-03 0. -1.
         22    1    1    2    0    0 -0.32254488812E+02 -0.67968408652E-01  0.15072044902E+03  0.15413309320E+03  0.00000000000E+00 0. -1.
         -2    1    1    2    0  501 -0.12120418714E+03  0.36107526180E+03 -0.18981185802E+03  0.42555180779E+03  0.25500000000E-02 0. -1.
<mgrwt>
<rscale>  0 0.38231726E+03</rscale>
<asrwt>0</asrwt>
<pdfrwt beam="1">  1       11 0.10000000E+01 0.32254560E+02</pdfrwt>
<pdfrwt beam="2">  1       -2 0.55706920E-01 0.38231726E+03</pdfrwt>
<totfact> 0.24899413E+01</totfact>
</mgrwt>
</event>
<event>
 5    1  0.6729100E-004  0.1660339E+03  0.7818608E-02  0.1405545E+00
         11   -1    0    0    0    0  0.00000000000E+00  0.00000000000E+00  0.10000502490E+04  0.10000502490E+04  0.51100000000E-03 0.  1.
         -2   -1    0    0    0  501 -0.00000000000E+00 -0.00000000000E+00 -0.18764825049E+03  0.18764825050E+03  0.25500000000E-02 0. -1.
         11    1    1    2    0    0  0.12418248749E+03 -0.14032898825E+03  0.52782498472E+03  0.56010064242E+03  0.51100000000E-03 0.  1.
         22    1    1    2    0    0 -0.12773707336E+03  0.82237709962E+02  0.43795113355E+03  0.46355258194E+03  0.00000000000E+00 0. -1.
         -2    1    1    2    0  501  0.35545858710E+01  0.58091278287E+02 -0.15337411973E+03  0.16404527516E+03  0.25500000000E-02 0. -1.
<mgrwt>
<rscale>  0 0.58199929E+02</rscale>
<asrwt>0</asrwt>
<pdfrwt beam="1">  1       11 0.10000000E+01 0.16603393E+03</pdfrwt>
<pdfrwt beam="2">  1       -2 0.28870411E-01 0.58199929E+02</pdfrwt>
<totfact> 0.85587407E+01</totfact>
</mgrwt>
</event>
<event>
 5    1  0.6729100E-004  0.1404236E+03  0.7818608E-02  0.1212760E+00
         11   -1    0    0    0    0  0.00000000000E+00  0.00000000000E+00  0.10000394113E+04  0.10000394113E+04  0.51100000000E-03 0.  1.
          2   -1    0    0  501    0 -0.00000000000E+00 -0.00000000000E+00 -0.44380447214E+02  0.44380447287E+02  0.25500000000E-02 0.  1.
         11    1    1    2    0    0  0.12036913839E+03 -0.69535269704E+02  0.80797708848E+03  0.81984807051E+03  0.51100000000E-03 0.  1.
         22    1    1    2    0    0 -0.44659727497E+01 -0.10251560872E+02  0.54895251938E+02  0.56022567758E+02  0.00000000000E+00 0.  1.
          2    1    1    2  501    0 -0.11590316564E+03  0.79786830576E+02  0.92786623715E+02  0.16854922037E+03  0.25500000000E-02 0.  1.
<mgrwt>
<rscale>  0 0.14042360E+03</rscale>
<asrwt>0</asrwt>
<pdfrwt beam="1">  1       11 0.10000000E+01 0.11182102E+02</pdfrwt>
<pdfrwt beam="2">  1        2 0.68280300E-02 0.14042360E+03</pdfrwt>
<totfact> 0.12288945E+03</totfact>
</mgrwt>
</event>
<event>
 5    1  0.6729100E-004  0.3579299E+03  0.7818608E-02  0.1059407E+00
         11   -1    0    0    0    0  0.00000000000E+00  0.00000000000E+00  0.99995839002E+03  0.99995839002E+03  0.51100000000E-03 0. -1.
          2   -1    0    0  501    0 -0.00000000000E+00 -0.00000000000E+00 -0.56981809300E+03  0.56981809301E+03  0.25500000000E-02 0. -1.
         11    1    1    2    0    0 -0.33255202347E+03  0.22913657143E+03  0.45794704345E+03  0.61058161722E+03  0.51100000000E-03 0. -1.
         22    1    1    2    0    0  0.83608968710E+01 -0.88839962154E+02  0.39688617128E+03  0.40679365337E+03  0.00000000000E+00 0.  1.
          2    1    1    2  501    0  0.32419112660E+03 -0.14029660927E+03 -0.42469291771E+03  0.55240121244E+03  0.25500000000E-02 0. -1.
<mgrwt>
<rscale>  0 0.35792985E+03</rscale>
<asrwt>0</asrwt>
<pdfrwt beam="1">  1       11 0.10000000E+01 0.89232525E+02</pdfrwt>
<pdfrwt beam="2">  1        2 0.87660672E-01 0.35792985E+03</pdfrwt>
<totfact> 0.66419652E+01</totfact>
</mgrwt>
</event>
<event>
 5    1  0.6729100E-004  0.1553085E+03  0.7818608E-02  0.1194098E+00
         11   -1    0    0    0    0  0.00000000000E+00  0.00000000000E+00  0.99971952318E+03  0.99971952318E+03  0.51100000000E-03 0.  1.
          2   -1    0    0  501    0 -0.00000000000E+00 -0.00000000000E+00 -0.69727084478E+03  0.69727084479E+03  0.25500000000E-02 0.  1.
         11    1    1    2    0    0  0.15001467346E+03  0.76116587425E+02  0.83688471610E+03  0.85362413578E+03  0.51100000000E-03 0.  1.
         22    1    1    2    0    0 -0.29551038393E+01 -0.26535794208E+02  0.14448614312E+03  0.14693238774E+03  0.00000000000E+00 0.  1.
          2    1    1    2  501    0 -0.14705956962E+03 -0.49580793217E+02 -0.67892218082E+03  0.69643384445E+03  0.25500000000E-02 0.  1.
<mgrwt>
<rscale>  0 0.15530852E+03</rscale>
<asrwt>0</asrwt>
<pdfrwt beam="1">  1       11 0.10000000E+01 0.26699832E+02</pdfrwt>
<pdfrwt beam="2">  1        2 0.10724235E+00 0.15530852E+03</pdfrwt>
<totfact> 0.53506600E+01</totfact>
</mgrwt>
</event>
<event>
 5    1  0.6729100E-004  0.3449892E+03  0.7818608E-02  0.1064691E+00
         11   -1    0    0    0    0  0.00000000000E+00  0.00000000000E+00  0.10002576727E+04  0.10002576727E+04  0.51100000000E-03 0. -1.
          2   -1    0    0  501    0 -0.00000000000E+00 -0.00000000000E+00 -0.18832250687E+03  0.18832250689E+03  0.25500000000E-02 0. -1.
         11    1    1    2    0    0  0.12178156274E+03  0.33450668099E+03  0.69256300326E+03  0.77869697710E+03  0.51100000000E-03 0. -1.
         22    1    1    2    0    0  0.41594057975E+01 -0.16555448204E+02  0.60506644184E+02  0.62868414265E+02  0.00000000000E+00 0. -1.
          2    1    1    2  501    0 -0.12594096854E+03 -0.31795123279E+03  0.58865518386E+02  0.34701478823E+03  0.25500000000E-02 0. -1.
<mgrwt>
<rscale>  0 0.34498916E+03</rscale>
<asrwt>0</asrwt>
<pdfrwt beam="1">  1       11 0.10000000E+01 0.17069960E+02</pdfrwt>
<pdfrwt beam="2">  1        2 0.28980158E-01 0.34498916E+03</pdfrwt>
<totfact> 0.22635591E+02</totfact>
</mgrwt>
</event>
<event>
 5    1  0.6729100E-004  0.1288433E+03  0.7818608E-02  0.1229182E+00
         11   -1    0    0    0    0  0.00000000000E+00  0.00000000000E+00  0.10001413851E+04  0.10001413851E+04  0.51100000000E-03 0. -1.
          2   -1    0    0  501    0 -0.00000000000E+00 -0.00000000000E+00 -0.31499269657E+02  0.31499269760E+02  0.25500000000E-02 0. -1.
         11    1    1    2    0    0 -0.99898035826E+02 -0.75013299829E+02  0.58810891681E+03  0.60123099616E+03  0.51100000000E-03 0. -1.
         22    1    1    2    0    0 -0.26792612157E+02  0.37584848995E+02  0.20827554811E+03  0.21332878118E+03  0.00000000000E+00 0.  1.
          2    1    1    2  501    0  0.12669064798E+03  0.37428450834E+02  0.17225765057E+03  0.21708087757E+03  0.25500000000E-02 0. -1.
<mgrwt>
<rscale>  0 0.12884331E+03</rscale>
<asrwt>0</asrwt>
<pdfrwt beam="1">  1       11 0.10000000E+01 0.46156960E+02</pdfrwt>
<pdfrwt beam="2">  1        2 0.48467265E-02 0.12884331E+03</pdfrwt>
<totfact> 0.19003746E+03</totfact>
</mgrwt>
</event>
<event>
 5    1  0.6729100E-004  0.2508739E+03  0.7818608E-02  0.1124976E+00
         11   -1    0    0    0    0  0.00000000000E+00  0.00000000000E+00  0.10003920809E+04  0.10003920809E+04  0.51100000000E-03 0. -1.
          2   -1    0    0  501    0 -0.00000000000E+00 -0.00000000000E+00 -0.87749054370E+02  0.87749054407E+02  0.25500000000E-02 0. -1.
         11    1    1    2    0    0  0.13934212753E+03  0.13074457773E+03  0.55115427310E+03  0.58333644312E+03  0.51100000000E-03 0. -1.
         22    1    1    2    0    0  0.57147762630E+02 -0.66787056236E+01  0.23149081415E+03  0.23853399950E+03  0.00000000000E+00 0.  1.
          2    1    1    2  501    0 -0.19648989016E+03 -0.12406587211E+03  0.12999793927E+03  0.26627069268E+03  0.25500000000E-02 0. -1.
<mgrwt>
<rscale>  0 0.23238033E+03</rscale>
<asrwt>0</asrwt>
<pdfrwt beam="1">  1       11 0.10000000E+01 0.25087386E+03</pdfrwt>
<pdfrwt beam="2">  1        2 0.13505147E-01 0.23238033E+03</pdfrwt>
<totfact> 0.54170280E+02</totfact>
</mgrwt>
</event>
<event>
 5    1  0.6729100E-004  0.2863547E+03  0.7818608E-02  0.1094384E+00
         11   -1    0    0    0    0  0.00000000000E+00  0.00000000000E+00  0.10003534766E+04  0.10003534766E+04  0.51100000000E-03 0. -1.
          2   -1    0    0  501    0 -0.00000000000E+00 -0.00000000000E+00 -0.24819965201E+03  0.24819965202E+03  0.25500000000E-02 0. -1.
         11    1    1    2    0    0 -0.23954452129E+03 -0.11077871984E+03  0.81977760786E+03  0.86121357908E+03  0.51100000000E-03 0. -1.
         22    1    1    2    0    0 -0.22017658021E+02  0.43083076312E+01  0.69770391306E+02  0.73288786881E+02  0.00000000000E+00 0.  1.
          2    1    1    2  501    0  0.26156217931E+03  0.10647041221E+03 -0.13739417457E+03  0.31405076267E+03  0.25500000000E-02 0. -1.
<mgrwt>
<rscale>  0 0.28240170E+03</rscale>
<asrwt>0</asrwt>
<pdfrwt beam="1">  1       11 0.10000000E+01 0.28635473E+03</pdfrwt>
<pdfrwt beam="2">  1        2 0.38198058E-01 0.28240170E+03</pdfrwt>
<totfact> 0.16665347E+02</totfact>
</mgrwt>
</event>
<event>
 5    1  0.6729100E-004  0.1594173E+03  0.7818608E-02  0.1189356E+00
         11   -1    0    0    0    0  0.00000000000E+00  0.00000000000E+00  0.10001113160E+04  0.10001113160E+04  0.51100000000E-03 0. -1.
          2   -1    0    0  501    0 -0.00000000000E+00 -0.00000000000E+00 -0.11575924364E+03  0.11575924367E+03  0.25500000000E-02 0. -1.
         11    1    1    2    0    0 -0.84063641280E+02 -0.17147991365E+03  0.61026469052E+03  0.63944901991E+03  0.51100000000E-03 0. -1.
         22    1    1    2    0    0 -0.33280729887E+02  0.66483494337E+02  0.30673054963E+03  0.31561256642E+03  0.00000000000E+00 0.  1.
          2    1    1    2  501    0  0.11734437117E+03  0.10499641932E+03 -0.32643167746E+02  0.16080897338E+03  0.25500000000E-02 0. -1.
<mgrwt>
<rscale>  0 0.15941728E+03</rscale>
<asrwt>0</asrwt>
<pdfrwt beam="1">  1       11 0.10000000E+01 0.74348248E+02</pdfrwt>
<pdfrwt beam="2">  1        2 0.17811096E-01 0.15941728E+03</pdfrwt>
<totfact> 0.38559638E+02</totfact>
</mgrwt>
</event>
<event>
 5    1  0.6729100E-004  0.5972901E+03  0.7818608E-02  0.9911044E-01
         11   -1    0    0    0    0  0.00000000000E+00  0.00000000000E+00  0.10001463167E+04  0.10001463167E+04  0.51100000000E-03 0.  1.
          2   -1    0    0  501    0 -0.00000000000E+00 -0.00000000000E+00 -0.67359781215E+03  0.67359781215E+03  0.25500000000E-02 0.  1.
         11    1    1    2    0    0  0.44665913471E+03  0.38316614560E+03  0.41596666918E+03  0.72065869011E+03  0.51100000000E-03 0.  1.
         22    1    1    2    0    0  0.40514539410E+02 -0.32118558109E+02  0.25544442614E+03  0.26062402907E+03  0.00000000000E+00 0. -1.
          2    1    1    2  501    0 -0.48717367412E+03 -0.35104758749E+03 -0.34486259074E+03  0.69246140971E+03  0.25500000000E-02 0.  1.
<mgrwt>
<rscale>  0 0.59729009E+03</rscale>
<asrwt>0</asrwt>
<pdfrwt beam="1">  1       11 0.10000000E+01 0.51701351E+02</pdfrwt>
<pdfrwt beam="2">  1        2 0.10364559E+00 0.59729009E+03</pdfrwt>
<totfact> 0.53639596E+01</totfact>
</mgrwt>
</event>
<event>
 5    1  0.6729100E-004  0.8619036E+02  0.7818608E-02  0.1483152E+00
         11   -1    0    0    0    0  0.00000000000E+00  0.00000000000E+00  0.10002202518E+04  0.10002202518E+04  0.51100000000E-03 0.  1.
          2   -1    0    0  501    0 -0.00000000000E+00 -0.00000000000E+00 -0.54453400598E+02  0.54453400658E+02  0.25500000000E-02 0.  1.
         11    1    1    2    0    0 -0.16331579555E+02 -0.10384973160E+03  0.57185013934E+03  0.58143277265E+03  0.51100000000E-03 0.  1.
         22    1    1    2    0    0  0.36925239583E+02  0.65398291186E+02  0.40988259699E+03  0.41670631520E+03  0.00000000000E+00 0.  1.
          2    1    1    2  501    0 -0.20593660028E+02  0.38451440412E+02 -0.35965885094E+02  0.56534564651E+02  0.25500000000E-02 0.  1.
<mgrwt>
<rscale>  0 0.43618942E+02</rscale>
<asrwt>0</asrwt>
<pdfrwt beam="1">  1       11 0.10000000E+01 0.86190365E+02</pdfrwt>
<pdfrwt beam="2">  1        2 0.83792912E-02 0.43618942E+02</pdfrwt>
<totfact> 0.87073681E+02</totfact>
</mgrwt>
</event>
<event>
 5    1  0.6729100E-004  0.1063161E+03  0.7818608E-02  0.1554274E+00
         11   -1    0    0    0    0  0.00000000000E+00  0.00000000000E+00  0.10000839555E+04  0.10000839555E+04  0.51100000000E-03 0.  1.
          2   -1    0    0  501    0 -0.00000000000E+00 -0.00000000000E+00 -0.13195476484E+02  0.13195476730E+02  0.25500000000E-02 0.  1.
         11    1    1    2    0    0 -0.70712702073E+02 -0.81419994140E+02  0.59585892194E+03  0.60553889763E+03  0.51100000000E-03 0.  1.
         22    1    1    2    0    0 -0.50717192749E+01  0.98855771468E+01  0.45528908188E+02  0.46865002430E+02  0.00000000000E+00 0.  1.
          2    1    1    2  501    0  0.75784421348E+02  0.71534416994E+02  0.34550064884E+03  0.36087553213E+03  0.25500000000E-02 0.  1.
<mgrwt>
<rscale>  0 0.34369215E+02</rscale>
<asrwt>0</asrwt>
<pdfrwt beam="1">  1       11 0.10000000E+01 0.10631609E+03</pdfrwt>
<pdfrwt beam="2">  1        2 0.20302437E-02 0.34369215E+02</pdfrwt>
<totfact> 0.50573672E+03</totfact>
</mgrwt>
</event>
<event>
 5    1  0.6729100E-004  0.1592784E+03  0.7818608E-02  0.1189514E+00
         11   -1    0    0    0    0  0.00000000000E+00  0.00000000000E+00  0.10004489999E+04  0.10004489999E+04  0.51100000000E-03 0. -1.
         -2   -1    0    0    0  501 -0.00000000000E+00 -0.00000000000E+00 -0.17142109894E+03  0.17142109896E+03  0.25500000000E-02 0. -1.
         11    1    1    2    0    0  0.75249834863E+02  0.14902735048E+03  0.67313011554E+03  0.69352421824E+03  0.51100000000E-03 0. -1.
         22    1    1    2    0    0  0.73806760583E+02 -0.87562096942E+02  0.26159022785E+03  0.28555911128E+03  0.00000000000E+00 0. -1.
         -2    1    1    2    0  501 -0.14905659545E+03 -0.61465253538E+02 -0.10569244243E+03  0.19278676934E+03  0.25500000000E-02 0. -1.
<mgrwt>
<rscale>  0 0.15927838E+03</rscale>
<asrwt>0</asrwt>
<pdfrwt beam="1">  1       11 0.10000000E+01 0.11451881E+03</pdfrwt>
<pdfrwt beam="2">  1       -2 0.26384317E-01 0.15927838E+03</pdfrwt>
<totfact> 0.10290230E+02</totfact>
</mgrwt>
</event>
<event>
 5    1  0.6729100E-004  0.6139319E+02  0.7818608E-02  0.1392076E+00
         11   -1    0    0    0    0  0.00000000000E+00  0.00000000000E+00  0.10003359664E+04  0.10003359664E+04  0.51100000000E-03 0.  1.
          2   -1    0    0  501    0 -0.00000000000E+00 -0.00000000000E+00 -0.20887339816E+02  0.20887339971E+02  0.25500000000E-02 0.  1.
         11    1    1    2    0    0  0.17990492267E+01 -0.59660167121E+02  0.47443030636E+02  0.76245742669E+02  0.51100000000E-03 0.  1.
         22    1    1    2    0    0 -0.56215520461E+02 -0.18688950914E+02  0.29745225566E+03  0.30329409164E+03  0.00000000000E+00 0. -1.
          2    1    1    2  501    0  0.54416471234E+02  0.78349118035E+02  0.63455334026E+03  0.64168347203E+03  0.25500000000E-02 0.  1.
<mgrwt>
<rscale>  0 0.61393189E+02</rscale>
<asrwt>0</asrwt>
<pdfrwt beam="1">  1       11 0.10000000E+01 0.59240709E+02</pdfrwt>
<pdfrwt beam="2">  1        2 0.32145164E-02 0.61393189E+02</pdfrwt>
<totfact> 0.30148537E+03</totfact>
</mgrwt>
</event>
<event>
 5    1  0.6729100E-004  0.4689609E+03  0.7818608E-02  0.1024168E+00
         11   -1    0    0    0    0  0.00000000000E+00  0.00000000000E+00  0.10006036372E+04  0.10006036372E+04  0.51100000000E-03 0.  1.
          2   -1    0    0  501    0 -0.00000000000E+00 -0.00000000000E+00 -0.14749157510E+04  0.14749157510E+04  0.25500000000E-02 0.  1.
         11    1    1    2    0    0  0.30095625015E+03 -0.32491151277E+03  0.83322780649E+03  0.94361577622E+03  0.51100000000E-03 0.  1.
         22    1    1    2    0    0  0.23439950918E+02 -0.42139603255E+01  0.72623389361E+02  0.76428695154E+02  0.00000000000E+00 0.  1.
          2    1    1    2  501    0 -0.32439620107E+03  0.32912547310E+03 -0.13801633096E+04  0.14554749168E+04  0.25500000000E-02 0.  1.
<mgrwt>
<rscale>  0 0.46212171E+03</rscale>
<asrwt>0</asrwt>
<pdfrwt beam="1">  1       11 0.10000000E+01 0.46896091E+03</pdfrwt>
<pdfrwt beam="2">  1        2 0.22704708E+00 0.46212171E+03</pdfrwt>
<totfact> 0.16969982E+01</totfact>
</mgrwt>
</event>
<event>
 5    1  0.6729100E-004  0.5536703E+03  0.7818608E-02  0.1000648E+00
         11   -1    0    0    0    0  0.00000000000E+00  0.00000000000E+00  0.10002535832E+04  0.10002535832E+04  0.51100000000E-03 0. -1.
         -2   -1    0    0    0  501 -0.00000000000E+00 -0.00000000000E+00 -0.67378955241E+03  0.67378955242E+03  0.25500000000E-02 0.  1.
         11    1    1    2    0    0  0.56202633463E+03  0.81327363595E+01  0.68456456778E+03  0.88575865205E+03  0.51100000000E-03 0. -1.
         22    1    1    2    0    0 -0.10156349237E+02  0.12744946725E+02  0.81067324557E+02  0.82689154112E+02  0.00000000000E+00 0. -1.
         -2    1    1    2    0  501 -0.55186998540E+03 -0.20877683084E+02 -0.43916786150E+03  0.70559532950E+03  0.25500000000E-02 0.  1.
<mgrwt>
<rscale>  0 0.55367030E+03</rscale>
<asrwt>0</asrwt>
<pdfrwt beam="1">  1       11 0.10000000E+01 0.16296782E+02</pdfrwt>
<pdfrwt beam="2">  1       -2 0.10368621E+00 0.55367030E+03</pdfrwt>
<totfact> 0.62560658E+00</totfact>
</mgrwt>
</event>
<event>
 5    1  0.6729100E-004  0.3749182E+03  0.7818608E-02  0.1458845E+00
         11   -1    0    0    0    0  0.00000000000E+00  0.00000000000E+00  0.99986225835E+03  0.99986225835E+03  0.51100000000E-03 0. -1.
          2   -1    0    0  501    0 -0.00000000000E+00 -0.00000000000E+00 -0.84490205595E+03  0.84490205595E+03  0.25500000000E-02 0. -1.
         11    1    1    2    0    0  0.36568404116E+03 -0.19798172902E+02 -0.90158135240E+02  0.37715417930E+03  0.51100000000E-03 0. -1.
         22    1    1    2    0    0 -0.37087599845E+03  0.67094815659E+02  0.81385351966E+03  0.89688810449E+03  0.00000000000E+00 0. -1.
          2    1    1    2  501    0  0.51919572880E+01 -0.47296642757E+02 -0.56873518202E+03  0.57072203051E+03  0.25500000000E-02 0. -1.
<mgrwt>
<rscale>  0 0.47580761E+02</rscale>
<asrwt>0</asrwt>
<pdfrwt beam="1">  1       11 0.10000000E+01 0.37491817E+03</pdfrwt>
<pdfrwt beam="2">  1        2 0.12996702E+00 0.47580761E+02</pdfrwt>
<totfact> 0.44300549E+01</totfact>
</mgrwt>
</event>
<event>
 5    1  0.6729100E-004  0.9037951E+02  0.7818608E-02  0.1301935E+00
         11   -1    0    0    0    0  0.00000000000E+00  0.00000000000E+00  0.10003179082E+04  0.10003179082E+04  0.51100000000E-03 0. -1.
          2   -1    0    0  501    0 -0.00000000000E+00 -0.00000000000E+00 -0.60854122486E+03  0.60854122486E+03  0.25500000000E-02 0. -1.
         11    1    1    2    0    0 -0.32764586924E+02  0.12988157556E+03  0.67892194114E+03  0.69200993056E+03  0.51100000000E-03 0. -1.
         22    1    1    2    0    0 -0.14942970245E+02 -0.53336280284E+02  0.30899703805E+03  0.31392231631E+03  0.00000000000E+00 0.  1.
          2    1    1    2  501    0  0.47707557169E+02 -0.76545295280E+02 -0.59614229583E+03  0.60292688622E+03  0.25500000000E-02 0. -1.
<mgrwt>
<rscale>  0 0.90379513E+02</rscale>
<asrwt>0</asrwt>
<pdfrwt beam="1">  1       11 0.10000000E+01 0.55389991E+02</pdfrwt>
<pdfrwt beam="2">  1        2 0.93651487E-01 0.90379513E+02</pdfrwt>
<totfact> 0.63487915E+01</totfact>
</mgrwt>
</event>
<event>
 5    1  0.6729100E-004  0.2185376E+03  0.7818608E-02  0.1144716E+00
         11   -1    0    0    0    0  0.00000000000E+00  0.00000000000E+00  0.99982107117E+03  0.99982107117E+03  0.51100000000E-03 0.  1.
          2   -1    0    0  501    0 -0.00000000000E+00 -0.00000000000E+00 -0.12467888258E+04  0.12467888258E+04  0.25500000000E-02 0.  1.
         11    1    1    2    0    0 -0.16615623151E+03  0.89496989533E+01  0.89228508115E+03  0.90766770154E+03  0.51100000000E-03 0.  1.
         22    1    1    2    0    0 -0.39338079440E+02  0.64574584749E+01  0.86892595435E+02  0.95600765715E+02  0.00000000000E+00 0.  1.
          2    1    1    2  501    0  0.20549431095E+03 -0.15407157428E+02 -0.12261454312E+04  0.12433414297E+04  0.25500000000E-02 0.  1.
<mgrwt>
<rscale>  0 0.20607109E+03</rscale>
<asrwt>0</asrwt>
<pdfrwt beam="1">  1       11 0.10000000E+01 0.21853763E+03</pdfrwt>
<pdfrwt beam="2">  1        2 0.19177934E+00 0.20607109E+03</pdfrwt>
<totfact> 0.23953286E+01</totfact>
</mgrwt>
</event>
<event>
 5    1  0.6729100E-004  0.3300830E+03  0.7818608E-02  0.1083269E+00
         11   -1    0    0    0    0  0.00000000000E+00  0.00000000000E+00  0.99999394062E+03  0.99999394062E+03  0.51100000000E-03 0. -1.
          2   -1    0    0  501    0 -0.00000000000E+00 -0.00000000000E+00 -0.19287135921E+03  0.19287135923E+03  0.25500000000E-02 0. -1.
         11    1    1    2    0    0 -0.18893320476E+03 -0.35078479295E+02  0.37902196029E+03  0.42495164660E+03  0.51100000000E-03 0. -1.
         22    1    1    2    0    0 -0.11442324089E+03  0.54515392150E+02  0.44575360463E+03  0.46342300556E+03  0.00000000000E+00 0. -1.
          2    1    1    2  501    0  0.30335644565E+03 -0.19436912855E+02 -0.17652983507E+02  0.30449064769E+03  0.25500000000E-02 0. -1.
<mgrwt>
<rscale>  0 0.30397850E+03</rscale>
<asrwt>0</asrwt>
<pdfrwt beam="1">  1       11 0.10000000E+01 0.33008300E+03</pdfrwt>
<pdfrwt beam="2">  1        2 0.29672336E-01 0.30397850E+03</pdfrwt>
<totfact> 0.22009846E+02</totfact>
</mgrwt>
</event>
<event>
 5    1  0.6729100E-004  0.1866898E+03  0.7818608E-02  0.1161481E+00
         11   -1    0    0    0    0  0.00000000000E+00  0.00000000000E+00  0.10001815818E+04  0.10001815818E+04  0.51100000000E-03 0. -1.
          2   -1    0    0  501    0 -0.00000000000E+00 -0.00000000000E+00 -0.29556881168E+03  0.29556881169E+03  0.25500000000E-02 0.  1.
         11    1    1    2    0    0  0.84416434836E+02  0.14159655648E+03  0.61185759764E+03  0.63367613106E+03  0.51100000000E-03 0. -1.
         22    1    1    2    0    0 -0.53844050079E+02  0.44256893932E+02  0.34235758067E+03  0.34938026194E+03  0.00000000000E+00 0. -1.
          2    1    1    2  501    0 -0.30572384757E+02 -0.18585345041E+03 -0.24960240821E+03  0.31269400047E+03  0.25500000000E-02 0.  1.
<mgrwt>
<rscale>  0 0.18668979E+03</rscale>
<asrwt>0</asrwt>
<pdfrwt beam="1">  1       11 0.10000000E+01 0.69698310E+02</pdfrwt>
<pdfrwt beam="2">  1        2 0.45480380E-01 0.18668979E+03</pdfrwt>
<totfact> 0.13774936E+02</totfact>
</mgrwt>
</event>
<event>
 5    1  0.6729100E-004  0.6758440E+02  0.7818608E-02  0.1368506E+00
         11   -1    0    0    0    0  0.00000000000E+00  0.00000000000E+00  0.10001707857E+04  0.10001707857E+04  0.51100000000E-03 0. -1.
          2   -1    0    0  501    0 -0.00000000000E+00 -0.00000000000E+00 -0.98893987137E+01  0.98893990424E+01  0.25500000000E-02 0. -1.
         11    1    1    2    0    0 -0.67714964310E+02  0.10188087608E+02  0.13545073042E+03  0.15177619672E+03  0.51100000000E-03 0. -1.
         22    1    1    2    0    0  0.45645472572E+01 -0.95699289030E+01  0.58502477748E+02  0.59455517268E+02  0.00000000000E+00 0. -1.
          2    1    1    2  501    0  0.63150417053E+02 -0.61815870507E+00  0.79632817882E+03  0.79882847075E+03  0.25500000000E-02 0. -1.
<mgrwt>
<rscale>  0 0.67584400E+02</rscale>
<asrwt>0</asrwt>
<pdfrwt beam="1">  1       11 0.10000000E+01 0.10602765E+02</pdfrwt>
<pdfrwt beam="2">  1        2 0.15217058E-02 0.67584400E+02</pdfrwt>
<totfact> 0.82458387E+03</totfact>
</mgrwt>
</event>
<event>
 5    1  0.6729100E-004  0.1371703E+03  0.7818608E-02  0.1261893E+00
         11   -1    0    0    0    0  0.00000000000E+00  0.00000000000E+00  0.10004383571E+04  0.10004383571E+04  0.51100000000E-03 0.  1.
          2   -1    0    0  501    0 -0.00000000000E+00 -0.00000000000E+00 -0.82792242775E+02  0.82792242815E+02  0.25500000000E-02 0.  1.
         11    1    1    2    0    0  0.53235899163E+02  0.14701158830E+03  0.37633324517E+03  0.40752077183E+03  0.51100000000E-03 0.  1.
         22    1    1    2    0    0 -0.12539382503E+03 -0.64930680360E+02  0.54830647696E+03  0.56619748965E+03  0.00000000000E+00 0.  1.
          2    1    1    2  501    0  0.72157925871E+02 -0.82080907936E+02 -0.69936078025E+01  0.10951233844E+03  0.25500000000E-02 0.  1.
<mgrwt>
<rscale>  0 0.10928880E+03</rscale>
<asrwt>0</asrwt>
<pdfrwt beam="1">  1       11 0.10000000E+01 0.13717030E+03</pdfrwt>
<pdfrwt beam="2">  1        2 0.12742851E-01 0.10928880E+03</pdfrwt>
<totfact> 0.56121405E+02</totfact>
</mgrwt>
</event>
<event>
 5    1  0.6729100E-004  0.8069011E+03  0.7818608E-02  0.9550081E-01
         11   -1    0    0    0    0  0.00000000000E+00  0.00000000000E+00  0.99980347522E+03  0.99980347522E+03  0.51100000000E-03 0. -1.
          2   -1    0    0  501    0 -0.00000000000E+00 -0.00000000000E+00 -0.21297896946E+04  0.21297896946E+04  0.25500000000E-02 0. -1.
         11    1    1    2    0    0 -0.76280872743E+02  0.81306388277E+03  0.68510917363E+03  0.10659578926E+04  0.51100000000E-03 0. -1.
         22    1    1    2    0    0  0.68718305245E+00 -0.10646890503E+02  0.39799877017E+02  0.41205081100E+02  0.00000000000E+00 0. -1.
          2    1    1    2  501    0  0.75593689691E+02 -0.80241699227E+03 -0.18548952700E+04  0.20224301961E+04  0.25500000000E-02 0. -1.
<mgrwt>
<rscale>  0 0.80690110E+03</rscale>
<asrwt>0</asrwt>
<pdfrwt beam="1">  1       11 0.10000000E+01 0.10669044E+02</pdfrwt>
<pdfrwt beam="2">  1        2 0.32759555E+00 0.80690110E+03</pdfrwt>
<totfact> 0.71454774E+00</totfact>
</mgrwt>
</event>
<event>
 5    1  0.6729100E-004  0.2780812E+03  0.7818608E-02  0.1096742E+00
         11   -1    0    0    0    0  0.00000000000E+00  0.00000000000E+00  0.10001996646E+04  0.10001996646E+04  0.51100000000E-03 0. -1.
          2   -1    0    0  501    0 -0.00000000000E+00 -0.00000000000E+00 -0.15597020392E+03  0.15597020394E+03  0.25500000000E-02 0. -1.
         11    1    1    2    0    0  0.13986443901E+03 -0.34020251754E+03  0.39732279723E+03  0.54144733764E+03  0.51100000000E-03 0. -1.
         22    1    1    2    0    0 -0.14466488003E+03  0.10202211602E+03  0.24609427197E+03  0.30314819869E+03  0.00000000000E+00 0. -1.
          2    1    1    2  501    0  0.48004410251E+01  0.23818040152E+03  0.20081239146E+03  0.31157433218E+03  0.25500000000E-02 0. -1.
<mgrwt>
<rscale>  0 0.27808122E+03</rscale>
<asrwt>0</asrwt>
<pdfrwt beam="1">  1       11 0.10000000E+01 0.17702101E+03</pdfrwt>
<pdfrwt beam="2">  1        2 0.24000206E-01 0.27808122E+03</pdfrwt>
<totfact> 0.27865641E+02</totfact>
</mgrwt>
</event>
<event>
 5    1  0.6729100E-004  0.1601989E+03  0.7818608E-02  0.1193435E+00
         11   -1    0    0    0    0  0.00000000000E+00  0.00000000000E+00  0.10001875113E+04  0.10001875113E+04  0.51100000000E-03 0. -1.
         -2   -1    0    0    0  501 -0.00000000000E+00 -0.00000000000E+00 -0.40722048628E+02  0.40722048708E+02  0.25500000000E-02 0.  1.
         11    1    1    2    0    0  0.30965187027E+02  0.13077354429E+03  0.73030226997E+03  0.74256445391E+03  0.51100000000E-03 0. -1.
         22    1    1    2    0    0 -0.48810040333E+01  0.22902728475E+02  0.77123423273E+02  0.80600133929E+02  0.00000000000E+00 0.  1.
         -2    1    1    2    0  501 -0.26084182994E+02 -0.15367627276E+03  0.15203976946E+03  0.21774497220E+03  0.25500000000E-02 0.  1.
<mgrwt>
<rscale>  0 0.15587425E+03</rscale>
<asrwt>0</asrwt>
<pdfrwt beam="1">  1       11 0.10000000E+01 0.16019890E+03</pdfrwt>
<pdfrwt beam="2">  1       -2 0.62661051E-02 0.15587425E+03</pdfrwt>
<totfact> 0.10617878E+03</totfact>
</mgrwt>
</event>
<event>
 5    1  0.6729100E-004  0.1988920E+03  0.7818608E-02  0.1150677E+00
         11   -1    0    0    0    0  0.00000000000E+00  0.00000000000E+00  0.10006367495E+04  0.10006367495E+04  0.51100000000E-03 0.  1.
         -2   -1    0    0    0  501 -0.00000000000E+00 -0.00000000000E+00 -0.11898049643E+03  0.11898049646E+03  0.25500000000E-02 0. -1.
         11    1    1    2    0    0 -0.67484378153E+02  0.18275401398E+03  0.53557181089E+03  0.56990379498E+03  0.51100000000E-03 0.  1.
         22    1    1    2    0    0 -0.75873562987E+02 -0.39584137524E+02  0.33614102443E+03  0.34686379144E+03  0.00000000000E+00 0. -1.
         -2    1    1    2    0  501  0.14335794114E+03 -0.14316987645E+03  0.99434177538E+01  0.20284965954E+03  0.25500000000E-02 0. -1.
<mgrwt>
<rscale>  0 0.19889197E+03</rscale>
<asrwt>0</asrwt>
<pdfrwt beam="1">  1       11 0.10000000E+01 0.85578628E+02</pdfrwt>
<pdfrwt beam="2">  1       -2 0.18316347E-01 0.19889197E+03</pdfrwt>
<totfact> 0.19430972E+02</totfact>
</mgrwt>
</event>
<event>
 5    1  0.6729100E-004  0.2544802E+03  0.7818608E-02  0.1123784E+00
         11   -1    0    0    0    0  0.00000000000E+00  0.00000000000E+00  0.99986477928E+03  0.99986477928E+03  0.51100000000E-03 0.  1.
         -2   -1    0    0    0  501 -0.00000000000E+00 -0.00000000000E+00 -0.30349530137E+03  0.30349530138E+03  0.25500000000E-02 0. -1.
         11    1    1    2    0    0 -0.46355880070E+02  0.15996406498E+03  0.48401153102E+03  0.51186378253E+03  0.51100000000E-03 0.  1.
         22    1    1    2    0    0  0.18471495967E+02  0.72473708425E+02  0.45102316270E+03  0.45718216049E+03  0.00000000000E+00 0.  1.
         -2    1    1    2    0  501  0.27884384103E+02 -0.23243777340E+03 -0.23866521581E+03  0.33431413764E+03  0.25500000000E-02 0. -1.
<mgrwt>
<rscale>  0 0.23410437E+03</rscale>
<asrwt>0</asrwt>
<pdfrwt beam="1">  1       11 0.10000000E+01 0.25448018E+03</pdfrwt>
<pdfrwt beam="2">  1       -2 0.46685270E-01 0.23410437E+03</pdfrwt>
<totfact> 0.35661924E+01</totfact>
</mgrwt>
</event>
<event>
 5    1  0.6729100E-004  0.1284128E+03  0.7818608E-02  0.1346784E+00
         11   -1    0    0    0    0  0.00000000000E+00  0.00000000000E+00  0.10001682939E+04  0.10001682939E+04  0.51100000000E-03 0. -1.
          2   -1    0    0  501    0 -0.00000000000E+00 -0.00000000000E+00 -0.85346046010E+03  0.85346046010E+03  0.25500000000E-02 0. -1.
         11    1    1    2    0    0 -0.16186793302E+03  0.55132956666E+02  0.63392461628E+03  0.65658304103E+03  0.51100000000E-03 0. -1.
         22    1    1    2    0    0  0.87888243309E+02 -0.51534237302E+02  0.34592583493E+03  0.36061725444E+03  0.00000000000E+00 0.  1.
          2    1    1    2  501    0  0.73979689707E+02 -0.35987193637E+01 -0.83314261741E+03  0.83642845852E+03  0.25500000000E-02 0. -1.
<mgrwt>
<rscale>  0 0.74067167E+02</rscale>
<asrwt>0</asrwt>
<pdfrwt beam="1">  1       11 0.10000000E+01 0.12841278E+03</pdfrwt>
<pdfrwt beam="2">  1        2 0.13132370E+00 0.74067167E+02</pdfrwt>
<totfact> 0.42942929E+01</totfact>
</mgrwt>
</event>
<event>
 5    1  0.6729100E-004  0.1085411E+03  0.7818608E-02  0.1403507E+00
         11   -1    0    0    0    0  0.00000000000E+00  0.00000000000E+00  0.10005649191E+04  0.10005649191E+04  0.51100000000E-03 0. -1.
          2   -1    0    0  501    0 -0.00000000000E+00 -0.00000000000E+00 -0.10041399612E+04  0.10041399612E+04  0.25500000000E-02 0. -1.
         11    1    1    2    0    0 -0.15558734616E+01 -0.10776226033E+03  0.41570040096E+03  0.42944376681E+03  0.51100000000E-03 0. -1.
         22    1    1    2    0    0 -0.56766944077E+02  0.10140434614E+03  0.57127463098E+03  0.58297515501E+03  0.00000000000E+00 0.  1.
          2    1    1    2  501    0  0.58322817538E+02  0.63579141914E+01 -0.99055007407E+03  0.99228595847E+03  0.25500000000E-02 0. -1.
<mgrwt>
<rscale>  0 0.58668340E+02</rscale>
<asrwt>0</asrwt>
<pdfrwt beam="1">  1       11 0.10000000E+01 0.10854105E+03</pdfrwt>
<pdfrwt beam="2">  1        2 0.15457034E+00 0.58668340E+02</pdfrwt>
<totfact> 0.35240327E+01</totfact>
</mgrwt>
</event>
<event>
 5    1  0.6729100E-004  0.2962324E+03  0.7818608E-02  0.1087139E+00
         11   -1    0    0    0    0  0.00000000000E+00  0.00000000000E+00  0.10002731383E+04  0.10002731383E+04  0.51100000000E-03 0. -1.
          2   -1    0    0  501    0 -0.00000000000E+00 -0.00000000000E+00 -0.20355623768E+03  0.20355623769E+03  0.25500000000E-02 0. -1.
         11    1    1    2    0    0  0.26225235821E+03 -0.61144599407E+02  0.10371138066E+03  0.28856717052E+03  0.51100000000E-03 0. -1.
         22    1    1    2    0    0  0.92707958801E+02  0.13734389483E+03  0.44697775483E+03  0.47670454622E+03  0.00000000000E+00 0.  1.
          2    1    1    2  501    0 -0.35496031701E+03 -0.76199295426E+02  0.24602776514E+03  0.43855765927E+03  0.25500000000E-02 0. -1.
<mgrwt>
<rscale>  0 0.29623242E+03</rscale>
<asrwt>0</asrwt>
<pdfrwt beam="1">  1       11 0.10000000E+01 0.16570489E+03</pdfrwt>
<pdfrwt beam="2">  1        2 0.31324897E-01 0.29623242E+03</pdfrwt>
<totfact> 0.20721974E+02</totfact>
</mgrwt>
</event>
<event>
 5    1  0.6729100E-004  0.1677421E+03  0.7818608E-02  0.1191317E+00
         11   -1    0    0    0    0  0.00000000000E+00  0.00000000000E+00  0.10001066041E+04  0.10001066041E+04  0.51100000000E-03 0. -1.
          2   -1    0    0  501    0 -0.00000000000E+00 -0.00000000000E+00 -0.40533943566E+02  0.40533943646E+02  0.25500000000E-02 0. -1.
         11    1    1    2    0    0 -0.67556672178E+02  0.46223980148E+02  0.47926096537E+03  0.48620122709E+03  0.51100000000E-03 0. -1.
         22    1    1    2    0    0 -0.82341626532E+02  0.27662083484E+01  0.31652884818E+03  0.32707538443E+03  0.00000000000E+00 0.  1.
          2    1    1    2  501    0  0.14989829871E+03 -0.48990188497E+02  0.16378284699E+03  0.22736393623E+03  0.25500000000E-02 0. -1.
<mgrwt>
<rscale>  0 0.15770079E+03</rscale>
<asrwt>0</asrwt>
<pdfrwt beam="1">  1       11 0.10000000E+01 0.16774212E+03</pdfrwt>
<pdfrwt beam="2">  1        2 0.62366559E-02 0.15770079E+03</pdfrwt>
<totfact> 0.13916292E+03</totfact>
</mgrwt>
</event>
<event>
 5    1  0.6729100E-004  0.1867716E+03  0.7818608E-02  0.1442724E+00
         11   -1    0    0    0    0  0.00000000000E+00  0.00000000000E+00  0.99993581684E+03  0.99993581684E+03  0.51100000000E-03 0. -1.
         -2   -1    0    0    0  501 -0.00000000000E+00 -0.00000000000E+00 -0.38037728840E+02  0.38037728926E+02  0.25500000000E-02 0.  1.
         11    1    1    2    0    0 -0.10104412546E+03 -0.15532099231E+03  0.47984582626E+03  0.51437976527E+03  0.51100000000E-03 0. -1.
         22    1    1    2    0    0  0.96575379751E+01 -0.96439556070E+01  0.17292350191E+02  0.22029509632E+02  0.00000000000E+00 0.  1.
         -2    1    1    2    0  501  0.91386587486E+02  0.16496494792E+03  0.46475991154E+03  0.50156427086E+03  0.25500000000E-02 0.  1.
<mgrwt>
<rscale>  0 0.50488613E+02</rscale>
<asrwt>0</asrwt>
<pdfrwt beam="1">  1       11 0.10000000E+01 0.18677161E+03</pdfrwt>
<pdfrwt beam="2">  1       -2 0.58515825E-02 0.50488613E+02</pdfrwt>
<totfact> 0.10628121E+03</totfact>
</mgrwt>
</event>
<event>
 5    1  0.6729100E-004  0.1354735E+03  0.7818608E-02  0.1219553E+00
         11   -1    0    0    0    0  0.00000000000E+00  0.00000000000E+00  0.10002324680E+04  0.10002324680E+04  0.51100000000E-03 0.  1.
          2   -1    0    0  501    0 -0.00000000000E+00 -0.00000000000E+00 -0.71574537601E+03  0.71574537602E+03  0.25500000000E-02 0.  1.
         11    1    1    2    0    0  0.21296599833E+03  0.17418840066E+02  0.85705173768E+03  0.88328682403E+03  0.51100000000E-03 0.  1.
         22    1    1    2    0    0 -0.86832971494E+02 -0.65621401532E+02  0.99336291737E+02  0.14735614047E+03  0.00000000000E+00 0. -1.
          2    1    1    2  501    0 -0.12613302684E+03  0.48202561466E+02 -0.67190093742E+03  0.68533487953E+03  0.25500000000E-02 0.  1.
<mgrwt>
<rscale>  0 0.13547345E+03</rscale>
<asrwt>0</asrwt>
<pdfrwt beam="1">  1       11 0.10000000E+01 0.10883994E+03</pdfrwt>
<pdfrwt beam="2">  1        2 0.11014027E+00 0.13547345E+03</pdfrwt>
<totfact> 0.52046713E+01</totfact>
</mgrwt>
</event>
<event>
 5    1  0.6729100E-004  0.1175158E+03  0.7818608E-02  0.1247252E+00
         11   -1    0    0    0    0  0.00000000000E+00  0.00000000000E+00  0.99961651857E+03  0.99961651857E+03  0.51100000000E-03 0.  1.
          2   -1    0    0  501    0 -0.00000000000E+00 -0.00000000000E+00 -0.25303158524E+02  0.25303158653E+02  0.25500000000E-02 0.  1.
         11    1    1    2    0    0  0.13817220200E+03 -0.92449913222E+01  0.58049004340E+03  0.59677945487E+03  0.51100000000E-03 0.  1.
         22    1    1    2    0    0 -0.28899951762E+02  0.30334572722E+02  0.20262984785E+03  0.20691604277E+03  0.00000000000E+00 0.  1.
          2    1    1    2  501    0 -0.10927225024E+03 -0.21089581399E+02  0.19119346879E+03  0.22122417958E+03  0.25500000000E-02 0.  1.
<mgrwt>
<rscale>  0 0.11751580E+03</rscale>
<asrwt>0</asrwt>
<pdfrwt beam="1">  1       11 0.10000000E+01 0.41897417E+02</pdfrwt>
<pdfrwt beam="2">  1        2 0.38913007E-02 0.11751580E+03</pdfrwt>
<totfact> 0.25148594E+03</totfact>
</mgrwt>
</event>
<event>
 5    1  0.6729100E-004  0.2616539E+03  0.7818608E-02  0.1106154E+00
         11   -1    0    0    0    0  0.00000000000E+00  0.00000000000E+00  0.10001136729E+04  0.10001136729E+04  0.51100000000E-03 0.  1.
          2   -1    0    0  501    0 -0.00000000000E+00 -0.00000000000E+00 -0.11757948545E+03  0.11757948548E+03  0.25500000000E-02 0.  1.
         11    1    1    2    0    0  0.26150205865E+03 -0.14705065010E+03  0.39723959923E+03  0.49780168698E+03  0.51100000000E-03 0.  1.
         22    1    1    2    0    0 -0.72287029150E+02 -0.53272724018E+01  0.31493837542E+03  0.32317174185E+03  0.00000000000E+00 0. -1.
          2    1    1    2  501    0 -0.18921502950E+03  0.15237792250E+03  0.17035621277E+03  0.29671972952E+03  0.25500000000E-02 0.  1.
<mgrwt>
<rscale>  0 0.26165389E+03</rscale>
<asrwt>0</asrwt>
<pdfrwt beam="1">  1       11 0.10000000E+01 0.72483063E+02</pdfrwt>
<pdfrwt beam="2">  1        2 0.18091207E-01 0.26165389E+03</pdfrwt>
<totfact> 0.38475205E+02</totfact>
</mgrwt>
</event>
<event>
 5    1  0.6729100E-004  0.1444874E+03  0.7818608E-02  0.1207415E+00
         11   -1    0    0    0    0  0.00000000000E+00  0.00000000000E+00  0.10001160066E+04  0.10001160066E+04  0.51100000000E-03 0.  1.
          2   -1    0    0  501    0 -0.00000000000E+00 -0.00000000000E+00 -0.10683256087E+03  0.10683256090E+03  0.25500000000E-02 0.  1.
         11    1    1    2    0    0 -0.64347634204E+02  0.14634544457E+03  0.85491066006E+03  0.86972975335E+03  0.51100000000E-03 0.  1.
         22    1    1    2    0    0  0.17696988677E+02 -0.10552502793E+02  0.84055448433E+02  0.86543960706E+02  0.00000000000E+00 0.  1.
          2    1    1    2  501    0  0.46650645526E+02 -0.13579294177E+03 -0.45682662804E+02  0.15067485341E+03  0.25500000000E-02 0.  1.
<mgrwt>
<rscale>  0 0.14448741E+03</rscale>
<asrwt>0</asrwt>
<pdfrwt beam="1">  1       11 0.10000000E+01 0.20604337E+02</pdfrwt>
<pdfrwt beam="2">  1        2 0.16437685E-01 0.14448741E+03</pdfrwt>
<totfact> 0.42153860E+02</totfact>
</mgrwt>
</event>
<event>
 5    1  0.6729100E-004  0.2471082E+03  0.7818608E-02  0.1115146E+00
         11   -1    0    0    0    0  0.00000000000E+00  0.00000000000E+00  0.10000632738E+04  0.10000632738E+04  0.51100000000E-03 0. -1.
         -2   -1    0    0    0  501 -0.00000000000E+00 -0.00000000000E+00 -0.10536122478E+03  0.10536122481E+03  0.25500000000E-02 0.  1.
         11    1    1    2    0    0 -0.12591583076E+03  0.19703338756E+03  0.50435461919E+03  0.55592313690E+03  0.51100000000E-03 0. -1.
         22    1    1    2    0    0  0.30833488174E+02  0.37905649055E+02  0.25989618571E+03  0.26444955959E+03  0.00000000000E+00 0. -1.
         -2    1    1    2    0  501  0.95082342582E+02 -0.23493903662E+03  0.13045124414E+03  0.28505180214E+03  0.25500000000E-02 0.  1.
<mgrwt>
<rscale>  0 0.24710816E+03</rscale>
<asrwt>0</asrwt>
<pdfrwt beam="1">  1       11 0.10000000E+01 0.48862483E+02</pdfrwt>
<pdfrwt beam="2">  1       -2 0.16210444E-01 0.24710816E+03</pdfrwt>
<totfact> 0.24025276E+02</totfact>
</mgrwt>
</event>
<event>
 5    1  0.6729100E-004  0.1967640E+03  0.7818608E-02  0.1152498E+00
         11   -1    0    0    0    0  0.00000000000E+00  0.00000000000E+00  0.10003247123E+04  0.10003247123E+04  0.51100000000E-03 0. -1.
         -2   -1    0    0    0  501 -0.00000000000E+00 -0.00000000000E+00 -0.93091442596E+02  0.93091442631E+02  0.25500000000E-02 0. -1.
         11    1    1    2    0    0  0.16725996571E+03 -0.11825275632E+03  0.83632225638E+03  0.86104269756E+03  0.51100000000E-03 0. -1.
         22    1    1    2    0    0 -0.98633182431E+01  0.20741884440E+01  0.31154665771E+02  0.32744472873E+02  0.00000000000E+00 0.  1.
         -2    1    1    2    0  501 -0.15739664747E+03  0.11617856788E+03  0.39756347536E+02  0.19962898448E+03  0.25500000000E-02 0. -1.
<mgrwt>
<rscale>  0 0.19676396E+03</rscale>
<asrwt>0</asrwt>
<pdfrwt beam="1">  1       11 0.10000000E+01 0.10079053E+02</pdfrwt>
<pdfrwt beam="2">  1       -2 0.14326410E-01 0.19676396E+03</pdfrwt>
<totfact> 0.29222457E+02</totfact>
</mgrwt>
</event>
<event>
 5    1  0.6729100E-004  0.2204753E+03  0.7818608E-02  0.1141387E+00
         11   -1    0    0    0    0  0.00000000000E+00  0.00000000000E+00  0.99995168990E+03  0.99995168990E+03  0.51100000000E-03 0.  1.
         -2   -1    0    0    0  501 -0.00000000000E+00 -0.00000000000E+00 -0.10375028303E+03  0.10375028306E+03  0.25500000000E-02 0. -1.
         11    1    1    2    0    0 -0.15914965509E+03 -0.67341110185E+02  0.67390539273E+03  0.69570964934E+03  0.51100000000E-03 0.  1.
         22    1    1    2    0    0 -0.19487004389E+02 -0.43492946236E+02  0.18928127252E+03  0.19518908740E+03  0.00000000000E+00 0.  1.
         -2    1    1    2    0  501  0.17863665948E+03  0.11083405642E+03  0.33014741622E+02  0.21280323622E+03  0.25500000000E-02 0. -1.
<mgrwt>
<rscale>  0 0.21022665E+03</rscale>
<asrwt>0</asrwt>
<pdfrwt beam="1">  1       11 0.10000000E+01 0.22047526E+03</pdfrwt>
<pdfrwt beam="2">  1       -2 0.15960810E-01 0.21022665E+03</pdfrwt>
<totfact> 0.24512791E+02</totfact>
</mgrwt>
</event>
<event>
 5    1  0.6729100E-004  0.1379644E+03  0.7818608E-02  0.1216095E+00
         11   -1    0    0    0    0  0.00000000000E+00  0.00000000000E+00  0.10002771545E+04  0.10002771545E+04  0.51100000000E-03 0. -1.
         -2   -1    0    0    0  501 -0.00000000000E+00 -0.00000000000E+00 -0.53171220295E+02  0.53171220357E+02  0.25500000000E-02 0. -1.
         11    1    1    2    0    0  0.18324269683E+03 -0.33464925560E+02  0.71986021848E+03  0.74357011864E+03  0.51100000000E-03 0. -1.
         22    1    1    2    0    0 -0.61933873094E+02 -0.14048462471E+02  0.13814078028E+03  0.15203959718E+03  0.00000000000E+00 0. -1.
         -2    1    1    2    0  501 -0.12130882374E+03  0.47513388032E+02  0.89104935445E+02  0.15783865904E+03  0.25500000000E-02 0. -1.
<mgrwt>
<rscale>  0 0.13796438E+03</rscale>
<asrwt>0</asrwt>
<pdfrwt beam="1">  1       11 0.10000000E+01 0.63507196E+02</pdfrwt>
<pdfrwt beam="2">  1       -2 0.81824547E-02 0.13796438E+03</pdfrwt>
<totfact> 0.69858274E+02</totfact>
</mgrwt>
</event>
<event>
 5    1  0.6729100E-004  0.9716481E+02  0.7818608E-02  0.1477937E+00
         11   -1    0    0    0    0  0.00000000000E+00  0.00000000000E+00  0.10002357206E+04  0.10002357206E+04  0.51100000000E-03 0. -1.
          2   -1    0    0  501    0 -0.00000000000E+00 -0.00000000000E+00 -0.33193573360E+02  0.33193573458E+02  0.25500000000E-02 0. -1.
         11    1    1    2    0    0  0.73041206901E+02  0.63695696902E+02  0.61847672116E+02  0.11496649188E+03  0.51100000000E-03 0. -1.
         22    1    1    2    0    0 -0.95641300204E+02 -0.25444161665E+02  0.43220676573E+03  0.44339299950E+03  0.00000000000E+00 0. -1.
          2    1    1    2  501    0  0.22600093303E+02 -0.38251535237E+02  0.47298770939E+03  0.47506980266E+03  0.25500000000E-02 0. -1.
<mgrwt>
<rscale>  0 0.44429092E+02</rscale>
<asrwt>0</asrwt>
<pdfrwt beam="1">  1       11 0.10000000E+01 0.97164806E+02</pdfrwt>
<pdfrwt beam="2">  1        2 0.51079072E-02 0.44429092E+02</pdfrwt>
<totfact> 0.16039834E+03</totfact>
</mgrwt>
</event>
<event>
 5    1  0.6729100E-004  0.8605752E+02  0.7818608E-02  0.1417619E+00
         11   -1    0    0    0    0  0.00000000000E+00  0.00000000000E+00  0.10003209736E+04  0.10003209736E+04  0.51100000000E-03 0. -1.
          2   -1    0    0  501    0 -0.00000000000E+00 -0.00000000000E+00 -0.14746446992E+02  0.14746447212E+02  0.25500000000E-02 0. -1.
         11    1    1    2    0    0 -0.97787567646E+02 -0.46671336334E+02  0.41063721660E+03  0.42469229529E+03  0.51100000000E-03 0. -1.
         22    1    1    2    0    0  0.44849825779E+02  0.63432721126E+02  0.36852655789E+03  0.37662586323E+03  0.00000000000E+00 0. -1.
          2    1    1    2  501    0  0.52937741868E+02 -0.16761384792E+02  0.20641075207E+03  0.21374926225E+03  0.25500000000E-02 0. -1.
<mgrwt>
<rscale>  0 0.55527908E+02</rscale>
<asrwt>0</asrwt>
<pdfrwt beam="1">  1       11 0.10000000E+01 0.86057523E+02</pdfrwt>
<pdfrwt beam="2">  1        2 0.22694123E-02 0.55527908E+02</pdfrwt>
<totfact> 0.47016230E+03</totfact>
</mgrwt>
</event>
<event>
 5    1  0.6729100E-004  0.9438942E+02  0.7818608E-02  0.1292557E+00
         11   -1    0    0    0    0  0.00000000000E+00  0.00000000000E+00  0.99996183006E+03  0.99996183006E+03  0.51100000000E-03 0. -1.
          2   -1    0    0  501    0 -0.00000000000E+00 -0.00000000000E+00 -0.14381401315E+02  0.14381401541E+02  0.25500000000E-02 0. -1.
         11    1    1    2    0    0 -0.14130200442E+02  0.87565154492E+02  0.25911923324E+03  0.27387971060E+03  0.51100000000E-03 0. -1.
         22    1    1    2    0    0  0.27213768646E+02  0.20740165510E+02  0.16970531096E+03  0.17312029413E+03  0.00000000000E+00 0.  1.
          2    1    1    2  501    0 -0.13083568205E+02 -0.10830532000E+03  0.55675588455E+03  0.56734322687E+03  0.25500000000E-02 0. -1.
<mgrwt>
<rscale>  0 0.94389424E+02</rscale>
<asrwt>0</asrwt>
<pdfrwt beam="1">  1       11 0.10000000E+01 0.34216132E+02</pdfrwt>
<pdfrwt beam="2">  1        2 0.22124388E-02 0.94389424E+02</pdfrwt>
<totfact> 0.52166412E+03</totfact>
</mgrwt>
</event>
<event>
 5    1  0.6729100E-004  0.4697187E+03  0.7818608E-02  0.1022000E+00
         11   -1    0    0    0    0  0.00000000000E+00  0.00000000000E+00  0.99991604662E+03  0.99991604662E+03  0.51100000000E-03 0.  1.
          2   -1    0    0  501    0 -0.00000000000E+00 -0.00000000000E+00 -0.35783662255E+03  0.35783662256E+03  0.25500000000E-02 0.  1.
         11    1    1    2    0    0  0.44022645138E+03 -0.28850010239E+03  0.89141416327E+02  0.53383314779E+03  0.51100000000E-03 0.  1.
         22    1    1    2    0    0 -0.95655388679E+02  0.67693136240E+02  0.34604020714E+03  0.36534386410E+03  0.00000000000E+00 0. -1.
          2    1    1    2  501    0 -0.34457106271E+03  0.22080696615E+03  0.20689780060E+03  0.45857565728E+03  0.25500000000E-02 0.  1.
<mgrwt>
<rscale>  0 0.46971866E+03</rscale>
<asrwt>0</asrwt>
<pdfrwt beam="1">  1       11 0.10000000E+01 0.11718496E+03</pdfrwt>
<pdfrwt beam="2">  1        2 0.55047165E-01 0.46971866E+03</pdfrwt>
<totfact> 0.11179521E+02</totfact>
</mgrwt>
</event>
<event>
 5    1  0.6729100E-004  0.3287992E+03  0.7818608E-02  0.1477321E+00
         11   -1    0    0    0    0  0.00000000000E+00  0.00000000000E+00  0.10010179235E+04  0.10010179235E+04  0.51100000000E-03 0. -1.
          2   -1    0    0  501    0 -0.00000000000E+00 -0.00000000000E+00 -0.12502753746E+04  0.12502753746E+04  0.25500000000E-02 0. -1.
         11    1    1    2    0    0 -0.33003488090E+03  0.12436321543E+03  0.44212282277E+03  0.56556327885E+03  0.51100000000E-03 0. -1.
         22    1    1    2    0    0  0.28564378617E+03 -0.12089711236E+03  0.44832022139E+03  0.54516007307E+03  0.00000000000E+00 0. -1.
          2    1    1    2  501    0  0.44391094730E+02 -0.34661030721E+01 -0.11397004952E+04  0.11405699461E+04  0.25500000000E-02 0. -1.
<mgrwt>
<rscale>  0 0.44526208E+02</rscale>
<asrwt>0</asrwt>
<pdfrwt beam="1">  1       11 0.10000000E+01 0.32879920E+03</pdfrwt>
<pdfrwt beam="2">  1        2 0.19254585E+00 0.44526208E+02</pdfrwt>
<totfact> 0.26363426E+01</totfact>
</mgrwt>
</event>
<event>
 5    1  0.6729100E-004  0.1599839E+03  0.7818608E-02  0.1188715E+00
         11   -1    0    0    0    0  0.00000000000E+00  0.00000000000E+00  0.99996695981E+03  0.99996695981E+03  0.51100000000E-03 0. -1.
          2   -1    0    0  501    0 -0.00000000000E+00 -0.00000000000E+00 -0.79766380744E+03  0.79766380745E+03  0.25500000000E-02 0. -1.
         11    1    1    2    0    0  0.11746813050E+03  0.12982895028E+03  0.93017237474E+03  0.94650671669E+03  0.51100000000E-03 0. -1.
         22    1    1    2    0    0 -0.78967075092E+01 -0.13435971425E+02  0.52389695108E+02  0.54658608390E+02  0.00000000000E+00 0. -1.
          2    1    1    2  501    0 -0.10957142299E+03 -0.11639297885E+03 -0.78025891748E+03  0.79646544217E+03  0.25500000000E-02 0. -1.
<mgrwt>
<rscale>  0 0.15998386E+03</rscale>
<asrwt>0</asrwt>
<pdfrwt beam="1">  1       11 0.10000000E+01 0.15584714E+02</pdfrwt>
<pdfrwt beam="2">  1        2 0.12271345E+00 0.15998386E+03</pdfrwt>
<totfact> 0.45348091E+01</totfact>
</mgrwt>
</event>
<event>
 5    1  0.6729100E-004  0.1479154E+03  0.7818608E-02  0.1209410E+00
         11   -1    0    0    0    0  0.00000000000E+00  0.00000000000E+00  0.99998433643E+03  0.99998433643E+03  0.51100000000E-03 0. -1.
          2   -1    0    0  501    0 -0.00000000000E+00 -0.00000000000E+00 -0.21547084743E+02  0.21547084894E+02  0.25500000000E-02 0. -1.
         11    1    1    2    0    0  0.13005548222E+03 -0.33234369578E+02  0.50904397489E+03  0.52644536293E+03  0.51100000000E-03 0. -1.
         22    1    1    2    0    0  0.10721515410E+02  0.83857429725E+01  0.57566977768E+02  0.59154277167E+02  0.00000000000E+00 0. -1.
          2    1    1    2  501    0 -0.14077699763E+03  0.24848626605E+02  0.41182629903E+03  0.43593178122E+03  0.25500000000E-02 0. -1.
<mgrwt>
<rscale>  0 0.14295320E+03</rscale>
<asrwt>0</asrwt>
<pdfrwt beam="1">  1       11 0.10000000E+01 0.14791540E+03</pdfrwt>
<pdfrwt beam="2">  1        2 0.33148841E-02 0.14295320E+03</pdfrwt>
<totfact> 0.31718124E+03</totfact>
</mgrwt>
</event>
<event>
 5    1  0.6729100E-004  0.9324598E+02  0.7818608E-02  0.1295176E+00
         11   -1    0    0    0    0  0.00000000000E+00  0.00000000000E+00  0.99977333391E+03  0.99977333391E+03  0.51100000000E-03 0.  1.
          2   -1    0    0  501    0 -0.00000000000E+00 -0.00000000000E+00 -0.15294545704E+04  0.15294545704E+04  0.25500000000E-02 0.  1.
         11    1    1    2    0    0  0.10420295078E+03 -0.13536680195E+03  0.73862633240E+03  0.75812352881E+03  0.51100000000E-03 0.  1.
         22    1    1    2    0    0 -0.53934141261E+02  0.57005929939E+02  0.24380738286E+03  0.25612615559E+03  0.00000000000E+00 0. -1.
          2    1    1    2  501    0 -0.50268809524E+02  0.78360872007E+02 -0.15121149518E+04  0.15149782199E+04  0.25500000000E-02 0.  1.
<mgrwt>
<rscale>  0 0.93245983E+02</rscale>
<asrwt>0</asrwt>
<pdfrwt beam="1">  1       11 0.10000000E+01 0.78476542E+02</pdfrwt>
<pdfrwt beam="2">  1        2 0.23524736E+00 0.93245983E+02</pdfrwt>
<totfact> 0.17956261E+01</totfact>
</mgrwt>
</event>
<event>
 5    1  0.6729100E-004  0.3453040E+03  0.7818608E-02  0.1066281E+00
         11   -1    0    0    0    0  0.00000000000E+00  0.00000000000E+00  0.99997628191E+03  0.99997628191E+03  0.51100000000E-03 0.  1.
          2   -1    0    0  501    0 -0.00000000000E+00 -0.00000000000E+00 -0.75307811323E+03  0.75307811324E+03  0.25500000000E-02 0.  1.
         11    1    1    2    0    0 -0.37585410211E+02 -0.31936186105E+03  0.82951486015E+03  0.88966261277E+03  0.51100000000E-03 0.  1.
         22    1    1    2    0    0 -0.54400968670E+01 -0.19125911856E+02  0.99087296148E+02  0.10106278947E+03  0.00000000000E+00 0. -1.
          2    1    1    2  501    0  0.43025507078E+02  0.33848777291E+03 -0.68170398762E+03  0.76232899290E+03  0.25500000000E-02 0.  1.
<mgrwt>
<rscale>  0 0.34121132E+03</rscale>
<asrwt>0</asrwt>
<pdfrwt beam="1">  1       11 0.10000000E+01 0.34530401E+03</pdfrwt>
<pdfrwt beam="2">  1        2 0.11585542E+00 0.34121132E+03</pdfrwt>
<totfact> 0.47477803E+01</totfact>
</mgrwt>
</event>
<event>
 5    1  0.6729100E-004  0.2943541E+03  0.7818608E-02  0.1140452E+00
         11   -1    0    0    0    0  0.00000000000E+00  0.00000000000E+00  0.10003503738E+04  0.10003503738E+04  0.51100000000E-03 0. -1.
          2   -1    0    0  501    0 -0.00000000000E+00 -0.00000000000E+00 -0.40812015250E+03  0.40812015251E+03  0.25500000000E-02 0. -1.
         11    1    1    2    0    0 -0.91737568332E+02 -0.31381068141E+03 -0.16116455781E+03  0.36450917671E+03  0.51100000000E-03 0. -1.
         22    1    1    2    0    0 -0.11597689003E+03  0.27443676795E+03  0.77610921698E+03  0.83133127892E+03  0.00000000000E+00 0. -1.
          2    1    1    2  501    0  0.20771445836E+03  0.39373913452E+02 -0.22714437862E+02  0.21263007070E+03  0.25500000000E-02 0. -1.
<mgrwt>
<rscale>  0 0.21141334E+03</rscale>
<asrwt>0</asrwt>
<pdfrwt beam="1">  1       11 0.10000000E+01 0.29435415E+03</pdfrwt>
<pdfrwt beam="2">  1        2 0.62809713E-01 0.21141334E+03</pdfrwt>
<totfact> 0.97287073E+01</totfact>
</mgrwt>
</event>
<event>
 5    1  0.6729100E-004  0.1898265E+03  0.7818608E-02  0.1158618E+00
         11   -1    0    0    0    0  0.00000000000E+00  0.00000000000E+00  0.10005047900E+04  0.10005047900E+04  0.51100000000E-03 0. -1.
          2   -1    0    0  501    0 -0.00000000000E+00 -0.00000000000E+00 -0.79880940205E+03  0.79880940205E+03  0.25500000000E-02 0.  1.
         11    1    1    2    0    0 -0.26691062981E+02 -0.19240284281E+03  0.85614128662E+03  0.87790043252E+03  0.51100000000E-03 0. -1.
         22    1    1    2    0    0 -0.20997278814E+02  0.87068006940E+01  0.12098192948E+03  0.12309882760E+03  0.00000000000E+00 0. -1.
          2    1    1    2  501    0  0.47688341795E+02  0.18369604212E+03 -0.77542782816E+03  0.79831493192E+03  0.25500000000E-02 0.  1.
<mgrwt>
<rscale>  0 0.18982646E+03</rscale>
<asrwt>0</asrwt>
<pdfrwt beam="1">  1       11 0.10000000E+01 0.22730906E+02</pdfrwt>
<pdfrwt beam="2">  1        2 0.12295579E+00 0.18982646E+03</pdfrwt>
<totfact> 0.44954403E+01</totfact>
</mgrwt>
</event>
<event>
 5    1  0.6729100E-004  0.2528137E+03  0.7818608E-02  0.1111539E+00
         11   -1    0    0    0    0  0.00000000000E+00  0.00000000000E+00  0.10002336444E+04  0.10002336444E+04  0.51100000000E-03 0. -1.
          2   -1    0    0  501    0 -0.00000000000E+00 -0.00000000000E+00 -0.25844658990E+03  0.25844658991E+03  0.25500000000E-02 0. -1.
         11    1    1    2    0    0  0.16800345467E+03 -0.17422558970E+03  0.57598927941E+03  0.62477465288E+03  0.51100000000E-03 0. -1.
         22    1    1    2    0    0 -0.48203339602E+02 -0.50958932248E+02  0.32549541461E+03  0.33296792587E+03  0.00000000000E+00 0. -1.
          2    1    1    2  501    0 -0.11980011507E+03  0.22518452195E+03 -0.15969763948E+03  0.30093765560E+03  0.25500000000E-02 0. -1.
<mgrwt>
<rscale>  0 0.25281367E+03</rscale>
<asrwt>0</asrwt>
<pdfrwt beam="1">  1       11 0.10000000E+01 0.70145383E+02</pdfrwt>
<pdfrwt beam="2">  1        2 0.39770303E-01 0.25281367E+03</pdfrwt>
<totfact> 0.15938520E+02</totfact>
</mgrwt>
</event>
<event>
 5    1  0.6729100E-004  0.1195628E+03  0.7818608E-02  0.1631360E+00
         11   -1    0    0    0    0  0.00000000000E+00  0.00000000000E+00  0.10004248329E+04  0.10004248329E+04  0.51100000000E-03 0. -1.
          2   -1    0    0  501    0 -0.00000000000E+00 -0.00000000000E+00 -0.21313348985E+02  0.21313349137E+02  0.25500000000E-02 0. -1.
         11    1    1    2    0    0  0.49136985278E+02 -0.96426048644E+02  0.45077197019E+03  0.46358148721E+03  0.51100000000E-03 0. -1.
         22    1    1    2    0    0 -0.62240262652E+02  0.12025425838E+03  0.50328107118E+03  0.52117825508E+03  0.00000000000E+00 0. -1.
          2    1    1    2  501    0  0.13103277375E+02 -0.23828209731E+02  0.25058442541E+02  0.36978439746E+02  0.25500000000E-02 0. -1.
<mgrwt>
<rscale>  0 0.27193372E+02</rscale>
<asrwt>0</asrwt>
<pdfrwt beam="1">  1       11 0.10000000E+01 0.11956284E+03</pdfrwt>
<pdfrwt beam="2">  1        2 0.32803697E-02 0.27193372E+02</pdfrwt>
<totfact> 0.26320392E+03</totfact>
</mgrwt>
</event>
<event>
 5    1  0.6729100E-004  0.4416889E+03  0.7818608E-02  0.1036921E+00
         11   -1    0    0    0    0  0.00000000000E+00  0.00000000000E+00  0.10005060561E+04  0.10005060561E+04  0.51100000000E-03 0. -1.
         -2   -1    0    0    0  501 -0.00000000000E+00 -0.00000000000E+00 -0.49149860006E+03  0.49149860007E+03  0.25500000000E-02 0.  1.
         11    1    1    2    0    0  0.10406475249E+03  0.18408330247E+03  0.30483377083E+03  0.37099833261E+03  0.51100000000E-03 0. -1.
         22    1    1    2    0    0  0.23009607393E+02  0.21670154474E+03  0.54037960714E+03  0.58266553128E+03  0.00000000000E+00 0. -1.
         -2    1    1    2    0  501 -0.12707435989E+03 -0.40078484721E+03 -0.33620592193E+03  0.53834079229E+03  0.25500000000E-02 0.  1.
<mgrwt>
<rscale>  0 0.42044784E+03</rscale>
<asrwt>0</asrwt>
<pdfrwt beam="1">  1       11 0.10000000E+01 0.44168893E+03</pdfrwt>
<pdfrwt beam="2">  1       -2 0.75653433E-01 0.42044784E+03</pdfrwt>
<totfact> 0.12960244E+01</totfact>
</mgrwt>
</event>
<event>
 5    1  0.6729100E-004  0.2948217E+03  0.7818608E-02  0.1455671E+00
         11   -1    0    0    0    0  0.00000000000E+00  0.00000000000E+00  0.99995023696E+03  0.99995023696E+03  0.51100000000E-03 0. -1.
         -2   -1    0    0    0  501 -0.00000000000E+00 -0.00000000000E+00 -0.79693486241E+03  0.79693486242E+03  0.25500000000E-02 0. -1.
         11    1    1    2    0    0  0.16560378932E+03  0.24421673011E+03  0.57482699311E+03  0.64613659416E+03  0.51100000000E-03 0. -1.
         22    1    1    2    0    0 -0.12459282574E+03 -0.26941681783E+03  0.33196965728E+03  0.44532308194E+03  0.00000000000E+00 0.  1.
         -2    1    1    2    0  501 -0.41010963587E+02  0.25200087715E+02 -0.70378127585E+03  0.70542542327E+03  0.25500000000E-02 0. -1.
<mgrwt>
<rscale>  0 0.48134640E+02</rscale>
<asrwt>0</asrwt>
<pdfrwt beam="1">  1       11 0.10000000E+01 0.29482168E+03</pdfrwt>
<pdfrwt beam="2">  1       -2 0.12259926E+00 0.48134640E+02</pdfrwt>
<totfact> 0.45644392E+00</totfact>
</mgrwt>
</event>
<event>
 5    1  0.6729100E-004  0.1349145E+03  0.7818608E-02  0.1452042E+00
         11   -1    0    0    0    0  0.00000000000E+00  0.00000000000E+00  0.10001994858E+04  0.10001994858E+04  0.51100000000E-03 0. -1.
         -2   -1    0    0    0  501 -0.00000000000E+00 -0.00000000000E+00 -0.67599849298E+02  0.67599849346E+02  0.25500000000E-02 0.  1.
         11    1    1    2    0    0  0.55056742991E+02 -0.13583401189E+03  0.28049346453E+03  0.31647860494E+03  0.51100000000E-03 0. -1.
         22    1    1    2    0    0 -0.87836504049E+02  0.99711286118E+02  0.68152411222E+03  0.69435776626E+03  0.00000000000E+00 0. -1.
         -2    1    1    2    0  501  0.32779761058E+02  0.36122725773E+02 -0.29417940224E+02  0.56962963983E+02  0.25500000000E-02 0.  1.
<mgrwt>
<rscale>  0 0.48778725E+02</rscale>
<asrwt>0</asrwt>
<pdfrwt beam="1">  1       11 0.10000000E+01 0.13491455E+03</pdfrwt>
<pdfrwt beam="2">  1       -2 0.10402051E-01 0.48778725E+02</pdfrwt>
<totfact> 0.44688720E+02</totfact>
</mgrwt>
</event>
<event>
 5    1  0.6729100E-004  0.2826010E+03  0.7818608E-02  0.1094277E+00
         11   -1    0    0    0    0  0.00000000000E+00  0.00000000000E+00  0.99990623971E+03  0.99990623971E+03  0.51100000000E-03 0. -1.
          2   -1    0    0  501    0 -0.00000000000E+00 -0.00000000000E+00 -0.15668197297E+03  0.15668197299E+03  0.25500000000E-02 0. -1.
         11    1    1    2    0    0 -0.30765491298E+03 -0.36783579676E+02  0.41547056523E+03  0.51828599034E+03  0.51100000000E-03 0. -1.
         22    1    1    2    0    0  0.49815769666E+02 -0.55762769810E+02  0.34371844154E+03  0.35175767861E+03  0.00000000000E+00 0. -1.
          2    1    1    2  501    0  0.25783914331E+03  0.92546349486E+02  0.84035259970E+02  0.28654454375E+03  0.25500000000E-02 0. -1.
<mgrwt>
<rscale>  0 0.28260099E+03</rscale>
<asrwt>0</asrwt>
<pdfrwt beam="1">  1       11 0.10000000E+01 0.74773641E+02</pdfrwt>
<pdfrwt beam="2">  1        2 0.24102658E-01 0.28260099E+03</pdfrwt>
<totfact> 0.27741163E+02</totfact>
</mgrwt>
</event>
<event>
 5    1  0.6729100E-004  0.1190006E+03  0.7818608E-02  0.1545656E+00
         11   -1    0    0    0    0  0.00000000000E+00  0.00000000000E+00  0.10003199365E+04  0.10003199365E+04  0.51100000000E-03 0.  1.
          2   -1    0    0  501    0 -0.00000000000E+00 -0.00000000000E+00 -0.13217586708E+03  0.13217586710E+03  0.25500000000E-02 0.  1.
         11    1    1    2    0    0 -0.11378470580E+03 -0.82835262930E+02  0.44453231793E+03  0.46628062553E+03  0.51100000000E-03 0.  1.
         22    1    1    2    0    0  0.94474450795E+02  0.53244828752E+02  0.53679762082E+03  0.54764232795E+03  0.00000000000E+00 0.  1.
          2    1    1    2  501    0  0.19310255006E+02  0.29590434178E+02 -0.11318586938E+03  0.11857285008E+03  0.25500000000E-02 0.  1.
<mgrwt>
<rscale>  0 0.35333833E+02</rscale>
<asrwt>0</asrwt>
<pdfrwt beam="1">  1       11 0.10000000E+01 0.11900056E+03</pdfrwt>
<pdfrwt beam="2">  1        2 0.20341254E-01 0.35333833E+02</pdfrwt>
<totfact> 0.31202180E+02</totfact>
</mgrwt>
</event>
<event>
 5    1  0.6729100E-004  0.3662933E+03  0.7818608E-02  0.1056119E+00
         11   -1    0    0    0    0  0.00000000000E+00  0.00000000000E+00  0.10003987825E+04  0.10003987825E+04  0.51100000000E-03 0. -1.
         -2   -1    0    0    0  501 -0.00000000000E+00 -0.00000000000E+00 -0.12483312363E+03  0.12483312365E+03  0.25500000000E-02 0.  1.
         11    1    1    2    0    0  0.18335453161E+03 -0.27987863560E+03  0.34589041111E+03  0.48123914161E+03  0.51100000000E-03 0. -1.
         22    1    1    2    0    0 -0.11354764169E+02  0.11718160748E+03  0.25823983070E+03  0.28381027106E+03  0.00000000000E+00 0.  1.
         -2    1    1    2    0  501 -0.17199976744E+03  0.16269702812E+03  0.27143541704E+03  0.36018249345E+03  0.25500000000E-02 0.  1.
<mgrwt>
<rscale>  0 0.36629334E+03</rscale>
<asrwt>0</asrwt>
<pdfrwt beam="1">  1       11 0.10000000E+01 0.33459086E+03</pdfrwt>
<pdfrwt beam="2">  1       -2 0.19212754E-01 0.36629334E+03</pdfrwt>
<totfact> 0.18225189E+02</totfact>
</mgrwt>
</event>
<event>
 5    1  0.6729100E-004  0.2348044E+03  0.7818608E-02  0.1130697E+00
         11   -1    0    0    0    0  0.00000000000E+00  0.00000000000E+00  0.10000842032E+04  0.10000842032E+04  0.51100000000E-03 0.  1.
          2   -1    0    0  501    0 -0.00000000000E+00 -0.00000000000E+00 -0.19192943248E+03  0.19192943250E+03  0.25500000000E-02 0.  1.
         11    1    1    2    0    0 -0.12586325825E+03 -0.75281103106E+02  0.68004264660E+03  0.69567722793E+03  0.51100000000E-03 0.  1.
         22    1    1    2    0    0 -0.81700369487E+02 -0.98096617277E+01  0.23416526428E+03  0.24820264066E+03  0.00000000000E+00 0.  1.
          2    1    1    2  501    0  0.20756362773E+03  0.85090764834E+02 -0.10605314018E+03  0.24813376708E+03  0.25500000000E-02 0.  1.
<mgrwt>
<rscale>  0 0.22432810E+03</rscale>
<asrwt>0</asrwt>
<pdfrwt beam="1">  1       11 0.10000000E+01 0.23480439E+03</pdfrwt>
<pdfrwt beam="2">  1        2 0.29530090E-01 0.22432810E+03</pdfrwt>
<totfact> 0.22026065E+02</totfact>
</mgrwt>
</event>
<event>
 5    1  0.6729100E-004  0.1378263E+03  0.7818608E-02  0.1245478E+00
         11   -1    0    0    0    0  0.00000000000E+00  0.00000000000E+00  0.10003162880E+04  0.10003162880E+04  0.51100000000E-03 0.  1.
          2   -1    0    0  501    0 -0.00000000000E+00 -0.00000000000E+00 -0.16120612433E+04  0.16120612433E+04  0.25500000000E-02 0.  1.
         11    1    1    2    0    0  0.11581266588E+03  0.50154836011E+02  0.14058147007E+03  0.18892122930E+03  0.51100000000E-03 0.  1.
         22    1    1    2    0    0 -0.44573315588E+02 -0.14493509441E+03  0.82644409734E+03  0.84023973251E+03  0.00000000000E+00 0.  1.
          2    1    1    2  501    0 -0.71239350289E+02  0.94780258401E+02 -0.15787705227E+04  0.15832165694E+04  0.25500000000E-02 0.  1.
<mgrwt>
<rscale>  0 0.11856788E+03</rscale>
<asrwt>0</asrwt>
<pdfrwt beam="1">  1       11 0.10000000E+01 0.13782627E+03</pdfrwt>
<pdfrwt beam="2">  1        2 0.24808786E+00 0.11856788E+03</pdfrwt>
<totfact> 0.15950718E+01</totfact>
</mgrwt>
</event>
<event>
 5    1  0.6729100E-004  0.1550804E+03  0.7818608E-02  0.1700459E+00
         11   -1    0    0    0    0  0.00000000000E+00  0.00000000000E+00  0.10001271083E+04  0.10001271083E+04  0.51100000000E-03 0. -1.
          2   -1    0    0  501    0 -0.00000000000E+00 -0.00000000000E+00 -0.80058059828E+03  0.80058059828E+03  0.25500000000E-02 0.  1.
         11    1    1    2    0    0  0.11596708567E+03 -0.87493306043E+02  0.47829600013E+03  0.49987049053E+03  0.51100000000E-03 0. -1.
         22    1    1    2    0    0 -0.13216591457E+03  0.10304753483E+03  0.49713719427E+03  0.52462559348E+03  0.00000000000E+00 0. -1.
          2    1    1    2  501    0  0.16198828899E+02 -0.15554228785E+02 -0.77588668436E+03  0.77621162260E+03  0.25500000000E-02 0.  1.
<mgrwt>
<rscale>  0 0.22457429E+02</rscale>
<asrwt>0</asrwt>
<pdfrwt beam="1">  1       11 0.10000000E+01 0.15508043E+03</pdfrwt>
<pdfrwt beam="2">  1        2 0.12318190E+00 0.22457429E+02</pdfrwt>
<totfact> 0.48605048E+01</totfact>
</mgrwt>
</event>
<event>
 5    1  0.6729100E-004  0.6194069E+02  0.7818608E-02  0.1389863E+00
         11   -1    0    0    0    0  0.00000000000E+00  0.00000000000E+00  0.10000501639E+04  0.10000501639E+04  0.51100000000E-03 0.  1.
          2   -1    0    0  501    0 -0.00000000000E+00 -0.00000000000E+00 -0.15488039512E+02  0.15488039722E+02  0.25500000000E-02 0.  1.
         11    1    1    2    0    0  0.46214858758E+02  0.14303010169E+02  0.47284127537E+02  0.67647453663E+02  0.51100000000E-03 0.  1.
         22    1    1    2    0    0  0.10298615281E+02 -0.61217036186E+02  0.29730302778E+03  0.30371479602E+03  0.00000000000E+00 0.  1.
          2    1    1    2  501    0 -0.56513474040E+02  0.46914026018E+02  0.63997496904E+03  0.64417595390E+03  0.25500000000E-02 0.  1.
<mgrwt>
<rscale>  0 0.61940687E+02</rscale>
<asrwt>0</asrwt>
<pdfrwt beam="1">  1       11 0.10000000E+01 0.48377594E+02</pdfrwt>
<pdfrwt beam="2">  1        2 0.23828948E-02 0.61940687E+02</pdfrwt>
<totfact> 0.44747742E+03</totfact>
</mgrwt>
</event>
<event>
 5    1  0.6729100E-004  0.6231695E+03  0.7818608E-02  0.9858469E-01
         11   -1    0    0    0    0  0.00000000000E+00  0.00000000000E+00  0.10003220447E+04  0.10003220447E+04  0.51100000000E-03 0. -1.
          2   -1    0    0  501    0 -0.00000000000E+00 -0.00000000000E+00 -0.74542859067E+03  0.74542859067E+03  0.25500000000E-02 0. -1.
         11    1    1    2    0    0  0.60516271573E+03 -0.24984476760E+03  0.39738090028E+03  0.76586937549E+03  0.51100000000E-03 0. -1.
         22    1    1    2    0    0 -0.24433820211E+02  0.49664637847E+02  0.24661548623E+03  0.25275044188E+03  0.00000000000E+00 0. -1.
          2    1    1    2  501    0 -0.58072889552E+03  0.20018012975E+03 -0.38910293247E+03  0.72713081801E+03  0.25500000000E-02 0. -1.
<mgrwt>
<rscale>  0 0.62316953E+03</rscale>
<asrwt>0</asrwt>
<pdfrwt beam="1">  1       11 0.10000000E+01 0.55349687E+02</pdfrwt>
<pdfrwt beam="2">  1        2 0.11471825E+00 0.62316953E+03</pdfrwt>
<totfact> 0.47140766E+01</totfact>
</mgrwt>
</event>
<event>
 5    1  0.6729100E-004  0.4591273E+03  0.7818608E-02  0.1025035E+00
         11   -1    0    0    0    0  0.00000000000E+00  0.00000000000E+00  0.99974675013E+03  0.99974675013E+03  0.51100000000E-03 0. -1.
          2   -1    0    0  501    0 -0.00000000000E+00 -0.00000000000E+00 -0.45148886798E+03  0.45148886798E+03  0.25500000000E-02 0. -1.
         11    1    1    2    0    0 -0.15742067697E+03 -0.42029861576E+03  0.73298384300E+03  0.85947513638E+03  0.51100000000E-03 0. -1.
         22    1    1    2    0    0  0.29104466261E+01 -0.13943841955E+02  0.65688793369E+02  0.67215466987E+02  0.00000000000E+00 0.  1.
          2    1    1    2  501    0  0.15451023034E+03  0.43424245772E+03 -0.25041475422E+03  0.52454501475E+03  0.25500000000E-02 0. -1.
<mgrwt>
<rscale>  0 0.45912731E+03</rscale>
<asrwt>0</asrwt>
<pdfrwt beam="1">  1       11 0.10000000E+01 0.14244347E+02</pdfrwt>
<pdfrwt beam="2">  1        2 0.69442233E-01 0.45912731E+03</pdfrwt>
<totfact> 0.86333525E+01</totfact>
</mgrwt>
</event>
<event>
 5    1  0.6729100E-004  0.1693087E+03  0.7818608E-02  0.1419003E+00
         11   -1    0    0    0    0  0.00000000000E+00  0.00000000000E+00  0.10000869009E+04  0.10000869009E+04  0.51100000000E-03 0.  1.
          2   -1    0    0  501    0 -0.00000000000E+00 -0.00000000000E+00 -0.54463436029E+03  0.54463436030E+03  0.25500000000E-02 0. -1.
         11    1    1    2    0    0  0.10887313698E+03  0.14548911782E+03  0.38268368928E+03  0.42363575085E+03  0.51100000000E-03 0.  1.
         22    1    1    2    0    0 -0.13424711576E+03 -0.96430235422E+02  0.58396865157E+03  0.60691059013E+03  0.00000000000E+00 0.  1.
          2    1    1    2  501    0  0.25373978783E+02 -0.49058882393E+02 -0.51119980028E+03  0.51417492019E+03  0.25500000000E-02 0. -1.
<mgrwt>
<rscale>  0 0.55232352E+02</rscale>
<asrwt>0</asrwt>
<pdfrwt beam="1">  1       11 0.10000000E+01 0.16930874E+03</pdfrwt>
<pdfrwt beam="2">  1        2 0.83797181E-01 0.55232352E+02</pdfrwt>
<totfact> 0.72420828E+01</totfact>
</mgrwt>
</event>
<event>
 5    1  0.6729100E-004  0.1357237E+03  0.7818608E-02  0.1400389E+00
         11   -1    0    0    0    0  0.00000000000E+00  0.00000000000E+00  0.10003635142E+04  0.10003635142E+04  0.51100000000E-03 0. -1.
          2   -1    0    0  501    0 -0.00000000000E+00 -0.00000000000E+00 -0.71078460217E+03  0.71078460217E+03  0.25500000000E-02 0. -1.
         11    1    1    2    0    0  0.99098066141E+02 -0.15412650146E+03  0.24036208845E+03  0.30224053125E+03  0.51100000000E-03 0. -1.
         22    1    1    2    0    0 -0.54135875458E+02  0.11531750926E+03  0.72217925522E+03  0.73332918777E+03  0.00000000000E+00 0. -1.
          2    1    1    2  501    0 -0.44962190683E+02  0.38808992203E+02 -0.67296243168E+03  0.67557839732E+03  0.25500000000E-02 0. -1.
<mgrwt>
<rscale>  0 0.59394751E+02</rscale>
<asrwt>0</asrwt>
<pdfrwt beam="1">  1       11 0.10000000E+01 0.13572365E+03</pdfrwt>
<pdfrwt beam="2">  1        2 0.10939122E+00 0.59394751E+02</pdfrwt>
<totfact> 0.53828083E+01</totfact>
</mgrwt>
</event>
<event>
 5    1  0.6729100E-004  0.3006969E+03  0.7818608E-02  0.1084893E+00
         11   -1    0    0    0    0  0.00000000000E+00  0.00000000000E+00  0.10001538897E+04  0.10001538897E+04  0.51100000000E-03 0. -1.
          2   -1    0    0  501    0 -0.00000000000E+00 -0.00000000000E+00 -0.12358337172E+04  0.12358337172E+04  0.25500000000E-02 0. -1.
         11    1    1    2    0    0  0.31029957632E+03  0.15659008026E+03 -0.84391671610E+02  0.35767056705E+03  0.51100000000E-03 0. -1.
         22    1    1    2    0    0 -0.19535796414E+02 -0.25993686557E+03  0.81934540803E+03  0.85981144391E+03  0.00000000000E+00 0. -1.
          2    1    1    2  501    0 -0.29076377990E+03  0.10334678531E+03 -0.97063356390E+03  0.10185055960E+04  0.25500000000E-02 0. -1.
<mgrwt>
<rscale>  0 0.30069688E+03</rscale>
<asrwt>0</asrwt>
<pdfrwt beam="1">  1       11 0.10000000E+01 0.26066995E+03</pdfrwt>
<pdfrwt beam="2">  1        2 0.19015752E+00 0.30069688E+03</pdfrwt>
<totfact> 0.23727214E+01</totfact>
</mgrwt>
</event>
<event>
 5    1  0.6729100E-004  0.1591227E+03  0.7818608E-02  0.1189691E+00
         11   -1    0    0    0    0  0.00000000000E+00  0.00000000000E+00  0.10003210519E+04  0.10003210519E+04  0.51100000000E-03 0. -1.
          2   -1    0    0  501    0 -0.00000000000E+00 -0.00000000000E+00 -0.20458361165E+03  0.20458361166E+03  0.25500000000E-02 0. -1.
         11    1    1    2    0    0  0.11511419113E+03  0.10233940034E+03  0.86854417663E+03  0.88209614931E+03  0.51100000000E-03 0. -1.
         22    1    1    2    0    0  0.14944240743E+02 -0.10278221385E+02  0.91880023034E+02  0.93653140892E+02  0.00000000000E+00 0.  1.
          2    1    1    2  501    0 -0.13005843188E+03 -0.92061178955E+02 -0.16468675946E+03  0.22915537332E+03  0.25500000000E-02 0. -1.
<mgrwt>
<rscale>  0 0.15912266E+03</rscale>
<asrwt>0</asrwt>
<pdfrwt beam="1">  1       11 0.10000000E+01 0.18137590E+02</pdfrwt>
<pdfrwt beam="2">  1        2 0.31484506E-01 0.15912266E+03</pdfrwt>
<totfact> 0.20422437E+02</totfact>
</mgrwt>
</event>
<event>
 5    1  0.6729100E-004  0.2354518E+03  0.7818608E-02  0.1122860E+00
         11   -1    0    0    0    0  0.00000000000E+00  0.00000000000E+00  0.10003222154E+04  0.10003222154E+04  0.51100000000E-03 0.  1.
          2   -1    0    0  501    0 -0.00000000000E+00 -0.00000000000E+00 -0.12145365994E+04  0.12145365994E+04  0.25500000000E-02 0. -1.
         11    1    1    2    0    0  0.20315125619E+03  0.24409484640E+03  0.35964786405E+03  0.47979090555E+03  0.51100000000E-03 0.  1.
         22    1    1    2    0    0 -0.17974916284E+03 -0.10663257236E+02  0.55427784391E+03  0.58279275463E+03  0.00000000000E+00 0.  1.
          2    1    1    2  501    0 -0.23402093354E+02 -0.23343158917E+03 -0.11281400920E+04  0.11522751546E+04  0.25500000000E-02 0. -1.
<mgrwt>
<rscale>  0 0.23545180E+03</rscale>
<asrwt>0</asrwt>
<pdfrwt beam="1">  1       11 0.10000000E+01 0.18006517E+03</pdfrwt>
<pdfrwt beam="2">  1        2 0.18691199E+00 0.23545180E+03</pdfrwt>
<totfact> 0.24748190E+01</totfact>
</mgrwt>
</event>
<event>
 5    1  0.6729100E-004  0.9430186E+02  0.7818608E-02  0.1292756E+00
         11   -1    0    0    0    0  0.00000000000E+00  0.00000000000E+00  0.10000926683E+04  0.10000926683E+04  0.51100000000E-03 0.  1.
          2   -1    0    0  501    0 -0.00000000000E+00 -0.00000000000E+00 -0.39859491447E+02  0.39859491529E+02  0.25500000000E-02 0.  1.
         11    1    1    2    0    0  0.87768915475E+02 -0.37712188491E+02  0.43210822253E+03  0.44254164512E+03  0.51100000000E-03 0.  1.
         22    1    1    2    0    0 -0.12667479601E+01  0.88959639353E+02  0.47583858628E+03  0.48408447845E+03  0.00000000000E+00 0.  1.
          2    1    1    2  501    0 -0.86502167515E+02 -0.51247450862E+02  0.52286368039E+02  0.11332603626E+03  0.25500000000E-02 0.  1.
<mgrwt>
<rscale>  0 0.94301863E+02</rscale>
<asrwt>0</asrwt>
<pdfrwt beam="1">  1       11 0.10000000E+01 0.88968658E+02</pdfrwt>
<pdfrwt beam="2">  1        2 0.61327975E-02 0.94301863E+02</pdfrwt>
<totfact> 0.13671285E+03</totfact>
</mgrwt>
</event>
<event>
 5    1  0.6729100E-004  0.2380394E+03  0.7818608E-02  0.1129026E+00
         11   -1    0    0    0    0  0.00000000000E+00  0.00000000000E+00  0.10000244020E+04  0.10000244020E+04  0.51100000000E-03 0. -1.
          2   -1    0    0  501    0 -0.00000000000E+00 -0.00000000000E+00 -0.56790591016E+02  0.56790591073E+02  0.25500000000E-02 0. -1.
         11    1    1    2    0    0 -0.15757130264E+03 -0.13298595752E+03  0.29137646994E+03  0.35695129577E+03  0.51100000000E-03 0. -1.
         22    1    1    2    0    0 -0.27947065668E+02  0.27956591463E+01  0.73735532054E+02  0.78903630314E+02  0.00000000000E+00 0.  1.
          2    1    1    2  501    0  0.18551836831E+03  0.13019029837E+03  0.57812180903E+03  0.62096006704E+03  0.25500000000E-02 0. -1.
<mgrwt>
<rscale>  0 0.22664196E+03</rscale>
<asrwt>0</asrwt>
<pdfrwt beam="1">  1       11 0.10000000E+01 0.23803937E+03</pdfrwt>
<pdfrwt beam="2">  1        2 0.87372270E-02 0.22664196E+03</pdfrwt>
<totfact> 0.92566823E+02</totfact>
</mgrwt>
</event>
<event>
 5    1  0.6729100E-004  0.4311179E+03  0.7818608E-02  0.1033507E+00
         11   -1    0    0    0    0  0.00000000000E+00  0.00000000000E+00  0.10003490489E+04  0.10003490489E+04  0.51100000000E-03 0. -1.
          2   -1    0    0  501    0 -0.00000000000E+00 -0.00000000000E+00 -0.10975338234E+04  0.10975338234E+04  0.25500000000E-02 0. -1.
         11    1    1    2    0    0 -0.43328269116E+03 -0.18152093962E+03  0.78435910687E+03  0.91427728316E+03  0.51100000000E-03 0. -1.
         22    1    1    2    0    0  0.43947310519E+02  0.11279076472E+01  0.10170771889E+03  0.11080206839E+03  0.00000000000E+00 0.  1.
          2    1    1    2  501    0  0.38933538064E+03  0.18039303197E+03 -0.98325160024E+03  0.10728035207E+04  0.25500000000E-02 0. -1.
<mgrwt>
<rscale>  0 0.43111792E+03</rscale>
<asrwt>0</asrwt>
<pdfrwt beam="1">  1       11 0.10000000E+01 0.43961782E+02</pdfrwt>
<pdfrwt beam="2">  1        2 0.16891029E+00 0.43111792E+03</pdfrwt>
<totfact> 0.27988201E+01</totfact>
</mgrwt>
</event>
<event>
 5    1  0.6729100E-004  0.1205871E+03  0.7818608E-02  0.1242132E+00
         11   -1    0    0    0    0  0.00000000000E+00  0.00000000000E+00  0.10002002068E+04  0.10002002068E+04  0.51100000000E-03 0. -1.
          2   -1    0    0  501    0 -0.00000000000E+00 -0.00000000000E+00 -0.16310126911E+02  0.16310127110E+02  0.25500000000E-02 0.  1.
         11    1    1    2    0    0  0.10271944508E+03 -0.50620749997E+02  0.67989876219E+03  0.68947521460E+03  0.51100000000E-03 0. -1.
         22    1    1    2    0    0 -0.20332460278E+02 -0.31254349605E+01  0.75859098232E+02  0.78598855394E+02  0.00000000000E+00 0. -1.
          2    1    1    2  501    0 -0.82386984797E+02  0.53746184958E+02  0.22813221949E+03  0.24843626394E+03  0.25500000000E-02 0.  1.
<mgrwt>
<rscale>  0 0.12058710E+03</rscale>
<asrwt>0</asrwt>
<pdfrwt beam="1">  1       11 0.10000000E+01 0.11451526E+03</pdfrwt>
<pdfrwt beam="2">  1        2 0.25097526E-02 0.12058710E+03</pdfrwt>
<totfact> 0.45302438E+03</totfact>
</mgrwt>
</event>
<event>
 5    1  0.6729100E-004  0.1766686E+03  0.7818608E-02  0.1171067E+00
         11   -1    0    0    0    0  0.00000000000E+00  0.00000000000E+00  0.10004350534E+04  0.10004350534E+04  0.51100000000E-03 0. -1.
          2   -1    0    0  501    0 -0.00000000000E+00 -0.00000000000E+00 -0.31843241881E+02  0.31843241984E+02  0.25500000000E-02 0. -1.
         11    1    1    2    0    0 -0.15200751404E+02 -0.16757914485E+03  0.34042563003E+03  0.37974128326E+03  0.51100000000E-03 0. -1.
         22    1    1    2    0    0  0.31074859194E+02  0.14817178686E+03  0.52753345131E+03  0.54882790340E+03  0.00000000000E+00 0. -1.
          2    1    1    2  501    0 -0.15874107790E+02  0.19407357993E+02  0.10063273015E+03  0.10370910869E+03  0.25500000000E-02 0. -1.
<mgrwt>
<rscale>  0 0.17666862E+03</rscale>
<asrwt>0</asrwt>
<pdfrwt beam="1">  1       11 0.10000000E+01 0.16826723E+03</pdfrwt>
<pdfrwt beam="2">  1        2 0.49010915E-02 0.17666862E+03</pdfrwt>
<totfact> 0.19212760E+03</totfact>
</mgrwt>
</event>
<event>
 5    1  0.6729100E-004  0.9186695E+02  0.7818608E-02  0.1298393E+00
         11   -1    0    0    0    0  0.00000000000E+00  0.00000000000E+00  0.10001742860E+04  0.10001742860E+04  0.51100000000E-03 0. -1.
          2   -1    0    0  501    0 -0.00000000000E+00 -0.00000000000E+00 -0.10912220178E+02  0.10912220476E+02  0.25500000000E-02 0. -1.
         11    1    1    2    0    0  0.96809340550E+02  0.14878563367E+02  0.55742941221E+03  0.56596905362E+03  0.51100000000E-03 0. -1.
         22    1    1    2    0    0 -0.80994023940E+01 -0.15838578514E+02  0.10314545221E+03  0.10466826262E+03  0.00000000000E+00 0. -1.
          2    1    1    2  501    0 -0.88709938156E+02  0.96001514729E+00  0.32868720144E+03  0.34044919027E+03  0.25500000000E-02 0. -1.
<mgrwt>
<rscale>  0 0.91866953E+02</rscale>
<asrwt>0</asrwt>
<pdfrwt beam="1">  1       11 0.10000000E+01 0.17789348E+02</pdfrwt>
<pdfrwt beam="2">  1        2 0.16790957E-02 0.91866953E+02</pdfrwt>
<totfact> 0.75455981E+03</totfact>
</mgrwt>
</event>
<event>
 5    1  0.6729100E-004  0.1792573E+03  0.7818608E-02  0.1168524E+00
         11   -1    0    0    0    0  0.00000000000E+00  0.00000000000E+00  0.10000342749E+04  0.10000342749E+04  0.51100000000E-03 0.  1.
          2   -1    0    0  501    0 -0.00000000000E+00 -0.00000000000E+00 -0.68666742009E+02  0.68666742056E+02  0.25500000000E-02 0.  1.
         11    1    1    2    0    0 -0.10451075959E+03  0.15635620471E+03  0.75070375552E+03  0.77390302375E+03  0.51100000000E-03 0.  1.
         22    1    1    2    0    0 -0.23352178655E+02 -0.32241439511E+02  0.81901861119E+02  0.91064534943E+02  0.00000000000E+00 0.  1.
          2    1    1    2  501    0  0.12786293824E+03 -0.12411476520E+03  0.98761916305E+02  0.20373345831E+03  0.25500000000E-02 0.  1.
<mgrwt>
<rscale>  0 0.17925732E+03</rscale>
<asrwt>0</asrwt>
<pdfrwt beam="1">  1       11 0.10000000E+01 0.39809982E+02</pdfrwt>
<pdfrwt beam="2">  1        2 0.10564476E-01 0.17925732E+03</pdfrwt>
<totfact> 0.72174967E+02</totfact>
</mgrwt>
</event>
<event>
 5    1  0.6729100E-004  0.2420379E+03  0.7818608E-02  0.1122555E+00
         11   -1    0    0    0    0  0.00000000000E+00  0.00000000000E+00  0.10003339804E+04  0.10003339804E+04  0.51100000000E-03 0. -1.
          2   -1    0    0  501    0 -0.00000000000E+00 -0.00000000000E+00 -0.12925207819E+04  0.12925207819E+04  0.25500000000E-02 0. -1.
         11    1    1    2    0    0  0.11789887586E+03 -0.17365096273E+03  0.92020566410E+03  0.94383963999E+03  0.51100000000E-03 0. -1.
         22    1    1    2    0    0  0.17262880287E+02 -0.19687122675E+02  0.54438296818E+02  0.60407929906E+02  0.00000000000E+00 0.  1.
          2    1    1    2  501    0 -0.13516175614E+03  0.19333808540E+03 -0.12668307625E+04  0.12886071924E+04  0.25500000000E-02 0. -1.
<mgrwt>
<rscale>  0 0.23589895E+03</rscale>
<asrwt>0</asrwt>
<pdfrwt beam="1">  1       11 0.10000000E+01 0.24203787E+03</pdfrwt>
<pdfrwt beam="2">  1        2 0.19891576E+00 0.23589895E+03</pdfrwt>
<totfact> 0.22382926E+01</totfact>
</mgrwt>
</event>
<event>
 5    1  0.6729100E-004  0.1457358E+03  0.7818608E-02  0.1205813E+00
         11   -1    0    0    0    0  0.00000000000E+00  0.00000000000E+00  0.99966655585E+03  0.99966655585E+03  0.51100000000E-03 0. -1.
          2   -1    0    0  501    0 -0.00000000000E+00 -0.00000000000E+00 -0.32258743469E+03  0.32258743470E+03  0.25500000000E-02 0. -1.
         11    1    1    2    0    0  0.14880693471E+03  0.72244510965E+02  0.89044533230E+03  0.90567966909E+03  0.51100000000E-03 0. -1.
         22    1    1    2    0    0 -0.18862351092E+02 -0.70831710360E+01  0.83570088940E+02  0.85964640208E+02  0.00000000000E+00 0. -1.
          2    1    1    2  501    0 -0.12994458362E+03 -0.65161339929E+02 -0.29693630007E+03  0.33060968126E+03  0.25500000000E-02 0. -1.
<mgrwt>
<rscale>  0 0.14573583E+03</rscale>
<asrwt>0</asrwt>
<pdfrwt beam="1">  1       11 0.10000000E+01 0.20148439E+02</pdfrwt>
<pdfrwt beam="2">  1        2 0.49612286E-01 0.14573583E+03</pdfrwt>
<totfact> 0.12546715E+02</totfact>
</mgrwt>
</event>
<event>
 5    1  0.6729100E-004  0.1138226E+03  0.7818608E-02  0.1345400E+00
         11   -1    0    0    0    0  0.00000000000E+00  0.00000000000E+00  0.10000463061E+04  0.10000463061E+04  0.51100000000E-03 0.  1.
          2   -1    0    0  501    0 -0.00000000000E+00 -0.00000000000E+00 -0.74647001731E+03  0.74647001731E+03  0.25500000000E-02 0.  1.
         11    1    1    2    0    0  0.12666142954E+03 -0.56266407365E+02  0.81149045064E+03  0.82324102049E+03  0.51100000000E-03 0.  1.
         22    1    1    2    0    0 -0.81242470268E+02 -0.27982228418E+01  0.17164489999E+03  0.18992140669E+03  0.00000000000E+00 0.  1.
          2    1    1    2  501    0 -0.45418959272E+02  0.59064630207E+02 -0.72955906184E+03  0.73335389623E+03  0.25500000000E-02 0.  1.
<mgrwt>
<rscale>  0 0.74508472E+02</rscale>
<asrwt>0</asrwt>
<pdfrwt beam="1">  1       11 0.10000000E+01 0.11382264E+03</pdfrwt>
<pdfrwt beam="2">  1        2 0.11484686E+00 0.74508472E+02</pdfrwt>
<totfact> 0.50491414E+01</totfact>
</mgrwt>
</event>
<event>
 5    1  0.6729100E-004  0.2519796E+03  0.7818608E-02  0.1112060E+00
         11   -1    0    0    0    0  0.00000000000E+00  0.00000000000E+00  0.10004798750E+04  0.10004798750E+04  0.51100000000E-03 0. -1.
         -2   -1    0    0    0  501 -0.00000000000E+00 -0.00000000000E+00 -0.45252659011E+03  0.45252659011E+03  0.25500000000E-02 0.  1.
         11    1    1    2    0    0  0.16979725165E+03 -0.17037605087E+03  0.88534866129E+03  0.91744283605E+03  0.51100000000E-03 0. -1.
         22    1    1    2    0    0  0.20922685386E+02  0.49466690654E+01  0.60568765261E+02  0.64271328163E+02  0.00000000000E+00 0.  1.
         -2    1    1    2    0  501 -0.19071993704E+03  0.16542938181E+03 -0.39796414171E+03  0.47129230085E+03  0.25500000000E-02 0.  1.
<mgrwt>
<rscale>  0 0.25197961E+03</rscale>
<asrwt>0</asrwt>
<pdfrwt beam="1">  1       11 0.10000000E+01 0.21499495E+02</pdfrwt>
<pdfrwt beam="2">  1       -2 0.69652882E-01 0.25197961E+03</pdfrwt>
<totfact> 0.15663492E+01</totfact>
</mgrwt>
</event>
<event>
 5    1  0.6729100E-004  0.2983194E+03  0.7818608E-02  0.1087068E+00
         11   -1    0    0    0    0  0.00000000000E+00  0.00000000000E+00  0.10002456844E+04  0.10002456844E+04  0.51100000000E-03 0. -1.
          2   -1    0    0  501    0 -0.00000000000E+00 -0.00000000000E+00 -0.22013775313E+03  0.22013775314E+03  0.25500000000E-02 0. -1.
         11    1    1    2    0    0 -0.15616176272E+03 -0.23876591547E+03  0.83409788313E+03  0.88154122829E+03  0.51100000000E-03 0. -1.
         22    1    1    2    0    0 -0.11260118074E+02 -0.57884937847E+01  0.28515123517E+02  0.31199506222E+02  0.00000000000E+00 0. -1.
          2    1    1    2  501    0  0.16742188079E+03  0.24455440926E+03 -0.82505075383E+02  0.30764270303E+03  0.25500000000E-02 0. -1.
<mgrwt>
<rscale>  0 0.29637298E+03</rscale>
<asrwt>0</asrwt>
<pdfrwt beam="1">  1       11 0.10000000E+01 0.29831937E+03</pdfrwt>
<pdfrwt beam="2">  1        2 0.33875666E-01 0.29637298E+03</pdfrwt>
<totfact> 0.19011494E+02</totfact>
</mgrwt>
</event>
<event>
 5    1  0.6729100E-004  0.1304435E+03  0.7818608E-02  0.1654490E+00
         11   -1    0    0    0    0  0.00000000000E+00  0.00000000000E+00  0.10000901498E+04  0.10000901498E+04  0.51100000000E-03 0.  1.
          2   -1    0    0  501    0 -0.00000000000E+00 -0.00000000000E+00 -0.23322839022E+02  0.23322839162E+02  0.25500000000E-02 0.  1.
         11    1    1    2    0    0  0.84068044307E+02 -0.10482077689E+03  0.30056136628E+03  0.32922935204E+03  0.51100000000E-03 0.  1.
         22    1    1    2    0    0 -0.60367390189E+02  0.11411903657E+03  0.51255142021E+03  0.52856062535E+03  0.00000000000E+00 0.  1.
          2    1    1    2  501    0 -0.23700654118E+02 -0.92982596744E+01  0.16365452427E+03  0.16562301157E+03  0.25500000000E-02 0.  1.
<mgrwt>
<rscale>  0 0.25459353E+02</rscale>
<asrwt>0</asrwt>
<pdfrwt beam="1">  1       11 0.10000000E+01 0.13044351E+03</pdfrwt>
<pdfrwt beam="2">  1        2 0.35884525E-02 0.25459353E+02</pdfrwt>
<totfact> 0.23277741E+03</totfact>
</mgrwt>
</event>
<event>
 5    1  0.6729100E-004  0.1562563E+03  0.7818608E-02  0.1192989E+00
         11   -1    0    0    0    0  0.00000000000E+00  0.00000000000E+00  0.99961313699E+03  0.99961313699E+03  0.51100000000E-03 0. -1.
          2   -1    0    0  501    0 -0.00000000000E+00 -0.00000000000E+00 -0.76807828419E+02  0.76807828461E+02  0.25500000000E-02 0. -1.
         11    1    1    2    0    0 -0.15053145693E+03 -0.86656470975E+02  0.69106541442E+03  0.71255909965E+03  0.51100000000E-03 0. -1.
         22    1    1    2    0    0  0.32574919186E+02 -0.12786966579E+02  0.20415660759E+03  0.20713414083E+03  0.00000000000E+00 0. -1.
          2    1    1    2  501    0  0.11795653775E+03  0.99443437554E+02  0.27583286560E+02  0.15672772497E+03  0.25500000000E-02 0. -1.
<mgrwt>
<rscale>  0 0.15625631E+03</rscale>
<asrwt>0</asrwt>
<pdfrwt beam="1">  1       11 0.10000000E+01 0.34994741E+02</pdfrwt>
<pdfrwt beam="2">  1        2 0.11812017E-01 0.15625631E+03</pdfrwt>
<totfact> 0.62564704E+02</totfact>
</mgrwt>
</event>
<event>
 5    1  0.6729100E-004  0.1827730E+03  0.7818608E-02  0.1165146E+00
         11   -1    0    0    0    0  0.00000000000E+00  0.00000000000E+00  0.10005321337E+04  0.10005321337E+04  0.51100000000E-03 0. -1.
          2   -1    0    0  501    0 -0.00000000000E+00 -0.00000000000E+00 -0.71671356260E+02  0.71671356305E+02  0.25500000000E-02 0. -1.
         11    1    1    2    0    0  0.18994221752E+03  0.18131179880E+02  0.79785780773E+03  0.82035593923E+03  0.51100000000E-03 0. -1.
         22    1    1    2    0    0 -0.89855701853E+01 -0.52053899625E+01  0.53618517736E+02  0.54614851464E+02  0.00000000000E+00 0.  1.
          2    1    1    2  501    0 -0.18095664733E+03 -0.12925789917E+02  0.77384451959E+02  0.19723269929E+03  0.25500000000E-02 0. -1.
<mgrwt>
<rscale>  0 0.18277305E+03</rscale>
<asrwt>0</asrwt>
<pdfrwt beam="1">  1       11 0.10000000E+01 0.10384438E+02</pdfrwt>
<pdfrwt beam="2">  1        2 0.11032230E-01 0.18277305E+03</pdfrwt>
<totfact> 0.68506802E+02</totfact>
</mgrwt>
</event>
<event>
 5    1  0.6729100E-004  0.1366133E+03  0.7818608E-02  0.1625525E+00
         11   -1    0    0    0    0  0.00000000000E+00  0.00000000000E+00  0.10004054083E+04  0.10004054083E+04  0.51100000000E-03 0. -1.
          2   -1    0    0  501    0 -0.00000000000E+00 -0.00000000000E+00 -0.39556130837E+03  0.39556130838E+03  0.25500000000E-02 0.  1.
         11    1    1    2    0    0  0.48686680284E+02  0.12289129105E+03  0.62915232789E+03  0.64288825930E+03  0.51100000000E-03 0. -1.
         22    1    1    2    0    0 -0.31133358328E+02 -0.14426463696E+03  0.34890834544E+03  0.37883849461E+03  0.00000000000E+00 0. -1.
          2    1    1    2  501    0 -0.17553321956E+02  0.21373345915E+02 -0.37321657343E+03  0.37423996275E+03  0.25500000000E-02 0.  1.
<mgrwt>
<rscale>  0 0.27657531E+02</rscale>
<asrwt>0</asrwt>
<pdfrwt beam="1">  1       11 0.10000000E+01 0.13661329E+03</pdfrwt>
<pdfrwt beam="2">  1        2 0.60880256E-01 0.27657531E+02</pdfrwt>
<totfact> 0.10114864E+02</totfact>
</mgrwt>
</event>
<event>
 5    1  0.6729100E-004  0.1363923E+03  0.7818608E-02  0.1218268E+00
         11   -1    0    0    0    0  0.00000000000E+00  0.00000000000E+00  0.10003424296E+04  0.10003424296E+04  0.51100000000E-03 0.  1.
         -2   -1    0    0    0  501 -0.00000000000E+00 -0.00000000000E+00 -0.51953956829E+02  0.51953956891E+02  0.25500000000E-02 0. -1.
         11    1    1    2    0    0  0.10812147082E+03 -0.61217436305E+02  0.68589624277E+03  0.69705916737E+03  0.51100000000E-03 0.  1.
         22    1    1    2    0    0 -0.16972654381E+02 -0.44220056058E+02  0.19445951920E+03  0.20014491990E+03  0.00000000000E+00 0.  1.
         -2    1    1    2    0  501 -0.91148816438E+02  0.10543749236E+03  0.68032710801E+02  0.15509229923E+03  0.25500000000E-02 0. -1.
<mgrwt>
<rscale>  0 0.13639227E+03</rscale>
<asrwt>0</asrwt>
<pdfrwt beam="1">  1       11 0.10000000E+01 0.47365434E+02</pdfrwt>
<pdfrwt beam="2">  1       -2 0.79956532E-02 0.13639227E+03</pdfrwt>
<totfact> 0.72340983E+02</totfact>
</mgrwt>
</event>
<event>
 5    1  0.6729100E-004  0.2077149E+03  0.7818608E-02  0.1143388E+00
         11   -1    0    0    0    0  0.00000000000E+00  0.00000000000E+00  0.10004432889E+04  0.10004432889E+04  0.51100000000E-03 0. -1.
          2   -1    0    0  501    0 -0.00000000000E+00 -0.00000000000E+00 -0.54157855208E+03  0.54157855209E+03  0.25500000000E-02 0. -1.
         11    1    1    2    0    0 -0.15436538825E+03  0.85363705988E+02  0.65526200696E+03  0.67858966478E+03  0.51100000000E-03 0. -1.
         22    1    1    2    0    0 -0.47916246458E+02 -0.33370175641E+02  0.31010701206E+03  0.31555648341E+03  0.00000000000E+00 0. -1.
          2    1    1    2  501    0  0.20228163471E+03 -0.51993530347E+02 -0.50650428216E+03  0.54787569283E+03  0.25500000000E-02 0. -1.
<mgrwt>
<rscale>  0 0.20771493E+03</rscale>
<asrwt>0</asrwt>
<pdfrwt beam="1">  1       11 0.10000000E+01 0.58391226E+02</pdfrwt>
<pdfrwt beam="2">  1        2 0.83356710E-01 0.20771493E+03</pdfrwt>
<totfact> 0.71146431E+01</totfact>
</mgrwt>
</event>
<event>
 5    1  0.6729100E-004  0.9250978E+02  0.7818608E-02  0.1296885E+00
         11   -1    0    0    0    0  0.00000000000E+00  0.00000000000E+00  0.10003056375E+04  0.10003056375E+04  0.51100000000E-03 0. -1.
          2   -1    0    0  501    0 -0.00000000000E+00 -0.00000000000E+00 -0.13970933092E+02  0.13970933324E+02  0.25500000000E-02 0. -1.
         11    1    1    2    0    0 -0.81190244611E+02 -0.65468145484E+02  0.47999011273E+03  0.49119084093E+03  0.51100000000E-03 0. -1.
         22    1    1    2    0    0  0.40193010125E+02 -0.12443054295E+02  0.19785682403E+03  0.20228106802E+03  0.00000000000E+00 0. -1.
          2    1    1    2  501    0  0.40997234486E+02  0.77911199779E+02  0.30848776760E+03  0.32080466183E+03  0.25500000000E-02 0. -1.
<mgrwt>
<rscale>  0 0.92509778E+02</rscale>
<asrwt>0</asrwt>
<pdfrwt beam="1">  1       11 0.10000000E+01 0.42075024E+02</pdfrwt>
<pdfrwt beam="2">  1        2 0.21500312E-02 0.92509778E+02</pdfrwt>
<totfact> 0.54079553E+03</totfact>
</mgrwt>
</event>
<event>
 5    1  0.6729100E-004  0.1544633E+03  0.7818608E-02  0.1202014E+00
         11   -1    0    0    0    0  0.00000000000E+00  0.00000000000E+00  0.10002920936E+04  0.10002920936E+04  0.51100000000E-03 0.  1.
         -2   -1    0    0    0  501 -0.00000000000E+00 -0.00000000000E+00 -0.51491017866E+02  0.51491017929E+02  0.25500000000E-02 0. -1.
         11    1    1    2    0    0  0.10460822685E+03  0.81522086305E+02  0.76488254461E+03  0.77629507195E+03  0.51100000000E-03 0.  1.
         22    1    1    2    0    0  0.21429210543E+02 -0.25157943046E+01  0.10480994418E+03  0.10700777861E+03  0.00000000000E+00 0. -1.
         -2    1    1    2    0  501 -0.12603743739E+03 -0.79006292001E+02  0.79108586947E+02  0.16848026097E+03  0.25500000000E-02 0. -1.
<mgrwt>
<rscale>  0 0.14875292E+03</rscale>
<asrwt>0</asrwt>
<pdfrwt beam="1">  1       11 0.10000000E+01 0.15446327E+03</pdfrwt>
<pdfrwt beam="2">  1       -2 0.79240087E-02 0.14875292E+03</pdfrwt>
<totfact> 0.73790345E+02</totfact>
</mgrwt>
</event>
<event>
 5    1  0.6729100E-004  0.1302437E+03  0.7818608E-02  0.1227095E+00
         11   -1    0    0    0    0  0.00000000000E+00  0.00000000000E+00  0.10001004853E+04  0.10001004853E+04  0.51100000000E-03 0. -1.
          2   -1    0    0  501    0 -0.00000000000E+00 -0.00000000000E+00 -0.16433743677E+02  0.16433743875E+02  0.25500000000E-02 0. -1.
         11    1    1    2    0    0 -0.38613614987E+02 -0.11471864884E+03  0.37358861499E+03  0.39270833058E+03  0.51100000000E-03 0. -1.
         22    1    1    2    0    0  0.14983723002E+02  0.10191242125E+03  0.50162258951E+03  0.51208971467E+03  0.00000000000E+00 0. -1.
          2    1    1    2  501    0  0.23629891985E+02  0.12806227590E+02  0.10845553709E+03  0.11173618390E+03  0.25500000000E-02 0. -1.
<mgrwt>
<rscale>  0 0.13024374E+03</rscale>
<asrwt>0</asrwt>
<pdfrwt beam="1">  1       11 0.10000000E+01 0.12104294E+03</pdfrwt>
<pdfrwt beam="2">  1        2 0.25285223E-02 0.13024374E+03</pdfrwt>
<totfact> 0.45234805E+03</totfact>
</mgrwt>
</event>
<event>
 5    1  0.6729100E-004  0.1924683E+03  0.7818608E-02  0.1156254E+00
         11   -1    0    0    0    0  0.00000000000E+00  0.00000000000E+00  0.10002395399E+04  0.10002395399E+04  0.51100000000E-03 0.  1.
         -2   -1    0    0    0  501 -0.00000000000E+00 -0.00000000000E+00 -0.62274970497E+02  0.62274970549E+02  0.25500000000E-02 0. -1.
         11    1    1    2    0    0  0.14252679091E+03 -0.14351337863E+03  0.28450768326E+03  0.34907677924E+03  0.51100000000E-03 0.  1.
         22    1    1    2    0    0  0.22821063221E+02  0.56026161267E+02  0.36263847930E+03  0.36764983115E+03  0.00000000000E+00 0.  1.
         -2    1    1    2    0  501 -0.16534785413E+03  0.87487217361E+02  0.29081840686E+03  0.34578790008E+03  0.25500000000E-02 0. -1.
<mgrwt>
<rscale>  0 0.19246834E+03</rscale>
<asrwt>0</asrwt>
<pdfrwt beam="1">  1       11 0.10000000E+01 0.60495716E+02</pdfrwt>
<pdfrwt beam="2">  1       -2 0.95830594E-02 0.19246834E+03</pdfrwt>
<totfact> 0.55716824E+02</totfact>
</mgrwt>
</event>
<event>
 5    1  0.6729100E-004  0.3519641E+03  0.7818608E-02  0.1120991E+00
         11   -1    0    0    0    0  0.00000000000E+00  0.00000000000E+00  0.99983861504E+03  0.99983861504E+03  0.51100000000E-03 0. -1.
          2   -1    0    0  501    0 -0.00000000000E+00 -0.00000000000E+00 -0.33968543077E+03  0.33968543078E+03  0.25500000000E-02 0. -1.
         11    1    1    2    0    0  0.17295039227E+03 -0.31182386599E+03  0.44737746321E+03  0.57209488389E+03  0.51100000000E-03 0. -1.
         22    1    1    2    0    0 -0.35671515412E+03  0.16024933441E+03  0.32086185301E+03  0.50584372990E+03  0.00000000000E+00 0. -1.
          2    1    1    2  501    0  0.18376476185E+03  0.15157453158E+03 -0.10808613195E+03  0.26158543203E+03  0.25500000000E-02 0. -1.
<mgrwt>
<rscale>  0 0.23821068E+03</rscale>
<asrwt>0</asrwt>
<pdfrwt beam="1">  1       11 0.10000000E+01 0.35196411E+03</pdfrwt>
<pdfrwt beam="2">  1        2 0.52250862E-01 0.23821068E+03</pdfrwt>
<totfact> 0.11867828E+02</totfact>
</mgrwt>
</event>
<event>
 5    1  0.6729100E-004  0.1332750E+03  0.7818608E-02  0.1222676E+00
         11   -1    0    0    0    0  0.00000000000E+00  0.00000000000E+00  0.10001027855E+04  0.10001027855E+04  0.51100000000E-03 0.  1.
          2   -1    0    0  501    0 -0.00000000000E+00 -0.00000000000E+00 -0.24413172203E+03  0.24413172205E+03  0.25500000000E-02 0.  1.
         11    1    1    2    0    0 -0.44795290386E+02 -0.18192424390E+03  0.55568573917E+03  0.58642108529E+03  0.51100000000E-03 0.  1.
         22    1    1    2    0    0 -0.64723132406E+02  0.10652177436E+03  0.39939250579E+03  0.41839018388E+03  0.00000000000E+00 0.  1.
          2    1    1    2  501    0  0.10951842279E+03  0.75402469537E+02 -0.19910718150E+03  0.23942323837E+03  0.25500000000E-02 0.  1.
<mgrwt>
<rscale>  0 0.13327500E+03</rscale>
<asrwt>0</asrwt>
<pdfrwt beam="1">  1       11 0.10000000E+01 0.12464338E+03</pdfrwt>
<pdfrwt beam="2">  1        2 0.37562586E-01 0.13327500E+03</pdfrwt>
<totfact> 0.16850589E+02</totfact>
</mgrwt>
</event>
<event>
 5    1  0.6729100E-004  0.1349160E+03  0.7818608E-02  0.1506690E+00
         11   -1    0    0    0    0  0.00000000000E+00  0.00000000000E+00  0.10005061794E+04  0.10005061794E+04  0.51100000000E-03 0. -1.
          2   -1    0    0  501    0 -0.00000000000E+00 -0.00000000000E+00 -0.15084217890E+04  0.15084217890E+04  0.25500000000E-02 0. -1.
         11    1    1    2    0    0 -0.49638204308E+02  0.12956707758E+03  0.82680486185E+03  0.83836618401E+03  0.51100000000E-03 0. -1.
         22    1    1    2    0    0  0.75126537301E+02 -0.98470639868E+02  0.14477146607E+03  0.19052359673E+03  0.00000000000E+00 0.  1.
          2    1    1    2  501    0 -0.25488332993E+02 -0.31096437713E+02 -0.14794919376E+04  0.14800381877E+04  0.25500000000E-02 0. -1.
<mgrwt>
<rscale>  0 0.40207506E+02</rscale>
<asrwt>0</asrwt>
<pdfrwt beam="1">  1       11 0.10000000E+01 0.13491596E+03</pdfrwt>
<pdfrwt beam="2">  1        2 0.23218235E+00 0.40207506E+02</pdfrwt>
<totfact> 0.19758258E+01</totfact>
</mgrwt>
</event>
<event>
 5    1  0.6729100E-004  0.1616007E+03  0.7818608E-02  0.1260688E+00
         11   -1    0    0    0    0  0.00000000000E+00  0.00000000000E+00  0.10003768764E+04  0.10003768764E+04  0.51100000000E-03 0. -1.
          2   -1    0    0  501    0 -0.00000000000E+00 -0.00000000000E+00 -0.41252654698E+03  0.41252654698E+03  0.25500000000E-02 0. -1.
         11    1    1    2    0    0 -0.23297226742E+03  0.11481131357E+03  0.19224128517E+03  0.32313221262E+03  0.51100000000E-03 0. -1.
         22    1    1    2    0    0  0.13169730454E+03 -0.72039650720E+02  0.72611047725E+03  0.74146497994E+03  0.00000000000E+00 0.  1.
          2    1    1    2  501    0  0.10127496288E+03 -0.42771662846E+02 -0.33050143297E+03  0.34830623085E+03  0.25500000000E-02 0. -1.
<mgrwt>
<rscale>  0 0.10993650E+03</rscale>
<asrwt>0</asrwt>
<pdfrwt beam="1">  1       11 0.10000000E+01 0.16160075E+03</pdfrwt>
<pdfrwt beam="2">  1        2 0.63489539E-01 0.10993650E+03</pdfrwt>
<totfact> 0.96623910E+01</totfact>
</mgrwt>
</event>
<event>
 5    1  0.6729100E-004  0.2085198E+03  0.7818608E-02  0.1142744E+00
         11   -1    0    0    0    0  0.00000000000E+00  0.00000000000E+00  0.10003214872E+04  0.10003214872E+04  0.51100000000E-03 0. -1.
          2   -1    0    0  501    0 -0.00000000000E+00 -0.00000000000E+00 -0.72334075624E+02  0.72334075669E+02  0.25500000000E-02 0. -1.
         11    1    1    2    0    0  0.14478391922E+03 -0.16710743091E+03  0.30467992617E+03  0.37645336250E+03  0.51100000000E-03 0. -1.
         22    1    1    2    0    0 -0.73064376379E+02 -0.22855521146E+02  0.33456681853E+03  0.34321383131E+03  0.00000000000E+00 0.  1.
          2    1    1    2  501    0 -0.71719542843E+02  0.18996295205E+03  0.28874066692E+03  0.35298836909E+03  0.25500000000E-02 0. -1.
<mgrwt>
<rscale>  0 0.20851979E+03</rscale>
<asrwt>0</asrwt>
<pdfrwt beam="1">  1       11 0.10000000E+01 0.76555718E+02</pdfrwt>
<pdfrwt beam="2">  1        2 0.11131897E-01 0.20851979E+03</pdfrwt>
<totfact> 0.68185683E+02</totfact>
</mgrwt>
</event>
<event>
 5    1  0.6729100E-004  0.4489513E+03  0.7818608E-02  0.1028035E+00
         11   -1    0    0    0    0  0.00000000000E+00  0.00000000000E+00  0.10002310654E+04  0.10002310654E+04  0.51100000000E-03 0. -1.
         -2   -1    0    0    0  501 -0.00000000000E+00 -0.00000000000E+00 -0.31603391968E+03  0.31603391969E+03  0.25500000000E-02 0.  1.
         11    1    1    2    0    0  0.45453917233E+03  0.41894401523E+02  0.66633628277E+03  0.80769117972E+03  0.51100000000E-03 0. -1.
         22    1    1    2    0    0 -0.10316524345E+02  0.68209487327E+01  0.58547633342E+02  0.59839630564E+02  0.00000000000E+00 0. -1.
         -2    1    1    2    0  501 -0.44422264798E+03 -0.48715350255E+02 -0.40686770407E+02  0.44873417479E+03  0.25500000000E-02 0.  1.
<mgrwt>
<rscale>  0 0.44895126E+03</rscale>
<asrwt>0</asrwt>
<pdfrwt beam="1">  1       11 0.10000000E+01 0.12367539E+02</pdfrwt>
<pdfrwt beam="2">  1       -2 0.48631836E-01 0.44895126E+03</pdfrwt>
<totfact> 0.32771731E+01</totfact>
</mgrwt>
</event>
<event>
 5    1  0.6729100E-004  0.2250052E+03  0.7818608E-02  0.1130206E+00
         11   -1    0    0    0    0  0.00000000000E+00  0.00000000000E+00  0.10002558449E+04  0.10002558449E+04  0.51100000000E-03 0.  1.
          2   -1    0    0  501    0 -0.00000000000E+00 -0.00000000000E+00 -0.88608480423E+03  0.88608480424E+03  0.25500000000E-02 0.  1.
         11    1    1    2    0    0 -0.85160644560E+02 -0.20016318647E+03  0.92420276348E+03  0.94945688929E+03  0.51100000000E-03 0.  1.
         22    1    1    2    0    0  0.12003769052E+02 -0.12748585951E+02  0.47325624717E+02  0.50461189740E+02  0.00000000000E+00 0. -1.
          2    1    1    2  501    0  0.73156875508E+02  0.21291177242E+03 -0.85735734757E+03  0.88642257006E+03  0.25500000000E-02 0.  1.
<mgrwt>
<rscale>  0 0.22500517E+03</rscale>
<asrwt>0</asrwt>
<pdfrwt beam="1">  1       11 0.10000000E+01 0.17510480E+02</pdfrwt>
<pdfrwt beam="2">  1        2 0.13635561E+00 0.22500517E+03</pdfrwt>
<totfact> 0.39070117E+01</totfact>
</mgrwt>
</event>
<event>
 5    1  0.6729100E-004  0.1389160E+03  0.7818608E-02  0.1269951E+00
         11   -1    0    0    0    0  0.00000000000E+00  0.00000000000E+00  0.10003829158E+04  0.10003829158E+04  0.51100000000E-03 0. -1.
         -2   -1    0    0    0  501 -0.00000000000E+00 -0.00000000000E+00 -0.34712525130E+03  0.34712525131E+03  0.25500000000E-02 0.  1.
         11    1    1    2    0    0 -0.11890256171E+03 -0.82833549972E+02  0.46473117343E+03  0.48680004081E+03  0.51100000000E-03 0. -1.
         22    1    1    2    0    0  0.36240062262E+02  0.14771699197E+03  0.50491416708E+03  0.52732529613E+03  0.00000000000E+00 0.  1.
         -2    1    1    2    0  501  0.82662499451E+02 -0.64883441997E+02 -0.31638767604E+03  0.33338283012E+03  0.25500000000E-02 0.  1.
<mgrwt>
<rscale>  0 0.10508544E+03</rscale>
<asrwt>0</asrwt>
<pdfrwt beam="1">  1       11 0.10000000E+01 0.13891604E+03</pdfrwt>
<pdfrwt beam="2">  1       -2 0.53424332E-01 0.10508544E+03</pdfrwt>
<totfact> 0.27344739E+01</totfact>
</mgrwt>
</event>
<event>
 5    1  0.6729100E-004  0.2017577E+03  0.7818608E-02  0.1148264E+00
         11   -1    0    0    0    0  0.00000000000E+00  0.00000000000E+00  0.10003002332E+04  0.10003002332E+04  0.51100000000E-03 0. -1.
          2   -1    0    0  501    0 -0.00000000000E+00 -0.00000000000E+00 -0.12558086991E+03  0.12558086993E+03  0.25500000000E-02 0. -1.
         11    1    1    2    0    0  0.39905694959E+02  0.93798841256E+02  0.45801624187E+03  0.46922229798E+03  0.51100000000E-03 0. -1.
         22    1    1    2    0    0 -0.94538014766E+02  0.11739640463E+03  0.41173240862E+03  0.43845516118E+03  0.00000000000E+00 0. -1.
          2    1    1    2  501    0  0.54632319807E+02 -0.21119524588E+03  0.49707128077E+01  0.21820364397E+03  0.25500000000E-02 0. -1.
<mgrwt>
<rscale>  0 0.20175769E+03</rscale>
<asrwt>0</asrwt>
<pdfrwt beam="1">  1       11 0.10000000E+01 0.10193472E+03</pdfrwt>
<pdfrwt beam="2">  1        2 0.19325934E-01 0.20175769E+03</pdfrwt>
<totfact> 0.35372223E+02</totfact>
</mgrwt>
</event>
<event>
 5    1  0.6729100E-004  0.2688610E+03  0.7818608E-02  0.1324993E+00
         11   -1    0    0    0    0  0.00000000000E+00  0.00000000000E+00  0.10001794386E+04  0.10001794386E+04  0.51100000000E-03 0.  1.
          2   -1    0    0  501    0 -0.00000000000E+00 -0.00000000000E+00 -0.79677017930E+02  0.79677017971E+02  0.25500000000E-02 0.  1.
         11    1    1    2    0    0 -0.19569205049E+03 -0.17726409513E+03  0.45162859091E+03  0.52315038199E+03  0.51100000000E-03 0.  1.
         22    1    1    2    0    0  0.80837576697E+01 -0.23311417818E+02  0.28350239000E+02  0.37583312655E+02  0.00000000000E+00 0. -1.
          2    1    1    2  501    0  0.18760829282E+03  0.20057551295E+03  0.44052359074E+03  0.51912276191E+03  0.25500000000E-02 0.  1.
<mgrwt>
<rscale>  0 0.81447375E+02</rscale>
<asrwt>0</asrwt>
<pdfrwt beam="1">  1       11 0.10000000E+01 0.26886099E+03</pdfrwt>
<pdfrwt beam="2">  1        2 0.12260202E-01 0.81447375E+02</pdfrwt>
<totfact> 0.57814663E+02</totfact>
</mgrwt>
</event>
<event>
 5    1  0.6729100E-004  0.1676104E+03  0.7818608E-02  0.1430522E+00
         11   -1    0    0    0    0  0.00000000000E+00  0.00000000000E+00  0.10001282188E+04  0.10001282188E+04  0.51100000000E-03 0. -1.
          2   -1    0    0  501    0 -0.00000000000E+00 -0.00000000000E+00 -0.18732499011E+03  0.18732499013E+03  0.25500000000E-02 0. -1.
         11    1    1    2    0    0  0.13399065005E+03  0.44785706602E+02  0.32845000646E+03  0.35754532658E+03  0.51100000000E-03 0. -1.
         22    1    1    2    0    0 -0.18607829855E+03 -0.53761818395E+02  0.63835268601E+03  0.66709041220E+03  0.00000000000E+00 0. -1.
          2    1    1    2  501    0  0.52087648498E+02  0.89761117930E+01 -0.15399946382E+03  0.16281747011E+03  0.25500000000E-02 0. -1.
<mgrwt>
<rscale>  0 0.52855404E+02</rscale>
<asrwt>0</asrwt>
<pdfrwt beam="1">  1       11 0.10000000E+01 0.16761038E+03</pdfrwt>
<pdfrwt beam="2">  1        2 0.28822924E-01 0.52855404E+02</pdfrwt>
<totfact> 0.21885142E+02</totfact>
</mgrwt>
</event>
<event>
 5    1  0.6729100E-004  0.1077172E+03  0.7818608E-02  0.1585358E+00
         11   -1    0    0    0    0  0.00000000000E+00  0.00000000000E+00  0.10001162863E+04  0.10001162863E+04  0.51100000000E-03 0. -1.
         -2   -1    0    0    0  501 -0.00000000000E+00 -0.00000000000E+00 -0.46872908258E+02  0.46872908327E+02  0.25500000000E-02 0.  1.
         11    1    1    2    0    0  0.12019593353E+03 -0.14905229173E+02  0.61472182595E+03  0.62653982443E+03  0.51100000000E-03 0. -1.
         22    1    1    2    0    0 -0.94662795706E+02 -0.29973260439E+01  0.36650865812E+03  0.37854804891E+03  0.00000000000E+00 0. -1.
         -2    1    1    2    0  501 -0.25533137824E+02  0.17902555217E+02 -0.27987106066E+02  0.41901321255E+02  0.25500000000E-02 0.  1.
<mgrwt>
<rscale>  0 0.31184012E+02</rscale>
<asrwt>0</asrwt>
<pdfrwt beam="1">  1       11 0.10000000E+01 0.10771720E+03</pdfrwt>
<pdfrwt beam="2">  1       -2 0.72120550E-02 0.31184012E+02</pdfrwt>
<totfact> 0.74142361E+02</totfact>
</mgrwt>
</event>
<event>
 5    1  0.6729100E-004  0.6512141E+03  0.7818608E-02  0.9804504E-01
         11   -1    0    0    0    0  0.00000000000E+00  0.00000000000E+00  0.10001998360E+04  0.10001998360E+04  0.51100000000E-03 0.  1.
          2   -1    0    0  501    0 -0.00000000000E+00 -0.00000000000E+00 -0.50009991800E+03  0.50009991801E+03  0.25500000000E-02 0.  1.
         11    1    1    2    0    0  0.56625406383E+03 -0.31349403013E+03  0.50105885397E+03  0.81852437158E+03  0.51100000000E-03 0.  1.
         22    1    1    2    0    0 -0.10991501861E+01 -0.13917091491E+02  0.24429809862E+02  0.28137327105E+02  0.00000000000E+00 0. -1.
          2    1    1    2  501    0 -0.56515491364E+03  0.32741112162E+03 -0.25388745824E+02  0.65363805534E+03  0.25500000000E-02 0.  1.
<mgrwt>
<rscale>  0 0.65121406E+03</rscale>
<asrwt>0</asrwt>
<pdfrwt beam="1">  1       11 0.10000000E+01 0.13960429E+02</pdfrwt>
<pdfrwt beam="2">  1        2 0.76953822E-01 0.65121406E+03</pdfrwt>
<totfact> 0.76375893E+01</totfact>
</mgrwt>
</event>
<event>
 5    1  0.6729100E-004  0.1679683E+03  0.7818608E-02  0.1179983E+00
         11   -1    0    0    0    0  0.00000000000E+00  0.00000000000E+00  0.99991153381E+03  0.99991153381E+03  0.51100000000E-03 0. -1.
         -2   -1    0    0    0  501 -0.00000000000E+00 -0.00000000000E+00 -0.46547771666E+02  0.46547771736E+02  0.25500000000E-02 0.  1.
         11    1    1    2    0    0  0.17926476570E+03 -0.44793383960E+02  0.67311157480E+03  0.69801253255E+03  0.51100000000E-03 0. -1.
         22    1    1    2    0    0 -0.25429996438E+02 -0.94545790153E+01  0.10742246976E+03  0.11079558110E+03  0.00000000000E+00 0.  1.
         -2    1    1    2    0  501 -0.15383476926E+03  0.54247962976E+02  0.17282971758E+03  0.23765119189E+03  0.25500000000E-02 0.  1.
<mgrwt>
<rscale>  0 0.16796835E+03</rscale>
<asrwt>0</asrwt>
<pdfrwt beam="1">  1       11 0.10000000E+01 0.27130680E+02</pdfrwt>
<pdfrwt beam="2">  1       -2 0.71605619E-02 0.16796835E+03</pdfrwt>
<totfact> 0.87006661E+02</totfact>
</mgrwt>
</event>
<event>
 5    1  0.6729100E-004  0.2114242E+03  0.7818608E-02  0.1140443E+00
         11   -1    0    0    0    0  0.00000000000E+00  0.00000000000E+00  0.10002060301E+04  0.10002060301E+04  0.51100000000E-03 0. -1.
          2   -1    0    0  501    0 -0.00000000000E+00 -0.00000000000E+00 -0.22603765701E+03  0.22603765702E+03  0.25500000000E-02 0. -1.
         11    1    1    2    0    0 -0.98912954674E+02  0.12286852676E+03 -0.29566583129E+02  0.16048249222E+03  0.51100000000E-03 0. -1.
         22    1    1    2    0    0  0.15418360057E+03  0.91251988974E+02  0.82441399091E+03  0.84365747586E+03  0.00000000000E+00 0. -1.
          2    1    1    2  501    0 -0.55270645897E+02 -0.21412051573E+03 -0.20679034637E+02  0.22210371909E+03  0.25500000000E-02 0. -1.
<mgrwt>
<rscale>  0 0.21142423E+03</rscale>
<asrwt>0</asrwt>
<pdfrwt beam="1">  1       11 0.10000000E+01 0.15773545E+03</pdfrwt>
<pdfrwt beam="2">  1        2 0.34782188E-01 0.21142423E+03</pdfrwt>
<totfact> 0.18403120E+02</totfact>
</mgrwt>
</event>
<event>
 5    1  0.6729100E-004  0.1370843E+03  0.7818608E-02  0.1538899E+00
         11   -1    0    0    0    0  0.00000000000E+00  0.00000000000E+00  0.99988924585E+03  0.99988924585E+03  0.51100000000E-03 0.  1.
          2   -1    0    0  501    0 -0.00000000000E+00 -0.00000000000E+00 -0.70490132906E+03  0.70490132907E+03  0.25500000000E-02 0. -1.
         11    1    1    2    0    0  0.43803822168E+02 -0.14094197441E+03  0.75954510622E+03  0.77375201671E+03  0.51100000000E-03 0.  1.
         22    1    1    2    0    0 -0.18841925909E+02  0.11483934407E+03  0.21821740502E+03  0.24730937906E+03  0.00000000000E+00 0. -1.
          2    1    1    2  501    0 -0.24961896259E+02  0.26102630341E+02 -0.68277459445E+03  0.68372917914E+03  0.25500000000E-02 0. -1.
<mgrwt>
<rscale>  0 0.36117082E+02</rscale>
<asrwt>0</asrwt>
<pdfrwt beam="1">  1       11 0.10000000E+01 0.13708431E+03</pdfrwt>
<pdfrwt beam="2">  1        2 0.10843434E+00 0.36117082E+02</pdfrwt>
<totfact> 0.55196084E+01</totfact>
</mgrwt>
</event>
<event>
 5    1  0.6729100E-004  0.5328470E+03  0.7818608E-02  0.1005544E+00
         11   -1    0    0    0    0  0.00000000000E+00  0.00000000000E+00  0.99976656800E+03  0.99976656800E+03  0.51100000000E-03 0.  1.
          2   -1    0    0  501    0 -0.00000000000E+00 -0.00000000000E+00 -0.31588715666E+03  0.31588715667E+03  0.25500000000E-02 0.  1.
         11    1    1    2    0    0 -0.44152699476E+03 -0.28714458367E+03  0.19628042294E+03  0.56207126190E+03  0.51100000000E-03 0.  1.
         22    1    1    2    0    0 -0.76882545384E+01 -0.16030183504E+02  0.61984628164E+02  0.64483875268E+02  0.00000000000E+00 0.  1.
          2    1    1    2  501    0  0.44921524929E+03  0.30317476717E+03  0.42561436023E+03  0.68909858750E+03  0.25500000000E-02 0.  1.
<mgrwt>
<rscale>  0 0.53284696E+03</rscale>
<asrwt>0</asrwt>
<pdfrwt beam="1">  1       11 0.10000000E+01 0.17778528E+02</pdfrwt>
<pdfrwt beam="2">  1        2 0.48586678E-01 0.53284696E+03</pdfrwt>
<totfact> 0.12824550E+02</totfact>
</mgrwt>
</event>
<event>
 5    1  0.6729100E-004  0.8630225E+02  0.7818608E-02  0.1429816E+00
         11   -1    0    0    0    0  0.00000000000E+00  0.00000000000E+00  0.10004007216E+04  0.10004007216E+04  0.51100000000E-03 0.  1.
         -2   -1    0    0    0  501 -0.00000000000E+00 -0.00000000000E+00 -0.28699478615E+02  0.28699478728E+02  0.25500000000E-02 0. -1.
         11    1    1    2    0    0  0.70727973616E+02  0.58061419938E+02  0.49776741832E+03  0.50610866173E+03  0.51100000000E-03 0.  1.
         22    1    1    2    0    0 -0.18371985872E+02 -0.66278466242E+02  0.28553588166E+02  0.74469271176E+02  0.00000000000E+00 0. -1.
         -2    1    1    2    0  501 -0.52355987743E+02  0.82170463040E+01  0.44538023648E+03  0.44852226740E+03  0.25500000000E-02 0. -1.
<mgrwt>
<rscale>  0 0.52996880E+02</rscale>
<asrwt>0</asrwt>
<pdfrwt beam="1">  1       11 0.10000000E+01 0.86302249E+02</pdfrwt>
<pdfrwt beam="2">  1       -2 0.44170736E-02 0.52996880E+02</pdfrwt>
<totfact> 0.16123461E+03</totfact>
</mgrwt>
</event>
<event>
 5    1  0.6729100E-004  0.1195138E+03  0.7818608E-02  0.1243901E+00
         11   -1    0    0    0    0  0.00000000000E+00  0.00000000000E+00  0.10001586778E+04  0.10001586778E+04  0.51100000000E-03 0.  1.
          2   -1    0    0  501    0 -0.00000000000E+00 -0.00000000000E+00 -0.26931430331E+02  0.26931430452E+02  0.25500000000E-02 0.  1.
         11    1    1    2    0    0  0.83871852445E+01 -0.33133562854E+02  0.16041267447E+02  0.37755795917E+02  0.51100000000E-03 0.  1.
         22    1    1    2    0    0 -0.61866528636E+02  0.12621739560E+03  0.60699497617E+03  0.62305794226E+03  0.00000000000E+00 0.  1.
          2    1    1    2  501    0  0.53479343391E+02 -0.93083832748E+02  0.35019100382E+03  0.36627637004E+03  0.25500000000E-02 0.  1.
<mgrwt>
<rscale>  0 0.11951379E+03</rscale>
<asrwt>0</asrwt>
<pdfrwt beam="1">  1       11 0.10000000E+01 0.34178634E+02</pdfrwt>
<pdfrwt beam="2">  1        2 0.41439543E-02 0.11951379E+03</pdfrwt>
<totfact> 0.23183202E+03</totfact>
</mgrwt>
</event>
<event>
 5    1  0.6729100E-004  0.2010195E+03  0.7818608E-02  0.1580821E+00
         11   -1    0    0    0    0  0.00000000000E+00  0.00000000000E+00  0.10004657026E+04  0.10004657026E+04  0.51100000000E-03 0. -1.
          2   -1    0    0  501    0 -0.00000000000E+00 -0.00000000000E+00 -0.39860985789E+03  0.39860985790E+03  0.25500000000E-02 0.  1.
         11    1    1    2    0    0 -0.17479552144E+03 -0.77259105628E+02  0.53650836058E+03  0.56952933611E+03  0.51100000000E-03 0. -1.
         22    1    1    2    0    0  0.20565882171E+03  0.70373617832E+02  0.42030376830E+03  0.47318416571E+03  0.00000000000E+00 0. -1.
          2    1    1    2  501    0 -0.30863300277E+02  0.68854877964E+01 -0.35495628413E+03  0.35636205872E+03  0.25500000000E-02 0.  1.
<mgrwt>
<rscale>  0 0.31622037E+02</rscale>
<asrwt>0</asrwt>
<pdfrwt beam="1">  1       11 0.10000000E+01 0.20101945E+03</pdfrwt>
<pdfrwt beam="2">  1        2 0.61353151E-01 0.31622037E+02</pdfrwt>
<totfact> 0.10041088E+02</totfact>
</mgrwt>
</event>
<event>
 5    1  0.6729100E-004  0.2350799E+03  0.7818608E-02  0.1123115E+00
         11   -1    0    0    0    0  0.00000000000E+00  0.00000000000E+00  0.10001083992E+04  0.10001083992E+04  0.51100000000E-03 0.  1.
          2   -1    0    0  501    0 -0.00000000000E+00 -0.00000000000E+00 -0.22341726093E+03  0.22341726094E+03  0.25500000000E-02 0.  1.
         11    1    1    2    0    0 -0.22195280301E+03  0.49462878051E+02  0.71366637653E+03  0.74901890501E+03  0.51100000000E-03 0.  1.
         22    1    1    2    0    0  0.30737170121E+01  0.38950963553E+02  0.19851626090E+03  0.20232481592E+03  0.00000000000E+00 0. -1.
          2    1    1    2  501    0  0.21887908599E+03 -0.88413841603E+02 -0.13549149917E+03  0.27218193920E+03  0.25500000000E-02 0.  1.
<mgrwt>
<rscale>  0 0.23507990E+03</rscale>
<asrwt>0</asrwt>
<pdfrwt beam="1">  1       11 0.10000000E+01 0.39072053E+02</pdfrwt>
<pdfrwt beam="2">  1        2 0.34375611E-01 0.23507990E+03</pdfrwt>
<totfact> 0.18662895E+02</totfact>
</mgrwt>
</event>
<event>
 5    1  0.6729100E-004  0.1378945E+03  0.7818608E-02  0.1371468E+00
         11   -1    0    0    0    0  0.00000000000E+00  0.00000000000E+00  0.99999534124E+03  0.99999534124E+03  0.51100000000E-03 0.  1.
          2   -1    0    0  501    0 -0.00000000000E+00 -0.00000000000E+00 -0.56044912759E+02  0.56044912817E+02  0.25500000000E-02 0.  1.
         11    1    1    2    0    0  0.10025785153E+03  0.11500537190E+03  0.80153010556E+03  0.81592179925E+03  0.51100000000E-03 0.  1.
         22    1    1    2    0    0 -0.35068139607E+02 -0.10060724205E+03  0.13641022842E+03  0.17308767139E+03  0.00000000000E+00 0.  1.
          2    1    1    2  501    0 -0.65189711920E+02 -0.14398129855E+02  0.60100944882E+01  0.67030783420E+02  0.25500000000E-02 0.  1.
<mgrwt>
<rscale>  0 0.66760802E+02</rscale>
<asrwt>0</asrwt>
<pdfrwt beam="1">  1       11 0.10000000E+01 0.13789455E+03</pdfrwt>
<pdfrwt beam="2">  1        2 0.86222539E-02 0.66760802E+02</pdfrwt>
<totfact> 0.87046384E+02</totfact>
</mgrwt>
</event>
<event>
 5    1  0.6729100E-004  0.2604974E+03  0.7818608E-02  0.1106845E+00
         11   -1    0    0    0    0  0.00000000000E+00  0.00000000000E+00  0.10002928587E+04  0.10002928587E+04  0.51100000000E-03 0.  1.
          2   -1    0    0  501    0 -0.00000000000E+00 -0.00000000000E+00 -0.10835404809E+03  0.10835404812E+03  0.25500000000E-02 0.  1.
         11    1    1    2    0    0 -0.72639560530E+02 -0.24595640705E+03  0.78713016552E+03  0.82785563801E+03  0.51100000000E-03 0.  1.
         22    1    1    2    0    0  0.31148009157E+01  0.10813927348E+02  0.16900006778E+02  0.20304020255E+02  0.00000000000E+00 0.  1.
          2    1    1    2  501    0  0.69524759615E+02  0.23514247970E+03  0.87908638312E+02  0.26048724855E+03  0.25500000000E-02 0.  1.
<mgrwt>
<rscale>  0 0.26049738E+03</rscale>
<asrwt>0</asrwt>
<pdfrwt beam="1">  1       11 0.10000000E+01 0.25645869E+03</pdfrwt>
<pdfrwt beam="2">  1        2 0.16674735E-01 0.26049738E+03</pdfrwt>
<totfact> 0.42323872E+02</totfact>
</mgrwt>
</event>
<event>
 5    1  0.6729100E-004  0.2595376E+03  0.7818608E-02  0.1107421E+00
         11   -1    0    0    0    0  0.00000000000E+00  0.00000000000E+00  0.99998888317E+03  0.99998888317E+03  0.51100000000E-03 0. -1.
          2   -1    0    0  501    0 -0.00000000000E+00 -0.00000000000E+00 -0.79641792010E+02  0.79641792051E+02  0.25500000000E-02 0. -1.
         11    1    1    2    0    0  0.22255074129E+03  0.12465875491E+03  0.29865498810E+03  0.39276384703E+03  0.51100000000E-03 0. -1.
         22    1    1    2    0    0  0.15581379333E+02 -0.41960242048E+01  0.95672735025E+02  0.97024008514E+02  0.00000000000E+00 0. -1.
          2    1    1    2  501    0 -0.23813212062E+03 -0.12046273070E+03  0.52601936804E+03  0.58984281967E+03  0.25500000000E-02 0. -1.
<mgrwt>
<rscale>  0 0.25953764E+03</rscale>
<asrwt>0</asrwt>
<pdfrwt beam="1">  1       11 0.10000000E+01 0.16136480E+02</pdfrwt>
<pdfrwt beam="2">  1        2 0.12252447E-01 0.25953764E+03</pdfrwt>
<totfact> 0.61223397E+02</totfact>
</mgrwt>
</event>
<event>
 5    1  0.6729100E-004  0.3061997E+03  0.7818608E-02  0.1082648E+00
         11   -1    0    0    0    0  0.00000000000E+00  0.00000000000E+00  0.10000028963E+04  0.10000028963E+04  0.51100000000E-03 0.  1.
          2   -1    0    0  501    0 -0.00000000000E+00 -0.00000000000E+00 -0.94231436934E+02  0.94231436968E+02  0.25500000000E-02 0.  1.
         11    1    1    2    0    0 -0.75581093579E+02 -0.28494302922E+03  0.38195058480E+03  0.48248448767E+03  0.51100000000E-03 0.  1.
         22    1    1    2    0    0 -0.34658427853E+01 -0.98890552709E+01  0.22320404864E+02  0.24657776738E+02  0.00000000000E+00 0. -1.
          2    1    1    2  501    0  0.79046936364E+02  0.29483208450E+03  0.50150046966E+03  0.58709206882E+03  0.25500000000E-02 0.  1.
<mgrwt>
<rscale>  0 0.30524478E+03</rscale>
<asrwt>0</asrwt>
<pdfrwt beam="1">  1       11 0.10000000E+01 0.30619968E+03</pdfrwt>
<pdfrwt beam="2">  1        2 0.14497186E-01 0.30524478E+03</pdfrwt>
<totfact> 0.50249638E+02</totfact>
</mgrwt>
</event>
<event>
 5    1  0.6729100E-004  0.2485969E+03  0.7818608E-02  0.1114195E+00
         11   -1    0    0    0    0  0.00000000000E+00  0.00000000000E+00  0.10001870724E+04  0.10001870724E+04  0.51100000000E-03 0. -1.
          2   -1    0    0  501    0 -0.00000000000E+00 -0.00000000000E+00 -0.20447372810E+03  0.20447372812E+03  0.25500000000E-02 0. -1.
         11    1    1    2    0    0 -0.14803524179E+03 -0.10278883604E+03  0.32617301489E+03  0.37265106101E+03  0.51100000000E-03 0. -1.
         22    1    1    2    0    0 -0.91514474964E+02 -0.19512029100E+02  0.54475036798E+03  0.55272830742E+03  0.00000000000E+00 0. -1.
          2    1    1    2  501    0  0.23954971676E+03  0.12230086514E+03 -0.75210038558E+02  0.27928143211E+03  0.25500000000E-02 0. -1.
<mgrwt>
<rscale>  0 0.24859694E+03</rscale>
<asrwt>0</asrwt>
<pdfrwt beam="1">  1       11 0.10000000E+01 0.93571462E+02</pdfrwt>
<pdfrwt beam="2">  1        2 0.31463381E-01 0.24859694E+03</pdfrwt>
<totfact> 0.20574266E+02</totfact>
</mgrwt>
</event>
<event>
 5    1  0.6729100E-004  0.1431042E+03  0.7818608E-02  0.1529913E+00
         11   -1    0    0    0    0  0.00000000000E+00  0.00000000000E+00  0.10005342100E+04  0.10005342100E+04  0.51100000000E-03 0. -1.
          2   -1    0    0  501    0 -0.00000000000E+00 -0.00000000000E+00 -0.11740416702E+03  0.11740416705E+03  0.25500000000E-02 0. -1.
         11    1    1    2    0    0 -0.11940817023E+03 -0.10759933811E+03  0.61747893396E+03  0.63805655123E+03  0.51100000000E-03 0. -1.
         22    1    1    2    0    0  0.99064332373E+02  0.76458582865E+02  0.35857809263E+03  0.37978665769E+03  0.00000000000E+00 0.  1.
          2    1    1    2  501    0  0.20343837856E+02  0.31140755245E+02 -0.92926983661E+02  0.10009516809E+03  0.25500000000E-02 0. -1.
<mgrwt>
<rscale>  0 0.37197021E+02</rscale>
<asrwt>0</asrwt>
<pdfrwt beam="1">  1       11 0.10000000E+01 0.14310421E+03</pdfrwt>
<pdfrwt beam="2">  1        2 0.18071828E-01 0.37197021E+02</pdfrwt>
<totfact> 0.35574250E+02</totfact>
</mgrwt>
</event>
<event>
 5    1  0.6729100E-004  0.1504036E+03  0.7818608E-02  0.1199978E+00
         11   -1    0    0    0    0  0.00000000000E+00  0.00000000000E+00  0.10000428646E+04  0.10000428646E+04  0.51100000000E-03 0. -1.
          2   -1    0    0  501    0 -0.00000000000E+00 -0.00000000000E+00 -0.24735918632E+02  0.24735918763E+02  0.25500000000E-02 0. -1.
         11    1    1    2    0    0 -0.63647945850E+02  0.13993246227E+03  0.45822424148E+03  0.48332350500E+03  0.51100000000E-03 0. -1.
         22    1    1    2    0    0 -0.74991246615E+01 -0.11031856962E+02  0.46829148473E+02  0.48691969414E+02  0.00000000000E+00 0.  1.
          2    1    1    2  501    0  0.71147070512E+02 -0.12890060531E+03  0.47025355605E+03  0.49276330898E+03  0.25500000000E-02 0. -1.
<mgrwt>
<rscale>  0 0.15040363E+03</rscale>
<asrwt>0</asrwt>
<pdfrwt beam="1">  1       11 0.10000000E+01 0.13339368E+02</pdfrwt>
<pdfrwt beam="2">  1        2 0.38056890E-02 0.15040363E+03</pdfrwt>
<totfact> 0.26501157E+03</totfact>
</mgrwt>
</event>
<event>
 5    1  0.6729100E-004  0.2775438E+03  0.7818608E-02  0.1099747E+00
         11   -1    0    0    0    0  0.00000000000E+00  0.00000000000E+00  0.10001435034E+04  0.10001435034E+04  0.51100000000E-03 0.  1.
          2   -1    0    0  501    0 -0.00000000000E+00 -0.00000000000E+00 -0.93375466741E+03  0.93375466742E+03  0.25500000000E-02 0. -1.
         11    1    1    2    0    0  0.23795403183E+03  0.82468241272E+02  0.88012254155E+03  0.91544460248E+03  0.51100000000E-03 0.  1.
         22    1    1    2    0    0  0.24336043780E+02 -0.78619008316E+01  0.80028873542E+02  0.84015909874E+02  0.00000000000E+00 0. -1.
          2    1    1    2  501    0 -0.26229007561E+03 -0.74606340440E+02 -0.89376257908E+03  0.93443765847E+03  0.25500000000E-02 0. -1.
<mgrwt>
<rscale>  0 0.27269432E+03</rscale>
<asrwt>0</asrwt>
<pdfrwt beam="1">  1       11 0.10000000E+01 0.27754383E+03</pdfrwt>
<pdfrwt beam="2">  1        2 0.14367518E+00 0.27269432E+03</pdfrwt>
<totfact> 0.36115109E+01</totfact>
</mgrwt>
</event>
<event>
 5    1  0.6729100E-004  0.1040114E+03  0.7818608E-02  0.1568383E+00
         11   -1    0    0    0    0  0.00000000000E+00  0.00000000000E+00  0.10001298609E+04  0.10001298609E+04  0.51100000000E-03 0.  1.
          2   -1    0    0  501    0 -0.00000000000E+00 -0.00000000000E+00 -0.43223928557E+02  0.43223928632E+02  0.25500000000E-02 0.  1.
         11    1    1    2    0    0 -0.11932615966E+03 -0.15236218558E+02  0.64749571840E+03  0.65857541716E+03  0.51100000000E-03 0.  1.
         22    1    1    2    0    0  0.86742416344E+02  0.10916477425E+02  0.33302266469E+03  0.34430729221E+03  0.00000000000E+00 0.  1.
          2    1    1    2  501    0  0.32583743319E+02  0.43197411334E+01 -0.23612450753E+02  0.40471080159E+02  0.25500000000E-02 0.  1.
<mgrwt>
<rscale>  0 0.32868838E+02</rscale>
<asrwt>0</asrwt>
<pdfrwt beam="1">  1       11 0.10000000E+01 0.10401139E+03</pdfrwt>
<pdfrwt beam="2">  1        2 0.66506985E-02 0.32868838E+02</pdfrwt>
<totfact> 0.11205968E+03</totfact>
</mgrwt>
</event>
<event>
 5    1  0.6729100E-004  0.1236597E+04  0.7818608E-02  0.9081413E-01
         11   -1    0    0    0    0  0.00000000000E+00  0.00000000000E+00  0.10016202831E+04  0.10016202831E+04  0.51100000000E-03 0.  1.
          2   -1    0    0  501    0 -0.00000000000E+00 -0.00000000000E+00 -0.21605631238E+04  0.21605631238E+04  0.25500000000E-02 0.  1.
         11    1    1    2    0    0 -0.52342602017E+03 -0.11682631974E+04 -0.40563672621E+03  0.13428904835E+04  0.51100000000E-03 0.  1.
         22    1    1    2    0    0  0.33126866546E+03 -0.40787942312E+02  0.73825102704E+02  0.34183728694E+03  0.00000000000E+00 0.  1.
          2    1    1    2  501    0  0.19215735471E+03  0.12090511397E+04 -0.82713121720E+03  0.14774556365E+04  0.25500000000E-02 0.  1.
<mgrwt>
<rscale>  0 0.12365967E+04</rscale>
<asrwt>0</asrwt>
<pdfrwt beam="1">  1       11 0.10000000E+01 0.33377026E+03</pdfrwt>
<pdfrwt beam="2">  1        2 0.33293289E+00 0.12365967E+04</pdfrwt>
<totfact> 0.65687721E+00</totfact>
</mgrwt>
</event>
<event>
 5    1  0.6729100E-004  0.1219608E+03  0.7818608E-02  0.1239897E+00
         11   -1    0    0    0    0  0.00000000000E+00  0.00000000000E+00  0.10001970968E+04  0.10001970968E+04  0.51100000000E-03 0. -1.
          2   -1    0    0  501    0 -0.00000000000E+00 -0.00000000000E+00 -0.16668032342E+02  0.16668032537E+02  0.25500000000E-02 0. -1.
         11    1    1    2    0    0 -0.12087008976E+03 -0.14794980559E+02  0.49568379180E+03  0.51042226783E+03  0.51100000000E-03 0. -1.
         22    1    1    2    0    0  0.16165154499E+01 -0.12999452249E+02  0.60409484497E+02  0.61813466964E+02  0.00000000000E+00 0.  1.
          2    1    1    2  501    0  0.11925357431E+03  0.27794432809E+02  0.42743578813E+03  0.44462939451E+03  0.25500000000E-02 0. -1.
<mgrwt>
<rscale>  0 0.12196078E+03</rscale>
<asrwt>0</asrwt>
<pdfrwt beam="1">  1       11 0.10000000E+01 0.13099576E+02</pdfrwt>
<pdfrwt beam="2">  1        2 0.25648180E-02 0.12196078E+03</pdfrwt>
<totfact> 0.44050788E+03</totfact>
</mgrwt>
</event>
<event>
 5    1  0.6729100E-004  0.1159886E+03  0.7818608E-02  0.1650355E+00
         11   -1    0    0    0    0  0.00000000000E+00  0.00000000000E+00  0.99990793362E+03  0.99990793362E+03  0.51100000000E-03 0.  1.
          2   -1    0    0  501    0 -0.00000000000E+00 -0.00000000000E+00 -0.51825671319E+03  0.51825671319E+03  0.25500000000E-02 0.  1.
         11    1    1    2    0    0 -0.72470118819E+02  0.80444854254E+02  0.36085768925E+03  0.37675132991E+03  0.51100000000E-03 0.  1.
         22    1    1    2    0    0  0.63812654922E+02 -0.10470378481E+03  0.62481564333E+03  0.63673348085E+03  0.00000000000E+00 0.  1.
          2    1    1    2  501    0  0.86574638974E+01  0.24258930553E+02 -0.50402211214E+03  0.50467983606E+03  0.25500000000E-02 0.  1.
<mgrwt>
<rscale>  0 0.25757473E+02</rscale>
<asrwt>0</asrwt>
<pdfrwt beam="1">  1       11 0.10000000E+01 0.11598858E+03</pdfrwt>
<pdfrwt beam="2">  1        2 0.79724459E-01 0.25757473E+02</pdfrwt>
<totfact> 0.77092380E+01</totfact>
</mgrwt>
</event>
<event>
 5    1  0.6729100E-004  0.1316190E+03  0.7818608E-02  0.1356255E+00
         11   -1    0    0    0    0  0.00000000000E+00  0.00000000000E+00  0.10000628837E+04  0.10000628837E+04  0.51100000000E-03 0. -1.
          2   -1    0    0  501    0 -0.00000000000E+00 -0.00000000000E+00 -0.50651655948E+02  0.50651656012E+02  0.25500000000E-02 0. -1.
         11    1    1    2    0    0 -0.11838926605E+03 -0.32210614491E+02  0.63020152313E+03  0.64203387898E+03  0.51100000000E-03 0. -1.
         22    1    1    2    0    0  0.15225487159E+03  0.94774016151E+02  0.26142774291E+03  0.31703016390E+03  0.00000000000E+00 0. -1.
          2    1    1    2  501    0 -0.33865605539E+02 -0.62563401660E+02  0.57781961751E+02  0.91650496868E+02  0.25500000000E-02 0. -1.
<mgrwt>
<rscale>  0 0.71141117E+02</rscale>
<asrwt>0</asrwt>
<pdfrwt beam="1">  1       11 0.10000000E+01 0.13161896E+03</pdfrwt>
<pdfrwt beam="2">  1        2 0.77930523E-02 0.71141117E+02</pdfrwt>
<totfact> 0.99013764E+02</totfact>
</mgrwt>
</event>
<event>
 5    1  0.6729100E-004  0.1097910E+03  0.7818608E-02  0.1507562E+00
         11   -1    0    0    0    0  0.00000000000E+00  0.00000000000E+00  0.99998869805E+03  0.99998869805E+03  0.51100000000E-03 0. -1.
          2   -1    0    0  501    0 -0.00000000000E+00 -0.00000000000E+00 -0.14948797322E+02  0.14948797540E+02  0.25500000000E-02 0. -1.
         11    1    1    2    0    0  0.92163107213E+02  0.60218870449E+02  0.60288447761E+03  0.61285401527E+03  0.51100000000E-03 0. -1.
         22    1    1    2    0    0  0.69809133141E+01 -0.12865746871E+02  0.57783269848E+02  0.59608446277E+02  0.00000000000E+00 0. -1.
          2    1    1    2  501    0 -0.99144020527E+02 -0.47353123578E+02  0.32437215326E+03  0.34247503404E+03  0.25500000000E-02 0. -1.
<mgrwt>
<rscale>  0 0.40088417E+02</rscale>
<asrwt>0</asrwt>
<pdfrwt beam="1">  1       11 0.10000000E+01 0.10979098E+03</pdfrwt>
<pdfrwt beam="2">  1        2 0.22997889E-02 0.40088417E+02</pdfrwt>
<totfact> 0.44051981E+03</totfact>
</mgrwt>
</event>
<event>
 5    1  0.6729100E-004  0.4195990E+02  0.7818608E-02  0.1494265E+00
         11   -1    0    0    0    0  0.00000000000E+00  0.00000000000E+00  0.10005977887E+04  0.10005977887E+04  0.51100000000E-03 0.  1.
          2   -1    0    0  501    0 -0.00000000000E+00 -0.00000000000E+00 -0.10215243651E+02  0.10215243969E+02  0.25500000000E-02 0.  1.
         11    1    1    2    0    0 -0.32169792846E+02 -0.53463345636E+01  0.32075243320E+02  0.45741666993E+02  0.51100000000E-03 0.  1.
         22    1    1    2    0    0 -0.35984288885E+02 -0.30925013688E+01  0.17088316083E+03  0.17465820125E+03  0.00000000000E+00 0.  1.
          2    1    1    2  501    0  0.68154081731E+02  0.84388359324E+01  0.78742414089E+03  0.79041316441E+03  0.25500000000E-02 0.  1.
<mgrwt>
<rscale>  0 0.41959901E+02</rscale>
<asrwt>0</asrwt>
<pdfrwt beam="1">  1       11 0.10000000E+01 0.32611040E+02</pdfrwt>
<pdfrwt beam="2">  1        2 0.15725154E-02 0.41959901E+02</pdfrwt>
<totfact> 0.73121803E+03</totfact>
</mgrwt>
</event>
<event>
 5    1  0.6729100E-004  0.2066952E+03  0.7818608E-02  0.1382282E+00
         11   -1    0    0    0    0  0.00000000000E+00  0.00000000000E+00  0.10001896168E+04  0.10001896168E+04  0.51100000000E-03 0.  1.
          2   -1    0    0  501    0 -0.00000000000E+00 -0.00000000000E+00 -0.31036939909E+03  0.31036939910E+03  0.25500000000E-02 0.  1.
         11    1    1    2    0    0 -0.11005818046E+03 -0.23344642640E+03 -0.64017774684E+02  0.26591034684E+03  0.51100000000E-03 0.  1.
         22    1    1    2    0    0  0.11200979097E+03  0.16960844883E+03  0.88003921898E+03  0.90320664641E+03  0.00000000000E+00 0.  1.
          2    1    1    2  501    0 -0.19516105078E+01  0.63837977568E+02 -0.12620122660E+03  0.14144202263E+03  0.25500000000E-02 0.  1.
<mgrwt>
<rscale>  0 0.63867802E+02</rscale>
<asrwt>0</asrwt>
<pdfrwt beam="1">  1       11 0.10000000E+01 0.20669524E+03</pdfrwt>
<pdfrwt beam="2">  1        2 0.47758191E-01 0.63867802E+02</pdfrwt>
<totfact> 0.13006065E+02</totfact>
</mgrwt>
</event>
<event>
 5    1  0.6729100E-004  0.3801211E+03  0.7818608E-02  0.1052447E+00
         11   -1    0    0    0    0  0.00000000000E+00  0.00000000000E+00  0.10001629713E+04  0.10001629713E+04  0.51100000000E-03 0. -1.
          2   -1    0    0  501    0 -0.00000000000E+00 -0.00000000000E+00 -0.14862757003E+03  0.14862757005E+03  0.25500000000E-02 0. -1.
         11    1    1    2    0    0 -0.10991122199E+03  0.35204662264E+03  0.51814902027E+03  0.63599977078E+03  0.51100000000E-03 0. -1.
         22    1    1    2    0    0  0.54711989107E+01  0.90887819389E+01  0.22822365507E+02  0.25167446076E+02  0.00000000000E+00 0.  1.
          2    1    1    2  501    0  0.10444002308E+03 -0.36113540458E+03  0.31056401550E+03  0.48762332449E+03  0.25500000000E-02 0. -1.
<mgrwt>
<rscale>  0 0.37593417E+03</rscale>
<asrwt>0</asrwt>
<pdfrwt beam="1">  1       11 0.10000000E+01 0.38012110E+03</pdfrwt>
<pdfrwt beam="2">  1        2 0.22869506E-01 0.37593417E+03</pdfrwt>
<totfact> 0.29618431E+02</totfact>
</mgrwt>
</event>
<event>
 5    1  0.6729100E-004  0.8660500E+02  0.7818608E-02  0.1353472E+00
         11   -1    0    0    0    0  0.00000000000E+00  0.00000000000E+00  0.10004097854E+04  0.10004097854E+04  0.51100000000E-03 0.  1.
         -2   -1    0    0    0  501 -0.00000000000E+00 -0.00000000000E+00 -0.37786080440E+02  0.37786080526E+02  0.25500000000E-02 0. -1.
         11    1    1    2    0    0  0.86792728062E+02 -0.92533228631E+02  0.50568713053E+03  0.52135865777E+03  0.51100000000E-03 0.  1.
         22    1    1    2    0    0 -0.70931750885E+02  0.22317978365E+02  0.43539427723E+03  0.44169851945E+03  0.00000000000E+00 0. -1.
         -2    1    1    2    0  501 -0.15860977177E+02  0.70215250267E+02  0.21542297216E+02  0.75138688722E+02  0.25500000000E-02 0. -1.
<mgrwt>
<rscale>  0 0.71984387E+02</rscale>
<asrwt>0</asrwt>
<pdfrwt beam="1">  1       11 0.10000000E+01 0.86604998E+02</pdfrwt>
<pdfrwt beam="2">  1       -2 0.58156252E-02 0.71984387E+02</pdfrwt>
<totfact> 0.11118772E+03</totfact>
</mgrwt>
</event>
<event>
 5    1  0.6729100E-004  0.1012996E+03  0.7818608E-02  0.1359020E+00
         11   -1    0    0    0    0  0.00000000000E+00  0.00000000000E+00  0.10003903134E+04  0.10003903134E+04  0.51100000000E-03 0. -1.
          2   -1    0    0  501    0 -0.00000000000E+00 -0.00000000000E+00 -0.19433809195E+02  0.19433809362E+02  0.25500000000E-02 0. -1.
         11    1    1    2    0    0 -0.86455485310E+02  0.53767985576E+02  0.57864732391E+03  0.58753576290E+03  0.51100000000E-03 0. -1.
         22    1    1    2    0    0 -0.21280905347E+02 -0.43926112206E+02  0.15068139449E+03  0.15838959218E+03  0.00000000000E+00 0. -1.
          2    1    1    2  501    0  0.10773639066E+03 -0.98418733698E+01  0.25162778579E+03  0.27389876767E+03  0.25500000000E-02 0. -1.
<mgrwt>
<rscale>  0 0.70316412E+02</rscale>
<asrwt>0</asrwt>
<pdfrwt beam="1">  1       11 0.10000000E+01 0.10129963E+03</pdfrwt>
<pdfrwt beam="2">  1        2 0.29909837E-02 0.70316412E+02</pdfrwt>
<totfact> 0.33682616E+03</totfact>
</mgrwt>
</event>
<event>
 5    1  0.6729100E-004  0.1123306E+03  0.7818608E-02  0.1256314E+00
         11   -1    0    0    0    0  0.00000000000E+00  0.00000000000E+00  0.10001499550E+04  0.10001499550E+04  0.51100000000E-03 0.  1.
          2   -1    0    0  501    0 -0.00000000000E+00 -0.00000000000E+00 -0.14295758806E+02  0.14295759033E+02  0.25500000000E-02 0.  1.
         11    1    1    2    0    0 -0.10794372210E+03  0.98396816188E+01  0.29022194101E+03  0.30980226196E+03  0.51100000000E-03 0.  1.
         22    1    1    2    0    0  0.13032631977E+02  0.86327722751E+01  0.94300186892E+02  0.95587130416E+02  0.00000000000E+00 0.  1.
          2    1    1    2  501    0  0.94911090123E+02 -0.18472453894E+02  0.60133206833E+03  0.60905632169E+03  0.25500000000E-02 0.  1.
<mgrwt>
<rscale>  0 0.11233058E+03</rscale>
<asrwt>0</asrwt>
<pdfrwt beam="1">  1       11 0.10000000E+01 0.10839132E+03</pdfrwt>
<pdfrwt beam="2">  1        2 0.21996773E-02 0.11233058E+03</pdfrwt>
<totfact> 0.53699697E+03</totfact>
</mgrwt>
</event>
<event>
 5    1  0.6729100E-004  0.1055808E+03  0.7818608E-02  0.1587643E+00
         11   -1    0    0    0    0  0.00000000000E+00  0.00000000000E+00  0.10002622602E+04  0.10002622602E+04  0.51100000000E-03 0. -1.
          2   -1    0    0  501    0 -0.00000000000E+00 -0.00000000000E+00 -0.63003072298E+03  0.63003072298E+03  0.25500000000E-02 0. -1.
         11    1    1    2    0    0 -0.13047295576E+02 -0.99419476212E+02  0.51175292068E+03  0.52148395564E+03  0.51100000000E-03 0. -1.
         22    1    1    2    0    0  0.43144797856E+02  0.10670470500E+03  0.47640291761E+03  0.49010928124E+03  0.00000000000E+00 0. -1.
          2    1    1    2  501    0 -0.30097502280E+02 -0.72852287931E+01 -0.61792430107E+03  0.61869974629E+03  0.25500000000E-02 0. -1.
<mgrwt>
<rscale>  0 0.30966663E+02</rscale>
<asrwt>0</asrwt>
<pdfrwt beam="1">  1       11 0.10000000E+01 0.10558082E+03</pdfrwt>
<pdfrwt beam="2">  1        2 0.96953221E-01 0.30966663E+02</pdfrwt>
<totfact> 0.62637880E+01</totfact>
</mgrwt>
</event>
<event>
 5    1  0.6729100E-004  0.1279350E+03  0.7818608E-02  0.1230552E+00
         11   -1    0    0    0    0  0.00000000000E+00  0.00000000000E+00  0.10003191618E+04  0.10003191618E+04  0.51100000000E-03 0.  1.
         -2   -1    0    0    0  501 -0.00000000000E+00 -0.00000000000E+00 -0.50035912562E+02  0.50035912627E+02  0.25500000000E-02 0. -1.
         11    1    1    2    0    0  0.14892827078E+03 -0.92398390678E+02  0.72778697980E+03  0.74859266654E+03  0.51100000000E-03 0.  1.
         22    1    1    2    0    0 -0.34228642974E+02  0.52817616790E+02  0.14425308989E+03  0.15738568736E+03  0.00000000000E+00 0.  1.
         -2    1    1    2    0  501 -0.11469962781E+03  0.39580773888E+02  0.78243179581E+02  0.14437672055E+03  0.25500000000E-02 0. -1.
<mgrwt>
<rscale>  0 0.12793497E+03</rscale>
<asrwt>0</asrwt>
<pdfrwt beam="1">  1       11 0.10000000E+01 0.62938864E+02</pdfrwt>
<pdfrwt beam="2">  1       -2 0.77002893E-02 0.12793497E+03</pdfrwt>
<totfact> 0.76315225E+02</totfact>
</mgrwt>
</event>
<event>
 5    1  0.6729100E-004  0.1687545E+03  0.7818608E-02  0.1179153E+00
         11   -1    0    0    0    0  0.00000000000E+00  0.00000000000E+00  0.10002984999E+04  0.10002984999E+04  0.51100000000E-03 0. -1.
          2   -1    0    0  501    0 -0.00000000000E+00 -0.00000000000E+00 -0.11643766773E+03  0.11643766776E+03  0.25500000000E-02 0. -1.
         11    1    1    2    0    0  0.70203489353E+02  0.43629769833E+02  0.16615063955E+03  0.18557511082E+03  0.51100000000E-03 0. -1.
         22    1    1    2    0    0 -0.12015503690E+03  0.11940775606E+03  0.74004628201E+03  0.75918637015E+03  0.00000000000E+00 0. -1.
          2    1    1    2  501    0  0.49951547542E+02 -0.16303752589E+03 -0.22336089430E+02  0.17197468665E+03  0.25500000000E-02 0. -1.
<mgrwt>
<rscale>  0 0.16875449E+03</rscale>
<asrwt>0</asrwt>
<pdfrwt beam="1">  1       11 0.10000000E+01 0.82656438E+02</pdfrwt>
<pdfrwt beam="2">  1        2 0.17918834E-01 0.16875449E+03</pdfrwt>
<totfact> 0.38366588E+02</totfact>
</mgrwt>
</event>
<event>
 5    1  0.6729100E-004  0.1348561E+03  0.7818608E-02  0.1730429E+00
         11   -1    0    0    0    0  0.00000000000E+00  0.00000000000E+00  0.10001839235E+04  0.10001839235E+04  0.51100000000E-03 0.  1.
          2   -1    0    0  501    0 -0.00000000000E+00 -0.00000000000E+00 -0.74140313098E+03  0.74140313098E+03  0.25500000000E-02 0.  1.
         11    1    1    2    0    0  0.12744957636E+03 -0.13503277100E+01  0.53210604121E+03  0.54715816451E+03  0.51100000000E-03 0.  1.
         22    1    1    2    0    0 -0.14627828652E+03 -0.74181769101E+01  0.44875378619E+03  0.47205119116E+03  0.00000000000E+00 0.  1.
          2    1    1    2  501    0  0.18828710158E+02  0.87685046202E+01 -0.72207903492E+03  0.72237769877E+03  0.25500000000E-02 0.  1.
<mgrwt>
<rscale>  0 0.20770340E+02</rscale>
<asrwt>0</asrwt>
<pdfrwt beam="1">  1       11 0.10000000E+01 0.13485610E+03</pdfrwt>
<pdfrwt beam="2">  1        2 0.11408300E+00 0.20770340E+02</pdfrwt>
<totfact> 0.53086616E+01</totfact>
</mgrwt>
</event>
<event>
 5    1  0.6729100E-004  0.2606495E+03  0.7818608E-02  0.1106754E+00
         11   -1    0    0    0    0  0.00000000000E+00  0.00000000000E+00  0.10001230717E+04  0.10001230717E+04  0.51100000000E-03 0. -1.
          2   -1    0    0  501    0 -0.00000000000E+00 -0.00000000000E+00 -0.21503576483E+03  0.21503576485E+03  0.25500000000E-02 0. -1.
         11    1    1    2    0    0 -0.26249097050E+03 -0.69769650565E+02  0.79114433959E+03  0.83646797894E+03  0.51100000000E-03 0. -1.
         22    1    1    2    0    0  0.19303765939E+02 -0.21025473679E+02  0.95706908674E+02  0.99872510186E+02  0.00000000000E+00 0. -1.
          2    1    1    2  501    0  0.24318720456E+03  0.90795124244E+02 -0.10176394144E+03  0.27881834737E+03  0.25500000000E-02 0. -1.
<mgrwt>
<rscale>  0 0.26064950E+03</rscale>
<asrwt>0</asrwt>
<pdfrwt beam="1">  1       11 0.10000000E+01 0.28543054E+02</pdfrwt>
<pdfrwt beam="2">  1        2 0.33086496E-01 0.26064950E+03</pdfrwt>
<totfact> 0.19481595E+02</totfact>
</mgrwt>
</event>
<event>
 5    1  0.6729100E-004  0.3998288E+03  0.7818608E-02  0.1043839E+00
         11   -1    0    0    0    0  0.00000000000E+00  0.00000000000E+00  0.10002291444E+04  0.10002291444E+04  0.51100000000E-03 0. -1.
          2   -1    0    0  501    0 -0.00000000000E+00 -0.00000000000E+00 -0.22141035403E+03  0.22141035405E+03  0.25500000000E-02 0. -1.
         11    1    1    2    0    0 -0.41144191016E+03  0.55997912467E+02  0.43648361646E+03  0.60244349035E+03  0.51100000000E-03 0. -1.
         22    1    1    2    0    0  0.19765197655E+02 -0.38861449118E+02  0.19589464206E+03  0.20068778252E+03  0.00000000000E+00 0. -1.
          2    1    1    2  501    0  0.39167671250E+03 -0.17136463349E+02  0.14644053185E+03  0.41850822557E+03  0.25500000000E-02 0. -1.
<mgrwt>
<rscale>  0 0.39982881E+03</rscale>
<asrwt>0</asrwt>
<pdfrwt beam="1">  1       11 0.10000000E+01 0.43599028E+02</pdfrwt>
<pdfrwt beam="2">  1        2 0.34070936E-01 0.39982881E+03</pdfrwt>
<totfact> 0.18945289E+02</totfact>
</mgrwt>
</event>
<event>
 5    1  0.6729100E-004  0.4751451E+02  0.7818608E-02  0.1574509E+00
         11   -1    0    0    0    0  0.00000000000E+00  0.00000000000E+00  0.10003038427E+04  0.10003038427E+04  0.51100000000E-03 0. -1.
          2   -1    0    0  501    0 -0.00000000000E+00 -0.00000000000E+00 -0.67443697677E+02  0.67443697726E+02  0.25500000000E-02 0. -1.
         11    1    1    2    0    0 -0.61179092428E+00  0.76524439925E+02 -0.40069843709E+02  0.86382617285E+02  0.51100000000E-03 0. -1.
         22    1    1    2    0    0 -0.71264523924E+01 -0.45220419337E+02  0.13011465152E+03  0.13793293729E+03  0.00000000000E+00 0.  1.
          2    1    1    2  501    0  0.77382433167E+01 -0.31304020588E+02  0.84281533721E+03  0.84343198585E+03  0.25500000000E-02 0. -1.
<mgrwt>
<rscale>  0 0.32246273E+02</rscale>
<asrwt>0</asrwt>
<pdfrwt beam="1">  1       11 0.10000000E+01 0.47514506E+02</pdfrwt>
<pdfrwt beam="2">  1        2 0.10379106E-01 0.32246273E+02</pdfrwt>
<totfact> 0.65873654E+02</totfact>
</mgrwt>
</event>
<event>
 5    1  0.6729100E-004  0.1914585E+03  0.7818608E-02  0.1157152E+00
         11   -1    0    0    0    0  0.00000000000E+00  0.00000000000E+00  0.10002188902E+04  0.10002188902E+04  0.51100000000E-03 0. -1.
         -2   -1    0    0    0  501 -0.00000000000E+00 -0.00000000000E+00 -0.14238350682E+03  0.14238350684E+03  0.25500000000E-02 0. -1.
         11    1    1    2    0    0 -0.17161657936E+03  0.46678540848E+02  0.86477331554E+03  0.88287259770E+03  0.51100000000E-03 0. -1.
         22    1    1    2    0    0 -0.92263336296E+01  0.19607057125E+02  0.53614103439E+02  0.57827623234E+02  0.00000000000E+00 0.  1.
         -2    1    1    2    0  501  0.18084291299E+03 -0.66285597973E+02 -0.60552035640E+02  0.20190217607E+03  0.25500000000E-02 0. -1.
<mgrwt>
<rscale>  0 0.19145851E+03</rscale>
<asrwt>0</asrwt>
<pdfrwt beam="1">  1       11 0.10000000E+01 0.21669378E+02</pdfrwt>
<pdfrwt beam="2">  1       -2 0.21909949E-01 0.19145851E+03</pdfrwt>
<totfact> 0.14297210E+02</totfact>
</mgrwt>
</event>
<event>
 5    1  0.6729100E-004  0.1093446E+03  0.7818608E-02  0.1261788E+00
         11   -1    0    0    0    0  0.00000000000E+00  0.00000000000E+00  0.10001911533E+04  0.10001911533E+04  0.51100000000E-03 0.  1.
          2   -1    0    0  501    0 -0.00000000000E+00 -0.00000000000E+00 -0.60601011621E+02  0.60601011674E+02  0.25500000000E-02 0.  1.
         11    1    1    2    0    0  0.69130402580E+02  0.82631832849E+02  0.57965586301E+03  0.58958286261E+03  0.51100000000E-03 0.  1.
         22    1    1    2    0    0  0.36240127940E+02 -0.47810182245E+02  0.35509649414E+03  0.36012869998E+03  0.00000000000E+00 0.  1.
          2    1    1    2  501    0 -0.10537053052E+03 -0.34821650604E+02  0.48377844940E+01  0.11108060235E+03  0.25500000000E-02 0.  1.
<mgrwt>
<rscale>  0 0.10934459E+03</rscale>
<asrwt>0</asrwt>
<pdfrwt beam="1">  1       11 0.10000000E+01 0.59993003E+02</pdfrwt>
<pdfrwt beam="2">  1        2 0.93250145E-02 0.10934459E+03</pdfrwt>
<totfact> 0.81822600E+02</totfact>
</mgrwt>
</event>
<event>
 5    1  0.6729100E-004  0.3110711E+03  0.7818608E-02  0.1309242E+00
         11   -1    0    0    0    0  0.00000000000E+00  0.00000000000E+00  0.10001188878E+04  0.10001188878E+04  0.51100000000E-03 0.  1.
          2   -1    0    0  501    0 -0.00000000000E+00 -0.00000000000E+00 -0.25789798803E+03  0.25789798804E+03  0.25500000000E-02 0.  1.
         11    1    1    2    0    0 -0.15292857715E+03  0.29568686589E+03 -0.99484261324E+02  0.34744062891E+03  0.51100000000E-03 0.  1.
         22    1    1    2    0    0  0.10418084456E+02 -0.22244379455E+02  0.16362473153E+02  0.29514054767E+02  0.00000000000E+00 0.  1.
          2    1    1    2  501    0  0.14251049270E+03 -0.27344248643E+03  0.82534268789E+03  0.88106219212E+03  0.25500000000E-02 0.  1.
<mgrwt>
<rscale>  0 0.87412164E+02</rscale>
<asrwt>0</asrwt>
<pdfrwt beam="1">  1       11 0.10000000E+01 0.31107112E+03</pdfrwt>
<pdfrwt beam="2">  1        2 0.39681329E-01 0.87412164E+02</pdfrwt>
<totfact> 0.15817133E+02</totfact>
</mgrwt>
</event>
<event>
 5    1  0.6729100E-004  0.4204140E+03  0.7818608E-02  0.1036932E+00
         11   -1    0    0    0    0  0.00000000000E+00  0.00000000000E+00  0.10002903566E+04  0.10002903566E+04  0.51100000000E-03 0.  1.
          2   -1    0    0  501    0 -0.00000000000E+00 -0.00000000000E+00 -0.26946030436E+03  0.26946030437E+03  0.25500000000E-02 0.  1.
         11    1    1    2    0    0  0.38529922398E+03 -0.10248008091E+03  0.55797945431E+03  0.68578329698E+03  0.51100000000E-03 0.  1.
         22    1    1    2    0    0  0.28233827905E+02 -0.88581069109E+01  0.15237234479E+03  0.15521902768E+03  0.00000000000E+00 0. -1.
          2    1    1    2  501    0 -0.41353305188E+03  0.11133818782E+03  0.20478253187E+02  0.42874833636E+03  0.25500000000E-02 0.  1.
<mgrwt>
<rscale>  0 0.42041396E+03</rscale>
<asrwt>0</asrwt>
<pdfrwt beam="1">  1       11 0.10000000E+01 0.29590794E+02</pdfrwt>
<pdfrwt beam="2">  1        2 0.41467467E-01 0.42041396E+03</pdfrwt>
<totfact> 0.15264485E+02</totfact>
</mgrwt>
</event>
<event>
 5    1  0.6729100E-004  0.4043095E+03  0.7818608E-02  0.1050896E+00
         11   -1    0    0    0    0  0.00000000000E+00  0.00000000000E+00  0.10001825354E+04  0.10001825354E+04  0.51100000000E-03 0. -1.
          2   -1    0    0  501    0 -0.00000000000E+00 -0.00000000000E+00 -0.55876864308E+03  0.55876864309E+03  0.25500000000E-02 0. -1.
         11    1    1    2    0    0 -0.31933485314E+02  0.31487900081E+03  0.60402645225E+03  0.68192117408E+03  0.51100000000E-03 0. -1.
         22    1    1    2    0    0 -0.50868601685E+02  0.56093848316E+02  0.28205669790E+03  0.29204471453E+03  0.00000000000E+00 0. -1.
          2    1    1    2  501    0  0.82802086999E+02 -0.37097284913E+03 -0.44466925788E+03  0.58498528983E+03  0.25500000000E-02 0. -1.
<mgrwt>
<rscale>  0 0.38010136E+03</rscale>
<asrwt>0</asrwt>
<pdfrwt beam="1">  1       11 0.10000000E+01 0.40430954E+03</pdfrwt>
<pdfrwt beam="2">  1        2 0.85980096E-01 0.38010136E+03</pdfrwt>
<totfact> 0.67846731E+01</totfact>
</mgrwt>
</event>
<event>
 5    1  0.6729100E-004  0.1981169E+03  0.7818608E-02  0.1151338E+00
         11   -1    0    0    0    0  0.00000000000E+00  0.00000000000E+00  0.10001408754E+04  0.10001408754E+04  0.51100000000E-03 0. -1.
         -2   -1    0    0    0  501 -0.00000000000E+00 -0.00000000000E+00 -0.18116224794E+03  0.18116224796E+03  0.25500000000E-02 0.  1.
         11    1    1    2    0    0  0.20933272673E+03  0.29753890025E+02  0.87845621316E+03  0.90354347039E+03  0.51100000000E-03 0. -1.
         22    1    1    2    0    0 -0.15185108749E+02  0.51298238326E+01  0.49758579608E+02  0.52276370043E+02  0.00000000000E+00 0. -1.
         -2    1    1    2    0  501 -0.19414761798E+03 -0.34883713858E+02 -0.10923616531E+03  0.22548328292E+03  0.25500000000E-02 0.  1.
<mgrwt>
<rscale>  0 0.19811689E+03</rscale>
<asrwt>0</asrwt>
<pdfrwt beam="1">  1       11 0.10000000E+01 0.16028182E+02</pdfrwt>
<pdfrwt beam="2">  1       -2 0.27875041E-01 0.19811689E+03</pdfrwt>
<totfact> 0.93713503E+01</totfact>
</mgrwt>
</event>
<event>
 5    1  0.6729100E-004  0.1171709E+03  0.7818608E-02  0.1251271E+00
         11   -1    0    0    0    0  0.00000000000E+00  0.00000000000E+00  0.99998482955E+03  0.99998482955E+03  0.51100000000E-03 0. -1.
          2   -1    0    0  501    0 -0.00000000000E+00 -0.00000000000E+00 -0.13591093185E+02  0.13591093424E+02  0.25500000000E-02 0. -1.
         11    1    1    2    0    0 -0.22250541714E+02 -0.10144677389E+03  0.42608893627E+03  0.43856392482E+03  0.51100000000E-03 0. -1.
         22    1    1    2    0    0  0.15669163709E+01 -0.11858582278E+02  0.29072610736E+02  0.31437205594E+02  0.00000000000E+00 0. -1.
          2    1    1    2  501    0  0.20683625343E+02  0.11330535617E+03  0.53123218935E+03  0.54357479256E+03  0.25500000000E-02 0. -1.
<mgrwt>
<rscale>  0 0.11517776E+03</rscale>
<asrwt>0</asrwt>
<pdfrwt beam="1">  1       11 0.10000000E+01 0.11717094E+03</pdfrwt>
<pdfrwt beam="2">  1        2 0.20909057E-02 0.11517776E+03</pdfrwt>
<totfact> 0.57690161E+03</totfact>
</mgrwt>
</event>
<event>
 5    1  0.6729100E-004  0.1420737E+03  0.7818608E-02  0.1217040E+00
         11   -1    0    0    0    0  0.00000000000E+00  0.00000000000E+00  0.10005282907E+04  0.10005282907E+04  0.51100000000E-03 0. -1.
          2   -1    0    0  501    0 -0.00000000000E+00 -0.00000000000E+00 -0.21222834871E+02  0.21222835024E+02  0.25500000000E-02 0. -1.
         11    1    1    2    0    0  0.10622866091E+03  0.43160214891E+02  0.25433268294E+03  0.27898467012E+03  0.51100000000E-03 0. -1.
         22    1    1    2    0    0  0.24173451762E+02 -0.26143135669E+00  0.97460921112E+02  0.10041441759E+03  0.00000000000E+00 0.  1.
          2    1    1    2  501    0 -0.13040211267E+03 -0.42898783534E+02  0.62751185175E+03  0.64235203799E+03  0.25500000000E-02 0. -1.
<mgrwt>
<rscale>  0 0.13727715E+03</rscale>
<asrwt>0</asrwt>
<pdfrwt beam="1">  1       11 0.10000000E+01 0.14207367E+03</pdfrwt>
<pdfrwt beam="2">  1        2 0.32667763E-02 0.13727715E+03</pdfrwt>
<totfact> 0.32218476E+03</totfact>
</mgrwt>
</event>
<event>
 5    1  0.6729100E-004  0.4322109E+03  0.7818608E-02  0.1033164E+00
         11   -1    0    0    0    0  0.00000000000E+00  0.00000000000E+00  0.99986758120E+03  0.99986758120E+03  0.51100000000E-03 0. -1.
          2   -1    0    0  501    0 -0.00000000000E+00 -0.00000000000E+00 -0.21157747463E+03  0.21157747464E+03  0.25500000000E-02 0. -1.
         11    1    1    2    0    0  0.35113844375E+03 -0.24158626828E+03  0.23500102210E+03  0.48671101497E+03  0.51100000000E-03 0. -1.
         22    1    1    2    0    0  0.13150251022E+02 -0.83214413396E+01  0.62486928169E+02  0.64395587426E+02  0.00000000000E+00 0.  1.
          2    1    1    2  501    0 -0.36428869478E+03  0.24990770962E+03  0.49080215630E+03  0.66033845345E+03  0.25500000000E-02 0. -1.
<mgrwt>
<rscale>  0 0.43221092E+03</rscale>
<asrwt>0</asrwt>
<pdfrwt beam="1">  1       11 0.10000000E+01 0.15561989E+02</pdfrwt>
<pdfrwt beam="2">  1        2 0.32546069E-01 0.43221092E+03</pdfrwt>
<totfact> 0.19945721E+02</totfact>
</mgrwt>
</event>
<event>
 5    1  0.6729100E-004  0.1430767E+03  0.7818608E-02  0.1209248E+00
         11   -1    0    0    0    0  0.00000000000E+00  0.00000000000E+00  0.10000856422E+04  0.10000856422E+04  0.51100000000E-03 0.  1.
          2   -1    0    0  501    0 -0.00000000000E+00 -0.00000000000E+00 -0.42573963848E+02  0.42573963925E+02  0.25500000000E-02 0.  1.
         11    1    1    2    0    0  0.66482849240E+02 -0.11873288335E+03  0.13284571387E+03  0.19017216023E+03  0.51100000000E-03 0.  1.
         22    1    1    2    0    0  0.28850779943E+02 -0.27469702653E+02  0.11621917798E+03  0.12285702828E+03  0.00000000000E+00 0.  1.
          2    1    1    2  501    0 -0.95333629183E+02  0.14620258600E+03  0.70844678648E+03  0.72963041760E+03  0.25500000000E-02 0.  1.
<mgrwt>
<rscale>  0 0.14307670E+03</rscale>
<asrwt>0</asrwt>
<pdfrwt beam="1">  1       11 0.10000000E+01 0.39836567E+02</pdfrwt>
<pdfrwt beam="2">  1        2 0.65504014E-02 0.14307670E+03</pdfrwt>
<totfact> 0.12975279E+03</totfact>
</mgrwt>
</event>
<event>
 5    1  0.6729100E-004  0.1213245E+03  0.7818608E-02  0.1240928E+00
         11   -1    0    0    0    0  0.00000000000E+00  0.00000000000E+00  0.10001427416E+04  0.10001427416E+04  0.51100000000E-03 0.  1.
          2   -1    0    0  501    0 -0.00000000000E+00 -0.00000000000E+00 -0.16222138111E+02  0.16222138311E+02  0.25500000000E-02 0.  1.
         11    1    1    2    0    0  0.21781974381E+01  0.11781033334E+03  0.31056623319E+03  0.33216773532E+03  0.51100000000E-03 0.  1.
         22    1    1    2    0    0  0.38386246099E+01 -0.12547798579E+02  0.39203366657E+02  0.41341096324E+02  0.00000000000E+00 0.  1.
          2    1    1    2  501    0 -0.60168220481E+01 -0.10526253476E+03  0.63415100363E+03  0.64285604826E+03  0.25500000000E-02 0.  1.
<mgrwt>
<rscale>  0 0.12132446E+03</rscale>
<asrwt>0</asrwt>
<pdfrwt beam="1">  1       11 0.10000000E+01 0.11783053E+03</pdfrwt>
<pdfrwt beam="2">  1        2 0.24960697E-02 0.12132446E+03</pdfrwt>
<totfact> 0.45669088E+03</totfact>
</mgrwt>
</event>
<event>
 5    1  0.6729100E-004  0.5428218E+03  0.7818608E-02  0.1003169E+00
         11   -1    0    0    0    0  0.00000000000E+00  0.00000000000E+00  0.10003240026E+04  0.10003240026E+04  0.51100000000E-03 0. -1.
          2   -1    0    0  501    0 -0.00000000000E+00 -0.00000000000E+00 -0.10581408945E+04  0.10581408945E+04  0.25500000000E-02 0. -1.
         11    1    1    2    0    0 -0.54507357792E+03 -0.82330227681E+01  0.78956524794E+03  0.95947186971E+03  0.51100000000E-03 0. -1.
         22    1    1    2    0    0  0.32415524872E+01 -0.21658535733E+02  0.47571956372E+02  0.52370706179E+02  0.00000000000E+00 0. -1.
          2    1    1    2  501    0  0.54183202543E+03  0.29891558501E+02 -0.89495409621E+03  0.10466223213E+04  0.25500000000E-02 0. -1.
<mgrwt>
<rscale>  0 0.54282178E+03</rscale>
<asrwt>0</asrwt>
<pdfrwt beam="1">  1       11 0.10000000E+01 0.21899768E+02</pdfrwt>
<pdfrwt beam="2">  1        2 0.16284365E+00 0.54282178E+03</pdfrwt>
<totfact> 0.29234714E+01</totfact>
</mgrwt>
</event>
<event>
 5    1  0.6729100E-004  0.7121810E+03  0.7818608E-02  0.9696625E-01
         11   -1    0    0    0    0  0.00000000000E+00  0.00000000000E+00  0.10001609495E+04  0.10001609495E+04  0.51100000000E-03 0.  1.
          2   -1    0    0  501    0 -0.00000000000E+00 -0.00000000000E+00 -0.81348569582E+03  0.81348569582E+03  0.25500000000E-02 0.  1.
         11    1    1    2    0    0 -0.56679880397E+03 -0.22675073977E+03  0.17017789456E+02  0.61070974065E+03  0.51100000000E-03 0.  1.
         22    1    1    2    0    0 -0.23029911185E+03 -0.10357656468E+02  0.28148140851E+03  0.36383615173E+03  0.00000000000E+00 0.  1.
          2    1    1    2  501    0  0.79709791582E+03  0.23710839624E+03 -0.11182394433E+03  0.83910075290E+03  0.25500000000E-02 0.  1.
<mgrwt>
<rscale>  0 0.71218104E+03</rscale>
<asrwt>0</asrwt>
<pdfrwt beam="1">  1       11 0.10000000E+01 0.23053191E+03</pdfrwt>
<pdfrwt beam="2">  1        2 0.12517179E+00 0.71218104E+03</pdfrwt>
<totfact> 0.41872750E+01</totfact>
</mgrwt>
</event>
<event>
 5    1  0.6729100E-004  0.3120413E+03  0.7818608E-02  0.1083896E+00
         11   -1    0    0    0    0  0.00000000000E+00  0.00000000000E+00  0.99980599570E+03  0.99980599570E+03  0.51100000000E-03 0.  1.
          2   -1    0    0  501    0 -0.00000000000E+00 -0.00000000000E+00 -0.14308856353E+04  0.14308856353E+04  0.25500000000E-02 0.  1.
         11    1    1    2    0    0 -0.91939676657E+02 -0.25075705769E+03  0.81519531796E+03  0.85783180901E+03  0.51100000000E-03 0.  1.
         22    1    1    2    0    0 -0.39104972806E+02 -0.22112532051E+02  0.14356901173E+03  0.15043345407E+03  0.00000000000E+00 0.  1.
          2    1    1    2  501    0  0.13104464946E+03  0.27286958975E+03 -0.13898439692E+04  0.14224263679E+04  0.25500000000E-02 0.  1.
<mgrwt>
<rscale>  0 0.30270532E+03</rscale>
<asrwt>0</asrwt>
<pdfrwt beam="1">  1       11 0.10000000E+01 0.31204134E+03</pdfrwt>
<pdfrwt beam="2">  1        2 0.22009354E+00 0.30270532E+03</pdfrwt>
<totfact> 0.18502159E+01</totfact>
</mgrwt>
</event>
<event>
 5    1  0.6729100E-004  0.2739742E+03  0.7818608E-02  0.1099026E+00
         11   -1    0    0    0    0  0.00000000000E+00  0.00000000000E+00  0.10002174151E+04  0.10002174151E+04  0.51100000000E-03 0. -1.
          2   -1    0    0  501    0 -0.00000000000E+00 -0.00000000000E+00 -0.38152055079E+03  0.38152055080E+03  0.25500000000E-02 0. -1.
         11    1    1    2    0    0  0.32854155363E+03 -0.73350798067E+02  0.21982299313E+03  0.40204731108E+03  0.51100000000E-03 0. -1.
         22    1    1    2    0    0 -0.65600165178E+02  0.10087512590E+03  0.62212840105E+03  0.63365836228E+03  0.00000000000E+00 0. -1.
          2    1    1    2  501    0 -0.26294138846E+03 -0.27524327832E+02 -0.22325452985E+03  0.34603229256E+03  0.25500000000E-02 0. -1.
<mgrwt>
<rscale>  0 0.27397416E+03</rscale>
<asrwt>0</asrwt>
<pdfrwt beam="1">  1       11 0.10000000E+01 0.12032943E+03</pdfrwt>
<pdfrwt beam="2">  1        2 0.58708229E-01 0.27397416E+03</pdfrwt>
<totfact> 0.10451258E+02</totfact>
</mgrwt>
</event>
<event>
 5    1  0.6729100E-004  0.1825311E+03  0.7818608E-02  0.1526085E+00
         11   -1    0    0    0    0  0.00000000000E+00  0.00000000000E+00  0.10002766664E+04  0.10002766664E+04  0.51100000000E-03 0.  1.
         -2   -1    0    0    0  501 -0.00000000000E+00 -0.00000000000E+00 -0.11278950730E+03  0.11278950732E+03  0.25500000000E-02 0. -1.
         11    1    1    2    0    0  0.15254017424E+03 -0.13498950530E+03  0.15293007058E+03  0.25471214691E+03  0.51100000000E-03 0.  1.
         22    1    1    2    0    0 -0.11491439571E+03  0.13683533169E+03  0.77949592687E+03  0.79971440299E+03  0.00000000000E+00 0. -1.
         -2    1    1    2    0  501 -0.37625778532E+02 -0.18458263900E+01 -0.44938838340E+02  0.58639623831E+02  0.25500000000E-02 0. -1.
<mgrwt>
<rscale>  0 0.37671027E+02</rscale>
<asrwt>0</asrwt>
<pdfrwt beam="1">  1       11 0.10000000E+01 0.18253106E+03</pdfrwt>
<pdfrwt beam="2">  1       -2 0.17357032E-01 0.37671027E+02</pdfrwt>
<totfact> 0.19671369E+02</totfact>
</mgrwt>
</event>
<event>
 5    1  0.6729100E-004  0.1456137E+03  0.7818608E-02  0.1679020E+00
         11   -1    0    0    0    0  0.00000000000E+00  0.00000000000E+00  0.10004281797E+04  0.10004281797E+04  0.51100000000E-03 0. -1.
          2   -1    0    0  501    0 -0.00000000000E+00 -0.00000000000E+00 -0.12989650798E+03  0.12989650800E+03  0.25500000000E-02 0. -1.
         11    1    1    2    0    0  0.81439069424E+02 -0.12230419032E+03  0.41372359948E+03  0.43904197268E+03  0.51100000000E-03 0. -1.
         22    1    1    2    0    0 -0.99157718189E+02  0.10642972418E+03  0.56349916324E+03  0.58197151669E+03  0.00000000000E+00 0. -1.
          2    1    1    2  501    0  0.17718648765E+02  0.15874466144E+02 -0.10669109097E+03  0.10931119837E+03  0.25500000000E-02 0. -1.
<mgrwt>
<rscale>  0 0.23789687E+02</rscale>
<asrwt>0</asrwt>
<pdfrwt beam="1">  1       11 0.10000000E+01 0.14561374E+03</pdfrwt>
<pdfrwt beam="2">  1        2 0.19992634E-01 0.23789687E+02</pdfrwt>
<totfact> 0.31092256E+02</totfact>
</mgrwt>
</event>
<event>
 5    1  0.6729100E-004  0.2060151E+03  0.7818608E-02  0.1145937E+00
         11   -1    0    0    0    0  0.00000000000E+00  0.00000000000E+00  0.10001513536E+04  0.10001513536E+04  0.51100000000E-03 0. -1.
          2   -1    0    0  501    0 -0.00000000000E+00 -0.00000000000E+00 -0.46628954449E+02  0.46628954519E+02  0.25500000000E-02 0. -1.
         11    1    1    2    0    0 -0.76659790284E+02  0.17736770324E+03  0.58904158546E+03  0.61992420101E+03  0.51100000000E-03 0. -1.
         22    1    1    2    0    0 -0.20538944523E+00  0.12215208875E+02  0.51641338140E+02  0.53066762833E+02  0.00000000000E+00 0. -1.
          2    1    1    2  501    0  0.76865179729E+02 -0.18958291211E+03  0.31283947553E+03  0.37378934425E+03  0.25500000000E-02 0. -1.
<mgrwt>
<rscale>  0 0.20457257E+03</rscale>
<asrwt>0</asrwt>
<pdfrwt beam="1">  1       11 0.10000000E+01 0.20601512E+03</pdfrwt>
<pdfrwt beam="2">  1        2 0.71747709E-02 0.20457257E+03</pdfrwt>
<totfact> 0.11823853E+03</totfact>
</mgrwt>
</event>
<event>
 5    1  0.6729100E-004  0.1703347E+03  0.7818608E-02  0.1427406E+00
         11   -1    0    0    0    0  0.00000000000E+00  0.00000000000E+00  0.10002059144E+04  0.10002059144E+04  0.51100000000E-03 0. -1.
          2   -1    0    0  501    0 -0.00000000000E+00 -0.00000000000E+00 -0.13882748424E+03  0.13882748427E+03  0.25500000000E-02 0. -1.
         11    1    1    2    0    0  0.15732291885E+03 -0.97499350066E+02  0.57736602231E+03  0.60630697487E+03  0.51100000000E-03 0. -1.
         22    1    1    2    0    0 -0.10707895629E+03  0.11583277882E+03  0.38631867338E+03  0.41728318074E+03  0.00000000000E+00 0. -1.
          2    1    1    2  501    0 -0.50243962562E+02 -0.18333428757E+02 -0.10230626555E+03  0.11544324303E+03  0.25500000000E-02 0. -1.
<mgrwt>
<rscale>  0 0.53484300E+02</rscale>
<asrwt>0</asrwt>
<pdfrwt beam="1">  1       11 0.10000000E+01 0.17033466E+03</pdfrwt>
<pdfrwt beam="2">  1        2 0.21362472E-01 0.53484300E+02</pdfrwt>
<totfact> 0.30166324E+02</totfact>
</mgrwt>
</event>
<event>
 5    1  0.6729100E-004  0.2702937E+03  0.7818608E-02  0.1101112E+00
         11   -1    0    0    0    0  0.00000000000E+00  0.00000000000E+00  0.10005127816E+04  0.10005127816E+04  0.51100000000E-03 0. -1.
         -2   -1    0    0    0  501 -0.00000000000E+00 -0.00000000000E+00 -0.44632761964E+03  0.44632761965E+03  0.25500000000E-02 0.  1.
         11    1    1    2    0    0  0.21747112421E+03 -0.85448165388E+02  0.61580551503E+03  0.65864369060E+03  0.51100000000E-03 0. -1.
         22    1    1    2    0    0  0.19749860466E+02 -0.49631851061E+02  0.31697668916E+03  0.32144610606E+03  0.00000000000E+00 0. -1.
         -2    1    1    2    0  501 -0.23722098467E+03  0.13508001645E+03 -0.37859704228E+03  0.46675060454E+03  0.25500000000E-02 0.  1.
<mgrwt>
<rscale>  0 0.27029369E+03</rscale>
<asrwt>0</asrwt>
<pdfrwt beam="1">  1       11 0.10000000E+01 0.53417016E+02</pdfrwt>
<pdfrwt beam="2">  1       -2 0.68700996E-01 0.27029369E+03</pdfrwt>
<totfact> 0.16113249E+01</totfact>
</mgrwt>
</event>
<event>
 5    1  0.6729100E-004  0.1283357E+03  0.7818608E-02  0.1229946E+00
         11   -1    0    0    0    0  0.00000000000E+00  0.00000000000E+00  0.10001940638E+04  0.10001940638E+04  0.51100000000E-03 0. -1.
          2   -1    0    0  501    0 -0.00000000000E+00 -0.00000000000E+00 -0.23535587726E+02  0.23535587864E+02  0.25500000000E-02 0.  1.
         11    1    1    2    0    0 -0.42921627066E+02 -0.13338020226E+03  0.47905896399E+03  0.49912927725E+03  0.51100000000E-03 0. -1.
         22    1    1    2    0    0  0.38881263879E+02  0.11093073046E+02  0.17415897451E+03  0.17879082010E+03  0.00000000000E+00 0.  1.
          2    1    1    2  501    0  0.40403631865E+01  0.12228712921E+03  0.32344053759E+03  0.34580955434E+03  0.25500000000E-02 0.  1.
<mgrwt>
<rscale>  0 0.12833567E+03</rscale>
<asrwt>0</asrwt>
<pdfrwt beam="1">  1       11 0.10000000E+01 0.40432771E+02</pdfrwt>
<pdfrwt beam="2">  1        2 0.36215622E-02 0.12833567E+03</pdfrwt>
<totfact> 0.27894400E+03</totfact>
</mgrwt>
</event>
<event>
 5    1  0.6729100E-004  0.1448411E+03  0.7818608E-02  0.1206959E+00
         11   -1    0    0    0    0  0.00000000000E+00  0.00000000000E+00  0.10001631039E+04  0.10001631039E+04  0.51100000000E-03 0.  1.
          2   -1    0    0  501    0 -0.00000000000E+00 -0.00000000000E+00 -0.55757671430E+02  0.55757671489E+02  0.25500000000E-02 0.  1.
         11    1    1    2    0    0  0.72328129387E+02  0.13183911282E+03  0.71286920693E+02  0.16641735195E+03  0.51100000000E-03 0.  1.
         22    1    1    2    0    0 -0.41068205835E+02 -0.23272581487E+02  0.14031832565E+03  0.14804540889E+03  0.00000000000E+00 0. -1.
          2    1    1    2  501    0 -0.31259923552E+02 -0.10856653133E+03  0.73280018611E+03  0.74145801453E+03  0.25500000000E-02 0.  1.
<mgrwt>
<rscale>  0 0.14484113E+03</rscale>
<asrwt>0</asrwt>
<pdfrwt beam="1">  1       11 0.10000000E+01 0.47203925E+02</pdfrwt>
<pdfrwt beam="2">  1        2 0.85795022E-02 0.14484113E+03</pdfrwt>
<totfact> 0.92304257E+02</totfact>
</mgrwt>
</event>
<event>
 5    1  0.6729100E-004  0.8750645E+02  0.7818608E-02  0.1458363E+00
         11   -1    0    0    0    0  0.00000000000E+00  0.00000000000E+00  0.99995974688E+03  0.99995974688E+03  0.51100000000E-03 0.  1.
          2   -1    0    0  501    0 -0.00000000000E+00 -0.00000000000E+00 -0.14141621267E+02  0.14141621497E+02  0.25500000000E-02 0.  1.
         11    1    1    2    0    0 -0.20244751850E+02  0.10127623191E+03  0.52135976219E+03  0.53149104109E+03  0.51100000000E-03 0.  1.
         22    1    1    2    0    0  0.47550905679E+02 -0.62208834468E+02  0.34947187288E+03  0.35813631155E+03  0.00000000000E+00 0. -1.
          2    1    1    2  501    0 -0.27306153829E+02 -0.39067397441E+02  0.11498649054E+03  0.12447401573E+03  0.25500000000E-02 0.  1.
<mgrwt>
<rscale>  0 0.47664322E+02</rscale>
<asrwt>0</asrwt>
<pdfrwt beam="1">  1       11 0.10000000E+01 0.87506446E+02</pdfrwt>
<pdfrwt beam="2">  1        2 0.21755464E-02 0.47664322E+02</pdfrwt>
<totfact> 0.48624974E+03</totfact>
</mgrwt>
</event>
<event>
 5    1  0.6729100E-004  0.2726486E+03  0.7818608E-02  0.1099773E+00
         11   -1    0    0    0    0  0.00000000000E+00  0.00000000000E+00  0.10004551130E+04  0.10004551130E+04  0.51100000000E-03 0. -1.
          2   -1    0    0  501    0 -0.00000000000E+00 -0.00000000000E+00 -0.79513032101E+02  0.79513032142E+02  0.25500000000E-02 0. -1.
         11    1    1    2    0    0 -0.25797446059E+03  0.65023779920E+02  0.61551545708E+03  0.67055066340E+03  0.51100000000E-03 0. -1.
         22    1    1    2    0    0  0.15307272531E+02  0.62187570993E+01  0.37498278522E+02  0.40976901107E+02  0.00000000000E+00 0. -1.
          2    1    1    2  501    0  0.24266718806E+03 -0.71242537020E+02  0.26792834530E+03  0.36844058064E+03  0.25500000000E-02 0. -1.
<mgrwt>
<rscale>  0 0.27264859E+03</rscale>
<asrwt>0</asrwt>
<pdfrwt beam="1">  1       11 0.10000000E+01 0.26604307E+03</pdfrwt>
<pdfrwt beam="2">  1        2 0.12238341E-01 0.27264859E+03</pdfrwt>
<totfact> 0.61435120E+02</totfact>
</mgrwt>
</event>
<event>
 5    1  0.6729100E-004  0.1136763E+03  0.7818608E-02  0.1697995E+00
         11   -1    0    0    0    0  0.00000000000E+00  0.00000000000E+00  0.10002386312E+04  0.10002386312E+04  0.51100000000E-03 0. -1.
         -2   -1    0    0    0  501 -0.00000000000E+00 -0.00000000000E+00 -0.21793699491E+02  0.21793699640E+02  0.25500000000E-02 0. -1.
         11    1    1    2    0    0  0.26139654875E+02 -0.11479365418E+03  0.47641693349E+03  0.49074836639E+03  0.51100000000E-03 0. -1.
         22    1    1    2    0    0 -0.38429733914E+01  0.11107326672E+03  0.49541966303E+03  0.50773288404E+03  0.00000000000E+00 0. -1.
         -2    1    1    2    0  501 -0.22296681484E+02  0.37203874567E+01  0.66083351950E+01  0.23551080412E+02  0.25500000000E-02 0. -1.
<mgrwt>
<rscale>  0 0.22604940E+02</rscale>
<asrwt>0</asrwt>
<pdfrwt beam="1">  1       11 0.10000000E+01 0.11367628E+03</pdfrwt>
<pdfrwt beam="2">  1       -2 0.33536769E-02 0.22604940E+02</pdfrwt>
<totfact> 0.21166731E+03</totfact>
</mgrwt>
</event>
<event>
 5    1  0.6729100E-004  0.5702957E+03  0.7818608E-02  0.9969024E-01
         11   -1    0    0    0    0  0.00000000000E+00  0.00000000000E+00  0.10001184589E+04  0.10001184589E+04  0.51100000000E-03 0.  1.
          2   -1    0    0  501    0 -0.00000000000E+00 -0.00000000000E+00 -0.21792054842E+04  0.21792054842E+04  0.25500000000E-02 0. -1.
         11    1    1    2    0    0  0.33742456046E+03  0.49192331658E+03  0.66325134125E+03  0.89204608909E+03  0.51100000000E-03 0.  1.
         22    1    1    2    0    0 -0.10251618411E+03  0.26769254332E+02  0.16757692143E+03  0.19826292033E+03  0.00000000000E+00 0.  1.
          2    1    1    2  501    0 -0.23490837635E+03 -0.51869257091E+03 -0.20099152879E+04  0.20890149337E+04  0.25500000000E-02 0. -1.
<mgrwt>
<rscale>  0 0.57029573E+03</rscale>
<asrwt>0</asrwt>
<pdfrwt beam="1">  1       11 0.10000000E+01 0.10595358E+03</pdfrwt>
<pdfrwt beam="2">  1        2 0.33530209E+00 0.57029573E+03</pdfrwt>
<totfact> 0.69367592E+00</totfact>
</mgrwt>
</event>
<event>
 5    1  0.6729100E-004  0.1369983E+03  0.7818608E-02  0.1657325E+00
         11   -1    0    0    0    0  0.00000000000E+00  0.00000000000E+00  0.10004384969E+04  0.10004384969E+04  0.51100000000E-03 0. -1.
          2   -1    0    0  501    0 -0.00000000000E+00 -0.00000000000E+00 -0.36812671963E+03  0.36812671964E+03  0.25500000000E-02 0. -1.
         11    1    1    2    0    0  0.38400292501E+02 -0.13798817505E+03  0.80921128879E+03  0.82178964999E+03  0.51100000000E-03 0. -1.
         22    1    1    2    0    0 -0.34972196392E+02  0.11296398116E+03  0.16552170633E+03  0.20342406648E+03  0.00000000000E+00 0. -1.
          2    1    1    2  501    0 -0.34280961091E+01  0.25024193893E+02 -0.34242121787E+03  0.34335150004E+03  0.25500000000E-02 0. -1.
<mgrwt>
<rscale>  0 0.25257912E+02</rscale>
<asrwt>0</asrwt>
<pdfrwt beam="1">  1       11 0.10000000E+01 0.13699834E+03</pdfrwt>
<pdfrwt beam="2">  1        2 0.56659713E-01 0.25257912E+02</pdfrwt>
<totfact> 0.10857122E+02</totfact>
</mgrwt>
</event>
<event>
 5    1  0.6729100E-004  0.2719079E+03  0.7818608E-02  0.1100193E+00
         11   -1    0    0    0    0  0.00000000000E+00  0.00000000000E+00  0.10000014328E+04  0.10000014328E+04  0.51100000000E-03 0. -1.
         -2   -1    0    0    0  501 -0.00000000000E+00 -0.00000000000E+00 -0.15184177419E+03  0.15184177421E+03  0.25500000000E-02 0.  1.
         11    1    1    2    0    0 -0.28170626300E+03  0.11391997095E+03  0.68019729468E+03  0.74498626704E+03  0.51100000000E-03 0. -1.
         22    1    1    2    0    0  0.43587780691E+02  0.29162695334E+01  0.13218543622E+03  0.13921705644E+03  0.00000000000E+00 0.  1.
         -2    1    1    2    0  501  0.23811848231E+03 -0.11683624048E+03  0.35776927737E+02  0.26763988356E+03  0.25500000000E-02 0.  1.
<mgrwt>
<rscale>  0 0.27190793E+03</rscale>
<asrwt>0</asrwt>
<pdfrwt beam="1">  1       11 0.10000000E+01 0.43685229E+02</pdfrwt>
<pdfrwt beam="2">  1       -2 0.23360306E-01 0.27190793E+03</pdfrwt>
<totfact> 0.12893749E+02</totfact>
</mgrwt>
</event>
<event>
 5    1  0.1113889E-003  0.2143672E+03  0.7818608E-02  0.1138154E+00
         11   -1    0    0    0    0  0.00000000000E+00  0.00000000000E+00  0.10001484934E+04  0.10001484934E+04  0.51100000000E-03 0. -1.
          2   -1    0    0  501    0 -0.00000000000E+00 -0.00000000000E+00 -0.79637769015E+03  0.79637769015E+03  0.25500000000E-02 0. -1.
         11    1    1    2    0    0 -0.19404576978E+02  0.20946516865E+03  0.90502084567E+03  0.92914741865E+03  0.51100000000E-03 0. -1.
         22    1    1    2    0    0 -0.11211045786E+02  0.27735496128E+01  0.67910794797E+02  0.68885819840E+02  0.00000000000E+00 0.  1.
          2    1    1    2  501    0  0.30615622764E+02 -0.21223871827E+03 -0.76916083719E+03  0.79849294509E+03  0.25500000000E-02 0. -1.
<mgrwt>
<rscale>  0 0.21436718E+03</rscale>
<asrwt>0</asrwt>
<pdfrwt beam="1">  1       11 0.10000000E+01 0.11549031E+02</pdfrwt>
<pdfrwt beam="2">  1        2 0.12253783E+00 0.21436718E+03</pdfrwt>
<totfact> 0.44949465E+01</totfact>
</mgrwt>
</event>
<event>
 5    1  0.6729100E-004  0.2458968E+03  0.7818608E-02  0.1120240E+00
         11   -1    0    0    0    0  0.00000000000E+00  0.00000000000E+00  0.10000664032E+04  0.10000664032E+04  0.51100000000E-03 0.  1.
          2   -1    0    0  501    0 -0.00000000000E+00 -0.00000000000E+00 -0.64367149282E+02  0.64367149333E+02  0.25500000000E-02 0.  1.
         11    1    1    2    0    0 -0.20532320782E+03  0.68119976653E+02  0.51649978737E+03  0.55997319689E+03  0.51100000000E-03 0.  1.
         22    1    1    2    0    0 -0.25251887050E+02 -0.39826424674E+01  0.11284256001E+03  0.11570204229E+03  0.00000000000E+00 0.  1.
          2    1    1    2  501    0  0.23057509487E+03 -0.64137334186E+02  0.30635690658E+03  0.38875831339E+03  0.25500000000E-02 0.  1.
<mgrwt>
<rscale>  0 0.23932921E+03</rscale>
<asrwt>0</asrwt>
<pdfrwt beam="1">  1       11 0.10000000E+01 0.24589680E+03</pdfrwt>
<pdfrwt beam="2">  1        2 0.99032956E-02 0.23932921E+03</pdfrwt>
<totfact> 0.79325325E+02</totfact>
</mgrwt>
</event>
<event>
 5    1  0.6729100E-004  0.2780577E+03  0.7818608E-02  0.1224685E+00
         11   -1    0    0    0    0  0.00000000000E+00  0.00000000000E+00  0.10013365415E+04  0.10013365415E+04  0.51100000000E-03 0. -1.
          2   -1    0    0  501    0 -0.00000000000E+00 -0.00000000000E+00 -0.18197365995E+04  0.18197365995E+04  0.25500000000E-02 0. -1.
         11    1    1    2    0    0  0.46903540191E+02  0.39300189816E+03  0.16270994373E+02  0.39612520659E+03  0.51100000000E-03 0. -1.
         22    1    1    2    0    0 -0.21961961544E+02 -0.26349645253E+03  0.77037744960E+03  0.81449010006E+03  0.00000000000E+00 0. -1.
          2    1    1    2  501    0 -0.24941578647E+02 -0.12950544564E+03 -0.16050485020E+04  0.16104578344E+04  0.25500000000E-02 0. -1.
<mgrwt>
<rscale>  0 0.13188534E+03</rscale>
<asrwt>0</asrwt>
<pdfrwt beam="1">  1       11 0.10000000E+01 0.27805768E+03</pdfrwt>
<pdfrwt beam="2">  1        2 0.28033365E+00 0.13188534E+03</pdfrwt>
<totfact> 0.12347777E+01</totfact>
</mgrwt>
</event>
<event>
 5    1  0.6729100E-004  0.1339421E+03  0.7818608E-02  0.1629552E+00
         11   -1    0    0    0    0  0.00000000000E+00  0.00000000000E+00  0.10001951540E+04  0.10001951540E+04  0.51100000000E-03 0. -1.
         -2   -1    0    0    0  501 -0.00000000000E+00 -0.00000000000E+00 -0.86727885446E+03  0.86727885446E+03  0.25500000000E-02 0.  1.
         11    1    1    2    0    0  0.36516230648E+02 -0.13706390104E+03  0.52492826947E+03  0.54375512518E+03  0.51100000000E-03 0. -1.
         22    1    1    2    0    0 -0.53640843454E+02  0.11575653633E+03  0.45689432424E+03  0.47437257437E+03  0.00000000000E+00 0. -1.
         -2    1    1    2    0  501  0.17124612805E+02  0.21307364706E+02 -0.84890629418E+03  0.84934630891E+03  0.25500000000E-02 0.  1.
<mgrwt>
<rscale>  0 0.27335987E+02</rscale>
<asrwt>0</asrwt>
<pdfrwt beam="1">  1       11 0.10000000E+01 0.13394214E+03</pdfrwt>
<pdfrwt beam="2">  1       -2 0.13345355E+00 0.27335987E+02</pdfrwt>
<totfact> 0.38022292E+00</totfact>
</mgrwt>
</event>
<event>
 5    1  0.6729100E-004  0.1049280E+03  0.7818608E-02  0.1618007E+00
         11   -1    0    0    0    0  0.00000000000E+00  0.00000000000E+00  0.99992140844E+03  0.99992140844E+03  0.51100000000E-03 0. -1.
          2   -1    0    0  501    0 -0.00000000000E+00 -0.00000000000E+00 -0.10647984738E+03  0.10647984741E+03  0.25500000000E-02 0.  1.
         11    1    1    2    0    0 -0.86832611761E+02 -0.84565392003E+02  0.54807558695E+03  0.56131814241E+03  0.51100000000E-03 0. -1.
         22    1    1    2    0    0  0.67076037820E+02  0.64341182724E+02  0.43824673000E+03  0.44799461938E+03  0.00000000000E+00 0.  1.
          2    1    1    2  501    0  0.19756573941E+02  0.20224209279E+02 -0.92880755892E+02  0.97088494047E+02  0.25500000000E-02 0.  1.
<mgrwt>
<rscale>  0 0.28272617E+02</rscale>
<asrwt>0</asrwt>
<pdfrwt beam="1">  1       11 0.10000000E+01 0.10492804E+03</pdfrwt>
<pdfrwt beam="2">  1        2 0.16380227E-01 0.28272617E+02</pdfrwt>
<totfact> 0.38965885E+02</totfact>
</mgrwt>
</event>
<event>
 5    1  0.6729100E-004  0.2783832E+03  0.7818608E-02  0.1147548E+00
         11   -1    0    0    0    0  0.00000000000E+00  0.00000000000E+00  0.10000664426E+04  0.10000664426E+04  0.51100000000E-03 0. -1.
          2   -1    0    0  501    0 -0.00000000000E+00 -0.00000000000E+00 -0.76732938687E+03  0.76732938687E+03  0.25500000000E-02 0. -1.
         11    1    1    2    0    0 -0.11939770465E+03 -0.28923714543E+03  0.75598203835E+03  0.81818260827E+03  0.51100000000E-03 0. -1.
         22    1    1    2    0    0  0.21431680367E+03  0.11022658502E+03  0.12397450019E+03  0.27101894598E+03  0.00000000000E+00 0. -1.
          2    1    1    2  501    0 -0.94919099024E+02  0.17901056041E+03 -0.64721948278E+03  0.67819427526E+03  0.25500000000E-02 0. -1.
<mgrwt>
<rscale>  0 0.20261889E+03</rscale>
<asrwt>0</asrwt>
<pdfrwt beam="1">  1       11 0.10000000E+01 0.27838323E+03</pdfrwt>
<pdfrwt beam="2">  1        2 0.11805852E+00 0.20261889E+03</pdfrwt>
<totfact> 0.47193547E+01</totfact>
</mgrwt>
</event>
<event>
 5    1  0.6729100E-004  0.2452883E+03  0.7818608E-02  0.1119950E+00
         11   -1    0    0    0    0  0.00000000000E+00  0.00000000000E+00  0.10000642793E+04  0.10000642793E+04  0.51100000000E-03 0.  1.
          2   -1    0    0  501    0 -0.00000000000E+00 -0.00000000000E+00 -0.20021236992E+03  0.20021236993E+03  0.25500000000E-02 0.  1.
         11    1    1    2    0    0  0.13271758603E+03  0.17654049865E+03  0.85363719926E+03  0.88174654707E+03  0.51100000000E-03 0.  1.
         22    1    1    2    0    0  0.20782616690E+02  0.76453422140E+01  0.51960626480E+02  0.56482520466E+02  0.00000000000E+00 0. -1.
          2    1    1    2  501    0 -0.15350020272E+03 -0.18418584087E+03 -0.10574591639E+03  0.26204758166E+03  0.25500000000E-02 0.  1.
<mgrwt>
<rscale>  0 0.23976392E+03</rscale>
<asrwt>0</asrwt>
<pdfrwt beam="1">  1       11 0.10000000E+01 0.24528832E+03</pdfrwt>
<pdfrwt beam="2">  1        2 0.30803882E-01 0.23976392E+03</pdfrwt>
<totfact> 0.21048150E+02</totfact>
</mgrwt>
</event>
<event>
 5    1  0.6729100E-004  0.3736110E+03  0.7818608E-02  0.1053321E+00
         11   -1    0    0    0    0  0.00000000000E+00  0.00000000000E+00  0.10002387420E+04  0.10002387420E+04  0.51100000000E-03 0. -1.
          2   -1    0    0  501    0 -0.00000000000E+00 -0.00000000000E+00 -0.86113269183E+03  0.86113269183E+03  0.25500000000E-02 0. -1.
         11    1    1    2    0    0  0.35955543254E+03 -0.70188598980E+02  0.77049096537E+03  0.85314880075E+03  0.51100000000E-03 0. -1.
         22    1    1    2    0    0  0.14700342275E+02  0.64967093945E+02  0.13766112915E+03  0.15292942764E+03  0.00000000000E+00 0. -1.
          2    1    1    2  501    0 -0.37425577482E+03  0.52215050348E+01 -0.76904604430E+03  0.85529320549E+03  0.25500000000E-02 0. -1.
<mgrwt>
<rscale>  0 0.37361095E+03</rscale>
<asrwt>0</asrwt>
<pdfrwt beam="1">  1       11 0.10000000E+01 0.66609484E+02</pdfrwt>
<pdfrwt beam="2">  1        2 0.13251358E+00 0.37361095E+03</pdfrwt>
<totfact> 0.39759828E+01</totfact>
</mgrwt>
</event>
<event>
 5    1  0.6729100E-004  0.2450417E+03  0.7818608E-02  0.1116479E+00
         11   -1    0    0    0    0  0.00000000000E+00  0.00000000000E+00  0.10003120170E+04  0.10003120170E+04  0.51100000000E-03 0. -1.
          2   -1    0    0  501    0 -0.00000000000E+00 -0.00000000000E+00 -0.76123406009E+02  0.76123406052E+02  0.25500000000E-02 0. -1.
         11    1    1    2    0    0 -0.15913804638E+03  0.18097543328E+03  0.20413700058E+03  0.31583055625E+03  0.51100000000E-03 0. -1.
         22    1    1    2    0    0  0.14929377137E+02 -0.63879213707E+01  0.81210532561E+02  0.82818128691E+02  0.00000000000E+00 0. -1.
          2    1    1    2  501    0  0.14420866924E+03 -0.17458751191E+03  0.63884107783E+03  0.67778673809E+03  0.25500000000E-02 0. -1.
<mgrwt>
<rscale>  0 0.24504171E+03</rscale>
<asrwt>0</asrwt>
<pdfrwt beam="1">  1       11 0.10000000E+01 0.24099187E+03</pdfrwt>
<pdfrwt beam="2">  1        2 0.11714947E-01 0.24504171E+03</pdfrwt>
<totfact> 0.64518587E+02</totfact>
</mgrwt>
</event>
<event>
 5    1  0.6729100E-004  0.2210564E+03  0.7818608E-02  0.1133098E+00
         11   -1    0    0    0    0  0.00000000000E+00  0.00000000000E+00  0.10003112902E+04  0.10003112902E+04  0.51100000000E-03 0.  1.
          2   -1    0    0  501    0 -0.00000000000E+00 -0.00000000000E+00 -0.29213910451E+03  0.29213910452E+03  0.25500000000E-02 0.  1.
         11    1    1    2    0    0  0.20973512170E+03 -0.17838975310E+03  0.57204124035E+03  0.63485660266E+03  0.51100000000E-03 0.  1.
         22    1    1    2    0    0 -0.75337232428E+02  0.76402498080E+01  0.34678123974E+03  0.35495253238E+03  0.00000000000E+00 0.  1.
          2    1    1    2  501    0 -0.13439788927E+03  0.17074950329E+03 -0.21065029440E+03  0.30264125967E+03  0.25500000000E-02 0.  1.
<mgrwt>
<rscale>  0 0.22105637E+03</rscale>
<asrwt>0</asrwt>
<pdfrwt beam="1">  1       11 0.10000000E+01 0.75723656E+02</pdfrwt>
<pdfrwt beam="2">  1        2 0.44958467E-01 0.22105637E+03</pdfrwt>
<totfact> 0.13954434E+02</totfact>
</mgrwt>
</event>
<event>
 5    1  0.6729100E-004  0.1684390E+03  0.7818608E-02  0.1254579E+00
         11   -1    0    0    0    0  0.00000000000E+00  0.00000000000E+00  0.10001649686E+04  0.10001649686E+04  0.51100000000E-03 0. -1.
          2   -1    0    0  501    0 -0.00000000000E+00 -0.00000000000E+00 -0.56498111178E+02  0.56498111236E+02  0.25500000000E-02 0. -1.
         11    1    1    2    0    0  0.18468554001E+03 -0.36716809065E+02  0.50854743873E+03  0.54228900984E+03  0.51100000000E-03 0. -1.
         22    1    1    2    0    0 -0.14515927634E+03 -0.69464339075E+02  0.24857433225E+03  0.29611772754E+03  0.00000000000E+00 0. -1.
          2    1    1    2  501    0 -0.39526263668E+02  0.10618114814E+03  0.18654508647E+03  0.21825634248E+03  0.25500000000E-02 0. -1.
<mgrwt>
<rscale>  0 0.11329943E+03</rscale>
<asrwt>0</asrwt>
<pdfrwt beam="1">  1       11 0.10000000E+01 0.16843903E+03</pdfrwt>
<pdfrwt beam="2">  1        2 0.86934508E-02 0.11329943E+03</pdfrwt>
<totfact> 0.89413302E+02</totfact>
</mgrwt>
</event>
<event>
 5    1  0.6729100E-004  0.1809863E+03  0.7818608E-02  0.1166852E+00
         11   -1    0    0    0    0  0.00000000000E+00  0.00000000000E+00  0.99999681849E+03  0.99999681849E+03  0.51100000000E-03 0. -1.
         -2   -1    0    0    0  501 -0.00000000000E+00 -0.00000000000E+00 -0.75192327083E+02  0.75192327126E+02  0.25500000000E-02 0. -1.
         11    1    1    2    0    0 -0.46960339573E+02 -0.24124109507E+03  0.58039498061E+03  0.63028634204E+03  0.51100000000E-03 0. -1.
         22    1    1    2    0    0  0.11125521245E+02  0.80888368149E+02  0.23166603296E+03  0.24563358108E+03  0.00000000000E+00 0. -1.
         -2    1    1    2    0  501  0.35834818328E+02  0.16035272692E+03  0.11274347784E+03  0.19926922250E+03  0.25500000000E-02 0. -1.
<mgrwt>
<rscale>  0 0.18098628E+03</rscale>
<asrwt>0</asrwt>
<pdfrwt beam="1">  1       11 0.10000000E+01 0.81649895E+02</pdfrwt>
<pdfrwt beam="2">  1       -2 0.11568013E-01 0.18098628E+03</pdfrwt>
<totfact> 0.41165239E+02</totfact>
</mgrwt>
</event>
<event>
 5    1  0.6729100E-004  0.2653459E+03  0.7818608E-02  0.1103973E+00
         11   -1    0    0    0    0  0.00000000000E+00  0.00000000000E+00  0.10003766694E+04  0.10003766694E+04  0.51100000000E-03 0. -1.
          2   -1    0    0  501    0 -0.00000000000E+00 -0.00000000000E+00 -0.92958664048E+02  0.92958664083E+02  0.25500000000E-02 0. -1.
         11    1    1    2    0    0  0.25864083703E+03  0.55553656471E+02  0.21305068814E+03  0.33966437412E+03  0.51100000000E-03 0. -1.
         22    1    1    2    0    0  0.62886826693E+01 -0.17761923626E+02  0.10107676231E+03  0.10281802050E+03  0.00000000000E+00 0. -1.
          2    1    1    2  501    0 -0.26492951970E+03 -0.37791732845E+02  0.59329055488E+03  0.65085293884E+03  0.25500000000E-02 0. -1.
<mgrwt>
<rscale>  0 0.26534595E+03</rscale>
<asrwt>0</asrwt>
<pdfrwt beam="1">  1       11 0.10000000E+01 0.18842332E+02</pdfrwt>
<pdfrwt beam="2">  1        2 0.14306719E-01 0.26534595E+03</pdfrwt>
<totfact> 0.50800185E+02</totfact>
</mgrwt>
</event>
<event>
 5    1  0.6729100E-004  0.9720428E+02  0.7818608E-02  0.1695869E+00
         11   -1    0    0    0    0  0.00000000000E+00  0.00000000000E+00  0.10004611388E+04  0.10004611388E+04  0.51100000000E-03 0. -1.
         -2   -1    0    0    0  501 -0.00000000000E+00 -0.00000000000E+00 -0.80145520158E+02  0.80145520199E+02  0.25500000000E-02 0.  1.
         11    1    1    2    0    0 -0.38598346652E+02  0.79877357714E+02  0.45604954186E+03  0.46459811587E+03  0.51100000000E-03 0. -1.
         22    1    1    2    0    0  0.58123250072E+02 -0.91521358161E+02  0.53284333734E+03  0.54376143054E+03  0.00000000000E+00 0. -1.
         -2    1    1    2    0  501 -0.19524903419E+02  0.11644000447E+02 -0.68577260575E+02  0.72247112568E+02  0.25500000000E-02 0.  1.
<mgrwt>
<rscale>  0 0.22733337E+02</rscale>
<asrwt>0</asrwt>
<pdfrwt beam="1">  1       11 0.10000000E+01 0.97204278E+02</pdfrwt>
<pdfrwt beam="2">  1       -2 0.12335766E-01 0.22733337E+02</pdfrwt>
<totfact> 0.32229087E+02</totfact>
</mgrwt>
</event>
<event>
 5    1  0.6729100E-004  0.2252687E+03  0.7818608E-02  0.1130015E+00
         11   -1    0    0    0    0  0.00000000000E+00  0.00000000000E+00  0.10001217440E+04  0.10001217440E+04  0.51100000000E-03 0. -1.
          2   -1    0    0  501    0 -0.00000000000E+00 -0.00000000000E+00 -0.83741325215E+02  0.83741325254E+02  0.25500000000E-02 0. -1.
         11    1    1    2    0    0  0.91638326326E+02 -0.19908904436E+03  0.14123927529E+03  0.26073466075E+03  0.51100000000E-03 0. -1.
         22    1    1    2    0    0  0.20275317307E+02 -0.19972384284E+02  0.11994270203E+03  0.12327301569E+03  0.00000000000E+00 0. -1.
          2    1    1    2  501    0 -0.11191364363E+03  0.21906142864E+03  0.65519844151E+03  0.69985539285E+03  0.25500000000E-02 0. -1.
<mgrwt>
<rscale>  0 0.22526865E+03</rscale>
<asrwt>0</asrwt>
<pdfrwt beam="1">  1       11 0.10000000E+01 0.28460229E+02</pdfrwt>
<pdfrwt beam="2">  1        2 0.12884849E-01 0.22526865E+03</pdfrwt>
<totfact> 0.57256781E+02</totfact>
</mgrwt>
</event>
<event>
 5    1  0.6729100E-004  0.1407112E+03  0.7818608E-02  0.1212375E+00
         11   -1    0    0    0    0  0.00000000000E+00  0.00000000000E+00  0.10001807090E+04  0.10001807090E+04  0.51100000000E-03 0. -1.
          2   -1    0    0  501    0 -0.00000000000E+00 -0.00000000000E+00 -0.20046548440E+02  0.20046548602E+02  0.25500000000E-02 0. -1.
         11    1    1    2    0    0 -0.34272647513E+02 -0.13429310998E+03  0.40221794035E+03  0.42542746185E+03  0.51100000000E-03 0. -1.
         22    1    1    2    0    0  0.11328119833E+02  0.23234837248E+02  0.77592378791E+02  0.81784847052E+02  0.00000000000E+00 0. -1.
          2    1    1    2  501    0  0.22944527681E+02  0.11105827273E+03  0.50032384139E+03  0.51301494867E+03  0.25500000000E-02 0. -1.
<mgrwt>
<rscale>  0 0.14071119E+03</rscale>
<asrwt>0</asrwt>
<pdfrwt beam="1">  1       11 0.10000000E+01 0.13859752E+03</pdfrwt>
<pdfrwt beam="2">  1        2 0.30846416E-02 0.14071119E+03</pdfrwt>
<totfact> 0.34880705E+03</totfact>
</mgrwt>
</event>
<event>
 5    1  0.6729100E-004  0.2149799E+03  0.7818608E-02  0.1137682E+00
         11   -1    0    0    0    0  0.00000000000E+00  0.00000000000E+00  0.10001488791E+04  0.10001488791E+04  0.51100000000E-03 0. -1.
          2   -1    0    0  501    0 -0.00000000000E+00 -0.00000000000E+00 -0.13047521211E+03  0.13047521213E+03  0.25500000000E-02 0. -1.
         11    1    1    2    0    0  0.18096257309E+03 -0.11442549628E+03 -0.16023928686E+02  0.21470308183E+03  0.51100000000E-03 0. -1.
         22    1    1    2    0    0  0.39245534054E+01 -0.93405975283E+01  0.56064585802E+02  0.56972683479E+02  0.00000000000E+00 0.  1.
          2    1    1    2  501    0 -0.18488712649E+03  0.12376609381E+03  0.82963300984E+03  0.85894832588E+03  0.25500000000E-02 0. -1.
<mgrwt>
<rscale>  0 0.21497988E+03</rscale>
<asrwt>0</asrwt>
<pdfrwt beam="1">  1       11 0.10000000E+01 0.10131578E+02</pdfrwt>
<pdfrwt beam="2">  1        2 0.20076097E-01 0.21497988E+03</pdfrwt>
<totfact> 0.33923582E+02</totfact>
</mgrwt>
</event>
<event>
 5    1  0.6729100E-004  0.3487228E+03  0.7818608E-02  0.1063140E+00
         11   -1    0    0    0    0  0.00000000000E+00  0.00000000000E+00  0.10003738988E+04  0.10003738988E+04  0.51100000000E-03 0.  1.
          2   -1    0    0  501    0 -0.00000000000E+00 -0.00000000000E+00 -0.10441060911E+04  0.10441060911E+04  0.25500000000E-02 0.  1.
         11    1    1    2    0    0  0.17850527007E+03  0.26922800291E+03  0.92247105994E+03  0.97739485645E+03  0.51100000000E-03 0.  1.
         22    1    1    2    0    0  0.15263341400E+02  0.21690647462E+02  0.11401757972E+02  0.28869601016E+02  0.00000000000E+00 0.  1.
          2    1    1    2  501    0 -0.19376861147E+03 -0.29091865037E+03 -0.97760501021E+03  0.10382155325E+04  0.25500000000E-02 0.  1.
<mgrwt>
<rscale>  0 0.34872275E+03</rscale>
<asrwt>0</asrwt>
<pdfrwt beam="1">  1       11 0.10000000E+01 0.26522703E+02</pdfrwt>
<pdfrwt beam="2">  1        2 0.16069176E+00 0.34872275E+03</pdfrwt>
<totfact> 0.30473655E+01</totfact>
</mgrwt>
</event>
<event>
 5    1  0.6729100E-004  0.1339556E+03  0.7818608E-02  0.1553679E+00
         11   -1    0    0    0    0  0.00000000000E+00  0.00000000000E+00  0.10004617807E+04  0.10004617807E+04  0.51100000000E-03 0. -1.
          2   -1    0    0  501    0 -0.00000000000E+00 -0.00000000000E+00 -0.14876431696E+04  0.14876431696E+04  0.25500000000E-02 0. -1.
         11    1    1    2    0    0 -0.52858914558E+02  0.13586581688E+03  0.50242400952E+03  0.52314765639E+03  0.51100000000E-03 0. -1.
         22    1    1    2    0    0  0.68945244441E+02 -0.10541959956E+03  0.47933695328E+03  0.49561139362E+03  0.00000000000E+00 0. -1.
          2    1    1    2  501    0 -0.16086329883E+02 -0.30446217320E+02 -0.14689423517E+04  0.14693459003E+04  0.25500000000E-02 0. -1.
<mgrwt>
<rscale>  0 0.34434607E+02</rscale>
<asrwt>0</asrwt>
<pdfrwt beam="1">  1       11 0.10000000E+01 0.13395565E+03</pdfrwt>
<pdfrwt beam="2">  1        2 0.22897386E+00 0.34434607E+02</pdfrwt>
<totfact> 0.20508622E+01</totfact>
</mgrwt>
</event>
<event>
 5    1  0.6729100E-004  0.1044520E+03  0.7818608E-02  0.1469840E+00
         11   -1    0    0    0    0  0.00000000000E+00  0.00000000000E+00  0.10002282072E+04  0.10002282072E+04  0.51100000000E-03 0. -1.
          2   -1    0    0  501    0 -0.00000000000E+00 -0.00000000000E+00 -0.85087050909E+02  0.85087050947E+02  0.25500000000E-02 0. -1.
         11    1    1    2    0    0 -0.11196558003E+03  0.45827039584E+02  0.68514867089E+03  0.69574787811E+03  0.51100000000E-03 0. -1.
         22    1    1    2    0    0  0.86967072118E+02 -0.75354959326E+01  0.29637237066E+03  0.30896057584E+03  0.00000000000E+00 0.  1.
          2    1    1    2  501    0  0.24998507914E+02 -0.38291543652E+02 -0.66379885248E+02  0.80606804212E+02  0.25500000000E-02 0. -1.
<mgrwt>
<rscale>  0 0.45729287E+02</rscale>
<asrwt>0</asrwt>
<pdfrwt beam="1">  1       11 0.10000000E+01 0.10445203E+03</pdfrwt>
<pdfrwt beam="2">  1        2 0.13093302E-01 0.45729287E+02</pdfrwt>
<totfact> 0.51697291E+02</totfact>
</mgrwt>
</event>
<event>
 5    1  0.6729100E-004  0.1267134E+03  0.7818608E-02  0.1395626E+00
         11   -1    0    0    0    0  0.00000000000E+00  0.00000000000E+00  0.99989699122E+03  0.99989699122E+03  0.51100000000E-03 0. -1.
          2   -1    0    0  501    0 -0.00000000000E+00 -0.00000000000E+00 -0.12055565095E+04  0.12055565095E+04  0.25500000000E-02 0. -1.
         11    1    1    2    0    0 -0.58887688345E+02  0.13811283901E+03  0.67795450148E+03  0.69438117934E+03  0.51100000000E-03 0. -1.
         22    1    1    2    0    0  0.69563858448E+02 -0.78533093955E+02  0.30416616083E+03  0.32175088290E+03  0.00000000000E+00 0. -1.
          2    1    1    2  501    0 -0.10676170103E+02 -0.59579745054E+02 -0.11877801806E+04  0.11893214385E+04  0.25500000000E-02 0. -1.
<mgrwt>
<rscale>  0 0.60528726E+02</rscale>
<asrwt>0</asrwt>
<pdfrwt beam="1">  1       11 0.10000000E+01 0.12671342E+03</pdfrwt>
<pdfrwt beam="2">  1        2 0.18545112E+00 0.60528726E+02</pdfrwt>
<totfact> 0.27285382E+01</totfact>
</mgrwt>
</event>
<event>
 5    1  0.6729100E-004  0.1782411E+03  0.7818608E-02  0.1169516E+00
         11   -1    0    0    0    0  0.00000000000E+00  0.00000000000E+00  0.10005139821E+04  0.10005139821E+04  0.51100000000E-03 0. -1.
          2   -1    0    0  501    0 -0.00000000000E+00 -0.00000000000E+00 -0.49667733427E+02  0.49667733492E+02  0.25500000000E-02 0. -1.
         11    1    1    2    0    0 -0.88808300070E+02 -0.14917305223E+03  0.54902981765E+03  0.57582397861E+03  0.51100000000E-03 0. -1.
         22    1    1    2    0    0 -0.44947498936E+02  0.24903702905E+02  0.17934309605E+03  0.18655942265E+03  0.00000000000E+00 0.  1.
          2    1    1    2  501    0  0.13375579901E+03  0.12426934933E+03  0.22247333497E+03  0.28779831432E+03  0.25500000000E-02 0. -1.
<mgrwt>
<rscale>  0 0.17824109E+03</rscale>
<asrwt>0</asrwt>
<pdfrwt beam="1">  1       11 0.10000000E+01 0.51385524E+02</pdfrwt>
<pdfrwt beam="2">  1        2 0.76451170E-02 0.17824109E+03</pdfrwt>
<totfact> 0.10810584E+03</totfact>
</mgrwt>
</event>
<event>
 5    1  0.6729100E-004  0.4040631E+03  0.7818608E-02  0.1042382E+00
         11   -1    0    0    0    0  0.00000000000E+00  0.00000000000E+00  0.10001869946E+04  0.10001869946E+04  0.51100000000E-03 0. -1.
          2   -1    0    0  501    0 -0.00000000000E+00 -0.00000000000E+00 -0.42203082860E+03  0.42203082861E+03  0.25500000000E-02 0. -1.
         11    1    1    2    0    0  0.56763476124E+02  0.38347443971E+03  0.63165946768E+03  0.74112645428E+03  0.51100000000E-03 0. -1.
         22    1    1    2    0    0  0.59376432198E+02  0.69780770417E+01  0.19497148030E+03  0.20393168559E+03  0.00000000000E+00 0.  1.
          2    1    1    2  501    0 -0.11613990832E+03 -0.39045251675E+03 -0.24847478195E+03  0.47715968335E+03  0.25500000000E-02 0. -1.
<mgrwt>
<rscale>  0 0.40406305E+03</rscale>
<asrwt>0</asrwt>
<pdfrwt beam="1">  1       11 0.10000000E+01 0.59785067E+02</pdfrwt>
<pdfrwt beam="2">  1        2 0.64939959E-01 0.40406305E+03</pdfrwt>
<totfact> 0.93207431E+01</totfact>
</mgrwt>
</event>
<event>
 5    1  0.6729100E-004  0.9699207E+02  0.7818608E-02  0.1494128E+00
         11   -1    0    0    0    0  0.00000000000E+00  0.00000000000E+00  0.10000397228E+04  0.10000397228E+04  0.51100000000E-03 0. -1.
          2   -1    0    0  501    0 -0.00000000000E+00 -0.00000000000E+00 -0.23104218199E+03  0.23104218200E+03  0.25500000000E-02 0. -1.
         11    1    1    2    0    0  0.73929490897E+02  0.87889327535E+02  0.58894359259E+03  0.60003721449E+03  0.51100000000E-03 0. -1.
         22    1    1    2    0    0 -0.71044910184E+02 -0.46008717866E+02  0.39911812102E+03  0.40799443122E+03  0.00000000000E+00 0.  1.
          2    1    1    2  501    0 -0.28845807136E+01 -0.41880609669E+02 -0.21906417279E+03  0.22305025909E+03  0.25500000000E-02 0. -1.
<mgrwt>
<rscale>  0 0.41979832E+02</rscale>
<asrwt>0</asrwt>
<pdfrwt beam="1">  1       11 0.10000000E+01 0.96992066E+02</pdfrwt>
<pdfrwt beam="2">  1        2 0.35546362E-01 0.41979832E+02</pdfrwt>
<totfact> 0.17491517E+02</totfact>
</mgrwt>
</event>
<event>
 5    1  0.6729100E-004  0.7588464E+02  0.7818608E-02  0.1341153E+00
         11   -1    0    0    0    0  0.00000000000E+00  0.00000000000E+00  0.10001303810E+04  0.10001303810E+04  0.51100000000E-03 0.  1.
          2   -1    0    0  501    0 -0.00000000000E+00 -0.00000000000E+00 -0.12427376061E+02  0.12427376322E+02  0.25500000000E-02 0.  1.
         11    1    1    2    0    0 -0.79715079430E+02 -0.29766962176E+01  0.15803720575E+03  0.17702856552E+03  0.51100000000E-03 0.  1.
         22    1    1    2    0    0  0.21066059045E+02 -0.21163367612E+02  0.15223351635E+03  0.15513449156E+03  0.00000000000E+00 0.  1.
          2    1    1    2  501    0  0.58649020384E+02  0.24140063830E+02  0.67743228286E+03  0.68039470026E+03  0.25500000000E-02 0.  1.
<mgrwt>
<rscale>  0 0.75884639E+02</rscale>
<asrwt>0</asrwt>
<pdfrwt beam="1">  1       11 0.10000000E+01 0.29860793E+02</pdfrwt>
<pdfrwt beam="2">  1        2 0.19121533E-02 0.75884639E+02</pdfrwt>
<totfact> 0.61685967E+03</totfact>
</mgrwt>
</event>
<event>
 5    1  0.6729100E-004  0.2023200E+03  0.7818608E-02  0.1147796E+00
         11   -1    0    0    0    0  0.00000000000E+00  0.00000000000E+00  0.99977177930E+03  0.99977177930E+03  0.51100000000E-03 0. -1.
         -2   -1    0    0    0  501 -0.00000000000E+00 -0.00000000000E+00 -0.43655326367E+03  0.43655326368E+03  0.25500000000E-02 0.  1.
         11    1    1    2    0    0 -0.19064210458E+03 -0.80766851415E+01  0.78599580568E+03  0.80882572376E+03  0.51100000000E-03 0. -1.
         22    1    1    2    0    0 -0.77116331004E+01 -0.33906351182E+02  0.17639421327E+03  0.17978884395E+03  0.00000000000E+00 0. -1.
         -2    1    1    2    0  501  0.19835373768E+03  0.41983036323E+02 -0.39917150332E+03  0.44771047526E+03  0.25500000000E-02 0.  1.
<mgrwt>
<rscale>  0 0.20232001E+03</rscale>
<asrwt>0</asrwt>
<pdfrwt beam="1">  1       11 0.10000000E+01 0.34772258E+02</pdfrwt>
<pdfrwt beam="2">  1       -2 0.67146711E-01 0.20232001E+03</pdfrwt>
<totfact> 0.16994624E+01</totfact>
</mgrwt>
</event>
<event>
 5    1  0.6729100E-004  0.1192391E+03  0.7818608E-02  0.1244358E+00
         11   -1    0    0    0    0  0.00000000000E+00  0.00000000000E+00  0.10001354356E+04  0.10001354356E+04  0.51100000000E-03 0.  1.
          2   -1    0    0  501    0 -0.00000000000E+00 -0.00000000000E+00 -0.33793482594E+02  0.33793482691E+02  0.25500000000E-02 0.  1.
         11    1    1    2    0    0  0.69252722481E+02 -0.11216576348E+03  0.75947296369E+03  0.77082830815E+03  0.51100000000E-03 0.  1.
         22    1    1    2    0    0  0.13471954905E+02  0.28688970324E+02  0.97639576200E+02  0.10265494351E+03  0.00000000000E+00 0.  1.
          2    1    1    2  501    0 -0.82724677386E+02  0.83476793159E+02  0.10922941313E+03  0.16044566664E+03  0.25500000000E-02 0.  1.
<mgrwt>
<rscale>  0 0.11923908E+03</rscale>
<asrwt>0</asrwt>
<pdfrwt beam="1">  1       11 0.10000000E+01 0.31694646E+02</pdfrwt>
<pdfrwt beam="2">  1        2 0.51997013E-02 0.11923908E+03</pdfrwt>
<totfact> 0.17229243E+03</totfact>
</mgrwt>
</event>
<event>
 5    1  0.6729100E-004  0.5753495E+02  0.7818608E-02  0.1408478E+00
         11   -1    0    0    0    0  0.00000000000E+00  0.00000000000E+00  0.10004252442E+04  0.10004252442E+04  0.51100000000E-03 0.  1.
          2   -1    0    0  501    0 -0.00000000000E+00 -0.00000000000E+00 -0.33866104195E+02  0.33866104291E+02  0.25500000000E-02 0.  1.
         11    1    1    2    0    0 -0.11878301914E+01  0.57268205853E+02 -0.63605354468E+01  0.57632584131E+02  0.51100000000E-03 0.  1.
         22    1    1    2    0    0 -0.11478359466E+02  0.87887958750E+01  0.87324730236E+02  0.88513299452E+02  0.00000000000E+00 0.  1.
          2    1    1    2  501    0  0.12666189658E+02 -0.66057001728E+02  0.88559494521E+03  0.88814546490E+03  0.25500000000E-02 0.  1.
<mgrwt>
<rscale>  0 0.57534945E+02</rscale>
<asrwt>0</asrwt>
<pdfrwt beam="1">  1       11 0.10000000E+01 0.14456683E+02</pdfrwt>
<pdfrwt beam="2">  1        2 0.52123853E-02 0.57534945E+02</pdfrwt>
<totfact> 0.16065083E+03</totfact>
</mgrwt>
</event>
<event>
 5    1  0.7617061E-004  0.1370028E+03  0.7818608E-02  0.1281007E+00
         11   -1    0    0    0    0  0.00000000000E+00  0.00000000000E+00  0.10000696556E+04  0.10000696556E+04  0.51100000000E-03 0. -1.
          2   -1    0    0  501    0 -0.00000000000E+00 -0.00000000000E+00 -0.28350322971E+04  0.28350322971E+04  0.25500000000E-02 0. -1.
         11    1    1    2    0    0 -0.10883040275E+03  0.10474366177E+03  0.81002054422E+03  0.82398335742E+03  0.51100000000E-03 0. -1.
         22    1    1    2    0    0  0.12050836486E+03 -0.57675584874E+01  0.16220968039E+03  0.20215714468E+03  0.00000000000E+00 0.  1.
          2    1    1    2  501    0 -0.11677962114E+02 -0.98976103288E+02 -0.28071928660E+04  0.28089614506E+04  0.25500000000E-02 0. -1.
<mgrwt>
<rscale>  0 0.99662650E+02</rscale>
<asrwt>0</asrwt>
<pdfrwt beam="1">  1       11 0.10000000E+01 0.13700276E+03</pdfrwt>
<pdfrwt beam="2">  1        2 0.43618918E+00 0.99662650E+02</pdfrwt>
<totfact> 0.37663255E+00</totfact>
</mgrwt>
</event>
<event>
 5    1  0.6729100E-004  0.1407451E+03  0.7818608E-02  0.1365623E+00
         11   -1    0    0    0    0  0.00000000000E+00  0.00000000000E+00  0.99999890220E+03  0.99999890220E+03  0.51100000000E-03 0.  1.
          2   -1    0    0  501    0 -0.00000000000E+00 -0.00000000000E+00 -0.88414537068E+02  0.88414537105E+02  0.25500000000E-02 0.  1.
         11    1    1    2    0    0  0.23523264537E+02 -0.16112984434E+03  0.71521040254E+03  0.73351352449E+03  0.51100000000E-03 0.  1.
         22    1    1    2    0    0 -0.55333571688E+02  0.10057785123E+03  0.24528109662E+03  0.27081455772E+03  0.00000000000E+00 0.  1.
          2    1    1    2  501    0  0.31810307151E+02  0.60551993111E+02 -0.48907134033E+02  0.84085357088E+02  0.25500000000E-02 0.  1.
<mgrwt>
<rscale>  0 0.68399119E+02</rscale>
<asrwt>0</asrwt>
<pdfrwt beam="1">  1       11 0.10000000E+01 0.14074509E+03</pdfrwt>
<pdfrwt beam="2">  1        2 0.13602221E-01 0.68399119E+02</pdfrwt>
<totfact> 0.50695470E+02</totfact>
</mgrwt>
</event>
<event>
 5    1  0.6729100E-004  0.1197814E+03  0.7818608E-02  0.1347441E+00
         11   -1    0    0    0    0  0.00000000000E+00  0.00000000000E+00  0.10002869288E+04  0.10002869288E+04  0.51100000000E-03 0. -1.
          2   -1    0    0  501    0 -0.00000000000E+00 -0.00000000000E+00 -0.27603576710E+02  0.27603576827E+02  0.25500000000E-02 0. -1.
         11    1    1    2    0    0  0.96915867323E+02 -0.57499887609E+02  0.38342637185E+03  0.39964322219E+03  0.51100000000E-03 0. -1.
         22    1    1    2    0    0 -0.14043254768E+03 -0.21782673906E+01  0.43711801737E+03  0.45912765807E+03  0.00000000000E+00 0. -1.
          2    1    1    2  501    0  0.43516680360E+02  0.59678155000E+02  0.15213896290E+03  0.16911962539E+03  0.25500000000E-02 0. -1.
<mgrwt>
<rscale>  0 0.73859215E+02</rscale>
<asrwt>0</asrwt>
<pdfrwt beam="1">  1       11 0.10000000E+01 0.11978138E+03</pdfrwt>
<pdfrwt beam="2">  1        2 0.42479225E-02 0.73859215E+02</pdfrwt>
<totfact> 0.21416997E+03</totfact>
</mgrwt>
</event>
<event>
 5    1  0.6729100E-004  0.1357964E+03  0.7818608E-02  0.1219100E+00
         11   -1    0    0    0    0  0.00000000000E+00  0.00000000000E+00  0.10001014372E+04  0.10001014372E+04  0.51100000000E-03 0. -1.
         -2   -1    0    0    0  501 -0.00000000000E+00 -0.00000000000E+00 -0.63191144050E+02  0.63191144102E+02  0.25500000000E-02 0. -1.
         11    1    1    2    0    0 -0.10309094168E+03  0.14291656405E+03  0.61301724351E+03  0.63784247850E+03  0.51100000000E-03 0. -1.
         22    1    1    2    0    0 -0.16972689076E+02 -0.87293794342E+02  0.26699154661E+03  0.28141209048E+03  0.00000000000E+00 0.  1.
         -2    1    1    2    0  501  0.12006363076E+03 -0.55622769711E+02  0.56901503028E+02  0.14403801232E+03  0.25500000000E-02 0. -1.
<mgrwt>
<rscale>  0 0.13579635E+03</rscale>
<asrwt>0</asrwt>
<pdfrwt beam="1">  1       11 0.10000000E+01 0.88928503E+02</pdfrwt>
<pdfrwt beam="2">  1       -2 0.97227003E-02 0.13579635E+03</pdfrwt>
<totfact> 0.53349779E+02</totfact>
</mgrwt>
</event>
<event>
 5    1  0.6729100E-004  0.3491592E+03  0.7818608E-02  0.1062961E+00
         11   -1    0    0    0    0  0.00000000000E+00  0.00000000000E+00  0.99996501146E+03  0.99996501146E+03  0.51100000000E-03 0. -1.
          2   -1    0    0  501    0 -0.00000000000E+00 -0.00000000000E+00 -0.18544177405E+03  0.18544177407E+03  0.25500000000E-02 0. -1.
         11    1    1    2    0    0 -0.20405126512E+03  0.29266179799E+03  0.12283116039E+03  0.37732657045E+03  0.51100000000E-03 0. -1.
         22    1    1    2    0    0 -0.45822979023E+02 -0.66569494755E+02  0.13510803824E+03  0.15743387512E+03  0.00000000000E+00 0.  1.
          2    1    1    2  501    0  0.24987424415E+03 -0.22609230324E+03  0.55658403878E+03  0.65064633996E+03  0.25500000000E-02 0. -1.
<mgrwt>
<rscale>  0 0.34915922E+03</rscale>
<asrwt>0</asrwt>
<pdfrwt beam="1">  1       11 0.10000000E+01 0.80816106E+02</pdfrwt>
<pdfrwt beam="2">  1        2 0.28528505E-01 0.34915922E+03</pdfrwt>
<totfact> 0.23039578E+02</totfact>
</mgrwt>
</event>
<event>
 5    1  0.6729100E-004  0.1782154E+03  0.7818608E-02  0.1392308E+00
         11   -1    0    0    0    0  0.00000000000E+00  0.00000000000E+00  0.10001758008E+04  0.10001758008E+04  0.51100000000E-03 0. -1.
          2   -1    0    0  501    0 -0.00000000000E+00 -0.00000000000E+00 -0.57239779922E+02  0.57239779979E+02  0.25500000000E-02 0. -1.
         11    1    1    2    0    0  0.91753722087E+02  0.16297514115E+03  0.16637937953E+03  0.25032327115E+03  0.51100000000E-03 0. -1.
         22    1    1    2    0    0 -0.21057044941E+02 -0.14957852326E+01  0.16310386015E+02  0.26677053942E+02  0.00000000000E+00 0. -1.
          2    1    1    2  501    0 -0.70696677146E+02 -0.16147935591E+03  0.76024625533E+03  0.78041525568E+03  0.25500000000E-02 0. -1.
<mgrwt>
<rscale>  0 0.61336311E+02</rscale>
<asrwt>0</asrwt>
<pdfrwt beam="1">  1       11 0.10000000E+01 0.17821536E+03</pdfrwt>
<pdfrwt beam="2">  1        2 0.88076679E-02 0.61336311E+02</pdfrwt>
<totfact> 0.84285392E+02</totfact>
</mgrwt>
</event>
<event>
 5    1  0.6729100E-004  0.9519600E+02  0.7818608E-02  0.1290735E+00
         11   -1    0    0    0    0  0.00000000000E+00  0.00000000000E+00  0.10005021144E+04  0.10005021144E+04  0.51100000000E-03 0. -1.
          2   -1    0    0  501    0 -0.00000000000E+00 -0.00000000000E+00 -0.38538118696E+02  0.38538118781E+02  0.25500000000E-02 0. -1.
         11    1    1    2    0    0 -0.33375969777E+02 -0.88449926804E+02  0.28946998254E+02  0.98869983404E+02  0.51100000000E-03 0. -1.
         22    1    1    2    0    0 -0.62215843448E+01 -0.80916659830E+01  0.51737585832E+02  0.52734817321E+02  0.00000000000E+00 0.  1.
          2    1    1    2  501    0  0.39597554122E+02  0.96541592787E+02  0.88127941161E+03  0.88743543244E+03  0.25500000000E-02 0. -1.
<mgrwt>
<rscale>  0 0.95195997E+02</rscale>
<asrwt>0</asrwt>
<pdfrwt beam="1">  1       11 0.10000000E+01 0.10207016E+02</pdfrwt>
<pdfrwt beam="2">  1        2 0.59319182E-02 0.95195997E+02</pdfrwt>
<totfact> 0.14274371E+03</totfact>
</mgrwt>
</event>
<event>
 5    1  0.6729100E-004  0.2150632E+03  0.7818608E-02  0.1137618E+00
         11   -1    0    0    0    0  0.00000000000E+00  0.00000000000E+00  0.10003454727E+04  0.10003454727E+04  0.51100000000E-03 0. -1.
          2   -1    0    0  501    0 -0.00000000000E+00 -0.00000000000E+00 -0.15697385430E+04  0.15697385430E+04  0.25500000000E-02 0. -1.
         11    1    1    2    0    0  0.37943799771E+02 -0.17473546666E+03  0.32288022511E+03  0.36908515957E+03  0.51100000000E-03 0. -1.
         22    1    1    2    0    0 -0.16462129687E+03 -0.16444702191E+01  0.63621070201E+03  0.65716583373E+03  0.00000000000E+00 0. -1.
          2    1    1    2  501    0  0.12667749710E+03  0.17637993688E+03 -0.15284839975E+04  0.15438330224E+04  0.25500000000E-02 0. -1.
<mgrwt>
<rscale>  0 0.21506318E+03</rscale>
<asrwt>0</asrwt>
<pdfrwt beam="1">  1       11 0.10000000E+01 0.16462951E+03</pdfrwt>
<pdfrwt beam="2">  1        2 0.24158166E+00 0.21506318E+03</pdfrwt>
<totfact> 0.15977128E+01</totfact>
</mgrwt>
</event>
<event>
 5    1  0.6729100E-004  0.1358145E+03  0.7818608E-02  0.1407905E+00
         11   -1    0    0    0    0  0.00000000000E+00  0.00000000000E+00  0.10003296494E+04  0.10003296494E+04  0.51100000000E-03 0. -1.
          2   -1    0    0  501    0 -0.00000000000E+00 -0.00000000000E+00 -0.98868975564E+02  0.98868975596E+02  0.25500000000E-02 0.  1.
         11    1    1    2    0    0  0.10426778095E+03 -0.31126038412E+02  0.31415734261E+03  0.33246869977E+03  0.51100000000E-03 0. -1.
         22    1    1    2    0    0 -0.15912361734E+03  0.48901208921E+02  0.65614256939E+03  0.67693036953E+03  0.00000000000E+00 0. -1.
          2    1    1    2  501    0  0.54855836390E+02 -0.17775170509E+02 -0.68839238204E+02  0.89799555654E+02  0.25500000000E-02 0.  1.
<mgrwt>
<rscale>  0 0.57663849E+02</rscale>
<asrwt>0</asrwt>
<pdfrwt beam="1">  1       11 0.10000000E+01 0.13581452E+03</pdfrwt>
<pdfrwt beam="2">  1        2 0.15215625E-01 0.57663849E+02</pdfrwt>
<totfact> 0.44155427E+02</totfact>
</mgrwt>
</event>
<event>
 5    1  0.6729100E-004  0.3832463E+03  0.7818608E-02  0.1049740E+00
         11   -1    0    0    0    0  0.00000000000E+00  0.00000000000E+00  0.99997854698E+03  0.99997854698E+03  0.51100000000E-03 0. -1.
          2   -1    0    0  501    0 -0.00000000000E+00 -0.00000000000E+00 -0.40624128471E+03  0.40624128471E+03  0.25500000000E-02 0. -1.
         11    1    1    2    0    0 -0.27822369276E+03 -0.24808505271E+03  0.64363187187E+03  0.74378532055E+03  0.51100000000E-03 0. -1.
         22    1    1    2    0    0  0.16162787744E+02 -0.34017890820E+02  0.19992979823E+03  0.20344625046E+03  0.00000000000E+00 0. -1.
          2    1    1    2  501    0  0.26206090502E+03  0.28210294353E+03 -0.24982440783E+03  0.45898826068E+03  0.25500000000E-02 0. -1.
<mgrwt>
<rscale>  0 0.38324626E+03</rscale>
<asrwt>0</asrwt>
<pdfrwt beam="1">  1       11 0.10000000E+01 0.37662350E+02</pdfrwt>
<pdfrwt beam="2">  1        2 0.62497317E-01 0.38324626E+03</pdfrwt>
<totfact> 0.97311775E+01</totfact>
</mgrwt>
</event>
<event>
 5    1  0.6729100E-004  0.1275633E+03  0.7818608E-02  0.1317063E+00
         11   -1    0    0    0    0  0.00000000000E+00  0.00000000000E+00  0.10002928813E+04  0.10002928813E+04  0.51100000000E-03 0. -1.
          2   -1    0    0  501    0 -0.00000000000E+00 -0.00000000000E+00 -0.50458373479E+03  0.50458373480E+03  0.25500000000E-02 0. -1.
         11    1    1    2    0    0  0.73246754218E+02 -0.15385359822E+03  0.76478025466E+03  0.78353356955E+03  0.51100000000E-03 0. -1.
         22    1    1    2    0    0 -0.50015168647E+02  0.72735003576E+02  0.21372099711E+03  0.23123270193E+03  0.00000000000E+00 0. -1.
          2    1    1    2  501    0 -0.23231585571E+02  0.81118594649E+02 -0.48279210527E+03  0.49011034460E+03  0.25500000000E-02 0. -1.
<mgrwt>
<rscale>  0 0.84379695E+02</rscale>
<asrwt>0</asrwt>
<pdfrwt beam="1">  1       11 0.10000000E+01 0.12756329E+03</pdfrwt>
<pdfrwt beam="2">  1        2 0.77651001E-01 0.84379695E+02</pdfrwt>
<totfact> 0.78102109E+01</totfact>
</mgrwt>
</event>
<event>
 5    1  0.6729100E-004  0.1045002E+03  0.7818608E-02  0.1663841E+00
         11   -1    0    0    0    0  0.00000000000E+00  0.00000000000E+00  0.10004149698E+04  0.10004149698E+04  0.51100000000E-03 0.  1.
          2   -1    0    0  501    0 -0.00000000000E+00 -0.00000000000E+00 -0.24007773770E+03  0.24007773771E+03  0.25500000000E-02 0.  1.
         11    1    1    2    0    0  0.10207416529E+03 -0.56884395296E+02  0.40599392802E+03  0.42247608126E+03  0.51100000000E-03 0.  1.
         22    1    1    2    0    0 -0.92712383209E+02  0.33915504193E+02  0.58134312382E+03  0.58966573162E+03  0.00000000000E+00 0.  1.
          2    1    1    2  501    0 -0.93617820842E+01  0.22968891103E+02 -0.22699981973E+03  0.22835089465E+03  0.25500000000E-02 0.  1.
<mgrwt>
<rscale>  0 0.24803486E+02</rscale>
<asrwt>0</asrwt>
<pdfrwt beam="1">  1       11 0.10000000E+01 0.10450021E+03</pdfrwt>
<pdfrwt beam="2">  1        2 0.36950362E-01 0.24803486E+02</pdfrwt>
<totfact> 0.16580214E+02</totfact>
</mgrwt>
</event>
<event>
 5    1  0.6729100E-004  0.1776109E+03  0.7818608E-02  0.1170135E+00
         11   -1    0    0    0    0  0.00000000000E+00  0.00000000000E+00  0.10005081935E+04  0.10005081935E+04  0.51100000000E-03 0. -1.
          2   -1    0    0  501    0 -0.00000000000E+00 -0.00000000000E+00 -0.30398921513E+03  0.30398921514E+03  0.25500000000E-02 0.  1.
         11    1    1    2    0    0  0.82872793050E+02 -0.65285360315E+02  0.21733413519E+03  0.24158684654E+03  0.51100000000E-03 0. -1.
         22    1    1    2    0    0  0.95958864956E+02  0.88326572356E+02  0.73691593350E+03  0.74836807802E+03  0.00000000000E+00 0. -1.
          2    1    1    2  501    0 -0.17883165801E+03 -0.23041212041E+02 -0.25773109033E+03  0.31454248407E+03  0.25500000000E-02 0.  1.
<mgrwt>
<rscale>  0 0.17761094E+03</rscale>
<asrwt>0</asrwt>
<pdfrwt beam="1">  1       11 0.10000000E+01 0.10549919E+03</pdfrwt>
<pdfrwt beam="2">  1        2 0.46791337E-01 0.17761094E+03</pdfrwt>
<totfact> 0.13360360E+02</totfact>
</mgrwt>
</event>
<event>
 5    1  0.6729100E-004  0.1965893E+03  0.7818608E-02  0.1152649E+00
         11   -1    0    0    0    0  0.00000000000E+00  0.00000000000E+00  0.10001184673E+04  0.10001184673E+04  0.51100000000E-03 0.  1.
          2   -1    0    0  501    0 -0.00000000000E+00 -0.00000000000E+00 -0.53665397248E+02  0.53665397309E+02  0.25500000000E-02 0.  1.
         11    1    1    2    0    0 -0.11724942086E+03 -0.14519551450E+03  0.61369187404E+03  0.64144125248E+03  0.51100000000E-03 0.  1.
         22    1    1    2    0    0  0.19962774997E+02 -0.31907327081E+02  0.82572401022E+02  0.90745750962E+02  0.00000000000E+00 0. -1.
          2    1    1    2  501    0  0.97286645861E+02  0.17710284158E+03  0.25018879494E+03  0.32159686112E+03  0.25500000000E-02 0.  1.
<mgrwt>
<rscale>  0 0.19658928E+03</rscale>
<asrwt>0</asrwt>
<pdfrwt beam="1">  1       11 0.10000000E+01 0.37637613E+02</pdfrwt>
<pdfrwt beam="2">  1        2 0.82571928E-02 0.19658928E+03</pdfrwt>
<totfact> 0.98631160E+02</totfact>
</mgrwt>
</event>
<event>
 5    1  0.6729100E-004  0.2065322E+03  0.7818608E-02  0.1144342E+00
         11   -1    0    0    0    0  0.00000000000E+00  0.00000000000E+00  0.10002228265E+04  0.10002228265E+04  0.51100000000E-03 0.  1.
         -2   -1    0    0    0  501 -0.00000000000E+00 -0.00000000000E+00 -0.21838198378E+03  0.21838198379E+03  0.25500000000E-02 0. -1.
         11    1    1    2    0    0  0.14516019902E+03 -0.31597162736E+02  0.79229342577E+03  0.80610094689E+03  0.51100000000E-03 0.  1.
         22    1    1    2    0    0  0.65585700162E+02  0.36030444120E+02  0.13641548890E+03  0.15559197467E+03  0.00000000000E+00 0.  1.
         -2    1    1    2    0  501 -0.21074589918E+03 -0.44332813842E+01 -0.14686807195E+03  0.25691188873E+03  0.25500000000E-02 0. -1.
<mgrwt>
<rscale>  0 0.20653220E+03</rscale>
<asrwt>0</asrwt>
<pdfrwt beam="1">  1       11 0.10000000E+01 0.74830989E+02</pdfrwt>
<pdfrwt beam="2">  1       -2 0.33604714E-01 0.20653220E+03</pdfrwt>
<totfact> 0.66733300E+01</totfact>
</mgrwt>
</event>
<event>
 5    1  0.6729100E-004  0.1221937E+03  0.7818608E-02  0.1239521E+00
         11   -1    0    0    0    0  0.00000000000E+00  0.00000000000E+00  0.10002262094E+04  0.10002262094E+04  0.51100000000E-03 0. -1.
          2   -1    0    0  501    0 -0.00000000000E+00 -0.00000000000E+00 -0.15931704171E+03  0.15931704173E+03  0.25500000000E-02 0. -1.
         11    1    1    2    0    0  0.77425972061E+02  0.86593680890E+02  0.30459496989E+03  0.32599285637E+03  0.51100000000E-03 0. -1.
         22    1    1    2    0    0  0.38235299909E+02 -0.13062584803E+03  0.65084698315E+03  0.66492619576E+03  0.00000000000E+00 0. -1.
          2    1    1    2  501    0 -0.11566127197E+03  0.44032167141E+02 -0.11453278533E+03  0.16862419903E+03  0.25500000000E-02 0. -1.
<mgrwt>
<rscale>  0 0.12219372E+03</rscale>
<asrwt>0</asrwt>
<pdfrwt beam="1">  1       11 0.10000000E+01 0.11616044E+03</pdfrwt>
<pdfrwt beam="2">  1        2 0.24515858E-01 0.12219372E+03</pdfrwt>
<totfact> 0.26685401E+02</totfact>
</mgrwt>
</event>
<event>
 5    1  0.6729100E-004  0.3094190E+03  0.7818608E-02  0.1080625E+00
         11   -1    0    0    0    0  0.00000000000E+00  0.00000000000E+00  0.10000511915E+04  0.10000511915E+04  0.51100000000E-03 0. -1.
          2   -1    0    0  501    0 -0.00000000000E+00 -0.00000000000E+00 -0.72956115493E+03  0.72956115494E+03  0.25500000000E-02 0. -1.
         11    1    1    2    0    0  0.25876604116E+03 -0.13426622370E+03  0.41834086091E+03  0.50989838085E+03  0.51100000000E-03 0. -1.
         22    1    1    2    0    0  0.54055936228E+02  0.16546632574E+03  0.48379551039E+03  0.51415877418E+03  0.00000000000E+00 0. -1.
          2    1    1    2  501    0 -0.31282197739E+03 -0.31200102043E+02 -0.63164633474E+03  0.70555519140E+03  0.25500000000E-02 0. -1.
<mgrwt>
<rscale>  0 0.30941904E+03</rscale>
<asrwt>0</asrwt>
<pdfrwt beam="1">  1       11 0.10000000E+01 0.17407225E+03</pdfrwt>
<pdfrwt beam="2">  1        2 0.11224592E+00 0.30941904E+03</pdfrwt>
<totfact> 0.49553472E+01</totfact>
</mgrwt>
</event>
<event>
 5    1  0.6729100E-004  0.2545259E+03  0.7818608E-02  0.1110478E+00
         11   -1    0    0    0    0  0.00000000000E+00  0.00000000000E+00  0.10000242819E+04  0.10000242819E+04  0.51100000000E-03 0. -1.
          2   -1    0    0  501    0 -0.00000000000E+00 -0.00000000000E+00 -0.74805205969E+02  0.74805206013E+02  0.25500000000E-02 0. -1.
         11    1    1    2    0    0 -0.18075477200E+03 -0.17252662504E+03  0.31104024580E+03  0.39897839347E+03  0.51100000000E-03 0. -1.
         22    1    1    2    0    0 -0.26461381025E+01 -0.14708953591E+02  0.73401615022E+02  0.74907626117E+02  0.00000000000E+00 0.  1.
          2    1    1    2  501    0  0.18340091010E+03  0.18723557863E+03  0.54077721507E+03  0.60094346829E+03  0.25500000000E-02 0. -1.
<mgrwt>
<rscale>  0 0.25452588E+03</rscale>
<asrwt>0</asrwt>
<pdfrwt beam="1">  1       11 0.10000000E+01 0.14945078E+02</pdfrwt>
<pdfrwt beam="2">  1        2 0.11508772E-01 0.25452588E+03</pdfrwt>
<totfact> 0.66047886E+02</totfact>
</mgrwt>
</event>
<event>
 5    1  0.6729100E-004  0.1717836E+03  0.7818608E-02  0.1347528E+00
         11   -1    0    0    0    0  0.00000000000E+00  0.00000000000E+00  0.10002063172E+04  0.10002063172E+04  0.51100000000E-03 0.  1.
          2   -1    0    0  501    0 -0.00000000000E+00 -0.00000000000E+00 -0.45442317201E+02  0.45442317273E+02  0.25500000000E-02 0.  1.
         11    1    1    2    0    0  0.10100930700E+03  0.13763181432E+03  0.67666051137E+03  0.69786448832E+03  0.51100000000E-03 0.  1.
         22    1    1    2    0    0  0.27326451399E+02 -0.16130735390E+02  0.35176723039E+02  0.47374438404E+02  0.00000000000E+00 0.  1.
          2    1    1    2  501    0 -0.12833575840E+03 -0.12150107893E+03  0.24292676561E+03  0.30040970777E+03  0.25500000000E-02 0.  1.
<mgrwt>
<rscale>  0 0.73831433E+02</rscale>
<asrwt>0</asrwt>
<pdfrwt beam="1">  1       11 0.10000000E+01 0.17178362E+03</pdfrwt>
<pdfrwt beam="2">  1        2 0.69925679E-02 0.73831433E+02</pdfrwt>
<totfact> 0.11359829E+03</totfact>
</mgrwt>
</event>
<event>
 5    1  0.6729100E-004  0.1161633E+03  0.7818608E-02  0.1638508E+00
         11   -1    0    0    0    0  0.00000000000E+00  0.00000000000E+00  0.10005266181E+04  0.10005266181E+04  0.51100000000E-03 0. -1.
          2   -1    0    0  501    0 -0.00000000000E+00 -0.00000000000E+00 -0.20225958571E+02  0.20225958732E+02  0.25500000000E-02 0.  1.
         11    1    1    2    0    0 -0.12820688170E+03 -0.27926626271E+02  0.41073255000E+03  0.43118224523E+03  0.51100000000E-03 0. -1.
         22    1    1    2    0    0  0.10791995983E+03  0.10660522990E+02  0.53525326466E+03  0.54612857626E+03  0.00000000000E+00 0.  1.
          2    1    1    2  501    0  0.20286921872E+02  0.17266103281E+02  0.34314844818E+02  0.43441755293E+02  0.25500000000E-02 0.  1.
<mgrwt>
<rscale>  0 0.26639773E+02</rscale>
<asrwt>0</asrwt>
<pdfrwt beam="1">  1       11 0.10000000E+01 0.11616325E+03</pdfrwt>
<pdfrwt beam="2">  1        2 0.31133245E-02 0.26639773E+02</pdfrwt>
<totfact> 0.28032320E+03</totfact>
</mgrwt>
</event>
<event>
 5    1  0.6729100E-004  0.2007175E+03  0.7818608E-02  0.1149135E+00
         11   -1    0    0    0    0  0.00000000000E+00  0.00000000000E+00  0.99991237632E+03  0.99991237632E+03  0.51100000000E-03 0. -1.
         -2   -1    0    0    0  501 -0.00000000000E+00 -0.00000000000E+00 -0.73932915077E+02  0.73932915121E+02  0.25500000000E-02 0.  1.
         11    1    1    2    0    0 -0.18243399203E+03  0.12959527700E+02  0.49908763918E+03  0.53154358465E+03  0.51100000000E-03 0. -1.
         22    1    1    2    0    0 -0.16893886726E+02  0.49834068611E+02  0.28472105632E+03  0.28954260087E+03  0.00000000000E+00 0.  1.
         -2    1    1    2    0  501  0.19932787876E+03 -0.62793596311E+02  0.14217076575E+03  0.25275910593E+03  0.25500000000E-02 0.  1.
<mgrwt>
<rscale>  0 0.20071754E+03</rscale>
<asrwt>0</asrwt>
<pdfrwt beam="1">  1       11 0.10000000E+01 0.52619747E+02</pdfrwt>
<pdfrwt beam="2">  1       -2 0.11373298E-01 0.20071754E+03</pdfrwt>
<totfact> 0.42521457E+02</totfact>
</mgrwt>
</event>
<event>
 5    1  0.6729100E-004  0.4832434E+03  0.7818608E-02  0.1018248E+00
         11   -1    0    0    0    0  0.00000000000E+00  0.00000000000E+00  0.99981898207E+03  0.99981898207E+03  0.51100000000E-03 0. -1.
          2   -1    0    0  501    0 -0.00000000000E+00 -0.00000000000E+00 -0.29748460174E+04  0.29748460174E+04  0.25500000000E-02 0.  1.
         11    1    1    2    0    0  0.34746252027E+03 -0.35501249634E+03  0.83910492341E+03  0.97512109404E+03  0.51100000000E-03 0. -1.
         22    1    1    2    0    0 -0.38253854355E+01  0.15674282395E+02  0.71744549293E+02  0.73536365532E+02  0.00000000000E+00 0. -1.
          2    1    1    2  501    0 -0.34363713483E+03  0.33933821395E+03 -0.28858765080E+04  0.29260075399E+04  0.25500000000E-02 0.  1.
<mgrwt>
<rscale>  0 0.48324336E+03</rscale>
<asrwt>0</asrwt>
<pdfrwt beam="1">  1       11 0.10000000E+01 0.16134333E+02</pdfrwt>
<pdfrwt beam="2">  1        2 0.45758576E+00 0.48324336E+03</pdfrwt>
<totfact> 0.24986823E+00</totfact>
</mgrwt>
</event>
<event>
 5    1  0.6729100E-004  0.1843565E+03  0.7818608E-02  0.1163652E+00
         11   -1    0    0    0    0  0.00000000000E+00  0.00000000000E+00  0.10003013539E+04  0.10003013539E+04  0.51100000000E-03 0.  1.
          2   -1    0    0  501    0 -0.00000000000E+00 -0.00000000000E+00 -0.34677888791E+02  0.34677888885E+02  0.25500000000E-02 0.  1.
         11    1    1    2    0    0 -0.17630192799E+03  0.63511337334E+01  0.34406686738E+03  0.38665839697E+03  0.51100000000E-03 0.  1.
         22    1    1    2    0    0  0.19651934688E+02 -0.97938617322E+01  0.36044237485E+02  0.42205512916E+02  0.00000000000E+00 0. -1.
          2    1    1    2  501    0  0.15664999330E+03  0.34427279988E+01  0.58551236024E+03  0.60611533291E+03  0.25500000000E-02 0.  1.
<mgrwt>
<rscale>  0 0.18435649E+03</rscale>
<asrwt>0</asrwt>
<pdfrwt beam="1">  1       11 0.10000000E+01 0.17641638E+03</pdfrwt>
<pdfrwt beam="2">  1        2 0.53366674E-02 0.18435649E+03</pdfrwt>
<totfact> 0.17235261E+03</totfact>
</mgrwt>
</event>
<event>
 5    1  0.6729100E-004  0.2329565E+03  0.7818608E-02  0.1127614E+00
         11   -1    0    0    0    0  0.00000000000E+00  0.00000000000E+00  0.10001317877E+04  0.10001317877E+04  0.51100000000E-03 0. -1.
          2   -1    0    0  501    0 -0.00000000000E+00 -0.00000000000E+00 -0.54915548213E+02  0.54915548272E+02  0.25500000000E-02 0. -1.
         11    1    1    2    0    0  0.85433126121E+02 -0.18734940197E+03  0.46839985879E+03  0.51166106474E+03  0.51100000000E-03 0. -1.
         22    1    1    2    0    0  0.12993166980E+02 -0.18998998867E+02  0.10020438014E+03  0.10281392000E+03  0.00000000000E+00 0. -1.
          2    1    1    2  501    0 -0.98426293101E+02  0.20634840084E+03  0.37661200056E+03  0.44057235124E+03  0.25500000000E-02 0. -1.
<mgrwt>
<rscale>  0 0.22862064E+03</rscale>
<asrwt>0</asrwt>
<pdfrwt beam="1">  1       11 0.10000000E+01 0.23295649E+03</pdfrwt>
<pdfrwt beam="2">  1        2 0.84496591E-02 0.22862064E+03</pdfrwt>
<totfact> 0.96613768E+02</totfact>
</mgrwt>
</event>
<event>
 5    1  0.6729100E-004  0.2229426E+03  0.7818608E-02  0.1138125E+00
         11   -1    0    0    0    0  0.00000000000E+00  0.00000000000E+00  0.10001909869E+04  0.10001909869E+04  0.51100000000E-03 0. -1.
          2   -1    0    0  501    0 -0.00000000000E+00 -0.00000000000E+00 -0.56818161576E+02  0.56818161633E+02  0.25500000000E-02 0. -1.
         11    1    1    2    0    0  0.12065407301E+03  0.87820411567E+02  0.39013840564E+03  0.41770540525E+03  0.51100000000E-03 0. -1.
         22    1    1    2    0    0  0.64813717834E+02  0.19748513001E+02  0.29971129322E+03  0.30727460205E+03  0.00000000000E+00 0. -1.
          2    1    1    2  501    0 -0.18546779084E+03 -0.10756892457E+03  0.25352312651E+03  0.33202914128E+03  0.25500000000E-02 0. -1.
<mgrwt>
<rscale>  0 0.21440470E+03</rscale>
<asrwt>0</asrwt>
<pdfrwt beam="1">  1       11 0.10000000E+01 0.22294260E+03</pdfrwt>
<pdfrwt beam="2">  1        2 0.87429248E-02 0.21440470E+03</pdfrwt>
<totfact> 0.92210693E+02</totfact>
</mgrwt>
</event>
<event>
 5    1  0.6729100E-004  0.1037570E+03  0.7818608E-02  0.1454743E+00
         11   -1    0    0    0    0  0.00000000000E+00  0.00000000000E+00  0.10004290524E+04  0.10004290524E+04  0.51100000000E-03 0. -1.
          2   -1    0    0  501    0 -0.00000000000E+00 -0.00000000000E+00 -0.13557216131E+04  0.13557216131E+04  0.25500000000E-02 0.  1.
         11    1    1    2    0    0 -0.11740120896E+03  0.55706616991E+02  0.60599628535E+03  0.61977235248E+03  0.51100000000E-03 0. -1.
         22    1    1    2    0    0  0.69289678112E+02 -0.51464557946E+02  0.38229976392E+03  0.39192189236E+03  0.00000000000E+00 0. -1.
          2    1    1    2  501    0  0.48111530849E+02 -0.42420590452E+01 -0.13435886100E+04  0.13444564207E+04  0.25500000000E-02 0.  1.
<mgrwt>
<rscale>  0 0.48298183E+02</rscale>
<asrwt>0</asrwt>
<pdfrwt beam="1">  1       11 0.10000000E+01 0.10375700E+03</pdfrwt>
<pdfrwt beam="2">  1        2 0.20866204E+00 0.48298183E+02</pdfrwt>
<totfact> 0.23171399E+01</totfact>
</mgrwt>
</event>
<event>
 5    1  0.6729100E-004  0.6700766E+02  0.7818608E-02  0.1370575E+00
         11   -1    0    0    0    0  0.00000000000E+00  0.00000000000E+00  0.10003057454E+04  0.10003057454E+04  0.51100000000E-03 0.  1.
          2   -1    0    0  501    0 -0.00000000000E+00 -0.00000000000E+00 -0.13552202715E+02  0.13552202955E+02  0.25500000000E-02 0.  1.
         11    1    1    2    0    0  0.48543484059E+02  0.19192830884E+02  0.86616179153E+02  0.10112960542E+03  0.51100000000E-03 0.  1.
         22    1    1    2    0    0  0.23706889016E+02  0.47251429907E+02  0.30302144707E+03  0.30759829583E+03  0.00000000000E+00 0.  1.
          2    1    1    2  501    0 -0.72250373075E+02 -0.66444260791E+02  0.59711591642E+03  0.60513004706E+03  0.25500000000E-02 0.  1.
<mgrwt>
<rscale>  0 0.67007655E+02</rscale>
<asrwt>0</asrwt>
<pdfrwt beam="1">  1       11 0.10000000E+01 0.52199974E+02</pdfrwt>
<pdfrwt beam="2">  1        2 0.20855917E-02 0.67007655E+02</pdfrwt>
<totfact> 0.53986554E+03</totfact>
</mgrwt>
</event>
<event>
 5    1  0.6729100E-004  0.1731801E+03  0.7818608E-02  0.1698647E+00
         11   -1    0    0    0    0  0.00000000000E+00  0.00000000000E+00  0.10001955774E+04  0.10001955774E+04  0.51100000000E-03 0.  1.
          2   -1    0    0  501    0 -0.00000000000E+00 -0.00000000000E+00 -0.45699110772E+03  0.45699110772E+03  0.25500000000E-02 0.  1.
         11    1    1    2    0    0  0.12197506058E+03  0.13842428379E+03  0.74909952687E+01  0.18464916127E+03  0.51100000000E-03 0.  1.
         22    1    1    2    0    0 -0.12692104897E+03 -0.11640718820E+03  0.89556769359E+03  0.91197646897E+03  0.00000000000E+00 0.  1.
          2    1    1    2  501    0  0.49459883807E+01 -0.22017095586E+02 -0.35985421913E+03  0.36056105493E+03  0.25500000000E-02 0.  1.
<mgrwt>
<rscale>  0 0.22565799E+02</rscale>
<asrwt>0</asrwt>
<pdfrwt beam="1">  1       11 0.10000000E+01 0.17318008E+03</pdfrwt>
<pdfrwt beam="2">  1        2 0.70320073E-01 0.22565799E+02</pdfrwt>
<totfact> 0.87584491E+01</totfact>
</mgrwt>
</event>
<event>
 5    1  0.6729100E-004  0.3511334E+03  0.7818608E-02  0.1062151E+00
         11   -1    0    0    0    0  0.00000000000E+00  0.00000000000E+00  0.10000977143E+04  0.10000977143E+04  0.51100000000E-03 0.  1.
          2   -1    0    0  501    0 -0.00000000000E+00 -0.00000000000E+00 -0.42719791642E+03  0.42719791643E+03  0.25500000000E-02 0.  1.
         11    1    1    2    0    0 -0.14098439362E+03 -0.39789212398E+03  0.57139096811E+03  0.71041000837E+03  0.51100000000E-03 0.  1.
         22    1    1    2    0    0  0.14381579678E+03  0.53541096549E+02  0.24922483117E+03  0.29268182194E+03  0.00000000000E+00 0.  1.
          2    1    1    2  501    0 -0.28314031556E+01  0.34435102743E+03 -0.24771600140E+03  0.42420380042E+03  0.25500000000E-02 0.  1.
<mgrwt>
<rscale>  0 0.35113335E+03</rscale>
<asrwt>0</asrwt>
<pdfrwt beam="1">  1       11 0.10000000E+01 0.15345889E+03</pdfrwt>
<pdfrwt beam="2">  1        2 0.65729177E-01 0.35113335E+03</pdfrwt>
<totfact> 0.92104367E+01</totfact>
</mgrwt>
</event>
<event>
 5    1  0.6729100E-004  0.3279711E+03  0.7818608E-02  0.1072038E+00
         11   -1    0    0    0    0  0.00000000000E+00  0.00000000000E+00  0.10000018526E+04  0.10000018526E+04  0.51100000000E-03 0.  1.
          2   -1    0    0  501    0 -0.00000000000E+00 -0.00000000000E+00 -0.16173599982E+03  0.16173599984E+03  0.25500000000E-02 0.  1.
         11    1    1    2    0    0  0.21975706631E+02 -0.35311304960E+03  0.28107895730E+03  0.45185964383E+03  0.51100000000E-03 0.  1.
         22    1    1    2    0    0 -0.58463304486E+02  0.47976106875E+02  0.29927178095E+03  0.30867987248E+03  0.00000000000E+00 0.  1.
          2    1    1    2  501    0  0.36487597855E+02  0.30513694273E+03  0.25791511455E+03  0.40119833615E+03  0.25500000000E-02 0.  1.
<mgrwt>
<rscale>  0 0.32797108E+03</rscale>
<asrwt>0</asrwt>
<pdfrwt beam="1">  1       11 0.10000000E+01 0.75628466E+02</pdfrwt>
<pdfrwt beam="2">  1        2 0.24882507E-01 0.32797108E+03</pdfrwt>
<totfact> 0.26838036E+02</totfact>
</mgrwt>
</event>
<event>
 5    1  0.6729100E-004  0.1619445E+03  0.7818608E-02  0.1186519E+00
         11   -1    0    0    0    0  0.00000000000E+00  0.00000000000E+00  0.10003226828E+04  0.10003226828E+04  0.51100000000E-03 0.  1.
         -2   -1    0    0    0  501 -0.00000000000E+00 -0.00000000000E+00 -0.32546749207E+03  0.32546749208E+03  0.25500000000E-02 0.  1.
         11    1    1    2    0    0 -0.51292877365E+02  0.18223473184E+03  0.84971982383E+03  0.87055398211E+03  0.51100000000E-03 0.  1.
         22    1    1    2    0    0  0.15563703168E+01 -0.28807563351E+02  0.11768631691E+03  0.12117081820E+03  0.00000000000E+00 0.  1.
         -2    1    1    2    0  501  0.49736507049E+02 -0.15342716849E+03 -0.29255094998E+03  0.33406537460E+03  0.25500000000E-02 0.  1.
<mgrwt>
<rscale>  0 0.16194451E+03</rscale>
<asrwt>0</asrwt>
<pdfrwt beam="1">  1       11 0.10000000E+01 0.28849575E+02</pdfrwt>
<pdfrwt beam="2">  1       -2 0.50088078E-01 0.16194451E+03</pdfrwt>
<totfact> 0.31057869E+01</totfact>
</mgrwt>
</event>
<event>
 5    1  0.6729100E-004  0.1813257E+03  0.7818608E-02  0.1168601E+00
         11   -1    0    0    0    0  0.00000000000E+00  0.00000000000E+00  0.10002816681E+04  0.10002816681E+04  0.51100000000E-03 0. -1.
          2   -1    0    0  501    0 -0.00000000000E+00 -0.00000000000E+00 -0.34018939726E+03  0.34018939727E+03  0.25500000000E-02 0. -1.
         11    1    1    2    0    0 -0.13722231595E+03 -0.10054849209E+03  0.93305701998E+03  0.94843838271E+03  0.51100000000E-03 0. -1.
         22    1    1    2    0    0 -0.10048916766E+02 -0.15092541410E+01  0.34611507028E+02  0.36072357768E+02  0.00000000000E+00 0. -1.
          2    1    1    2  501    0  0.14727123272E+03  0.10205774623E+03 -0.30757625616E+03  0.35596032491E+03  0.25500000000E-02 0. -1.
<mgrwt>
<rscale>  0 0.17917756E+03</rscale>
<asrwt>0</asrwt>
<pdfrwt beam="1">  1       11 0.10000000E+01 0.18132573E+03</pdfrwt>
<pdfrwt beam="2">  1        2 0.52351570E-01 0.17917756E+03</pdfrwt>
<totfact> 0.11848458E+02</totfact>
</mgrwt>
</event>
<event>
 5    1  0.6729100E-004  0.4459104E+03  0.7818608E-02  0.1028949E+00
         11   -1    0    0    0    0  0.00000000000E+00  0.00000000000E+00  0.10002206114E+04  0.10002206114E+04  0.51100000000E-03 0. -1.
          2   -1    0    0  501    0 -0.00000000000E+00 -0.00000000000E+00 -0.36898712696E+03  0.36898712696E+03  0.25500000000E-02 0. -1.
         11    1    1    2    0    0 -0.42754834060E+03 -0.14593320164E+03  0.73084019939E+03  0.85919816104E+03  0.51100000000E-03 0. -1.
         22    1    1    2    0    0  0.97216672472E+01 -0.63963740646E+01  0.41761788088E+02  0.43352870258E+02  0.00000000000E+00 0.  1.
          2    1    1    2  501    0  0.41782667335E+03  0.15232957570E+03 -0.14136850303E+03  0.46665670707E+03  0.25500000000E-02 0. -1.
<mgrwt>
<rscale>  0 0.44591042E+03</rscale>
<asrwt>0</asrwt>
<pdfrwt beam="1">  1       11 0.10000000E+01 0.11637200E+02</pdfrwt>
<pdfrwt beam="2">  1        2 0.56779772E-01 0.44591042E+03</pdfrwt>
<totfact> 0.10806626E+02</totfact>
</mgrwt>
</event>
<event>
 5    1  0.6729100E-004  0.4770629E+03  0.7818608E-02  0.1019946E+00
         11   -1    0    0    0    0  0.00000000000E+00  0.00000000000E+00  0.10000197376E+04  0.10000197376E+04  0.51100000000E-03 0. -1.
         -2   -1    0    0    0  501 -0.00000000000E+00 -0.00000000000E+00 -0.34450941745E+03  0.34450941746E+03  0.25500000000E-02 0.  1.
         11    1    1    2    0    0  0.39515642789E+02 -0.48541442093E+03  0.61888650206E+03  0.78753358564E+03  0.51100000000E-03 0. -1.
         22    1    1    2    0    0 -0.14787945378E+02  0.12019547083E+02  0.78810595144E+02  0.81081827480E+02  0.00000000000E+00 0.  1.
         -2    1    1    2    0  501 -0.24727697411E+02  0.47339487385E+03 -0.42186777060E+02  0.47591374194E+03  0.25500000000E-02 0.  1.
<mgrwt>
<rscale>  0 0.47706290E+03</rscale>
<asrwt>0</asrwt>
<pdfrwt beam="1">  1       11 0.10000000E+01 0.19056569E+02</pdfrwt>
<pdfrwt beam="2">  1       -2 0.53002493E-01 0.47706290E+03</pdfrwt>
<totfact> 0.27511824E+01</totfact>
</mgrwt>
</event>
<event>
 5    1  0.6729100E-004  0.1987176E+03  0.7818608E-02  0.1150825E+00
         11   -1    0    0    0    0  0.00000000000E+00  0.00000000000E+00  0.10001920897E+04  0.10001920897E+04  0.51100000000E-03 0.  1.
          2   -1    0    0  501    0 -0.00000000000E+00 -0.00000000000E+00 -0.47429256341E+03  0.47429256341E+03  0.25500000000E-02 0.  1.
         11    1    1    2    0    0 -0.12094252456E+03  0.15368367510E+03  0.92724195843E+03  0.94764097406E+03  0.51100000000E-03 0.  1.
         22    1    1    2    0    0  0.87144794134E+01  0.10407615236E+02  0.40297637309E+02  0.42522466756E+02  0.00000000000E+00 0.  1.
          2    1    1    2  501    0  0.11222804515E+03 -0.16409129033E+03 -0.44164006948E+03  0.48432121227E+03  0.25500000000E-02 0.  1.
<mgrwt>
<rscale>  0 0.19871761E+03</rscale>
<asrwt>0</asrwt>
<pdfrwt beam="1">  1       11 0.10000000E+01 0.13574263E+02</pdfrwt>
<pdfrwt beam="2">  1        2 0.72982101E-01 0.19871761E+03</pdfrwt>
<totfact> 0.82596304E+01</totfact>
</mgrwt>
</event>
<event>
 5    1  0.6729100E-004  0.1135746E+03  0.7818608E-02  0.1254090E+00
         11   -1    0    0    0    0  0.00000000000E+00  0.00000000000E+00  0.10001207197E+04  0.10001207197E+04  0.51100000000E-03 0.  1.
         -2   -1    0    0    0  501 -0.00000000000E+00 -0.00000000000E+00 -0.13897954150E+03  0.13897954152E+03  0.25500000000E-02 0. -1.
         11    1    1    2    0    0 -0.10947329312E+03 -0.12318532813E+03  0.67612542101E+03  0.69591997522E+03  0.51100000000E-03 0.  1.
         22    1    1    2    0    0  0.28141281265E+02  0.46542791568E+02  0.28686628817E+03  0.29197676354E+03  0.00000000000E+00 0.  1.
         -2    1    1    2    0  501  0.81332011852E+02  0.76642536560E+02 -0.10185053093E+03  0.15120352251E+03  0.25500000000E-02 0. -1.
<mgrwt>
<rscale>  0 0.11357462E+03</rscale>
<asrwt>0</asrwt>
<pdfrwt beam="1">  1       11 0.10000000E+01 0.54388999E+02</pdfrwt>
<pdfrwt beam="2">  1       -2 0.21384048E-01 0.11357462E+03</pdfrwt>
<totfact> 0.14673517E+02</totfact>
</mgrwt>
</event>
<event>
 5    1  0.6729100E-004  0.1916129E+03  0.7818608E-02  0.1441461E+00
         11   -1    0    0    0    0  0.00000000000E+00  0.00000000000E+00  0.10004274707E+04  0.10004274707E+04  0.51100000000E-03 0.  1.
         -2   -1    0    0    0  501 -0.00000000000E+00 -0.00000000000E+00 -0.18682100965E+03  0.18682100967E+03  0.25500000000E-02 0.  1.
         11    1    1    2    0    0  0.14231829222E+03 -0.11964274832E+03  0.67850989805E+03  0.70352296713E+03  0.51100000000E-03 0.  1.
         22    1    1    2    0    0 -0.12873137936E+03  0.16851587892E+03  0.26783703259E+03  0.34162266539E+03  0.00000000000E+00 0. -1.
         -2    1    1    2    0  501 -0.13586912861E+02 -0.48873130603E+02 -0.13274046959E+03  0.14210284786E+03  0.25500000000E-02 0.  1.
<mgrwt>
<rscale>  0 0.50726592E+02</rscale>
<asrwt>0</asrwt>
<pdfrwt beam="1">  1       11 0.10000000E+01 0.19161290E+03</pdfrwt>
<pdfrwt beam="2">  1       -2 0.28753979E-01 0.50726592E+02</pdfrwt>
<totfact> 0.85825218E+01</totfact>
</mgrwt>
</event>
<event>
 5    1  0.6729100E-004  0.2088023E+03  0.7818608E-02  0.1142518E+00
         11   -1    0    0    0    0  0.00000000000E+00  0.00000000000E+00  0.10000561001E+04  0.10000561001E+04  0.51100000000E-03 0.  1.
          2   -1    0    0  501    0 -0.00000000000E+00 -0.00000000000E+00 -0.23493861698E+03  0.23493861699E+03  0.25500000000E-02 0.  1.
         11    1    1    2    0    0  0.10518977598E+03  0.90229337419E+02  0.77241193093E+03  0.78474608208E+03  0.51100000000E-03 0.  1.
         22    1    1    2    0    0 -0.21823840149E+02  0.14929211083E+03  0.93318372654E+02  0.17740556087E+03  0.00000000000E+00 0.  1.
          2    1    1    2  501    0 -0.83365935830E+02 -0.23952144825E+03 -0.10061282050E+03  0.27284307410E+03  0.25500000000E-02 0.  1.
<mgrwt>
<rscale>  0 0.20880229E+03</rscale>
<asrwt>0</asrwt>
<pdfrwt beam="1">  1       11 0.10000000E+01 0.13858652E+03</pdfrwt>
<pdfrwt beam="2">  1        2 0.36146429E-01 0.20880229E+03</pdfrwt>
<totfact> 0.17648710E+02</totfact>
</mgrwt>
</event>
<event>
 5    1  0.6729100E-004  0.2693305E+03  0.7818608E-02  0.1101663E+00
         11   -1    0    0    0    0  0.00000000000E+00  0.00000000000E+00  0.10000349087E+04  0.10000349087E+04  0.51100000000E-03 0. -1.
          2   -1    0    0  501    0 -0.00000000000E+00 -0.00000000000E+00 -0.60002094522E+03  0.60002094523E+03  0.25500000000E-02 0. -1.
         11    1    1    2    0    0  0.80518765756E+02 -0.20151891270E+03  0.84633594276E+03  0.87371486872E+03  0.51100000000E-03 0. -1.
         22    1    1    2    0    0 -0.14168796911E+02 -0.61583853266E+02  0.98880818933E+02  0.11734880546E+03  0.00000000000E+00 0. -1.
          2    1    1    2  501    0 -0.66349968845E+02  0.26310276597E+03 -0.54520279821E+03  0.60899217976E+03  0.25500000000E-02 0. -1.
<mgrwt>
<rscale>  0 0.26933048E+03</rscale>
<asrwt>0</asrwt>
<pdfrwt beam="1">  1       11 0.10000000E+01 0.63192767E+02</pdfrwt>
<pdfrwt beam="2">  1        2 0.92314134E-01 0.26933048E+03</pdfrwt>
<totfact> 0.62929801E+01</totfact>
</mgrwt>
</event>
<event>
 5    1  0.6729100E-004  0.1280693E+03  0.7818608E-02  0.1230349E+00
         11   -1    0    0    0    0  0.00000000000E+00  0.00000000000E+00  0.10002331117E+04  0.10002331117E+04  0.51100000000E-03 0.  1.
          2   -1    0    0  501    0 -0.00000000000E+00 -0.00000000000E+00 -0.27820412972E+02  0.27820413088E+02  0.25500000000E-02 0.  1.
         11    1    1    2    0    0 -0.11338117283E+03 -0.62715710029E+02  0.71857822068E+03  0.73016656311E+03  0.51100000000E-03 0.  1.
         22    1    1    2    0    0  0.10366540474E+02 -0.13081827351E+02  0.81994688777E+02  0.83676330918E+02  0.00000000000E+00 0.  1.
          2    1    1    2  501    0  0.10301463236E+03  0.75797537381E+02  0.17183978930E+03  0.21421063079E+03  0.25500000000E-02 0.  1.
<mgrwt>
<rscale>  0 0.12806927E+03</rscale>
<asrwt>0</asrwt>
<pdfrwt beam="1">  1       11 0.10000000E+01 0.16691296E+02</pdfrwt>
<pdfrwt beam="2">  1        2 0.42810612E-02 0.12806927E+03</pdfrwt>
<totfact> 0.22351104E+03</totfact>
</mgrwt>
</event>
<event>
 5    1  0.6729100E-004  0.5502726E+03  0.7818608E-02  0.1410801E+00
         11   -1    0    0    0    0  0.00000000000E+00  0.00000000000E+00  0.10005695509E+04  0.10005695509E+04  0.51100000000E-03 0.  1.
          2   -1    0    0  501    0 -0.00000000000E+00 -0.00000000000E+00 -0.18275463122E+04  0.18275463122E+04  0.25500000000E-02 0. -1.
         11    1    1    2    0    0  0.51514521857E+03  0.66468857714E+02  0.23355077340E+03  0.56950739153E+03  0.51100000000E-03 0.  1.
         22    1    1    2    0    0 -0.57212392544E+03 -0.64418937275E+02  0.46004664354E+03  0.73696573853E+03  0.00000000000E+00 0.  1.
          2    1    1    2  501    0  0.56978706870E+02 -0.20499204390E+01 -0.15205741782E+04  0.15216427330E+04  0.25500000000E-02 0. -1.
<mgrwt>
<rscale>  0 0.57015570E+02</rscale>
<asrwt>0</asrwt>
<pdfrwt beam="1">  1       11 0.10000000E+01 0.55027258E+03</pdfrwt>
<pdfrwt beam="2">  1        2 0.28132110E+00 0.57015570E+02</pdfrwt>
<totfact> 0.13339422E+01</totfact>
</mgrwt>
</event>
<event>
 5    1  0.6729100E-004  0.3096578E+03  0.7818608E-02  0.1080510E+00
         11   -1    0    0    0    0  0.00000000000E+00  0.00000000000E+00  0.10004014600E+04  0.10004014600E+04  0.51100000000E-03 0. -1.
          2   -1    0    0  501    0 -0.00000000000E+00 -0.00000000000E+00 -0.19194885378E+03  0.19194885380E+03  0.25500000000E-02 0. -1.
         11    1    1    2    0    0 -0.18861406527E+03  0.26083270530E+03  0.66694024099E+03  0.74055266580E+03  0.51100000000E-03 0. -1.
         22    1    1    2    0    0 -0.66493877936E+01 -0.23788111417E+02  0.14255963297E+03  0.14468357736E+03  0.00000000000E+00 0. -1.
          2    1    1    2  501    0  0.19526345306E+03 -0.23704459388E+03 -0.10472677798E+01  0.30711407061E+03  0.25500000000E-02 0. -1.
<mgrwt>
<rscale>  0 0.30965781E+03</rscale>
<asrwt>0</asrwt>
<pdfrwt beam="1">  1       11 0.10000000E+01 0.24699972E+02</pdfrwt>
<pdfrwt beam="2">  1        2 0.29542447E-01 0.30965781E+03</pdfrwt>
<totfact> 0.22122970E+02</totfact>
</mgrwt>
</event>
<event>
 5    1  0.6729100E-004  0.1805159E+03  0.7818608E-02  0.1167305E+00
         11   -1    0    0    0    0  0.00000000000E+00  0.00000000000E+00  0.10000968583E+04  0.10000968583E+04  0.51100000000E-03 0. -1.
         -2   -1    0    0    0  501 -0.00000000000E+00 -0.00000000000E+00 -0.79778550603E+02  0.79778550644E+02  0.25500000000E-02 0.  1.
         11    1    1    2    0    0 -0.44184279931E+02 -0.16539700383E+03  0.79207588166E+03  0.81036573334E+03  0.51100000000E-03 0. -1.
         22    1    1    2    0    0  0.15712845106E+02 -0.14391908696E+02  0.77736040193E+02  0.80603427236E+02  0.00000000000E+00 0. -1.
         -2    1    1    2    0  501  0.28471434825E+02  0.17978891253E+03  0.50506385897E+02  0.18890624842E+03  0.25500000000E-02 0.  1.
<mgrwt>
<rscale>  0 0.18051586E+03</rscale>
<asrwt>0</asrwt>
<pdfrwt beam="1">  1       11 0.10000000E+01 0.21307758E+02</pdfrwt>
<pdfrwt beam="2">  1       -2 0.12274812E-01 0.18051586E+03</pdfrwt>
<totfact> 0.37419687E+02</totfact>
</mgrwt>
</event>
<event>
 5    1  0.6729100E-004  0.3413940E+03  0.7818608E-02  0.1066204E+00
         11   -1    0    0    0    0  0.00000000000E+00  0.00000000000E+00  0.10003225118E+04  0.10003225118E+04  0.51100000000E-03 0. -1.
          2   -1    0    0  501    0 -0.00000000000E+00 -0.00000000000E+00 -0.32362628839E+03  0.32362628840E+03  0.25500000000E-02 0. -1.
         11    1    1    2    0    0  0.33085084015E+03 -0.11141773153E+03  0.80717290331E+03  0.87943407096E+03  0.51100000000E-03 0. -1.
         22    1    1    2    0    0 -0.47043158598E+00  0.28700340498E+02  0.51060357490E+02  0.58575515000E+02  0.00000000000E+00 0. -1.
          2    1    1    2  501    0 -0.33038040856E+03  0.82717391035E+02 -0.18153703738E+03  0.38593921424E+03  0.25500000000E-02 0. -1.
<mgrwt>
<rscale>  0 0.34139395E+03</rscale>
<asrwt>0</asrwt>
<pdfrwt beam="1">  1       11 0.10000000E+01 0.28704196E+02</pdfrwt>
<pdfrwt beam="2">  1        2 0.49804716E-01 0.34139395E+03</pdfrwt>
<totfact> 0.12493220E+02</totfact>
</mgrwt>
</event>
<event>
 5    1  0.6729100E-004  0.2264746E+03  0.7818608E-02  0.1129146E+00
         11   -1    0    0    0    0  0.00000000000E+00  0.00000000000E+00  0.10003285288E+04  0.10003285288E+04  0.51100000000E-03 0. -1.
          2   -1    0    0  501    0 -0.00000000000E+00 -0.00000000000E+00 -0.56626374857E+02  0.56626374914E+02  0.25500000000E-02 0. -1.
         11    1    1    2    0    0 -0.40804128935E+02 -0.21676031664E+03  0.48960605004E+03  0.53699543391E+03  0.51100000000E-03 0. -1.
         22    1    1    2    0    0 -0.15007410644E+02 -0.78929873544E+01  0.65342972558E+02  0.67507226920E+02  0.00000000000E+00 0.  1.
          2    1    1    2  501    0  0.55811539579E+02  0.22465330399E+03  0.38875313130E+03  0.45245224284E+03  0.25500000000E-02 0. -1.
<mgrwt>
<rscale>  0 0.22647455E+03</rscale>
<asrwt>0</asrwt>
<pdfrwt beam="1">  1       11 0.10000000E+01 0.16956463E+02</pdfrwt>
<pdfrwt beam="2">  1        2 0.87146118E-02 0.22647455E+03</pdfrwt>
<totfact> 0.92866375E+02</totfact>
</mgrwt>
</event>
<event>
 5    1  0.6729100E-004  0.3506644E+03  0.7818608E-02  0.1062343E+00
         11   -1    0    0    0    0  0.00000000000E+00  0.00000000000E+00  0.10003351174E+04  0.10003351174E+04  0.51100000000E-03 0.  1.
          2   -1    0    0  501    0 -0.00000000000E+00 -0.00000000000E+00 -0.11132610008E+04  0.11132610008E+04  0.25500000000E-02 0.  1.
         11    1    1    2    0    0  0.25612157388E+03  0.10742743631E+03  0.43015486715E+03  0.51202746450E+03  0.51100000000E-03 0.  1.
         22    1    1    2    0    0  0.99693163042E+02 -0.14032261355E+03  0.48421501700E+03  0.51390013166E+03  0.00000000000E+00 0.  1.
          2    1    1    2  501    0 -0.35581473692E+03  0.32895177247E+02 -0.10272957676E+04  0.10876685220E+04  0.25500000000E-02 0.  1.
<mgrwt>
<rscale>  0 0.35066441E+03</rscale>
<asrwt>0</asrwt>
<pdfrwt beam="1">  1       11 0.10000000E+01 0.17213124E+03</pdfrwt>
<pdfrwt beam="2">  1        2 0.17132831E+00 0.35066441E+03</pdfrwt>
<totfact> 0.27688712E+01</totfact>
</mgrwt>
</event>
<event>
 5    1  0.6729100E-004  0.2281766E+03  0.7818608E-02  0.1127930E+00
         11   -1    0    0    0    0  0.00000000000E+00  0.00000000000E+00  0.10004032025E+04  0.10004032025E+04  0.51100000000E-03 0.  1.
          2   -1    0    0  501    0 -0.00000000000E+00 -0.00000000000E+00 -0.86160380512E+02  0.86160380549E+02  0.25500000000E-02 0.  1.
         11    1    1    2    0    0 -0.19537753679E+03  0.11322757203E+03  0.72236629708E+03  0.75683943614E+03  0.51100000000E-03 0.  1.
         22    1    1    2    0    0  0.11075177862E+02  0.22859809649E+02  0.60527206906E+02  0.65641246466E+02  0.00000000000E+00 0.  1.
          2    1    1    2  501    0  0.18430235892E+03 -0.13608738168E+03  0.13134931800E+03  0.26408290043E+03  0.25500000000E-02 0.  1.
<mgrwt>
<rscale>  0 0.22817656E+03</rscale>
<asrwt>0</asrwt>
<pdfrwt beam="1">  1       11 0.10000000E+01 0.25401387E+02</pdfrwt>
<pdfrwt beam="2">  1        2 0.13260787E-01 0.22817656E+03</pdfrwt>
<totfact> 0.55333115E+02</totfact>
</mgrwt>
</event>
<event>
 5    1  0.6729100E-004  0.1608202E+03  0.7818608E-02  0.1187774E+00
         11   -1    0    0    0    0  0.00000000000E+00  0.00000000000E+00  0.10001684415E+04  0.10001684415E+04  0.51100000000E-03 0. -1.
          2   -1    0    0  501    0 -0.00000000000E+00 -0.00000000000E+00 -0.14862838292E+03  0.14862838295E+03  0.25500000000E-02 0.  1.
         11    1    1    2    0    0  0.66608205328E+02  0.12157422272E+03  0.54855835800E+03  0.56580316081E+03  0.51100000000E-03 0. -1.
         22    1    1    2    0    0  0.76239523330E+02 -0.39937463249E+02  0.38825419417E+03  0.39767924912E+03  0.00000000000E+00 0. -1.
          2    1    1    2  501    0 -0.14284772866E+03 -0.81636759474E+02 -0.85272493555E+02  0.18531441456E+03  0.25500000000E-02 0.  1.
<mgrwt>
<rscale>  0 0.16082023E+03</rscale>
<asrwt>0</asrwt>
<pdfrwt beam="1">  1       11 0.10000000E+01 0.86066636E+02</pdfrwt>
<pdfrwt beam="2">  1        2 0.22869756E-01 0.16082023E+03</pdfrwt>
<totfact> 0.29041091E+02</totfact>
</mgrwt>
</event>
<event>
 5    1  0.6729100E-004  0.1477845E+03  0.7818608E-02  0.1203222E+00
         11   -1    0    0    0    0  0.00000000000E+00  0.00000000000E+00  0.10002073927E+04  0.10002073927E+04  0.51100000000E-03 0. -1.
          2   -1    0    0  501    0 -0.00000000000E+00 -0.00000000000E+00 -0.27596270870E+02  0.27596270988E+02  0.25500000000E-02 0. -1.
         11    1    1    2    0    0 -0.10764400403E+03 -0.10110610992E+03  0.64443615420E+03  0.66114116034E+03  0.51100000000E-03 0. -1.
         22    1    1    2    0    0  0.81945127832E+01 -0.84706223313E+01  0.52243742426E+02  0.53556606550E+02  0.00000000000E+00 0. -1.
          2    1    1    2  501    0  0.99449491243E+02  0.10957673225E+03  0.27593122523E+03  0.31310589682E+03  0.25500000000E-02 0. -1.
<mgrwt>
<rscale>  0 0.14778455E+03</rscale>
<asrwt>0</asrwt>
<pdfrwt beam="1">  1       11 0.10000000E+01 0.11785647E+02</pdfrwt>
<pdfrwt beam="2">  1        2 0.42464605E-02 0.14778455E+03</pdfrwt>
<totfact> 0.22877756E+03</totfact>
</mgrwt>
</event>
<event>
 5    1  0.6729100E-004  0.2707781E+03  0.7818608E-02  0.1103572E+00
         11   -1    0    0    0    0  0.00000000000E+00  0.00000000000E+00  0.10002231934E+04  0.10002231934E+04  0.51100000000E-03 0.  1.
          2   -1    0    0  501    0 -0.00000000000E+00 -0.00000000000E+00 -0.24465097518E+03  0.24465097519E+03  0.25500000000E-02 0.  1.
         11    1    1    2    0    0  0.13516781696E+03 -0.21836717001E+03  0.88469356088E+03  0.92121509776E+03  0.51100000000E-03 0.  1.
         22    1    1    2    0    0  0.10009955294E+02 -0.45603350596E+01  0.16916834676E+02  0.20178581622E+02  0.00000000000E+00 0. -1.
          2    1    1    2  501    0 -0.14517777226E+03  0.22292750507E+03 -0.14603817734E+03  0.30348048920E+03  0.25500000000E-02 0.  1.
<mgrwt>
<rscale>  0 0.26603244E+03</rscale>
<asrwt>0</asrwt>
<pdfrwt beam="1">  1       11 0.10000000E+01 0.27077805E+03</pdfrwt>
<pdfrwt beam="2">  1        2 0.37647011E-01 0.26603244E+03</pdfrwt>
<totfact> 0.16923392E+02</totfact>
</mgrwt>
</event>
<event>
 5    1  0.6729100E-004  0.1540742E+03  0.7818608E-02  0.1195554E+00
         11   -1    0    0    0    0  0.00000000000E+00  0.00000000000E+00  0.10001757203E+04  0.10001757203E+04  0.51100000000E-03 0. -1.
          2   -1    0    0  501    0 -0.00000000000E+00 -0.00000000000E+00 -0.23946800109E+02  0.23946800245E+02  0.25500000000E-02 0. -1.
         11    1    1    2    0    0  0.14960365731E+03  0.16643252370E+02  0.57355397903E+03  0.59297758726E+03  0.51100000000E-03 0. -1.
         22    1    1    2    0    0 -0.10853608243E+03 -0.13500447427E+02  0.32945730442E+03  0.34713752132E+03  0.00000000000E+00 0.  1.
          2    1    1    2  501    0 -0.41067574873E+02 -0.31428049431E+01  0.73217636717E+02  0.84007411946E+02  0.25500000000E-02 0. -1.
<mgrwt>
<rscale>  0 0.15407416E+03</rscale>
<asrwt>0</asrwt>
<pdfrwt beam="1">  1       11 0.10000000E+01 0.15052658E+03</pdfrwt>
<pdfrwt beam="2">  1        2 0.36847704E-02 0.15407416E+03</pdfrwt>
<totfact> 0.27728203E+03</totfact>
</mgrwt>
</event>
<event>
 5    1  0.6729100E-004  0.1425644E+03  0.7818608E-02  0.1412565E+00
         11   -1    0    0    0    0  0.00000000000E+00  0.00000000000E+00  0.10001030192E+04  0.10001030192E+04  0.51100000000E-03 0.  1.
         -2   -1    0    0    0  501 -0.00000000000E+00 -0.00000000000E+00 -0.34781672361E+02  0.34781672454E+02  0.25500000000E-02 0.  1.
         11    1    1    2    0    0  0.38737496463E+02  0.16076636503E+03  0.41747526397E+03  0.44903453518E+03  0.51100000000E-03 0.  1.
         22    1    1    2    0    0  0.99641936212E+01 -0.13187728628E+03  0.47786858573E+03  0.49583191609E+03  0.00000000000E+00 0.  1.
         -2    1    1    2    0  501 -0.48701690084E+02 -0.28889078750E+02  0.69977497134E+02  0.90018240372E+02  0.25500000000E-02 0.  1.
<mgrwt>
<rscale>  0 0.56625379E+02</rscale>
<asrwt>0</asrwt>
<pdfrwt beam="1">  1       11 0.10000000E+01 0.14256439E+03</pdfrwt>
<pdfrwt beam="2">  1       -2 0.53515776E-02 0.56625379E+02</pdfrwt>
<totfact> 0.12269922E+03</totfact>
</mgrwt>
</event>
<event>
 5    1  0.6729100E-004  0.1213929E+03  0.7818608E-02  0.1280562E+00
         11   -1    0    0    0    0  0.00000000000E+00  0.00000000000E+00  0.99993252973E+03  0.99993252973E+03  0.51100000000E-03 0. -1.
          2   -1    0    0  501    0 -0.00000000000E+00 -0.00000000000E+00 -0.44746384087E+03  0.44746384088E+03  0.25500000000E-02 0.  1.
         11    1    1    2    0    0  0.11354724043E+03 -0.92899893108E+01  0.32052239364E+03  0.34016743603E+03  0.51100000000E-03 0. -1.
         22    1    1    2    0    0 -0.11094834866E+03 -0.90549906688E+02  0.65606304863E+03  0.67151138892E+03  0.00000000000E+00 0. -1.
          2    1    1    2  501    0 -0.25988917710E+01  0.99839895999E+02 -0.42411675340E+03  0.43571754566E+03  0.25500000000E-02 0.  1.
<mgrwt>
<rscale>  0 0.99873716E+02</rscale>
<asrwt>0</asrwt>
<pdfrwt beam="1">  1       11 0.10000000E+01 0.12139291E+03</pdfrwt>
<pdfrwt beam="2">  1        2 0.68835944E-01 0.99873716E+02</pdfrwt>
<totfact> 0.88711960E+01</totfact>
</mgrwt>
</event>
<event>
 5    1  0.6729100E-004  0.1312624E+03  0.7818608E-02  0.1225594E+00
         11   -1    0    0    0    0  0.00000000000E+00  0.00000000000E+00  0.10004849558E+04  0.10004849558E+04  0.51100000000E-03 0.  1.
          2   -1    0    0  501    0 -0.00000000000E+00 -0.00000000000E+00 -0.82817350661E+02  0.82817350700E+02  0.25500000000E-02 0.  1.
         11    1    1    2    0    0 -0.14123259219E+03 -0.38578304507E+02  0.85979576020E+03  0.87217181789E+03  0.51100000000E-03 0.  1.
         22    1    1    2    0    0  0.19744101624E+02 -0.85850895083E+01  0.76510786740E+02  0.79482286066E+02  0.00000000000E+00 0.  1.
          2    1    1    2  501    0  0.12148849057E+03  0.47163394015E+02 -0.18638941796E+02  0.13164820254E+03  0.25500000000E-02 0.  1.
<mgrwt>
<rscale>  0 0.13126243E+03</rscale>
<asrwt>0</asrwt>
<pdfrwt beam="1">  1       11 0.10000000E+01 0.21529824E+02</pdfrwt>
<pdfrwt beam="2">  1        2 0.12747309E-01 0.13126243E+03</pdfrwt>
<totfact> 0.56612041E+02</totfact>
</mgrwt>
</event>
<event>
 5    1  0.6729100E-004  0.3443081E+03  0.7818608E-02  0.1064976E+00
         11   -1    0    0    0    0  0.00000000000E+00  0.00000000000E+00  0.10003083527E+04  0.10003083527E+04  0.51100000000E-03 0.  1.
          2   -1    0    0  501    0 -0.00000000000E+00 -0.00000000000E+00 -0.85587439092E+03  0.85587439092E+03  0.25500000000E-02 0.  1.
         11    1    1    2    0    0 -0.22105106928E+03  0.27582379525E+03  0.86391350106E+03  0.93342856105E+03  0.51100000000E-03 0.  1.
         22    1    1    2    0    0  0.56712716402E+00 -0.11846720879E+02  0.65060565387E+02  0.66132772491E+02  0.00000000000E+00 0.  1.
          2    1    1    2  501    0  0.22048394212E+03 -0.26397707437E+03 -0.78454010463E+03  0.85662141013E+03  0.25500000000E-02 0.  1.
<mgrwt>
<rscale>  0 0.34430812E+03</rscale>
<asrwt>0</asrwt>
<pdfrwt beam="1">  1       11 0.10000000E+01 0.11860288E+02</pdfrwt>
<pdfrwt beam="2">  1        2 0.13171358E+00 0.34430812E+03</pdfrwt>
<totfact> 0.40209814E+01</totfact>
</mgrwt>
</event>
<event>
 5    1  0.6729100E-004  0.1645366E+03  0.7818608E-02  0.1183668E+00
         11   -1    0    0    0    0  0.00000000000E+00  0.00000000000E+00  0.10003700933E+04  0.10003700933E+04  0.51100000000E-03 0.  1.
          2   -1    0    0  501    0 -0.00000000000E+00 -0.00000000000E+00 -0.13345872395E+03  0.13345872398E+03  0.25500000000E-02 0.  1.
         11    1    1    2    0    0  0.12162600048E+03 -0.94116331813E+02  0.89967559756E+03  0.91272501267E+03  0.51100000000E-03 0.  1.
         22    1    1    2    0    0  0.27633384966E+01 -0.14590701309E+02  0.38444757837E+02  0.41213153355E+02  0.00000000000E+00 0.  1.
          2    1    1    2  501    0 -0.12438933897E+03  0.10870703312E+03 -0.71208986062E+02  0.17989065124E+03  0.25500000000E-02 0.  1.
<mgrwt>
<rscale>  0 0.16453656E+03</rscale>
<asrwt>0</asrwt>
<pdfrwt beam="1">  1       11 0.10000000E+01 0.14850071E+02</pdfrwt>
<pdfrwt beam="2">  1        2 0.20539710E-01 0.16453656E+03</pdfrwt>
<totfact> 0.32797563E+02</totfact>
</mgrwt>
</event>
<event>
 5    1  0.6729100E-004  0.2264665E+03  0.7818608E-02  0.1129152E+00
         11   -1    0    0    0    0  0.00000000000E+00  0.00000000000E+00  0.10000354625E+04  0.10000354625E+04  0.51100000000E-03 0. -1.
          2   -1    0    0  501    0 -0.00000000000E+00 -0.00000000000E+00 -0.60955957744E+02  0.60955957797E+02  0.25500000000E-02 0. -1.
         11    1    1    2    0    0 -0.19817990878E+03 -0.84731103206E+02  0.22377288825E+03  0.31069107102E+03  0.51100000000E-03 0. -1.
         22    1    1    2    0    0  0.13098786462E+02  0.30009008191E+02  0.12651523268E+03  0.13068367488E+03  0.00000000000E+00 0. -1.
          2    1    1    2  501    0  0.18508112232E+03  0.54722095015E+02  0.58879138380E+03  0.61961667437E+03  0.25500000000E-02 0. -1.
<mgrwt>
<rscale>  0 0.22646646E+03</rscale>
<asrwt>0</asrwt>
<pdfrwt beam="1">  1       11 0.10000000E+01 0.21553348E+03</pdfrwt>
<pdfrwt beam="2">  1        2 0.93781720E-02 0.22646646E+03</pdfrwt>
<totfact> 0.84680049E+02</totfact>
</mgrwt>
</event>
<event>
 5    1  0.6729100E-004  0.8583953E+02  0.7818608E-02  0.1385955E+00
         11   -1    0    0    0    0  0.00000000000E+00  0.00000000000E+00  0.10007303568E+04  0.10007303568E+04  0.51100000000E-03 0.  1.
          2   -1    0    0  501    0 -0.00000000000E+00 -0.00000000000E+00 -0.20590368852E+02  0.20590369010E+02  0.25500000000E-02 0.  1.
         11    1    1    2    0    0 -0.60798106646E+02  0.10679987918E+03  0.27992168346E+03  0.30571027597E+03  0.51100000000E-03 0.  1.
         22    1    1    2    0    0  0.13178850581E+02 -0.44203422655E+02  0.98401387559E+02  0.10867592995E+03  0.00000000000E+00 0.  1.
          2    1    1    2  501    0  0.47619256065E+02 -0.62596456530E+02  0.60181691691E+03  0.60693451986E+03  0.25500000000E-02 0.  1.
<mgrwt>
<rscale>  0 0.62924143E+02</rscale>
<asrwt>0</asrwt>
<pdfrwt beam="1">  1       11 0.10000000E+01 0.85839530E+02</pdfrwt>
<pdfrwt beam="2">  1        2 0.31700626E-02 0.62924143E+02</pdfrwt>
<totfact> 0.30794482E+03</totfact>
</mgrwt>
</event>
<event>
 5    1  0.6729100E-004  0.1339166E+03  0.7818608E-02  0.1221757E+00
         11   -1    0    0    0    0  0.00000000000E+00  0.00000000000E+00  0.10003465725E+04  0.10003465725E+04  0.51100000000E-03 0. -1.
          2   -1    0    0  501    0 -0.00000000000E+00 -0.00000000000E+00 -0.33162791584E+02  0.33162791682E+02  0.25500000000E-02 0. -1.
         11    1    1    2    0    0 -0.14014171029E+03 -0.19095677118E+02  0.32668699573E+03  0.35598979905E+03  0.51100000000E-03 0. -1.
         22    1    1    2    0    0  0.14363238311E+02  0.71589064701E+02  0.33707937715E+03  0.34489680094E+03  0.00000000000E+00 0. -1.
          2    1    1    2  501    0  0.12577847198E+03 -0.52493387583E+02  0.30341740808E+03  0.33262276423E+03  0.25500000000E-02 0. -1.
<mgrwt>
<rscale>  0 0.13391656E+03</rscale>
<asrwt>0</asrwt>
<pdfrwt beam="1">  1       11 0.10000000E+01 0.73015730E+02</pdfrwt>
<pdfrwt beam="2">  1        2 0.51037360E-02 0.13391656E+03</pdfrwt>
<totfact> 0.17822340E+03</totfact>
</mgrwt>
</event>
<event>
 5    1  0.6729100E-004  0.1683297E+03  0.7818608E-02  0.1179601E+00
         11   -1    0    0    0    0  0.00000000000E+00  0.00000000000E+00  0.10003718789E+04  0.10003718789E+04  0.51100000000E-03 0. -1.
          2   -1    0    0  501    0 -0.00000000000E+00 -0.00000000000E+00 -0.15062712609E+03  0.15062712611E+03  0.25500000000E-02 0. -1.
         11    1    1    2    0    0  0.13266807830E+03  0.13296095257E+03  0.86352053095E+03  0.88371213712E+03  0.51100000000E-03 0. -1.
         22    1    1    2    0    0 -0.11775757123E+02 -0.17442439582E+02  0.75051616092E+02  0.77946470301E+02  0.00000000000E+00 0. -1.
          2    1    1    2  501    0 -0.12089232118E+03 -0.11551851298E+03 -0.88827394282E+02  0.18934039755E+03  0.25500000000E-02 0. -1.
<mgrwt>
<rscale>  0 0.16832969E+03</rscale>
<asrwt>0</asrwt>
<pdfrwt beam="1">  1       11 0.10000000E+01 0.21045359E+02</pdfrwt>
<pdfrwt beam="2">  1        2 0.23182021E-01 0.16832969E+03</pdfrwt>
<totfact> 0.28637336E+02</totfact>
</mgrwt>
</event>
<event>
 5    1  0.6729100E-004  0.1058521E+03  0.7818608E-02  0.1268450E+00
         11   -1    0    0    0    0  0.00000000000E+00  0.00000000000E+00  0.10000145950E+04  0.10000145950E+04  0.51100000000E-03 0. -1.
         -2   -1    0    0    0  501 -0.00000000000E+00 -0.00000000000E+00 -0.86989237220E+02  0.86989237257E+02  0.25500000000E-02 0.  1.
         11    1    1    2    0    0  0.16677420636E+03  0.20951434929E+01  0.61941086367E+03  0.64147318226E+03  0.51100000000E-03 0. -1.
         22    1    1    2    0    0 -0.64825842756E+02  0.75005000709E+01  0.33035583354E+03  0.33673969790E+03  0.00000000000E+00 0. -1.
         -2    1    1    2    0  501 -0.10194836360E+03 -0.95956435639E+01 -0.36741339465E+02  0.10879095205E+03  0.25500000000E-02 0.  1.
<mgrwt>
<rscale>  0 0.10585213E+03</rscale>
<asrwt>0</asrwt>
<pdfrwt beam="1">  1       11 0.10000000E+01 0.65258313E+02</pdfrwt>
<pdfrwt beam="2">  1       -2 0.13383155E-01 0.10585213E+03</pdfrwt>
<totfact> 0.31691437E+02</totfact>
</mgrwt>
</event>
<event>
 5    1  0.6729100E-004  0.3529440E+03  0.7818608E-02  0.1061413E+00
         11   -1    0    0    0    0  0.00000000000E+00  0.00000000000E+00  0.10000633229E+04  0.10000633229E+04  0.51100000000E-03 0. -1.
         -2   -1    0    0    0  501 -0.00000000000E+00 -0.00000000000E+00 -0.12487988392E+03  0.12487988395E+03  0.25500000000E-02 0.  1.
         11    1    1    2    0    0  0.13942920114E+03  0.32024497457E+03  0.49915651355E+03  0.60922456524E+03  0.51100000000E-03 0. -1.
         22    1    1    2    0    0 -0.11822798435E+03 -0.29597679459E+03  0.35578308824E+03  0.47766277340E+03  0.00000000000E+00 0.  1.
         -2    1    1    2    0  501 -0.21201216798E+02 -0.24268179983E+02  0.20243837164E+02  0.38055868181E+02  0.25500000000E-02 0.  1.
<mgrwt>
<rscale>  0 0.35294400E+03</rscale>
<asrwt>0</asrwt>
<pdfrwt beam="1">  1       11 0.10000000E+01 0.34928118E+03</pdfrwt>
<pdfrwt beam="2">  1       -2 0.19213506E-01 0.35294400E+03</pdfrwt>
<totfact> 0.18207540E+02</totfact>
</mgrwt>
</event>
<event>
 5    1  0.6729100E-004  0.3428714E+03  0.7818608E-02  0.1070968E+00
         11   -1    0    0    0    0  0.00000000000E+00  0.00000000000E+00  0.10007981584E+04  0.10007981584E+04  0.51100000000E-03 0.  1.
          2   -1    0    0  501    0 -0.00000000000E+00 -0.00000000000E+00 -0.10595606191E+04  0.10595606191E+04  0.25500000000E-02 0.  1.
         11    1    1    2    0    0 -0.20562074395E+03  0.17379867876E+03  0.66322182967E+03  0.71578562883E+03  0.51100000000E-03 0.  1.
         22    1    1    2    0    0 -0.64428465144E+02  0.16530781855E+02  0.28090179962E+03  0.28866956005E+03  0.00000000000E+00 0.  1.
          2    1    1    2  501    0  0.27004920909E+03 -0.19032946062E+03 -0.10028860900E+04  0.10559035886E+04  0.25500000000E-02 0.  1.
<mgrwt>
<rscale>  0 0.33038141E+03</rscale>
<asrwt>0</asrwt>
<pdfrwt beam="1">  1       11 0.10000000E+01 0.34287140E+03</pdfrwt>
<pdfrwt beam="2">  1        2 0.16313943E+00 0.33038141E+03</pdfrwt>
<totfact> 0.29885348E+01</totfact>
</mgrwt>
</event>
<event>
 5    1  0.6729100E-004  0.1426646E+03  0.7818608E-02  0.1209788E+00
         11   -1    0    0    0    0  0.00000000000E+00  0.00000000000E+00  0.99998760300E+03  0.99998760300E+03  0.51100000000E-03 0.  1.
          2   -1    0    0  501    0 -0.00000000000E+00 -0.00000000000E+00 -0.25336310677E+03  0.25336310678E+03  0.25500000000E-02 0.  1.
         11    1    1    2    0    0  0.26024488716E+02 -0.86003852137E+02  0.36242062493E+02  0.96888718070E+02  0.51100000000E-03 0.  1.
         22    1    1    2    0    0  0.11619637612E+03  0.10152935475E+03  0.90324431684E+03  0.91632969154E+03  0.00000000000E+00 0.  1.
          2    1    1    2  501    0 -0.14222086483E+03 -0.15525502617E+02 -0.19286188310E+03  0.24013230017E+03  0.25500000000E-02 0.  1.
<mgrwt>
<rscale>  0 0.14266459E+03</rscale>
<asrwt>0</asrwt>
<pdfrwt beam="1">  1       11 0.10000000E+01 0.89855132E+02</pdfrwt>
<pdfrwt beam="2">  1        2 0.38978455E-01 0.14266459E+03</pdfrwt>
<totfact> 0.16210330E+02</totfact>
</mgrwt>
</event>
<event>
 5    1  0.6729100E-004  0.1712802E+03  0.7818608E-02  0.1176519E+00
         11   -1    0    0    0    0  0.00000000000E+00  0.00000000000E+00  0.10004029115E+04  0.10004029115E+04  0.51100000000E-03 0.  1.
         -2   -1    0    0    0  501 -0.00000000000E+00 -0.00000000000E+00 -0.30659650355E+02  0.30659650461E+02  0.25500000000E-02 0. -1.
         11    1    1    2    0    0 -0.15319579147E+03 -0.67437400481E+01  0.65523354850E+03  0.67293791068E+03  0.51100000000E-03 0.  1.
         22    1    1    2    0    0  0.81324985450E+02  0.12880093561E+01  0.24437913043E+03  0.25755887019E+03  0.00000000000E+00 0.  1.
         -2    1    1    2    0  501  0.71870806024E+02  0.54557306920E+01  0.70130582207E+02  0.10056578107E+03  0.25500000000E-02 0. -1.
<mgrwt>
<rscale>  0 0.17128020E+03</rscale>
<asrwt>0</asrwt>
<pdfrwt beam="1">  1       11 0.10000000E+01 0.15334415E+03</pdfrwt>
<pdfrwt beam="2">  1       -2 0.47187696E-02 0.17128020E+03</pdfrwt>
<totfact> 0.16440843E+03</totfact>
</mgrwt>
</event>
<event>
 5    1  0.6729100E-004  0.1857417E+03  0.7818608E-02  0.1162359E+00
         11   -1    0    0    0    0  0.00000000000E+00  0.00000000000E+00  0.10002559004E+04  0.10002559004E+04  0.51100000000E-03 0. -1.
         -2   -1    0    0    0  501 -0.00000000000E+00 -0.00000000000E+00 -0.44882066155E+02  0.44882066227E+02  0.25500000000E-02 0. -1.
         11    1    1    2    0    0  0.14268230652E+03 -0.11384662456E+03  0.73305098200E+03  0.75543566022E+03  0.51100000000E-03 0. -1.
         22    1    1    2    0    0 -0.41347524442E+02  0.18179748155E+02  0.69416459910E+02  0.82817666756E+02  0.00000000000E+00 0. -1.
         -2    1    1    2    0  501 -0.10133478208E+03  0.95666876401E+02  0.15290639232E+03  0.20688463964E+03  0.25500000000E-02 0. -1.
<mgrwt>
<rscale>  0 0.18574169E+03</rscale>
<asrwt>0</asrwt>
<pdfrwt beam="1">  1       11 0.10000000E+01 0.18253573E+03</pdfrwt>
<pdfrwt beam="2">  1       -2 0.69067000E-02 0.18574169E+03</pdfrwt>
<totfact> 0.92627074E+02</totfact>
</mgrwt>
</event>
<event>
 5    1  0.6729100E-004  0.8403570E+02  0.7818608E-02  0.1317974E+00
         11   -1    0    0    0    0  0.00000000000E+00  0.00000000000E+00  0.10001563547E+04  0.10001563547E+04  0.51100000000E-03 0.  1.
         -2   -1    0    0    0  501 -0.00000000000E+00 -0.00000000000E+00 -0.12615797553E+03  0.12615797556E+03  0.25500000000E-02 0. -1.
         11    1    1    2    0    0  0.12623994716E+03 -0.18687245938E+02  0.77059136205E+03  0.78108692518E+03  0.51100000000E-03 0.  1.
         22    1    1    2    0    0 -0.54181426537E+02  0.61305734693E+02  0.20078169938E+03  0.21681169455E+03  0.00000000000E+00 0. -1.
         -2    1    1    2    0  501 -0.72058520624E+02 -0.42618488754E+02 -0.97374682216E+02  0.12841571057E+03  0.25500000000E-02 0. -1.
<mgrwt>
<rscale>  0 0.84035700E+02</rscale>
<asrwt>0</asrwt>
<pdfrwt beam="1">  1       11 0.10000000E+01 0.81816991E+02</pdfrwt>
<pdfrwt beam="2">  1       -2 0.19411953E-01 0.84035700E+02</pdfrwt>
<totfact> 0.17073790E+02</totfact>
</mgrwt>
</event>
<event>
 5    1  0.6729100E-004  0.1824334E+03  0.7818608E-02  0.1406367E+00
         11   -1    0    0    0    0  0.00000000000E+00  0.00000000000E+00  0.10001886130E+04  0.10001886130E+04  0.51100000000E-03 0. -1.
         -2   -1    0    0    0  501 -0.00000000000E+00 -0.00000000000E+00 -0.16780952434E+03  0.16780952436E+03  0.25500000000E-02 0.  1.
         11    1    1    2    0    0  0.15253238609E+03  0.95346379434E+02  0.84126434577E+03  0.86028062883E+03  0.51100000000E-03 0. -1.
         22    1    1    2    0    0 -0.20026423297E+03 -0.62374968223E+02  0.59510983357E+02  0.21803200868E+03  0.00000000000E+00 0.  1.
         -2    1    1    2    0  501  0.47731846876E+02 -0.32971411211E+02 -0.68396240476E+02  0.89685499838E+02  0.25500000000E-02 0.  1.
<mgrwt>
<rscale>  0 0.58012440E+02</rscale>
<asrwt>0</asrwt>
<pdfrwt beam="1">  1       11 0.10000000E+01 0.18243337E+03</pdfrwt>
<pdfrwt beam="2">  1       -2 0.25821719E-01 0.58012440E+02</pdfrwt>
<totfact> 0.10386552E+02</totfact>
</mgrwt>
</event>
<event>
 5    1  0.6729100E-004  0.5024708E+02  0.7818608E-02  0.1678857E+00
         11   -1    0    0    0    0  0.00000000000E+00  0.00000000000E+00  0.10003661453E+04  0.10003661453E+04  0.51100000000E-03 0. -1.
          2   -1    0    0  501    0 -0.00000000000E+00 -0.00000000000E+00 -0.76052021521E+01  0.76052025797E+01  0.25500000000E-02 0. -1.
         11    1    1    2    0    0  0.24262854622E+02  0.33745561025E+02  0.63462040321E+02  0.75860922518E+02  0.51100000000E-03 0. -1.
         22    1    1    2    0    0  0.10551834479E+02  0.39683225758E+01  0.47516967976E+02  0.48835960527E+02  0.00000000000E+00 0. -1.
          2    1    1    2  501    0 -0.34814689101E+02 -0.37713883601E+02  0.88178193482E+03  0.88327446480E+03  0.25500000000E-02 0. -1.
<mgrwt>
<rscale>  0 0.23800284E+02</rscale>
<asrwt>0</asrwt>
<pdfrwt beam="1">  1       11 0.10000000E+01 0.50247083E+02</pdfrwt>
<pdfrwt beam="2">  1        2 0.11704595E-02 0.23800284E+02</pdfrwt>
<totfact> 0.96654294E+03</totfact>
</mgrwt>
</event>
<event>
 5    1  0.6729100E-004  0.9535953E+02  0.7818608E-02  0.1290368E+00
         11   -1    0    0    0    0  0.00000000000E+00  0.00000000000E+00  0.10001829705E+04  0.10001829705E+04  0.51100000000E-03 0.  1.
          2   -1    0    0  501    0 -0.00000000000E+00 -0.00000000000E+00 -0.34748491970E+02  0.34748492064E+02  0.25500000000E-02 0.  1.
         11    1    1    2    0    0 -0.12130993617E+03 -0.11869113084E+01  0.68561326547E+03  0.69626364199E+03  0.51100000000E-03 0.  1.
         22    1    1    2    0    0  0.35318788655E+02  0.37405072588E+02  0.22422965918E+03  0.23005542015E+03  0.00000000000E+00 0.  1.
          2    1    1    2  501    0  0.85991147520E+02 -0.36218161279E+02  0.55591553915E+02  0.10861240045E+03  0.25500000000E-02 0.  1.
<mgrwt>
<rscale>  0 0.95359535E+02</rscale>
<asrwt>0</asrwt>
<pdfrwt beam="1">  1       11 0.10000000E+01 0.51444692E+02</pdfrwt>
<pdfrwt beam="2">  1        2 0.53468998E-02 0.95359535E+02</pdfrwt>
<totfact> 0.16306003E+03</totfact>
</mgrwt>
</event>
<event>
 5    1  0.6729100E-004  0.1011490E+03  0.7818608E-02  0.1277898E+00
         11   -1    0    0    0    0  0.00000000000E+00  0.00000000000E+00  0.10000869506E+04  0.10000869506E+04  0.51100000000E-03 0. -1.
          2   -1    0    0  501    0 -0.00000000000E+00 -0.00000000000E+00 -0.60804582865E+02  0.60804582919E+02  0.25500000000E-02 0. -1.
         11    1    1    2    0    0 -0.90573320914E+02 -0.57700038563E+02  0.62448136333E+03  0.63364800485E+03  0.51100000000E-03 0. -1.
         22    1    1    2    0    0  0.47338783954E+02 -0.34534123631E+02  0.31992823826E+03  0.32525012498E+03  0.00000000000E+00 0.  1.
          2    1    1    2  501    0  0.43234536960E+02  0.92234162193E+02 -0.51272338565E+01  0.10199340368E+03  0.25500000000E-02 0. -1.
<mgrwt>
<rscale>  0 0.10114903E+03</rscale>
<asrwt>0</asrwt>
<pdfrwt beam="1">  1       11 0.10000000E+01 0.58596640E+02</pdfrwt>
<pdfrwt beam="2">  1        2 0.93553643E-02 0.10114903E+03</pdfrwt>
<totfact> 0.81092207E+02</totfact>
</mgrwt>
</event>
<event>
 5    1  0.6729100E-004  0.1251671E+03  0.7818608E-02  0.1234808E+00
         11   -1    0    0    0    0  0.00000000000E+00  0.00000000000E+00  0.10003609773E+04  0.10003609773E+04  0.51100000000E-03 0. -1.
          2   -1    0    0  501    0 -0.00000000000E+00 -0.00000000000E+00 -0.41554784913E+02  0.41554784991E+02  0.25500000000E-02 0. -1.
         11    1    1    2    0    0 -0.98564007366E+02 -0.94664552701E+02  0.82485388958E+03  0.83609818816E+03  0.51100000000E-03 0. -1.
         22    1    1    2    0    0  0.91452458766E+01  0.92390517946E+01  0.60717680431E+02  0.62093738147E+02  0.00000000000E+00 0.  1.
          2    1    1    2  501    0  0.89418761490E+02  0.85425500907E+02  0.73234622391E+02  0.14372383600E+03  0.25500000000E-02 0. -1.
<mgrwt>
<rscale>  0 0.12516712E+03</rscale>
<asrwt>0</asrwt>
<pdfrwt beam="1">  1       11 0.10000000E+01 0.12999831E+02</pdfrwt>
<pdfrwt beam="2">  1        2 0.63953514E-02 0.12516712E+03</pdfrwt>
<totfact> 0.13249512E+03</totfact>
</mgrwt>
</event>
<event>
 5    1  0.6729100E-004  0.1858558E+03  0.7818608E-02  0.1179599E+00
         11   -1    0    0    0    0  0.00000000000E+00  0.00000000000E+00  0.10003889090E+04  0.10003889090E+04  0.51100000000E-03 0.  1.
          2   -1    0    0  501    0 -0.00000000000E+00 -0.00000000000E+00 -0.72991056723E+03  0.72991056724E+03  0.25500000000E-02 0.  1.
         11    1    1    2    0    0 -0.25948323696E+02  0.12405057256E+03  0.66529824938E+03  0.67726185533E+03  0.51100000000E-03 0.  1.
         22    1    1    2    0    0  0.39795373938E+02  0.43710792472E+02  0.31655034514E+03  0.32202240011E+03  0.00000000000E+00 0.  1.
          2    1    1    2  501    0 -0.13847050242E+02 -0.16776136503E+03 -0.71137025280E+03  0.73101522075E+03  0.25500000000E-02 0.  1.
<mgrwt>
<rscale>  0 0.16833186E+03</rscale>
<asrwt>0</asrwt>
<pdfrwt beam="1">  1       11 0.10000000E+01 0.18585575E+03</pdfrwt>
<pdfrwt beam="2">  1        2 0.11233760E+00 0.16833186E+03</pdfrwt>
<totfact> 0.50474715E+01</totfact>
</mgrwt>
</event>
<event>
 5    1  0.6729100E-004  0.5686779E+02  0.7818608E-02  0.1411467E+00
         11   -1    0    0    0    0  0.00000000000E+00  0.00000000000E+00  0.99994524606E+03  0.99994524606E+03  0.51100000000E-03 0. -1.
          2   -1    0    0  501    0 -0.00000000000E+00 -0.00000000000E+00 -0.20223326713E+02  0.20223326874E+02  0.25500000000E-02 0. -1.
         11    1    1    2    0    0  0.54347573886E+02 -0.17046680309E+02  0.24085956626E+02  0.61841583128E+02  0.51100000000E-03 0. -1.
         22    1    1    2    0    0 -0.50484492705E+01 -0.93276843132E+01  0.58728017256E+02  0.59678074245E+02  0.00000000000E+00 0.  1.
          2    1    1    2  501    0 -0.49299124616E+02  0.26374364622E+02  0.89690794546E+03  0.89864891556E+03  0.25500000000E-02 0. -1.
<mgrwt>
<rscale>  0 0.56867788E+02</rscale>
<asrwt>0</asrwt>
<pdfrwt beam="1">  1       11 0.10000000E+01 0.10606250E+02</pdfrwt>
<pdfrwt beam="2">  1        2 0.31111106E-02 0.56867788E+02</pdfrwt>
<totfact> 0.31167292E+03</totfact>
</mgrwt>
</event>
<event>
 5    1  0.6729100E-004  0.1348952E+03  0.7818608E-02  0.1220368E+00
         11   -1    0    0    0    0  0.00000000000E+00  0.00000000000E+00  0.10003057112E+04  0.10003057112E+04  0.51100000000E-03 0. -1.
         -2   -1    0    0    0  501 -0.00000000000E+00 -0.00000000000E+00 -0.43667836872E+02  0.43667836947E+02  0.25500000000E-02 0.  1.
         11    1    1    2    0    0 -0.55057480030E+02 -0.13281414415E+03  0.73004299927E+03  0.74406565824E+03  0.51100000000E-03 0. -1.
         22    1    1    2    0    0 -0.18008543893E+02  0.20815313174E+02  0.13510646635E+03  0.13788162374E+03  0.00000000000E+00 0. -1.
         -2    1    1    2    0  501  0.73066023923E+02  0.11199883098E+03  0.91488408707E+02  0.16202626616E+03  0.25500000000E-02 0.  1.
<mgrwt>
<rscale>  0 0.13489522E+03</rscale>
<asrwt>0</asrwt>
<pdfrwt beam="1">  1       11 0.10000000E+01 0.27524260E+02</pdfrwt>
<pdfrwt beam="2">  1       -2 0.67201824E-02 0.13489522E+03</pdfrwt>
<totfact> 0.94385773E+02</totfact>
</mgrwt>
</event>
<event>
 5    1  0.6729100E-004  0.1274270E+03  0.7818608E-02  0.1377939E+00
         11   -1    0    0    0    0  0.00000000000E+00  0.00000000000E+00  0.99997042712E+03  0.99997042712E+03  0.51100000000E-03 0. -1.
         -2   -1    0    0    0  501 -0.00000000000E+00 -0.00000000000E+00 -0.17104150689E+03  0.17104150691E+03  0.25500000000E-02 0. -1.
         11    1    1    2    0    0  0.10537939200E+03  0.12454545931E+03  0.49975965766E+03  0.52571484962E+03  0.51100000000E-03 0. -1.
         22    1    1    2    0    0 -0.44228570367E+02 -0.10248379579E+03  0.47377739091E+03  0.48674850896E+03  0.00000000000E+00 0. -1.
         -2    1    1    2    0  501 -0.61150821628E+02 -0.22061663516E+02 -0.14460812835E+03  0.15854857544E+03  0.25500000000E-02 0. -1.
<mgrwt>
<rscale>  0 0.65008769E+02</rscale>
<asrwt>0</asrwt>
<pdfrwt beam="1">  1       11 0.10000000E+01 0.12742698E+03</pdfrwt>
<pdfrwt beam="2">  1       -2 0.26313299E-01 0.65008769E+02</pdfrwt>
<totfact> 0.10093484E+02</totfact>
</mgrwt>
</event>
<event>
 5    1  0.6729100E-004  0.1767436E+03  0.7818608E-02  0.1170992E+00
         11   -1    0    0    0    0  0.00000000000E+00  0.00000000000E+00  0.10002966208E+04  0.10002966208E+04  0.51100000000E-03 0. -1.
          2   -1    0    0  501    0 -0.00000000000E+00 -0.00000000000E+00 -0.43897455428E+02  0.43897455502E+02  0.25500000000E-02 0. -1.
         11    1    1    2    0    0 -0.16673361834E+03  0.21338760221E+02  0.76673122071E+03  0.78494089394E+03  0.51100000000E-03 0. -1.
         22    1    1    2    0    0  0.66692180486E+02 -0.36946859781E+01  0.38417118786E+02  0.77054348731E+02  0.00000000000E+00 0. -1.
          2    1    1    2  501    0  0.10004143785E+03 -0.17644074243E+02  0.15125082593E+03  0.18219883368E+03  0.25500000000E-02 0. -1.
<mgrwt>
<rscale>  0 0.17674355E+03</rscale>
<asrwt>0</asrwt>
<pdfrwt beam="1">  1       11 0.10000000E+01 0.16809355E+03</pdfrwt>
<pdfrwt beam="2">  1        2 0.67554577E-02 0.17674355E+03</pdfrwt>
<totfact> 0.12654745E+03</totfact>
</mgrwt>
</event>
<event>
 5    1  0.6729100E-004  0.1190293E+03  0.7818608E-02  0.1302419E+00
         11   -1    0    0    0    0  0.00000000000E+00  0.00000000000E+00  0.10004743305E+04  0.10004743305E+04  0.51100000000E-03 0. -1.
          2   -1    0    0  501    0 -0.00000000000E+00 -0.00000000000E+00 -0.30044390254E+02  0.30044390362E+02  0.25500000000E-02 0. -1.
         11    1    1    2    0    0 -0.13935922571E+03  0.10194803596E+02  0.49417777216E+03  0.51355291676E+03  0.51100000000E-03 0. -1.
         22    1    1    2    0    0  0.79338561910E+02 -0.77498067813E+02  0.26101693828E+03  0.28360253876E+03  0.00000000000E+00 0. -1.
          2    1    1    2  501    0  0.60020663800E+02  0.67303264217E+02  0.21523522978E+03  0.23336326533E+03  0.25500000000E-02 0. -1.
<mgrwt>
<rscale>  0 0.90178764E+02</rscale>
<asrwt>0</asrwt>
<pdfrwt beam="1">  1       11 0.10000000E+01 0.11902931E+03</pdfrwt>
<pdfrwt beam="2">  1        2 0.46244062E-02 0.90178764E+02</pdfrwt>
<totfact> 0.19567887E+03</totfact>
</mgrwt>
</event>
<event>
 5    1  0.6729100E-004  0.2227909E+03  0.7818608E-02  0.1134150E+00
         11   -1    0    0    0    0  0.00000000000E+00  0.00000000000E+00  0.10003314978E+04  0.10003314978E+04  0.51100000000E-03 0. -1.
          2   -1    0    0  501    0 -0.00000000000E+00 -0.00000000000E+00 -0.49244500281E+02  0.49244500347E+02  0.25500000000E-02 0. -1.
         11    1    1    2    0    0 -0.19542987802E+03 -0.75299095772E+02  0.46985810386E+03  0.51442145058E+03  0.51100000000E-03 0. -1.
         22    1    1    2    0    0 -0.88019470444E+01 -0.55233895082E+01  0.51603555567E+02  0.52639424869E+02  0.00000000000E+00 0.  1.
          2    1    1    2  501    0  0.20423182507E+03  0.80822485281E+02  0.42962533808E+03  0.48251512269E+03  0.25500000000E-02 0. -1.
<mgrwt>
<rscale>  0 0.21964269E+03</rscale>
<asrwt>0</asrwt>
<pdfrwt beam="1">  1       11 0.10000000E+01 0.22279088E+03</pdfrwt>
<pdfrwt beam="2">  1        2 0.75785882E-02 0.21964269E+03</pdfrwt>
<totfact> 0.11070599E+03</totfact>
</mgrwt>
</event>
<event>
 5    1  0.6729100E-004  0.1137007E+03  0.7818608E-02  0.1253866E+00
         11   -1    0    0    0    0  0.00000000000E+00  0.00000000000E+00  0.99994164321E+03  0.99994164321E+03  0.51100000000E-03 0.  1.
          2   -1    0    0  501    0 -0.00000000000E+00 -0.00000000000E+00 -0.14246873639E+02  0.14246873867E+02  0.25500000000E-02 0.  1.
         11    1    1    2    0    0  0.10601822010E+03  0.42824118974E+02  0.51371275221E+03  0.52628372570E+03  0.51100000000E-03 0.  1.
         22    1    1    2    0    0 -0.51051740379E+01  0.88432714596E+01  0.42843142896E+02  0.44043173651E+02  0.00000000000E+00 0.  1.
          2    1    1    2  501    0 -0.10091304607E+03 -0.51667390434E+02  0.42913887447E+03  0.44386161772E+03  0.25500000000E-02 0.  1.
<mgrwt>
<rscale>  0 0.11370075E+03</rscale>
<asrwt>0</asrwt>
<pdfrwt beam="1">  1       11 0.10000000E+01 0.10211085E+02</pdfrwt>
<pdfrwt beam="2">  1        2 0.21916988E-02 0.11370075E+03</pdfrwt>
<totfact> 0.54041750E+03</totfact>
</mgrwt>
</event>
<event>
 5    1  0.6729100E-004  0.1930121E+03  0.7818608E-02  0.1160348E+00
         11   -1    0    0    0    0  0.00000000000E+00  0.00000000000E+00  0.10002045466E+04  0.10002045466E+04  0.51100000000E-03 0. -1.
         -2   -1    0    0    0  501 -0.00000000000E+00 -0.00000000000E+00 -0.58369731816E+02  0.58369731871E+02  0.25500000000E-02 0.  1.
         11    1    1    2    0    0  0.86173149313E+02 -0.13071785295E+03  0.72172346804E+03  0.73851048270E+03  0.51100000000E-03 0. -1.
         22    1    1    2    0    0  0.12741376551E+02 -0.29066672235E+02  0.78760938836E+02  0.84914660674E+02  0.00000000000E+00 0.  1.
         -2    1    1    2    0  501 -0.98914525864E+02  0.15978452518E+03  0.14135040791E+03  0.23514913510E+03  0.25500000000E-02 0.  1.
<mgrwt>
<rscale>  0 0.18792333E+03</rscale>
<asrwt>0</asrwt>
<pdfrwt beam="1">  1       11 0.10000000E+01 0.19301213E+03</pdfrwt>
<pdfrwt beam="2">  1       -2 0.89817953E-02 0.18792333E+03</pdfrwt>
<totfact> 0.61614190E+02</totfact>
</mgrwt>
</event>
<event>
 5    1  0.6729100E-004  0.1150524E+03  0.7818608E-02  0.1559246E+00
         11   -1    0    0    0    0  0.00000000000E+00  0.00000000000E+00  0.10002096396E+04  0.10002096396E+04  0.51100000000E-03 0. -1.
          2   -1    0    0  501    0 -0.00000000000E+00 -0.00000000000E+00 -0.37895278812E+02  0.37895278898E+02  0.25500000000E-02 0. -1.
         11    1    1    2    0    0 -0.15088316858E+02  0.11720436481E+03  0.44240948031E+03  0.45791993700E+03  0.51100000000E-03 0. -1.
         22    1    1    2    0    0  0.46588622700E+02 -0.10486846231E+03  0.53201751784E+03  0.54425227003E+03  0.00000000000E+00 0. -1.
          2    1    1    2  501    0 -0.31500305842E+02 -0.12335902506E+02 -0.12112637399E+02  0.35932711421E+02  0.25500000000E-02 0. -1.
<mgrwt>
<rscale>  0 0.33829629E+02</rscale>
<asrwt>0</asrwt>
<pdfrwt beam="1">  1       11 0.10000000E+01 0.11505241E+03</pdfrwt>
<pdfrwt beam="2">  1        2 0.58312649E-02 0.33829629E+02</pdfrwt>
<totfact> 0.13201934E+03</totfact>
</mgrwt>
</event>
<event>
 5    1  0.6729100E-004  0.2266091E+03  0.7818608E-02  0.1129049E+00
         11   -1    0    0    0    0  0.00000000000E+00  0.00000000000E+00  0.10002521349E+04  0.10002521349E+04  0.51100000000E-03 0.  1.
          2   -1    0    0  501    0 -0.00000000000E+00 -0.00000000000E+00 -0.89536977378E+02  0.89536977414E+02  0.25500000000E-02 0.  1.
         11    1    1    2    0    0 -0.61493379933E+02 -0.24532677421E+03  0.24240605567E+03  0.35032464621E+03  0.51100000000E-03 0.  1.
         22    1    1    2    0    0  0.66783292835E+02  0.43336114749E+02  0.37457905577E+03  0.38294581348E+03  0.00000000000E+00 0. -1.
          2    1    1    2  501    0 -0.52899129027E+01  0.20199065946E+03  0.29373004613E+03  0.35651865266E+03  0.25500000000E-02 0.  1.
<mgrwt>
<rscale>  0 0.22660909E+03</rscale>
<asrwt>0</asrwt>
<pdfrwt beam="1">  1       11 0.10000000E+01 0.79611727E+02</pdfrwt>
<pdfrwt beam="2">  1        2 0.13778392E-01 0.22660909E+03</pdfrwt>
<totfact> 0.52829109E+02</totfact>
</mgrwt>
</event>
<event>
 5    1  0.6729100E-004  0.3092218E+03  0.7818608E-02  0.1084922E+00
         11   -1    0    0    0    0  0.00000000000E+00  0.00000000000E+00  0.10006112010E+04  0.10006112010E+04  0.51100000000E-03 0. -1.
          2   -1    0    0  501    0 -0.00000000000E+00 -0.00000000000E+00 -0.27716460498E+03  0.27716460499E+03  0.25500000000E-02 0. -1.
         11    1    1    2    0    0 -0.60377054900E+02 -0.20264482125E+03  0.52395265240E+03  0.56501034884E+03  0.51100000000E-03 0. -1.
         22    1    1    2    0    0 -0.48762024414E+02 -0.77483224055E+02  0.36035132348E+03  0.37179895289E+03  0.00000000000E+00 0. -1.
          2    1    1    2  501    0  0.10913907931E+03  0.28012804530E+03 -0.16085737983E+03  0.34096650429E+03  0.25500000000E-02 0. -1.
<mgrwt>
<rscale>  0 0.30063776E+03</rscale>
<asrwt>0</asrwt>
<pdfrwt beam="1">  1       11 0.10000000E+01 0.30922184E+03</pdfrwt>
<pdfrwt beam="2">  1        2 0.42666769E-01 0.30063776E+03</pdfrwt>
<totfact> 0.14781209E+02</totfact>
</mgrwt>
</event>
<event>
 5    1  0.6729100E-004  0.1717559E+03  0.7818608E-02  0.1176029E+00
         11   -1    0    0    0    0  0.00000000000E+00  0.00000000000E+00  0.10000884891E+04  0.10000884891E+04  0.51100000000E-03 0.  1.
          2   -1    0    0  501    0 -0.00000000000E+00 -0.00000000000E+00 -0.60407564080E+03  0.60407564080E+03  0.25500000000E-02 0.  1.
         11    1    1    2    0    0 -0.66878417050E+02 -0.15560524906E+03  0.92462244060E+03  0.94000658182E+03  0.51100000000E-03 0.  1.
         22    1    1    2    0    0 -0.11085951433E+02  0.25230195762E+01  0.54806951758E+02  0.55973796619E+02  0.00000000000E+00 0.  1.
          2    1    1    2  501    0  0.77964368483E+02  0.15308222948E+03 -0.58341654403E+03  0.60818375150E+03  0.25500000000E-02 0.  1.
<mgrwt>
<rscale>  0 0.17175593E+03</rscale>
<asrwt>0</asrwt>
<pdfrwt beam="1">  1       11 0.10000000E+01 0.11369430E+02</pdfrwt>
<pdfrwt beam="2">  1        2 0.92942935E-01 0.17175593E+03</pdfrwt>
<totfact> 0.63093420E+01</totfact>
</mgrwt>
</event>
<event>
 5    1  0.6729100E-004  0.2956586E+03  0.7818608E-02  0.1304421E+00
         11   -1    0    0    0    0  0.00000000000E+00  0.00000000000E+00  0.10000627094E+04  0.10000627094E+04  0.51100000000E-03 0.  1.
          2   -1    0    0  501    0 -0.00000000000E+00 -0.00000000000E+00 -0.50382906121E+03  0.50382906121E+03  0.25500000000E-02 0.  1.
         11    1    1    2    0    0  0.94249462557E+02  0.21974141184E+03  0.17073829862E+03  0.29380404335E+03  0.51100000000E-03 0.  1.
         22    1    1    2    0    0 -0.13757013019E+03 -0.29789298810E+03  0.72760498236E+03  0.79816964578E+03  0.00000000000E+00 0.  1.
          2    1    1    2  501    0  0.43320667637E+02  0.78151576260E+02 -0.40210963276E+03  0.41191808152E+03  0.25500000000E-02 0.  1.
<mgrwt>
<rscale>  0 0.89355185E+02</rscale>
<asrwt>0</asrwt>
<pdfrwt beam="1">  1       11 0.10000000E+01 0.29565859E+03</pdfrwt>
<pdfrwt beam="2">  1        2 0.77517022E-01 0.89355185E+02</pdfrwt>
<totfact> 0.78185566E+01</totfact>
</mgrwt>
</event>
<event>
 5    1  0.6729100E-004  0.1819677E+03  0.7818608E-02  0.1165912E+00
         11   -1    0    0    0    0  0.00000000000E+00  0.00000000000E+00  0.10001217846E+04  0.10001217846E+04  0.51100000000E-03 0.  1.
         -2   -1    0    0    0  501 -0.00000000000E+00 -0.00000000000E+00 -0.43271824534E+02  0.43271824609E+02  0.25500000000E-02 0. -1.
         11    1    1    2    0    0  0.69949403366E+02  0.16164402058E+03  0.52683837069E+03  0.55550011453E+03  0.51100000000E-03 0.  1.
         22    1    1    2    0    0  0.26356590745E+02 -0.25949035193E+01  0.14633537865E+03  0.14871263041E+03  0.00000000000E+00 0.  1.
         -2    1    1    2    0  501 -0.96305994112E+02 -0.15904911706E+03  0.28367621073E+03  0.33918086426E+03  0.25500000000E-02 0. -1.
<mgrwt>
<rscale>  0 0.18196765E+03</rscale>
<asrwt>0</asrwt>
<pdfrwt beam="1">  1       11 0.10000000E+01 0.26484022E+02</pdfrwt>
<pdfrwt beam="2">  1       -2 0.66580143E-02 0.18196765E+03</pdfrwt>
<totfact> 0.97862556E+02</totfact>
</mgrwt>
</event>
<event>
 5    1  0.6808398E-004  0.2747659E+03  0.7818608E-02  0.1098583E+00
         11   -1    0    0    0    0  0.00000000000E+00  0.00000000000E+00  0.10001665282E+04  0.10001665282E+04  0.51100000000E-03 0. -1.
          2   -1    0    0  501    0 -0.00000000000E+00 -0.00000000000E+00 -0.12015685857E+04  0.12015685857E+04  0.25500000000E-02 0. -1.
         11    1    1    2    0    0  0.14295432644E+02 -0.26679543858E+03  0.94714964938E+03  0.98411209918E+03  0.51100000000E-03 0. -1.
         22    1    1    2    0    0 -0.69710240711E+01 -0.80000881837E+01  0.17029418732E+02  0.20064837151E+02  0.00000000000E+00 0. -1.
          2    1    1    2  501    0 -0.73244085730E+01  0.27479552677E+03 -0.11655811256E+04  0.11975581777E+04  0.25500000000E-02 0. -1.
<mgrwt>
<rscale>  0 0.27476591E+03</rscale>
<asrwt>0</asrwt>
<pdfrwt beam="1">  1       11 0.10000000E+01 0.10611154E+02</pdfrwt>
<pdfrwt beam="2">  1        2 0.18488748E+00 0.27476591E+03</pdfrwt>
<totfact> 0.24947773E+01</totfact>
</mgrwt>
</event>
<event>
 5    1  0.6729100E-004  0.2119006E+03  0.7818608E-02  0.1198405E+00
         11   -1    0    0    0    0  0.00000000000E+00  0.00000000000E+00  0.10004084662E+04  0.10004084662E+04  0.51100000000E-03 0.  1.
          2   -1    0    0  501    0 -0.00000000000E+00 -0.00000000000E+00 -0.10117606188E+03  0.10117606192E+03  0.25500000000E-02 0.  1.
         11    1    1    2    0    0 -0.15018155619E+03 -0.11515479586E+03  0.24203134933E+03  0.30723655526E+03  0.51100000000E-03 0.  1.
         22    1    1    2    0    0  0.93149700238E+02  0.25572139113E+03  0.29342735667E+03  0.40021233136E+03  0.00000000000E+00 0.  1.
          2    1    1    2  501    0  0.57031855947E+02 -0.14056659527E+03  0.36377369829E+03  0.39413564146E+03  0.25500000000E-02 0.  1.
<mgrwt>
<rscale>  0 0.15169575E+03</rscale>
<asrwt>0</asrwt>
<pdfrwt beam="1">  1       11 0.10000000E+01 0.21190062E+03</pdfrwt>
<pdfrwt beam="2">  1        2 0.15571906E-01 0.15169575E+03</pdfrwt>
<totfact> 0.44981752E+02</totfact>
</mgrwt>
</event>
<event>
 5    1  0.6729100E-004  0.2301476E+03  0.7818608E-02  0.1129145E+00
         11   -1    0    0    0    0  0.00000000000E+00  0.00000000000E+00  0.10001592832E+04  0.10001592832E+04  0.51100000000E-03 0.  1.
         -2   -1    0    0    0  501 -0.00000000000E+00 -0.00000000000E+00 -0.11454970513E+03  0.11454970516E+03  0.25500000000E-02 0. -1.
         11    1    1    2    0    0 -0.99970428708E+02  0.18003673352E+03  0.77263079849E+03  0.79960344097E+03  0.51100000000E-03 0.  1.
         22    1    1    2    0    0  0.18402188620E+01  0.24075517104E+02  0.83257032816E+02  0.86687660267E+02  0.00000000000E+00 0. -1.
         -2    1    1    2    0  501  0.98130209846E+02 -0.20411225062E+03  0.29721746810E+02  0.22841788717E+03  0.25500000000E-02 0. -1.
<mgrwt>
<rscale>  0 0.22647593E+03</rscale>
<asrwt>0</asrwt>
<pdfrwt beam="1">  1       11 0.10000000E+01 0.23014764E+03</pdfrwt>
<pdfrwt beam="2">  1       -2 0.17625838E-01 0.22647593E+03</pdfrwt>
<totfact> 0.20818603E+02</totfact>
</mgrwt>
</event>
<event>
 5    1  0.6729100E-004  0.1225418E+03  0.7818608E-02  0.1238962E+00
         11   -1    0    0    0    0  0.00000000000E+00  0.00000000000E+00  0.10003520426E+04  0.10003520426E+04  0.51100000000E-03 0. -1.
          2   -1    0    0  501    0 -0.00000000000E+00 -0.00000000000E+00 -0.54376255391E+03  0.54376255392E+03  0.25500000000E-02 0. -1.
         11    1    1    2    0    0 -0.87477084721E+02  0.14667593674E+03  0.69935785152E+03  0.71990796304E+03  0.51100000000E-03 0. -1.
         22    1    1    2    0    0  0.14634057001E+02 -0.48717446578E+02  0.28142574954E+03  0.28598600967E+03  0.00000000000E+00 0.  1.
          2    1    1    2  501    0  0.72843027721E+02 -0.97958490162E+02 -0.52419411235E+03  0.53822062382E+03  0.25500000000E-02 0. -1.
<mgrwt>
<rscale>  0 0.12254179E+03</rscale>
<asrwt>0</asrwt>
<pdfrwt beam="1">  1       11 0.10000000E+01 0.50867919E+02</pdfrwt>
<pdfrwt beam="2">  1        2 0.83685226E-01 0.12254179E+03</pdfrwt>
<totfact> 0.71529009E+01</totfact>
</mgrwt>
</event>
<event>
 5    1  0.6729100E-004  0.2284160E+03  0.7818608E-02  0.1129128E+00
         11   -1    0    0    0    0  0.00000000000E+00  0.00000000000E+00  0.10003298140E+04  0.10003298140E+04  0.51100000000E-03 0. -1.
          2   -1    0    0  501    0 -0.00000000000E+00 -0.00000000000E+00 -0.19595921058E+03  0.19595921059E+03  0.25500000000E-02 0. -1.
         11    1    1    2    0    0  0.71505340875E+02  0.19425264330E+03  0.81386689726E+03  0.83977760727E+03  0.51100000000E-03 0. -1.
         22    1    1    2    0    0 -0.10075512299E+01  0.20996581575E+02  0.10193861655E+03  0.10408339513E+03  0.00000000000E+00 0. -1.
          2    1    1    2  501    0 -0.70497789645E+02 -0.21524922487E+03 -0.11143491036E+03  0.25242802223E+03  0.25500000000E-02 0. -1.
<mgrwt>
<rscale>  0 0.22649982E+03</rscale>
<asrwt>0</asrwt>
<pdfrwt beam="1">  1       11 0.10000000E+01 0.22841596E+03</pdfrwt>
<pdfrwt beam="2">  1        2 0.30157513E-01 0.22649982E+03</pdfrwt>
<totfact> 0.21526049E+02</totfact>
</mgrwt>
</event>
<event>
 5    1  0.6729100E-004  0.1452392E+03  0.7818608E-02  0.1206448E+00
         11   -1    0    0    0    0  0.00000000000E+00  0.00000000000E+00  0.10001594568E+04  0.10001594568E+04  0.51100000000E-03 0.  1.
          2   -1    0    0  501    0 -0.00000000000E+00 -0.00000000000E+00 -0.63147322545E+02  0.63147322596E+02  0.25500000000E-02 0.  1.
         11    1    1    2    0    0  0.11241967054E+03  0.26632459401E+02  0.59827311302E+03  0.60932601125E+03  0.51100000000E-03 0.  1.
         22    1    1    2    0    0  0.28101153897E+02 -0.94714958848E+02  0.26197817591E+03  0.27998779068E+03  0.00000000000E+00 0. -1.
          2    1    1    2  501    0 -0.14052082444E+03  0.68082499446E+02  0.76760845364E+02  0.17399297750E+03  0.25500000000E-02 0.  1.
<mgrwt>
<rscale>  0 0.14523922E+03</rscale>
<asrwt>0</asrwt>
<pdfrwt beam="1">  1       11 0.10000000E+01 0.98795740E+02</pdfrwt>
<pdfrwt beam="2">  1        2 0.97165215E-02 0.14523922E+03</pdfrwt>
<totfact> 0.79107550E+02</totfact>
</mgrwt>
</event>
<event>
 5    1  0.6729100E-004  0.1286324E+03  0.7818608E-02  0.1428525E+00
         11   -1    0    0    0    0  0.00000000000E+00  0.00000000000E+00  0.99990825434E+03  0.99990825434E+03  0.51100000000E-03 0. -1.
         -2   -1    0    0    0  501 -0.00000000000E+00 -0.00000000000E+00 -0.40509540707E+02  0.40509540787E+02  0.25500000000E-02 0. -1.
         11    1    1    2    0    0 -0.41784912810E+02 -0.11240702486E+03  0.50353665847E+03  0.51762001951E+03  0.51100000000E-03 0. -1.
         22    1    1    2    0    0  0.95014069029E+02  0.11413583271E+03  0.44407857915E+03  0.46825254519E+03  0.00000000000E+00 0. -1.
         -2    1    1    2    0  501 -0.53229156219E+02 -0.17288078448E+01  0.11783476016E+02  0.54545230423E+02  0.25500000000E-02 0. -1.
<mgrwt>
<rscale>  0 0.53257223E+02</rscale>
<asrwt>0</asrwt>
<pdfrwt beam="1">  1       11 0.10000000E+01 0.12863245E+03</pdfrwt>
<pdfrwt beam="2">  1       -2 0.62316651E-02 0.53257223E+02</pdfrwt>
<totfact> 0.97392571E+02</totfact>
</mgrwt>
</event>
<event>
 5    1  0.6729100E-004  0.1352591E+03  0.7818608E-02  0.1473777E+00
         11   -1    0    0    0    0  0.00000000000E+00  0.00000000000E+00  0.10000708750E+04  0.10000708750E+04  0.51100000000E-03 0.  1.
          2   -1    0    0  501    0 -0.00000000000E+00 -0.00000000000E+00 -0.24603142225E+04  0.24603142225E+04  0.25500000000E-02 0.  1.
         11    1    1    2    0    0 -0.13631682534E+03 -0.30771867196E+02  0.76098642323E+03  0.77371152313E+03  0.51100000000E-03 0.  1.
         22    1    1    2    0    0  0.12725559616E+03 -0.13398914686E+02  0.21490834556E+03  0.25011820138E+03  0.00000000000E+00 0. -1.
          2    1    1    2  501    0  0.90612291754E+01  0.44170781882E+02 -0.24361381163E+04  0.24365553730E+04  0.25500000000E-02 0.  1.
<mgrwt>
<rscale>  0 0.45090618E+02</rscale>
<asrwt>0</asrwt>
<pdfrwt beam="1">  1       11 0.10000000E+01 0.13525911E+03</pdfrwt>
<pdfrwt beam="2">  1        2 0.37853670E+00 0.45090618E+02</pdfrwt>
<totfact> 0.66980821E+00</totfact>
</mgrwt>
</event>
<event>
 5    1  0.6729100E-004  0.3725890E+03  0.7818608E-02  0.1053707E+00
         11   -1    0    0    0    0  0.00000000000E+00  0.00000000000E+00  0.10003144206E+04  0.10003144206E+04  0.51100000000E-03 0. -1.
          2   -1    0    0  501    0 -0.00000000000E+00 -0.00000000000E+00 -0.34603061127E+03  0.34603061127E+03  0.25500000000E-02 0. -1.
         11    1    1    2    0    0 -0.37755157045E+03  0.53372979576E+02 -0.15735586459E+03  0.41249815929E+03  0.51100000000E-03 0. -1.
         22    1    1    2    0    0  0.67039320732E+02  0.94464373996E+02  0.24511247026E+03  0.27110498254E+03  0.00000000000E+00 0.  1.
          2    1    1    2  501    0  0.31051224971E+03 -0.14783735357E+03  0.56652720366E+03  0.66274189005E+03  0.25500000000E-02 0. -1.
<mgrwt>
<rscale>  0 0.37258900E+03</rscale>
<asrwt>0</asrwt>
<pdfrwt beam="1">  1       11 0.10000000E+01 0.11583518E+03</pdfrwt>
<pdfrwt beam="2">  1        2 0.53252215E-01 0.37258900E+03</pdfrwt>
<totfact> 0.11608465E+02</totfact>
</mgrwt>
</event>
<event>
 5    1  0.6729100E-004  0.1683017E+03  0.7818608E-02  0.1179631E+00
         11   -1    0    0    0    0  0.00000000000E+00  0.00000000000E+00  0.10002173955E+04  0.10002173955E+04  0.51100000000E-03 0. -1.
          2   -1    0    0  501    0 -0.00000000000E+00 -0.00000000000E+00 -0.23936236981E+04  0.23936236981E+04  0.25500000000E-02 0. -1.
         11    1    1    2    0    0 -0.23358860389E+03  0.14771413156E+02  0.47318975891E+03  0.52791133579E+03  0.51100000000E-03 0. -1.
         22    1    1    2    0    0  0.83179941543E+02  0.60109921494E+02  0.49137632359E+03  0.50197888075E+03  0.00000000000E+00 0. -1.
          2    1    1    2  501    0  0.15040866235E+03 -0.74881334650E+02 -0.23579723852E+04  0.23639508771E+04  0.25500000000E-02 0. -1.
<mgrwt>
<rscale>  0 0.16830167E+03</rscale>
<asrwt>0</asrwt>
<pdfrwt beam="1">  1       11 0.10000000E+01 0.10262605E+03</pdfrwt>
<pdfrwt beam="2">  1        2 0.36832985E+00 0.16830167E+03</pdfrwt>
<totfact> 0.60781530E+00</totfact>
</mgrwt>
</event>
<event>
 5    1  0.6729100E-004  0.1964723E+03  0.7818608E-02  0.1544190E+00
         11   -1    0    0    0    0  0.00000000000E+00  0.00000000000E+00  0.10002341356E+04  0.10002341356E+04  0.51100000000E-03 0. -1.
          2   -1    0    0  501    0 -0.00000000000E+00 -0.00000000000E+00 -0.14267401698E+03  0.14267401700E+03  0.25500000000E-02 0. -1.
         11    1    1    2    0    0  0.18810372032E+03  0.65527840920E+02  0.81736293502E+03  0.84128418211E+03  0.51100000000E-03 0. -1.
         22    1    1    2    0    0 -0.16327617991E+03 -0.90904209860E+02  0.11457810381E+03  0.21920499120E+03  0.00000000000E+00 0. -1.
          2    1    1    2  501    0 -0.24827540412E+02  0.25376368940E+02 -0.74380920161E+02  0.82418979331E+02  0.25500000000E-02 0. -1.
<mgrwt>
<rscale>  0 0.35501646E+02</rscale>
<asrwt>0</asrwt>
<pdfrwt beam="1">  1       11 0.10000000E+01 0.19647226E+03</pdfrwt>
<pdfrwt beam="2">  1        2 0.21954987E-01 0.35501646E+02</pdfrwt>
<totfact> 0.28757139E+02</totfact>
</mgrwt>
</event>
<event>
 5    1  0.6729100E-004  0.4058166E+03  0.7818608E-02  0.1201067E+00
         11   -1    0    0    0    0  0.00000000000E+00  0.00000000000E+00  0.10000626638E+04  0.10000626638E+04  0.51100000000E-03 0. -1.
          2   -1    0    0  501    0 -0.00000000000E+00 -0.00000000000E+00 -0.11553935856E+04  0.11553935856E+04  0.25500000000E-02 0. -1.
         11    1    1    2    0    0 -0.19073184906E+03 -0.36527546275E+03  0.86917008030E+03  0.96190510469E+03  0.51100000000E-03 0. -1.
         22    1    1    2    0    0  0.41216390657E+02  0.36609182074E+03 -0.36978659625E+03  0.52198097555E+03  0.00000000000E+00 0. -1.
          2    1    1    2  501    0  0.14951545841E+03 -0.81635799542E+00 -0.65471440594E+03  0.67157016915E+03  0.25500000000E-02 0. -1.
<mgrwt>
<rscale>  0 0.14951769E+03</rscale>
<asrwt>0</asrwt>
<pdfrwt beam="1">  1       11 0.10000000E+01 0.40581661E+03</pdfrwt>
<pdfrwt beam="2">  1        2 0.17776399E+00 0.14951769E+03</pdfrwt>
<totfact> 0.27465052E+01</totfact>
</mgrwt>
</event>
<event>
 5    1  0.6729100E-004  0.1443312E+03  0.7818608E-02  0.1646425E+00
         11   -1    0    0    0    0  0.00000000000E+00  0.00000000000E+00  0.10001258329E+04  0.10001258329E+04  0.51100000000E-03 0. -1.
          2   -1    0    0  501    0 -0.00000000000E+00 -0.00000000000E+00 -0.11227045535E+03  0.11227045538E+03  0.25500000000E-02 0.  1.
         11    1    1    2    0    0 -0.26354241912E+02  0.12861043216E+03  0.37951236035E+03  0.40157791397E+03  0.51100000000E-03 0. -1.
         22    1    1    2    0    0  0.39065757213E+02 -0.15134327610E+03  0.59767066470E+03  0.61777110976E+03  0.00000000000E+00 0.  1.
          2    1    1    2  501    0 -0.12711515301E+02  0.22732843940E+02 -0.89327647529E+02  0.93047264519E+02  0.25500000000E-02 0.  1.
<mgrwt>
<rscale>  0 0.26045438E+02</rscale>
<asrwt>0</asrwt>
<pdfrwt beam="1">  1       11 0.10000000E+01 0.14433124E+03</pdfrwt>
<pdfrwt beam="2">  1        2 0.17274551E-01 0.26045438E+02</pdfrwt>
<totfact> 0.36574290E+02</totfact>
</mgrwt>
</event>
<event>
 5    1  0.6729100E-004  0.1689958E+03  0.7818608E-02  0.1178899E+00
         11   -1    0    0    0    0  0.00000000000E+00  0.00000000000E+00  0.10004749766E+04  0.10004749766E+04  0.51100000000E-03 0. -1.
          2   -1    0    0  501    0 -0.00000000000E+00 -0.00000000000E+00 -0.22664687898E+03  0.22664687900E+03  0.25500000000E-02 0. -1.
         11    1    1    2    0    0 -0.40151143112E+02  0.20460070418E+03  0.75529619038E+03  0.78354699773E+03  0.51100000000E-03 0. -1.
         22    1    1    2    0    0 -0.23105459862E+01 -0.42775469138E+02  0.19544365653E+03  0.20008323833E+03  0.00000000000E+00 0.  1.
          2    1    1    2  501    0  0.42461689098E+02 -0.16182523504E+03 -0.17691174930E+03  0.24349161953E+03  0.25500000000E-02 0. -1.
<mgrwt>
<rscale>  0 0.16899577E+03</rscale>
<asrwt>0</asrwt>
<pdfrwt beam="1">  1       11 0.10000000E+01 0.42837827E+02</pdfrwt>
<pdfrwt beam="2">  1        2 0.34885311E-01 0.16899577E+03</pdfrwt>
<totfact> 0.18294498E+02</totfact>
</mgrwt>
</event>
<event>
 5    1  0.6729100E-004  0.1858703E+03  0.7818608E-02  0.1571023E+00
         11   -1    0    0    0    0  0.00000000000E+00  0.00000000000E+00  0.99993950719E+03  0.99993950719E+03  0.51100000000E-03 0.  1.
          2   -1    0    0  501    0 -0.00000000000E+00 -0.00000000000E+00 -0.70822622567E+02  0.70822622613E+02  0.25500000000E-02 0.  1.
         11    1    1    2    0    0  0.13738552651E+03 -0.14758903246E+03  0.33974297434E+03  0.39507289708E+03  0.51100000000E-03 0.  1.
         22    1    1    2    0    0 -0.10488393788E+03  0.14507754581E+03  0.61092294276E+03  0.63661210852E+03  0.00000000000E+00 0.  1.
          2    1    1    2  501    0 -0.32501588634E+02  0.25114866492E+01 -0.21549032473E+02  0.39077124203E+02  0.25500000000E-02 0.  1.
<mgrwt>
<rscale>  0 0.32598479E+02</rscale>
<asrwt>0</asrwt>
<pdfrwt beam="1">  1       11 0.10000000E+01 0.18587034E+03</pdfrwt>
<pdfrwt beam="2">  1        2 0.10895129E-01 0.32598479E+02</pdfrwt>
<totfact> 0.62326176E+02</totfact>
</mgrwt>
</event>
<event>
 5    1  0.6729100E-004  0.5313972E+03  0.7818608E-02  0.1005894E+00
         11   -1    0    0    0    0  0.00000000000E+00  0.00000000000E+00  0.10001095970E+04  0.10001095970E+04  0.51100000000E-03 0. -1.
          2   -1    0    0  501    0 -0.00000000000E+00 -0.00000000000E+00 -0.32356486961E+03  0.32356486962E+03  0.25500000000E-02 0. -1.
         11    1    1    2    0    0  0.49707737753E+03 -0.18745802968E+03  0.19670925652E+03  0.56649886473E+03  0.51100000000E-03 0. -1.
         22    1    1    2    0    0 -0.16960574178E+02 -0.43562189581E+02  0.73504228521E+02  0.87110257995E+02  0.00000000000E+00 0. -1.
          2    1    1    2  501    0 -0.48011680336E+03  0.23102021926E+03  0.40633124234E+03  0.67006534389E+03  0.25500000000E-02 0. -1.
<mgrwt>
<rscale>  0 0.53139721E+03</rscale>
<asrwt>0</asrwt>
<pdfrwt beam="1">  1       11 0.10000000E+01 0.46747465E+02</pdfrwt>
<pdfrwt beam="2">  1        2 0.49784665E-01 0.53139721E+03</pdfrwt>
<totfact> 0.12484460E+02</totfact>
</mgrwt>
</event>
<event>
 5    1  0.6729100E-004  0.3929458E+02  0.7818608E-02  0.1659862E+00
         11   -1    0    0    0    0  0.00000000000E+00  0.00000000000E+00  0.10004993865E+04  0.10004993865E+04  0.51100000000E-03 0.  1.
          2   -1    0    0  501    0 -0.00000000000E+00 -0.00000000000E+00 -0.50641313819E+01  0.50641320239E+01  0.25500000000E-02 0.  1.
         11    1    1    2    0    0  0.75105949216E+01  0.35742867937E+02  0.81310252886E+02  0.89136518157E+02  0.51100000000E-03 0.  1.
         22    1    1    2    0    0 -0.15640364016E+02  0.34056230863E+01  0.95983559805E+02  0.97309110612E+02  0.00000000000E+00 0.  1.
          2    1    1    2  501    0  0.81297690942E+01 -0.39148491023E+02  0.81814144238E+03  0.81911788971E+03  0.25500000000E-02 0.  1.
<mgrwt>
<rscale>  0 0.25079518E+02</rscale>
<asrwt>0</asrwt>
<pdfrwt beam="1">  1       11 0.10000000E+01 0.39294584E+02</pdfrwt>
<pdfrwt beam="2">  1        2 0.77948623E-03 0.25079518E+02</pdfrwt>
<totfact> 0.16634581E+04</totfact>
</mgrwt>
</event>
<event>
 5    1  0.6729100E-004  0.2052696E+03  0.7818608E-02  0.1145368E+00
         11   -1    0    0    0    0  0.00000000000E+00  0.00000000000E+00  0.10001665679E+04  0.10001665679E+04  0.51100000000E-03 0. -1.
          2   -1    0    0  501    0 -0.00000000000E+00 -0.00000000000E+00 -0.55969236710E+02  0.55969236768E+02  0.25500000000E-02 0. -1.
         11    1    1    2    0    0  0.16677276911E+03  0.10384030918E+03  0.25507893838E+03  0.32196464268E+03  0.51100000000E-03 0. -1.
         22    1    1    2    0    0  0.21990148868E+02  0.15811713843E+02  0.11354526243E+03  0.11673090235E+03  0.00000000000E+00 0.  1.
          2    1    1    2  501    0 -0.18876291797E+03 -0.11965202303E+03  0.57557313037E+03  0.61744025965E+03  0.25500000000E-02 0. -1.
<mgrwt>
<rscale>  0 0.20526956E+03</rscale>
<asrwt>0</asrwt>
<pdfrwt beam="1">  1       11 0.10000000E+01 0.27084626E+02</pdfrwt>
<pdfrwt beam="2">  1        2 0.86120858E-02 0.20526956E+03</pdfrwt>
<totfact> 0.93754893E+02</totfact>
</mgrwt>
</event>
<event>
 5    1  0.6729100E-004  0.1980514E+03  0.7818608E-02  0.1200930E+00
         11   -1    0    0    0    0  0.00000000000E+00  0.00000000000E+00  0.99991136500E+03  0.99991136500E+03  0.51100000000E-03 0. -1.
          2   -1    0    0  501    0 -0.00000000000E+00 -0.00000000000E+00 -0.56301466286E+03  0.56301466287E+03  0.25500000000E-02 0. -1.
         11    1    1    2    0    0 -0.25601840089E+03  0.98943165536E+02  0.41033478399E+03  0.49366973429E+03  0.51100000000E-03 0. -1.
         22    1    1    2    0    0  0.11212461124E+03 -0.13997104570E+03  0.52187768289E+03  0.55183343319E+03  0.00000000000E+00 0. -1.
          2    1    1    2  501    0  0.14389378965E+03  0.41027880159E+02 -0.49531576474E+03  0.51742286039E+03  0.25500000000E-02 0. -1.
<mgrwt>
<rscale>  0 0.14962857E+03</rscale>
<asrwt>0</asrwt>
<pdfrwt beam="1">  1       11 0.10000000E+01 0.19805144E+03</pdfrwt>
<pdfrwt beam="2">  1        2 0.86609961E-01 0.14962857E+03</pdfrwt>
<totfact> 0.68572994E+01</totfact>
</mgrwt>
</event>
<event>
 5    1  0.6729100E-004  0.1082170E+03  0.7818608E-02  0.1263908E+00
         11   -1    0    0    0    0  0.00000000000E+00  0.00000000000E+00  0.10005708227E+04  0.10005708227E+04  0.51100000000E-03 0. -1.
          2   -1    0    0  501    0 -0.00000000000E+00 -0.00000000000E+00 -0.31629977624E+03  0.31629977625E+03  0.25500000000E-02 0.  1.
         11    1    1    2    0    0 -0.10542470972E+03 -0.82523842938E+02  0.75517878735E+03  0.76695472809E+03  0.51100000000E-03 0. -1.
         22    1    1    2    0    0  0.79603789984E+02 -0.22600700275E+02  0.22238632463E+03  0.23728302176E+03  0.00000000000E+00 0. -1.
          2    1    1    2  501    0  0.25820919739E+02  0.10512454321E+03 -0.29329406551E+03  0.31263284912E+03  0.25500000000E-02 0.  1.
<mgrwt>
<rscale>  0 0.10821704E+03</rscale>
<asrwt>0</asrwt>
<pdfrwt beam="1">  1       11 0.10000000E+01 0.82749955E+02</pdfrwt>
<pdfrwt beam="2">  1        2 0.48689280E-01 0.10821704E+03</pdfrwt>
<totfact> 0.12787617E+02</totfact>
</mgrwt>
</event>
<event>
 5    1  0.6729100E-004  0.1803408E+03  0.7818608E-02  0.1171974E+00
         11   -1    0    0    0    0  0.00000000000E+00  0.00000000000E+00  0.99976013203E+03  0.99976013203E+03  0.51100000000E-03 0.  1.
          2   -1    0    0  501    0 -0.00000000000E+00 -0.00000000000E+00 -0.29079561532E+03  0.29079561533E+03  0.25500000000E-02 0.  1.
         11    1    1    2    0    0  0.18697449161E+03  0.81414345063E+02  0.64798015903E+03  0.67931291949E+03  0.51100000000E-03 0.  1.
         22    1    1    2    0    0 -0.44071466857E+02 -0.18373304798E+03  0.27540905033E+03  0.33399142521E+03  0.00000000000E+00 0.  1.
          2    1    1    2  501    0 -0.14290302475E+03  0.10231870291E+03 -0.21442469265E+03  0.27725140266E+03  0.25500000000E-02 0.  1.
<mgrwt>
<rscale>  0 0.17575663E+03</rscale>
<asrwt>0</asrwt>
<pdfrwt beam="1">  1       11 0.10000000E+01 0.18034081E+03</pdfrwt>
<pdfrwt beam="2">  1        2 0.44727055E-01 0.17575663E+03</pdfrwt>
<totfact> 0.14019671E+02</totfact>
</mgrwt>
</event>
<event>
 5    1  0.6729100E-004  0.2716028E+03  0.7818608E-02  0.1575959E+00
         11   -1    0    0    0    0  0.00000000000E+00  0.00000000000E+00  0.10002288778E+04  0.10002288778E+04  0.51100000000E-03 0.  1.
          2   -1    0    0  501    0 -0.00000000000E+00 -0.00000000000E+00 -0.76460553843E+03  0.76460553844E+03  0.25500000000E-02 0.  1.
         11    1    1    2    0    0 -0.92795882587E+02 -0.23440617901E+03  0.28288698710E+03  0.37892265709E+03  0.51100000000E-03 0.  1.
         22    1    1    2    0    0  0.10920585174E+03  0.26199621957E+03  0.63883886593E+03  0.69905867690E+03  0.00000000000E+00 0.  1.
          2    1    1    2  501    0 -0.16409969153E+02 -0.27590040563E+02 -0.68610251363E+03  0.68685308228E+03  0.25500000000E-02 0.  1.
<mgrwt>
<rscale>  0 0.32101362E+02</rscale>
<asrwt>0</asrwt>
<pdfrwt beam="1">  1       11 0.10000000E+01 0.27160279E+03</pdfrwt>
<pdfrwt beam="2">  1        2 0.11765854E+00 0.32101362E+02</pdfrwt>
<totfact> 0.50538173E+01</totfact>
</mgrwt>
</event>
<event>
 5    1  0.6729100E-004  0.1960008E+03  0.7818608E-02  0.1155730E+00
         11   -1    0    0    0    0  0.00000000000E+00  0.00000000000E+00  0.10001246722E+04  0.10001246722E+04  0.51100000000E-03 0. -1.
          2   -1    0    0  501    0 -0.00000000000E+00 -0.00000000000E+00 -0.15030825381E+03  0.15030825383E+03  0.25500000000E-02 0. -1.
         11    1    1    2    0    0  0.12312139808E+03 -0.13448732051E+03  0.86519328142E+03  0.88419745095E+03  0.51100000000E-03 0. -1.
         22    1    1    2    0    0  0.76854735902E+00 -0.13578313404E+02  0.58096503460E+02  0.59667118032E+02  0.00000000000E+00 0. -1.
          2    1    1    2  501    0 -0.12388994544E+03  0.14806563392E+03 -0.73473366519E+02  0.20656835702E+03  0.25500000000E-02 0. -1.
<mgrwt>
<rscale>  0 0.19305997E+03</rscale>
<asrwt>0</asrwt>
<pdfrwt beam="1">  1       11 0.10000000E+01 0.19600076E+03</pdfrwt>
<pdfrwt beam="2">  1        2 0.23127229E-01 0.19305997E+03</pdfrwt>
<totfact> 0.28814029E+02</totfact>
</mgrwt>
</event>
<event>
 5    1  0.6729100E-004  0.3768785E+03  0.7818608E-02  0.1052094E+00
         11   -1    0    0    0    0  0.00000000000E+00  0.00000000000E+00  0.10002481410E+04  0.10002481410E+04  0.51100000000E-03 0. -1.
          2   -1    0    0  501    0 -0.00000000000E+00 -0.00000000000E+00 -0.17898978618E+03  0.17898978620E+03  0.25500000000E-02 0. -1.
         11    1    1    2    0    0  0.35189441850E+03 -0.13778354833E+03  0.18996029803E+03  0.42296442261E+03  0.51100000000E-03 0. -1.
         22    1    1    2    0    0  0.92480428109E+01  0.33381536495E+02  0.96809091012E+02  0.10281951846E+03  0.00000000000E+00 0.  1.
          2    1    1    2  501    0 -0.36114246132E+03  0.10440201184E+03  0.53448896575E+03  0.65345398610E+03  0.25500000000E-02 0. -1.
<mgrwt>
<rscale>  0 0.37687846E+03</rscale>
<asrwt>0</asrwt>
<pdfrwt beam="1">  1       11 0.10000000E+01 0.34638898E+02</pdfrwt>
<pdfrwt beam="2">  1        2 0.27543722E-01 0.37687846E+03</pdfrwt>
<totfact> 0.23990100E+02</totfact>
</mgrwt>
</event>
<event>
 5    1  0.6729100E-004  0.1786787E+03  0.7818608E-02  0.1169088E+00
         11   -1    0    0    0    0  0.00000000000E+00  0.00000000000E+00  0.10003467704E+04  0.10003467704E+04  0.51100000000E-03 0. -1.
          2   -1    0    0  501    0 -0.00000000000E+00 -0.00000000000E+00 -0.13329814107E+03  0.13329814109E+03  0.25500000000E-02 0. -1.
         11    1    1    2    0    0 -0.18397213411E+03  0.88588250350E+01  0.87107400749E+03  0.89033373037E+03  0.51100000000E-03 0. -1.
         22    1    1    2    0    0  0.64613779226E+01  0.77742641491E+01  0.54679938681E+02  0.55606512945E+02  0.00000000000E+00 0. -1.
          2    1    1    2  501    0  0.17751075618E+03 -0.16633089184E+02 -0.58705316851E+02  0.18770466816E+03  0.25500000000E-02 0. -1.
<mgrwt>
<rscale>  0 0.17867874E+03</rscale>
<asrwt>0</asrwt>
<pdfrwt beam="1">  1       11 0.10000000E+01 0.10108837E+02</pdfrwt>
<pdfrwt beam="2">  1        2 0.20514517E-01 0.17867874E+03</pdfrwt>
<totfact> 0.32922883E+02</totfact>
</mgrwt>
</event>
<event>
 5    1  0.6729100E-004  0.3174186E+03  0.7818608E-02  0.1088049E+00
         11   -1    0    0    0    0  0.00000000000E+00  0.00000000000E+00  0.10002668488E+04  0.10002668488E+04  0.51100000000E-03 0.  1.
          2   -1    0    0  501    0 -0.00000000000E+00 -0.00000000000E+00 -0.42165273070E+03  0.42165273070E+03  0.25500000000E-02 0.  1.
         11    1    1    2    0    0 -0.14717995643E+03  0.18060958503E+03  0.59746506936E+03  0.64128485939E+03  0.51100000000E-03 0.  1.
         22    1    1    2    0    0 -0.78044529027E+02  0.90596495797E+01  0.32128580335E+03  0.33075306982E+03  0.00000000000E+00 0.  1.
          2    1    1    2  501    0  0.22522448545E+03 -0.18966923461E+03 -0.34013675462E+03  0.44988165028E+03  0.25500000000E-02 0.  1.
<mgrwt>
<rscale>  0 0.29444946E+03</rscale>
<asrwt>0</asrwt>
<pdfrwt beam="1">  1       11 0.10000000E+01 0.31741860E+03</pdfrwt>
<pdfrwt beam="2">  1        2 0.64886959E-01 0.29444946E+03</pdfrwt>
<totfact> 0.93600714E+01</totfact>
</mgrwt>
</event>
<event>
 5    1  0.6729100E-004  0.2126282E+03  0.7818608E-02  0.1142886E+00
         11   -1    0    0    0    0  0.00000000000E+00  0.00000000000E+00  0.10001908421E+04  0.10001908421E+04  0.51100000000E-03 0.  1.
          2   -1    0    0  501    0 -0.00000000000E+00 -0.00000000000E+00 -0.44637706229E+02  0.44637706302E+02  0.25500000000E-02 0.  1.
         11    1    1    2    0    0 -0.62982156383E+02  0.15667275388E+03  0.43753752158E+03  0.46899060398E+03  0.51100000000E-03 0.  1.
         22    1    1    2    0    0 -0.32293742463E+02  0.28607308130E+02  0.90810745833E+02  0.10053783089E+03  0.00000000000E+00 0. -1.
          2    1    1    2  501    0  0.95275898846E+02 -0.18528006201E+03  0.42720486841E+03  0.47530011349E+03  0.25500000000E-02 0.  1.
<mgrwt>
<rscale>  0 0.20834154E+03</rscale>
<asrwt>0</asrwt>
<pdfrwt beam="1">  1       11 0.10000000E+01 0.21262819E+03</pdfrwt>
<pdfrwt beam="2">  1        2 0.68686498E-02 0.20834154E+03</pdfrwt>
<totfact> 0.12519727E+03</totfact>
</mgrwt>
</event>
<event>
 5    1  0.6729100E-004  0.4272888E+03  0.7818608E-02  0.1034720E+00
         11   -1    0    0    0    0  0.00000000000E+00  0.00000000000E+00  0.10003274523E+04  0.10003274523E+04  0.51100000000E-03 0. -1.
          2   -1    0    0  501    0 -0.00000000000E+00 -0.00000000000E+00 -0.19378276651E+03  0.19378276652E+03  0.25500000000E-02 0. -1.
         11    1    1    2    0    0  0.34533612400E+03  0.24624074464E+03  0.38010165181E+03  0.56953385199E+03  0.51100000000E-03 0. -1.
         22    1    1    2    0    0  0.29384354862E+00  0.10322728768E+02  0.55182724383E+02  0.56140699529E+02  0.00000000000E+00 0. -1.
          2    1    1    2  501    0 -0.34562996755E+03 -0.25656347340E+03  0.37126030956E+03  0.56843566726E+03  0.25500000000E-02 0. -1.
<mgrwt>
<rscale>  0 0.42728883E+03</rscale>
<asrwt>0</asrwt>
<pdfrwt beam="1">  1       11 0.10000000E+01 0.10326910E+02</pdfrwt>
<pdfrwt beam="2">  1        2 0.29822495E-01 0.42728883E+03</pdfrwt>
<totfact> 0.21983660E+02</totfact>
</mgrwt>
</event>
<event>
 5    1  0.6729100E-004  0.9017936E+02  0.7818608E-02  0.1382288E+00
         11   -1    0    0    0    0  0.00000000000E+00  0.00000000000E+00  0.10004363109E+04  0.10004363109E+04  0.51100000000E-03 0.  1.
          2   -1    0    0  501    0 -0.00000000000E+00 -0.00000000000E+00 -0.44715399435E+02  0.44715399508E+02  0.25500000000E-02 0.  1.
         11    1    1    2    0    0 -0.84035143457E+01  0.99156125735E+02  0.57404546443E+03  0.58260685849E+03  0.51100000000E-03 0.  1.
         22    1    1    2    0    0  0.62666283476E+02 -0.65474670275E+02  0.38792704987E+03  0.39837343229E+03  0.00000000000E+00 0.  1.
          2    1    1    2  501    0 -0.54262769130E+02 -0.33681455460E+02 -0.62516028174E+01  0.64171419649E+02  0.25500000000E-02 0.  1.
<mgrwt>
<rscale>  0 0.63866177E+02</rscale>
<asrwt>0</asrwt>
<pdfrwt beam="1">  1       11 0.10000000E+01 0.90179361E+02</pdfrwt>
<pdfrwt beam="2">  1        2 0.68822935E-02 0.63866177E+02</pdfrwt>
<totfact> 0.11446931E+03</totfact>
</mgrwt>
</event>
<event>
 5    1  0.6729100E-004  0.1019636E+03  0.7818608E-02  0.1276220E+00
         11   -1    0    0    0    0  0.00000000000E+00  0.00000000000E+00  0.10000414403E+04  0.10000414403E+04  0.51100000000E-03 0. -1.
          2   -1    0    0  501    0 -0.00000000000E+00 -0.00000000000E+00 -0.47339239743E+02  0.47339239812E+02  0.25500000000E-02 0. -1.
         11    1    1    2    0    0 -0.14317794411E+03 -0.53119306153E+02  0.68198988952E+03  0.69887895502E+03  0.51100000000E-03 0. -1.
         22    1    1    2    0    0  0.57337988635E+02  0.75600959197E+01  0.23957120974E+03  0.24645316903E+03  0.00000000000E+00 0. -1.
          2    1    1    2  501    0  0.85839955478E+02  0.45559210234E+02  0.31141101278E+02  0.10204855604E+03  0.25500000000E-02 0. -1.
<mgrwt>
<rscale>  0 0.10196355E+03</rscale>
<asrwt>0</asrwt>
<pdfrwt beam="1">  1       11 0.10000000E+01 0.57834246E+02</pdfrwt>
<pdfrwt beam="2">  1        2 0.72832616E-02 0.10196355E+03</pdfrwt>
<totfact> 0.11068519E+03</totfact>
</mgrwt>
</event>
<event>
 5    1  0.6729100E-004  0.4705139E+03  0.7818608E-02  0.1021775E+00
         11   -1    0    0    0    0  0.00000000000E+00  0.00000000000E+00  0.99986579692E+03  0.99986579692E+03  0.51100000000E-03 0. -1.
          2   -1    0    0  501    0 -0.00000000000E+00 -0.00000000000E+00 -0.46937465283E+03  0.46937465284E+03  0.25500000000E-02 0. -1.
         11    1    1    2    0    0  0.45614069336E+03  0.84008051407E+02  0.76973057268E+03  0.89866948283E+03  0.51100000000E-03 0. -1.
         22    1    1    2    0    0  0.43023746849E+01  0.18291096079E+02  0.23948815353E+02  0.30440439887E+02  0.00000000000E+00 0. -1.
          2    1    1    2  501    0 -0.46044306805E+03 -0.10229914749E+03 -0.26318824395E+03  0.54013052705E+03  0.25500000000E-02 0. -1.
<mgrwt>
<rscale>  0 0.47051386E+03</rscale>
<asrwt>0</asrwt>
<pdfrwt beam="1">  1       11 0.10000000E+01 0.18790280E+02</pdfrwt>
<pdfrwt beam="2">  1        2 0.72201792E-01 0.47051386E+03</pdfrwt>
<totfact> 0.82585368E+01</totfact>
</mgrwt>
</event>
<event>
 5    1  0.6729100E-004  0.8314170E+03  0.7818608E-02  0.1140665E+00
         11   -1    0    0    0    0  0.00000000000E+00  0.00000000000E+00  0.10000663925E+04  0.10000663925E+04  0.51100000000E-03 0. -1.
          2   -1    0    0  501    0 -0.00000000000E+00 -0.00000000000E+00 -0.10663691367E+04  0.10663691367E+04  0.25500000000E-02 0. -1.
         11    1    1    2    0    0 -0.48481547285E+03 -0.71929189099E+03 -0.57027107464E+03  0.10380924649E+04  0.51100000000E-03 0. -1.
         22    1    1    2    0    0  0.48160226419E+02  0.23573791590E+02 -0.16297973689E+02  0.56042439321E+02  0.00000000000E+00 0. -1.
          2    1    1    2  501    0  0.43665524643E+03  0.69571809940E+03  0.52026630407E+03  0.97230062493E+03  0.25500000000E-02 0. -1.
<mgrwt>
<rscale>  0 0.21114158E+03</rscale>
<asrwt>0</asrwt>
<pdfrwt beam="1">  1       11 0.10000000E+01 0.83141703E+03</pdfrwt>
<pdfrwt beam="2">  1        2 0.16406768E+00 0.21114158E+03</pdfrwt>
<totfact> 0.30328482E+01</totfact>
</mgrwt>
</event>
<event>
 5    1  0.6729100E-004  0.4172344E+03  0.7818608E-02  0.1039814E+00
         11   -1    0    0    0    0  0.00000000000E+00  0.00000000000E+00  0.99978871454E+03  0.99978871454E+03  0.51100000000E-03 0. -1.
          2   -1    0    0  501    0 -0.00000000000E+00 -0.00000000000E+00 -0.12985060744E+04  0.12985060744E+04  0.25500000000E-02 0. -1.
         11    1    1    2    0    0 -0.35096801837E+03  0.11841345584E+03  0.77108676504E+03  0.85543853997E+03  0.51100000000E-03 0. -1.
         22    1    1    2    0    0 -0.36504515152E+02  0.20623776684E+02  0.14984858903E+03  0.15560372562E+03  0.00000000000E+00 0. -1.
          2    1    1    2  501    0  0.38747253352E+03 -0.13903723252E+03 -0.12196527139E+04  0.12872525233E+04  0.25500000000E-02 0. -1.
<mgrwt>
<rscale>  0 0.41166287E+03</rscale>
<asrwt>0</asrwt>
<pdfrwt beam="1">  1       11 0.10000000E+01 0.41723439E+03</pdfrwt>
<pdfrwt beam="2">  1        2 0.19972795E+00 0.41166287E+03</pdfrwt>
<totfact> 0.21465097E+01</totfact>
</mgrwt>
</event>
<event>
 5    1  0.6729100E-004  0.1626925E+03  0.7818608E-02  0.1185690E+00
         11   -1    0    0    0    0  0.00000000000E+00  0.00000000000E+00  0.10002003779E+04  0.10002003779E+04  0.51100000000E-03 0.  1.
          2   -1    0    0  501    0 -0.00000000000E+00 -0.00000000000E+00 -0.13669075390E+03  0.13669075393E+03  0.25500000000E-02 0.  1.
         11    1    1    2    0    0  0.14032224405E+03  0.70566107502E+02  0.86167608834E+03  0.87587418556E+03  0.51100000000E-03 0.  1.
         22    1    1    2    0    0 -0.35212055600E+01  0.18207744045E+02  0.78609551900E+02  0.80767459299E+02  0.00000000000E+00 0.  1.
          2    1    1    2  501    0 -0.13680103849E+03 -0.88773851547E+02 -0.76776016293E+02  0.18024948692E+03  0.25500000000E-02 0.  1.
<mgrwt>
<rscale>  0 0.16269253E+03</rscale>
<asrwt>0</asrwt>
<pdfrwt beam="1">  1       11 0.10000000E+01 0.18545103E+02</pdfrwt>
<pdfrwt beam="2">  1        2 0.21033560E-01 0.16269253E+03</pdfrwt>
<totfact> 0.31917074E+02</totfact>
</mgrwt>
</event>
<event>
 5    1  0.6729100E-004  0.1681058E+03  0.7818608E-02  0.1179838E+00
         11   -1    0    0    0    0  0.00000000000E+00  0.00000000000E+00  0.10000722995E+04  0.10000722995E+04  0.51100000000E-03 0. -1.
          2   -1    0    0  501    0 -0.00000000000E+00 -0.00000000000E+00 -0.19127918226E+03  0.19127918227E+03  0.25500000000E-02 0. -1.
         11    1    1    2    0    0 -0.22129739219E+02  0.15412572137E+03  0.85716220665E+03  0.87118971060E+03  0.51100000000E-03 0. -1.
         22    1    1    2    0    0 -0.23963953443E+02  0.81816212395E+01  0.95268554700E+02  0.98576404405E+02  0.00000000000E+00 0.  1.
          2    1    1    2  501    0  0.46093692662E+02 -0.16230734261E+03 -0.14363764409E+03  0.22158536679E+03  0.25500000000E-02 0. -1.
<mgrwt>
<rscale>  0 0.16810578E+03</rscale>
<asrwt>0</asrwt>
<pdfrwt beam="1">  1       11 0.10000000E+01 0.25322125E+02</pdfrwt>
<pdfrwt beam="2">  1        2 0.29429693E-01 0.16810578E+03</pdfrwt>
<totfact> 0.21998887E+02</totfact>
</mgrwt>
</event>
<event>
 5    1  0.6729100E-004  0.4357384E+02  0.7818608E-02  0.1483446E+00
         11   -1    0    0    0    0  0.00000000000E+00  0.00000000000E+00  0.10001600472E+04  0.10001600472E+04  0.51100000000E-03 0. -1.
          2   -1    0    0  501    0 -0.00000000000E+00 -0.00000000000E+00 -0.11075605568E+02  0.11075605861E+02  0.25500000000E-02 0. -1.
         11    1    1    2    0    0 -0.49877365152E+01 -0.27295892146E+02  0.13791381259E+02  0.30986213723E+02  0.51100000000E-03 0. -1.
         22    1    1    2    0    0  0.28513266947E+02  0.42598370069E+02  0.29810637351E+03  0.30248146629E+03  0.00000000000E+00 0. -1.
          2    1    1    2  501    0 -0.23525530432E+02 -0.15302477923E+02  0.67718668690E+03  0.67776797308E+03  0.25500000000E-02 0. -1.
<mgrwt>
<rscale>  0 0.43573842E+02</rscale>
<asrwt>0</asrwt>
<pdfrwt beam="1">  1       11 0.10000000E+01 0.27747865E+02</pdfrwt>
<pdfrwt beam="2">  1        2 0.17042120E-02 0.43573842E+02</pdfrwt>
<totfact> 0.66164028E+03</totfact>
</mgrwt>
</event>
<event>
 5    1  0.6729100E-004  0.1427179E+03  0.7818608E-02  0.1209718E+00
         11   -1    0    0    0    0  0.00000000000E+00  0.00000000000E+00  0.99999213012E+03  0.99999213012E+03  0.51100000000E-03 0. -1.
          2   -1    0    0  501    0 -0.00000000000E+00 -0.00000000000E+00 -0.79386386897E+02  0.79386386938E+02  0.25500000000E-02 0. -1.
         11    1    1    2    0    0  0.22422817279E+02  0.13949338400E+03  0.81553316204E+03  0.82768081125E+03  0.51100000000E-03 0. -1.
         22    1    1    2    0    0  0.26632968371E+02 -0.51200095139E+01  0.10521053876E+03  0.10864983649E+03  0.00000000000E+00 0. -1.
          2    1    1    2  501    0 -0.49055785650E+02 -0.13437337449E+03 -0.13795758750E+00  0.14304786932E+03  0.25500000000E-02 0. -1.
<mgrwt>
<rscale>  0 0.14271793E+03</rscale>
<asrwt>0</asrwt>
<pdfrwt beam="1">  1       11 0.10000000E+01 0.27120647E+02</pdfrwt>
<pdfrwt beam="2">  1        2 0.12213194E-01 0.14271793E+03</pdfrwt>
<totfact> 0.59829276E+02</totfact>
</mgrwt>
</event>
<event>
 5    1  0.6729100E-004  0.2234392E+03  0.7818608E-02  0.1131345E+00
         11   -1    0    0    0    0  0.00000000000E+00  0.00000000000E+00  0.99975599984E+03  0.99975599984E+03  0.51100000000E-03 0.  1.
          2   -1    0    0  501    0 -0.00000000000E+00 -0.00000000000E+00 -0.32545464898E+03  0.32545464899E+03  0.25500000000E-02 0.  1.
         11    1    1    2    0    0 -0.23763330829E+03  0.42694301469E+01  0.88624665802E+03  0.91756250800E+03  0.51100000000E-03 0.  1.
         22    1    1    2    0    0  0.15168816050E+02  0.81636287909E+01  0.56334205109E+02  0.58909086571E+02  0.00000000000E+00 0. -1.
          2    1    1    2  501    0  0.22246449224E+03 -0.12433058938E+02 -0.26827951226E+03  0.34873905426E+03  0.25500000000E-02 0.  1.
<mgrwt>
<rscale>  0 0.22343924E+03</rscale>
<asrwt>0</asrwt>
<pdfrwt beam="1">  1       11 0.10000000E+01 0.17226080E+02</pdfrwt>
<pdfrwt beam="2">  1        2 0.50057727E-01 0.22343924E+03</pdfrwt>
<totfact> 0.12430778E+02</totfact>
</mgrwt>
</event>
<event>
 5    1  0.6729100E-004  0.1737889E+03  0.7818608E-02  0.1712591E+00
         11   -1    0    0    0    0  0.00000000000E+00  0.00000000000E+00  0.99999208345E+03  0.99999208345E+03  0.51100000000E-03 0. -1.
          2   -1    0    0  501    0 -0.00000000000E+00 -0.00000000000E+00 -0.18603833106E+03  0.18603833108E+03  0.25500000000E-02 0.  1.
         11    1    1    2    0    0  0.43782189998E+02 -0.17033502813E+03  0.42267272048E+03  0.45780250175E+03  0.51100000000E-03 0. -1.
         22    1    1    2    0    0 -0.22055551943E+02  0.17136758322E+03  0.54564059017E+03  0.57234338434E+03  0.00000000000E+00 0.  1.
          2    1    1    2  501    0 -0.21726638056E+02 -0.10325550865E+01 -0.15435955827E+03  0.15588452844E+03  0.25500000000E-02 0.  1.
<mgrwt>
<rscale>  0 0.21751160E+02</rscale>
<asrwt>0</asrwt>
<pdfrwt beam="1">  1       11 0.10000000E+01 0.17378891E+03</pdfrwt>
<pdfrwt beam="2">  1        2 0.28621054E-01 0.21751160E+02</pdfrwt>
<totfact> 0.21331871E+02</totfact>
</mgrwt>
</event>
<event>
 5    1  0.6729100E-004  0.1135703E+03  0.7818608E-02  0.1478826E+00
         11   -1    0    0    0    0  0.00000000000E+00  0.00000000000E+00  0.10001856254E+04  0.10001856254E+04  0.51100000000E-03 0.  1.
          2   -1    0    0  501    0 -0.00000000000E+00 -0.00000000000E+00 -0.41488003993E+02  0.41488004072E+02  0.25500000000E-02 0.  1.
         11    1    1    2    0    0 -0.97051927753E+02  0.89372562943E+02  0.32186636518E+03  0.34785699464E+03  0.51100000000E-03 0.  1.
         22    1    1    2    0    0  0.98913033124E+02 -0.45122120058E+02  0.64023146971E+03  0.64939674210E+03  0.00000000000E+00 0.  1.
          2    1    1    2  501    0 -0.18611053712E+01 -0.44250442885E+02 -0.34002135169E+01  0.44419892697E+02  0.25500000000E-02 0.  1.
<mgrwt>
<rscale>  0 0.44289563E+02</rscale>
<asrwt>0</asrwt>
<pdfrwt beam="1">  1       11 0.10000000E+01 0.11357029E+03</pdfrwt>
<pdfrwt beam="2">  1        2 0.63839545E-02 0.44289563E+02</pdfrwt>
<totfact> 0.12146945E+03</totfact>
</mgrwt>
</event>
<event>
 5    1  0.6729100E-004  0.1482887E+03  0.7818608E-02  0.1572599E+00
         11   -1    0    0    0    0  0.00000000000E+00  0.00000000000E+00  0.10002912887E+04  0.10002912887E+04  0.51100000000E-03 0.  1.
         -2   -1    0    0    0  501 -0.00000000000E+00 -0.00000000000E+00 -0.14270620203E+03  0.14270620206E+03  0.25500000000E-02 0.  1.
         11    1    1    2    0    0 -0.17367142035E+03  0.13451843969E+01  0.90719822070E+02  0.19594299652E+03  0.51100000000E-03 0.  1.
         22    1    1    2    0    0  0.14454862055E+03 -0.15632297218E+02  0.84763521088E+03  0.86001402497E+03  0.00000000000E+00 0.  1.
         -2    1    1    2    0  501  0.29122799803E+02  0.14287112821E+02 -0.80769946285E+02  0.87040469269E+02  0.25500000000E-02 0.  1.
<mgrwt>
<rscale>  0 0.32438543E+02</rscale>
<asrwt>0</asrwt>
<pdfrwt beam="1">  1       11 0.10000000E+01 0.14828868E+03</pdfrwt>
<pdfrwt beam="2">  1       -2 0.21961195E-01 0.32438543E+02</pdfrwt>
<totfact> 0.13296826E+02</totfact>
</mgrwt>
</event>
<event>
 5    1  0.6729100E-004  0.1890269E+03  0.7818608E-02  0.1699683E+00
         11   -1    0    0    0    0  0.00000000000E+00  0.00000000000E+00  0.99994929068E+03  0.99994929068E+03  0.51100000000E-03 0. -1.
         -2   -1    0    0    0  501 -0.00000000000E+00 -0.00000000000E+00 -0.32317752740E+03  0.32317752741E+03  0.25500000000E-02 0. -1.
         11    1    1    2    0    0 -0.15810979411E+03  0.69050877330E+02  0.14446701160E+03  0.22502766074E+03  0.51100000000E-03 0. -1.
         22    1    1    2    0    0  0.18057921104E+03 -0.70292876950E+02  0.80321329867E+03  0.82625755256E+03  0.00000000000E+00 0. -1.
         -2    1    1    2    0  501 -0.22469416925E+02  0.12419996197E+01 -0.27090854699E+03  0.27184160480E+03  0.25500000000E-02 0. -1.
<mgrwt>
<rscale>  0 0.22503717E+02</rscale>
<asrwt>0</asrwt>
<pdfrwt beam="1">  1       11 0.10000000E+01 0.18902693E+03</pdfrwt>
<pdfrwt beam="2">  1       -2 0.49717097E-01 0.22503717E+02</pdfrwt>
<totfact> 0.31091940E+01</totfact>
</mgrwt>
</event>
<event>
 5    1  0.6729100E-004  0.1727946E+03  0.7818608E-02  0.1174964E+00
         11   -1    0    0    0    0  0.00000000000E+00  0.00000000000E+00  0.10001673911E+04  0.10001673911E+04  0.51100000000E-03 0. -1.
          2   -1    0    0  501    0 -0.00000000000E+00 -0.00000000000E+00 -0.17858449129E+03  0.17858449131E+03  0.25500000000E-02 0. -1.
         11    1    1    2    0    0  0.17543649395E+01 -0.18703875337E+03  0.73707985022E+03  0.76044281749E+03  0.51100000000E-03 0. -1.
         22    1    1    2    0    0 -0.44948928553E+02  0.20243336793E+02  0.20319279210E+03  0.20908732535E+03  0.00000000000E+00 0. -1.
          2    1    1    2  501    0  0.43194563614E+02  0.16679541658E+03 -0.11868974252E+03  0.20922173956E+03  0.25500000000E-02 0. -1.
<mgrwt>
<rscale>  0 0.17279464E+03</rscale>
<asrwt>0</asrwt>
<pdfrwt beam="1">  1       11 0.10000000E+01 0.49297047E+02</pdfrwt>
<pdfrwt beam="2">  1        2 0.27479135E-01 0.17279464E+03</pdfrwt>
<totfact> 0.23727681E+02</totfact>
</mgrwt>
</event>
<event>
 5    1  0.6729100E-004  0.3370040E+03  0.7818608E-02  0.1573412E+00
         11   -1    0    0    0    0  0.00000000000E+00  0.00000000000E+00  0.99993063030E+03  0.99993063030E+03  0.51100000000E-03 0.  1.
          2   -1    0    0  501    0 -0.00000000000E+00 -0.00000000000E+00 -0.22740357883E+04  0.22740357883E+04  0.25500000000E-02 0. -1.
         11    1    1    2    0    0  0.30373844663E+03  0.13451383612E+03  0.57880307614E+03  0.66735598972E+03  0.51100000000E-03 0.  1.
         22    1    1    2    0    0 -0.32762711057E+03 -0.11269019011E+03  0.29707098684E+03  0.45638774496E+03  0.00000000000E+00 0.  1.
          2    1    1    2  501    0  0.23888663936E+02 -0.21823646001E+02 -0.21499792209E+04  0.21502226839E+04  0.25500000000E-02 0. -1.
<mgrwt>
<rscale>  0 0.32356449E+02</rscale>
<asrwt>0</asrwt>
<pdfrwt beam="1">  1       11 0.10000000E+01 0.33700397E+03</pdfrwt>
<pdfrwt beam="2">  1        2 0.34982738E+00 0.32356449E+02</pdfrwt>
<totfact> 0.86966030E+00</totfact>
</mgrwt>
</event>
<event>
 5    1  0.6729100E-004  0.6823875E+02  0.7818608E-02  0.1547542E+00
         11   -1    0    0    0    0  0.00000000000E+00  0.00000000000E+00  0.10000235544E+04  0.10000235544E+04  0.51100000000E-03 0. -1.
          2   -1    0    0  501    0 -0.00000000000E+00 -0.00000000000E+00 -0.13039717980E+02  0.13039718230E+02  0.25500000000E-02 0. -1.
         11    1    1    2    0    0  0.28183375050E+02  0.44113390132E+02  0.54942381440E+02  0.75887805982E+02  0.51100000000E-03 0. -1.
         22    1    1    2    0    0  0.99882072624E+01  0.15063978117E+02  0.71195068027E+02  0.73453559698E+02  0.00000000000E+00 0. -1.
          2    1    1    2  501    0 -0.38171582313E+02 -0.59177368248E+02  0.86084638699E+03  0.86372190699E+03  0.25500000000E-02 0. -1.
<mgrwt>
<rscale>  0 0.35119525E+02</rscale>
<asrwt>0</asrwt>
<pdfrwt beam="1">  1       11 0.10000000E+01 0.68238754E+02</pdfrwt>
<pdfrwt beam="2">  1        2 0.20061577E-02 0.35119525E+02</pdfrwt>
<totfact> 0.51551211E+03</totfact>
</mgrwt>
</event>
<event>
 5    1  0.6729100E-004  0.1154689E+03  0.7818608E-02  0.1250765E+00
         11   -1    0    0    0    0  0.00000000000E+00  0.00000000000E+00  0.10004606455E+04  0.10004606455E+04  0.51100000000E-03 0. -1.
          2   -1    0    0  501    0 -0.00000000000E+00 -0.00000000000E+00 -0.31529284684E+02  0.31529284787E+02  0.25500000000E-02 0. -1.
         11    1    1    2    0    0  0.12947658360E+02 -0.15338071829E+03  0.36931914635E+03  0.40011238229E+03  0.51100000000E-03 0. -1.
         22    1    1    2    0    0  0.37391160637E+02  0.66993887929E+02  0.41400211086E+03  0.42105109869E+03  0.00000000000E+00 0. -1.
          2    1    1    2  501    0 -0.50338818998E+02  0.86386830363E+02  0.18561010359E+03  0.21082644929E+03  0.25500000000E-02 0. -1.
<mgrwt>
<rscale>  0 0.11546889E+03</rscale>
<asrwt>0</asrwt>
<pdfrwt beam="1">  1       11 0.10000000E+01 0.76722095E+02</pdfrwt>
<pdfrwt beam="2">  1        2 0.48528935E-02 0.11546889E+03</pdfrwt>
<totfact> 0.18794773E+03</totfact>
</mgrwt>
</event>
<event>
 5    1  0.6729100E-004  0.1137125E+03  0.7818608E-02  0.1253845E+00
         11   -1    0    0    0    0  0.00000000000E+00  0.00000000000E+00  0.99990750495E+03  0.99990750495E+03  0.51100000000E-03 0. -1.
          2   -1    0    0  501    0 -0.00000000000E+00 -0.00000000000E+00 -0.34929174571E+02  0.34929174664E+02  0.25500000000E-02 0. -1.
         11    1    1    2    0    0 -0.85245826858E+02 -0.72696728939E+02  0.47945167603E+03  0.49236731719E+03  0.51100000000E-03 0. -1.
         22    1    1    2    0    0  0.62792645316E+02 -0.45393948472E+02  0.36165028816E+03  0.36985734789E+03  0.00000000000E+00 0. -1.
          2    1    1    2  501    0  0.22453181542E+02  0.11809067741E+03  0.12387636620E+03  0.17261201453E+03  0.25500000000E-02 0. -1.
<mgrwt>
<rscale>  0 0.11371252E+03</rscale>
<asrwt>0</asrwt>
<pdfrwt beam="1">  1       11 0.10000000E+01 0.77482429E+02</pdfrwt>
<pdfrwt beam="2">  1        2 0.53732220E-02 0.11371252E+03</pdfrwt>
<totfact> 0.16447826E+03</totfact>
</mgrwt>
</event>
<event>
 5    1  0.6729100E-004  0.2167448E+03  0.7818608E-02  0.1136333E+00
         11   -1    0    0    0    0  0.00000000000E+00  0.00000000000E+00  0.10001760936E+04  0.10001760936E+04  0.51100000000E-03 0. -1.
          2   -1    0    0  501    0 -0.00000000000E+00 -0.00000000000E+00 -0.79433929725E+03  0.79433929726E+03  0.25500000000E-02 0. -1.
         11    1    1    2    0    0  0.21454351516E+03  0.38304467649E+02  0.95035573521E+03  0.97502419231E+03  0.51100000000E-03 0. -1.
         22    1    1    2    0    0 -0.39854822978E+01  0.13060938861E+02  0.20350785573E+02  0.24507685866E+02  0.00000000000E+00 0.  1.
          2    1    1    2  501    0 -0.21055803286E+03 -0.51365406510E+02 -0.76486972440E+03  0.79498351272E+03  0.25500000000E-02 0. -1.
<mgrwt>
<rscale>  0 0.21674482E+03</rscale>
<asrwt>0</asrwt>
<pdfrwt beam="1">  1       11 0.10000000E+01 0.13655482E+02</pdfrwt>
<pdfrwt beam="2">  1        2 0.12222756E+00 0.21674482E+03</pdfrwt>
<totfact> 0.45075859E+01</totfact>
</mgrwt>
</event>
<event>
 5    1  0.6729100E-004  0.1981980E+03  0.7818608E-02  0.1151268E+00
         11   -1    0    0    0    0  0.00000000000E+00  0.00000000000E+00  0.10001872927E+04  0.10001872927E+04  0.51100000000E-03 0. -1.
          2   -1    0    0  501    0 -0.00000000000E+00 -0.00000000000E+00 -0.52129678175E+02  0.52129678238E+02  0.25500000000E-02 0. -1.
         11    1    1    2    0    0 -0.11078693186E+03  0.16498436120E+03  0.23242450987E+03  0.30580179283E+03  0.51100000000E-03 0. -1.
         22    1    1    2    0    0  0.12589826170E+02  0.60764430526E+01  0.71726328867E+02  0.73075940883E+02  0.00000000000E+00 0. -1.
          2    1    1    2  501    0  0.98197105687E+02 -0.17106080425E+03  0.64390677576E+03  0.67343923719E+03  0.25500000000E-02 0. -1.
<mgrwt>
<rscale>  0 0.19819804E+03</rscale>
<asrwt>0</asrwt>
<pdfrwt beam="1">  1       11 0.10000000E+01 0.13979517E+02</pdfrwt>
<pdfrwt beam="2">  1        2 0.80214523E-02 0.19819804E+03</pdfrwt>
<totfact> 0.10236389E+03</totfact>
</mgrwt>
</event>
<event>
 5    1  0.6729100E-004  0.2872902E+03  0.7818608E-02  0.1099663E+00
         11   -1    0    0    0    0  0.00000000000E+00  0.00000000000E+00  0.10003976471E+04  0.10003976471E+04  0.51100000000E-03 0. -1.
          2   -1    0    0  501    0 -0.00000000000E+00 -0.00000000000E+00 -0.51068686339E+04  0.51068686339E+04  0.25500000000E-02 0. -1.
         11    1    1    2    0    0  0.14208172772E+03  0.38123655857E+02  0.36712467864E+03  0.39550115064E+03  0.51100000000E-03 0. -1.
         22    1    1    2    0    0  0.12598435394E+03  0.12707913093E+02  0.60891243278E+03  0.62193882278E+03  0.00000000000E+00 0. -1.
          2    1    1    2  501    0 -0.26806608166E+03 -0.50831568950E+02 -0.50825080983E+04  0.50898263076E+04  0.25500000000E-02 0. -1.
<mgrwt>
<rscale>  0 0.27284294E+03</rscale>
<asrwt>0</asrwt>
<pdfrwt beam="1">  1       11 0.10000000E+01 0.28729020E+03</pdfrwt>
<pdfrwt beam="2">  1        2 0.78598450E+00 0.27284294E+03</pdfrwt>
<totfact> 0.46497167E-02</totfact>
</mgrwt>
</event>
<event>
 5    1  0.6729100E-004  0.2354040E+03  0.7818608E-02  0.1122893E+00
         11   -1    0    0    0    0  0.00000000000E+00  0.00000000000E+00  0.99991130450E+03  0.99991130450E+03  0.51100000000E-03 0.  1.
          2   -1    0    0  501    0 -0.00000000000E+00 -0.00000000000E+00 -0.96744380273E+03  0.96744380274E+03  0.25500000000E-02 0.  1.
         11    1    1    2    0    0  0.23769723159E+03 -0.17465413703E+03  0.81314684633E+03  0.86499239024E+03  0.51100000000E-03 0.  1.
         22    1    1    2    0    0 -0.44486792946E+02  0.42003028960E+02  0.13975437493E+03  0.15256019960E+03  0.00000000000E+00 0.  1.
          2    1    1    2  501    0 -0.19321043864E+03  0.13265110807E+03 -0.92043371949E+03  0.94980251740E+03  0.25500000000E-02 0.  1.
<mgrwt>
<rscale>  0 0.23540399E+03</rscale>
<asrwt>0</asrwt>
<pdfrwt beam="1">  1       11 0.10000000E+01 0.61182752E+02</pdfrwt>
<pdfrwt beam="2">  1        2 0.14882430E+00 0.23540399E+03</pdfrwt>
<totfact> 0.34635720E+01</totfact>
</mgrwt>
</event>
<event>
 5    1  0.6729100E-004  0.1018039E+03  0.7818608E-02  0.1276548E+00
         11   -1    0    0    0    0  0.00000000000E+00  0.00000000000E+00  0.10002435851E+04  0.10002435851E+04  0.51100000000E-03 0.  1.
          2   -1    0    0  501    0 -0.00000000000E+00 -0.00000000000E+00 -0.31586639530E+03  0.31586639531E+03  0.25500000000E-02 0.  1.
         11    1    1    2    0    0  0.18536197127E+03  0.85964059394E+01  0.57094410526E+03  0.60034167764E+03  0.51100000000E-03 0.  1.
         22    1    1    2    0    0 -0.90416122844E+02  0.24929327932E+02  0.40061422751E+03  0.41144660157E+03  0.00000000000E+00 0.  1.
          2    1    1    2  501    0 -0.94945848425E+02 -0.33525733871E+02 -0.28718114294E+03  0.30432170122E+03  0.25500000000E-02 0.  1.
<mgrwt>
<rscale>  0 0.10180393E+03</rscale>
<asrwt>0</asrwt>
<pdfrwt beam="1">  1       11 0.10000000E+01 0.93789907E+02</pdfrwt>
<pdfrwt beam="2">  1        2 0.48606666E-01 0.10180393E+03</pdfrwt>
<totfact> 0.12806945E+02</totfact>
</mgrwt>
</event>
<event>
 5    1  0.6729100E-004  0.1078744E+03  0.7818608E-02  0.1264557E+00
         11   -1    0    0    0    0  0.00000000000E+00  0.00000000000E+00  0.10002205940E+04  0.10002205940E+04  0.51100000000E-03 0. -1.
          2   -1    0    0  501    0 -0.00000000000E+00 -0.00000000000E+00 -0.18868618948E+02  0.18868619120E+02  0.25500000000E-02 0. -1.
         11    1    1    2    0    0  0.35924542276E+02 -0.10428807847E+03  0.62892918419E+03  0.63852838212E+03  0.51100000000E-03 0. -1.
         22    1    1    2    0    0  0.24245405071E+02  0.14635681190E+02  0.13336787206E+03  0.13634160088E+03  0.00000000000E+00 0. -1.
          2    1    1    2  501    0 -0.60169947348E+02  0.89652397282E+02  0.21905491876E+03  0.24421923008E+03  0.25500000000E-02 0. -1.
<mgrwt>
<rscale>  0 0.10787444E+03</rscale>
<asrwt>0</asrwt>
<pdfrwt beam="1">  1       11 0.10000000E+01 0.28320361E+02</pdfrwt>
<pdfrwt beam="2">  1        2 0.29035047E-02 0.10787444E+03</pdfrwt>
<totfact> 0.36794476E+03</totfact>
</mgrwt>
</event>
<event>
 5    1  0.6729100E-004  0.8587193E+02  0.7818608E-02  0.1594373E+00
         11   -1    0    0    0    0  0.00000000000E+00  0.00000000000E+00  0.10001864394E+04  0.10001864394E+04  0.51100000000E-03 0.  1.
          2   -1    0    0  501    0 -0.00000000000E+00 -0.00000000000E+00 -0.29439189998E+02  0.29439190109E+02  0.25500000000E-02 0.  1.
         11    1    1    2    0    0 -0.30546507681E+02  0.99703510566E+02  0.53094101237E+03  0.54108431669E+03  0.51100000000E-03 0.  1.
         22    1    1    2    0    0  0.27609553659E+02 -0.69507101385E+02  0.45027731902E+03  0.45644626039E+03  0.00000000000E+00 0.  1.
          2    1    1    2  501    0  0.29369540218E+01 -0.30196409181E+02 -0.10471081987E+02  0.32095052436E+02  0.25500000000E-02 0.  1.
<mgrwt>
<rscale>  0 0.30338900E+02</rscale>
<asrwt>0</asrwt>
<pdfrwt beam="1">  1       11 0.10000000E+01 0.85871934E+02</pdfrwt>
<pdfrwt beam="2">  1        2 0.45299504E-02 0.30338900E+02</pdfrwt>
<totfact> 0.17817526E+03</totfact>
</mgrwt>
</event>
<event>
 5    1  0.6729100E-004  0.1145410E+03  0.7818608E-02  0.1252384E+00
         11   -1    0    0    0    0  0.00000000000E+00  0.00000000000E+00  0.10004071727E+04  0.10004071727E+04  0.51100000000E-03 0. -1.
          2   -1    0    0  501    0 -0.00000000000E+00 -0.00000000000E+00 -0.38440195135E+02  0.38440195219E+02  0.25500000000E-02 0. -1.
         11    1    1    2    0    0 -0.60506349557E+02  0.16163949881E+03  0.36314404712E+03  0.40207206427E+03  0.51100000000E-03 0. -1.
         22    1    1    2    0    0  0.22305539294E+01 -0.88005938473E+02  0.46519950489E+03  0.47345601689E+03  0.00000000000E+00 0. -1.
          2    1    1    2  501    0  0.58275795627E+02 -0.73633560339E+02  0.13362342559E+03  0.16331928679E+03  0.25500000000E-02 0. -1.
<mgrwt>
<rscale>  0 0.11454099E+03</rscale>
<asrwt>0</asrwt>
<pdfrwt beam="1">  1       11 0.10000000E+01 0.88034201E+02</pdfrwt>
<pdfrwt beam="2">  1        2 0.59162840E-02 0.11454099E+03</pdfrwt>
<totfact> 0.14539063E+03</totfact>
</mgrwt>
</event>
<event>
 5    1  0.6729100E-004  0.2411062E+03  0.7818608E-02  0.1119058E+00
         11   -1    0    0    0    0  0.00000000000E+00  0.00000000000E+00  0.10002674716E+04  0.10002674716E+04  0.51100000000E-03 0. -1.
          2   -1    0    0  501    0 -0.00000000000E+00 -0.00000000000E+00 -0.16110249183E+03  0.16110249185E+03  0.25500000000E-02 0.  1.
         11    1    1    2    0    0  0.10680964382E+03 -0.20418748779E+03  0.77748059035E+03  0.81091115330E+03  0.51100000000E-03 0. -1.
         22    1    1    2    0    0 -0.19559015389E+02 -0.22255472257E+02  0.10043454188E+03  0.10471369696E+03  0.00000000000E+00 0. -1.
          2    1    1    2  501    0 -0.87250628435E+02  0.22644296005E+03 -0.38750152489E+02  0.24574511316E+03  0.25500000000E-02 0.  1.
<mgrwt>
<rscale>  0 0.24110620E+03</rscale>
<asrwt>0</asrwt>
<pdfrwt beam="1">  1       11 0.10000000E+01 0.29628721E+02</pdfrwt>
<pdfrwt beam="2">  1        2 0.24791627E-01 0.24110620E+03</pdfrwt>
<totfact> 0.26785988E+02</totfact>
</mgrwt>
</event>
<event>
 5    1  0.6729100E-004  0.8977590E+02  0.7818608E-02  0.1431990E+00
         11   -1    0    0    0    0  0.00000000000E+00  0.00000000000E+00  0.10002643483E+04  0.10002643483E+04  0.51100000000E-03 0.  1.
          2   -1    0    0  501    0 -0.00000000000E+00 -0.00000000000E+00 -0.13472837313E+02  0.13472837554E+02  0.25500000000E-02 0.  1.
         11    1    1    2    0    0  0.81441990495E+02 -0.65376497286E+02  0.55516196291E+03  0.56489971612E+03  0.51100000000E-03 0.  1.
         22    1    1    2    0    0 -0.30213963229E+02  0.58480253402E+01  0.46360171728E+02  0.55644842502E+02  0.00000000000E+00 0.  1.
          2    1    1    2  501    0 -0.51228027266E+02  0.59528471946E+02  0.38526937638E+03  0.39319262726E+03  0.25500000000E-02 0.  1.
<mgrwt>
<rscale>  0 0.52562594E+02</rscale>
<asrwt>0</asrwt>
<pdfrwt beam="1">  1       11 0.10000000E+01 0.89775905E+02</pdfrwt>
<pdfrwt beam="2">  1        2 0.20732921E-02 0.52562594E+02</pdfrwt>
<totfact> 0.52568613E+03</totfact>
</mgrwt>
</event>
<event>
 5    1  0.6729100E-004  0.1137712E+03  0.7818608E-02  0.1654812E+00
         11   -1    0    0    0    0  0.00000000000E+00  0.00000000000E+00  0.10004161479E+04  0.10004161479E+04  0.51100000000E-03 0. -1.
          2   -1    0    0  501    0 -0.00000000000E+00 -0.00000000000E+00 -0.88664645633E+02  0.88664645670E+02  0.25500000000E-02 0. -1.
         11    1    1    2    0    0 -0.60037917859E+02 -0.11010533669E+03  0.56375165137E+03  0.57753238971E+03  0.51100000000E-03 0. -1.
         22    1    1    2    0    0  0.59586299472E+02  0.84672944590E+02  0.42136481993E+03  0.43389900450E+03  0.00000000000E+00 0. -1.
          2    1    1    2  501    0  0.45161838757E+00  0.25432392105E+02 -0.73364969049E+02  0.77649399337E+02  0.25500000000E-02 0. -1.
<mgrwt>
<rscale>  0 0.25436402E+02</rscale>
<asrwt>0</asrwt>
<pdfrwt beam="1">  1       11 0.10000000E+01 0.11377121E+03</pdfrwt>
<pdfrwt beam="2">  1        2 0.13646391E-01 0.25436402E+02</pdfrwt>
<totfact> 0.47320217E+02</totfact>
</mgrwt>
</event>
<event>
 5    1  0.6729100E-004  0.2046034E+03  0.7818608E-02  0.1149080E+00
         11   -1    0    0    0    0  0.00000000000E+00  0.00000000000E+00  0.10005179114E+04  0.10005179114E+04  0.51100000000E-03 0. -1.
          2   -1    0    0  501    0 -0.00000000000E+00 -0.00000000000E+00 -0.16338666686E+03  0.16338666688E+03  0.25500000000E-02 0. -1.
         11    1    1    2    0    0 -0.18178963878E+03 -0.54066401679E+02  0.85091139133E+03  0.87179174374E+03  0.51100000000E-03 0. -1.
         22    1    1    2    0    0 -0.75038745600E+01 -0.12879032301E+02  0.72179983665E+02  0.73702969061E+02  0.00000000000E+00 0. -1.
          2    1    1    2  501    0  0.18929351334E+03  0.66945433980E+02 -0.85960130414E+02  0.21840986551E+03  0.25500000000E-02 0. -1.
<mgrwt>
<rscale>  0 0.20078278E+03</rscale>
<asrwt>0</asrwt>
<pdfrwt beam="1">  1       11 0.10000000E+01 0.20460343E+03</pdfrwt>
<pdfrwt beam="2">  1        2 0.25149428E-01 0.20078278E+03</pdfrwt>
<totfact> 0.26257184E+02</totfact>
</mgrwt>
</event>
<event>
 5    1  0.6729100E-004  0.1203702E+03  0.7818608E-02  0.1242488E+00
         11   -1    0    0    0    0  0.00000000000E+00  0.00000000000E+00  0.10001720576E+04  0.10001720576E+04  0.51100000000E-03 0. -1.
          2   -1    0    0  501    0 -0.00000000000E+00 -0.00000000000E+00 -0.17808939337E+02  0.17808939520E+02  0.25500000000E-02 0. -1.
         11    1    1    2    0    0  0.65242009856E+02 -0.10135004990E+03  0.32973650086E+03  0.35107622031E+03  0.51100000000E-03 0. -1.
         22    1    1    2    0    0 -0.14286014675E+02 -0.81767185948E+01  0.77938350927E+02  0.79657614122E+02  0.00000000000E+00 0.  1.
          2    1    1    2  501    0 -0.50955995181E+02  0.10952676849E+03  0.57468826649E+03  0.58724716271E+03  0.25500000000E-02 0. -1.
<mgrwt>
<rscale>  0 0.12037018E+03</rscale>
<asrwt>0</asrwt>
<pdfrwt beam="1">  1       11 0.10000000E+01 0.16460527E+02</pdfrwt>
<pdfrwt beam="2">  1        2 0.27403082E-02 0.12037018E+03</pdfrwt>
<totfact> 0.40236672E+03</totfact>
</mgrwt>
</event>
<event>
 5    1  0.6729100E-004  0.3699669E+03  0.7818608E-02  0.1054706E+00
         11   -1    0    0    0    0  0.00000000000E+00  0.00000000000E+00  0.10000816012E+04  0.10000816012E+04  0.51100000000E-03 0. -1.
          2   -1    0    0  501    0 -0.00000000000E+00 -0.00000000000E+00 -0.23578455589E+03  0.23578455591E+03  0.25500000000E-02 0. -1.
         11    1    1    2    0    0  0.23927284182E+03 -0.27437602972E+03  0.72281528726E+03  0.80931800796E+03  0.51100000000E-03 0. -1.
         22    1    1    2    0    0  0.12877884168E+02  0.17099066850E+01  0.53414456347E+02  0.54971518338E+02  0.00000000000E+00 0. -1.
          2    1    1    2  501    0 -0.25215072599E+03  0.27266612303E+03 -0.11932698307E+02  0.37157663080E+03  0.25500000000E-02 0. -1.
<mgrwt>
<rscale>  0 0.36996695E+03</rscale>
<asrwt>0</asrwt>
<pdfrwt beam="1">  1       11 0.10000000E+01 0.12990908E+02</pdfrwt>
<pdfrwt beam="2">  1        2 0.36277506E-01 0.36996695E+03</pdfrwt>
<totfact> 0.17667316E+02</totfact>
</mgrwt>
</event>
<event>
 5    1  0.6729100E-004  0.9676074E+03  0.7818608E-02  0.9344804E-01
         11   -1    0    0    0    0  0.00000000000E+00  0.00000000000E+00  0.10011188481E+04  0.10011188481E+04  0.51100000000E-03 0.  1.
          2   -1    0    0  501    0 -0.00000000000E+00 -0.00000000000E+00 -0.13781092093E+04  0.13781092093E+04  0.25500000000E-02 0.  1.
         11    1    1    2    0    0 -0.84102547888E+03 -0.34337253369E+03  0.12986567721E+03  0.91765660632E+03  0.51100000000E-03 0.  1.
         22    1    1    2    0    0 -0.37919853218E+02 -0.13068202872E+03  0.19727901561E+03  0.23965541491E+03  0.00000000000E+00 0.  1.
          2    1    1    2  501    0  0.87894533210E+03  0.47405456240E+03 -0.70413505401E+03  0.12219160361E+04  0.25500000000E-02 0.  1.
<mgrwt>
<rscale>  0 0.96760737E+03</rscale>
<asrwt>0</asrwt>
<pdfrwt beam="1">  1       11 0.10000000E+01 0.13607244E+03</pdfrwt>
<pdfrwt beam="2">  1        2 0.21225401E+00 0.96760737E+03</pdfrwt>
<totfact> 0.18300588E+01</totfact>
</mgrwt>
</event>
<event>
 5    1  0.6729100E-004  0.1097317E+03  0.7818608E-02  0.1556338E+00
         11   -1    0    0    0    0  0.00000000000E+00  0.00000000000E+00  0.10000656373E+04  0.10000656373E+04  0.51100000000E-03 0. -1.
          2   -1    0    0  501    0 -0.00000000000E+00 -0.00000000000E+00 -0.50051912243E+02  0.50051912308E+02  0.25500000000E-02 0. -1.
         11    1    1    2    0    0  0.29809702715E+02  0.11298665209E+03  0.29729979495E+02  0.12057559291E+03  0.51100000000E-03 0. -1.
         22    1    1    2    0    0 -0.89194682530E+01 -0.57718267881E+01  0.19915553129E+02  0.22572110110E+02  0.00000000000E+00 0.  1.
          2    1    1    2  501    0 -0.20890234462E+02 -0.10721482530E+03  0.90036819244E+03  0.90696984659E+03  0.25500000000E-02 0. -1.
<mgrwt>
<rscale>  0 0.34143765E+02</rscale>
<asrwt>0</asrwt>
<pdfrwt beam="1">  1       11 0.10000000E+01 0.10973168E+03</pdfrwt>
<pdfrwt beam="2">  1        2 0.77007994E-02 0.34143765E+02</pdfrwt>
<totfact> 0.94233017E+02</totfact>
</mgrwt>
</event>
<event>
 5    1  0.6729100E-004  0.2596032E+03  0.7818608E-02  0.1107382E+00
         11   -1    0    0    0    0  0.00000000000E+00  0.00000000000E+00  0.10001410339E+04  0.10001410339E+04  0.51100000000E-03 0. -1.
          2   -1    0    0  501    0 -0.00000000000E+00 -0.00000000000E+00 -0.11697288394E+03  0.11697288397E+03  0.25500000000E-02 0. -1.
         11    1    1    2    0    0  0.24135329975E+03 -0.97217378138E+02  0.82937521121E+02  0.27309570909E+03  0.51100000000E-03 0. -1.
         22    1    1    2    0    0 -0.69881419890E+01 -0.85704278028E+01  0.28094856032E+02  0.30192835187E+02  0.00000000000E+00 0. -1.
          2    1    1    2  501    0 -0.23436515776E+03  0.10578780594E+03  0.77213577278E+03  0.81382537358E+03  0.25500000000E-02 0. -1.
<mgrwt>
<rscale>  0 0.25960320E+03</rscale>
<asrwt>0</asrwt>
<pdfrwt beam="1">  1       11 0.10000000E+01 0.11058316E+02</pdfrwt>
<pdfrwt beam="2">  1        2 0.17998366E-01 0.25960320E+03</pdfrwt>
<totfact> 0.38697576E+02</totfact>
</mgrwt>
</event>
<event>
 5    1  0.6729100E-004  0.2368130E+03  0.7818608E-02  0.1121934E+00
         11   -1    0    0    0    0  0.00000000000E+00  0.00000000000E+00  0.10000214011E+04  0.10000214011E+04  0.51100000000E-03 0. -1.
          2   -1    0    0  501    0 -0.00000000000E+00 -0.00000000000E+00 -0.13962364135E+04  0.13962364135E+04  0.25500000000E-02 0. -1.
         11    1    1    2    0    0 -0.10518423335E+03 -0.19809340887E+03  0.94242830165E+03  0.96874961953E+03  0.51100000000E-03 0. -1.
         22    1    1    2    0    0  0.36100104778E+01 -0.15979725203E+02  0.32311655833E+02  0.36227432919E+02  0.00000000000E+00 0.  1.
          2    1    1    2  501    0  0.10157422287E+03  0.21407313408E+03 -0.13709549699E+04  0.13912807621E+04  0.25500000000E-02 0. -1.
<mgrwt>
<rscale>  0 0.23681296E+03</rscale>
<asrwt>0</asrwt>
<pdfrwt beam="1">  1       11 0.10000000E+01 0.16382423E+02</pdfrwt>
<pdfrwt beam="2">  1        2 0.21481019E+00 0.23681296E+03</pdfrwt>
<totfact> 0.19646303E+01</totfact>
</mgrwt>
</event>
<event>
 5    1  0.6729100E-004  0.1617399E+03  0.7818608E-02  0.1188868E+00
         11   -1    0    0    0    0  0.00000000000E+00  0.00000000000E+00  0.10000430668E+04  0.10000430668E+04  0.51100000000E-03 0. -1.
          2   -1    0    0  501    0 -0.00000000000E+00 -0.00000000000E+00 -0.16603803143E+03  0.16603803145E+03  0.25500000000E-02 0.  1.
         11    1    1    2    0    0 -0.14088822557E+03  0.31171533708E+02  0.85287630901E+03  0.86499662143E+03  0.51100000000E-03 0. -1.
         22    1    1    2    0    0 -0.13182675362E+02  0.11415941865E+02  0.10023518593E+03  0.10174084311E+03  0.00000000000E+00 0.  1.
          2    1    1    2  501    0  0.15407090093E+03 -0.42587475573E+02 -0.11910645956E+03  0.19934363372E+03  0.25500000000E-02 0.  1.
<mgrwt>
<rscale>  0 0.15984848E+03</rscale>
<asrwt>0</asrwt>
<pdfrwt beam="1">  1       11 0.10000000E+01 0.16173993E+03</pdfrwt>
<pdfrwt beam="2">  1        2 0.25545412E-01 0.15984848E+03</pdfrwt>
<totfact> 0.25673895E+02</totfact>
</mgrwt>
</event>
<event>
 5    1  0.6729100E-004  0.1002995E+03  0.7818608E-02  0.1343785E+00
         11   -1    0    0    0    0  0.00000000000E+00  0.00000000000E+00  0.10000082643E+04  0.10000082643E+04  0.51100000000E-03 0. -1.
          2   -1    0    0  501    0 -0.00000000000E+00 -0.00000000000E+00 -0.17533129842E+02  0.17533130027E+02  0.25500000000E-02 0.  1.
         11    1    1    2    0    0 -0.89269367318E+01  0.91011268981E+02  0.31888518816E+03  0.33173860871E+03  0.51100000000E-03 0. -1.
         22    1    1    2    0    0 -0.55775172617E+02  0.62457798175E+01  0.20046892902E+03  0.20817701878E+03  0.00000000000E+00 0. -1.
          2    1    1    2  501    0  0.64702109349E+02 -0.97257048799E+02  0.46312101729E+03  0.47762576685E+03  0.25500000000E-02 0.  1.
<mgrwt>
<rscale>  0 0.75027918E+02</rscale>
<asrwt>0</asrwt>
<pdfrwt beam="1">  1       11 0.10000000E+01 0.10029951E+03</pdfrwt>
<pdfrwt beam="2">  1        2 0.26974268E-02 0.75027918E+02</pdfrwt>
<totfact> 0.38915971E+03</totfact>
</mgrwt>
</event>
<event>
 5    1  0.6729100E-004  0.3078055E+03  0.7818608E-02  0.1372227E+00
         11   -1    0    0    0    0  0.00000000000E+00  0.00000000000E+00  0.10002245788E+04  0.10002245788E+04  0.51100000000E-03 0. -1.
          2   -1    0    0  501    0 -0.00000000000E+00 -0.00000000000E+00 -0.17721696741E+03  0.17721696742E+03  0.25500000000E-02 0. -1.
         11    1    1    2    0    0  0.23984376874E+03  0.19405243124E+03  0.80018990792E+03  0.85760437744E+03  0.51100000000E-03 0. -1.
         22    1    1    2    0    0  0.53429015496E+01 -0.13360761229E+02 -0.23001544801E+00  0.14391297534E+02  0.00000000000E+00 0. -1.
          2    1    1    2  501    0 -0.24518667029E+03 -0.18069167002E+03  0.23047718917E+02  0.30544587124E+03  0.25500000000E-02 0. -1.
<mgrwt>
<rscale>  0 0.66551891E+02</rscale>
<asrwt>0</asrwt>
<pdfrwt beam="1">  1       11 0.10000000E+01 0.30780546E+03</pdfrwt>
<pdfrwt beam="2">  1        2 0.27270271E-01 0.66551891E+02</pdfrwt>
<totfact> 0.23368224E+02</totfact>
</mgrwt>
</event>
<event>
 5    1  0.6729100E-004  0.2258167E+03  0.7818608E-02  0.1129619E+00
         11   -1    0    0    0    0  0.00000000000E+00  0.00000000000E+00  0.10001641929E+04  0.10001641929E+04  0.51100000000E-03 0. -1.
          2   -1    0    0  501    0 -0.00000000000E+00 -0.00000000000E+00 -0.21737276035E+03  0.21737276036E+03  0.25500000000E-02 0. -1.
         11    1    1    2    0    0  0.17325839418E+03  0.13965702467E+02  0.14409677631E+03  0.22578173740E+03  0.51100000000E-03 0. -1.
         22    1    1    2    0    0  0.68679695889E+02 -0.11393903943E+03  0.70845633683E+03  0.72083936250E+03  0.00000000000E+00 0. -1.
          2    1    1    2  501    0 -0.24193809007E+03  0.99973336964E+02 -0.69761680574E+02  0.27091585338E+03  0.25500000000E-02 0. -1.
<mgrwt>
<rscale>  0 0.22581673E+03</rscale>
<asrwt>0</asrwt>
<pdfrwt beam="1">  1       11 0.10000000E+01 0.13303761E+03</pdfrwt>
<pdfrwt beam="2">  1        2 0.33447453E-01 0.22581673E+03</pdfrwt>
<totfact> 0.19218902E+02</totfact>
</mgrwt>
</event>
<event>
 5    1  0.6729100E-004  0.2191208E+03  0.7818608E-02  0.1134540E+00
         11   -1    0    0    0    0  0.00000000000E+00  0.00000000000E+00  0.10002733354E+04  0.10002733354E+04  0.51100000000E-03 0.  1.
          2   -1    0    0  501    0 -0.00000000000E+00 -0.00000000000E+00 -0.93061338591E+02  0.93061338626E+02  0.25500000000E-02 0.  1.
         11    1    1    2    0    0  0.16628979822E+03  0.11234798089E+03  0.68286396938E+03  0.71174262657E+03  0.51100000000E-03 0.  1.
         22    1    1    2    0    0 -0.79139996300E+01  0.46524706843E+02  0.12987170865E+03  0.13818046332E+03  0.00000000000E+00 0. -1.
          2    1    1    2  501    0 -0.15837579859E+03 -0.15887268773E+03  0.94476318818E+02  0.24341158417E+03  0.25500000000E-02 0.  1.
<mgrwt>
<rscale>  0 0.21912076E+03</rscale>
<asrwt>0</asrwt>
<pdfrwt beam="1">  1       11 0.10000000E+01 0.47193005E+02</pdfrwt>
<pdfrwt beam="2">  1        2 0.14321042E-01 0.21912076E+03</pdfrwt>
<totfact> 0.50377270E+02</totfact>
</mgrwt>
</event>
<event>
 5    1  0.6729100E-004  0.1400873E+03  0.7818608E-02  0.1560100E+00
         11   -1    0    0    0    0  0.00000000000E+00  0.00000000000E+00  0.99997846683E+03  0.99997846683E+03  0.51100000000E-03 0.  1.
          2   -1    0    0  501    0 -0.00000000000E+00 -0.00000000000E+00 -0.75779186735E+02  0.75779186777E+02  0.25500000000E-02 0. -1.
         11    1    1    2    0    0 -0.12419864570E+03 -0.10529043924E+03  0.35037538976E+03  0.38636031620E+03  0.51100000000E-03 0.  1.
         22    1    1    2    0    0  0.10724811154E+03  0.76119488228E+02  0.61911037513E+03  0.63292494856E+03  0.00000000000E+00 0.  1.
          2    1    1    2  501    0  0.16950534156E+02  0.29170951016E+02 -0.45286484786E+02  0.56472388848E+02  0.25500000000E-02 0. -1.
<mgrwt>
<rscale>  0 0.33738183E+02</rscale>
<asrwt>0</asrwt>
<pdfrwt beam="1">  1       11 0.10000000E+01 0.14008732E+03</pdfrwt>
<pdfrwt beam="2">  1        2 0.11658085E-01 0.33738183E+02</pdfrwt>
<totfact> 0.57805708E+02</totfact>
</mgrwt>
</event>
<event>
 5    1  0.6729100E-004  0.1472507E+04  0.7818608E-02  0.8902944E-01
         11   -1    0    0    0    0  0.00000000000E+00  0.00000000000E+00  0.10008384589E+04  0.10008384589E+04  0.51100000000E-03 0. -1.
          2   -1    0    0  501    0 -0.00000000000E+00 -0.00000000000E+00 -0.32167523632E+04  0.32167523632E+04  0.25500000000E-02 0. -1.
         11    1    1    2    0    0  0.13621258636E+04 -0.63033169208E+03 -0.41382531521E+03  0.15569060029E+04  0.51100000000E-03 0. -1.
         22    1    1    2    0    0 -0.42654747349E+02  0.38590050430E+01  0.18759600055E+03  0.19242291655E+03  0.00000000000E+00 0. -1.
          2    1    1    2  501    0 -0.13194711162E+04  0.62647268704E+03 -0.19896845896E+04  0.24682619027E+04  0.25500000000E-02 0. -1.
<mgrwt>
<rscale>  0 0.14725074E+04</rscale>
<asrwt>0</asrwt>
<pdfrwt beam="1">  1       11 0.10000000E+01 0.42828955E+02</pdfrwt>
<pdfrwt beam="2">  1        2 0.49529991E+00 0.14725074E+04</pdfrwt>
<totfact> 0.15146438E+00</totfact>
</mgrwt>
</event>
<event>
 5    1  0.6729100E-004  0.1375656E+03  0.7818608E-02  0.1216643E+00
         11   -1    0    0    0    0  0.00000000000E+00  0.00000000000E+00  0.10002513418E+04  0.10002513418E+04  0.51100000000E-03 0.  1.
          2   -1    0    0  501    0 -0.00000000000E+00 -0.00000000000E+00 -0.21924764426E+02  0.21924764575E+02  0.25500000000E-02 0.  1.
         11    1    1    2    0    0 -0.43588224351E+02  0.12641801967E+03  0.37017397469E+03  0.39358635716E+03  0.51100000000E-03 0.  1.
         22    1    1    2    0    0 -0.14425309074E+02  0.46419880857E+01  0.74485546635E+02  0.76011408701E+02  0.00000000000E+00 0.  1.
          2    1    1    2  501    0  0.58013533425E+02 -0.13106000776E+03  0.53366705606E+03  0.55257834053E+03  0.25500000000E-02 0.  1.
<mgrwt>
<rscale>  0 0.13756560E+03</rscale>
<asrwt>0</asrwt>
<pdfrwt beam="1">  1       11 0.10000000E+01 0.15153798E+02</pdfrwt>
<pdfrwt beam="2">  1        2 0.33738884E-02 0.13756560E+03</pdfrwt>
<totfact> 0.30863415E+03</totfact>
</mgrwt>
</event>
<event>
 5    1  0.6729100E-004  0.1145949E+03  0.7818608E-02  0.1321869E+00
         11   -1    0    0    0    0  0.00000000000E+00  0.00000000000E+00  0.10000842892E+04  0.10000842892E+04  0.51100000000E-03 0. -1.
          2   -1    0    0  501    0 -0.00000000000E+00 -0.00000000000E+00 -0.34364530254E+02  0.34364530349E+02  0.25500000000E-02 0. -1.
         11    1    1    2    0    0 -0.12142496856E+03  0.51858314228E+01  0.29006301334E+03  0.31449557636E+03  0.51100000000E-03 0. -1.
         22    1    1    2    0    0  0.89358046140E+02 -0.81292035836E+02  0.58490256464E+03  0.59724723994E+03  0.00000000000E+00 0. -1.
          2    1    1    2  501    0  0.32066922417E+02  0.76106204413E+02  0.90754180947E+02  0.12270600323E+03  0.25500000000E-02 0. -1.
<mgrwt>
<rscale>  0 0.82585967E+02</rscale>
<asrwt>0</asrwt>
<pdfrwt beam="1">  1       11 0.10000000E+01 0.11459486E+03</pdfrwt>
<pdfrwt beam="2">  1        2 0.52872963E-02 0.82585967E+02</pdfrwt>
<totfact> 0.16331471E+03</totfact>
</mgrwt>
</event>
<event>
 5    1  0.6729100E-004  0.1823866E+03  0.7818608E-02  0.1173129E+00
         11   -1    0    0    0    0  0.00000000000E+00  0.00000000000E+00  0.10001505659E+04  0.10001505659E+04  0.51100000000E-03 0.  1.
          2   -1    0    0  501    0 -0.00000000000E+00 -0.00000000000E+00 -0.35413956894E+02  0.35413956986E+02  0.25500000000E-02 0.  1.
         11    1    1    2    0    0 -0.12019014987E+03 -0.22380683933E+02  0.37653332088E+03  0.39588370625E+03  0.51100000000E-03 0.  1.
         22    1    1    2    0    0 -0.54196647250E+02  0.13647083449E+02  0.27937677318E+03  0.28491209320E+03  0.00000000000E+00 0.  1.
          2    1    1    2  501    0  0.17438679712E+03  0.87336004838E+01  0.30882651492E+03  0.35476872341E+03  0.25500000000E-02 0.  1.
<mgrwt>
<rscale>  0 0.17460536E+03</rscale>
<asrwt>0</asrwt>
<pdfrwt beam="1">  1       11 0.10000000E+01 0.18238659E+03</pdfrwt>
<pdfrwt beam="2">  1        2 0.54491212E-02 0.17460536E+03</pdfrwt>
<totfact> 0.16703679E+03</totfact>
</mgrwt>
</event>
<event>
 5    1  0.6729100E-004  0.1015886E+03  0.7818608E-02  0.1276990E+00
         11   -1    0    0    0    0  0.00000000000E+00  0.00000000000E+00  0.10006652358E+04  0.10006652358E+04  0.51100000000E-03 0.  1.
          2   -1    0    0  501    0 -0.00000000000E+00 -0.00000000000E+00 -0.95300412050E+01  0.95300415462E+01  0.25500000000E-02 0.  1.
         11    1    1    2    0    0  0.38223046157E+02 -0.85382007546E+02  0.49641546568E+03  0.50515285116E+03  0.51100000000E-03 0.  1.
         22    1    1    2    0    0 -0.24137107614E+02  0.12676850654E+02  0.11745436162E+03  0.12057706901E+03  0.00000000000E+00 0. -1.
          2    1    1    2  501    0 -0.14085938543E+02  0.72705156892E+02  0.37726536724E+03  0.38446535713E+03  0.25500000000E-02 0.  1.
<mgrwt>
<rscale>  0 0.10158859E+03</rscale>
<asrwt>0</asrwt>
<pdfrwt beam="1">  1       11 0.10000000E+01 0.93547253E+02</pdfrwt>
<pdfrwt beam="2">  1        2 0.14671355E-02 0.10158859E+03</pdfrwt>
<totfact> 0.91914000E+03</totfact>
</mgrwt>
</event>
<event>
 5    1  0.6729100E-004  0.2016473E+03  0.7818608E-02  0.1148357E+00
         11   -1    0    0    0    0  0.00000000000E+00  0.00000000000E+00  0.10001034084E+04  0.10001034084E+04  0.51100000000E-03 0. -1.
          2   -1    0    0  501    0 -0.00000000000E+00 -0.00000000000E+00 -0.49314470721E+02  0.49314470787E+02  0.25500000000E-02 0. -1.
         11    1    1    2    0    0 -0.10944973807E+03  0.16602301733E+03  0.28938148128E+03  0.35111896724E+03  0.51100000000E-03 0. -1.
         22    1    1    2    0    0  0.46914408287E+01  0.12577082441E+02  0.80089354757E+02  0.81206510608E+02  0.00000000000E+00 0. -1.
          2    1    1    2  501    0  0.10475829724E+03 -0.17860009977E+03  0.58131810160E+03  0.61709240130E+03  0.25500000000E-02 0. -1.
<mgrwt>
<rscale>  0 0.20164730E+03</rscale>
<asrwt>0</asrwt>
<pdfrwt beam="1">  1       11 0.10000000E+01 0.13423584E+02</pdfrwt>
<pdfrwt beam="2">  1        2 0.75876260E-02 0.20164730E+03</pdfrwt>
<totfact> 0.10997657E+03</totfact>
</mgrwt>
</event>
<event>
 5    1  0.6729100E-004  0.1175310E+03  0.7818608E-02  0.1247227E+00
         11   -1    0    0    0    0  0.00000000000E+00  0.00000000000E+00  0.10001413739E+04  0.10001413739E+04  0.51100000000E-03 0. -1.
          2   -1    0    0  501    0 -0.00000000000E+00 -0.00000000000E+00 -0.12853922829E+02  0.12853923082E+02  0.25500000000E-02 0. -1.
         11    1    1    2    0    0 -0.41137835811E+02 -0.10118487725E+03  0.47970425903E+03  0.49198259832E+03  0.51100000000E-03 0. -1.
         22    1    1    2    0    0  0.48494472927E+02  0.69365321672E+02  0.38060376148E+03  0.38990060914E+03  0.00000000000E+00 0. -1.
          2    1    1    2  501    0 -0.73566371161E+01  0.31819555578E+02  0.12697943060E+03  0.13111208956E+03  0.25500000000E-02 0. -1.
<mgrwt>
<rscale>  0 0.11753100E+03</rscale>
<asrwt>0</asrwt>
<pdfrwt beam="1">  1       11 0.10000000E+01 0.10922775E+03</pdfrwt>
<pdfrwt beam="2">  1        2 0.19778061E-02 0.11753100E+03</pdfrwt>
<totfact> 0.62367247E+03</totfact>
</mgrwt>
</event>
<event>
 5    1  0.6729100E-004  0.1601145E+03  0.7818608E-02  0.1188568E+00
         11   -1    0    0    0    0  0.00000000000E+00  0.00000000000E+00  0.10004002025E+04  0.10004002025E+04  0.51100000000E-03 0. -1.
         -2   -1    0    0    0  501 -0.00000000000E+00 -0.00000000000E+00 -0.27451430125E+03  0.27451430126E+03  0.25500000000E-02 0.  1.
         11    1    1    2    0    0  0.10092651283E+03 -0.10401354026E+03  0.64810889487E+03  0.66411604194E+03  0.51100000000E-03 0. -1.
         22    1    1    2    0    0  0.49142405858E+02  0.45259085062E+02  0.31610925269E+03  0.32309196906E+03  0.00000000000E+00 0. -1.
         -2    1    1    2    0  501 -0.15006891869E+03  0.58754455199E+02 -0.23833224629E+03  0.28770649278E+03  0.25500000000E-02 0.  1.
<mgrwt>
<rscale>  0 0.16011447E+03</rscale>
<asrwt>0</asrwt>
<pdfrwt beam="1">  1       11 0.10000000E+01 0.66808389E+02</pdfrwt>
<pdfrwt beam="2">  1       -2 0.42249870E-01 0.16011447E+03</pdfrwt>
<totfact> 0.43289618E+01</totfact>
</mgrwt>
</event>
<event>
 5    1  0.6729100E-004  0.2224752E+03  0.7818608E-02  0.1132051E+00
         11   -1    0    0    0    0  0.00000000000E+00  0.00000000000E+00  0.10004519559E+04  0.10004519559E+04  0.51100000000E-03 0. -1.
          2   -1    0    0  501    0 -0.00000000000E+00 -0.00000000000E+00 -0.48531240844E+03  0.48531240845E+03  0.25500000000E-02 0. -1.
         11    1    1    2    0    0 -0.21561677231E+03 -0.30403602102E+03  0.48924832336E+03  0.61505480771E+03  0.51100000000E-03 0. -1.
         22    1    1    2    0    0  0.61580987736E+02  0.15401523023E+03  0.40345022424E+03  0.43621668083E+03  0.00000000000E+00 0. -1.
          2    1    1    2  501    0  0.15403578457E+03  0.15002079079E+03 -0.37755900010E+03  0.43449287585E+03  0.25500000000E-02 0. -1.
<mgrwt>
<rscale>  0 0.22247516E+03</rscale>
<asrwt>0</asrwt>
<pdfrwt beam="1">  1       11 0.10000000E+01 0.16587016E+03</pdfrwt>
<pdfrwt beam="2">  1        2 0.74697190E-01 0.22247516E+03</pdfrwt>
<totfact> 0.80368933E+01</totfact>
</mgrwt>
</event>
<event>
 5    1  0.6729100E-004  0.1166669E+03  0.7818608E-02  0.1495605E+00
         11   -1    0    0    0    0  0.00000000000E+00  0.00000000000E+00  0.10003055694E+04  0.10003055694E+04  0.51100000000E-03 0. -1.
          2   -1    0    0  501    0 -0.00000000000E+00 -0.00000000000E+00 -0.10000234752E+03  0.10000234755E+03  0.25500000000E-02 0.  1.
         11    1    1    2    0    0  0.10186585092E+03 -0.82639832252E+02  0.74157534164E+03  0.75308696761E+03  0.51100000000E-03 0. -1.
         22    1    1    2    0    0 -0.61381432055E+02  0.72373888842E+02  0.23877006030E+03  0.25693734972E+03  0.00000000000E+00 0. -1.
          2    1    1    2  501    0 -0.40484418870E+02  0.10265943410E+02 -0.80042180055E+02  0.90283599617E+02  0.25500000000E-02 0.  1.
<mgrwt>
<rscale>  0 0.41765749E+02</rscale>
<asrwt>0</asrwt>
<pdfrwt beam="1">  1       11 0.10000000E+01 0.11666689E+03</pdfrwt>
<pdfrwt beam="2">  1        2 0.15389677E-01 0.41765749E+02</pdfrwt>
<totfact> 0.42794352E+02</totfact>
</mgrwt>
</event>
<event>
 5    1  0.6729100E-004  0.1640942E+03  0.7818608E-02  0.1184150E+00
         11   -1    0    0    0    0  0.00000000000E+00  0.00000000000E+00  0.10002231195E+04  0.10002231195E+04  0.51100000000E-03 0. -1.
          2   -1    0    0  501    0 -0.00000000000E+00 -0.00000000000E+00 -0.31192971703E+02  0.31192971807E+02  0.25500000000E-02 0.  1.
         11    1    1    2    0    0 -0.13750912667E+03 -0.78717066115E+02  0.40374742378E+03  0.43372470373E+03  0.51100000000E-03 0. -1.
         22    1    1    2    0    0 -0.30145844550E+01 -0.18356931381E+02  0.10725600014E+03  0.10885731126E+03  0.00000000000E+00 0. -1.
          2    1    1    2  501    0  0.14052371112E+03  0.97073997496E+02  0.45802672389E+03  0.48883407633E+03  0.25500000000E-02 0.  1.
<mgrwt>
<rscale>  0 0.16409420E+03</rscale>
<asrwt>0</asrwt>
<pdfrwt beam="1">  1       11 0.10000000E+01 0.18602813E+02</pdfrwt>
<pdfrwt beam="2">  1        2 0.47999893E-02 0.16409420E+03</pdfrwt>
<totfact> 0.19633226E+03</totfact>
</mgrwt>
</event>
<event>
 5    1  0.6729100E-004  0.2458376E+03  0.7818608E-02  0.1117874E+00
         11   -1    0    0    0    0  0.00000000000E+00  0.00000000000E+00  0.10003813694E+04  0.10003813694E+04  0.51100000000E-03 0. -1.
          2   -1    0    0  501    0 -0.00000000000E+00 -0.00000000000E+00 -0.67744094200E+03  0.67744094200E+03  0.25500000000E-02 0.  1.
         11    1    1    2    0    0 -0.12695416006E+02 -0.21134269971E+03  0.78918718797E+03  0.81709444250E+03  0.51100000000E-03 0. -1.
         22    1    1    2    0    0  0.72874673935E+01 -0.31499809592E+02  0.17346501635E+03  0.17645242159E+03  0.00000000000E+00 0.  1.
          2    1    1    2  501    0  0.54079486123E+01  0.24284250930E+03 -0.63971177693E+03  0.68427544731E+03  0.25500000000E-02 0.  1.
<mgrwt>
<rscale>  0 0.24290272E+03</rscale>
<asrwt>0</asrwt>
<pdfrwt beam="1">  1       11 0.10000000E+01 0.24583756E+03</pdfrwt>
<pdfrwt beam="2">  1        2 0.10426143E+00 0.24290272E+03</pdfrwt>
<totfact> 0.54627110E+01</totfact>
</mgrwt>
</event>
<event>
 5    1  0.6729100E-004  0.9431345E+02  0.7818608E-02  0.1292730E+00
         11   -1    0    0    0    0  0.00000000000E+00  0.00000000000E+00  0.10004934443E+04  0.10004934443E+04  0.51100000000E-03 0. -1.
          2   -1    0    0  501    0 -0.00000000000E+00 -0.00000000000E+00 -0.17796867055E+02  0.17796867238E+02  0.25500000000E-02 0.  1.
         11    1    1    2    0    0  0.38640781424E+02 -0.47768429387E+02  0.22019937296E+03  0.22861035997E+03  0.51100000000E-03 0. -1.
         22    1    1    2    0    0 -0.73643969590E+02 -0.55722651356E+02  0.27504199480E+03  0.29013194762E+03  0.00000000000E+00 0. -1.
          2    1    1    2  501    0  0.35003188166E+02  0.10349108074E+03  0.48745520947E+03  0.49954800392E+03  0.25500000000E-02 0.  1.
<mgrwt>
<rscale>  0 0.94313454E+02</rscale>
<asrwt>0</asrwt>
<pdfrwt beam="1">  1       11 0.10000000E+01 0.61440513E+02</pdfrwt>
<pdfrwt beam="2">  1        2 0.27393305E-02 0.94313454E+02</pdfrwt>
<totfact> 0.39174643E+03</totfact>
</mgrwt>
</event>
<event>
 5    1  0.6729100E-004  0.1869915E+03  0.7818608E-02  0.1338336E+00
         11   -1    0    0    0    0  0.00000000000E+00  0.00000000000E+00  0.10000751893E+04  0.10000751893E+04  0.51100000000E-03 0.  1.
          2   -1    0    0  501    0 -0.00000000000E+00 -0.00000000000E+00 -0.11001862203E+03  0.11001862206E+03  0.25500000000E-02 0. -1.
         11    1    1    2    0    0  0.99719281919E+02 -0.93043535622E+02  0.14337349140E+03  0.19788125921E+03  0.51100000000E-03 0.  1.
         22    1    1    2    0    0 -0.15921153455E+03  0.14163854144E+03  0.79392878707E+03  0.82202962726E+03  0.00000000000E+00 0.  1.
          2    1    1    2  501    0  0.59492252626E+02 -0.48595005813E+02 -0.47245711185E+02  0.90182924905E+02  0.25500000000E-02 0. -1.
<mgrwt>
<rscale>  0 0.76816683E+02</rscale>
<asrwt>0</asrwt>
<pdfrwt beam="1">  1       11 0.10000000E+01 0.18699155E+03</pdfrwt>
<pdfrwt beam="2">  1        2 0.16927214E-01 0.76816683E+02</pdfrwt>
<totfact> 0.39690816E+02</totfact>
</mgrwt>
</event>
<event>
 5    1  0.6729100E-004  0.3151232E+03  0.7818608E-02  0.1083827E+00
         11   -1    0    0    0    0  0.00000000000E+00  0.00000000000E+00  0.10001848185E+04  0.10001848185E+04  0.51100000000E-03 0. -1.
          2   -1    0    0  501    0 -0.00000000000E+00 -0.00000000000E+00 -0.76535203354E+03  0.76535203354E+03  0.25500000000E-02 0. -1.
         11    1    1    2    0    0 -0.24986796912E+03 -0.12856558747E+03  0.80882441249E+03  0.85624765256E+03  0.51100000000E-03 0. -1.
         22    1    1    2    0    0 -0.72651811603E+01 -0.31425401761E+02  0.13474987646E+03  0.13855637098E+03  0.00000000000E+00 0.  1.
          2    1    1    2  501    0  0.25713315028E+03  0.15999098923E+03 -0.70874150393E+03  0.77073282855E+03  0.25500000000E-02 0. -1.
<mgrwt>
<rscale>  0 0.30284414E+03</rscale>
<asrwt>0</asrwt>
<pdfrwt beam="1">  1       11 0.10000000E+01 0.31512316E+03</pdfrwt>
<pdfrwt beam="2">  1        2 0.11776823E+00 0.30284414E+03</pdfrwt>
<totfact> 0.46693707E+01</totfact>
</mgrwt>
</event>
<event>
 5    1  0.6729100E-004  0.6810703E+02  0.7818608E-02  0.1553821E+00
         11   -1    0    0    0    0  0.00000000000E+00  0.00000000000E+00  0.10001811387E+04  0.10001811387E+04  0.51100000000E-03 0.  1.
          2   -1    0    0  501    0 -0.00000000000E+00 -0.00000000000E+00 -0.76788211675E+01  0.76788215909E+01  0.25500000000E-02 0.  1.
         11    1    1    2    0    0 -0.57503273024E+02 -0.40727604532E+02  0.39590028874E+03  0.40212237293E+03  0.51100000000E-03 0.  1.
         22    1    1    2    0    0  0.31055731380E+02  0.62754794428E+02  0.37545272736E+03  0.38192587391E+03  0.00000000000E+00 0.  1.
          2    1    1    2  501    0  0.26447541643E+02 -0.22027189896E+02  0.22114930140E+03  0.22381171344E+03  0.25500000000E-02 0.  1.
<mgrwt>
<rscale>  0 0.34419029E+02</rscale>
<asrwt>0</asrwt>
<pdfrwt beam="1">  1       11 0.10000000E+01 0.68107025E+02</pdfrwt>
<pdfrwt beam="2">  1        2 0.11815711E-02 0.34419029E+02</pdfrwt>
<totfact> 0.10291405E+04</totfact>
</mgrwt>
</event>
<event>
 5    1  0.6729100E-004  0.1079990E+03  0.7818608E-02  0.1264321E+00
         11   -1    0    0    0    0  0.00000000000E+00  0.00000000000E+00  0.10002539547E+04  0.10002539547E+04  0.51100000000E-03 0. -1.
          2   -1    0    0  501    0 -0.00000000000E+00 -0.00000000000E+00 -0.16427828265E+02  0.16427828462E+02  0.25500000000E-02 0. -1.
         11    1    1    2    0    0  0.10166285467E+03  0.18640507772E+02  0.55635296246E+03  0.56587226773E+03  0.51100000000E-03 0. -1.
         22    1    1    2    0    0  0.98440904731E+01 -0.27139304801E+02  0.12594805988E+03  0.12921440233E+03  0.00000000000E+00 0. -1.
          2    1    1    2  501    0 -0.11150694514E+03  0.84987970287E+01  0.30152510413E+03  0.32159511313E+03  0.25500000000E-02 0. -1.
<mgrwt>
<rscale>  0 0.10799899E+03</rscale>
<asrwt>0</asrwt>
<pdfrwt beam="1">  1       11 0.10000000E+01 0.28869499E+02</pdfrwt>
<pdfrwt beam="2">  1        2 0.25280000E-02 0.10799899E+03</pdfrwt>
<totfact> 0.44307827E+03</totfact>
</mgrwt>
</event>
<event>
 5    1  0.6729100E-004  0.4157014E+03  0.7818608E-02  0.1041866E+00
         11   -1    0    0    0    0  0.00000000000E+00  0.00000000000E+00  0.10001956144E+04  0.10001956144E+04  0.51100000000E-03 0. -1.
          2   -1    0    0  501    0 -0.00000000000E+00 -0.00000000000E+00 -0.13223098944E+04  0.13223098944E+04  0.25500000000E-02 0. -1.
         11    1    1    2    0    0  0.14165561533E+03  0.33151684669E+03  0.73403768041E+03  0.81779034554E+03  0.51100000000E-03 0. -1.
         22    1    1    2    0    0  0.86757216378E+01  0.45169879484E+02  0.18934255451E+03  0.19484914449E+03  0.00000000000E+00 0. -1.
          2    1    1    2  501    0 -0.15033133697E+03 -0.37668672618E+03 -0.12454945149E+04  0.13098660188E+04  0.25500000000E-02 0. -1.
<mgrwt>
<rscale>  0 0.40557663E+03</rscale>
<asrwt>0</asrwt>
<pdfrwt beam="1">  1       11 0.10000000E+01 0.41570143E+03</pdfrwt>
<pdfrwt beam="2">  1        2 0.20347208E+00 0.40557663E+03</pdfrwt>
<totfact> 0.20817941E+01</totfact>
</mgrwt>
</event>
<event>
 5    1  0.6729100E-004  0.1118835E+03  0.7818608E-02  0.1363108E+00
         11   -1    0    0    0    0  0.00000000000E+00  0.00000000000E+00  0.99958067246E+03  0.99958067246E+03  0.51100000000E-03 0. -1.
         -2   -1    0    0    0  501 -0.00000000000E+00 -0.00000000000E+00 -0.73872572090E+02  0.73872572134E+02  0.25500000000E-02 0. -1.
         11    1    1    2    0    0  0.11129951534E+03  0.52620682003E+02  0.67542976313E+03  0.68655799697E+03  0.51100000000E-03 0. -1.
         22    1    1    2    0    0 -0.53604064416E+02 -0.90685449398E+02  0.28904659831E+03  0.30764457162E+03  0.00000000000E+00 0. -1.
         -2    1    1    2    0  501 -0.57695450919E+02  0.38064767396E+02 -0.38768261067E+02  0.79250675999E+02  0.25500000000E-02 0. -1.
<mgrwt>
<rscale>  0 0.69120848E+02</rscale>
<asrwt>0</asrwt>
<pdfrwt beam="1">  1       11 0.10000000E+01 0.11188346E+03</pdfrwt>
<pdfrwt beam="2">  1       -2 0.11360245E-01 0.69120848E+02</pdfrwt>
<totfact> 0.40020631E+02</totfact>
</mgrwt>
</event>
<event>
 5    1  0.6729100E-004  0.8739919E+02  0.7818608E-02  0.1309275E+00
         11   -1    0    0    0    0  0.00000000000E+00  0.00000000000E+00  0.10004101847E+04  0.10004101847E+04  0.51100000000E-03 0. -1.
          2   -1    0    0  501    0 -0.00000000000E+00 -0.00000000000E+00 -0.72600222052E+01  0.72600226530E+01  0.25500000000E-02 0.  1.
         11    1    1    2    0    0  0.17925377175E+02  0.81056654163E+02  0.49359901692E+03  0.50053120766E+03  0.51100000000E-03 0. -1.
         22    1    1    2    0    0 -0.91636231778E+01 -0.43192081512E+01  0.53629198960E+02  0.54577637636E+02  0.00000000000E+00 0.  1.
          2    1    1    2  501    0 -0.87617539975E+01 -0.76737446011E+02  0.44592194660E+03  0.45256136205E+03  0.25500000000E-02 0.  1.
<mgrwt>
<rscale>  0 0.87399187E+02</rscale>
<asrwt>0</asrwt>
<pdfrwt beam="1">  1       11 0.10000000E+01 0.83015061E+02</pdfrwt>
<pdfrwt beam="2">  1        2 0.11173846E-02 0.87399187E+02</pdfrwt>
<totfact> 0.13037736E+04</totfact>
</mgrwt>
</event>
<event>
 5    1  0.6729100E-004  0.1331485E+03  0.7818608E-02  0.1503693E+00
         11   -1    0    0    0    0  0.00000000000E+00  0.00000000000E+00  0.10001943380E+04  0.10001943380E+04  0.51100000000E-03 0. -1.
          2   -1    0    0  501    0 -0.00000000000E+00 -0.00000000000E+00 -0.29893667927E+03  0.29893667928E+03  0.25500000000E-02 0. -1.
         11    1    1    2    0    0  0.26555995694E+02  0.15764502791E+03  0.34017445332E+03  0.37586677749E+03  0.51100000000E-03 0. -1.
         22    1    1    2    0    0 -0.31664098371E+01 -0.12443416960E+03  0.63462800121E+03  0.64671986875E+03  0.00000000000E+00 0. -1.
          2    1    1    2  501    0 -0.23389585857E+02 -0.33210858304E+02 -0.27354479580E+03  0.27654437104E+03  0.25500000000E-02 0. -1.
<mgrwt>
<rscale>  0 0.40620609E+02</rscale>
<asrwt>0</asrwt>
<pdfrwt beam="1">  1       11 0.10000000E+01 0.13314855E+03</pdfrwt>
<pdfrwt beam="2">  1        2 0.45999195E-01 0.40620609E+02</pdfrwt>
<totfact> 0.13447806E+02</totfact>
</mgrwt>
</event>
<event>
 5    1  0.6729100E-004  0.2893642E+03  0.7818608E-02  0.1090682E+00
         11   -1    0    0    0    0  0.00000000000E+00  0.00000000000E+00  0.10004299725E+04  0.10004299725E+04  0.51100000000E-03 0.  1.
          2   -1    0    0  501    0 -0.00000000000E+00 -0.00000000000E+00 -0.94883166804E+02  0.94883166839E+02  0.25500000000E-02 0.  1.
         11    1    1    2    0    0 -0.26168245984E+03 -0.11187671458E+03  0.31170359621E+03  0.42208203106E+03  0.51100000000E-03 0.  1.
         22    1    1    2    0    0 -0.14403821846E+02  0.29535690506E+01  0.66480345655E+02  0.68086929820E+02  0.00000000000E+00 0. -1.
          2    1    1    2  501    0  0.27608628169E+03  0.10892314553E+03  0.52736286387E+03  0.60514417849E+03  0.25500000000E-02 0.  1.
<mgrwt>
<rscale>  0 0.28936421E+03</rscale>
<asrwt>0</asrwt>
<pdfrwt beam="1">  1       11 0.10000000E+01 0.14703525E+02</pdfrwt>
<pdfrwt beam="2">  1        2 0.14603686E-01 0.28936421E+03</pdfrwt>
<totfact> 0.49718634E+02</totfact>
</mgrwt>
</event>
<event>
 5    1  0.6729100E-004  0.2662471E+02  0.7818608E-02  0.1787356E+00
         11   -1    0    0    0    0  0.00000000000E+00  0.00000000000E+00  0.10001547962E+04  0.10001547962E+04  0.51100000000E-03 0. -1.
          2   -1    0    0  501    0 -0.00000000000E+00 -0.00000000000E+00 -0.24556243468E+01  0.24556256708E+01  0.25500000000E-02 0. -1.
         11    1    1    2    0    0  0.29266193493E+02 -0.22787203378E+02  0.20509345607E+03  0.20842047030E+03  0.51100000000E-03 0. -1.
         22    1    1    2    0    0 -0.11001947449E+02  0.53280445888E+01  0.64630151972E+02  0.65776040097E+02  0.00000000000E+00 0. -1.
          2    1    1    2  501    0 -0.18264246044E+02  0.17459158789E+02  0.72797556385E+03  0.72841391151E+03  0.25500000000E-02 0. -1.
<mgrwt>
<rscale>  0 0.18040661E+02</rscale>
<asrwt>0</asrwt>
<pdfrwt beam="1">  1       11 0.10000000E+01 0.26624711E+02</pdfrwt>
<pdfrwt beam="2">  1        2 0.37784693E-03 0.18040661E+02</pdfrwt>
<totfact> 0.39276047E+04</totfact>
</mgrwt>
</event>
<event>
 5    1  0.6729100E-004  0.8980984E+02  0.7818608E-02  0.1303313E+00
         11   -1    0    0    0    0  0.00000000000E+00  0.00000000000E+00  0.99997176185E+03  0.99997176185E+03  0.51100000000E-03 0. -1.
          2   -1    0    0  501    0 -0.00000000000E+00 -0.00000000000E+00 -0.13229377852E+02  0.13229378098E+02  0.25500000000E-02 0. -1.
         11    1    1    2    0    0 -0.83322872263E+02 -0.31306088807E+02  0.19563221030E+03  0.21492960230E+03  0.51100000000E-03 0. -1.
         22    1    1    2    0    0  0.73204673336E+00 -0.11952954363E+02  0.55554551572E+02  0.56830601007E+02  0.00000000000E+00 0. -1.
          2    1    1    2  501    0  0.82590825529E+02  0.43259043170E+02  0.73555562213E+03  0.74144093664E+03  0.25500000000E-02 0. -1.
<mgrwt>
<rscale>  0 0.89809836E+02</rscale>
<asrwt>0</asrwt>
<pdfrwt beam="1">  1       11 0.10000000E+01 0.11975350E+02</pdfrwt>
<pdfrwt beam="2">  1        2 0.20352314E-02 0.89809836E+02</pdfrwt>
<totfact> 0.58008041E+03</totfact>
</mgrwt>
</event>
<event>
 5    1  0.6729100E-004  0.2851034E+03  0.7818608E-02  0.1094894E+00
         11   -1    0    0    0    0  0.00000000000E+00  0.00000000000E+00  0.99992037081E+03  0.99992037081E+03  0.51100000000E-03 0. -1.
         -2   -1    0    0    0  501 -0.00000000000E+00 -0.00000000000E+00 -0.10017545692E+03  0.10017545695E+03  0.25500000000E-02 0. -1.
         11    1    1    2    0    0 -0.10565466565E+02 -0.27346926901E+03  0.65693192706E+03  0.71165766136E+03  0.51100000000E-03 0. -1.
         22    1    1    2    0    0  0.65783195348E+01 -0.79621110711E+01  0.40539721020E+02  0.41834656459E+02  0.00000000000E+00 0. -1.
         -2    1    1    2    0  501  0.39871470305E+01  0.28143138008E+03  0.20227326581E+03  0.34660350994E+03  0.25500000000E-02 0. -1.
<mgrwt>
<rscale>  0 0.28145962E+03</rscale>
<asrwt>0</asrwt>
<pdfrwt beam="1">  1       11 0.10000000E+01 0.28510344E+03</pdfrwt>
<pdfrwt beam="2">  1       -2 0.15410381E-01 0.28145962E+03</pdfrwt>
<totfact> 0.26259969E+02</totfact>
</mgrwt>
</event>
<event>
 5    1  0.6729100E-004  0.1404604E+03  0.7818608E-02  0.1296397E+00
         11   -1    0    0    0    0  0.00000000000E+00  0.00000000000E+00  0.10000218539E+04  0.10000218539E+04  0.51100000000E-03 0. -1.
          2   -1    0    0  501    0 -0.00000000000E+00 -0.00000000000E+00 -0.71904027843E+02  0.71904027888E+02  0.25500000000E-02 0. -1.
         11    1    1    2    0    0  0.22436395077E+02  0.14481416580E+03  0.88627946655E+03  0.89831276695E+03  0.51100000000E-03 0. -1.
         22    1    1    2    0    0  0.57423810881E+01 -0.60935216436E+02  0.57236133519E+02  0.83797676119E+02  0.00000000000E+00 0. -1.
          2    1    1    2  501    0 -0.28178776165E+02 -0.83878949369E+02 -0.15397774049E+02  0.89815438681E+02  0.25500000000E-02 0. -1.
<mgrwt>
<rscale>  0 0.92719500E+02</rscale>
<asrwt>0</asrwt>
<pdfrwt beam="1">  1       11 0.10000000E+01 0.14046040E+03</pdfrwt>
<pdfrwt beam="2">  1        2 0.11062400E-01 0.92719500E+02</pdfrwt>
<totfact> 0.65834332E+02</totfact>
</mgrwt>
</event>
<event>
 5    1  0.6729100E-004  0.7922654E+02  0.7818608E-02  0.1508979E+00
         11   -1    0    0    0    0  0.00000000000E+00  0.00000000000E+00  0.10003216509E+04  0.10003216509E+04  0.51100000000E-03 0. -1.
          2   -1    0    0  501    0 -0.00000000000E+00 -0.00000000000E+00 -0.10547542871E+02  0.10547543179E+02  0.25500000000E-02 0. -1.
         11    1    1    2    0    0  0.14366465808E+02  0.89413537217E+02  0.53598011634E+03  0.54357691369E+03  0.51100000000E-03 0. -1.
         22    1    1    2    0    0  0.19543746748E+02 -0.68394938239E+02  0.31087792747E+03  0.31891207472E+03  0.00000000000E+00 0. -1.
          2    1    1    2  501    0 -0.33910212556E+02 -0.21018598978E+02  0.14291606424E+03  0.14838020570E+03  0.25500000000E-02 0. -1.
<mgrwt>
<rscale>  0 0.39895915E+02</rscale>
<asrwt>0</asrwt>
<pdfrwt beam="1">  1       11 0.10000000E+01 0.79226540E+02</pdfrwt>
<pdfrwt beam="2">  1        2 0.16232208E-02 0.39895915E+02</pdfrwt>
<totfact> 0.69520619E+03</totfact>
</mgrwt>
</event>
<event>
 5    1  0.6729100E-004  0.2442179E+03  0.7818608E-02  0.1117014E+00
         11   -1    0    0    0    0  0.00000000000E+00  0.00000000000E+00  0.10004375239E+04  0.10004375239E+04  0.51100000000E-03 0.  1.
         -2   -1    0    0    0  501 -0.00000000000E+00 -0.00000000000E+00 -0.13977436562E+03  0.13977436564E+03  0.25500000000E-02 0. -1.
         11    1    1    2    0    0  0.23050538882E+03  0.82722734259E+02  0.79664884276E+03  0.83344175784E+03  0.51100000000E-03 0.  1.
         22    1    1    2    0    0  0.31231604095E+01 -0.11805699480E+02  0.61398758348E+02  0.62601407315E+02  0.00000000000E+00 0.  1.
         -2    1    1    2    0  501 -0.23362854923E+03 -0.70917034779E+02  0.26155571973E+01  0.24416872442E+03  0.25500000000E-02 0. -1.
<mgrwt>
<rscale>  0 0.24421792E+03</rscale>
<asrwt>0</asrwt>
<pdfrwt beam="1">  1       11 0.10000000E+01 0.12211825E+02</pdfrwt>
<pdfrwt beam="2">  1       -2 0.21513156E-01 0.24421792E+03</pdfrwt>
<totfact> 0.14847614E+02</totfact>
</mgrwt>
</event>
<event>
 5    1  0.6729100E-004  0.2223567E+03  0.7818608E-02  0.1139256E+00
         11   -1    0    0    0    0  0.00000000000E+00  0.00000000000E+00  0.10003993535E+04  0.10003993535E+04  0.51100000000E-03 0. -1.
          2   -1    0    0  501    0 -0.00000000000E+00 -0.00000000000E+00 -0.55794339310E+02  0.55794339368E+02  0.25500000000E-02 0. -1.
         11    1    1    2    0    0 -0.80349416533E+02 -0.17604735759E+03  0.57741843043E+03  0.60898336977E+03  0.51100000000E-03 0. -1.
         22    1    1    2    0    0 -0.26919638427E+02 -0.79050363397E+01  0.10892520018E+03  0.11248046838E+03  0.00000000000E+00 0. -1.
          2    1    1    2  501    0  0.10726905496E+03  0.18395239393E+03  0.25826138356E+03  0.33472985470E+03  0.25500000000E-02 0. -1.
<mgrwt>
<rscale>  0 0.21294397E+03</rscale>
<asrwt>0</asrwt>
<pdfrwt beam="1">  1       11 0.10000000E+01 0.22235667E+03</pdfrwt>
<pdfrwt beam="2">  1        2 0.85871722E-02 0.21294397E+03</pdfrwt>
<totfact> 0.94289427E+02</totfact>
</mgrwt>
</event>
<event>
 5    1  0.6729100E-004  0.1049262E+03  0.7818608E-02  0.1580351E+00
         11   -1    0    0    0    0  0.00000000000E+00  0.00000000000E+00  0.10004548148E+04  0.10004548148E+04  0.51100000000E-03 0. -1.
          2   -1    0    0  501    0 -0.00000000000E+00 -0.00000000000E+00 -0.11554206863E+03  0.11554206865E+03  0.25500000000E-02 0. -1.
         11    1    1    2    0    0 -0.86228732816E+02 -0.51738246829E+02  0.49023094678E+03  0.50043842951E+03  0.51100000000E-03 0. -1.
         22    1    1    2    0    0  0.77064909453E+02  0.82051359542E+02  0.49641104501E+03  0.50901409753E+03  0.00000000000E+00 0.  1.
          2    1    1    2  501    0  0.91638233636E+01 -0.30313112712E+02 -0.10172924562E+03  0.10654435641E+03  0.25500000000E-02 0. -1.
<mgrwt>
<rscale>  0 0.31667972E+02</rscale>
<asrwt>0</asrwt>
<pdfrwt beam="1">  1       11 0.10000000E+01 0.10492622E+03</pdfrwt>
<pdfrwt beam="2">  1        2 0.17783787E-01 0.31667972E+02</pdfrwt>
<totfact> 0.35870671E+02</totfact>
</mgrwt>
</event>
<event>
 5    1  0.6729100E-004  0.1074905E+03  0.7818608E-02  0.1265289E+00
         11   -1    0    0    0    0  0.00000000000E+00  0.00000000000E+00  0.10003247768E+04  0.10003247768E+04  0.51100000000E-03 0.  1.
          2   -1    0    0  501    0 -0.00000000000E+00 -0.00000000000E+00 -0.80506138034E+03  0.80506138034E+03  0.25500000000E-02 0.  1.
         11    1    1    2    0    0  0.16151604286E+03  0.10233853579E+03  0.47475088194E+03  0.51180954262E+03  0.51100000000E-03 0.  1.
         22    1    1    2    0    0 -0.61582372032E+02 -0.64381650152E+02  0.49945210345E+03  0.50733597257E+03  0.00000000000E+00 0.  1.
          2    1    1    2  501    0 -0.99933670832E+02 -0.37956885639E+02 -0.77893958897E+03  0.78624064192E+03  0.25500000000E-02 0.  1.
<mgrwt>
<rscale>  0 0.10749053E+03</rscale>
<asrwt>0</asrwt>
<pdfrwt beam="1">  1       11 0.10000000E+01 0.89092005E+02</pdfrwt>
<pdfrwt beam="2">  1        2 0.12389582E+00 0.10749053E+03</pdfrwt>
<totfact> 0.45477079E+01</totfact>
</mgrwt>
</event>
<event>
 5    1  0.6729100E-004  0.1264016E+03  0.7818608E-02  0.1412466E+00
         11   -1    0    0    0    0  0.00000000000E+00  0.00000000000E+00  0.10002240958E+04  0.10002240958E+04  0.51100000000E-03 0.  1.
         -2   -1    0    0    0  501 -0.00000000000E+00 -0.00000000000E+00 -0.15141763226E+03  0.15141763228E+03  0.25500000000E-02 0. -1.
         11    1    1    2    0    0  0.15479430568E+02 -0.14807689257E+03  0.43475156146E+03  0.45953813669E+03  0.51100000000E-03 0.  1.
         22    1    1    2    0    0 -0.52743536167E+02  0.10541207882E+03  0.54068317340E+03  0.55338221960E+03  0.00000000000E+00 0.  1.
         -2    1    1    2    0  501  0.37264105599E+02  0.42664813747E+02 -0.12662827130E+03  0.13872137181E+03  0.25500000000E-02 0. -1.
<mgrwt>
<rscale>  0 0.56647153E+02</rscale>
<asrwt>0</asrwt>
<pdfrwt beam="1">  1       11 0.10000000E+01 0.12640158E+03</pdfrwt>
<pdfrwt beam="2">  1       -2 0.23300240E-01 0.56647153E+02</pdfrwt>
<totfact> 0.12364529E+02</totfact>
</mgrwt>
</event>
<event>
 5    1  0.6729100E-004  0.2958428E+03  0.7818608E-02  0.1254487E+00
         11   -1    0    0    0    0  0.00000000000E+00  0.00000000000E+00  0.10001938633E+04  0.10001938633E+04  0.51100000000E-03 0. -1.
          2   -1    0    0  501    0 -0.00000000000E+00 -0.00000000000E+00 -0.27081815278E+03  0.27081815280E+03  0.25500000000E-02 0. -1.
         11    1    1    2    0    0  0.20760765834E+03 -0.14247190480E+03  0.90190866957E+02  0.26745761522E+03  0.51100000000E-03 0. -1.
         22    1    1    2    0    0 -0.18667461150E+03  0.25387311646E+03  0.76909341851E+03  0.83114598972E+03  0.00000000000E+00 0. -1.
          2    1    1    2  501    0 -0.20933046841E+02 -0.11140121166E+03 -0.12990857491E+03  0.17240841120E+03  0.25500000000E-02 0. -1.
<mgrwt>
<rscale>  0 0.11335088E+03</rscale>
<asrwt>0</asrwt>
<pdfrwt beam="1">  1       11 0.10000000E+01 0.29584279E+03</pdfrwt>
<pdfrwt beam="2">  1        2 0.41672407E-01 0.11335088E+03</pdfrwt>
<totfact> 0.15067816E+02</totfact>
</mgrwt>
</event>
<event>
 5    1  0.6729100E-004  0.2752161E+03  0.7818608E-02  0.1106753E+00
         11   -1    0    0    0    0  0.00000000000E+00  0.00000000000E+00  0.10003301217E+04  0.10003301217E+04  0.51100000000E-03 0. -1.
          2   -1    0    0  501    0 -0.00000000000E+00 -0.00000000000E+00 -0.12478523489E+03  0.12478523491E+03  0.25500000000E-02 0. -1.
         11    1    1    2    0    0 -0.95055612323E+02  0.15879216689E+03  0.52273952408E+03  0.55453325575E+03  0.51100000000E-03 0. -1.
         22    1    1    2    0    0  0.13280909067E+02  0.88698372521E+02  0.28849599068E+03  0.30211540919E+03  0.00000000000E+00 0.  1.
          2    1    1    2  501    0  0.81774703255E+02 -0.24749053941E+03  0.64309372037E+02  0.26846669165E+03  0.25500000000E-02 0. -1.
<mgrwt>
<rscale>  0 0.26065047E+03</rscale>
<asrwt>0</asrwt>
<pdfrwt beam="1">  1       11 0.10000000E+01 0.27521605E+03</pdfrwt>
<pdfrwt beam="2">  1        2 0.19204065E-01 0.26065047E+03</pdfrwt>
<totfact> 0.35894992E+02</totfact>
</mgrwt>
</event>
<event>
 5    1  0.6729100E-004  0.1154370E+03  0.7818608E-02  0.1438802E+00
         11   -1    0    0    0    0  0.00000000000E+00  0.00000000000E+00  0.10001603600E+04  0.10001603600E+04  0.51100000000E-03 0.  1.
          2   -1    0    0  501    0 -0.00000000000E+00 -0.00000000000E+00 -0.16223345155E+02  0.16223345355E+02  0.25500000000E-02 0.  1.
         11    1    1    2    0    0 -0.28835676860E+02 -0.10887838867E+03  0.42634116746E+03  0.44096801568E+03  0.51100000000E-03 0.  1.
         22    1    1    2    0    0 -0.22701624601E+02  0.12876452490E+01  0.83470891949E+02  0.86512493853E+02  0.00000000000E+00 0.  1.
          2    1    1    2  501    0  0.51537301462E+02  0.10759074342E+03  0.47412495538E+03  0.48890319577E+03  0.25500000000E-02 0.  1.
<mgrwt>
<rscale>  0 0.51232991E+02</rscale>
<asrwt>0</asrwt>
<pdfrwt beam="1">  1       11 0.10000000E+01 0.11543699E+03</pdfrwt>
<pdfrwt beam="2">  1        2 0.24962994E-02 0.51232991E+02</pdfrwt>
<totfact> 0.41010841E+03</totfact>
</mgrwt>
</event>
<event>
 5    1  0.6729100E-004  0.2063366E+03  0.7818608E-02  0.1144500E+00
         11   -1    0    0    0    0  0.00000000000E+00  0.00000000000E+00  0.10003415934E+04  0.10003415934E+04  0.51100000000E-03 0. -1.
          2   -1    0    0  501    0 -0.00000000000E+00 -0.00000000000E+00 -0.15059847183E+04  0.15059847183E+04  0.25500000000E-02 0. -1.
         11    1    1    2    0    0  0.15109697969E+03  0.10093136780E+03  0.42422973208E+03  0.46150655885E+03  0.51100000000E-03 0. -1.
         22    1    1    2    0    0  0.55384411605E+02 -0.84773716599E+02  0.54558181960E+03  0.55489957466E+03  0.00000000000E+00 0. -1.
          2    1    1    2  501    0 -0.20648139130E+03 -0.16157651204E+02 -0.14754546766E+04  0.14899201781E+04  0.25500000000E-02 0. -1.
<mgrwt>
<rscale>  0 0.20633656E+03</rscale>
<asrwt>0</asrwt>
<pdfrwt beam="1">  1       11 0.10000000E+01 0.10126212E+03</pdfrwt>
<pdfrwt beam="2">  1        2 0.23176909E+00 0.20633656E+03</pdfrwt>
<totfact> 0.17322164E+01</totfact>
</mgrwt>
</event>
<event>
 5    1  0.6729100E-004  0.9828832E+02  0.7818608E-02  0.1283937E+00
         11   -1    0    0    0    0  0.00000000000E+00  0.00000000000E+00  0.10000786128E+04  0.10000786128E+04  0.51100000000E-03 0. -1.
          2   -1    0    0  501    0 -0.00000000000E+00 -0.00000000000E+00 -0.11096328246E+02  0.11096328539E+02  0.25500000000E-02 0. -1.
         11    1    1    2    0    0 -0.20349799676E+02  0.96644390074E+02  0.42939583319E+03  0.44060757374E+03  0.51100000000E-03 0. -1.
         22    1    1    2    0    0  0.13081232952E+02  0.13014117835E+01  0.71133035267E+02  0.72337549271E+02  0.00000000000E+00 0.  1.
          2    1    1    2  501    0  0.72685667241E+01 -0.97945801858E+02  0.48845341607E+03  0.49822981830E+03  0.25500000000E-02 0. -1.
<mgrwt>
<rscale>  0 0.98288324E+02</rscale>
<asrwt>0</asrwt>
<pdfrwt beam="1">  1       11 0.10000000E+01 0.13145810E+02</pdfrwt>
<pdfrwt beam="2">  1        2 0.17072616E-02 0.98288324E+02</pdfrwt>
<totfact> 0.74444183E+03</totfact>
</mgrwt>
</event>
<event>
 5    1  0.6729100E-004  0.1645459E+03  0.7818608E-02  0.1194099E+00
         11   -1    0    0    0    0  0.00000000000E+00  0.00000000000E+00  0.10000980174E+04  0.10000980174E+04  0.51100000000E-03 0. -1.
          2   -1    0    0  501    0 -0.00000000000E+00 -0.00000000000E+00 -0.34573336597E+02  0.34573336691E+02  0.25500000000E-02 0. -1.
         11    1    1    2    0    0 -0.34825831881E+02 -0.13117188808E+03  0.16663989380E+03  0.21491337090E+03  0.51100000000E-03 0. -1.
         22    1    1    2    0    0  0.10594851793E+02 -0.22233405166E+02  0.62577366737E+02  0.67249550315E+02  0.00000000000E+00 0. -1.
          2    1    1    2  501    0  0.24230980088E+02  0.15340529325E+03  0.73630742027E+03  0.75250843287E+03  0.25500000000E-02 0. -1.
<mgrwt>
<rscale>  0 0.15530719E+03</rscale>
<asrwt>0</asrwt>
<pdfrwt beam="1">  1       11 0.10000000E+01 0.16454593E+03</pdfrwt>
<pdfrwt beam="2">  1        2 0.53194961E-02 0.15530719E+03</pdfrwt>
<totfact> 0.17085309E+03</totfact>
</mgrwt>
</event>
<event>
 5    1  0.6729100E-004  0.1534857E+03  0.7818608E-02  0.1199580E+00
         11   -1    0    0    0    0  0.00000000000E+00  0.00000000000E+00  0.10003532106E+04  0.10003532106E+04  0.51100000000E-03 0. -1.
          2   -1    0    0  501    0 -0.00000000000E+00 -0.00000000000E+00 -0.47868225887E+02  0.47868225955E+02  0.25500000000E-02 0. -1.
         11    1    1    2    0    0  0.38681319372E+02  0.13598830447E+03  0.79026051184E+03  0.80280803433E+03  0.51100000000E-03 0. -1.
         22    1    1    2    0    0  0.10119307492E+02  0.66224502288E+01  0.64847016942E+02  0.65965088019E+02  0.00000000000E+00 0.  1.
          2    1    1    2  501    0 -0.48800626865E+02 -0.14261075469E+03  0.97377455916E+02  0.17944831419E+03  0.25500000000E-02 0. -1.
<mgrwt>
<rscale>  0 0.15072932E+03</rscale>
<asrwt>0</asrwt>
<pdfrwt beam="1">  1       11 0.10000000E+01 0.15348567E+03</pdfrwt>
<pdfrwt beam="2">  1        2 0.73669434E-02 0.15072932E+03</pdfrwt>
<totfact> 0.11210847E+03</totfact>
</mgrwt>
</event>
<event>
 5    1  0.6729100E-004  0.1177220E+03  0.7818608E-02  0.1511470E+00
         11   -1    0    0    0    0  0.00000000000E+00  0.00000000000E+00  0.10002053939E+04  0.10002053939E+04  0.51100000000E-03 0.  1.
          2   -1    0    0  501    0 -0.00000000000E+00 -0.00000000000E+00 -0.16582511172E+02  0.16582511368E+02  0.25500000000E-02 0.  1.
         11    1    1    2    0    0 -0.83397338840E+02  0.82142858253E+02  0.33570130691E+03  0.35552486938E+03  0.51100000000E-03 0.  1.
         22    1    1    2    0    0  0.89070865972E+01  0.98693880647E+01  0.50202481070E+02  0.51932938662E+02  0.00000000000E+00 0. -1.
          2    1    1    2  501    0  0.74490252243E+02 -0.92012246318E+02  0.59771909479E+03  0.60933009727E+03  0.25500000000E-02 0.  1.
<mgrwt>
<rscale>  0 0.39560618E+02</rscale>
<asrwt>0</asrwt>
<pdfrwt beam="1">  1       11 0.10000000E+01 0.11772201E+03</pdfrwt>
<pdfrwt beam="2">  1        2 0.25516795E-02 0.39560618E+02</pdfrwt>
<totfact> 0.38401862E+03</totfact>
</mgrwt>
</event>
<event>
 5    1  0.6729100E-004  0.8885533E+02  0.7818608E-02  0.1305648E+00
         11   -1    0    0    0    0  0.00000000000E+00  0.00000000000E+00  0.99995708983E+03  0.99995708983E+03  0.51100000000E-03 0. -1.
         -2   -1    0    0    0  501 -0.00000000000E+00 -0.00000000000E+00 -0.17295730991E+02  0.17295731179E+02  0.25500000000E-02 0. -1.
         11    1    1    2    0    0 -0.11010846148E+03  0.14519117566E+02  0.50661027229E+03  0.51864115345E+03  0.51100000000E-03 0. -1.
         22    1    1    2    0    0  0.32480295278E+02 -0.45900289269E+02  0.27729203814E+03  0.28293582409E+03  0.00000000000E+00 0. -1.
         -2    1    1    2    0  501  0.77628166203E+02  0.31381171703E+02  0.19875904841E+03  0.21567584347E+03  0.25500000000E-02 0. -1.
<mgrwt>
<rscale>  0 0.88855327E+02</rscale>
<asrwt>0</asrwt>
<pdfrwt beam="1">  1       11 0.10000000E+01 0.56229940E+02</pdfrwt>
<pdfrwt beam="2">  1       -2 0.26607675E-02 0.88855327E+02</pdfrwt>
<totfact> 0.35784492E+03</totfact>
</mgrwt>
</event>
<event>
 5    1  0.6729100E-004  0.1750158E+03  0.7818608E-02  0.1455221E+00
         11   -1    0    0    0    0  0.00000000000E+00  0.00000000000E+00  0.10005678894E+04  0.10005678894E+04  0.51100000000E-03 0. -1.
          2   -1    0    0  501    0 -0.00000000000E+00 -0.00000000000E+00 -0.14673555009E+04  0.14673555009E+04  0.25500000000E-02 0.  1.
         11    1    1    2    0    0  0.12447398643E+02 -0.19689827083E+03  0.40232162765E+03  0.44809213212E+03  0.51100000000E-03 0. -1.
         22    1    1    2    0    0  0.22099219187E+02  0.16326643890E+03  0.56315258502E+03  0.58675816107E+03  0.00000000000E+00 0. -1.
          2    1    1    2  501    0 -0.34546617830E+02  0.33631831930E+02 -0.14322618242E+04  0.14330730972E+04  0.25500000000E-02 0.  1.
<mgrwt>
<rscale>  0 0.48213784E+02</rscale>
<asrwt>0</asrwt>
<pdfrwt beam="1">  1       11 0.10000000E+01 0.17501583E+03</pdfrwt>
<pdfrwt beam="2">  1        2 0.22587519E+00 0.48213784E+02</pdfrwt>
<totfact> 0.20371514E+01</totfact>
</mgrwt>
</event>
<event>
 5    1  0.6729100E-004  0.1282540E+03  0.7818608E-02  0.1230070E+00
         11   -1    0    0    0    0  0.00000000000E+00  0.00000000000E+00  0.10001558307E+04  0.10001558307E+04  0.51100000000E-03 0. -1.
         -2   -1    0    0    0  501 -0.00000000000E+00 -0.00000000000E+00 -0.66834607109E+02  0.66834607157E+02  0.25500000000E-02 0.  1.
         11    1    1    2    0    0 -0.11836373865E+03 -0.10899282099E+03  0.81684887307E+03  0.83254518861E+03  0.51100000000E-03 0. -1.
         22    1    1    2    0    0  0.41343807738E+02  0.98155925605E+01  0.98910139088E+02  0.10765162289E+03  0.00000000000E+00 0.  1.
         -2    1    1    2    0  501  0.77019930910E+02  0.99177228433E+02  0.17562211388E+02  0.12679362631E+03  0.25500000000E-02 0.  1.
<mgrwt>
<rscale>  0 0.12825404E+03</rscale>
<asrwt>0</asrwt>
<pdfrwt beam="1">  1       11 0.10000000E+01 0.42493015E+02</pdfrwt>
<pdfrwt beam="2">  1       -2 0.10283849E-01 0.12825404E+03</pdfrwt>
<totfact> 0.48679470E+02</totfact>
</mgrwt>
</event>
<event>
 5    1  0.6729100E-004  0.5410360E+03  0.7818608E-02  0.1003590E+00
         11   -1    0    0    0    0  0.00000000000E+00  0.00000000000E+00  0.10003546482E+04  0.10003546482E+04  0.51100000000E-03 0. -1.
          2   -1    0    0  501    0 -0.00000000000E+00 -0.00000000000E+00 -0.78950335151E+03  0.78950335152E+03  0.25500000000E-02 0. -1.
         11    1    1    2    0    0  0.50230002063E+03  0.22553775974E+03  0.39150862770E+03  0.67561201688E+03  0.51100000000E-03 0. -1.
         22    1    1    2    0    0  0.13477679528E+02 -0.66527916923E+02  0.35048580157E+03  0.35699847153E+03  0.00000000000E+00 0. -1.
          2    1    1    2  501    0 -0.51577770016E+03 -0.15900984282E+03 -0.53114313258E+03  0.75724751131E+03  0.25500000000E-02 0. -1.
<mgrwt>
<rscale>  0 0.54103597E+03</rscale>
<asrwt>0</asrwt>
<pdfrwt beam="1">  1       11 0.10000000E+01 0.67879390E+02</pdfrwt>
<pdfrwt beam="2">  1        2 0.12150513E+00 0.54103597E+03</pdfrwt>
<totfact> 0.43971478E+01</totfact>
</mgrwt>
</event>
<event>
 5    1  0.6729100E-004  0.1655215E+03  0.7818608E-02  0.1182600E+00
         11   -1    0    0    0    0  0.00000000000E+00  0.00000000000E+00  0.10001077919E+04  0.10001077919E+04  0.51100000000E-03 0. -1.
         -2   -1    0    0    0  501 -0.00000000000E+00 -0.00000000000E+00 -0.16714030347E+03  0.16714030348E+03  0.25500000000E-02 0.  1.
         11    1    1    2    0    0  0.11680562019E+03  0.14630613054E+03  0.86432173846E+03  0.88436480273E+03  0.51100000000E-03 0. -1.
         22    1    1    2    0    0 -0.21099956931E+01 -0.28415446003E+02  0.79555457253E+02  0.84504203636E+02  0.00000000000E+00 0. -1.
         -2    1    1    2    0  501 -0.11469562449E+03 -0.11789068453E+03 -0.11090970729E+03  0.19837908901E+03  0.25500000000E-02 0.  1.
<mgrwt>
<rscale>  0 0.16552148E+03</rscale>
<asrwt>0</asrwt>
<pdfrwt beam="1">  1       11 0.10000000E+01 0.28493677E+02</pdfrwt>
<pdfrwt beam="2">  1       -2 0.25716664E-01 0.16552148E+03</pdfrwt>
<totfact> 0.10774943E+02</totfact>
</mgrwt>
</event>
<event>
 5    1  0.6729100E-004  0.1607709E+03  0.7818608E-02  0.1190325E+00
         11   -1    0    0    0    0  0.00000000000E+00  0.00000000000E+00  0.10004487755E+04  0.10004487755E+04  0.51100000000E-03 0. -1.
          2   -1    0    0  501    0 -0.00000000000E+00 -0.00000000000E+00 -0.25544662471E+02  0.25544662598E+02  0.25500000000E-02 0.  1.
         11    1    1    2    0    0 -0.13045531942E+03  0.72441328607E+02  0.41546347441E+03  0.44144788483E+03  0.51100000000E-03 0. -1.
         22    1    1    2    0    0 -0.99559515758E+01  0.12328532212E+01  0.50059870542E+02  0.51055181299E+02  0.00000000000E+00 0.  1.
          2    1    1    2  501    0  0.14041127099E+03 -0.73674181828E+02  0.50938076812E+03  0.53349037201E+03  0.25500000000E-02 0.  1.
<mgrwt>
<rscale>  0 0.15856611E+03</rscale>
<asrwt>0</asrwt>
<pdfrwt beam="1">  1       11 0.10000000E+01 0.16077091E+03</pdfrwt>
<pdfrwt beam="2">  1        2 0.39317116E-02 0.15856611E+03</pdfrwt>
<totfact> 0.25497036E+03</totfact>
</mgrwt>
</event>
<event>
 5    1  0.6729100E-004  0.4772370E+03  0.7818608E-02  0.1025480E+00
         11   -1    0    0    0    0  0.00000000000E+00  0.00000000000E+00  0.10003406384E+04  0.10003406384E+04  0.51100000000E-03 0.  1.
         -2   -1    0    0    0  501 -0.00000000000E+00 -0.00000000000E+00 -0.50731787852E+03  0.50731787853E+03  0.25500000000E-02 0. -1.
         11    1    1    2    0    0  0.39658380460E+03  0.87151822816E+02  0.77654079657E+03  0.87629319467E+03  0.51100000000E-03 0.  1.
         22    1    1    2    0    0  0.55245948064E+02 -0.14709944253E+02  0.41019413096E+02  0.70363978626E+02  0.00000000000E+00 0. -1.
         -2    1    1    2    0  501 -0.45182975267E+03 -0.72441878563E+02 -0.32453744982E+03  0.56100134359E+03  0.25500000000E-02 0. -1.
<mgrwt>
<rscale>  0 0.45760021E+03</rscale>
<asrwt>0</asrwt>
<pdfrwt beam="1">  1       11 0.10000000E+01 0.47723695E+03</pdfrwt>
<pdfrwt beam="2">  1       -2 0.78075489E-01 0.45760021E+03</pdfrwt>
<totfact> 0.12065147E+01</totfact>
</mgrwt>
</event>
<event>
 5    1  0.6729100E-004  0.1889588E+03  0.7818608E-02  0.1159404E+00
         11   -1    0    0    0    0  0.00000000000E+00  0.00000000000E+00  0.10003969393E+04  0.10003969393E+04  0.51100000000E-03 0. -1.
          2   -1    0    0  501    0 -0.00000000000E+00 -0.00000000000E+00 -0.47926276766E+02  0.47926276834E+02  0.25500000000E-02 0. -1.
         11    1    1    2    0    0 -0.18937868311E+03 -0.41474507128E+01  0.23082522681E+03  0.29859968569E+03  0.51100000000E-03 0. -1.
         22    1    1    2    0    0  0.21207198447E+01 -0.14541578662E+02  0.65226494066E+02  0.66861427525E+02  0.00000000000E+00 0.  1.
          2    1    1    2  501    0  0.18725796326E+03  0.18689029375E+02  0.65641894165E+03  0.68286210290E+03  0.25500000000E-02 0. -1.
<mgrwt>
<rscale>  0 0.18895880E+03</rscale>
<asrwt>0</asrwt>
<pdfrwt beam="1">  1       11 0.10000000E+01 0.14695406E+02</pdfrwt>
<pdfrwt beam="2">  1        2 0.73761999E-02 0.18895880E+03</pdfrwt>
<totfact> 0.11356413E+03</totfact>
</mgrwt>
</event>
<event>
 5    1  0.6729100E-004  0.1789741E+03  0.7818608E-02  0.1168800E+00
         11   -1    0    0    0    0  0.00000000000E+00  0.00000000000E+00  0.10001471544E+04  0.10001471544E+04  0.51100000000E-03 0. -1.
          2   -1    0    0  501    0 -0.00000000000E+00 -0.00000000000E+00 -0.13893702576E+03  0.13893702578E+03  0.25500000000E-02 0. -1.
         11    1    1    2    0    0  0.15586291729E+03  0.64870389247E+02 -0.33870578606E+02  0.17218778262E+03  0.51100000000E-03 0. -1.
         22    1    1    2    0    0  0.75990485357E+02  0.38021813275E+02  0.41825069698E+03  0.42679486603E+03  0.00000000000E+00 0.  1.
          2    1    1    2  501    0 -0.23185340265E+03 -0.10289220252E+03  0.47683001027E+03  0.54010153153E+03  0.25500000000E-02 0. -1.
<mgrwt>
<rscale>  0 0.17897406E+03</rscale>
<asrwt>0</asrwt>
<pdfrwt beam="1">  1       11 0.10000000E+01 0.84971832E+02</pdfrwt>
<pdfrwt beam="2">  1        2 0.21378072E-01 0.17897406E+03</pdfrwt>
<totfact> 0.31421078E+02</totfact>
</mgrwt>
</event>
<event>
 5    1  0.6729100E-004  0.1115478E+03  0.7818608E-02  0.1526650E+00
         11   -1    0    0    0    0  0.00000000000E+00  0.00000000000E+00  0.10000327467E+04  0.10000327467E+04  0.51100000000E-03 0.  1.
          2   -1    0    0  501    0 -0.00000000000E+00 -0.00000000000E+00 -0.55446702754E+03  0.55446702754E+03  0.25500000000E-02 0. -1.
         11    1    1    2    0    0  0.86380433855E+02 -0.46278420505E+02  0.27252234247E+03  0.28960610957E+03  0.51100000000E-03 0.  1.
         22    1    1    2    0    0 -0.87381897436E+02  0.83865570260E+02  0.71320961600E+03  0.72342033855E+03  0.00000000000E+00 0. -1.
          2    1    1    2  501    0  0.10014635813E+01 -0.37587149755E+02 -0.54016623933E+03  0.54147332609E+03  0.25500000000E-02 0. -1.
<mgrwt>
<rscale>  0 0.37600489E+02</rscale>
<asrwt>0</asrwt>
<pdfrwt beam="1">  1       11 0.10000000E+01 0.11154783E+03</pdfrwt>
<pdfrwt beam="2">  1        2 0.85305411E-01 0.37600489E+02</pdfrwt>
<totfact> 0.71503652E+01</totfact>
</mgrwt>
</event>
<event>
 5    1  0.1123353E-003  0.1693256E+03  0.7818608E-02  0.1181433E+00
         11   -1    0    0    0    0  0.00000000000E+00  0.00000000000E+00  0.10003366762E+04  0.10003366762E+04  0.51100000000E-03 0.  1.
          2   -1    0    0  501    0 -0.00000000000E+00 -0.00000000000E+00 -0.66664825832E+03  0.66664825833E+03  0.25500000000E-02 0.  1.
         11    1    1    2    0    0 -0.10137890321E+03  0.12090242732E+03  0.94572193699E+03  0.95879354454E+03  0.51100000000E-03 0.  1.
         22    1    1    2    0    0 -0.97891693456E+01  0.31923887125E+01  0.36849375826E+02  0.38260889704E+02  0.00000000000E+00 0. -1.
          2    1    1    2  501    0  0.11116807255E+03 -0.12409481604E+03 -0.64888289499E+03  0.66993050023E+03  0.25500000000E-02 0.  1.
<mgrwt>
<rscale>  0 0.16660691E+03</rscale>
<asrwt>0</asrwt>
<pdfrwt beam="1">  1       11 0.10000000E+01 0.16932560E+03</pdfrwt>
<pdfrwt beam="2">  1        2 0.10259580E+00 0.16660691E+03</pdfrwt>
<totfact> 0.56278587E+01</totfact>
</mgrwt>
</event>
<event>
 5    1  0.6729100E-004  0.3301313E+03  0.7818608E-02  0.1071079E+00
         11   -1    0    0    0    0  0.00000000000E+00  0.00000000000E+00  0.10002371850E+04  0.10002371850E+04  0.51100000000E-03 0. -1.
          2   -1    0    0  501    0 -0.00000000000E+00 -0.00000000000E+00 -0.12057653737E+04  0.12057653737E+04  0.25500000000E-02 0.  1.
         11    1    1    2    0    0  0.31106337915E+03 -0.50693805655E+02  0.85065585090E+03  0.90716352685E+03  0.51100000000E-03 0. -1.
         22    1    1    2    0    0 -0.95246691051E+00 -0.64119103409E+02  0.87401384607E+02  0.10840280737E+03  0.00000000000E+00 0.  1.
          2    1    1    2  501    0 -0.31011091224E+03  0.11481290906E+03 -0.11435854242E+04  0.11904362244E+04  0.25500000000E-02 0.  1.
<mgrwt>
<rscale>  0 0.33013127E+03</rscale>
<asrwt>0</asrwt>
<pdfrwt beam="1">  1       11 0.10000000E+01 0.64126177E+02</pdfrwt>
<pdfrwt beam="2">  1        2 0.18554636E+00 0.33013127E+03</pdfrwt>
<totfact> 0.24542929E+01</totfact>
</mgrwt>
</event>
<event>
 5    1  0.6729100E-004  0.2245588E+03  0.7818608E-02  0.1130529E+00
         11   -1    0    0    0    0  0.00000000000E+00  0.00000000000E+00  0.99966165648E+03  0.99966165648E+03  0.51100000000E-03 0. -1.
         -2   -1    0    0    0  501 -0.00000000000E+00 -0.00000000000E+00 -0.72432298505E+02  0.72432298550E+02  0.25500000000E-02 0. -1.
         11    1    1    2    0    0 -0.24232353633E+03  0.97756220273E+01  0.62902885495E+03  0.67416137490E+03  0.51100000000E-03 0. -1.
         22    1    1    2    0    0  0.24819611427E+02 -0.23059190750E+02  0.91552748550E+02  0.97619901437E+02  0.00000000000E+00 0. -1.
         -2    1    1    2    0  501  0.21750392491E+03  0.13283568722E+02  0.20664775447E+03  0.30031267869E+03  0.25500000000E-02 0. -1.
<mgrwt>
<rscale>  0 0.22455879E+03</rscale>
<asrwt>0</asrwt>
<pdfrwt beam="1">  1       11 0.10000000E+01 0.33878303E+02</pdfrwt>
<pdfrwt beam="2">  1       -2 0.11139660E-01 0.22455879E+03</pdfrwt>
<totfact> 0.44204788E+02</totfact>
</mgrwt>
</event>
<event>
 5    1  0.6729100E-004  0.2252056E+03  0.7818608E-02  0.1140335E+00
         11   -1    0    0    0    0  0.00000000000E+00  0.00000000000E+00  0.10001732095E+04  0.10001732095E+04  0.51100000000E-03 0. -1.
          2   -1    0    0  501    0 -0.00000000000E+00 -0.00000000000E+00 -0.39933655616E+03  0.39933655617E+03  0.25500000000E-02 0. -1.
         11    1    1    2    0    0 -0.86680555700E+02 -0.62519381496E+02  0.38502518358E+03  0.39958301239E+03  0.51100000000E-03 0. -1.
         22    1    1    2    0    0 -0.35822744679E+02 -0.10996625802E+03  0.57312525647E+03  0.58467803666E+03  0.00000000000E+00 0. -1.
          2    1    1    2  501    0  0.12250330038E+03  0.17248563952E+03 -0.35731378674E+03  0.41524871661E+03  0.25500000000E-02 0. -1.
<mgrwt>
<rscale>  0 0.21156170E+03</rscale>
<asrwt>0</asrwt>
<pdfrwt beam="1">  1       11 0.10000000E+01 0.22520557E+03</pdfrwt>
<pdfrwt beam="2">  1        2 0.61447033E-01 0.21156170E+03</pdfrwt>
<totfact> 0.99631961E+01</totfact>
</mgrwt>
</event>
<event>
 5    1  0.6729100E-004  0.2074352E+03  0.7818608E-02  0.1143613E+00
         11   -1    0    0    0    0  0.00000000000E+00  0.00000000000E+00  0.10001494400E+04  0.10001494400E+04  0.51100000000E-03 0. -1.
          2   -1    0    0  501    0 -0.00000000000E+00 -0.00000000000E+00 -0.12409581553E+03  0.12409581556E+03  0.25500000000E-02 0. -1.
         11    1    1    2    0    0  0.12292633488E+03  0.17016339541E+03  0.17098062398E+03  0.27074127635E+03  0.51100000000E-03 0. -1.
         22    1    1    2    0    0 -0.11432214123E+03  0.51682217332E+02  0.59048072911E+03  0.60366223587E+03  0.00000000000E+00 0. -1.
          2    1    1    2  501    0 -0.86041936492E+01 -0.22184561274E+03  0.11459227134E+03  0.24984174330E+03  0.25500000000E-02 0. -1.
<mgrwt>
<rscale>  0 0.20743524E+03</rscale>
<asrwt>0</asrwt>
<pdfrwt beam="1">  1       11 0.10000000E+01 0.12546156E+03</pdfrwt>
<pdfrwt beam="2">  1        2 0.19094516E-01 0.20743524E+03</pdfrwt>
<totfact> 0.35894813E+02</totfact>
</mgrwt>
</event>
<event>
 5    1  0.6729100E-004  0.1477298E+03  0.7818608E-02  0.1221458E+00
         11   -1    0    0    0    0  0.00000000000E+00  0.00000000000E+00  0.10002310848E+04  0.10002310848E+04  0.51100000000E-03 0.  1.
          2   -1    0    0  501    0 -0.00000000000E+00 -0.00000000000E+00 -0.20241298875E+02  0.20241299035E+02  0.25500000000E-02 0.  1.
         11    1    1    2    0    0  0.74878331028E+02  0.67083176856E+02  0.39545708098E+03  0.40803580722E+03  0.51100000000E-03 0.  1.
         22    1    1    2    0    0 -0.43358628550E+01  0.46994597863E+02  0.18803482678E+03  0.19386693379E+03  0.00000000000E+00 0. -1.
          2    1    1    2  501    0 -0.70542468173E+02 -0.11407777472E+03  0.39649787817E+03  0.41856964283E+03  0.25500000000E-02 0.  1.
<mgrwt>
<rscale>  0 0.13412673E+03</rscale>
<asrwt>0</asrwt>
<pdfrwt beam="1">  1       11 0.10000000E+01 0.14772983E+03</pdfrwt>
<pdfrwt beam="2">  1        2 0.31147655E-02 0.13412673E+03</pdfrwt>
<totfact> 0.34264762E+03</totfact>
</mgrwt>
</event>
<event>
 5    1  0.6729100E-004  0.2031177E+03  0.7818608E-02  0.1147135E+00
         11   -1    0    0    0    0  0.00000000000E+00  0.00000000000E+00  0.10000719891E+04  0.10000719891E+04  0.51100000000E-03 0. -1.
          2   -1    0    0  501    0 -0.00000000000E+00 -0.00000000000E+00 -0.49700426820E+02  0.49700426886E+02  0.25500000000E-02 0. -1.
         11    1    1    2    0    0  0.17682858582E+03 -0.96634144498E+02  0.42935374869E+03  0.47429015187E+03  0.51100000000E-03 0. -1.
         22    1    1    2    0    0 -0.16716617153E+02 -0.33672275995E+02  0.91881838486E+02  0.99275070906E+02  0.00000000000E+00 0. -1.
          2    1    1    2  501    0 -0.16011196867E+03  0.13030642049E+03  0.42913597511E+03  0.47620719322E+03  0.25500000000E-02 0. -1.
<mgrwt>
<rscale>  0 0.20311769E+03</rscale>
<asrwt>0</asrwt>
<pdfrwt beam="1">  1       11 0.10000000E+01 0.37593450E+02</pdfrwt>
<pdfrwt beam="2">  1        2 0.76467697E-02 0.20311769E+03</pdfrwt>
<totfact> 0.10894010E+03</totfact>
</mgrwt>
</event>
<event>
 5    1  0.6729100E-004  0.1037254E+03  0.7818608E-02  0.1272651E+00
         11   -1    0    0    0    0  0.00000000000E+00  0.00000000000E+00  0.10000534542E+04  0.10000534542E+04  0.51100000000E-03 0. -1.
          2   -1    0    0  501    0 -0.00000000000E+00 -0.00000000000E+00 -0.10243651898E+02  0.10243652215E+02  0.25500000000E-02 0. -1.
         11    1    1    2    0    0  0.94371463414E+02  0.27957933266E+02  0.50833333144E+03  0.51777446344E+03  0.51100000000E-03 0. -1.
         22    1    1    2    0    0 -0.39039240616E+02 -0.27597872069E+02  0.24937679865E+03  0.25391827928E+03  0.00000000000E+00 0.  1.
          2    1    1    2  501    0 -0.55332222797E+02 -0.36006119626E+00  0.23209967224E+03  0.23860436372E+03  0.25500000000E-02 0. -1.
<mgrwt>
<rscale>  0 0.10372542E+03</rscale>
<asrwt>0</asrwt>
<pdfrwt beam="1">  1       11 0.10000000E+01 0.98425704E+02</pdfrwt>
<pdfrwt beam="2">  1        2 0.15760307E-02 0.10372542E+03</pdfrwt>
<totfact> 0.83603595E+03</totfact>
</mgrwt>
</event>
<event>
 5    1  0.6729100E-004  0.7728950E+02  0.7818608E-02  0.1537610E+00
         11   -1    0    0    0    0  0.00000000000E+00  0.00000000000E+00  0.10000602602E+04  0.10000602602E+04  0.51100000000E-03 0. -1.
          2   -1    0    0  501    0 -0.00000000000E+00 -0.00000000000E+00 -0.11522727227E+02  0.11522727509E+02  0.25500000000E-02 0. -1.
         11    1    1    2    0    0  0.22136973822E+02  0.83780655152E+02  0.21030149947E+03  0.22745541204E+03  0.51100000000E-03 0. -1.
         22    1    1    2    0    0 -0.14519569898E+02 -0.88802666446E+01  0.76830703481E+02  0.78693290967E+02  0.00000000000E+00 0. -1.
          2    1    1    2  501    0 -0.76174039245E+01 -0.74900388507E+02  0.70140533000E+03  0.70543428468E+03  0.25500000000E-02 0. -1.
<mgrwt>
<rscale>  0 0.36269257E+02</rscale>
<asrwt>0</asrwt>
<pdfrwt beam="1">  1       11 0.10000000E+01 0.77289499E+02</pdfrwt>
<pdfrwt beam="2">  1        2 0.17728341E-02 0.36269257E+02</pdfrwt>
<totfact> 0.60920331E+03</totfact>
</mgrwt>
</event>
<event>
 5    1  0.6729100E-004  0.1110026E+03  0.7818608E-02  0.1262878E+00
         11   -1    0    0    0    0  0.00000000000E+00  0.00000000000E+00  0.10003784949E+04  0.10003784949E+04  0.51100000000E-03 0. -1.
          2   -1    0    0  501    0 -0.00000000000E+00 -0.00000000000E+00 -0.12586524702E+02  0.12586524961E+02  0.25500000000E-02 0. -1.
         11    1    1    2    0    0 -0.24963217803E+01 -0.99867556632E+02  0.55588018741E+03  0.56478539575E+03  0.51100000000E-03 0. -1.
         22    1    1    2    0    0 -0.65622487556E+01 -0.85173365259E+01  0.45476001533E+02  0.46729806823E+02  0.00000000000E+00 0. -1.
          2    1    1    2  501    0  0.90585705359E+01  0.10838489316E+03  0.38643578122E+03  0.40144981726E+03  0.25500000000E-02 0. -1.
<mgrwt>
<rscale>  0 0.10876278E+03</rscale>
<asrwt>0</asrwt>
<pdfrwt beam="1">  1       11 0.10000000E+01 0.11100260E+03</pdfrwt>
<pdfrwt beam="2">  1        2 0.19371213E-02 0.10876278E+03</pdfrwt>
<totfact> 0.63543750E+03</totfact>
</mgrwt>
</event>
<event>
 5    1  0.6729100E-004  0.9440627E+02  0.7818608E-02  0.1292519E+00
         11   -1    0    0    0    0  0.00000000000E+00  0.00000000000E+00  0.10004023599E+04  0.10004023599E+04  0.51100000000E-03 0. -1.
          2   -1    0    0  501    0 -0.00000000000E+00 -0.00000000000E+00 -0.87133629992E+01  0.87133633723E+01  0.25500000000E-02 0. -1.
         11    1    1    2    0    0 -0.58218549944E+02 -0.71353797666E+02  0.46461568925E+03  0.47365441273E+03  0.51100000000E-03 0. -1.
         22    1    1    2    0    0  0.10356759738E+02  0.47764396383E+01  0.42704382840E+02  0.44201144348E+02  0.00000000000E+00 0. -1.
          2    1    1    2  501    0  0.47861790206E+02  0.66577358028E+02  0.48436892486E+03  0.49126016624E+03  0.25500000000E-02 0. -1.
<mgrwt>
<rscale>  0 0.94406268E+02</rscale>
<asrwt>0</asrwt>
<pdfrwt beam="1">  1       11 0.10000000E+01 0.92091110E+02</pdfrwt>
<pdfrwt beam="2">  1        2 0.13410567E-02 0.94406268E+02</pdfrwt>
<totfact> 0.10282609E+04</totfact>
</mgrwt>
</event>
<event>
 5    1  0.6729100E-004  0.2411145E+03  0.7818608E-02  0.1119053E+00
         11   -1    0    0    0    0  0.00000000000E+00  0.00000000000E+00  0.10001088714E+04  0.10001088714E+04  0.51100000000E-03 0. -1.
          2   -1    0    0  501    0 -0.00000000000E+00 -0.00000000000E+00 -0.70154070553E+02  0.70154070599E+02  0.25500000000E-02 0. -1.
         11    1    1    2    0    0 -0.56867951806E+01  0.23861127930E+03  0.26777542041E+03  0.35870790070E+03  0.51100000000E-03 0. -1.
         22    1    1    2    0    0  0.11429408338E+02  0.75991282285E+01  0.45231580458E+02  0.47268107594E+02  0.00000000000E+00 0.  1.
          2    1    1    2  501    0 -0.57426131571E+01 -0.24621040753E+03  0.61694780000E+03  0.66428693373E+03  0.25500000000E-02 0. -1.
<mgrwt>
<rscale>  0 0.24111454E+03</rscale>
<asrwt>0</asrwt>
<pdfrwt beam="1">  1       11 0.10000000E+01 0.13725091E+02</pdfrwt>
<pdfrwt beam="2">  1        2 0.10794109E-01 0.24111454E+03</pdfrwt>
<totfact> 0.71305061E+02</totfact>
</mgrwt>
</event>
<event>
 5    1  0.6729100E-004  0.2102413E+03  0.7818608E-02  0.1141375E+00
         11   -1    0    0    0    0  0.00000000000E+00  0.00000000000E+00  0.10000973748E+04  0.10000973748E+04  0.51100000000E-03 0. -1.
          2   -1    0    0  501    0 -0.00000000000E+00 -0.00000000000E+00 -0.19135859658E+03  0.19135859659E+03  0.25500000000E-02 0. -1.
         11    1    1    2    0    0 -0.24626134395E+03  0.85651837823E+02  0.75110823932E+03  0.79507513735E+03  0.51100000000E-03 0. -1.
         22    1    1    2    0    0  0.68071416103E+02  0.18343483718E+02  0.15347164404E+03  0.16888974690E+03  0.00000000000E+00 0.  1.
          2    1    1    2  501    0  0.17818992784E+03 -0.10399532154E+03 -0.95841105140E+02  0.22749108714E+03  0.25500000000E-02 0. -1.
<mgrwt>
<rscale>  0 0.21024129E+03</rscale>
<asrwt>0</asrwt>
<pdfrwt beam="1">  1       11 0.10000000E+01 0.70499653E+02</pdfrwt>
<pdfrwt beam="2">  1        2 0.29442650E-01 0.21024129E+03</pdfrwt>
<totfact> 0.22074280E+02</totfact>
</mgrwt>
</event>
<event>
 5    1  0.6729100E-004  0.1480587E+03  0.7818608E-02  0.1202879E+00
         11   -1    0    0    0    0  0.00000000000E+00  0.00000000000E+00  0.99999040390E+03  0.99999040390E+03  0.51100000000E-03 0. -1.
         -2   -1    0    0    0  501 -0.00000000000E+00 -0.00000000000E+00 -0.10766426817E+03  0.10766426820E+03  0.25500000000E-02 0.  1.
         11    1    1    2    0    0  0.14706491052E+03  0.11876006622E+02  0.88772807030E+03  0.89990569186E+03  0.51100000000E-03 0. -1.
         22    1    1    2    0    0  0.10421158327E+01 -0.10651292491E+02  0.51334365972E+02  0.52438088895E+02  0.00000000000E+00 0.  1.
         -2    1    1    2    0  501 -0.14810702635E+03 -0.12247141304E+01 -0.46736300532E+02  0.15531089135E+03  0.25500000000E-02 0.  1.
<mgrwt>
<rscale>  0 0.14805872E+03</rscale>
<asrwt>0</asrwt>
<pdfrwt beam="1">  1       11 0.10000000E+01 0.10702151E+02</pdfrwt>
<pdfrwt beam="2">  1       -2 0.16563574E-01 0.14805872E+03</pdfrwt>
<totfact> 0.22742361E+02</totfact>
</mgrwt>
</event>
<event>
 5    1  0.6729100E-004  0.2438445E+03  0.7818608E-02  0.1117258E+00
         11   -1    0    0    0    0  0.00000000000E+00  0.00000000000E+00  0.99994376176E+03  0.99994376176E+03  0.51100000000E-03 0. -1.
          2   -1    0    0  501    0 -0.00000000000E+00 -0.00000000000E+00 -0.58617392930E+03  0.58617392931E+03  0.25500000000E-02 0. -1.
         11    1    1    2    0    0  0.11217112632E+03  0.16996977148E+03  0.83640946099E+03  0.86084427816E+03  0.51100000000E-03 0. -1.
         22    1    1    2    0    0  0.81812547556E+02 -0.19575785760E+02  0.11018739539E+03  0.13862815886E+03  0.00000000000E+00 0.  1.
          2    1    1    2  501    0 -0.19398367387E+03 -0.15039398572E+03 -0.53282702393E+03  0.58664525405E+03  0.25500000000E-02 0. -1.
<mgrwt>
<rscale>  0 0.24384450E+03</rscale>
<asrwt>0</asrwt>
<pdfrwt beam="1">  1       11 0.10000000E+01 0.84121961E+02</pdfrwt>
<pdfrwt beam="2">  1        2 0.90175530E-01 0.24384450E+03</pdfrwt>
<totfact> 0.64814363E+01</totfact>
</mgrwt>
</event>
<event>
 5    1  0.6729100E-004  0.1340701E+03  0.7818608E-02  0.1221538E+00
         11   -1    0    0    0    0  0.00000000000E+00  0.00000000000E+00  0.10002428832E+04  0.10002428832E+04  0.51100000000E-03 0. -1.
         -2   -1    0    0    0  501 -0.00000000000E+00 -0.00000000000E+00 -0.25102791075E+02  0.25102791205E+02  0.25500000000E-02 0.  1.
         11    1    1    2    0    0  0.38251154313E+02  0.12475777955E+03  0.69010267829E+03  0.70233137545E+03  0.51100000000E-03 0. -1.
         22    1    1    2    0    0  0.10575015793E+02  0.15690897340E+01  0.55331311044E+02  0.56354653610E+02  0.00000000000E+00 0. -1.
         -2    1    1    2    0  501 -0.48826170106E+02 -0.12632686928E+03  0.22970610281E+03  0.26665964536E+03  0.25500000000E-02 0.  1.
<mgrwt>
<rscale>  0 0.13407014E+03</rscale>
<asrwt>0</asrwt>
<pdfrwt beam="1">  1       11 0.10000000E+01 0.10690791E+02</pdfrwt>
<pdfrwt beam="2">  1       -2 0.38629058E-02 0.13407014E+03</pdfrwt>
<totfact> 0.21685741E+03</totfact>
</mgrwt>
</event>
<event>
 5    1  0.6729100E-004  0.1014908E+03  0.7818608E-02  0.1277192E+00
         11   -1    0    0    0    0  0.00000000000E+00  0.00000000000E+00  0.99982105779E+03  0.99982105779E+03  0.51100000000E-03 0.  1.
          2   -1    0    0  501    0 -0.00000000000E+00 -0.00000000000E+00 -0.17968906981E+02  0.17968907162E+02  0.25500000000E-02 0.  1.
         11    1    1    2    0    0  0.51331825516E+02 -0.85877403472E+02  0.18612323730E+03  0.21130959325E+03  0.51100000000E-03 0.  1.
         22    1    1    2    0    0  0.21029977436E+02  0.54853032426E+01  0.95116290816E+02  0.97567706139E+02  0.00000000000E+00 0.  1.
          2    1    1    2  501    0 -0.72361802952E+02  0.80392100230E+02  0.70061262270E+03  0.70891266556E+03  0.25500000000E-02 0.  1.
<mgrwt>
<rscale>  0 0.10149081E+03</rscale>
<asrwt>0</asrwt>
<pdfrwt beam="1">  1       11 0.10000000E+01 0.21733580E+02</pdfrwt>
<pdfrwt beam="2">  1        2 0.27639525E-02 0.10149081E+03</pdfrwt>
<totfact> 0.39032828E+03</totfact>
</mgrwt>
</event>
<event>
 5    1  0.6729100E-004  0.2843322E+03  0.7818608E-02  0.1093346E+00
         11   -1    0    0    0    0  0.00000000000E+00  0.00000000000E+00  0.10002072849E+04  0.10002072849E+04  0.51100000000E-03 0. -1.
          2   -1    0    0  501    0 -0.00000000000E+00 -0.00000000000E+00 -0.87698090193E+02  0.87698090230E+02  0.25500000000E-02 0. -1.
         11    1    1    2    0    0  0.16336079415E+02 -0.28676334166E+03  0.40486462026E+03  0.49640250035E+03  0.51100000000E-03 0. -1.
         22    1    1    2    0    0  0.14741003267E+02  0.70503589286E+01  0.64547661434E+02  0.66583821871E+02  0.00000000000E+00 0. -1.
          2    1    1    2  501    0 -0.31077082682E+02  0.27971298273E+03  0.44309691299E+03  0.52491905289E+03  0.25500000000E-02 0. -1.
<mgrwt>
<rscale>  0 0.28433215E+03</rscale>
<asrwt>0</asrwt>
<pdfrwt beam="1">  1       11 0.10000000E+01 0.16340280E+02</pdfrwt>
<pdfrwt beam="2">  1        2 0.13494810E-01 0.28433215E+03</pdfrwt>
<totfact> 0.54643102E+02</totfact>
</mgrwt>
</event>
<event>
 5    1  0.6729100E-004  0.8793648E+02  0.7818608E-02  0.1366702E+00
         11   -1    0    0    0    0  0.00000000000E+00  0.00000000000E+00  0.10002934420E+04  0.10002934420E+04  0.51100000000E-03 0. -1.
         -2   -1    0    0    0  501 -0.00000000000E+00 -0.00000000000E+00 -0.22728592810E+02  0.22728592953E+02  0.25500000000E-02 0.  1.
         11    1    1    2    0    0 -0.15483703192E+01 -0.14004726715E+03  0.39454139042E+03  0.41866280375E+03  0.51100000000E-03 0. -1.
         22    1    1    2    0    0  0.14572309047E+02  0.73211781118E+02  0.43585767759E+03  0.44220383558E+03  0.00000000000E+00 0.  1.
         -2    1    1    2    0  501 -0.13023938728E+02  0.66835486030E+02  0.14716578113E+03  0.16215539558E+03  0.25500000000E-02 0.  1.
<mgrwt>
<rscale>  0 0.68092622E+02</rscale>
<asrwt>0</asrwt>
<pdfrwt beam="1">  1       11 0.10000000E+01 0.87936478E+02</pdfrwt>
<pdfrwt beam="2">  1       -2 0.34977326E-02 0.68092622E+02</pdfrwt>
<totfact> 0.23309353E+03</totfact>
</mgrwt>
</event>
<event>
 5    1  0.6729100E-004  0.6378389E+02  0.7818608E-02  0.1382605E+00
         11   -1    0    0    0    0  0.00000000000E+00  0.00000000000E+00  0.10000311864E+04  0.10000311864E+04  0.51100000000E-03 0. -1.
          2   -1    0    0  501    0 -0.00000000000E+00 -0.00000000000E+00 -0.10288153908E+02  0.10288154224E+02  0.25500000000E-02 0. -1.
         11    1    1    2    0    0  0.18772973939E+02 -0.61476676016E+02  0.11079626141E+03  0.12809222376E+03  0.51100000000E-03 0. -1.
         22    1    1    2    0    0  0.84428541668E+01  0.67674807742E+01  0.57393279251E+02  0.58404358448E+02  0.00000000000E+00 0. -1.
          2    1    1    2  501    0 -0.27215828106E+02  0.54709195241E+02  0.82155349186E+03  0.82382275844E+03  0.25500000000E-02 0. -1.
<mgrwt>
<rscale>  0 0.63783891E+02</rscale>
<asrwt>0</asrwt>
<pdfrwt beam="1">  1       11 0.10000000E+01 0.10820378E+02</pdfrwt>
<pdfrwt beam="2">  1        2 0.15828422E-02 0.63783891E+02</pdfrwt>
<totfact> 0.77526787E+03</totfact>
</mgrwt>
</event>
<event>
 5    1  0.6729100E-004  0.1571046E+03  0.7818608E-02  0.1192005E+00
         11   -1    0    0    0    0  0.00000000000E+00  0.00000000000E+00  0.10000402221E+04  0.10000402221E+04  0.51100000000E-03 0. -1.
          2   -1    0    0  501    0 -0.00000000000E+00 -0.00000000000E+00 -0.71913945053E+02  0.71913945098E+02  0.25500000000E-02 0. -1.
         11    1    1    2    0    0  0.73250500122E+02  0.13186649847E+03  0.75522232405E+03  0.77013970676E+03  0.51100000000E-03 0. -1.
         22    1    1    2    0    0 -0.31372304718E+02  0.20946173137E+02  0.13324179784E+03  0.13847866393E+03  0.00000000000E+00 0.  1.
          2    1    1    2  501    0 -0.41878195404E+02 -0.15281267161E+03  0.39662155124E+02  0.16333579647E+03  0.25500000000E-02 0. -1.
<mgrwt>
<rscale>  0 0.15710461E+03</rscale>
<asrwt>0</asrwt>
<pdfrwt beam="1">  1       11 0.10000000E+01 0.37722191E+02</pdfrwt>
<pdfrwt beam="2">  1        2 0.11064129E-01 0.15710461E+03</pdfrwt>
<totfact> 0.67752899E+02</totfact>
</mgrwt>
</event>
<event>
 5    1  0.6729100E-004  0.1219698E+03  0.7818608E-02  0.1571233E+00
         11   -1    0    0    0    0  0.00000000000E+00  0.00000000000E+00  0.10000074828E+04  0.10000074828E+04  0.51100000000E-03 0. -1.
         -2   -1    0    0    0  501 -0.00000000000E+00 -0.00000000000E+00 -0.23279003794E+03  0.23279003796E+03  0.25500000000E-02 0. -1.
         11    1    1    2    0    0 -0.12561012619E+03 -0.34047287579E+02  0.46726243825E+03  0.48504773765E+03  0.51100000000E-03 0. -1.
         22    1    1    2    0    0  0.10263514561E+03  0.57143123534E+02  0.51603052449E+03  0.52923228537E+03  0.00000000000E+00 0. -1.
         -2    1    1    2    0  501  0.22974980583E+02 -0.23095835955E+02 -0.21607551789E+03  0.21851749772E+03  0.25500000000E-02 0. -1.
<mgrwt>
<rscale>  0 0.32577099E+02</rscale>
<asrwt>0</asrwt>
<pdfrwt beam="1">  1       11 0.10000000E+01 0.12196981E+03</pdfrwt>
<pdfrwt beam="2">  1       -2 0.35814119E-01 0.32577099E+02</pdfrwt>
<totfact> 0.57420249E+01</totfact>
</mgrwt>
</event>
<event>
 5    1  0.6729100E-004  0.7221511E+02  0.7818608E-02  0.1421190E+00
         11   -1    0    0    0    0  0.00000000000E+00  0.00000000000E+00  0.10000906172E+04  0.10000906172E+04  0.51100000000E-03 0. -1.
          2   -1    0    0  501    0 -0.00000000000E+00 -0.00000000000E+00 -0.11014819277E+02  0.11014819572E+02  0.25500000000E-02 0. -1.
         11    1    1    2    0    0 -0.65399605957E+02  0.10500677758E+02  0.27594700525E+03  0.28378534563E+03  0.51100000000E-03 0. -1.
         22    1    1    2    0    0  0.76891537321E+02  0.43050145863E+02  0.42770770923E+03  0.43669154801E+03  0.00000000000E+00 0. -1.
          2    1    1    2  501    0 -0.11491931364E+02 -0.53550823620E+02  0.28542108350E+03  0.29062854318E+03  0.25500000000E-02 0. -1.
<mgrwt>
<rscale>  0 0.54770021E+02</rscale>
<asrwt>0</asrwt>
<pdfrwt beam="1">  1       11 0.10000000E+01 0.72215107E+02</pdfrwt>
<pdfrwt beam="2">  1        2 0.16947411E-02 0.54770021E+02</pdfrwt>
<totfact> 0.69124189E+03</totfact>
</mgrwt>
</event>
<event>
 5    1  0.6729100E-004  0.1833087E+03  0.7818608E-02  0.1164639E+00
         11   -1    0    0    0    0  0.00000000000E+00  0.00000000000E+00  0.10002433246E+04  0.10002433246E+04  0.51100000000E-03 0.  1.
          2   -1    0    0  501    0 -0.00000000000E+00 -0.00000000000E+00 -0.43455603581E+03  0.43455603581E+03  0.25500000000E-02 0.  1.
         11    1    1    2    0    0  0.18388497063E+03 -0.58619861984E+02  0.89826344898E+03  0.91876394924E+03  0.51100000000E-03 0.  1.
         22    1    1    2    0    0 -0.23606426693E+02 -0.30059289679E+02  0.66627910797E+02  0.76812126480E+02  0.00000000000E+00 0. -1.
          2    1    1    2  501    0 -0.16027854393E+03  0.88679151663E+02 -0.39920407095E+03  0.43922328473E+03  0.25500000000E-02 0.  1.
<mgrwt>
<rscale>  0 0.18330866E+03</rscale>
<asrwt>0</asrwt>
<pdfrwt beam="1">  1       11 0.10000000E+01 0.38220731E+02</pdfrwt>
<pdfrwt beam="2">  1        2 0.66871040E-01 0.18330866E+03</pdfrwt>
<totfact> 0.90993274E+01</totfact>
</mgrwt>
</event>
<event>
 5    1  0.6729100E-004  0.7856290E+02  0.7818608E-02  0.1400501E+00
         11   -1    0    0    0    0  0.00000000000E+00  0.00000000000E+00  0.10001910343E+04  0.10001910343E+04  0.51100000000E-03 0. -1.
          2   -1    0    0  501    0 -0.00000000000E+00 -0.00000000000E+00 -0.58907985842E+02  0.58907985897E+02  0.25500000000E-02 0. -1.
         11    1    1    2    0    0  0.83748725205E+02 -0.78549798998E+02  0.60261702914E+03  0.61345839606E+03  0.51100000000E-03 0. -1.
         22    1    1    2    0    0 -0.57320938307E+02  0.25387801582E+02  0.37220887479E+03  0.37745155572E+03  0.00000000000E+00 0. -1.
          2    1    1    2  501    0 -0.26427786897E+02  0.53161997416E+02 -0.33542855483E+02  0.68189068406E+02  0.25500000000E-02 0. -1.
<mgrwt>
<rscale>  0 0.59368560E+02</rscale>
<asrwt>0</asrwt>
<pdfrwt beam="1">  1       11 0.10000000E+01 0.78562902E+02</pdfrwt>
<pdfrwt beam="2">  1        2 0.90644981E-02 0.59368560E+02</pdfrwt>
<totfact> 0.81201674E+02</totfact>
</mgrwt>
</event>
<event>
 5    1  0.6729100E-004  0.1419623E+03  0.7818608E-02  0.1210713E+00
         11   -1    0    0    0    0  0.00000000000E+00  0.00000000000E+00  0.10001009165E+04  0.10001009165E+04  0.51100000000E-03 0. -1.
          2   -1    0    0  501    0 -0.00000000000E+00 -0.00000000000E+00 -0.25234935210E+03  0.25234935211E+03  0.25500000000E-02 0. -1.
         11    1    1    2    0    0  0.21971080047E+03  0.16196796368E+02  0.75006593939E+03  0.78175065429E+03  0.51100000000E-03 0. -1.
         22    1    1    2    0    0 -0.91782731716E+02 -0.74102436106E+02  0.19536786391E+03  0.22821884919E+03  0.00000000000E+00 0. -1.
          2    1    1    2  501    0 -0.12792806875E+03  0.57905639738E+02 -0.19768223888E+03  0.24248076514E+03  0.25500000000E-02 0. -1.
<mgrwt>
<rscale>  0 0.14196232E+03</rscale>
<asrwt>0</asrwt>
<pdfrwt beam="1">  1       11 0.10000000E+01 0.11796288E+03</pdfrwt>
<pdfrwt beam="2">  1        2 0.38826894E-01 0.14196232E+03</pdfrwt>
<totfact> 0.16277034E+02</totfact>
</mgrwt>
</event>
<event>
 5    1  0.6729100E-004  0.1189826E+03  0.7818608E-02  0.1475510E+00
         11   -1    0    0    0    0  0.00000000000E+00  0.00000000000E+00  0.10006283264E+04  0.10006283264E+04  0.51100000000E-03 0.  1.
          2   -1    0    0  501    0 -0.00000000000E+00 -0.00000000000E+00 -0.59159233017E+03  0.59159233017E+03  0.25500000000E-02 0.  1.
         11    1    1    2    0    0  0.70628763788E+02  0.13351937703E+03  0.41678764446E+03  0.44331454622E+03  0.51100000000E-03 0.  1.
         22    1    1    2    0    0 -0.55716276310E+02 -0.91260009712E+02  0.56468454775E+03  0.57471848003E+03  0.00000000000E+00 0.  1.
          2    1    1    2  501    0 -0.14912487477E+02 -0.42259367317E+02 -0.57243619595E+03  0.57418763035E+03  0.25500000000E-02 0.  1.
<mgrwt>
<rscale>  0 0.44813351E+02</rscale>
<asrwt>0</asrwt>
<pdfrwt beam="1">  1       11 0.10000000E+01 0.11898256E+03</pdfrwt>
<pdfrwt beam="2">  1        2 0.91071389E-01 0.44813351E+02</pdfrwt>
<totfact> 0.66474395E+01</totfact>
</mgrwt>
</event>
<event>
 5    1  0.6729100E-004  0.4563208E+03  0.7818608E-02  0.1026519E+00
         11   -1    0    0    0    0  0.00000000000E+00  0.00000000000E+00  0.10003330294E+04  0.10003330294E+04  0.51100000000E-03 0.  1.
         -2   -1    0    0    0  501 -0.00000000000E+00 -0.00000000000E+00 -0.41396058543E+03  0.41396058544E+03  0.25500000000E-02 0. -1.
         11    1    1    2    0    0 -0.27931686797E+03  0.34399530612E+03  0.76591224150E+03  0.88485718906E+03  0.51100000000E-03 0.  1.
         22    1    1    2    0    0 -0.12384902090E+02  0.39681596770E+01  0.27487332262E+02  0.30408642289E+02  0.00000000000E+00 0.  1.
         -2    1    1    2    0  501  0.29170177006E+03 -0.34796346579E+03 -0.20702712981E+03  0.49902778346E+03  0.25500000000E-02 0. -1.
<mgrwt>
<rscale>  0 0.45405781E+03</rscale>
<asrwt>0</asrwt>
<pdfrwt beam="1">  1       11 0.10000000E+01 0.45632078E+03</pdfrwt>
<pdfrwt beam="2">  1       -2 0.63707451E-01 0.45405781E+03</pdfrwt>
<totfact> 0.18764710E+01</totfact>
</mgrwt>
</event>
<event>
 5    1  0.6729100E-004  0.2485980E+03  0.7818608E-02  0.1114194E+00
         11   -1    0    0    0    0  0.00000000000E+00  0.00000000000E+00  0.10002942305E+04  0.10002942305E+04  0.51100000000E-03 0.  1.
          2   -1    0    0  501    0 -0.00000000000E+00 -0.00000000000E+00 -0.21345104485E+03  0.21345104486E+03  0.25500000000E-02 0.  1.
         11    1    1    2    0    0 -0.17775920000E+03 -0.16768466002E+03  0.81032051428E+03  0.84636624120E+03  0.51100000000E-03 0.  1.
         22    1    1    2    0    0 -0.28249346989E+02  0.27314072791E+02  0.86427469219E+02  0.94940990164E+02  0.00000000000E+00 0.  1.
          2    1    1    2  501    0  0.20600854698E+03  0.14037058723E+03 -0.10990479788E+03  0.27243804396E+03  0.25500000000E-02 0.  1.
<mgrwt>
<rscale>  0 0.24859800E+03</rscale>
<asrwt>0</asrwt>
<pdfrwt beam="1">  1       11 0.10000000E+01 0.39294837E+02</pdfrwt>
<pdfrwt beam="2">  1        2 0.32848283E-01 0.24859800E+03</pdfrwt>
<totfact> 0.19625234E+02</totfact>
</mgrwt>
</event>
<event>
 5    1  0.6729100E-004  0.1600464E+03  0.7818608E-02  0.1188644E+00
         11   -1    0    0    0    0  0.00000000000E+00  0.00000000000E+00  0.99997012427E+03  0.99997012427E+03  0.51100000000E-03 0.  1.
         -2   -1    0    0    0  501 -0.00000000000E+00 -0.00000000000E+00 -0.46750097352E+02  0.46750097421E+02  0.25500000000E-02 0. -1.
         11    1    1    2    0    0 -0.15635220997E+03 -0.68035987901E+02  0.66841772901E+03  0.68982401355E+03  0.51100000000E-03 0.  1.
         22    1    1    2    0    0  0.32160766149E+01  0.30140342094E+02  0.13837998053E+03  0.14166087103E+03  0.00000000000E+00 0. -1.
         -2    1    1    2    0  501  0.15313613335E+03  0.37895645806E+02  0.14642231738E+03  0.21523533711E+03  0.25500000000E-02 0. -1.
<mgrwt>
<rscale>  0 0.16004643E+03</rscale>
<asrwt>0</asrwt>
<pdfrwt beam="1">  1       11 0.10000000E+01 0.30311440E+02</pdfrwt>
<pdfrwt beam="2">  1       -2 0.71921076E-02 0.16004643E+03</pdfrwt>
<totfact> 0.86132100E+02</totfact>
</mgrwt>
</event>
<event>
 5    1  0.6729100E-004  0.1785258E+03  0.7818608E-02  0.1169237E+00
         11   -1    0    0    0    0  0.00000000000E+00  0.00000000000E+00  0.10001418560E+04  0.10001418560E+04  0.51100000000E-03 0.  1.
          2   -1    0    0  501    0 -0.00000000000E+00 -0.00000000000E+00 -0.60811264007E+02  0.60811264061E+02  0.25500000000E-02 0.  1.
         11    1    1    2    0    0  0.80174590770E+02  0.15412102238E+03  0.12333932976E+03  0.21305831317E+03  0.51100000000E-03 0.  1.
         22    1    1    2    0    0  0.27641245356E+02  0.13300798191E+02  0.13114364771E+03  0.13468335462E+03  0.00000000000E+00 0.  1.
          2    1    1    2  501    0 -0.10781583613E+03 -0.16742182057E+03  0.68484761453E+03  0.71321145228E+03  0.25500000000E-02 0.  1.
<mgrwt>
<rscale>  0 0.17852578E+03</rscale>
<asrwt>0</asrwt>
<pdfrwt beam="1">  1       11 0.10000000E+01 0.30674903E+02</pdfrwt>
<pdfrwt beam="2">  1        2 0.93569060E-02 0.17852578E+03</pdfrwt>
<totfact> 0.83850826E+02</totfact>
</mgrwt>
</event>
<event>
 5    1  0.6729100E-004  0.3802851E+03  0.7818608E-02  0.1302992E+00
         11   -1    0    0    0    0  0.00000000000E+00  0.00000000000E+00  0.10003634443E+04  0.10003634443E+04  0.51100000000E-03 0. -1.
          2   -1    0    0  501    0 -0.00000000000E+00 -0.00000000000E+00 -0.13916728042E+04  0.13916728042E+04  0.25500000000E-02 0. -1.
         11    1    1    2    0    0  0.74630831507E+02  0.33039538995E+03  0.31402087933E+03  0.46188741849E+03  0.51100000000E-03 0. -1.
         22    1    1    2    0    0 -0.12950605150E+03 -0.40165744139E+03  0.53788643432E+03  0.68368291907E+03  0.00000000000E+00 0.  1.
          2    1    1    2  501    0  0.54875219996E+02  0.71262051445E+02 -0.12432166736E+04  0.12464659110E+04  0.25500000000E-02 0. -1.
<mgrwt>
<rscale>  0 0.89942036E+02</rscale>
<asrwt>0</asrwt>
<pdfrwt beam="1">  1       11 0.10000000E+01 0.38028509E+03</pdfrwt>
<pdfrwt beam="2">  1        2 0.21418132E+00 0.89942036E+02</pdfrwt>
<totfact> 0.21175866E+01</totfact>
</mgrwt>
</event>
<event>
 5    1  0.6729100E-004  0.5079397E+02  0.7818608E-02  0.1441106E+00
         11   -1    0    0    0    0  0.00000000000E+00  0.00000000000E+00  0.10000845936E+04  0.10000845936E+04  0.51100000000E-03 0.  1.
          2   -1    0    0  501    0 -0.00000000000E+00 -0.00000000000E+00 -0.48538744474E+01  0.48538751172E+01  0.25500000000E-02 0.  1.
         11    1    1    2    0    0  0.15985947458E+02 -0.14963577273E+02  0.85669555319E+02  0.88423593400E+02  0.51100000000E-03 0.  1.
         22    1    1    2    0    0 -0.16514148157E+02  0.53967436294E+02  0.27369183555E+03  0.27945021402E+03  0.00000000000E+00 0.  1.
          2    1    1    2  501    0  0.52820069920E+00 -0.39003859021E+02  0.63586932831E+03  0.63706466132E+03  0.25500000000E-02 0.  1.
<mgrwt>
<rscale>  0 0.50793975E+02</rscale>
<asrwt>0</asrwt>
<pdfrwt beam="1">  1       11 0.10000000E+01 0.21896567E+02</pdfrwt>
<pdfrwt beam="2">  1        2 0.74681312E-03 0.50793975E+02</pdfrwt>
<totfact> 0.20485678E+04</totfact>
</mgrwt>
</event>
<event>
 5    1  0.6729100E-004  0.1987128E+03  0.7818608E-02  0.1508800E+00
         11   -1    0    0    0    0  0.00000000000E+00  0.00000000000E+00  0.10002658306E+04  0.10002658306E+04  0.51100000000E-03 0. -1.
          2   -1    0    0  501    0 -0.00000000000E+00 -0.00000000000E+00 -0.10196331643E+03  0.10196331647E+03  0.25500000000E-02 0. -1.
         11    1    1    2    0    0 -0.61409376169E+02 -0.16411531627E+03  0.24504458787E+03  0.30125039180E+03  0.51100000000E-03 0. -1.
         22    1    1    2    0    0  0.57957012191E+02  0.20388588261E+03  0.70468661781E+03  0.73587478399E+03  0.00000000000E+00 0. -1.
          2    1    1    2  501    0  0.34523639788E+01 -0.39770566341E+02 -0.51428691488E+02  0.65103971298E+02  0.25500000000E-02 0. -1.
<mgrwt>
<rscale>  0 0.39920130E+02</rscale>
<asrwt>0</asrwt>
<pdfrwt beam="1">  1       11 0.10000000E+01 0.19871282E+03</pdfrwt>
<pdfrwt beam="2">  1        2 0.15690834E-01 0.39920130E+02</pdfrwt>
<totfact> 0.41760810E+02</totfact>
</mgrwt>
</event>
<event>
 5    1  0.6729100E-004  0.3371345E+03  0.7818608E-02  0.1068023E+00
         11   -1    0    0    0    0  0.00000000000E+00  0.00000000000E+00  0.10001601439E+04  0.10001601439E+04  0.51100000000E-03 0. -1.
          2   -1    0    0  501    0 -0.00000000000E+00 -0.00000000000E+00 -0.16362648819E+03  0.16362648821E+03  0.25500000000E-02 0. -1.
         11    1    1    2    0    0  0.12959043050E+03  0.30552195070E+03  0.88770162267E+02  0.34353672838E+03  0.51100000000E-03 0. -1.
         22    1    1    2    0    0  0.49703720741E+01 -0.30770134009E+02  0.65911921468E+02  0.72910130552E+02  0.00000000000E+00 0. -1.
          2    1    1    2  501    0 -0.13456080257E+03 -0.27475181669E+03  0.68185157201E+03  0.74733977321E+03  0.25500000000E-02 0. -1.
<mgrwt>
<rscale>  0 0.33713449E+03</rscale>
<asrwt>0</asrwt>
<pdfrwt beam="1">  1       11 0.10000000E+01 0.33186963E+03</pdfrwt>
<pdfrwt beam="2">  1        2 0.25177337E-01 0.33713449E+03</pdfrwt>
<totfact> 0.26496792E+02</totfact>
</mgrwt>
</event>
<event>
 5    1  0.6729100E-004  0.1884932E+03  0.7818608E-02  0.1499565E+00
         11   -1    0    0    0    0  0.00000000000E+00  0.00000000000E+00  0.10002689086E+04  0.10002689086E+04  0.51100000000E-03 0.  1.
          2   -1    0    0  501    0 -0.00000000000E+00 -0.00000000000E+00 -0.16222033484E+03  0.16222033486E+03  0.25500000000E-02 0.  1.
         11    1    1    2    0    0 -0.13125045860E+03 -0.16712174451E+03  0.18159708364E+03  0.27952434806E+03  0.51100000000E-03 0.  1.
         22    1    1    2    0    0  0.13344512745E+03  0.12598062874E+03  0.75456031046E+03  0.77655649052E+03  0.00000000000E+00 0.  1.
          2    1    1    2  501    0 -0.21946688420E+01  0.41141115775E+02 -0.98108820372E+02  0.10640840484E+03  0.25500000000E-02 0.  1.
<mgrwt>
<rscale>  0 0.41199611E+02</rscale>
<asrwt>0</asrwt>
<pdfrwt beam="1">  1       11 0.10000000E+01 0.18849324E+03</pdfrwt>
<pdfrwt beam="2">  1        2 0.24963685E-01 0.41199611E+02</pdfrwt>
<totfact> 0.25249917E+02</totfact>
</mgrwt>
</event>
<event>
 5    1  0.6729100E-004  0.3043642E+03  0.7818608E-02  0.1083079E+00
         11   -1    0    0    0    0  0.00000000000E+00  0.00000000000E+00  0.10001974110E+04  0.10001974110E+04  0.51100000000E-03 0. -1.
          2   -1    0    0  501    0 -0.00000000000E+00 -0.00000000000E+00 -0.98855905597E+02  0.98855905630E+02  0.25500000000E-02 0. -1.
         11    1    1    2    0    0 -0.12557293008E+03  0.27389331656E+03  0.30062441863E+03  0.42563029815E+03  0.51100000000E-03 0. -1.
         22    1    1    2    0    0  0.16062911319E+01 -0.11502024628E+02  0.10225562881E+02  0.15473812652E+02  0.00000000000E+00 0. -1.
          2    1    1    2  501    0  0.12396663894E+03 -0.26239129193E+03  0.59049152385E+03  0.65794920579E+03  0.25500000000E-02 0. -1.
<mgrwt>
<rscale>  0 0.30436416E+03</rscale>
<asrwt>0</asrwt>
<pdfrwt beam="1">  1       11 0.10000000E+01 0.30130748E+03</pdfrwt>
<pdfrwt beam="2">  1        2 0.15211603E-01 0.30436416E+03</pdfrwt>
<totfact> 0.47431864E+02</totfact>
</mgrwt>
</event>
<event>
 5    1  0.6729100E-004  0.1546756E+03  0.7818608E-02  0.1194843E+00
         11   -1    0    0    0    0  0.00000000000E+00  0.00000000000E+00  0.10001213984E+04  0.10001213984E+04  0.51100000000E-03 0.  1.
          2   -1    0    0  501    0 -0.00000000000E+00 -0.00000000000E+00 -0.31418046804E+02  0.31418046908E+02  0.25500000000E-02 0.  1.
         11    1    1    2    0    0 -0.11418379790E+03 -0.93022569275E+02  0.44145422796E+03  0.46537401462E+03  0.51100000000E-03 0.  1.
         22    1    1    2    0    0 -0.33851814527E+02  0.23573878558E+02  0.13607710314E+03  0.14219230323E+03  0.00000000000E+00 0.  1.
          2    1    1    2  501    0  0.14803561243E+03  0.69448690717E+02  0.39117202051E+03  0.42397312749E+03  0.25500000000E-02 0.  1.
<mgrwt>
<rscale>  0 0.15467558E+03</rscale>
<asrwt>0</asrwt>
<pdfrwt beam="1">  1       11 0.10000000E+01 0.41251341E+02</pdfrwt>
<pdfrwt beam="2">  1        2 0.48341323E-02 0.15467558E+03</pdfrwt>
<totfact> 0.19358711E+03</totfact>
</mgrwt>
</event>
<event>
 5    1  0.1179641E-003  0.4431018E+03  0.7818608E-02  0.1029799E+00
         11   -1    0    0    0    0  0.00000000000E+00  0.00000000000E+00  0.10009644249E+04  0.10009644249E+04  0.51100000000E-03 0. -1.
          2   -1    0    0  501    0 -0.00000000000E+00 -0.00000000000E+00 -0.22906167029E+04  0.22906167029E+04  0.25500000000E-02 0. -1.
         11    1    1    2    0    0  0.89172305956E+02  0.42190254077E+03  0.85495503032E+03  0.95754976786E+03  0.51100000000E-03 0. -1.
         22    1    1    2    0    0 -0.70705329847E+01  0.13821969237E+02  0.71927407077E+02  0.73583905571E+02  0.00000000000E+00 0.  1.
          2    1    1    2  501    0 -0.82101772971E+02 -0.43572451001E+03 -0.22165347154E+04  0.22604474544E+04  0.25500000000E-02 0. -1.
<mgrwt>
<rscale>  0 0.44310182E+03</rscale>
<asrwt>0</asrwt>
<pdfrwt beam="1">  1       11 0.10000000E+01 0.15525439E+02</pdfrwt>
<pdfrwt beam="2">  1        2 0.35274243E+00 0.44310182E+03</pdfrwt>
<totfact> 0.61742368E+00</totfact>
</mgrwt>
</event>
<event>
 5    1  0.6729100E-004  0.1620372E+03  0.7818608E-02  0.1307995E+00
         11   -1    0    0    0    0  0.00000000000E+00  0.00000000000E+00  0.10004948680E+04  0.10004948680E+04  0.51100000000E-03 0. -1.
          2   -1    0    0  501    0 -0.00000000000E+00 -0.00000000000E+00 -0.27799363750E+03  0.27799363751E+03  0.25500000000E-02 0. -1.
         11    1    1    2    0    0  0.56871286926E+02 -0.72258700970E+02  0.26629083315E+02  0.95732811621E+02  0.51100000000E-03 0. -1.
         22    1    1    2    0    0 -0.11790923757E+03  0.13552329722E+03  0.92242040837E+03  0.93974920174E+03  0.00000000000E+00 0. -1.
          2    1    1    2  501    0  0.61037950643E+02 -0.63264596247E+02 -0.22654826121E+03  0.24300649213E+03  0.25500000000E-02 0. -1.
<mgrwt>
<rscale>  0 0.87909275E+02</rscale>
<asrwt>0</asrwt>
<pdfrwt beam="1">  1       11 0.10000000E+01 0.16203719E+03</pdfrwt>
<pdfrwt beam="2">  1        2 0.42789415E-01 0.87909275E+02</pdfrwt>
<totfact> 0.14618956E+02</totfact>
</mgrwt>
</event>
<event>
 5    1  0.6729100E-004  0.1209851E+03  0.7818608E-02  0.1241481E+00
         11   -1    0    0    0    0  0.00000000000E+00  0.00000000000E+00  0.10000396492E+04  0.10000396492E+04  0.51100000000E-03 0.  1.
          2   -1    0    0  501    0 -0.00000000000E+00 -0.00000000000E+00 -0.81997599011E+03  0.81997599012E+03  0.25500000000E-02 0.  1.
         11    1    1    2    0    0  0.75977542265E+02 -0.82624433758E+02  0.67058618812E+03  0.67991559747E+03  0.51100000000E-03 0.  1.
         22    1    1    2    0    0 -0.49666591529E+02 -0.35627777174E+02  0.31735617445E+03  0.32318887710E+03  0.00000000000E+00 0. -1.
          2    1    1    2  501    0 -0.26310950736E+02  0.11825221093E+03 -0.80787870349E+03  0.81691116474E+03  0.25500000000E-02 0.  1.
<mgrwt>
<rscale>  0 0.12098512E+03</rscale>
<asrwt>0</asrwt>
<pdfrwt beam="1">  1       11 0.10000000E+01 0.61123717E+02</pdfrwt>
<pdfrwt beam="2">  1        2 0.12615515E+00 0.12098512E+03</pdfrwt>
<totfact> 0.44268624E+01</totfact>
</mgrwt>
</event>
<event>
 5    1  0.6729100E-004  0.2086478E+03  0.7818608E-02  0.1142641E+00
         11   -1    0    0    0    0  0.00000000000E+00  0.00000000000E+00  0.10000834661E+04  0.10000834661E+04  0.51100000000E-03 0.  1.
          2   -1    0    0  501    0 -0.00000000000E+00 -0.00000000000E+00 -0.68306474847E+03  0.68306474848E+03  0.25500000000E-02 0.  1.
         11    1    1    2    0    0 -0.21575883315E+03 -0.37596378003E+02  0.74700913864E+03  0.77845232027E+03  0.51100000000E-03 0.  1.
         22    1    1    2    0    0  0.19866230400E+02 -0.33799285466E+02  0.21928644758E+03  0.22276356278E+03  0.00000000000E+00 0. -1.
          2    1    1    2  501    0  0.19589260275E+03  0.71395663470E+02 -0.64927686864E+03  0.68193233149E+03  0.25500000000E-02 0.  1.
<mgrwt>
<rscale>  0 0.20864780E+03</rscale>
<asrwt>0</asrwt>
<pdfrwt beam="1">  1       11 0.10000000E+01 0.39205342E+02</pdfrwt>
<pdfrwt beam="2">  1        2 0.10509565E+00 0.20864780E+03</pdfrwt>
<totfact> 0.54343271E+01</totfact>
</mgrwt>
</event>
<event>
 5    1  0.6729100E-004  0.1076133E+03  0.7818608E-02  0.1265055E+00
         11   -1    0    0    0    0  0.00000000000E+00  0.00000000000E+00  0.10002342846E+04  0.10002342846E+04  0.51100000000E-03 0. -1.
          2   -1    0    0  501    0 -0.00000000000E+00 -0.00000000000E+00 -0.16412738474E+02  0.16412738672E+02  0.25500000000E-02 0. -1.
         11    1    1    2    0    0  0.10492885446E+03 -0.31079959297E+02  0.23876258706E+03  0.26264729457E+03  0.51100000000E-03 0. -1.
         22    1    1    2    0    0 -0.35922079584E+01  0.12071336294E+02  0.73194981145E+02  0.74270629341E+02  0.00000000000E+00 0. -1.
          2    1    1    2  501    0 -0.10133664650E+03  0.19008623003E+02  0.67186397788E+03  0.67972909931E+03  0.25500000000E-02 0. -1.
<mgrwt>
<rscale>  0 0.10761327E+03</rscale>
<asrwt>0</asrwt>
<pdfrwt beam="1">  1       11 0.10000000E+01 0.12594488E+02</pdfrwt>
<pdfrwt beam="2">  1        2 0.25256282E-02 0.10761327E+03</pdfrwt>
<totfact> 0.44345409E+03</totfact>
</mgrwt>
</event>
<event>
 5    1  0.6729100E-004  0.1709578E+03  0.7818608E-02  0.1176853E+00
         11   -1    0    0    0    0  0.00000000000E+00  0.00000000000E+00  0.10002904699E+04  0.10002904699E+04  0.51100000000E-03 0.  1.
          2   -1    0    0  501    0 -0.00000000000E+00 -0.00000000000E+00 -0.12009049676E+03  0.12009049679E+03  0.25500000000E-02 0.  1.
         11    1    1    2    0    0 -0.66407963410E+02  0.12972154551E+03  0.79823224496E+03  0.81142616045E+03  0.51100000000E-03 0.  1.
         22    1    1    2    0    0 -0.43612919309E+02  0.42650986261E+01  0.12318998110E+03  0.13075186133E+03  0.00000000000E+00 0. -1.
          2    1    1    2  501    0  0.11002088272E+03 -0.13398664414E+03 -0.41222252902E+02  0.17820294493E+03  0.25500000000E-02 0.  1.
<mgrwt>
<rscale>  0 0.17095780E+03</rscale>
<asrwt>0</asrwt>
<pdfrwt beam="1">  1       11 0.10000000E+01 0.43820974E+02</pdfrwt>
<pdfrwt beam="2">  1        2 0.18480827E-01 0.17095780E+03</pdfrwt>
<totfact> 0.37042431E+02</totfact>
</mgrwt>
</event>
<event>
 5    1  0.6729100E-004  0.2010714E+03  0.7818608E-02  0.1356923E+00
         11   -1    0    0    0    0  0.00000000000E+00  0.00000000000E+00  0.10001176047E+04  0.10001176047E+04  0.51100000000E-03 0.  1.
          2   -1    0    0  501    0 -0.00000000000E+00 -0.00000000000E+00 -0.10588401062E+04  0.10588401062E+04  0.25500000000E-02 0. -1.
         11    1    1    2    0    0  0.18947245310E+03 -0.94579521514E+02  0.26474647727E+02  0.21341509634E+03  0.51100000000E-03 0.  1.
         22    1    1    2    0    0 -0.19960976132E+03  0.24366937263E+02  0.86735074435E+03  0.89035673647E+03  0.00000000000E+00 0.  1.
          2    1    1    2  501    0  0.10137308227E+02  0.70212584251E+02 -0.95254789364E+03  0.95518587808E+03  0.25500000000E-02 0. -1.
<mgrwt>
<rscale>  0 0.70940623E+02</rscale>
<asrwt>0</asrwt>
<pdfrwt beam="1">  1       11 0.10000000E+01 0.20107142E+03</pdfrwt>
<pdfrwt beam="2">  1        2 0.16291763E+00 0.70940623E+02</pdfrwt>
<totfact> 0.32489574E+01</totfact>
</mgrwt>
</event>
<event>
 5    1  0.6729100E-004  0.1678857E+03  0.7818608E-02  0.1180071E+00
         11   -1    0    0    0    0  0.00000000000E+00  0.00000000000E+00  0.10000610196E+04  0.10000610196E+04  0.51100000000E-03 0.  1.
          2   -1    0    0  501    0 -0.00000000000E+00 -0.00000000000E+00 -0.54411214683E+03  0.54411214684E+03  0.25500000000E-02 0.  1.
         11    1    1    2    0    0  0.12921555865E+03  0.99938287112E+02  0.93764032841E+03  0.95176347234E+03  0.51100000000E-03 0.  1.
         22    1    1    2    0    0  0.10759675373E+02 -0.71173581276E+01  0.41217762511E+02  0.43189481905E+02  0.00000000000E+00 0. -1.
          2    1    1    2  501    0 -0.13997523402E+03 -0.92820928985E+02 -0.52290921818E+03  0.54922021217E+03  0.25500000000E-02 0.  1.
<mgrwt>
<rscale>  0 0.16788567E+03</rscale>
<asrwt>0</asrwt>
<pdfrwt beam="1">  1       11 0.10000000E+01 0.12900674E+02</pdfrwt>
<pdfrwt beam="2">  1        2 0.83714667E-01 0.16788567E+03</pdfrwt>
<totfact> 0.71086875E+01</totfact>
</mgrwt>
</event>
<event>
 5    1  0.6729100E-004  0.3850486E+03  0.7818608E-02  0.1394851E+00
         11   -1    0    0    0    0  0.00000000000E+00  0.00000000000E+00  0.10003397863E+04  0.10003397863E+04  0.51100000000E-03 0. -1.
          2   -1    0    0  501    0 -0.00000000000E+00 -0.00000000000E+00 -0.34143958314E+03  0.34143958315E+03  0.25500000000E-02 0. -1.
         11    1    1    2    0    0 -0.37571110745E+03  0.20675062799E+03  0.86959254270E+02  0.43756893210E+03  0.51100000000E-03 0. -1.
         22    1    1    2    0    0  0.33746247831E+03 -0.15959675862E+03  0.68258972458E+03  0.77799793170E+03  0.00000000000E+00 0. -1.
          2    1    1    2  501    0  0.38248629139E+02 -0.47153869364E+02 -0.11064877566E+03  0.12621250567E+03  0.25500000000E-02 0. -1.
<mgrwt>
<rscale>  0 0.60716102E+02</rscale>
<asrwt>0</asrwt>
<pdfrwt beam="1">  1       11 0.10000000E+01 0.38504865E+03</pdfrwt>
<pdfrwt beam="2">  1        2 0.52547014E-01 0.60716102E+02</pdfrwt>
<totfact> 0.11782805E+02</totfact>
</mgrwt>
</event>
<event>
 5    1  0.6729100E-004  0.1059843E+03  0.7818608E-02  0.1268192E+00
         11   -1    0    0    0    0  0.00000000000E+00  0.00000000000E+00  0.10002508330E+04  0.10002508330E+04  0.51100000000E-03 0.  1.
         -2   -1    0    0    0  501 -0.00000000000E+00 -0.00000000000E+00 -0.11962287314E+03  0.11962287317E+03  0.25500000000E-02 0. -1.
         11    1    1    2    0    0 -0.99602198520E+02 -0.10503222681E+03  0.70785883841E+03  0.72250709459E+03  0.51100000000E-03 0.  1.
         22    1    1    2    0    0  0.14145520897E+02  0.44493269401E+02  0.25809284540E+03  0.26228164944E+03  0.00000000000E+00 0.  1.
         -2    1    1    2    0  501  0.85456677622E+02  0.60538957406E+02 -0.85323723973E+02  0.13508496213E+03  0.25500000000E-02 0. -1.
<mgrwt>
<rscale>  0 0.10598428E+03</rscale>
<asrwt>0</asrwt>
<pdfrwt beam="1">  1       11 0.10000000E+01 0.46687758E+02</pdfrwt>
<pdfrwt beam="2">  1       -2 0.18408135E-01 0.10598428E+03</pdfrwt>
<totfact> 0.18831830E+02</totfact>
</mgrwt>
</event>
<event>
 5    1  0.6729100E-004  0.1192622E+03  0.7818608E-02  0.1244319E+00
         11   -1    0    0    0    0  0.00000000000E+00  0.00000000000E+00  0.10003113953E+04  0.10003113953E+04  0.51100000000E-03 0. -1.
          2   -1    0    0  501    0 -0.00000000000E+00 -0.00000000000E+00 -0.61947034942E+02  0.61947034995E+02  0.25500000000E-02 0. -1.
         11    1    1    2    0    0  0.14851576024E+03 -0.22418423058E+02  0.61355068091E+03  0.63166759833E+03  0.51100000000E-03 0. -1.
         22    1    1    2    0    0 -0.33684381801E+02  0.43075329454E+02  0.30787470667E+03  0.31269307090E+03  0.00000000000E+00 0. -1.
          2    1    1    2  501    0 -0.11483137844E+03 -0.20656906396E+02  0.16938972765E+02  0.11789776105E+03  0.25500000000E-02 0. -1.
<mgrwt>
<rscale>  0 0.11926217E+03</rscale>
<asrwt>0</asrwt>
<pdfrwt beam="1">  1       11 0.10000000E+01 0.54682004E+02</pdfrwt>
<pdfrwt beam="2">  1        2 0.95332805E-02 0.11926217E+03</pdfrwt>
<totfact> 0.80055188E+02</totfact>
</mgrwt>
</event>
<event>
 5    1  0.6729100E-004  0.1351619E+03  0.7818608E-02  0.1421681E+00
         11   -1    0    0    0    0  0.00000000000E+00  0.00000000000E+00  0.10004849283E+04  0.10004849283E+04  0.51100000000E-03 0. -1.
          2   -1    0    0  501    0 -0.00000000000E+00 -0.00000000000E+00 -0.71280314991E+03  0.71280314992E+03  0.25500000000E-02 0. -1.
         11    1    1    2    0    0  0.15626935192E+03 -0.66810797797E+02  0.52940368779E+03  0.55601444019E+03  0.51100000000E-03 0. -1.
         22    1    1    2    0    0 -0.10358656002E+03  0.52216854031E+02  0.44933005567E+03  0.46406279122E+03  0.00000000000E+00 0. -1.
          2    1    1    2  501    0 -0.52682791899E+02  0.14593943767E+02 -0.69105196505E+03  0.69321084683E+03  0.25500000000E-02 0. -1.
<mgrwt>
<rscale>  0 0.54666807E+02</rscale>
<asrwt>0</asrwt>
<pdfrwt beam="1">  1       11 0.10000000E+01 0.13516190E+03</pdfrwt>
<pdfrwt beam="2">  1        2 0.10971520E+00 0.54666807E+02</pdfrwt>
<totfact> 0.53783715E+01</totfact>
</mgrwt>
</event>
<event>
 5    1  0.6729100E-004  0.1542383E+03  0.7818608E-02  0.1504649E+00
         11   -1    0    0    0    0  0.00000000000E+00  0.00000000000E+00  0.10004347977E+04  0.10004347977E+04  0.51100000000E-03 0.  1.
          2   -1    0    0  501    0 -0.00000000000E+00 -0.00000000000E+00 -0.82027987226E+02  0.82027987266E+02  0.25500000000E-02 0.  1.
         11    1    1    2    0    0 -0.13736336629E+03 -0.60463043186E+02  0.64164073144E+03  0.65895925689E+03  0.51100000000E-03 0.  1.
         22    1    1    2    0    0  0.16432338614E+03  0.30256093443E+02  0.32201628648E+03  0.36278381329E+03  0.00000000000E+00 0.  1.
          2    1    1    2  501    0 -0.26960019851E+02  0.30206949743E+02 -0.45250207455E+02  0.60719714792E+02  0.25500000000E-02 0.  1.
<mgrwt>
<rscale>  0 0.40488301E+02</rscale>
<asrwt>0</asrwt>
<pdfrwt beam="1">  1       11 0.10000000E+01 0.15423825E+03</pdfrwt>
<pdfrwt beam="2">  1        2 0.12625177E-01 0.40488301E+02</pdfrwt>
<totfact> 0.53461921E+02</totfact>
</mgrwt>
</event>
<event>
 5    1  0.6729100E-004  0.1395171E+03  0.7818608E-02  0.1457276E+00
         11   -1    0    0    0    0  0.00000000000E+00  0.00000000000E+00  0.99995418360E+03  0.99995418360E+03  0.51100000000E-03 0.  1.
          2   -1    0    0  501    0 -0.00000000000E+00 -0.00000000000E+00 -0.10243502693E+03  0.10243502696E+03  0.25500000000E-02 0. -1.
         11    1    1    2    0    0  0.10478266188E+03 -0.94530469129E+02  0.15700264641E+03  0.21110482421E+03  0.51100000000E-03 0.  1.
         22    1    1    2    0    0 -0.66881441624E+02  0.12374434366E+03  0.80150997266E+03  0.81375919417E+03  0.00000000000E+00 0.  1.
          2    1    1    2  501    0 -0.37901220254E+02 -0.29213874531E+02 -0.60993462393E+02  0.77525192183E+02  0.25500000000E-02 0. -1.
<mgrwt>
<rscale>  0 0.47853453E+02</rscale>
<asrwt>0</asrwt>
<pdfrwt beam="1">  1       11 0.10000000E+01 0.13951707E+03</pdfrwt>
<pdfrwt beam="2">  1        2 0.15758512E-01 0.47853453E+02</pdfrwt>
<totfact> 0.42001959E+02</totfact>
</mgrwt>
</event>
<event>
 5    1  0.6729100E-004  0.2555172E+03  0.7818608E-02  0.1471384E+00
         11   -1    0    0    0    0  0.00000000000E+00  0.00000000000E+00  0.10004033877E+04  0.10004033877E+04  0.51100000000E-03 0.  1.
          2   -1    0    0  501    0 -0.00000000000E+00 -0.00000000000E+00 -0.23243067840E+04  0.23243067840E+04  0.25500000000E-02 0.  1.
         11    1    1    2    0    0  0.20874729305E+03 -0.70394660943E+02  0.34753603511E+02  0.22302164380E+03  0.51100000000E-03 0.  1.
         22    1    1    2    0    0 -0.25414841182E+03  0.67762722238E+02  0.85143085776E+03  0.89113282248E+03  0.00000000000E+00 0.  1.
          2    1    1    2  501    0  0.45401118766E+02  0.26319387053E+01 -0.22100878575E+04  0.22105557054E+04  0.25500000000E-02 0.  1.
<mgrwt>
<rscale>  0 0.45477343E+02</rscale>
<asrwt>0</asrwt>
<pdfrwt beam="1">  1       11 0.10000000E+01 0.25551721E+03</pdfrwt>
<pdfrwt beam="2">  1        2 0.35772989E+00 0.45477343E+02</pdfrwt>
<totfact> 0.78198740E+00</totfact>
</mgrwt>
</event>
<event>
 5    1  0.6729100E-004  0.6407127E+02  0.7818608E-02  0.1381499E+00
         11   -1    0    0    0    0  0.00000000000E+00  0.00000000000E+00  0.10004362610E+04  0.10004362610E+04  0.51100000000E-03 0.  1.
          2   -1    0    0  501    0 -0.00000000000E+00 -0.00000000000E+00 -0.10781536378E+02  0.10781536679E+02  0.25500000000E-02 0.  1.
         11    1    1    2    0    0  0.66331984875E+02  0.27636148856E+01  0.13120804330E+03  0.14704802077E+03  0.51100000000E-03 0.  1.
         22    1    1    2    0    0 -0.13625704419E+02 -0.30475807315E+02  0.17658184353E+03  0.17970971625E+03  0.00000000000E+00 0.  1.
          2    1    1    2  501    0 -0.52706280456E+02  0.27712192429E+02  0.68186483781E+03  0.68446006067E+03  0.25500000000E-02 0.  1.
<mgrwt>
<rscale>  0 0.64071269E+02</rscale>
<asrwt>0</asrwt>
<pdfrwt beam="1">  1       11 0.10000000E+01 0.33383149E+02</pdfrwt>
<pdfrwt beam="2">  1        2 0.16594215E-02 0.64071269E+02</pdfrwt>
<totfact> 0.72816164E+03</totfact>
</mgrwt>
</event>
<event>
 5    1  0.6729100E-004  0.2701251E+03  0.7818608E-02  0.1101208E+00
         11   -1    0    0    0    0  0.00000000000E+00  0.00000000000E+00  0.10003869514E+04  0.10003869514E+04  0.51100000000E-03 0. -1.
          2   -1    0    0  501    0 -0.00000000000E+00 -0.00000000000E+00 -0.13967467973E+04  0.13967467973E+04  0.25500000000E-02 0. -1.
         11    1    1    2    0    0 -0.13946934144E+03  0.21314036167E+03  0.76655392794E+03  0.80776570577E+03  0.51100000000E-03 0. -1.
         22    1    1    2    0    0 -0.39380645722E+02 -0.10299314408E+02  0.19784947965E+03  0.20199338537E+03  0.00000000000E+00 0.  1.
          2    1    1    2  501    0  0.17884998716E+03 -0.20284104726E+03 -0.13607632534E+04  0.13873746575E+04  0.25500000000E-02 0. -1.
<mgrwt>
<rscale>  0 0.27012510E+03</rscale>
<asrwt>0</asrwt>
<pdfrwt beam="1">  1       11 0.10000000E+01 0.40705173E+02</pdfrwt>
<pdfrwt beam="2">  1        2 0.21496727E+00 0.27012510E+03</pdfrwt>
<totfact> 0.19443822E+01</totfact>
</mgrwt>
</event>
<event>
 5    1  0.6729100E-004  0.3499192E+03  0.7818608E-02  0.1062648E+00
         11   -1    0    0    0    0  0.00000000000E+00  0.00000000000E+00  0.10002430389E+04  0.10002430389E+04  0.51100000000E-03 0. -1.
          2   -1    0    0  501    0 -0.00000000000E+00 -0.00000000000E+00 -0.14253105503E+03  0.14253105505E+03  0.25500000000E-02 0. -1.
         11    1    1    2    0    0 -0.33865998060E+03  0.11735953745E+03  0.32965101890E+03  0.48696369243E+03  0.51100000000E-03 0. -1.
         22    1    1    2    0    0  0.56760229181E+01 -0.44121400414E+02  0.92824183780E+02  0.10293320312E+03  0.00000000000E+00 0.  1.
          2    1    1    2  501    0  0.33298395768E+03 -0.73238137034E+02  0.43523678121E+03  0.55287719840E+03  0.25500000000E-02 0. -1.
<mgrwt>
<rscale>  0 0.34991918E+03</rscale>
<asrwt>0</asrwt>
<pdfrwt beam="1">  1       11 0.10000000E+01 0.44485000E+02</pdfrwt>
<pdfrwt beam="2">  1        2 0.21933183E-01 0.34991918E+03</pdfrwt>
<totfact> 0.31025806E+02</totfact>
</mgrwt>
</event>
<event>
 5    1  0.6729100E-004  0.1284757E+03  0.7818608E-02  0.1229735E+00
         11   -1    0    0    0    0  0.00000000000E+00  0.00000000000E+00  0.10001511990E+04  0.10001511990E+04  0.51100000000E-03 0. -1.
          2   -1    0    0  501    0 -0.00000000000E+00 -0.00000000000E+00 -0.16461160989E+03  0.16461160991E+03  0.25500000000E-02 0. -1.
         11    1    1    2    0    0 -0.18430556221E+03  0.30043071211E+02  0.53318698013E+03  0.56494201665E+03  0.51100000000E-03 0. -1.
         22    1    1    2    0    0  0.58833185777E+02 -0.39602013788E+02  0.42096325154E+03  0.42689544668E+03  0.00000000000E+00 0.  1.
          2    1    1    2  501    0  0.12547237643E+03  0.95589425765E+01 -0.11861064253E+03  0.17292534562E+03  0.25500000000E-02 0. -1.
<mgrwt>
<rscale>  0 0.12847569E+03</rscale>
<asrwt>0</asrwt>
<pdfrwt beam="1">  1       11 0.10000000E+01 0.70920119E+02</pdfrwt>
<pdfrwt beam="2">  1        2 0.25328691E-01 0.12847569E+03</pdfrwt>
<totfact> 0.25778499E+02</totfact>
</mgrwt>
</event>
<event>
 5    1  0.6729100E-004  0.1349660E+03  0.7818608E-02  0.1220268E+00
         11   -1    0    0    0    0  0.00000000000E+00  0.00000000000E+00  0.10001070907E+04  0.10001070907E+04  0.51100000000E-03 0. -1.
          2   -1    0    0  501    0 -0.00000000000E+00 -0.00000000000E+00 -0.52529638704E+02  0.52529638766E+02  0.25500000000E-02 0. -1.
         11    1    1    2    0    0 -0.35213832502E+02  0.68345573277E+02  0.20477788097E+02  0.79564258255E+02  0.51100000000E-03 0. -1.
         22    1    1    2    0    0  0.12809232052E+03  0.39817051908E+02  0.62209684087E+03  0.63639415429E+03  0.00000000000E+00 0. -1.
          2    1    1    2  501    0 -0.92878488016E+02 -0.10816262518E+03  0.30500282307E+03  0.33667831696E+03  0.25500000000E-02 0. -1.
<mgrwt>
<rscale>  0 0.13496600E+03</rscale>
<asrwt>0</asrwt>
<pdfrwt beam="1">  1       11 0.10000000E+01 0.76883921E+02</pdfrwt>
<pdfrwt beam="2">  1        2 0.80823481E-02 0.13496600E+03</pdfrwt>
<totfact> 0.99027517E+02</totfact>
</mgrwt>
</event>
<event>
 5    1  0.6729100E-004  0.1523640E+03  0.7818608E-02  0.1197598E+00
         11   -1    0    0    0    0  0.00000000000E+00  0.00000000000E+00  0.10001601687E+04  0.10001601687E+04  0.51100000000E-03 0.  1.
          2   -1    0    0  501    0 -0.00000000000E+00 -0.00000000000E+00 -0.40357575850E+02  0.40357575930E+02  0.25500000000E-02 0.  1.
         11    1    1    2    0    0 -0.14112941811E+03 -0.88984458905E+02  0.63354897511E+03  0.65514887655E+03  0.51100000000E-03 0.  1.
         22    1    1    2    0    0  0.27789221549E+02 -0.67419570460E+01  0.16004732454E+03  0.16258179760E+03  0.00000000000E+00 0. -1.
          2    1    1    2  501    0  0.11334019656E+03  0.95726415951E+02  0.16620629321E+03  0.22278707049E+03  0.25500000000E-02 0.  1.
<mgrwt>
<rscale>  0 0.15236400E+03</rscale>
<asrwt>0</asrwt>
<pdfrwt beam="1">  1       11 0.10000000E+01 0.28595364E+02</pdfrwt>
<pdfrwt beam="2">  1        2 0.62098521E-02 0.15236400E+03</pdfrwt>
<totfact> 0.13958948E+03</totfact>
</mgrwt>
</event>
<event>
 5    1  0.6729100E-004  0.2554566E+03  0.7818608E-02  0.1109904E+00
         11   -1    0    0    0    0  0.00000000000E+00  0.00000000000E+00  0.10012982374E+04  0.10012982374E+04  0.51100000000E-03 0. -1.
          2   -1    0    0  501    0 -0.00000000000E+00 -0.00000000000E+00 -0.12844936985E+04  0.12844936985E+04  0.25500000000E-02 0. -1.
         11    1    1    2    0    0  0.26036014154E+03  0.77794852266E+02  0.89640938441E+03  0.93669057154E+03  0.51100000000E-03 0. -1.
         22    1    1    2    0    0 -0.21708004543E+02  0.12710478335E+02  0.69642527997E+02  0.74046441012E+02  0.00000000000E+00 0.  1.
          2    1    1    2  501    0 -0.23865213700E+03 -0.90505330600E+02 -0.12492473735E+04  0.12750549233E+04  0.25500000000E-02 0. -1.
<mgrwt>
<rscale>  0 0.25545662E+03</rscale>
<asrwt>0</asrwt>
<pdfrwt beam="1">  1       11 0.10000000E+01 0.25155391E+02</pdfrwt>
<pdfrwt beam="2">  1        2 0.19787096E+00 0.25545662E+03</pdfrwt>
<totfact> 0.22464113E+01</totfact>
</mgrwt>
</event>
<event>
 5    1  0.6729100E-004  0.8224987E+02  0.7818608E-02  0.1322785E+00
         11   -1    0    0    0    0  0.00000000000E+00  0.00000000000E+00  0.10000028820E+04  0.10000028820E+04  0.51100000000E-03 0.  1.
          2   -1    0    0  501    0 -0.00000000000E+00 -0.00000000000E+00 -0.12634793457E+02  0.12634793714E+02  0.25500000000E-02 0.  1.
         11    1    1    2    0    0 -0.16142702331E+01  0.78731417693E+02  0.17117475270E+03  0.18841984493E+03  0.51100000000E-03 0.  1.
         22    1    1    2    0    0  0.50653933181E+01  0.17435109959E+02  0.10774584250E+03  0.10926485183E+03  0.00000000000E+00 0. -1.
          2    1    1    2  501    0 -0.34511230850E+01 -0.96166527652E+02  0.70844749331E+03  0.71495297892E+03  0.25500000000E-02 0.  1.
<mgrwt>
<rscale>  0 0.82249868E+02</rscale>
<asrwt>0</asrwt>
<pdfrwt beam="1">  1       11 0.10000000E+01 0.18156026E+02</pdfrwt>
<pdfrwt beam="2">  1        2 0.19438199E-02 0.82249868E+02</pdfrwt>
<totfact> 0.60998072E+03</totfact>
</mgrwt>
</event>
<event>
 5    1  0.6729100E-004  0.1346110E+03  0.7818608E-02  0.1224259E+00
         11   -1    0    0    0    0  0.00000000000E+00  0.00000000000E+00  0.10005612735E+04  0.10005612735E+04  0.51100000000E-03 0. -1.
          2   -1    0    0  501    0 -0.00000000000E+00 -0.00000000000E+00 -0.18038388947E+02  0.18038389127E+02  0.25500000000E-02 0. -1.
         11    1    1    2    0    0 -0.53883237186E+02 -0.11003626459E+03  0.38470613549E+03  0.40374520858E+03  0.51100000000E-03 0. -1.
         22    1    1    2    0    0 -0.10077173737E+02 -0.56363822625E+01  0.50509941411E+02  0.51812859570E+02  0.00000000000E+00 0. -1.
          2    1    1    2  501    0  0.63960410922E+02  0.11567264685E+03  0.54730680769E+03  0.56304159451E+03  0.25500000000E-02 0. -1.
<mgrwt>
<rscale>  0 0.13217827E+03</rscale>
<asrwt>0</asrwt>
<pdfrwt beam="1">  1       11 0.10000000E+01 0.13461099E+03</pdfrwt>
<pdfrwt beam="2">  1        2 0.27766943E-02 0.13217827E+03</pdfrwt>
<totfact> 0.39928586E+03</totfact>
</mgrwt>
</event>
<event>
 5    1  0.6729100E-004  0.3040962E+03  0.7818608E-02  0.1083211E+00
         11   -1    0    0    0    0  0.00000000000E+00  0.00000000000E+00  0.99972527782E+03  0.99972527782E+03  0.51100000000E-03 0. -1.
          2   -1    0    0  501    0 -0.00000000000E+00 -0.00000000000E+00 -0.29078547744E+03  0.29078547745E+03  0.25500000000E-02 0. -1.
         11    1    1    2    0    0 -0.16824107772E+03  0.18278555754E+03  0.42452237978E+03  0.49186875405E+03  0.51100000000E-03 0. -1.
         22    1    1    2    0    0 -0.86260894243E+02  0.61686709108E+01  0.43797233945E+03  0.44642890196E+03  0.00000000000E+00 0.  1.
          2    1    1    2  501    0  0.25450197196E+03 -0.18895422846E+03 -0.15355491885E+03  0.35221309926E+03  0.25500000000E-02 0. -1.
<mgrwt>
<rscale>  0 0.30409618E+03</rscale>
<asrwt>0</asrwt>
<pdfrwt beam="1">  1       11 0.10000000E+01 0.86481179E+02</pdfrwt>
<pdfrwt beam="2">  1        2 0.44723936E-01 0.30409618E+03</pdfrwt>
<totfact> 0.14044746E+02</totfact>
</mgrwt>
</event>
<event>
 5    1  0.6729100E-004  0.1965944E+03  0.7818608E-02  0.1152645E+00
         11   -1    0    0    0    0  0.00000000000E+00  0.00000000000E+00  0.99981127892E+03  0.99981127892E+03  0.51100000000E-03 0. -1.
          2   -1    0    0  501    0 -0.00000000000E+00 -0.00000000000E+00 -0.92023708214E+03  0.92023708214E+03  0.25500000000E-02 0. -1.
         11    1    1    2    0    0 -0.13595924490E+03  0.15417825576E+03  0.85318474737E+03  0.87759903371E+03  0.51100000000E-03 0. -1.
         22    1    1    2    0    0 -0.19865019545E+02 -0.34416297006E+02  0.12055769303E+03  0.12693800790E+03  0.00000000000E+00 0.  1.
          2    1    1    2  501    0  0.15582426445E+03 -0.11976195876E+03 -0.89416824362E+03  0.91551131946E+03  0.25500000000E-02 0. -1.
<mgrwt>
<rscale>  0 0.19659442E+03</rscale>
<asrwt>0</asrwt>
<pdfrwt beam="1">  1       11 0.10000000E+01 0.39737898E+02</pdfrwt>
<pdfrwt beam="2">  1        2 0.14154821E+00 0.19659442E+03</pdfrwt>
<totfact> 0.37386104E+01</totfact>
</mgrwt>
</event>
<event>
 5    1  0.6729100E-004  0.1570963E+03  0.7818608E-02  0.1219268E+00
         11   -1    0    0    0    0  0.00000000000E+00  0.00000000000E+00  0.10003968548E+04  0.10003968548E+04  0.51100000000E-03 0. -1.
          2   -1    0    0  501    0 -0.00000000000E+00 -0.00000000000E+00 -0.15300802959E+03  0.15300802961E+03  0.25500000000E-02 0. -1.
         11    1    1    2    0    0 -0.12387987972E+03  0.17880352383E+03  0.50098502635E+03  0.54617114659E+03  0.51100000000E-03 0. -1.
         22    1    1    2    0    0 -0.60663179725E+01 -0.13978961702E+03  0.42705725154E+03  0.44939496363E+03  0.00000000000E+00 0. -1.
          2    1    1    2  501    0  0.12994619770E+03 -0.39013906812E+02 -0.80653452641E+02  0.15783877423E+03  0.25500000000E-02 0. -1.
<mgrwt>
<rscale>  0 0.13567645E+03</rscale>
<asrwt>0</asrwt>
<pdfrwt beam="1">  1       11 0.10000000E+01 0.15709625E+03</pdfrwt>
<pdfrwt beam="2">  1        2 0.23549038E-01 0.13567645E+03</pdfrwt>
<totfact> 0.27979779E+02</totfact>
</mgrwt>
</event>
<event>
 5    1  0.6729100E-004  0.1044957E+03  0.7818608E-02  0.1271116E+00
         11   -1    0    0    0    0  0.00000000000E+00  0.00000000000E+00  0.10001140930E+04  0.10001140930E+04  0.51100000000E-03 0. -1.
          2   -1    0    0  501    0 -0.00000000000E+00 -0.00000000000E+00 -0.16535372480E+02  0.16535372677E+02  0.25500000000E-02 0. -1.
         11    1    1    2    0    0  0.10080022042E+03 -0.53629232722E+02  0.68301760369E+03  0.69249536171E+03  0.51100000000E-03 0. -1.
         22    1    1    2    0    0 -0.15095386062E+02 -0.40058402344E+00  0.80323315818E+02  0.81730448499E+02  0.00000000000E+00 0.  1.
          2    1    1    2  501    0 -0.85704834353E+02  0.54029816745E+02  0.22023780100E+03  0.24242365546E+03  0.25500000000E-02 0. -1.
<mgrwt>
<rscale>  0 0.10449571E+03</rscale>
<asrwt>0</asrwt>
<pdfrwt beam="1">  1       11 0.10000000E+01 0.15100700E+02</pdfrwt>
<pdfrwt beam="2">  1        2 0.25441936E-02 0.10449571E+03</pdfrwt>
<totfact> 0.43761841E+03</totfact>
</mgrwt>
</event>
<event>
 5    1  0.6729100E-004  0.4211974E+03  0.7818608E-02  0.1036677E+00
         11   -1    0    0    0    0  0.00000000000E+00  0.00000000000E+00  0.10001631105E+04  0.10001631105E+04  0.51100000000E-03 0. -1.
          2   -1    0    0  501    0 -0.00000000000E+00 -0.00000000000E+00 -0.10163455249E+04  0.10163455249E+04  0.25500000000E-02 0. -1.
         11    1    1    2    0    0 -0.27891939852E+03 -0.25421184894E+03  0.62985940143E+03  0.73426327743E+03  0.51100000000E-03 0. -1.
         22    1    1    2    0    0 -0.47503672813E+02 -0.16745044197E+02  0.26898505560E+03  0.27366029228E+03  0.00000000000E+00 0. -1.
          2    1    1    2  501    0  0.32642307133E+03  0.27095689314E+03 -0.91502687140E+03  0.10085850657E+04  0.25500000000E-02 0. -1.
<mgrwt>
<rscale>  0 0.42119736E+03</rscale>
<asrwt>0</asrwt>
<pdfrwt beam="1">  1       11 0.10000000E+01 0.50368596E+02</pdfrwt>
<pdfrwt beam="2">  1        2 0.15638635E+00 0.42119736E+03</pdfrwt>
<totfact> 0.31415322E+01</totfact>
</mgrwt>
</event>
<event>
 5    1  0.6729100E-004  0.3286739E+03  0.7818608E-02  0.1071725E+00
         11   -1    0    0    0    0  0.00000000000E+00  0.00000000000E+00  0.10003921494E+04  0.10003921494E+04  0.51100000000E-03 0. -1.
          2   -1    0    0  501    0 -0.00000000000E+00 -0.00000000000E+00 -0.16153285422E+03  0.16153285424E+03  0.25500000000E-02 0. -1.
         11    1    1    2    0    0  0.16996810926E+03 -0.24629446616E+03  0.22842797101E+03  0.37646973340E+03  0.51100000000E-03 0. -1.
         22    1    1    2    0    0  0.32854575793E+02 -0.61100032253E+02  0.28716302104E+03  0.29542382732E+03  0.00000000000E+00 0. -1.
          2    1    1    2  501    0 -0.20282268505E+03  0.30739449841E+03  0.32326830310E+03  0.49003144289E+03  0.25500000000E-02 0. -1.
<mgrwt>
<rscale>  0 0.32867389E+03</rscale>
<asrwt>0</asrwt>
<pdfrwt beam="1">  1       11 0.10000000E+01 0.69373173E+02</pdfrwt>
<pdfrwt beam="2">  1        2 0.24860953E-01 0.32867389E+03</pdfrwt>
<totfact> 0.26865437E+02</totfact>
</mgrwt>
</event>
<event>
 5    1  0.6729100E-004  0.1080854E+03  0.7818608E-02  0.1264157E+00
         11   -1    0    0    0    0  0.00000000000E+00  0.00000000000E+00  0.99983625318E+03  0.99983625318E+03  0.51100000000E-03 0.  1.
          2   -1    0    0  501    0 -0.00000000000E+00 -0.00000000000E+00 -0.25281669885E+03  0.25281669886E+03  0.25500000000E-02 0.  1.
         11    1    1    2    0    0 -0.53296545671E+02  0.13035846686E+03  0.83325701413E+03  0.84507461402E+03  0.51100000000E-03 0.  1.
         22    1    1    2    0    0 -0.40166490587E+01 -0.39231479572E+02  0.14619809579E+03  0.15142366285E+03  0.00000000000E+00 0.  1.
          2    1    1    2  501    0  0.57313194729E+02 -0.91126987284E+02 -0.23243555559E+03  0.25615467517E+03  0.25500000000E-02 0.  1.
<mgrwt>
<rscale>  0 0.10808541E+03</rscale>
<asrwt>0</asrwt>
<pdfrwt beam="1">  1       11 0.10000000E+01 0.39436562E+02</pdfrwt>
<pdfrwt beam="2">  1        2 0.38888507E-01 0.10808541E+03</pdfrwt>
<totfact> 0.16200128E+02</totfact>
</mgrwt>
</event>
<event>
 5    1  0.6729100E-004  0.1056787E+03  0.7818608E-02  0.1268788E+00
         11   -1    0    0    0    0  0.00000000000E+00  0.00000000000E+00  0.99987935095E+03  0.99987935095E+03  0.51100000000E-03 0. -1.
          2   -1    0    0  501    0 -0.00000000000E+00 -0.00000000000E+00 -0.13926848574E+02  0.13926848807E+02  0.25500000000E-02 0. -1.
         11    1    1    2    0    0  0.10471030878E+03 -0.20001731718E+02  0.45057127021E+03  0.46301056961E+03  0.51100000000E-03 0. -1.
         22    1    1    2    0    0  0.12475304532E+01  0.22687825698E+02  0.11790670407E+03  0.12007616180E+03  0.00000000000E+00 0. -1.
          2    1    1    2  501    0 -0.10595783923E+03 -0.26860939804E+01  0.41747452810E+03  0.43071946835E+03  0.25500000000E-02 0. -1.
<mgrwt>
<rscale>  0 0.10567871E+03</rscale>
<asrwt>0</asrwt>
<pdfrwt beam="1">  1       11 0.10000000E+01 0.22722099E+02</pdfrwt>
<pdfrwt beam="2">  1        2 0.21423335E-02 0.10567871E+03</pdfrwt>
<totfact> 0.55243910E+03</totfact>
</mgrwt>
</event>
<event>
 5    1  0.6729100E-004  0.6670132E+02  0.7818608E-02  0.1442617E+00
         11   -1    0    0    0    0  0.00000000000E+00  0.00000000000E+00  0.10002195642E+04  0.10002195642E+04  0.51100000000E-03 0. -1.
          2   -1    0    0  501    0 -0.00000000000E+00 -0.00000000000E+00 -0.12580276948E+02  0.12580277206E+02  0.25500000000E-02 0. -1.
         11    1    1    2    0    0 -0.14598400901E+02 -0.77986757935E+02  0.21537607095E+03  0.22952537912E+03  0.51100000000E-03 0. -1.
         22    1    1    2    0    0 -0.31534333508E+02  0.57422230813E+02  0.24533656713E+03  0.25393258545E+03  0.00000000000E+00 0. -1.
          2    1    1    2  501    0  0.46132734409E+02  0.20564527123E+02  0.52692664917E+03  0.52934187683E+03  0.25500000000E-02 0. -1.
<mgrwt>
<rscale>  0 0.50508702E+02</rscale>
<asrwt>0</asrwt>
<pdfrwt beam="1">  1       11 0.10000000E+01 0.66701325E+02</pdfrwt>
<pdfrwt beam="2">  1        2 0.19358521E-02 0.50508702E+02</pdfrwt>
<totfact> 0.57219628E+03</totfact>
</mgrwt>
</event>
<event>
 5    1  0.6729100E-004  0.1444810E+03  0.7818608E-02  0.1207423E+00
         11   -1    0    0    0    0  0.00000000000E+00  0.00000000000E+00  0.10004076021E+04  0.10004076021E+04  0.51100000000E-03 0. -1.
          2   -1    0    0  501    0 -0.00000000000E+00 -0.00000000000E+00 -0.83954355893E+02  0.83954355932E+02  0.25500000000E-02 0. -1.
         11    1    1    2    0    0 -0.80011435394E+02  0.11526580335E+03  0.61618902741E+03  0.63196277795E+03  0.51100000000E-03 0. -1.
         22    1    1    2    0    0 -0.72636719863E+02 -0.10890383001E+03  0.26504817773E+03  0.29561237082E+03  0.00000000000E+00 0.  1.
          2    1    1    2  501    0  0.15264815526E+03 -0.63619733452E+01  0.35216041086E+02  0.15678680928E+03  0.25500000000E-02 0. -1.
<mgrwt>
<rscale>  0 0.14448104E+03</rscale>
<asrwt>0</asrwt>
<pdfrwt beam="1">  1       11 0.10000000E+01 0.13090507E+03</pdfrwt>
<pdfrwt beam="2">  1        2 0.12921319E-01 0.14448104E+03</pdfrwt>
<totfact> 0.55956448E+02</totfact>
</mgrwt>
</event>
<event>
 5    1  0.6729100E-004  0.1862874E+03  0.7818608E-02  0.1166824E+00
         11   -1    0    0    0    0  0.00000000000E+00  0.00000000000E+00  0.10001762166E+04  0.10001762166E+04  0.51100000000E-03 0.  1.
          2   -1    0    0  501    0 -0.00000000000E+00 -0.00000000000E+00 -0.20083458494E+03  0.20083458495E+03  0.25500000000E-02 0.  1.
         11    1    1    2    0    0 -0.10020741181E+03 -0.10029858124E+03  0.71065957844E+03  0.72466431346E+03  0.51100000000E-03 0.  1.
         22    1    1    2    0    0 -0.43289567642E+02 -0.10042027866E+02  0.23774039154E+03  0.24185806325E+03  0.00000000000E+00 0.  1.
          2    1    1    2  501    0  0.14349697945E+03  0.11034060910E+03 -0.14905833835E+03  0.23448842481E+03  0.25500000000E-02 0.  1.
<mgrwt>
<rscale>  0 0.18101501E+03</rscale>
<asrwt>0</asrwt>
<pdfrwt beam="1">  1       11 0.10000000E+01 0.18628742E+03</pdfrwt>
<pdfrwt beam="2">  1        2 0.30903072E-01 0.18101501E+03</pdfrwt>
<totfact> 0.20883952E+02</totfact>
</mgrwt>
</event>
<event>
 5    1  0.6729100E-004  0.2283214E+03  0.7818608E-02  0.1232102E+00
         11   -1    0    0    0    0  0.00000000000E+00  0.00000000000E+00  0.10002653755E+04  0.10002653755E+04  0.51100000000E-03 0.  1.
          2   -1    0    0  501    0 -0.00000000000E+00 -0.00000000000E+00 -0.29696897202E+03  0.29696897203E+03  0.25500000000E-02 0.  1.
         11    1    1    2    0    0  0.21506174914E+03 -0.18659016724E+03  0.75703588907E+03  0.80880824909E+03  0.51100000000E-03 0.  1.
         22    1    1    2    0    0 -0.10941992217E+03  0.11624855107E+03  0.16873920555E+03  0.23229155060E+03  0.00000000000E+00 0.  1.
          2    1    1    2  501    0 -0.10564182697E+03  0.70341616175E+02 -0.22247869115E+03  0.25613454783E+03  0.25500000000E-02 0.  1.
<mgrwt>
<rscale>  0 0.12691784E+03</rscale>
<asrwt>0</asrwt>
<pdfrwt beam="1">  1       11 0.10000000E+01 0.22832143E+03</pdfrwt>
<pdfrwt beam="2">  1        2 0.45699657E-01 0.12691784E+03</pdfrwt>
<totfact> 0.13681084E+02</totfact>
</mgrwt>
</event>
<event>
 5    1  0.6729100E-004  0.2386975E+03  0.7818608E-02  0.1120664E+00
         11   -1    0    0    0    0  0.00000000000E+00  0.00000000000E+00  0.99995188953E+03  0.99995188953E+03  0.51100000000E-03 0. -1.
          2   -1    0    0  501    0 -0.00000000000E+00 -0.00000000000E+00 -0.83581723300E+02  0.83581723339E+02  0.25500000000E-02 0. -1.
         11    1    1    2    0    0 -0.73725581120E+02  0.21571958187E+03  0.19708121928E+03  0.30134930946E+03  0.51100000000E-03 0. -1.
         22    1    1    2    0    0  0.61833827752E+00  0.40513732544E+02  0.10772651700E+03  0.11509451478E+03  0.00000000000E+00 0. -1.
          2    1    1    2  501    0  0.73107242842E+02 -0.25623331442E+03  0.61156242995E+03  0.66708978864E+03  0.25500000000E-02 0. -1.
<mgrwt>
<rscale>  0 0.23869749E+03</rscale>
<asrwt>0</asrwt>
<pdfrwt beam="1">  1       11 0.10000000E+01 0.40518451E+02</pdfrwt>
<pdfrwt beam="2">  1        2 0.12858108E-01 0.23869749E+03</pdfrwt>
<totfact> 0.57538155E+02</totfact>
</mgrwt>
</event>
<event>
 5    1  0.6729100E-004  0.2233682E+03  0.7818608E-02  0.1605965E+00
         11   -1    0    0    0    0  0.00000000000E+00  0.00000000000E+00  0.10002543003E+04  0.10002543003E+04  0.51100000000E-03 0. -1.
         -2   -1    0    0    0  501 -0.00000000000E+00 -0.00000000000E+00 -0.24729125161E+03  0.24729125163E+03  0.25500000000E-02 0. -1.
         11    1    1    2    0    0 -0.15019754835E+03 -0.18417272247E+03  0.39770472621E+03  0.46330113801E+03  0.51100000000E-03 0. -1.
         22    1    1    2    0    0  0.12180195347E+03  0.17695191621E+03  0.54835788255E+03  0.58893468557E+03  0.00000000000E+00 0. -1.
         -2    1    1    2    0  501  0.28395594877E+02  0.72208062646E+01 -0.19309956011E+03  0.19530972831E+03  0.25500000000E-02 0. -1.
<mgrwt>
<rscale>  0 0.29299315E+02</rscale>
<asrwt>0</asrwt>
<pdfrwt beam="1">  1       11 0.10000000E+01 0.22336816E+03</pdfrwt>
<pdfrwt beam="2">  1       -2 0.38054482E-01 0.29299315E+02</pdfrwt>
<totfact> 0.51325019E+01</totfact>
</mgrwt>
</event>
<event>
 5    1  0.6729100E-004  0.1009661E+03  0.7818608E-02  0.1437166E+00
         11   -1    0    0    0    0  0.00000000000E+00  0.00000000000E+00  0.10003218346E+04  0.10003218346E+04  0.51100000000E-03 0. -1.
         -2   -1    0    0    0  501 -0.00000000000E+00 -0.00000000000E+00 -0.67282071207E+02  0.67282071255E+02  0.25500000000E-02 0.  1.
         11    1    1    2    0    0 -0.13592664402E+02 -0.85817982643E+02  0.30995293046E+03  0.32190108072E+03  0.51100000000E-03 0. -1.
         22    1    1    2    0    0 -0.30265216265E+02  0.11290471610E+03  0.66750192899E+03  0.67765941551E+03  0.00000000000E+00 0. -1.
         -2    1    1    2    0  501  0.43857880667E+02 -0.27086733462E+02 -0.44415096063E+02  0.68043409607E+02  0.25500000000E-02 0.  1.
<mgrwt>
<rscale>  0 0.51548083E+02</rscale>
<asrwt>0</asrwt>
<pdfrwt beam="1">  1       11 0.10000000E+01 0.10096614E+03</pdfrwt>
<pdfrwt beam="2">  1       -2 0.10354419E-01 0.51548083E+02</pdfrwt>
<totfact> 0.45207148E+02</totfact>
</mgrwt>
</event>
<event>
 5    1  0.6729100E-004  0.1047676E+03  0.7818608E-02  0.1270578E+00
         11   -1    0    0    0    0  0.00000000000E+00  0.00000000000E+00  0.10001886400E+04  0.10001886400E+04  0.51100000000E-03 0.  1.
          2   -1    0    0  501    0 -0.00000000000E+00 -0.00000000000E+00 -0.80938654513E+02  0.80938654553E+02  0.25500000000E-02 0. -1.
         11    1    1    2    0    0 -0.11171558426E+03  0.12613962095E+02  0.36471842482E+03  0.38165300105E+03  0.51100000000E-03 0.  1.
         22    1    1    2    0    0  0.35410872767E+02 -0.89540557422E+02  0.58019013439E+03  0.58812586525E+03  0.00000000000E+00 0.  1.
          2    1    1    2  501    0  0.76304711494E+02  0.76926595327E+02 -0.25658573715E+02  0.11134842826E+03  0.25500000000E-02 0. -1.
<mgrwt>
<rscale>  0 0.10476757E+03</rscale>
<asrwt>0</asrwt>
<pdfrwt beam="1">  1       11 0.10000000E+01 0.96288324E+02</pdfrwt>
<pdfrwt beam="2">  1        2 0.12454449E-01 0.10476757E+03</pdfrwt>
<totfact> 0.57538956E+02</totfact>
</mgrwt>
</event>
<event>
 5    1  0.6729100E-004  0.1880571E+03  0.7818608E-02  0.1160225E+00
         11   -1    0    0    0    0  0.00000000000E+00  0.00000000000E+00  0.10001591014E+04  0.10001591014E+04  0.51100000000E-03 0. -1.
         -2   -1    0    0    0  501 -0.00000000000E+00 -0.00000000000E+00 -0.27976148448E+03  0.27976148450E+03  0.25500000000E-02 0.  1.
         11    1    1    2    0    0 -0.16761799343E+03 -0.68702015938E+02  0.94049535536E+03  0.95778247643E+03  0.51100000000E-03 0. -1.
         22    1    1    2    0    0 -0.94865231815E+01  0.47366926598E+01  0.16586723308E+02  0.19686283791E+02  0.00000000000E+00 0. -1.
         -2    1    1    2    0  501  0.17710451661E+03  0.63965323278E+02 -0.23668446177E+03  0.30245182565E+03  0.25500000000E-02 0.  1.
<mgrwt>
<rscale>  0 0.18805709E+03</rscale>
<asrwt>0</asrwt>
<pdfrwt beam="1">  1       11 0.10000000E+01 0.10603319E+02</pdfrwt>
<pdfrwt beam="2">  1       -2 0.43047075E-01 0.18805709E+03</pdfrwt>
<totfact> 0.41778689E+01</totfact>
</mgrwt>
</event>
<event>
 5    1  0.6729100E-004  0.1343824E+03  0.7818608E-02  0.1221094E+00
         11   -1    0    0    0    0  0.00000000000E+00  0.00000000000E+00  0.10003730382E+04  0.10003730382E+04  0.51100000000E-03 0.  1.
          2   -1    0    0  501    0 -0.00000000000E+00 -0.00000000000E+00 -0.78363907533E+02  0.78363907575E+02  0.25500000000E-02 0.  1.
         11    1    1    2    0    0  0.11269499781E+03  0.10309436963E+03  0.86783212322E+03  0.88117036132E+03  0.51100000000E-03 0.  1.
         22    1    1    2    0    0 -0.19773680620E+02 -0.78416730506E+01  0.60718240552E+02  0.64336576045E+02  0.00000000000E+00 0. -1.
          2    1    1    2  501    0 -0.92921317186E+02 -0.95252696583E+02 -0.65412331379E+01  0.13323000837E+03  0.25500000000E-02 0.  1.
<mgrwt>
<rscale>  0 0.13438235E+03</rscale>
<asrwt>0</asrwt>
<pdfrwt beam="1">  1       11 0.10000000E+01 0.21271819E+02</pdfrwt>
<pdfrwt beam="2">  1        2 0.12060483E-01 0.13438235E+03</pdfrwt>
<totfact> 0.60561922E+02</totfact>
</mgrwt>
</event>
<event>
 5    1  0.6729100E-004  0.1262134E+03  0.7818608E-02  0.1233185E+00
         11   -1    0    0    0    0  0.00000000000E+00  0.00000000000E+00  0.10003205397E+04  0.10003205397E+04  0.51100000000E-03 0. -1.
          2   -1    0    0  501    0 -0.00000000000E+00 -0.00000000000E+00 -0.28653933962E+02  0.28653934076E+02  0.25500000000E-02 0. -1.
         11    1    1    2    0    0  0.19385216302E+02  0.12200050309E+03  0.13558809640E+03  0.18342312082E+03  0.51100000000E-03 0. -1.
         22    1    1    2    0    0  0.40654493400E+01 -0.10972554242E+02  0.51758155694E+02  0.53064409030E+02  0.00000000000E+00 0.  1.
          2    1    1    2  501    0 -0.23450665642E+02 -0.11102794885E+03  0.78432035369E+03  0.79248694397E+03  0.25500000000E-02 0. -1.
<mgrwt>
<rscale>  0 0.12621338E+03</rscale>
<asrwt>0</asrwt>
<pdfrwt beam="1">  1       11 0.10000000E+01 0.12353107E+03</pdfrwt>
<pdfrwt beam="2">  1        2 0.44097104E-02 0.12621338E+03</pdfrwt>
<totfact> 0.21469343E+03</totfact>
</mgrwt>
</event>
<event>
 5    1  0.6729100E-004  0.3151229E+03  0.7818608E-02  0.1078824E+00
         11   -1    0    0    0    0  0.00000000000E+00  0.00000000000E+00  0.10003320044E+04  0.10003320044E+04  0.51100000000E-03 0.  1.
          2   -1    0    0  501    0 -0.00000000000E+00 -0.00000000000E+00 -0.22121214189E+03  0.22121214191E+03  0.25500000000E-02 0.  1.
         11    1    1    2    0    0  0.65376388074E+02  0.29341694190E+03  0.82448842332E+03  0.87758118376E+03  0.51100000000E-03 0.  1.
         22    1    1    2    0    0  0.56124409496E+01  0.11627823821E+02  0.20203086406E+02  0.23976456797E+02  0.00000000000E+00 0. -1.
          2    1    1    2  501    0 -0.70988829024E+02 -0.30504476572E+03 -0.65571647212E+02  0.31998650575E+03  0.25500000000E-02 0.  1.
<mgrwt>
<rscale>  0 0.31319598E+03</rscale>
<asrwt>0</asrwt>
<pdfrwt beam="1">  1       11 0.10000000E+01 0.31512289E+03</pdfrwt>
<pdfrwt beam="2">  1        2 0.34043935E-01 0.31319598E+03</pdfrwt>
<totfact> 0.18918798E+02</totfact>
</mgrwt>
</event>
<event>
 5    1  0.6729100E-004  0.3026775E+03  0.7818608E-02  0.1252744E+00
         11   -1    0    0    0    0  0.00000000000E+00  0.00000000000E+00  0.10001603024E+04  0.10001603024E+04  0.51100000000E-03 0. -1.
          2   -1    0    0  501    0 -0.00000000000E+00 -0.00000000000E+00 -0.19371236625E+03  0.19371236627E+03  0.25500000000E-02 0. -1.
         11    1    1    2    0    0  0.24216398090E+03  0.23592203692E+03  0.37104516840E+02  0.34011666574E+03  0.51100000000E-03 0. -1.
         22    1    1    2    0    0 -0.36840195574E+02 -0.22543966905E+02  0.19172807199E+02  0.47254914979E+02  0.00000000000E+00 0. -1.
          2    1    1    2  501    0 -0.20532378532E+03 -0.21337807001E+03  0.75017061210E+03  0.80650108794E+03  0.25500000000E-02 0. -1.
<mgrwt>
<rscale>  0 0.11433645E+03</rscale>
<asrwt>0</asrwt>
<pdfrwt beam="1">  1       11 0.10000000E+01 0.30267748E+03</pdfrwt>
<pdfrwt beam="2">  1        2 0.29806679E-01 0.11433645E+03</pdfrwt>
<totfact> 0.21533953E+02</totfact>
</mgrwt>
</event>
<event>
 5    1  0.6729100E-004  0.3625056E+03  0.7818608E-02  0.1057596E+00
         11   -1    0    0    0    0  0.00000000000E+00  0.00000000000E+00  0.99987557443E+03  0.99987557443E+03  0.51100000000E-03 0.  1.
          2   -1    0    0  501    0 -0.00000000000E+00 -0.00000000000E+00 -0.11307890747E+04  0.11307890747E+04  0.25500000000E-02 0.  1.
         11    1    1    2    0    0  0.22515181649E+03 -0.28211733731E+03 -0.10454020868E+04  0.11059606935E+04  0.51100000000E-03 0.  1.
         22    1    1    2    0    0  0.43541450131E+02 -0.18466393209E+02  0.18782919545E+03  0.19369221002E+03  0.00000000000E+00 0.  1.
          2    1    1    2  501    0 -0.26869326662E+03  0.30058373051E+03  0.72665939112E+03  0.83101174558E+03  0.25500000000E-02 0.  1.
<mgrwt>
<rscale>  0 0.36250563E+03</rscale>
<asrwt>0</asrwt>
<pdfrwt beam="1">  1       11 0.10000000E+01 0.47295513E+02</pdfrwt>
<pdfrwt beam="2">  1        2 0.17394590E+00 0.36250563E+03</pdfrwt>
<totfact> 0.27007213E+01</totfact>
</mgrwt>
</event>
<event>
 5    1  0.6729100E-004  0.2559752E+03  0.7818608E-02  0.1109586E+00
         11   -1    0    0    0    0  0.00000000000E+00  0.00000000000E+00  0.10001407600E+04  0.10001407600E+04  0.51100000000E-03 0. -1.
          2   -1    0    0  501    0 -0.00000000000E+00 -0.00000000000E+00 -0.51058811268E+03  0.51058811268E+03  0.25500000000E-02 0. -1.
         11    1    1    2    0    0 -0.27996116675E+02 -0.25051835492E+03  0.90584217712E+03  0.94026234560E+03  0.51100000000E-03 0. -1.
         22    1    1    2    0    0 -0.14619973758E+02 -0.20410749756E+01  0.42518140924E+02  0.45007798517E+02  0.00000000000E+00 0. -1.
          2    1    1    2  501    0  0.42616090433E+02  0.25255942990E+03 -0.45880767068E+03  0.52545872861E+03  0.25500000000E-02 0. -1.
<mgrwt>
<rscale>  0 0.25597522E+03</rscale>
<asrwt>0</asrwt>
<pdfrwt beam="1">  1       11 0.10000000E+01 0.14761762E+02</pdfrwt>
<pdfrwt beam="2">  1        2 0.78563072E-01 0.25597522E+03</pdfrwt>
<totfact> 0.75786024E+01</totfact>
</mgrwt>
</event>
<event>
 5    1  0.6729100E-004  0.3929670E+03  0.7818608E-02  0.1046243E+00
         11   -1    0    0    0    0  0.00000000000E+00  0.00000000000E+00  0.99985158088E+03  0.99985158088E+03  0.51100000000E-03 0.  1.
          2   -1    0    0  501    0 -0.00000000000E+00 -0.00000000000E+00 -0.19622087275E+04  0.19622087275E+04  0.25500000000E-02 0. -1.
         11    1    1    2    0    0 -0.35947900166E+03  0.16905836602E+03  0.87390752524E+03  0.95995846078E+03  0.51100000000E-03 0.  1.
         22    1    1    2    0    0  0.16200278162E+02  0.22055603558E+02  0.59796876947E+02  0.65761426029E+02  0.00000000000E+00 0.  1.
          2    1    1    2  501    0  0.34327872350E+03 -0.19111396958E+03 -0.18960615488E+04  0.19363404216E+04  0.25500000000E-02 0. -1.
<mgrwt>
<rscale>  0 0.39296697E+03</rscale>
<asrwt>0</asrwt>
<pdfrwt beam="1">  1       11 0.10000000E+01 0.27366013E+02</pdfrwt>
<pdfrwt beam="2">  1        2 0.30183345E+00 0.39296697E+03</pdfrwt>
<totfact> 0.94182426E+00</totfact>
</mgrwt>
</event>
<event>
 5    1  0.6729100E-004  0.3307135E+03  0.7818608E-02  0.1070822E+00
         11   -1    0    0    0    0  0.00000000000E+00  0.00000000000E+00  0.10001258106E+04  0.10001258106E+04  0.51100000000E-03 0.  1.
          2   -1    0    0  501    0 -0.00000000000E+00 -0.00000000000E+00 -0.10036992838E+04  0.10036992838E+04  0.25500000000E-02 0.  1.
         11    1    1    2    0    0 -0.17179620796E+03 -0.12353603435E+03  0.33124197123E+03  0.39306021467E+03  0.51100000000E-03 0.  1.
         22    1    1    2    0    0 -0.83992793097E+02 -0.10148016206E+03  0.60079151235E+03  0.61506378034E+03  0.00000000000E+00 0.  1.
          2    1    1    2  501    0  0.25578900106E+03  0.22501619641E+03 -0.93560695677E+03  0.99570109937E+03  0.25500000000E-02 0.  1.
<mgrwt>
<rscale>  0 0.33071348E+03</rscale>
<asrwt>0</asrwt>
<pdfrwt beam="1">  1       11 0.10000000E+01 0.13173083E+03</pdfrwt>
<pdfrwt beam="2">  1        2 0.15443470E+00 0.33071348E+03</pdfrwt>
<totfact> 0.32358843E+01</totfact>
</mgrwt>
</event>
<event>
 5    1  0.6729100E-004  0.3863231E+03  0.7818608E-02  0.1048621E+00
         11   -1    0    0    0    0  0.00000000000E+00  0.00000000000E+00  0.10001142463E+04  0.10001142463E+04  0.51100000000E-03 0. -1.
          2   -1    0    0  501    0 -0.00000000000E+00 -0.00000000000E+00 -0.77830361517E+03  0.77830361517E+03  0.25500000000E-02 0. -1.
         11    1    1    2    0    0 -0.38478538749E+02 -0.45056511694E+03 -0.55878861363E+03  0.71884228957E+03  0.51100000000E-03 0. -1.
         22    1    1    2    0    0 -0.15158939319E+03  0.23930255695E+03  0.71336540236E+03  0.76755146744E+03  0.00000000000E+00 0. -1.
          2    1    1    2  501    0  0.19006793194E+03  0.21126255999E+03  0.67233842382E+02  0.29202410444E+03  0.25500000000E-02 0. -1.
<mgrwt>
<rscale>  0 0.38632312E+03</rscale>
<asrwt>0</asrwt>
<pdfrwt beam="1">  1       11 0.10000000E+01 0.28327559E+03</pdfrwt>
<pdfrwt beam="2">  1        2 0.11975269E+00 0.38632312E+03</pdfrwt>
<totfact> 0.45331749E+01</totfact>
</mgrwt>
</event>
<event>
 5    1  0.6729100E-004  0.1101639E+03  0.7818608E-02  0.1260267E+00
         11   -1    0    0    0    0  0.00000000000E+00  0.00000000000E+00  0.10004553273E+04  0.10004553273E+04  0.51100000000E-03 0. -1.
          2   -1    0    0  501    0 -0.00000000000E+00 -0.00000000000E+00 -0.83564714093E+02  0.83564714132E+02  0.25500000000E-02 0. -1.
         11    1    1    2    0    0  0.12269477145E+03  0.75494774190E+02  0.74149582329E+03  0.75536052573E+03  0.51100000000E-03 0. -1.
         22    1    1    2    0    0 -0.27150890163E+02 -0.24281455849E+02  0.21133649300E+03  0.21445249639E+03  0.00000000000E+00 0. -1.
          2    1    1    2  501    0 -0.95543881284E+02 -0.51213318341E+02 -0.35941703108E+02  0.11420701929E+03  0.25500000000E-02 0. -1.
<mgrwt>
<rscale>  0 0.11016390E+03</rscale>
<asrwt>0</asrwt>
<pdfrwt beam="1">  1       11 0.10000000E+01 0.36424716E+02</pdfrwt>
<pdfrwt beam="2">  1        2 0.12861963E-01 0.11016390E+03</pdfrwt>
<totfact> 0.55528420E+02</totfact>
</mgrwt>
</event>
<event>
 5    1  0.6729100E-004  0.8568817E+02  0.7818608E-02  0.1587827E+00
         11   -1    0    0    0    0  0.00000000000E+00  0.00000000000E+00  0.10001806808E+04  0.10001806808E+04  0.51100000000E-03 0. -1.
          2   -1    0    0  501    0 -0.00000000000E+00 -0.00000000000E+00 -0.33267506842E+02  0.33267506939E+02  0.25500000000E-02 0. -1.
         11    1    1    2    0    0  0.51619008087E+02 -0.68553981900E+02  0.48410543167E+03  0.49165255964E+03  0.51100000000E-03 0. -1.
         22    1    1    2    0    0 -0.25202382488E+02  0.84679124758E+02  0.49907276757E+03  0.50683265639E+03  0.00000000000E+00 0. -1.
          2    1    1    2  501    0 -0.26416625599E+02 -0.16125142858E+02 -0.16265025247E+02  0.34962971742E+02  0.25500000000E-02 0. -1.
<mgrwt>
<rscale>  0 0.30949287E+02</rscale>
<asrwt>0</asrwt>
<pdfrwt beam="1">  1       11 0.10000000E+01 0.85688171E+02</pdfrwt>
<pdfrwt beam="2">  1        2 0.51190026E-02 0.30949287E+02</pdfrwt>
<totfact> 0.15344698E+03</totfact>
</mgrwt>
</event>
<event>
 5    1  0.6729100E-004  0.1633422E+03  0.7818608E-02  0.1188170E+00
         11   -1    0    0    0    0  0.00000000000E+00  0.00000000000E+00  0.10002448532E+04  0.10002448532E+04  0.51100000000E-03 0. -1.
          2   -1    0    0  501    0 -0.00000000000E+00 -0.00000000000E+00 -0.26498956312E+02  0.26498956435E+02  0.25500000000E-02 0. -1.
         11    1    1    2    0    0 -0.25549722235E+02  0.14614253828E+03  0.47673536873E+03  0.49928653256E+03  0.51100000000E-03 0. -1.
         22    1    1    2    0    0  0.49152119656E+01  0.12992713086E+02  0.68317811018E+02  0.69715803118E+02  0.00000000000E+00 0. -1.
          2    1    1    2  501    0  0.20634510270E+02 -0.15913525137E+03  0.42869271714E+03  0.45774147395E+03  0.25500000000E-02 0. -1.
<mgrwt>
<rscale>  0 0.16046748E+03</rscale>
<asrwt>0</asrwt>
<pdfrwt beam="1">  1       11 0.10000000E+01 0.16334225E+03</pdfrwt>
<pdfrwt beam="2">  1        2 0.40777606E-02 0.16046748E+03</pdfrwt>
<totfact> 0.24314964E+03</totfact>
</mgrwt>
</event>
<event>
 5    1  0.6729100E-004  0.2087629E+03  0.7818608E-02  0.1142549E+00
         11   -1    0    0    0    0  0.00000000000E+00  0.00000000000E+00  0.10004286657E+04  0.10004286657E+04  0.51100000000E-03 0.  1.
          2   -1    0    0  501    0 -0.00000000000E+00 -0.00000000000E+00 -0.16086306035E+03  0.16086306037E+03  0.25500000000E-02 0.  1.
         11    1    1    2    0    0  0.16083011332E+03  0.47947308692E+02  0.70459712744E+03  0.72430820909E+03  0.51100000000E-03 0.  1.
         22    1    1    2    0    0  0.13521603560E+02  0.76617413706E+02  0.19873314849E+03  0.21341960115E+03  0.00000000000E+00 0.  1.
          2    1    1    2  501    0 -0.17435171688E+03 -0.12456472240E+03 -0.63764670575E+02  0.22356391584E+03  0.25500000000E-02 0.  1.
<mgrwt>
<rscale>  0 0.20876290E+03</rscale>
<asrwt>0</asrwt>
<pdfrwt beam="1">  1       11 0.10000000E+01 0.77801426E+02</pdfrwt>
<pdfrwt beam="2">  1        2 0.24758771E-01 0.20876290E+03</pdfrwt>
<totfact> 0.26742728E+02</totfact>
</mgrwt>
</event>
<event>
 5    1  0.6729100E-004  0.2629089E+03  0.7818608E-02  0.1105408E+00
         11   -1    0    0    0    0  0.00000000000E+00  0.00000000000E+00  0.10000682596E+04  0.10000682596E+04  0.51100000000E-03 0. -1.
          2   -1    0    0  501    0 -0.00000000000E+00 -0.00000000000E+00 -0.17846589621E+03  0.17846589622E+03  0.25500000000E-02 0.  1.
         11    1    1    2    0    0 -0.26432817716E+03  0.54324414523E+02  0.74402318498E+03  0.79144868883E+03  0.51100000000E-03 0. -1.
         22    1    1    2    0    0  0.13440933641E+02  0.21294778786E+02  0.11914193010E+03  0.12177407692E+03  0.00000000000E+00 0.  1.
          2    1    1    2  501    0  0.25088724352E+03 -0.75619193309E+02 -0.41562751714E+02  0.26531139006E+03  0.25500000000E-02 0.  1.
<mgrwt>
<rscale>  0 0.26290892E+03</rscale>
<asrwt>0</asrwt>
<pdfrwt beam="1">  1       11 0.10000000E+01 0.25181865E+02</pdfrwt>
<pdfrwt beam="2">  1        2 0.27458165E-01 0.26290892E+03</pdfrwt>
<totfact> 0.23935114E+02</totfact>
</mgrwt>
</event>
<event>
 5    1  0.6729100E-004  0.2805674E+03  0.7818608E-02  0.1098226E+00
         11   -1    0    0    0    0  0.00000000000E+00  0.00000000000E+00  0.10003117588E+04  0.10003117588E+04  0.51100000000E-03 0.  1.
         -2   -1    0    0    0  501 -0.00000000000E+00 -0.00000000000E+00 -0.11550804063E+03  0.11550804066E+03  0.25500000000E-02 0. -1.
         11    1    1    2    0    0  0.15308869539E+03 -0.22175299760E+03  0.73725038618E+03  0.78495138227E+03  0.51100000000E-03 0.  1.
         22    1    1    2    0    0  0.11076080673E+02  0.62568005429E+00  0.28966337711E+02  0.31018055371E+02  0.00000000000E+00 0. -1.
         -2    1    1    2    0  501 -0.16416477607E+03  0.22112731755E+03  0.11858699428E+03  0.29985036183E+03  0.25500000000E-02 0. -1.
<mgrwt>
<rscale>  0 0.27540400E+03</rscale>
<asrwt>0</asrwt>
<pdfrwt beam="1">  1       11 0.10000000E+01 0.28056738E+03</pdfrwt>
<pdfrwt beam="2">  1       -2 0.17776007E-01 0.27540400E+03</pdfrwt>
<totfact> 0.20648247E+02</totfact>
</mgrwt>
</event>
<event>
 5    1  0.6729100E-004  0.1710181E+03  0.7818608E-02  0.1176790E+00
         11   -1    0    0    0    0  0.00000000000E+00  0.00000000000E+00  0.99997459056E+03  0.99997459056E+03  0.51100000000E-03 0. -1.
          2   -1    0    0  501    0 -0.00000000000E+00 -0.00000000000E+00 -0.13907702136E+03  0.13907702138E+03  0.25500000000E-02 0. -1.
         11    1    1    2    0    0 -0.70638433782E+02 -0.15757266341E+03 -0.58392741501E+02  0.18228725913E+03  0.51100000000E-03 0. -1.
         22    1    1    2    0    0 -0.71295423602E+02  0.54246236239E+02  0.31174150573E+03  0.32435853306E+03  0.00000000000E+00 0. -1.
          2    1    1    2  501    0  0.14193385738E+03  0.10332642717E+03  0.60754880497E+03  0.63240581975E+03  0.25500000000E-02 0. -1.
<mgrwt>
<rscale>  0 0.17101806E+03</rscale>
<asrwt>0</asrwt>
<pdfrwt beam="1">  1       11 0.10000000E+01 0.89586224E+02</pdfrwt>
<pdfrwt beam="2">  1        2 0.21395921E-01 0.17101806E+03</pdfrwt>
<totfact> 0.31351451E+02</totfact>
</mgrwt>
</event>
<event>
 5    1  0.6729100E-004  0.1851328E+03  0.7818608E-02  0.1212231E+00
         11   -1    0    0    0    0  0.00000000000E+00  0.00000000000E+00  0.99995547135E+03  0.99995547135E+03  0.51100000000E-03 0. -1.
         -2   -1    0    0    0  501 -0.00000000000E+00 -0.00000000000E+00 -0.10418301355E+03  0.10418301358E+03  0.25500000000E-02 0.  1.
         11    1    1    2    0    0  0.21654540343E+03  0.66616927968E+02  0.43908610776E+03  0.49409142562E+03  0.51100000000E-03 0. -1.
         22    1    1    2    0    0 -0.16451256362E+03  0.64236763842E+02  0.43249545859E+03  0.46716492496E+03  0.00000000000E+00 0. -1.
         -2    1    1    2    0  501 -0.52032839814E+02 -0.13085369181E+03  0.24190891445E+02  0.14288213434E+03  0.25500000000E-02 0.  1.
<mgrwt>
<rscale>  0 0.14081941E+03</rscale>
<asrwt>0</asrwt>
<pdfrwt beam="1">  1       11 0.10000000E+01 0.18513283E+03</pdfrwt>
<pdfrwt beam="2">  1       -2 0.16027442E-01 0.14081941E+03</pdfrwt>
<totfact> 0.23963185E+02</totfact>
</mgrwt>
</event>
<event>
 5    1  0.6729100E-004  0.1726639E+03  0.7818608E-02  0.1175098E+00
         11   -1    0    0    0    0  0.00000000000E+00  0.00000000000E+00  0.99982952418E+03  0.99982952418E+03  0.51100000000E-03 0. -1.
          2   -1    0    0  501    0 -0.00000000000E+00 -0.00000000000E+00 -0.18798750711E+04  0.18798750711E+04  0.25500000000E-02 0. -1.
         11    1    1    2    0    0 -0.12330849205E+03  0.14619558468E+03  0.70983117509E+03  0.73514517635E+03  0.51100000000E-03 0. -1.
         22    1    1    2    0    0 -0.29718210737E+02 -0.66275348288E+02  0.26851541448E+03  0.27816563708E+03  0.00000000000E+00 0. -1.
          2    1    1    2  501    0  0.15302670278E+03 -0.79920236392E+02 -0.18583921365E+04  0.18663937819E+04  0.25500000000E-02 0. -1.
<mgrwt>
<rscale>  0 0.17266391E+03</rscale>
<asrwt>0</asrwt>
<pdfrwt beam="1">  1       11 0.10000000E+01 0.72633283E+02</pdfrwt>
<pdfrwt beam="2">  1        2 0.28916224E+00 0.17266391E+03</pdfrwt>
<totfact> 0.11244698E+01</totfact>
</mgrwt>
</event>
<event>
 5    1  0.6729100E-004  0.2396293E+03  0.7818608E-02  0.1134245E+00
         11   -1    0    0    0    0  0.00000000000E+00  0.00000000000E+00  0.10000757020E+04  0.10000757020E+04  0.51100000000E-03 0. -1.
         -2   -1    0    0    0  501 -0.00000000000E+00 -0.00000000000E+00 -0.57812646750E+02  0.57812646806E+02  0.25500000000E-02 0.  1.
         11    1    1    2    0    0 -0.16045724986E+03 -0.87692825032E+02  0.21964766362E+03  0.28580002926E+03  0.51100000000E-03 0. -1.
         22    1    1    2    0    0 -0.47929514135E+02  0.18684925673E+02  0.11313032471E+03  0.12427725110E+03  0.00000000000E+00 0. -1.
         -2    1    1    2    0  501  0.20838676400E+03  0.69007899358E+02  0.60948506691E+03  0.64781106843E+03  0.25500000000E-02 0.  1.
<mgrwt>
<rscale>  0 0.21951568E+03</rscale>
<asrwt>0</asrwt>
<pdfrwt beam="1">  1       11 0.10000000E+01 0.23962927E+03</pdfrwt>
<pdfrwt beam="2">  1       -2 0.88949264E-02 0.21951568E+03</pdfrwt>
<totfact> 0.63130175E+02</totfact>
</mgrwt>
</event>
<event>
 5    1  0.6729100E-004  0.2881423E+03  0.7818608E-02  0.1091323E+00
         11   -1    0    0    0    0  0.00000000000E+00  0.00000000000E+00  0.10007740964E+04  0.10007740964E+04  0.51100000000E-03 0. -1.
          2   -1    0    0  501    0 -0.00000000000E+00 -0.00000000000E+00 -0.18028298913E+04  0.18028298913E+04  0.25500000000E-02 0. -1.
         11    1    1    2    0    0  0.90101092066E+02  0.40679440225E+03  0.53618588443E+03  0.67903990690E+03  0.51100000000E-03 0. -1.
         22    1    1    2    0    0 -0.94196990939E+02 -0.12098580371E+03  0.36584144970E+03  0.39667443089E+03  0.00000000000E+00 0. -1.
          2    1    1    2  501    0  0.40958988728E+01 -0.28580859854E+03 -0.17040831291E+04  0.17278896499E+04  0.25500000000E-02 0. -1.
<mgrwt>
<rscale>  0 0.28814226E+03</rscale>
<asrwt>0</asrwt>
<pdfrwt beam="1">  1       11 0.10000000E+01 0.15333179E+03</pdfrwt>
<pdfrwt beam="2">  1        2 0.27757314E+00 0.28814226E+03</pdfrwt>
<totfact> 0.11741586E+01</totfact>
</mgrwt>
</event>
<event>
 5    1  0.6729100E-004  0.3779840E+03  0.7818608E-02  0.1052198E+00
         11   -1    0    0    0    0  0.00000000000E+00  0.00000000000E+00  0.10003533474E+04  0.10003533474E+04  0.51100000000E-03 0. -1.
         -2   -1    0    0    0  501 -0.00000000000E+00 -0.00000000000E+00 -0.26319065419E+03  0.26319065420E+03  0.25500000000E-02 0.  1.
         11    1    1    2    0    0 -0.35738911175E+03 -0.79256291630E+02  0.76516285515E+03  0.84822327949E+03  0.51100000000E-03 0. -1.
         22    1    1    2    0    0 -0.11280987060E+02  0.23886929745E+01  0.31962224500E+02  0.33978674462E+02  0.00000000000E+00 0. -1.
         -2    1    1    2    0  501  0.36867009881E+03  0.76867598655E+02 -0.59962386471E+02  0.38134204762E+03  0.25500000000E-02 0.  1.
<mgrwt>
<rscale>  0 0.37659829E+03</rscale>
<asrwt>0</asrwt>
<pdfrwt beam="1">  1       11 0.10000000E+01 0.37798399E+03</pdfrwt>
<pdfrwt beam="2">  1       -2 0.40505176E-01 0.37659829E+03</pdfrwt>
<totfact> 0.47015739E+01</totfact>
</mgrwt>
</event>
<event>
 5    1  0.6729100E-004  0.8521268E+02  0.7818608E-02  0.1442151E+00
         11   -1    0    0    0    0  0.00000000000E+00  0.00000000000E+00  0.10004666705E+04  0.10004666705E+04  0.51100000000E-03 0. -1.
          2   -1    0    0  501    0 -0.00000000000E+00 -0.00000000000E+00 -0.13197754369E+02  0.13197754615E+02  0.25500000000E-02 0. -1.
         11    1    1    2    0    0  0.10139436164E+03 -0.83008556022E+00  0.29627996878E+03  0.31315064348E+03  0.51100000000E-03 0. -1.
         22    1    1    2    0    0 -0.23318593241E+02 -0.18941799778E+02  0.11238273629E+03  0.11632896452E+03  0.00000000000E+00 0. -1.
          2    1    1    2  501    0 -0.78075768400E+02  0.19771885339E+02  0.57860621108E+03  0.58418481713E+03  0.25500000000E-02 0. -1.
<mgrwt>
<rscale>  0 0.50596405E+02</rscale>
<asrwt>0</asrwt>
<pdfrwt beam="1">  1       11 0.10000000E+01 0.85212684E+02</pdfrwt>
<pdfrwt beam="2">  1        2 0.20313712E-02 0.50596405E+02</pdfrwt>
<totfact> 0.53703060E+03</totfact>
</mgrwt>
</event>
<event>
 5    1  0.6729100E-004  0.1929157E+03  0.7818608E-02  0.1155858E+00
         11   -1    0    0    0    0  0.00000000000E+00  0.00000000000E+00  0.10001300996E+04  0.10001300996E+04  0.51100000000E-03 0. -1.
          2   -1    0    0  501    0 -0.00000000000E+00 -0.00000000000E+00 -0.29541036863E+03  0.29541036865E+03  0.25500000000E-02 0. -1.
         11    1    1    2    0    0  0.12950595724E+03  0.33013037469E+02  0.74263998206E+03  0.75456994146E+03  0.51100000000E-03 0. -1.
         22    1    1    2    0    0  0.34683658185E+02  0.73892059336E+02  0.20980855724E+03  0.22512801529E+03  0.00000000000E+00 0.  1.
          2    1    1    2  501    0 -0.16418961543E+03 -0.10690509681E+03 -0.24772880837E+03  0.31584251145E+03  0.25500000000E-02 0. -1.
<mgrwt>
<rscale>  0 0.19291571E+03</rscale>
<asrwt>0</asrwt>
<pdfrwt beam="1">  1       11 0.10000000E+01 0.81627156E+02</pdfrwt>
<pdfrwt beam="2">  1        2 0.45453660E-01 0.19291571E+03</pdfrwt>
<totfact> 0.13785354E+02</totfact>
</mgrwt>
</event>
<event>
 5    1  0.6729100E-004  0.1922427E+03  0.7818608E-02  0.1156454E+00
         11   -1    0    0    0    0  0.00000000000E+00  0.00000000000E+00  0.10000509473E+04  0.10000509473E+04  0.51100000000E-03 0.  1.
          2   -1    0    0  501    0 -0.00000000000E+00 -0.00000000000E+00 -0.43693263675E+03  0.43693263675E+03  0.25500000000E-02 0.  1.
         11    1    1    2    0    0  0.50985438175E+00 -0.19161420667E+03  0.95379870798E+03  0.97285571360E+03  0.51100000000E-03 0.  1.
         22    1    1    2    0    0  0.10508884510E+02 -0.33294291186E+00  0.13166859057E+02  0.16849738337E+02  0.00000000000E+00 0. -1.
          2    1    1    2  501    0 -0.11018738892E+02  0.19194714958E+03 -0.40384725651E+03  0.44727813208E+03  0.25500000000E-02 0.  1.
<mgrwt>
<rscale>  0 0.19224269E+03</rscale>
<asrwt>0</asrwt>
<pdfrwt beam="1">  1       11 0.10000000E+01 0.10514157E+02</pdfrwt>
<pdfrwt beam="2">  1        2 0.67223828E-01 0.19224269E+03</pdfrwt>
<totfact> 0.90430025E+01</totfact>
</mgrwt>
</event>
<event>
 5    1  0.6729100E-004  0.1966309E+03  0.7818608E-02  0.1152613E+00
         11   -1    0    0    0    0  0.00000000000E+00  0.00000000000E+00  0.10001535139E+04  0.10001535139E+04  0.51100000000E-03 0. -1.
          2   -1    0    0  501    0 -0.00000000000E+00 -0.00000000000E+00 -0.66792159158E+02  0.66792159207E+02  0.25500000000E-02 0. -1.
         11    1    1    2    0    0  0.27111981614E+02  0.19175182812E+03  0.74356818842E+03  0.76837326474E+03  0.51100000000E-03 0. -1.
         22    1    1    2    0    0 -0.15702957225E+02  0.53982088505E+01  0.60006136979E+02  0.62261223884E+02  0.00000000000E+00 0.  1.
          2    1    1    2  501    0 -0.11409024389E+02 -0.19715003697E+03  0.12978702932E+03  0.23631118446E+03  0.25500000000E-02 0. -1.
<mgrwt>
<rscale>  0 0.19663088E+03</rscale>
<asrwt>0</asrwt>
<pdfrwt beam="1">  1       11 0.10000000E+01 0.16604925E+02</pdfrwt>
<pdfrwt beam="2">  1        2 0.10277294E-01 0.19663088E+03</pdfrwt>
<totfact> 0.75020954E+02</totfact>
</mgrwt>
</event>
<event>
 5    1  0.6729100E-004  0.7747608E+03  0.7818608E-02  0.9597286E-01
         11   -1    0    0    0    0  0.00000000000E+00  0.00000000000E+00  0.10008107655E+04  0.10008107655E+04  0.51100000000E-03 0.  1.
          2   -1    0    0  501    0 -0.00000000000E+00 -0.00000000000E+00 -0.27426348116E+04  0.27426348116E+04  0.25500000000E-02 0.  1.
         11    1    1    2    0    0  0.39126155526E+03  0.63286911125E+03  0.60073311397E+03  0.95628928198E+03  0.51100000000E-03 0.  1.
         22    1    1    2    0    0 -0.79190469282E+02  0.79391751056E+02  0.14361545087E+03  0.18220751436E+03  0.00000000000E+00 0.  1.
          2    1    1    2  501    0 -0.31207108598E+03 -0.71226086231E+03 -0.24861726109E+04  0.26049487807E+04  0.25500000000E-02 0.  1.
<mgrwt>
<rscale>  0 0.77476084E+03</rscale>
<asrwt>0</asrwt>
<pdfrwt beam="1">  1       11 0.10000000E+01 0.11213465E+03</pdfrwt>
<pdfrwt beam="2">  1        2 0.42228590E+00 0.77476084E+03</pdfrwt>
<totfact> 0.32206554E+00</totfact>
</mgrwt>
</event>
<event>
 5    1  0.6729100E-004  0.1967900E+03  0.7818608E-02  0.1152476E+00
         11   -1    0    0    0    0  0.00000000000E+00  0.00000000000E+00  0.10000567228E+04  0.10000567228E+04  0.51100000000E-03 0.  1.
          2   -1    0    0  501    0 -0.00000000000E+00 -0.00000000000E+00 -0.65789819549E+02  0.65789819598E+02  0.25500000000E-02 0.  1.
         11    1    1    2    0    0  0.29075008563E+02  0.20479758454E+03  0.70974011127E+03  0.73926884981E+03  0.51100000000E-03 0.  1.
         22    1    1    2    0    0  0.59194405701E+01 -0.13751394571E+02  0.87767770692E+02  0.89035510902E+02  0.00000000000E+00 0. -1.
          2    1    1    2  501    0 -0.34994449133E+02 -0.19104618997E+03  0.13675902129E+03  0.23754218169E+03  0.25500000000E-02 0.  1.
<mgrwt>
<rscale>  0 0.19678997E+03</rscale>
<asrwt>0</asrwt>
<pdfrwt beam="1">  1       11 0.10000000E+01 0.14971327E+02</pdfrwt>
<pdfrwt beam="2">  1        2 0.10122085E-01 0.19678997E+03</pdfrwt>
<totfact> 0.76449496E+02</totfact>
</mgrwt>
</event>
<event>
 5    1  0.6729100E-004  0.1077795E+03  0.7818608E-02  0.1264738E+00
         11   -1    0    0    0    0  0.00000000000E+00  0.00000000000E+00  0.10001586925E+04  0.10001586925E+04  0.51100000000E-03 0.  1.
          2   -1    0    0  501    0 -0.00000000000E+00 -0.00000000000E+00 -0.13111541140E+03  0.13111541142E+03  0.25500000000E-02 0.  1.
         11    1    1    2    0    0 -0.12674289768E+03 -0.64288072670E+02  0.79989240907E+03  0.81241897103E+03  0.51100000000E-03 0.  1.
         22    1    1    2    0    0  0.20214342521E+02  0.53840821770E+02  0.16527152491E+03  0.17499180174E+03  0.00000000000E+00 0.  1.
          2    1    1    2  501    0  0.10652855516E+03  0.10447250899E+02 -0.96120652916E+02  0.14386333111E+03  0.25500000000E-02 0.  1.
<mgrwt>
<rscale>  0 0.10777955E+03</rscale>
<asrwt>0</asrwt>
<pdfrwt beam="1">  1       11 0.10000000E+01 0.57510466E+02</pdfrwt>
<pdfrwt beam="2">  1        2 0.20174802E-01 0.10777955E+03</pdfrwt>
<totfact> 0.33011634E+02</totfact>
</mgrwt>
</event>
<event>
 5    1  0.6729100E-004  0.2790251E+03  0.7818608E-02  0.1262458E+00
         11   -1    0    0    0    0  0.00000000000E+00  0.00000000000E+00  0.99982870438E+03  0.99982870438E+03  0.51100000000E-03 0. -1.
          2   -1    0    0  501    0 -0.00000000000E+00 -0.00000000000E+00 -0.25286447942E+04  0.25286447942E+04  0.25500000000E-02 0. -1.
         11    1    1    2    0    0 -0.78577631889E+02  0.23984281116E+03 -0.61988806296E+02  0.25988772654E+03  0.51100000000E-03 0. -1.
         22    1    1    2    0    0  0.18511720414E+03 -0.21687853646E+03  0.87701864059E+03  0.92220733829E+03  0.00000000000E+00 0. -1.
          2    1    1    2  501    0 -0.10653957225E+03 -0.22964274695E+02 -0.23438459241E+04  0.23463784337E+04  0.25500000000E-02 0. -1.
<mgrwt>
<rscale>  0 0.10898641E+03</rscale>
<asrwt>0</asrwt>
<pdfrwt beam="1">  1       11 0.10000000E+01 0.27902512E+03</pdfrwt>
<pdfrwt beam="2">  1        2 0.38895563E+00 0.10898641E+03</pdfrwt>
<totfact> 0.54536980E+00</totfact>
</mgrwt>
</event>
<event>
 5    1  0.6729100E-004  0.2338366E+03  0.7818608E-02  0.1123968E+00
         11   -1    0    0    0    0  0.00000000000E+00  0.00000000000E+00  0.10001777012E+04  0.10001777012E+04  0.51100000000E-03 0. -1.
          2   -1    0    0  501    0 -0.00000000000E+00 -0.00000000000E+00 -0.75466617318E+02  0.75466617362E+02  0.25500000000E-02 0. -1.
         11    1    1    2    0    0 -0.10022000894E+03  0.22933197085E+03  0.63924267974E+03  0.68648991737E+03  0.51100000000E-03 0. -1.
         22    1    1    2    0    0 -0.86807436971E+01 -0.29610569714E+02  0.66960225353E+02  0.73727965720E+02  0.00000000000E+00 0.  1.
          2    1    1    2  501    0  0.10890075264E+03 -0.19972140113E+03  0.21850817881E+03  0.31542643549E+03  0.25500000000E-02 0. -1.
<mgrwt>
<rscale>  0 0.23383660E+03</rscale>
<asrwt>0</asrwt>
<pdfrwt beam="1">  1       11 0.10000000E+01 0.30856785E+02</pdfrwt>
<pdfrwt beam="2">  1        2 0.11612312E-01 0.23383660E+03</pdfrwt>
<totfact> 0.65086030E+02</totfact>
</mgrwt>
</event>
<event>
 5    1  0.6729100E-004  0.1213523E+03  0.7818608E-02  0.1240883E+00
         11   -1    0    0    0    0  0.00000000000E+00  0.00000000000E+00  0.10002445576E+04  0.10002445576E+04  0.51100000000E-03 0. -1.
          2   -1    0    0  501    0 -0.00000000000E+00 -0.00000000000E+00 -0.41813651464E+02  0.41813651542E+02  0.25500000000E-02 0. -1.
         11    1    1    2    0    0  0.53129787416E+02  0.86309207478E+02  0.12280325737E+03  0.15922529205E+03  0.51100000000E-03 0. -1.
         22    1    1    2    0    0  0.16949944500E+02  0.77456552652E+02  0.46392395203E+03  0.47065088063E+03  0.00000000000E+00 0. -1.
          2    1    1    2  501    0 -0.70079731916E+02 -0.16376576013E+03  0.37170369675E+03  0.41218203649E+03  0.25500000000E-02 0. -1.
<mgrwt>
<rscale>  0 0.12135231E+03</rscale>
<asrwt>0</asrwt>
<pdfrwt beam="1">  1       11 0.10000000E+01 0.79289458E+02</pdfrwt>
<pdfrwt beam="2">  1        2 0.64344425E-02 0.12135231E+03</pdfrwt>
<totfact> 0.13116361E+03</totfact>
</mgrwt>
</event>
<event>
 5    1  0.6729100E-004  0.1424559E+03  0.7818608E-02  0.1210062E+00
         11   -1    0    0    0    0  0.00000000000E+00  0.00000000000E+00  0.10003440468E+04  0.10003440468E+04  0.51100000000E-03 0. -1.
         -2   -1    0    0    0  501 -0.00000000000E+00 -0.00000000000E+00 -0.39133155534E+02  0.39133155617E+02  0.25500000000E-02 0. -1.
         11    1    1    2    0    0  0.14645255793E+03 -0.56054399154E+02  0.73714442865E+03  0.75363940720E+03  0.51100000000E-03 0. -1.
         22    1    1    2    0    0 -0.13194818456E+02  0.15203381436E+02  0.90783609711E+02  0.92988761865E+02  0.00000000000E+00 0.  1.
         -2    1    1    2    0  501 -0.13325773947E+03  0.40851017718E+02  0.13328285288E+03  0.19284903333E+03  0.25500000000E-02 0. -1.
<mgrwt>
<rscale>  0 0.14245587E+03</rscale>
<asrwt>0</asrwt>
<pdfrwt beam="1">  1       11 0.10000000E+01 0.20130724E+02</pdfrwt>
<pdfrwt beam="2">  1       -2 0.60225566E-02 0.14245587E+03</pdfrwt>
<totfact> 0.11199395E+03</totfact>
</mgrwt>
</event>
<event>
 5    1  0.6729100E-004  0.1756114E+03  0.7818608E-02  0.1172119E+00
         11   -1    0    0    0    0  0.00000000000E+00  0.00000000000E+00  0.10003054848E+04  0.10003054848E+04  0.51100000000E-03 0. -1.
          2   -1    0    0  501    0 -0.00000000000E+00 -0.00000000000E+00 -0.16365026599E+03  0.16365026601E+03  0.25500000000E-02 0. -1.
         11    1    1    2    0    0 -0.17899001134E+02 -0.28947749903E+03  0.30031894872E+03  0.41750337441E+03  0.51100000000E-03 0. -1.
         22    1    1    2    0    0 -0.30549401702E+02  0.14063647053E+03  0.56868865202E+03  0.58661628491E+03  0.00000000000E+00 0. -1.
          2    1    1    2  501    0  0.48448402836E+02  0.14884102850E+03 -0.32352381963E+02  0.15983609144E+03  0.25500000000E-02 0. -1.
<mgrwt>
<rscale>  0 0.17561140E+03</rscale>
<asrwt>0</asrwt>
<pdfrwt beam="1">  1       11 0.10000000E+01 0.14391624E+03</pdfrwt>
<pdfrwt beam="2">  1        2 0.25184654E-01 0.17561140E+03</pdfrwt>
<totfact> 0.26137560E+02</totfact>
</mgrwt>
</event>
<event>
 5    1  0.6729100E-004  0.9222880E+02  0.7818608E-02  0.1297542E+00
         11   -1    0    0    0    0  0.00000000000E+00  0.00000000000E+00  0.10005592152E+04  0.10005592152E+04  0.51100000000E-03 0.  1.
          2   -1    0    0  501    0 -0.00000000000E+00 -0.00000000000E+00 -0.46351094139E+02  0.46351094209E+02  0.25500000000E-02 0.  1.
         11    1    1    2    0    0  0.86773407893E+02  0.19704125906E+02  0.16310618183E+02  0.90464983064E+02  0.51100000000E-03 0.  1.
         22    1    1    2    0    0  0.49134934658E+02  0.41936161859E+00  0.20751334693E+03  0.21325151071E+03  0.00000000000E+00 0.  1.
          2    1    1    2  501    0 -0.13590834255E+03 -0.20123487525E+02  0.73038415599E+03  0.74319381567E+03  0.25500000000E-02 0.  1.
<mgrwt>
<rscale>  0 0.92228796E+02</rscale>
<asrwt>0</asrwt>
<pdfrwt beam="1">  1       11 0.10000000E+01 0.49136724E+02</pdfrwt>
<pdfrwt beam="2">  1        2 0.71349251E-02 0.92228796E+02</pdfrwt>
<totfact> 0.11273571E+03</totfact>
</mgrwt>
</event>
<event>
 5    1  0.6729100E-004  0.1940187E+03  0.7818608E-02  0.1323651E+00
         11   -1    0    0    0    0  0.00000000000E+00  0.00000000000E+00  0.10001090393E+04  0.10001090393E+04  0.51100000000E-03 0. -1.
          2   -1    0    0  501    0 -0.00000000000E+00 -0.00000000000E+00 -0.90200661246E+02  0.90200661282E+02  0.25500000000E-02 0. -1.
         11    1    1    2    0    0 -0.20527346319E+03 -0.41357910436E+02  0.77248092974E+03  0.80035895588E+03  0.51100000000E-03 0. -1.
         22    1    1    2    0    0  0.13595910798E+03  0.85046686171E+02  0.13222944063E+03  0.20785197339E+03  0.00000000000E+00 0. -1.
          2    1    1    2  501    0  0.69314355210E+02 -0.43688775734E+02  0.51980077047E+01  0.82098771331E+02  0.25500000000E-02 0. -1.
<mgrwt>
<rscale>  0 0.81934053E+02</rscale>
<asrwt>0</asrwt>
<pdfrwt beam="1">  1       11 0.10000000E+01 0.19401867E+03</pdfrwt>
<pdfrwt beam="2">  1        2 0.13878538E-01 0.81934053E+02</pdfrwt>
<totfact> 0.50013031E+02</totfact>
</mgrwt>
</event>
<event>
 5    1  0.6729100E-004  0.2643763E+03  0.7818608E-02  0.1105557E+00
         11   -1    0    0    0    0  0.00000000000E+00  0.00000000000E+00  0.10001966433E+04  0.10001966433E+04  0.51100000000E-03 0. -1.
          2   -1    0    0  501    0 -0.00000000000E+00 -0.00000000000E+00 -0.37548365790E+03  0.37548365791E+03  0.25500000000E-02 0.  1.
         11    1    1    2    0    0 -0.23146492949E+03 -0.92089337698E+02  0.85728217527E+03  0.89274250921E+03  0.51100000000E-03 0. -1.
         22    1    1    2    0    0 -0.11419938801E+02 -0.78904086681E+01  0.76263395206E+02  0.77516314409E+02  0.00000000000E+00 0.  1.
          2    1    1    2  501    0  0.24288486829E+03  0.99979746366E+02 -0.30883258505E+03  0.40542147763E+03  0.25500000000E-02 0.  1.
<mgrwt>
<rscale>  0 0.26265759E+03</rscale>
<asrwt>0</asrwt>
<pdfrwt beam="1">  1       11 0.10000000E+01 0.26437635E+03</pdfrwt>
<pdfrwt beam="2">  1        2 0.57778074E-01 0.26265759E+03</pdfrwt>
<totfact> 0.10637286E+02</totfact>
</mgrwt>
</event>
<event>
 5    1  0.6729100E-004  0.2306175E+03  0.7818608E-02  0.1188338E+00
         11   -1    0    0    0    0  0.00000000000E+00  0.00000000000E+00  0.10000429166E+04  0.10000429166E+04  0.51100000000E-03 0.  1.
          2   -1    0    0  501    0 -0.00000000000E+00 -0.00000000000E+00 -0.22613076869E+03  0.22613076870E+03  0.25500000000E-02 0.  1.
         11    1    1    2    0    0  0.23920832636E+03 -0.12220728672E+02  0.86840742851E+03  0.90083374243E+03  0.51100000000E-03 0.  1.
         22    1    1    2    0    0 -0.10670805681E+03 -0.32158911334E+02  0.51917257741E+02  0.12294798338E+03  0.00000000000E+00 0.  1.
          2    1    1    2  501    0 -0.13250026954E+03  0.44379640006E+02 -0.14641253834E+03  0.20239195949E+03  0.25500000000E-02 0.  1.
<mgrwt>
<rscale>  0 0.16031849E+03</rscale>
<asrwt>0</asrwt>
<pdfrwt beam="1">  1       11 0.10000000E+01 0.23061755E+03</pdfrwt>
<pdfrwt beam="2">  1        2 0.34790841E-01 0.16031849E+03</pdfrwt>
<totfact> 0.18335856E+02</totfact>
</mgrwt>
</event>
<event>
 5    1  0.6729100E-004  0.1999040E+03  0.7818608E-02  0.1149820E+00
         11   -1    0    0    0    0  0.00000000000E+00  0.00000000000E+00  0.10000781272E+04  0.10000781272E+04  0.51100000000E-03 0.  1.
          2   -1    0    0  501    0 -0.00000000000E+00 -0.00000000000E+00 -0.87381628652E+02  0.87381628689E+02  0.25500000000E-02 0.  1.
         11    1    1    2    0    0  0.50924193987E+02  0.19193289352E+03  0.67649011208E+02  0.20978059458E+03  0.51100000000E-03 0.  1.
         22    1    1    2    0    0 -0.23887320445E+02  0.14737348127E+02  0.12215275828E+03  0.12533590811E+03  0.00000000000E+00 0. -1.
          2    1    1    2  501    0 -0.27036873541E+02 -0.20667024164E+03  0.72289472907E+03  0.75234325320E+03  0.25500000000E-02 0.  1.
<mgrwt>
<rscale>  0 0.19990402E+03</rscale>
<asrwt>0</asrwt>
<pdfrwt beam="1">  1       11 0.10000000E+01 0.28067659E+02</pdfrwt>
<pdfrwt beam="2">  1        2 0.13444377E-01 0.19990402E+03</pdfrwt>
<totfact> 0.54131988E+02</totfact>
</mgrwt>
</event>
<event>
 5    1  0.6729100E-004  0.8941014E+02  0.7818608E-02  0.1565285E+00
         11   -1    0    0    0    0  0.00000000000E+00  0.00000000000E+00  0.10003956226E+04  0.10003956226E+04  0.51100000000E-03 0. -1.
         -2   -1    0    0    0  501 -0.00000000000E+00 -0.00000000000E+00 -0.80238880918E+02  0.80238880959E+02  0.25500000000E-02 0. -1.
         11    1    1    2    0    0  0.59387216310E+01  0.87857933171E+02  0.48799699847E+03  0.49587836750E+03  0.51100000000E-03 0. -1.
         22    1    1    2    0    0 -0.39047429097E+02 -0.85533235841E+02  0.50024885985E+03  0.50900840654E+03  0.00000000000E+00 0.  1.
         -2    1    1    2    0  501  0.33108707466E+02 -0.23246973299E+01 -0.68089116597E+02  0.75747729558E+02  0.25500000000E-02 0. -1.
<mgrwt>
<rscale>  0 0.33190220E+02</rscale>
<asrwt>0</asrwt>
<pdfrwt beam="1">  1       11 0.10000000E+01 0.89410140E+02</pdfrwt>
<pdfrwt beam="2">  1       -2 0.12349327E-01 0.33190220E+02</pdfrwt>
<totfact> 0.33271766E+02</totfact>
</mgrwt>
</event>
<event>
 5    1  0.6729100E-004  0.1354886E+03  0.7818608E-02  0.1329279E+00
         11   -1    0    0    0    0  0.00000000000E+00  0.00000000000E+00  0.10003051021E+04  0.10003051021E+04  0.51100000000E-03 0. -1.
          2   -1    0    0  501    0 -0.00000000000E+00 -0.00000000000E+00 -0.72332890802E+02  0.72332890847E+02  0.25500000000E-02 0. -1.
         11    1    1    2    0    0  0.42741415847E+02  0.12710470787E+03  0.61236708738E+03  0.62687788691E+03  0.51100000000E-03 0. -1.
         22    1    1    2    0    0  0.33746712288E+02 -0.15027259254E+03  0.33035276809E+03  0.36449093822E+03  0.00000000000E+00 0. -1.
          2    1    1    2  501    0 -0.76488128135E+02  0.23167884672E+02 -0.14747644157E+02  0.81269167834E+02  0.25500000000E-02 0. -1.
<mgrwt>
<rscale>  0 0.79919864E+02</rscale>
<asrwt>0</asrwt>
<pdfrwt beam="1">  1       11 0.10000000E+01 0.13548857E+03</pdfrwt>
<pdfrwt beam="2">  1        2 0.11131532E-01 0.79919864E+02</pdfrwt>
<totfact> 0.64762306E+02</totfact>
</mgrwt>
</event>
<event>
 5    1  0.6729100E-004  0.1800584E+03  0.7818608E-02  0.1167747E+00
         11   -1    0    0    0    0  0.00000000000E+00  0.00000000000E+00  0.99983087424E+03  0.99983087424E+03  0.51100000000E-03 0. -1.
          2   -1    0    0  501    0 -0.00000000000E+00 -0.00000000000E+00 -0.28053828025E+03  0.28053828026E+03  0.25500000000E-02 0. -1.
         11    1    1    2    0    0 -0.15639735941E+03 -0.56142109346E+01  0.77844962372E+03  0.79402485481E+03  0.51100000000E-03 0. -1.
         22    1    1    2    0    0 -0.17375918199E+02 -0.45567251759E+02  0.17990557605E+03  0.18639826517E+03  0.00000000000E+00 0. -1.
          2    1    1    2  501    0  0.17377327761E+03  0.51181462694E+02 -0.23906260578E+03  0.29994603451E+03  0.25500000000E-02 0. -1.
<mgrwt>
<rscale>  0 0.18005841E+03</rscale>
<asrwt>0</asrwt>
<pdfrwt beam="1">  1       11 0.10000000E+01 0.48767786E+02</pdfrwt>
<pdfrwt beam="2">  1        2 0.43152435E-01 0.18005841E+03</pdfrwt>
<totfact> 0.14568965E+02</totfact>
</mgrwt>
</event>
<event>
 5    1  0.6729100E-004  0.2891036E+02  0.7818608E-02  0.1667423E+00
         11   -1    0    0    0    0  0.00000000000E+00  0.00000000000E+00  0.10001748218E+04  0.10001748218E+04  0.51100000000E-03 0.  1.
          2   -1    0    0  501    0 -0.00000000000E+00 -0.00000000000E+00 -0.61601988117E+01  0.61601993395E+01  0.25500000000E-02 0.  1.
         11    1    1    2    0    0  0.28375899132E+02  0.59727348309E+01  0.38773838976E+02  0.48417721984E+02  0.51100000000E-03 0.  1.
         22    1    1    2    0    0 -0.30401447580E+01 -0.20639298931E+02  0.98904843373E+02  0.10108111190E+03  0.00000000000E+00 0.  1.
          2    1    1    2  501    0 -0.25335754374E+02  0.14666564100E+02  0.85633594067E+03  0.85683618728E+03  0.25500000000E-02 0.  1.
<mgrwt>
<rscale>  0 0.24558660E+02</rscale>
<asrwt>0</asrwt>
<pdfrwt beam="1">  1       11 0.10000000E+01 0.28910364E+02</pdfrwt>
<pdfrwt beam="2">  1        2 0.94788859E-03 0.24558660E+02</pdfrwt>
<totfact> 0.12813537E+04</totfact>
</mgrwt>
</event>
<event>
 5    1  0.6729100E-004  0.5545099E+03  0.7818608E-02  0.1000455E+00
         11   -1    0    0    0    0  0.00000000000E+00  0.00000000000E+00  0.10000899122E+04  0.10000899122E+04  0.51100000000E-03 0. -1.
          2   -1    0    0  501    0 -0.00000000000E+00 -0.00000000000E+00 -0.63197171047E+03  0.63197171047E+03  0.25500000000E-02 0. -1.
         11    1    1    2    0    0  0.46837217016E+02  0.50888181456E+03  0.29163796198E+03  0.58839368364E+03  0.51100000000E-03 0. -1.
         22    1    1    2    0    0 -0.34059326079E+02  0.62645701997E+02  0.38672114253E+03  0.39324008411E+03  0.00000000000E+00 0.  1.
          2    1    1    2  501    0 -0.12777890937E+02 -0.57152751655E+03 -0.31024090278E+03  0.65042785491E+03  0.25500000000E-02 0. -1.
<mgrwt>
<rscale>  0 0.55450992E+03</rscale>
<asrwt>0</asrwt>
<pdfrwt beam="1">  1       11 0.10000000E+01 0.71305832E+02</pdfrwt>
<pdfrwt beam="2">  1        2 0.97235156E-01 0.55450992E+03</pdfrwt>
<totfact> 0.58120909E+01</totfact>
</mgrwt>
</event>
<event>
 5    1  0.6729100E-004  0.2162565E+03  0.7818608E-02  0.1156516E+00
         11   -1    0    0    0    0  0.00000000000E+00  0.00000000000E+00  0.10000710336E+04  0.10000710336E+04  0.51100000000E-03 0.  1.
          2   -1    0    0  501    0 -0.00000000000E+00 -0.00000000000E+00 -0.26106637915E+03  0.26106637916E+03  0.25500000000E-02 0.  1.
         11    1    1    2    0    0 -0.12771357880E+03  0.50576704273E+02  0.55149529964E+03  0.56834481325E+03  0.51100000000E-03 0.  1.
         22    1    1    2    0    0 -0.17382916276E+02  0.75429501166E+02  0.39934454332E+03  0.40677738347E+03  0.00000000000E+00 0. -1.
          2    1    1    2  501    0  0.14509649507E+03 -0.12600620544E+03 -0.21183518853E+03  0.28601521602E+03  0.25500000000E-02 0.  1.
<mgrwt>
<rscale>  0 0.19217325E+03</rscale>
<asrwt>0</asrwt>
<pdfrwt beam="1">  1       11 0.10000000E+01 0.21625654E+03</pdfrwt>
<pdfrwt beam="2">  1        2 0.40166910E-01 0.19217325E+03</pdfrwt>
<totfact> 0.15739309E+02</totfact>
</mgrwt>
</event>
<event>
 5    1  0.6729100E-004  0.9660431E+02  0.7818608E-02  0.1657360E+00
         11   -1    0    0    0    0  0.00000000000E+00  0.00000000000E+00  0.10002217689E+04  0.10002217689E+04  0.51100000000E-03 0. -1.
         -2   -1    0    0    0  501 -0.00000000000E+00 -0.00000000000E+00 -0.25491520779E+02  0.25491520907E+02  0.25500000000E-02 0. -1.
         11    1    1    2    0    0 -0.32164835367E+02 -0.85424301526E+02  0.52492543366E+03  0.53280258898E+03  0.51100000000E-03 0. -1.
         22    1    1    2    0    0  0.16136462905E+02  0.10494171976E+03  0.45491698624E+03  0.46714303415E+03  0.00000000000E+00 0. -1.
         -2    1    1    2    0  501  0.16028372463E+02 -0.19517418231E+02 -0.51121717950E+01  0.25767666662E+02  0.25500000000E-02 0. -1.
<mgrwt>
<rscale>  0 0.25255462E+02</rscale>
<asrwt>0</asrwt>
<pdfrwt beam="1">  1       11 0.10000000E+01 0.96604306E+02</pdfrwt>
<pdfrwt beam="2">  1       -2 0.39226421E-02 0.25255462E+02</pdfrwt>
<totfact> 0.17296724E+03</totfact>
</mgrwt>
</event>
<event>
 5    1  0.6729100E-004  0.2728467E+03  0.7818608E-02  0.1377230E+00
         11   -1    0    0    0    0  0.00000000000E+00  0.00000000000E+00  0.10000376879E+04  0.10000376879E+04  0.51100000000E-03 0.  1.
          2   -1    0    0  501    0 -0.00000000000E+00 -0.00000000000E+00 -0.12723125800E+03  0.12723125802E+03  0.25500000000E-02 0.  1.
         11    1    1    2    0    0  0.25065723441E+03  0.35691193393E+02  0.41621029382E+03  0.48716929207E+03  0.51100000000E-03 0.  1.
         22    1    1    2    0    0 -0.28401945513E+03 -0.91706079806E+02  0.48460630068E+03  0.56913998509E+03  0.00000000000E+00 0.  1.
          2    1    1    2  501    0  0.33362220717E+02  0.56014886413E+02 -0.28010164564E+02  0.70959668801E+02  0.25500000000E-02 0.  1.
<mgrwt>
<rscale>  0 0.65197433E+02</rscale>
<asrwt>0</asrwt>
<pdfrwt beam="1">  1       11 0.10000000E+01 0.27284674E+03</pdfrwt>
<pdfrwt beam="2">  1        2 0.19574777E-01 0.65197433E+02</pdfrwt>
<totfact> 0.33482756E+02</totfact>
</mgrwt>
</event>
<event>
 5    1  0.6729100E-004  0.6260495E+03  0.7818608E-02  0.9852788E-01
         11   -1    0    0    0    0  0.00000000000E+00  0.00000000000E+00  0.10002539096E+04  0.10002539096E+04  0.51100000000E-03 0. -1.
          2   -1    0    0  501    0 -0.00000000000E+00 -0.00000000000E+00 -0.62024171499E+03  0.62024171500E+03  0.25500000000E-02 0. -1.
         11    1    1    2    0    0 -0.57143665609E+03 -0.22417294693E+03  0.55582748332E+03  0.82809272021E+03  0.51100000000E-03 0. -1.
         22    1    1    2    0    0  0.66675420675E+00 -0.42477276845E+02  0.96991247540E+02  0.10588704221E+03  0.00000000000E+00 0.  1.
          2    1    1    2  501    0  0.57076990188E+03  0.26665022377E+03 -0.27280653628E+03  0.68651586214E+03  0.25500000000E-02 0. -1.
<mgrwt>
<rscale>  0 0.62604948E+03</rscale>
<asrwt>0</asrwt>
<pdfrwt beam="1">  1       11 0.10000000E+01 0.42482509E+02</pdfrwt>
<pdfrwt beam="2">  1        2 0.95446028E-01 0.62604948E+03</pdfrwt>
<totfact> 0.59262431E+01</totfact>
</mgrwt>
</event>
<event>
 5    1  0.6729100E-004  0.7100796E+03  0.7818608E-02  0.9700148E-01
         11   -1    0    0    0    0  0.00000000000E+00  0.00000000000E+00  0.10007658836E+04  0.10007658836E+04  0.51100000000E-03 0.  1.
          2   -1    0    0  501    0 -0.00000000000E+00 -0.00000000000E+00 -0.18186995385E+04  0.18186995385E+04  0.25500000000E-02 0.  1.
         11    1    1    2    0    0 -0.29649490055E+03  0.63950807146E+03  0.73100179004E+03  0.10155015591E+04  0.51100000000E-03 0.  1.
         22    1    1    2    0    0 -0.11491506049E+02  0.80471138072E+00  0.51563602052E+02  0.52834717074E+02  0.00000000000E+00 0. -1.
          2    1    1    2  501    0  0.30798640660E+03 -0.64031278284E+03 -0.16004990470E+04  0.17511291460E+04  0.25500000000E-02 0.  1.
<mgrwt>
<rscale>  0 0.71007963E+03</rscale>
<asrwt>0</asrwt>
<pdfrwt beam="1">  1       11 0.10000000E+01 0.11519647E+02</pdfrwt>
<pdfrwt beam="2">  1        2 0.28001422E+00 0.71007963E+03</pdfrwt>
<totfact> 0.10661843E+01</totfact>
</mgrwt>
</event>
<event>
 5    1  0.6729100E-004  0.9359846E+03  0.7818608E-02  0.9381684E-01
         11   -1    0    0    0    0  0.00000000000E+00  0.00000000000E+00  0.10004795180E+04  0.10004795180E+04  0.51100000000E-03 0. -1.
          2   -1    0    0  501    0 -0.00000000000E+00 -0.00000000000E+00 -0.15083815929E+04  0.15083815929E+04  0.25500000000E-02 0. -1.
         11    1    1    2    0    0 -0.32901787675E+03  0.74470668911E+03 -0.15434263368E+03  0.82865099083E+03  0.51100000000E-03 0. -1.
         22    1    1    2    0    0 -0.16484526384E+03  0.16609313198E+03  0.35487582431E+03  0.42508556807E+03  0.00000000000E+00 0. -1.
          2    1    1    2  501    0  0.49386314059E+03 -0.91079982109E+03 -0.70843526543E+03  0.12551245520E+04  0.25500000000E-02 0. -1.
<mgrwt>
<rscale>  0 0.93598460E+03</rscale>
<asrwt>0</asrwt>
<pdfrwt beam="1">  1       11 0.10000000E+01 0.23401045E+03</pdfrwt>
<pdfrwt beam="2">  1        2 0.23216998E+00 0.93598460E+03</pdfrwt>
<totfact> 0.15492897E+01</totfact>
</mgrwt>
</event>
<event>
 5    1  0.6729100E-004  0.2243152E+03  0.7818608E-02  0.1136458E+00
         11   -1    0    0    0    0  0.00000000000E+00  0.00000000000E+00  0.10004313529E+04  0.10004313529E+04  0.51100000000E-03 0. -1.
         -2   -1    0    0    0  501 -0.00000000000E+00 -0.00000000000E+00 -0.49550554767E+03  0.49550554767E+03  0.25500000000E-02 0.  1.
         11    1    1    2    0    0  0.11206676543E+03  0.99545985110E+02  0.75170981784E+03  0.76650897796E+03  0.51100000000E-03 0. -1.
         22    1    1    2    0    0  0.63251762870E+02  0.27617419619E+02  0.21153641244E+03  0.22251103604E+03  0.00000000000E+00 0.  1.
         -2    1    1    2    0  501 -0.17531852830E+03 -0.12716340473E+03 -0.45832042504E+03  0.50691688657E+03  0.25500000000E-02 0.  1.
<mgrwt>
<rscale>  0 0.21658051E+03</rscale>
<asrwt>0</asrwt>
<pdfrwt beam="1">  1       11 0.10000000E+01 0.22431515E+03</pdfrwt>
<pdfrwt beam="2">  1       -2 0.76264503E-01 0.21658051E+03</pdfrwt>
<totfact> 0.12908681E+01</totfact>
</mgrwt>
</event>
<event>
 5    1  0.6729100E-004  0.1916661E+03  0.7818608E-02  0.1156967E+00
         11   -1    0    0    0    0  0.00000000000E+00  0.00000000000E+00  0.10003417348E+04  0.10003417348E+04  0.51100000000E-03 0. -1.
          2   -1    0    0  501    0 -0.00000000000E+00 -0.00000000000E+00 -0.29898073303E+03  0.29898073305E+03  0.25500000000E-02 0. -1.
         11    1    1    2    0    0  0.18489467129E+03  0.60907596535E+02  0.90182273010E+03  0.92259417477E+03  0.51100000000E-03 0. -1.
         22    1    1    2    0    0 -0.62548404614E+01  0.82795293245E+01  0.55811169686E+02  0.56767599005E+02  0.00000000000E+00 0.  1.
          2    1    1    2  501    0 -0.17863983082E+03 -0.69187125860E+02 -0.25627289797E+03  0.31996069412E+03  0.25500000000E-02 0. -1.
<mgrwt>
<rscale>  0 0.19166613E+03</rscale>
<asrwt>0</asrwt>
<pdfrwt beam="1">  1       11 0.10000000E+01 0.10376591E+02</pdfrwt>
<pdfrwt beam="2">  1        2 0.46012753E-01 0.19166613E+03</pdfrwt>
<totfact> 0.13605666E+02</totfact>
</mgrwt>
</event>
<event>
 5    1  0.6729100E-004  0.1900890E+03  0.7818608E-02  0.1158381E+00
         11   -1    0    0    0    0  0.00000000000E+00  0.00000000000E+00  0.10001085456E+04  0.10001085456E+04  0.51100000000E-03 0.  1.
          2   -1    0    0  501    0 -0.00000000000E+00 -0.00000000000E+00 -0.48815818746E+02  0.48815818813E+02  0.25500000000E-02 0.  1.
         11    1    1    2    0    0 -0.43168184869E+02 -0.18050651908E+03  0.55590654279E+03  0.58607011520E+03  0.51100000000E-03 0.  1.
         22    1    1    2    0    0  0.21801289980E+02 -0.11108280643E+02  0.14390378897E+03  0.14596914271E+03  0.00000000000E+00 0.  1.
          2    1    1    2  501    0  0.21366894889E+02  0.19161479972E+03  0.25148239506E+03  0.31688510646E+03  0.25500000000E-02 0.  1.
<mgrwt>
<rscale>  0 0.19008901E+03</rscale>
<asrwt>0</asrwt>
<pdfrwt beam="1">  1       11 0.10000000E+01 0.24468145E+02</pdfrwt>
<pdfrwt beam="2">  1        2 0.75109409E-02 0.19008901E+03</pdfrwt>
<totfact> 0.11101312E+03</totfact>
</mgrwt>
</event>
<event>
 5    1  0.6729100E-004  0.7469333E+02  0.7818608E-02  0.1503446E+00
         11   -1    0    0    0    0  0.00000000000E+00  0.00000000000E+00  0.10004035588E+04  0.10004035588E+04  0.51100000000E-03 0. -1.
          2   -1    0    0  501    0 -0.00000000000E+00 -0.00000000000E+00 -0.75476925407E+01  0.75476929714E+01  0.25500000000E-02 0. -1.
         11    1    1    2    0    0 -0.32731850120E+02 -0.70886931420E+02  0.45652898598E+03  0.46315769032E+03  0.51100000000E-03 0. -1.
         22    1    1    2    0    0 -0.15378791000E+02  0.15910649909E+02  0.10282551174E+03  0.10517956958E+03  0.00000000000E+00 0. -1.
          2    1    1    2  501    0  0.48110641120E+02  0.54976281511E+02  0.43350136852E+03  0.43961399185E+03  0.25500000000E-02 0. -1.
<mgrwt>
<rscale>  0 0.40654962E+02</rscale>
<asrwt>0</asrwt>
<pdfrwt beam="1">  1       11 0.10000000E+01 0.74693326E+02</pdfrwt>
<pdfrwt beam="2">  1        2 0.11616521E-02 0.40654962E+02</pdfrwt>
<totfact> 0.10863561E+04</totfact>
</mgrwt>
</event>
<event>
 5    1  0.6729100E-004  0.1341582E+03  0.7818608E-02  0.1313718E+00
         11   -1    0    0    0    0  0.00000000000E+00  0.00000000000E+00  0.10001130748E+04  0.10001130748E+04  0.51100000000E-03 0. -1.
          2   -1    0    0  501    0 -0.00000000000E+00 -0.00000000000E+00 -0.54755531140E+03  0.54755531140E+03  0.25500000000E-02 0. -1.
         11    1    1    2    0    0  0.26223539573E+02 -0.19846277662E+03  0.35799463098E+03  0.41016497113E+03  0.51100000000E-03 0. -1.
         22    1    1    2    0    0 -0.38240961196E+02  0.11365080469E+03  0.60660637396E+03  0.61834470116E+03  0.00000000000E+00 0. -1.
          2    1    1    2  501    0  0.12017421622E+02  0.84811971933E+02 -0.51204324155E+03  0.51915871391E+03  0.25500000000E-02 0. -1.
<mgrwt>
<rscale>  0 0.85659144E+02</rscale>
<asrwt>0</asrwt>
<pdfrwt beam="1">  1       11 0.10000000E+01 0.13415825E+03</pdfrwt>
<pdfrwt beam="2">  1        2 0.84248802E-01 0.85659144E+02</pdfrwt>
<totfact> 0.71461471E+01</totfact>
</mgrwt>
</event>
<event>
 5    1  0.6729100E-004  0.1800820E+03  0.7818608E-02  0.1167724E+00
         11   -1    0    0    0    0  0.00000000000E+00  0.00000000000E+00  0.10003964873E+04  0.10003964873E+04  0.51100000000E-03 0. -1.
         -2   -1    0    0    0  501 -0.00000000000E+00 -0.00000000000E+00 -0.12475063765E+04  0.12475063765E+04  0.25500000000E-02 0. -1.
         11    1    1    2    0    0 -0.21421898413E+03  0.50585082363E+02  0.51492445082E+03  0.55999626228E+03  0.51100000000E-03 0. -1.
         22    1    1    2    0    0  0.76223192310E+02  0.64788220430E+02  0.45082054708E+03  0.46178637293E+03  0.00000000000E+00 0. -1.
         -2    1    1    2    0  501  0.13799579182E+03 -0.11537330279E+03 -0.12128548872E+04  0.12261202286E+04  0.25500000000E-02 0. -1.
<mgrwt>
<rscale>  0 0.18008201E+03</rscale>
<asrwt>0</asrwt>
<pdfrwt beam="1">  1       11 0.10000000E+01 0.10003744E+03</pdfrwt>
<pdfrwt beam="2">  1       -2 0.19200015E+00 0.18008201E+03</pdfrwt>
<totfact> 0.13542524E+00</totfact>
</mgrwt>
</event>
<event>
 5    1  0.6729100E-004  0.2391655E+03  0.7818608E-02  0.1120350E+00
         11   -1    0    0    0    0  0.00000000000E+00  0.00000000000E+00  0.10001040543E+04  0.10001040543E+04  0.51100000000E-03 0. -1.
          2   -1    0    0  501    0 -0.00000000000E+00 -0.00000000000E+00 -0.12142955307E+03  0.12142955310E+03  0.25500000000E-02 0.  1.
         11    1    1    2    0    0  0.62189889003E+02  0.19932872722E+03  0.31920288693E+03  0.38143152310E+03  0.51100000000E-03 0. -1.
         22    1    1    2    0    0 -0.14999021759E+03  0.69835246412E+02  0.35249292494E+03  0.38939092073E+03  0.00000000000E+00 0. -1.
          2    1    1    2  501    0  0.87800328586E+02 -0.26916397364E+03  0.20697868937E+03  0.35071116358E+03  0.25500000000E-02 0.  1.
<mgrwt>
<rscale>  0 0.23916554E+03</rscale>
<asrwt>0</asrwt>
<pdfrwt beam="1">  1       11 0.10000000E+01 0.16545098E+03</pdfrwt>
<pdfrwt beam="2">  1        2 0.18683413E-01 0.23916554E+03</pdfrwt>
<totfact> 0.36964511E+02</totfact>
</mgrwt>
</event>
<event>
 5    1  0.6729100E-004  0.7976222E+03  0.7818608E-02  0.9563465E-01
         11   -1    0    0    0    0  0.00000000000E+00  0.00000000000E+00  0.10001991594E+04  0.10001991594E+04  0.51100000000E-03 0.  1.
          2   -1    0    0  501    0 -0.00000000000E+00 -0.00000000000E+00 -0.10328291275E+04  0.10328291275E+04  0.25500000000E-02 0.  1.
         11    1    1    2    0    0 -0.21932875266E+03 -0.75125138850E+03  0.27994775634E+03  0.83117657375E+03  0.51100000000E-03 0.  1.
         22    1    1    2    0    0 -0.13323015359E+03  0.25600405764E+02  0.20318435907E+03  0.24431442522E+03  0.00000000000E+00 0.  1.
          2    1    1    2  501    0  0.35255890626E+03  0.72565098273E+03 -0.51576208346E+03  0.95753728797E+03  0.25500000000E-02 0.  1.
<mgrwt>
<rscale>  0 0.79762218E+03</rscale>
<asrwt>0</asrwt>
<pdfrwt beam="1">  1       11 0.10000000E+01 0.13566744E+03</pdfrwt>
<pdfrwt beam="2">  1        2 0.15892843E+00 0.79762218E+03</pdfrwt>
<totfact> 0.29767146E+01</totfact>
</mgrwt>
</event>
<event>
 5    1  0.6729100E-004  0.1258274E+03  0.7818608E-02  0.1404169E+00
         11   -1    0    0    0    0  0.00000000000E+00  0.00000000000E+00  0.10004164232E+04  0.10004164232E+04  0.51100000000E-03 0. -1.
          2   -1    0    0  501    0 -0.00000000000E+00 -0.00000000000E+00 -0.27835862181E+02  0.27835862297E+02  0.25500000000E-02 0. -1.
         11    1    1    2    0    0 -0.11334516615E+03 -0.89728456588E+02  0.27479620870E+03  0.31050165689E+03  0.51100000000E-03 0. -1.
         22    1    1    2    0    0  0.12504813284E+02  0.24169126999E+02  0.36015350996E+02  0.45140032815E+02  0.00000000000E+00 0.  1.
          2    1    1    2  501    0  0.10084035286E+03  0.65559329589E+02  0.66176900128E+03  0.67261059576E+03  0.25500000000E-02 0. -1.
<mgrwt>
<rscale>  0 0.58515536E+02</rscale>
<asrwt>0</asrwt>
<pdfrwt beam="1">  1       11 0.10000000E+01 0.12582735E+03</pdfrwt>
<pdfrwt beam="2">  1        2 0.42842235E-02 0.58515536E+02</pdfrwt>
<totfact> 0.20665387E+03</totfact>
</mgrwt>
</event>
<event>
 5    1  0.6729100E-004  0.3234007E+03  0.7818608E-02  0.1084494E+00
         11   -1    0    0    0    0  0.00000000000E+00  0.00000000000E+00  0.10001669038E+04  0.10001669038E+04  0.51100000000E-03 0. -1.
          2   -1    0    0  501    0 -0.00000000000E+00 -0.00000000000E+00 -0.16757678730E+03  0.16757678732E+03  0.25500000000E-02 0. -1.
         11    1    1    2    0    0  0.22636826794E+03 -0.10767153302E+03  0.52257640623E+03  0.57958765696E+03  0.51100000000E-03 0. -1.
         22    1    1    2    0    0  0.32641347386E+02 -0.46650410378E+02  0.27936045191E+03  0.28510345568E+03  0.00000000000E+00 0.  1.
          2    1    1    2  501    0 -0.25900961532E+03  0.15432194339E+03  0.30653258316E+02  0.30305257843E+03  0.25500000000E-02 0. -1.
<mgrwt>
<rscale>  0 0.30149833E+03</rscale>
<asrwt>0</asrwt>
<pdfrwt beam="1">  1       11 0.10000000E+01 0.32340067E+03</pdfrwt>
<pdfrwt beam="2">  1        2 0.25785346E-01 0.30149833E+03</pdfrwt>
<totfact> 0.25740971E+02</totfact>
</mgrwt>
</event>
<event>
 5    1  0.6729100E-004  0.1593293E+03  0.7818608E-02  0.1416440E+00
         11   -1    0    0    0    0  0.00000000000E+00  0.00000000000E+00  0.10003151731E+04  0.10003151731E+04  0.51100000000E-03 0.  1.
          2   -1    0    0  501    0 -0.00000000000E+00 -0.00000000000E+00 -0.28690522178E+02  0.28690522291E+02  0.25500000000E-02 0.  1.
         11    1    1    2    0    0 -0.11733205852E+03  0.10634517941E+03  0.45723646793E+03  0.48388149040E+03  0.51100000000E-03 0.  1.
         22    1    1    2    0    0  0.12050963248E+02  0.15367516761E+02  0.55999968267E+02  0.59307526778E+02  0.00000000000E+00 0. -1.
          2    1    1    2  501    0  0.10528109527E+03 -0.12171269617E+03  0.45838821475E+03  0.48581667824E+03  0.25500000000E-02 0.  1.
<mgrwt>
<rscale>  0 0.55781355E+02</rscale>
<asrwt>0</asrwt>
<pdfrwt beam="1">  1       11 0.10000000E+01 0.15932928E+03</pdfrwt>
<pdfrwt beam="2">  1        2 0.44153175E-02 0.55781355E+02</pdfrwt>
<totfact> 0.19778741E+03</totfact>
</mgrwt>
</event>
<event>
 5    1  0.6729100E-004  0.8897835E+02  0.7818608E-02  0.1688690E+00
         11   -1    0    0    0    0  0.00000000000E+00  0.00000000000E+00  0.10003193876E+04  0.10003193876E+04  0.51100000000E-03 0. -1.
          2   -1    0    0  501    0 -0.00000000000E+00 -0.00000000000E+00 -0.83041548508E+03  0.83041548508E+03  0.25500000000E-02 0.  1.
         11    1    1    2    0    0  0.72894752888E+02  0.69803562108E+02  0.55092154460E+03  0.56008993080E+03  0.51100000000E-03 0. -1.
         22    1    1    2    0    0 -0.63282746824E+02 -0.48715934931E+02  0.44106441889E+03  0.44823628811E+03  0.00000000000E+00 0. -1.
          2    1    1    2  501    0 -0.96120060645E+01 -0.21087627177E+02 -0.82208206102E+03  0.82240865373E+03  0.25500000000E-02 0.  1.
<mgrwt>
<rscale>  0 0.23174958E+02</rscale>
<asrwt>0</asrwt>
<pdfrwt beam="1">  1       11 0.10000000E+01 0.88978355E+02</pdfrwt>
<pdfrwt beam="2">  1        2 0.12779703E+00 0.23174958E+02</pdfrwt>
<totfact> 0.46550705E+01</totfact>
</mgrwt>
</event>
<event>
 5    1  0.6729100E-004  0.1435553E+03  0.7818608E-02  0.1208624E+00
         11   -1    0    0    0    0  0.00000000000E+00  0.00000000000E+00  0.99997054326E+03  0.99997054326E+03  0.51100000000E-03 0. -1.
         -2   -1    0    0    0  501 -0.00000000000E+00 -0.00000000000E+00 -0.10925781445E+03  0.10925781448E+03  0.25500000000E-02 0. -1.
         11    1    1    2    0    0 -0.15559733427E+03 -0.44839305011E+02  0.87312098907E+03  0.88800977205E+03  0.51100000000E-03 0. -1.
         22    1    1    2    0    0  0.21339538301E+02 -0.29622194466E+01  0.67003565923E+02  0.70382018196E+02  0.00000000000E+00 0.  1.
         -2    1    1    2    0  501  0.13425779597E+03  0.47801524458E+02 -0.49411826179E+02  0.15083656749E+03  0.25500000000E-02 0. -1.
<mgrwt>
<rscale>  0 0.14355529E+03</rscale>
<asrwt>0</asrwt>
<pdfrwt beam="1">  1       11 0.10000000E+01 0.21544156E+02</pdfrwt>
<pdfrwt beam="2">  1       -2 0.16808399E-01 0.14355529E+03</pdfrwt>
<totfact> 0.22168900E+02</totfact>
</mgrwt>
</event>
<event>
 5    1  0.6729100E-004  0.1085383E+03  0.7818608E-02  0.1292037E+00
         11   -1    0    0    0    0  0.00000000000E+00  0.00000000000E+00  0.10000433223E+04  0.10000433223E+04  0.51100000000E-03 0.  1.
          2   -1    0    0  501    0 -0.00000000000E+00 -0.00000000000E+00 -0.84253682245E+02  0.84253682283E+02  0.25500000000E-02 0.  1.
         11    1    1    2    0    0 -0.80534447206E+02  0.70803286327E+02 -0.23634026694E+02  0.10980651055E+03  0.51100000000E-03 0.  1.
         22    1    1    2    0    0 -0.29506869429E+02 -0.77026461661E+02  0.10852489208E+03  0.13631354790E+03  0.00000000000E+00 0.  1.
          2    1    1    2  501    0  0.11004131663E+03  0.62231753339E+01  0.83089877470E+03  0.83817694617E+03  0.25500000000E-02 0.  1.
<mgrwt>
<rscale>  0 0.94618979E+02</rscale>
<asrwt>0</asrwt>
<pdfrwt beam="1">  1       11 0.10000000E+01 0.10853834E+03</pdfrwt>
<pdfrwt beam="2">  1        2 0.12962666E-01 0.94618979E+02</pdfrwt>
<totfact> 0.54586456E+02</totfact>
</mgrwt>
</event>
<event>
 5    1  0.9798232E-004  0.4547455E+03  0.7818608E-02  0.1026316E+00
         11   -1    0    0    0    0  0.00000000000E+00  0.00000000000E+00  0.99652476223E+03  0.99652476223E+03  0.51100000000E-03 0. -1.
          2   -1    0    0  501    0 -0.00000000000E+00 -0.00000000000E+00 -0.44617131400E+04  0.44617131400E+04  0.25500000000E-02 0. -1.
         11    1    1    2    0    0 -0.36550249970E+03  0.34524349188E+03  0.85416726728E+03  0.99115431012E+03  0.51100000000E-03 0. -1.
         22    1    1    2    0    0  0.54733438747E+02 -0.14079612219E+02  0.49233144798E+02  0.74952567294E+02  0.00000000000E+00 0. -1.
          2    1    1    2  501    0  0.31076906095E+03 -0.33116387967E+03 -0.43685887898E+04  0.43921310248E+04  0.25500000000E-02 0. -1.
<mgrwt>
<rscale>  0 0.45474547E+03</rscale>
<asrwt>0</asrwt>
<pdfrwt beam="1">  1       11 0.10000000E+01 0.56515350E+02</pdfrwt>
<pdfrwt beam="2">  1        2 0.68403192E+00 0.45474547E+03</pdfrwt>
<totfact> 0.21419094E-01</totfact>
</mgrwt>
</event>
<event>
 5    1  0.6729100E-004  0.3837633E+03  0.7818608E-02  0.1050570E+00
         11   -1    0    0    0    0  0.00000000000E+00  0.00000000000E+00  0.10001596164E+04  0.10001596164E+04  0.51100000000E-03 0.  1.
          2   -1    0    0  501    0 -0.00000000000E+00 -0.00000000000E+00 -0.28630523370E+03  0.28630523371E+03  0.25500000000E-02 0.  1.
         11    1    1    2    0    0  0.34709509106E+03 -0.12960744679E+03  0.76225216343E+03  0.84752666811E+03  0.51100000000E-03 0.  1.
         22    1    1    2    0    0  0.88723528254E+01 -0.61731531721E+01  0.45324241514E+02  0.46595207195E+02  0.00000000000E+00 0.  1.
          2    1    1    2  501    0 -0.35596744389E+03  0.13578059996E+03 -0.93722022233E+02  0.39234297482E+03  0.25500000000E-02 0.  1.
<mgrwt>
<rscale>  0 0.38098450E+03</rscale>
<asrwt>0</asrwt>
<pdfrwt beam="1">  1       11 0.10000000E+01 0.38376331E+03</pdfrwt>
<pdfrwt beam="2">  1        2 0.44053988E-01 0.38098450E+03</pdfrwt>
<totfact> 0.14283021E+02</totfact>
</mgrwt>
</event>
<event>
 5    1  0.6729100E-004  0.1330769E+03  0.7818608E-02  0.1583053E+00
         11   -1    0    0    0    0  0.00000000000E+00  0.00000000000E+00  0.10004262150E+04  0.10004262150E+04  0.51100000000E-03 0.  1.
          2   -1    0    0  501    0 -0.00000000000E+00 -0.00000000000E+00 -0.53059305265E+03  0.53059305265E+03  0.25500000000E-02 0. -1.
         11    1    1    2    0    0 -0.14559252961E+03 -0.59386108858E+01  0.41811367063E+03  0.44277702441E+03  0.51100000000E-03 0.  1.
         22    1    1    2    0    0  0.12351271806E+03  0.28272097506E+02  0.56245079681E+03  0.57654627035E+03  0.00000000000E+00 0.  1.
          2    1    1    2  501    0  0.22079811549E+02 -0.22333486621E+02 -0.51073130508E+03  0.51169597291E+03  0.25500000000E-02 0. -1.
<mgrwt>
<rscale>  0 0.31405457E+02</rscale>
<asrwt>0</asrwt>
<pdfrwt beam="1">  1       11 0.10000000E+01 0.13307688E+03</pdfrwt>
<pdfrwt beam="2">  1        2 0.81664490E-01 0.31405457E+02</pdfrwt>
<totfact> 0.75035099E+01</totfact>
</mgrwt>
</event>
<event>
 5    1  0.6729100E-004  0.9420916E+02  0.7818608E-02  0.1292967E+00
         11   -1    0    0    0    0  0.00000000000E+00  0.00000000000E+00  0.10001611908E+04  0.10001611908E+04  0.51100000000E-03 0.  1.
          2   -1    0    0  501    0 -0.00000000000E+00 -0.00000000000E+00 -0.73276746248E+02  0.73276746292E+02  0.25500000000E-02 0.  1.
         11    1    1    2    0    0  0.73660398158E+02  0.12420805437E+02  0.21675718306E+03  0.22926798092E+03  0.51100000000E-03 0.  1.
         22    1    1    2    0    0 -0.10233083803E+03 -0.10044089971E+03  0.73456343339E+03  0.74842729267E+03  0.00000000000E+00 0.  1.
          2    1    1    2  501    0  0.28670439876E+02  0.88020094271E+02 -0.24436171868E+02  0.95742663532E+02  0.25500000000E-02 0.  1.
<mgrwt>
<rscale>  0 0.94209161E+02</rscale>
<asrwt>0</asrwt>
<pdfrwt beam="1">  1       11 0.10000000E+01 0.74700272E+02</pdfrwt>
<pdfrwt beam="2">  1        2 0.11275162E-01 0.94209161E+02</pdfrwt>
<totfact> 0.64407575E+02</totfact>
</mgrwt>
</event>
<event>
 5    1  0.6729100E-004  0.1845455E+03  0.7818608E-02  0.1163475E+00
         11   -1    0    0    0    0  0.00000000000E+00  0.00000000000E+00  0.10002671277E+04  0.10002671277E+04  0.51100000000E-03 0.  1.
          2   -1    0    0  501    0 -0.00000000000E+00 -0.00000000000E+00 -0.63617056797E+02  0.63617056848E+02  0.25500000000E-02 0. -1.
         11    1    1    2    0    0 -0.40854942177E+02  0.17154204746E+03  0.65567041077E+03  0.67896943076E+03  0.51100000000E-03 0.  1.
         22    1    1    2    0    0  0.34734647844E+02  0.15836718446E+02  0.15356094081E+03  0.15823482536E+03  0.00000000000E+00 0.  1.
          2    1    1    2  501    0  0.61202943326E+01 -0.18737876591E+03  0.12741871933E+03  0.22667992844E+03  0.25500000000E-02 0. -1.
<mgrwt>
<rscale>  0 0.18454548E+03</rscale>
<asrwt>0</asrwt>
<pdfrwt beam="1">  1       11 0.10000000E+01 0.38174565E+02</pdfrwt>
<pdfrwt beam="2">  1        2 0.97898537E-02 0.18454548E+03</pdfrwt>
<totfact> 0.79410549E+02</totfact>
</mgrwt>
</event>
<event>
 5    1  0.6729100E-004  0.3543722E+03  0.7818608E-02  0.1060835E+00
         11   -1    0    0    0    0  0.00000000000E+00  0.00000000000E+00  0.10001029737E+04  0.10001029737E+04  0.51100000000E-03 0. -1.
          2   -1    0    0  501    0 -0.00000000000E+00 -0.00000000000E+00 -0.18380942544E+03  0.18380942546E+03  0.25500000000E-02 0. -1.
         11    1    1    2    0    0  0.33828783279E+03  0.71889180508E+02  0.13464834447E+03  0.37112920763E+03  0.51100000000E-03 0. -1.
         22    1    1    2    0    0  0.15627729545E+02  0.59881977921E+02  0.13339332201E+03  0.14705052046E+03  0.00000000000E+00 0.  1.
          2    1    1    2  501    0 -0.35391556234E+03 -0.13177115843E+03  0.54825188182E+03  0.66573267111E+03  0.25500000000E-02 0. -1.
<mgrwt>
<rscale>  0 0.35437223E+03</rscale>
<asrwt>0</asrwt>
<pdfrwt beam="1">  1       11 0.10000000E+01 0.61887618E+02</pdfrwt>
<pdfrwt beam="2">  1        2 0.28281284E-01 0.35437223E+03</pdfrwt>
<totfact> 0.23269563E+02</totfact>
</mgrwt>
</event>
<event>
 5    1  0.6729100E-004  0.3027539E+03  0.7818608E-02  0.1086744E+00
         11   -1    0    0    0    0  0.00000000000E+00  0.00000000000E+00  0.99991623340E+03  0.99991623340E+03  0.51100000000E-03 0.  1.
          2   -1    0    0  501    0 -0.00000000000E+00 -0.00000000000E+00 -0.13299698843E+03  0.13299698846E+03  0.25500000000E-02 0.  1.
         11    1    1    2    0    0 -0.91790692972E+02 -0.27052703669E+03  0.69094255017E+03  0.74767106172E+03  0.51100000000E-03 0.  1.
         22    1    1    2    0    0 -0.11713329517E+02 -0.78655051127E+01  0.67630439060E+02  0.69086500465E+02  0.00000000000E+00 0. -1.
          2    1    1    2  501    0  0.10350402249E+03  0.27839254181E+03  0.10834625574E+03  0.31615565967E+03  0.25500000000E-02 0.  1.
<mgrwt>
<rscale>  0 0.29701093E+03</rscale>
<asrwt>0</asrwt>
<pdfrwt beam="1">  1       11 0.10000000E+01 0.30275392E+03</pdfrwt>
<pdfrwt beam="2">  1        2 0.20459361E-01 0.29701093E+03</pdfrwt>
<totfact> 0.33480625E+02</totfact>
</mgrwt>
</event>
<event>
 5    1  0.6729100E-004  0.1919390E+03  0.7818608E-02  0.1156724E+00
         11   -1    0    0    0    0  0.00000000000E+00  0.00000000000E+00  0.10002879822E+04  0.10002879822E+04  0.51100000000E-03 0. -1.
          2   -1    0    0  501    0 -0.00000000000E+00 -0.00000000000E+00 -0.12305098897E+03  0.12305098899E+03  0.25500000000E-02 0. -1.
         11    1    1    2    0    0  0.82883121997E+02 -0.16902233323E+03  0.86432207963E+03  0.88458511087E+03  0.51100000000E-03 0. -1.
         22    1    1    2    0    0 -0.73297571778E+01 -0.78229852014E+01  0.42813273095E+02  0.44135029068E+02  0.00000000000E+00 0. -1.
          2    1    1    2  501    0 -0.75553364819E+02  0.17684531843E+03 -0.29898359455E+02  0.19461883129E+03  0.25500000000E-02 0. -1.
<mgrwt>
<rscale>  0 0.19193905E+03</rscale>
<asrwt>0</asrwt>
<pdfrwt beam="1">  1       11 0.10000000E+01 0.10720282E+02</pdfrwt>
<pdfrwt beam="2">  1        2 0.18936373E-01 0.19193905E+03</pdfrwt>
<totfact> 0.36154938E+02</totfact>
</mgrwt>
</event>
<event>
 5    1  0.6729100E-004  0.4044844E+03  0.7818608E-02  0.1042238E+00
         11   -1    0    0    0    0  0.00000000000E+00  0.00000000000E+00  0.10001495224E+04  0.10001495224E+04  0.51100000000E-03 0.  1.
          2   -1    0    0  501    0 -0.00000000000E+00 -0.00000000000E+00 -0.19859927438E+03  0.19859927439E+03  0.25500000000E-02 0.  1.
         11    1    1    2    0    0  0.37070630169E+03 -0.14520521754E+03  0.44860494409E+03  0.59979505931E+03  0.51100000000E-03 0.  1.
         22    1    1    2    0    0  0.28530840077E+00 -0.26847708002E+02  0.13087766843E+03  0.13360331178E+03  0.00000000000E+00 0.  1.
          2    1    1    2  501    0 -0.37099161009E+03  0.17205292554E+03  0.22206763549E+03  0.46535042568E+03  0.25500000000E-02 0.  1.
<mgrwt>
<rscale>  0 0.40448436E+03</rscale>
<asrwt>0</asrwt>
<pdfrwt beam="1">  1       11 0.10000000E+01 0.26849224E+02</pdfrwt>
<pdfrwt beam="2">  1        2 0.30558302E-01 0.40448436E+03</pdfrwt>
<totfact> 0.21380003E+02</totfact>
</mgrwt>
</event>
<event>
 5    1  0.2657209E-003  0.3461774E+03  0.7818608E-02  0.1065933E+00
         11   -1    0    0    0    0  0.00000000000E+00  0.00000000000E+00  0.10014766056E+04  0.10014766056E+04  0.51100000000E-03 0. -1.
          2   -1    0    0  501    0 -0.00000000000E+00 -0.00000000000E+00 -0.24742363198E+04  0.24742363198E+04  0.25500000000E-02 0. -1.
         11    1    1    2    0    0 -0.27169883541E+03  0.18251201499E+03  0.87448638018E+03  0.93373300354E+03  0.51100000000E-03 0. -1.
         22    1    1    2    0    0 -0.13677387328E+02  0.60278620475E+01  0.84745971485E+02  0.86053969856E+02  0.00000000000E+00 0. -1.
          2    1    1    2  501    0  0.28537622274E+03 -0.18853987704E+03 -0.24319920659E+04  0.24559259521E+04  0.25500000000E-02 0. -1.
<mgrwt>
<rscale>  0 0.34203344E+03</rscale>
<asrwt>0</asrwt>
<pdfrwt beam="1">  1       11 0.10000000E+01 0.34617736E+03</pdfrwt>
<pdfrwt beam="2">  1        2 0.38121380E+00 0.34203344E+03</pdfrwt>
<totfact> 0.50309298E+00</totfact>
</mgrwt>
</event>
<event>
 5    1  0.6729100E-004  0.1244403E+03  0.7818608E-02  0.1235947E+00
         11   -1    0    0    0    0  0.00000000000E+00  0.00000000000E+00  0.10002244307E+04  0.10002244307E+04  0.51100000000E-03 0.  1.
         -2   -1    0    0    0  501 -0.00000000000E+00 -0.00000000000E+00 -0.27746867507E+02  0.27746867624E+02  0.25500000000E-02 0.  1.
         11    1    1    2    0    0 -0.24541892315E+02  0.11037838655E+03  0.63557981343E+03  0.64555975086E+03  0.51100000000E-03 0.  1.
         22    1    1    2    0    0 -0.42546194740E+02  0.71694082344E+00  0.14215010942E+03  0.14838243259E+03  0.00000000000E+00 0. -1.
         -2    1    1    2    0  501  0.67088087055E+02 -0.11109532737E+03  0.19474764038E+03  0.23402911492E+03  0.25500000000E-02 0.  1.
<mgrwt>
<rscale>  0 0.12444031E+03</rscale>
<asrwt>0</asrwt>
<pdfrwt beam="1">  1       11 0.10000000E+01 0.42552235E+02</pdfrwt>
<pdfrwt beam="2">  1       -2 0.42697068E-02 0.12444031E+03</pdfrwt>
<totfact> 0.18554891E+03</totfact>
</mgrwt>
</event>
<event>
 5    1  0.7954563E-004  0.9248403E+02  0.7818608E-02  0.1296945E+00
         11   -1    0    0    0    0  0.00000000000E+00  0.00000000000E+00  0.99977970793E+03  0.99977970793E+03  0.51100000000E-03 0. -1.
          2   -1    0    0  501    0 -0.00000000000E+00 -0.00000000000E+00 -0.16366256863E+04  0.16366256863E+04  0.25500000000E-02 0.  1.
         11    1    1    2    0    0  0.18884723405E+02 -0.14679723171E+03  0.71384947667E+03  0.72903164222E+03  0.51100000000E-03 0. -1.
         22    1    1    2    0    0 -0.32079107760E+02  0.55351416797E+02  0.27333256911E+03  0.28071968551E+03  0.00000000000E+00 0.  1.
          2    1    1    2  501    0  0.13194384354E+02  0.91445814909E+02 -0.16240280241E+04  0.16266540665E+04  0.25500000000E-02 0.  1.
<mgrwt>
<rscale>  0 0.92484028E+02</rscale>
<asrwt>0</asrwt>
<pdfrwt beam="1">  1       11 0.10000000E+01 0.63975374E+02</pdfrwt>
<pdfrwt beam="2">  1        2 0.25173309E+00 0.92484028E+02</pdfrwt>
<totfact> 0.15854846E+01</totfact>
</mgrwt>
</event>
<event>
 5    1  0.6729100E-004  0.3075503E+03  0.7818608E-02  0.1081526E+00
         11   -1    0    0    0    0  0.00000000000E+00  0.00000000000E+00  0.10002973866E+04  0.10002973866E+04  0.51100000000E-03 0.  1.
          2   -1    0    0  501    0 -0.00000000000E+00 -0.00000000000E+00 -0.21146331875E+03  0.21146331876E+03  0.25500000000E-02 0. -1.
         11    1    1    2    0    0  0.27000215262E+03  0.14639768110E+03  0.82693726755E+03  0.88213303300E+03  0.51100000000E-03 0.  1.
         22    1    1    2    0    0 -0.51905865352E+01  0.10184375897E+02  0.13499154311E+02  0.17688721494E+02  0.00000000000E+00 0.  1.
          2    1    1    2  501    0 -0.26481156608E+03 -0.15658205699E+03 -0.51602354034E+02  0.31193895084E+03  0.25500000000E-02 0. -1.
<mgrwt>
<rscale>  0 0.30755029E+03</rscale>
<asrwt>0</asrwt>
<pdfrwt beam="1">  1       11 0.10000000E+01 0.11430822E+02</pdfrwt>
<pdfrwt beam="2">  1        2 0.32542492E-01 0.30755029E+03</pdfrwt>
<totfact> 0.19877586E+02</totfact>
</mgrwt>
</event>
<event>
 5    1  0.6729100E-004  0.1280746E+03  0.7818608E-02  0.1230341E+00
         11   -1    0    0    0    0  0.00000000000E+00  0.00000000000E+00  0.10002894173E+04  0.10002894173E+04  0.51100000000E-03 0. -1.
          2   -1    0    0  501    0 -0.00000000000E+00 -0.00000000000E+00 -0.46551384618E+02  0.46551384688E+02  0.25500000000E-02 0. -1.
         11    1    1    2    0    0 -0.69294545035E+02  0.99341921637E+02  0.45139263542E+02  0.12925983320E+03  0.51100000000E-03 0. -1.
         22    1    1    2    0    0  0.21152623374E+02 -0.27147199475E+02  0.14312301850E+03  0.14720258944E+03  0.00000000000E+00 0. -1.
          2    1    1    2  501    0  0.48141921661E+02 -0.72194722163E+02  0.76547575062E+03  0.77037837932E+03  0.25500000000E-02 0. -1.
<mgrwt>
<rscale>  0 0.12807463E+03</rscale>
<asrwt>0</asrwt>
<pdfrwt beam="1">  1       11 0.10000000E+01 0.12112211E+03</pdfrwt>
<pdfrwt beam="2">  1        2 0.71638240E-02 0.12807463E+03</pdfrwt>
<totfact> 0.11487854E+03</totfact>
</mgrwt>
</event>
<event>
 5    1  0.6729100E-004  0.1871761E+03  0.7818608E-02  0.1161033E+00
         11   -1    0    0    0    0  0.00000000000E+00  0.00000000000E+00  0.10003741328E+04  0.10003741328E+04  0.51100000000E-03 0. -1.
          2   -1    0    0  501    0 -0.00000000000E+00 -0.00000000000E+00 -0.33621674577E+03  0.33621674578E+03  0.25500000000E-02 0. -1.
         11    1    1    2    0    0 -0.35682762291E+02  0.19383976167E+03  0.92411293679E+03  0.94489778954E+03  0.51100000000E-03 0. -1.
         22    1    1    2    0    0  0.19937901571E+01 -0.10010175801E+02  0.38346250157E+02  0.39681402695E+02  0.00000000000E+00 0. -1.
          2    1    1    2  501    0  0.33688972134E+02 -0.18382958587E+03 -0.29830179992E+03  0.35201168634E+03  0.25500000000E-02 0. -1.
<mgrwt>
<rscale>  0 0.18717613E+03</rscale>
<asrwt>0</asrwt>
<pdfrwt beam="1">  1       11 0.10000000E+01 0.10206803E+02</pdfrwt>
<pdfrwt beam="2">  1        2 0.51745004E-01 0.18717613E+03</pdfrwt>
<totfact> 0.11996986E+02</totfact>
</mgrwt>
</event>
<event>
 5    1  0.6729100E-004  0.2353921E+03  0.7818608E-02  0.1124083E+00
         11   -1    0    0    0    0  0.00000000000E+00  0.00000000000E+00  0.10002545980E+04  0.10002545980E+04  0.51100000000E-03 0.  1.
         -2   -1    0    0    0  501 -0.00000000000E+00 -0.00000000000E+00 -0.16728678941E+03  0.16728678943E+03  0.25500000000E-02 0. -1.
         11    1    1    2    0    0 -0.26654595520E+02  0.22326780794E+03  0.84976386659E+03  0.87900944846E+03  0.51100000000E-03 0.  1.
         22    1    1    2    0    0  0.46267621977E+01  0.93623016572E+01  0.45513556508E+02  0.46696289433E+02  0.00000000000E+00 0. -1.
         -2    1    1    2    0  501  0.22027833322E+02 -0.23263010960E+03 -0.62309614485E+02  0.24183564956E+03  0.25500000000E-02 0. -1.
<mgrwt>
<rscale>  0 0.23367069E+03</rscale>
<asrwt>0</asrwt>
<pdfrwt beam="1">  1       11 0.10000000E+01 0.23539212E+03</pdfrwt>
<pdfrwt beam="2">  1       -2 0.25742981E-01 0.23367069E+03</pdfrwt>
<totfact> 0.10831494E+02</totfact>
</mgrwt>
</event>
<event>
 5    1  0.6729100E-004  0.5819626E+02  0.7818608E-02  0.1436876E+00
         11   -1    0    0    0    0  0.00000000000E+00  0.00000000000E+00  0.10002503826E+04  0.10002503826E+04  0.51100000000E-03 0. -1.
          2   -1    0    0  501    0 -0.00000000000E+00 -0.00000000000E+00 -0.15552760436E+02  0.15552760645E+02  0.25500000000E-02 0. -1.
         11    1    1    2    0    0 -0.74616216290E+02 -0.41299924405E+02  0.14497592489E+03  0.16820012571E+03  0.51100000000E-03 0. -1.
         22    1    1    2    0    0  0.54152236714E+02 -0.60732293545E+01  0.26351500172E+03  0.26909014286E+03  0.00000000000E+00 0. -1.
          2    1    1    2  501    0  0.20463979576E+02  0.47373153760E+02  0.57620669560E+03  0.57851287472E+03  0.25500000000E-02 0. -1.
<mgrwt>
<rscale>  0 0.51604168E+02</rscale>
<asrwt>0</asrwt>
<pdfrwt beam="1">  1       11 0.10000000E+01 0.58196264E+02</pdfrwt>
<pdfrwt beam="2">  1        2 0.23933314E-02 0.51604168E+02</pdfrwt>
<totfact> 0.43388289E+03</totfact>
</mgrwt>
</event>
<event>
 5    1  0.6729100E-004  0.1549303E+03  0.7818608E-02  0.1693131E+00
         11   -1    0    0    0    0  0.00000000000E+00  0.00000000000E+00  0.10000351081E+04  0.10000351081E+04  0.51100000000E-03 0. -1.
          2   -1    0    0  501    0 -0.00000000000E+00 -0.00000000000E+00 -0.10680835410E+03  0.10680835413E+03  0.25500000000E-02 0. -1.
         11    1    1    2    0    0 -0.13146245897E+03 -0.38083923839E+02  0.10086398951E+03  0.17001855120E+03  0.51100000000E-03 0. -1.
         22    1    1    2    0    0  0.15034375489E+03  0.51042374606E+02  0.85526828486E+03  0.86988068592E+03  0.00000000000E+00 0. -1.
          2    1    1    2  501    0 -0.18881295920E+02 -0.12958450767E+02 -0.62905520346E+02  0.66944225132E+02  0.25500000000E-02 0. -1.
<mgrwt>
<rscale>  0 0.22900323E+02</rscale>
<asrwt>0</asrwt>
<pdfrwt beam="1">  1       11 0.10000000E+01 0.15493030E+03</pdfrwt>
<pdfrwt beam="2">  1        2 0.16432631E-01 0.22900323E+02</pdfrwt>
<totfact> 0.38275328E+02</totfact>
</mgrwt>
</event>
<event>
 5    1  0.6729100E-004  0.1017668E+03  0.7818608E-02  0.1276624E+00
         11   -1    0    0    0    0  0.00000000000E+00  0.00000000000E+00  0.10001127543E+04  0.10001127543E+04  0.51100000000E-03 0.  1.
         -2   -1    0    0    0  501 -0.00000000000E+00 -0.00000000000E+00 -0.73146624696E+02  0.73146624740E+02  0.25500000000E-02 0. -1.
         11    1    1    2    0    0 -0.13532211894E+03  0.17030615179E+02  0.74494550319E+03  0.75732814581E+03  0.51100000000E-03 0.  1.
         22    1    1    2    0    0  0.37849509107E+02  0.54537545704E+01  0.20888336747E+03  0.21235486805E+03  0.00000000000E+00 0. -1.
         -2    1    1    2    0  501  0.97472609829E+02 -0.22484369750E+02 -0.26862741089E+02  0.10357636514E+03  0.25500000000E-02 0. -1.
<mgrwt>
<rscale>  0 0.10176677E+03</rscale>
<asrwt>0</asrwt>
<pdfrwt beam="1">  1       11 0.10000000E+01 0.38240408E+02</pdfrwt>
<pdfrwt beam="2">  1       -2 0.11254595E-01 0.10176677E+03</pdfrwt>
<totfact> 0.41642998E+02</totfact>
</mgrwt>
</event>
<event>
 5    1  0.6729100E-004  0.4013030E+03  0.7818608E-02  0.1043329E+00
         11   -1    0    0    0    0  0.00000000000E+00  0.00000000000E+00  0.10002693034E+04  0.10002693034E+04  0.51100000000E-03 0.  1.
          2   -1    0    0  501    0 -0.00000000000E+00 -0.00000000000E+00 -0.23587987687E+03  0.23587987688E+03  0.25500000000E-02 0.  1.
         11    1    1    2    0    0  0.29233574034E+03 -0.27416411203E+03  0.11609901820E+03  0.41725906513E+03  0.51100000000E-03 0.  1.
         22    1    1    2    0    0 -0.39756961892E+02 -0.42450485832E+02  0.22762500633E+03  0.23493787109E+03  0.00000000000E+00 0. -1.
          2    1    1    2  501    0 -0.25257877845E+03  0.31661459786E+03  0.42066540201E+03  0.58395224407E+03  0.25500000000E-02 0.  1.
<mgrwt>
<rscale>  0 0.40130297E+03</rscale>
<asrwt>0</asrwt>
<pdfrwt beam="1">  1       11 0.10000000E+01 0.58160638E+02</pdfrwt>
<pdfrwt beam="2">  1        2 0.36298984E-01 0.40130297E+03</pdfrwt>
<totfact> 0.17666131E+02</totfact>
</mgrwt>
</event>
<event>
 5    1  0.6729100E-004  0.1062461E+03  0.7818608E-02  0.1377146E+00
         11   -1    0    0    0    0  0.00000000000E+00  0.00000000000E+00  0.10000059167E+04  0.10000059167E+04  0.51100000000E-03 0. -1.
          2   -1    0    0  501    0 -0.00000000000E+00 -0.00000000000E+00 -0.55268716666E+03  0.55268716667E+03  0.25500000000E-02 0. -1.
         11    1    1    2    0    0  0.74502103026E+02 -0.11795297917E+02  0.23155585786E+03  0.24353194394E+03  0.51100000000E-03 0. -1.
         22    1    1    2    0    0 -0.13432352802E+03  0.37776955976E+02  0.75409340593E+03  0.76689423876E+03  0.00000000000E+00 0. -1.
          2    1    1    2  501    0  0.59821424992E+02 -0.25981658059E+02 -0.53833051379E+03  0.54226690064E+03  0.25500000000E-02 0. -1.
<mgrwt>
<rscale>  0 0.65220008E+02</rscale>
<asrwt>0</asrwt>
<pdfrwt beam="1">  1       11 0.10000000E+01 0.10624607E+03</pdfrwt>
<pdfrwt beam="2">  1        2 0.85029296E-01 0.65220008E+02</pdfrwt>
<totfact> 0.71090094E+01</totfact>
</mgrwt>
</event>
<event>
 5    1  0.6729100E-004  0.1359892E+03  0.7818608E-02  0.1231876E+00
         11   -1    0    0    0    0  0.00000000000E+00  0.00000000000E+00  0.99959414847E+03  0.99959414847E+03  0.51100000000E-03 0.  1.
          2   -1    0    0  501    0 -0.00000000000E+00 -0.00000000000E+00 -0.17452577050E+02  0.17452577237E+02  0.25500000000E-02 0.  1.
         11    1    1    2    0    0 -0.96681562496E+02  0.23400730320E+02  0.37171444944E+03  0.38479416657E+03  0.51100000000E-03 0.  1.
         22    1    1    2    0    0 -0.30267277805E+02 -0.17951808280E+02  0.18237231612E+03  0.18573647249E+03  0.00000000000E+00 0.  1.
          2    1    1    2  501    0  0.12694884030E+03 -0.54489220397E+01  0.42805480586E+03  0.44651608665E+03  0.25500000000E-02 0.  1.
<mgrwt>
<rscale>  0 0.12706573E+03</rscale>
<asrwt>0</asrwt>
<pdfrwt beam="1">  1       11 0.10000000E+01 0.13598921E+03</pdfrwt>
<pdfrwt beam="2">  1        2 0.26839221E-02 0.12706573E+03</pdfrwt>
<totfact> 0.41622514E+03</totfact>
</mgrwt>
</event>
<event>
 5    1  0.6729100E-004  0.2344221E+03  0.7818608E-02  0.1123565E+00
         11   -1    0    0    0    0  0.00000000000E+00  0.00000000000E+00  0.10006195323E+04  0.10006195323E+04  0.51100000000E-03 0.  1.
          2   -1    0    0  501    0 -0.00000000000E+00 -0.00000000000E+00 -0.13227979217E+03  0.13227979220E+03  0.25500000000E-02 0.  1.
         11    1    1    2    0    0  0.21362009822E+03  0.86599601147E+02  0.28437557480E+02  0.23225359407E+03  0.51100000000E-03 0.  1.
         22    1    1    2    0    0  0.43855896786E+02 -0.46781867527E+02  0.18648716773E+03  0.19720381979E+03  0.00000000000E+00 0.  1.
          2    1    1    2  501    0 -0.25747599501E+03 -0.39817733620E+02  0.65341501491E+03  0.70344191063E+03  0.25500000000E-02 0.  1.
<mgrwt>
<rscale>  0 0.23442212E+03</rscale>
<asrwt>0</asrwt>
<pdfrwt beam="1">  1       11 0.10000000E+01 0.64123964E+02</pdfrwt>
<pdfrwt beam="2">  1        2 0.20363345E-01 0.23442212E+03</pdfrwt>
<totfact> 0.33457005E+02</totfact>
</mgrwt>
</event>
<event>
 5    1  0.6729100E-004  0.1914893E+03  0.7818608E-02  0.1157125E+00
         11   -1    0    0    0    0  0.00000000000E+00  0.00000000000E+00  0.10001432947E+04  0.10001432947E+04  0.51100000000E-03 0. -1.
          2   -1    0    0  501    0 -0.00000000000E+00 -0.00000000000E+00 -0.35665264800E+02  0.35665264892E+02  0.25500000000E-02 0. -1.
         11    1    1    2    0    0  0.16915176606E+03 -0.74910888679E+02  0.43196068027E+03  0.46990849163E+03  0.51100000000E-03 0. -1.
         22    1    1    2    0    0 -0.57982549703E+02  0.50931308669E+02  0.19383677191E+03  0.20863525209E+03  0.00000000000E+00 0. -1.
          2    1    1    2  501    0 -0.11116921636E+03  0.23979580011E+02  0.33868057769E+03  0.35726481584E+03  0.25500000000E-02 0. -1.
<mgrwt>
<rscale>  0 0.19148932E+03</rscale>
<asrwt>0</asrwt>
<pdfrwt beam="1">  1       11 0.10000000E+01 0.18499728E+03</pdfrwt>
<pdfrwt beam="2">  1        2 0.54877499E-02 0.19148932E+03</pdfrwt>
<totfact> 0.16663128E+03</totfact>
</mgrwt>
</event>
<event>
 5    1  0.6729100E-004  0.1954891E+03  0.7818608E-02  0.1505579E+00
         11   -1    0    0    0    0  0.00000000000E+00  0.00000000000E+00  0.10002339763E+04  0.10002339763E+04  0.51100000000E-03 0.  1.
          2   -1    0    0  501    0 -0.00000000000E+00 -0.00000000000E+00 -0.19368862753E+03  0.19368862755E+03  0.25500000000E-02 0. -1.
         11    1    1    2    0    0  0.10671560253E+03  0.15909339923E+03  0.66094941914E+03  0.68815191939E+03  0.51100000000E-03 0.  1.
         22    1    1    2    0    0 -0.81760010487E+02 -0.19081322853E+03  0.28954347660E+03  0.35627210435E+03  0.00000000000E+00 0. -1.
          2    1    1    2  501    0 -0.24955592044E+02  0.31719829302E+02 -0.14394754701E+03  0.14949858007E+03  0.25500000000E-02 0. -1.
<mgrwt>
<rscale>  0 0.40359994E+02</rscale>
<asrwt>0</asrwt>
<pdfrwt beam="1">  1       11 0.10000000E+01 0.19548906E+03</pdfrwt>
<pdfrwt beam="2">  1        2 0.29805222E-01 0.40359994E+02</pdfrwt>
<totfact> 0.20952923E+02</totfact>
</mgrwt>
</event>
<event>
 5    1  0.6729100E-004  0.2665630E+03  0.7818608E-02  0.1103263E+00
         11   -1    0    0    0    0  0.00000000000E+00  0.00000000000E+00  0.10005663471E+04  0.10005663471E+04  0.51100000000E-03 0.  1.
          2   -1    0    0  501    0 -0.00000000000E+00 -0.00000000000E+00 -0.11075687519E+04  0.11075687519E+04  0.25500000000E-02 0.  1.
         11    1    1    2    0    0  0.11606750462E+03 -0.71075653679E+02  0.54967489122E+03  0.56627369727E+03  0.51100000000E-03 0.  1.
         22    1    1    2    0    0 -0.10941889131E+02 -0.17846869021E+03  0.40684800217E+03  0.44440532760E+03  0.00000000000E+00 0.  1.
          2    1    1    2  501    0 -0.10512561548E+03  0.24954434389E+03 -0.10635252982E+04  0.10974560741E+04  0.25500000000E-02 0.  1.
<mgrwt>
<rscale>  0 0.26656304E+03</rscale>
<asrwt>0</asrwt>
<pdfrwt beam="1">  1       11 0.10000000E+01 0.13610075E+03</pdfrwt>
<pdfrwt beam="2">  1        2 0.17049169E+00 0.26656304E+03</pdfrwt>
<totfact> 0.28306267E+01</totfact>
</mgrwt>
</event>
<event>
 5    1  0.6729100E-004  0.4599161E+03  0.7818608E-02  0.1024806E+00
         11   -1    0    0    0    0  0.00000000000E+00  0.00000000000E+00  0.10001746946E+04  0.10001746946E+04  0.51100000000E-03 0. -1.
          2   -1    0    0  501    0 -0.00000000000E+00 -0.00000000000E+00 -0.24600625090E+03  0.24600625092E+03  0.25500000000E-02 0. -1.
         11    1    1    2    0    0 -0.46369609728E+03  0.16954547623E+02  0.43403403255E+03  0.63536372947E+03  0.51100000000E-03 0. -1.
         22    1    1    2    0    0  0.78447351269E+01  0.19681053530E+02  0.10192601603E+03  0.10410473803E+03  0.00000000000E+00 0. -1.
          2    1    1    2  501    0  0.45585136215E+03 -0.36635601153E+02  0.21820839509E+03  0.50671247798E+03  0.25500000000E-02 0. -1.
<mgrwt>
<rscale>  0 0.45991608E+03</rscale>
<asrwt>0</asrwt>
<pdfrwt beam="1">  1       11 0.10000000E+01 0.21186877E+02</pdfrwt>
<pdfrwt beam="2">  1        2 0.37853726E-01 0.45991608E+03</pdfrwt>
<totfact> 0.16880948E+02</totfact>
</mgrwt>
</event>
<event>
 5    1  0.6729100E-004  0.1593348E+03  0.7818608E-02  0.1189450E+00
         11   -1    0    0    0    0  0.00000000000E+00  0.00000000000E+00  0.10002860873E+04  0.10002860873E+04  0.51100000000E-03 0. -1.
          2   -1    0    0  501    0 -0.00000000000E+00 -0.00000000000E+00 -0.33482294074E+02  0.33482294171E+02  0.25500000000E-02 0. -1.
         11    1    1    2    0    0  0.19461611718E+02  0.16095616420E+03  0.45649067816E+03  0.48442685761E+03  0.51100000000E-03 0. -1.
         22    1    1    2    0    0  0.28955628015E+02 -0.10015977941E+02  0.18435212552E+03  0.18688085614E+03  0.00000000000E+00 0.  1.
          2    1    1    2  501    0 -0.48417239733E+02 -0.15094018626E+03  0.32596098955E+03  0.36246066772E+03  0.25500000000E-02 0. -1.
<mgrwt>
<rscale>  0 0.15933484E+03</rscale>
<asrwt>0</asrwt>
<pdfrwt beam="1">  1       11 0.10000000E+01 0.30638998E+02</pdfrwt>
<pdfrwt beam="2">  1        2 0.51525957E-02 0.15933484E+03</pdfrwt>
<totfact> 0.17847874E+03</totfact>
</mgrwt>
</event>
<event>
 5    1  0.6729100E-004  0.4700253E+03  0.7818608E-02  0.1023267E+00
         11   -1    0    0    0    0  0.00000000000E+00  0.00000000000E+00  0.10003859214E+04  0.10003859214E+04  0.51100000000E-03 0. -1.
          2   -1    0    0  501    0 -0.00000000000E+00 -0.00000000000E+00 -0.36433974472E+03  0.36433974473E+03  0.25500000000E-02 0. -1.
         11    1    1    2    0    0 -0.16553217707E+03  0.41950426832E+03  0.69801756909E+03  0.83103144317E+03  0.51100000000E-03 0. -1.
         22    1    1    2    0    0 -0.19874160087E+01  0.14550041350E+02  0.52537250897E+02  0.54551042680E+02  0.00000000000E+00 0. -1.
          2    1    1    2  501    0  0.16751959308E+03 -0.43405430967E+03 -0.11450864331E+03  0.47914318028E+03  0.25500000000E-02 0. -1.
<mgrwt>
<rscale>  0 0.46525902E+03</rscale>
<asrwt>0</asrwt>
<pdfrwt beam="1">  1       11 0.10000000E+01 0.47002532E+03</pdfrwt>
<pdfrwt beam="2">  1        2 0.56073899E-01 0.46525902E+03</pdfrwt>
<totfact> 0.10954092E+02</totfact>
</mgrwt>
</event>
<event>
 5    1  0.6729100E-004  0.1392775E+03  0.7818608E-02  0.1214304E+00
         11   -1    0    0    0    0  0.00000000000E+00  0.00000000000E+00  0.99996343705E+03  0.99996343705E+03  0.51100000000E-03 0. -1.
         -2   -1    0    0    0  501 -0.00000000000E+00 -0.00000000000E+00 -0.24276689380E+02  0.24276689514E+02  0.25500000000E-02 0. -1.
         11    1    1    2    0    0  0.10193788819E+01  0.13464421889E+03  0.72558397124E+03  0.73797168247E+03  0.51100000000E-03 0. -1.
         22    1    1    2    0    0 -0.17488511079E+02 -0.48364998224E+02  0.90648938612E+02  0.10422212406E+03  0.00000000000E+00 0. -1.
         -2    1    1    2    0  501  0.16469132197E+02 -0.86279220663E+02  0.15945383783E+03  0.18204632003E+03  0.25500000000E-02 0. -1.
<mgrwt>
<rscale>  0 0.13927750E+03</rscale>
<asrwt>0</asrwt>
<pdfrwt beam="1">  1       11 0.10000000E+01 0.13464808E+03</pdfrwt>
<pdfrwt beam="2">  1       -2 0.37347386E-02 0.13927750E+03</pdfrwt>
<totfact> 0.22882619E+03</totfact>
</mgrwt>
</event>
<event>
 5    1  0.6729100E-004  0.3200165E+03  0.7818608E-02  0.1075642E+00
         11   -1    0    0    0    0  0.00000000000E+00  0.00000000000E+00  0.10002638833E+04  0.10002638833E+04  0.51100000000E-03 0. -1.
          2   -1    0    0  501    0 -0.00000000000E+00 -0.00000000000E+00 -0.42362409454E+03  0.42362409455E+03  0.25500000000E-02 0. -1.
         11    1    1    2    0    0 -0.25753270397E+03 -0.12009512209E+03  0.81193666934E+03  0.86022502113E+03  0.51100000000E-03 0. -1.
         22    1    1    2    0    0 -0.13563800562E+02 -0.55657307438E+02  0.89034214628E+02  0.10587163894E+03  0.00000000000E+00 0. -1.
          2    1    1    2  501    0  0.27109650454E+03  0.17575242953E+03 -0.32433109524E+03  0.45779131774E+03  0.25500000000E-02 0. -1.
<mgrwt>
<rscale>  0 0.32001648E+03</rscale>
<asrwt>0</asrwt>
<pdfrwt beam="1">  1       11 0.10000000E+01 0.57286234E+02</pdfrwt>
<pdfrwt beam="2">  1        2 0.65190134E-01 0.32001648E+03</pdfrwt>
<totfact> 0.93040510E+01</totfact>
</mgrwt>
</event>
<event>
 5    1  0.6729100E-004  0.2123999E+03  0.7818608E-02  0.1141328E+00
         11   -1    0    0    0    0  0.00000000000E+00  0.00000000000E+00  0.10001150943E+04  0.10001150943E+04  0.51100000000E-03 0. -1.
          2   -1    0    0  501    0 -0.00000000000E+00 -0.00000000000E+00 -0.44767191348E+02  0.44767191420E+02  0.25500000000E-02 0. -1.
         11    1    1    2    0    0  0.13309607491E+03 -0.13777898860E+03  0.43404720249E+03  0.47444134395E+03  0.51100000000E-03 0. -1.
         22    1    1    2    0    0  0.11813799288E+02 -0.14627478208E+02  0.71086226423E+02  0.73530813673E+02  0.00000000000E+00 0. -1.
          2    1    1    2  501    0 -0.14490987420E+03  0.15240646681E+03  0.45021447405E+03  0.49691012811E+03  0.25500000000E-02 0. -1.
<mgrwt>
<rscale>  0 0.21030122E+03</rscale>
<asrwt>0</asrwt>
<pdfrwt beam="1">  1       11 0.10000000E+01 0.21239987E+03</pdfrwt>
<pdfrwt beam="2">  1        2 0.68880527E-02 0.21030122E+03</pdfrwt>
<totfact> 0.12481655E+03</totfact>
</mgrwt>
</event>
<event>
 5    1  0.6729100E-004  0.1095697E+04  0.7818608E-02  0.9209396E-01
         11   -1    0    0    0    0  0.00000000000E+00  0.00000000000E+00  0.10009077789E+04  0.10009077789E+04  0.51100000000E-03 0. -1.
          2   -1    0    0  501    0 -0.00000000000E+00 -0.00000000000E+00 -0.13229211422E+04  0.13229211422E+04  0.25500000000E-02 0. -1.
         11    1    1    2    0    0 -0.75129040695E+03  0.78540366977E+03 -0.20794967091E+03  0.11065890229E+04  0.51100000000E-03 0. -1.
         22    1    1    2    0    0 -0.53179696870E+02 -0.26997355173E+02  0.74756038982E+02  0.95631598909E+02  0.00000000000E+00 0. -1.
          2    1    1    2  501    0  0.80447010382E+03 -0.75840631459E+03 -0.18881973137E+03  0.11216082992E+04  0.25500000000E-02 0. -1.
<mgrwt>
<rscale>  0 0.10956973E+04</rscale>
<asrwt>0</asrwt>
<pdfrwt beam="1">  1       11 0.10000000E+01 0.59640065E+02</pdfrwt>
<pdfrwt beam="2">  1        2 0.20371108E+00 0.10956973E+04</pdfrwt>
<totfact> 0.19552736E+01</totfact>
</mgrwt>
</event>
<event>
 5    1  0.6729100E-004  0.1029255E+03  0.7818608E-02  0.1274262E+00
         11   -1    0    0    0    0  0.00000000000E+00  0.00000000000E+00  0.10001674899E+04  0.10001674899E+04  0.51100000000E-03 0. -1.
         -2   -1    0    0    0  501 -0.00000000000E+00 -0.00000000000E+00 -0.54447695667E+02  0.54447695727E+02  0.25500000000E-02 0.  1.
         11    1    1    2    0    0 -0.11563814276E+03  0.10682686771E+02  0.69350812093E+03  0.70316414417E+03  0.51100000000E-03 0. -1.
         22    1    1    2    0    0  0.18043377236E+02 -0.42216633302E+02  0.24430772520E+03  0.24858413502E+03  0.00000000000E+00 0.  1.
         -2    1    1    2    0  501  0.97594765525E+02  0.31533946531E+02  0.79039481244E+01  0.10286690646E+03  0.25500000000E-02 0.  1.
<mgrwt>
<rscale>  0 0.10292550E+03</rscale>
<asrwt>0</asrwt>
<pdfrwt beam="1">  1       11 0.10000000E+01 0.45910866E+02</pdfrwt>
<pdfrwt beam="2">  1       -2 0.83779713E-02 0.10292550E+03</pdfrwt>
<totfact> 0.65979819E+02</totfact>
</mgrwt>
</event>
<event>
 5    1  0.6729100E-004  0.1303989E+03  0.7818608E-02  0.1560861E+00
         11   -1    0    0    0    0  0.00000000000E+00  0.00000000000E+00  0.10002838719E+04  0.10002838719E+04  0.51100000000E-03 0.  1.
          2   -1    0    0  501    0 -0.00000000000E+00 -0.00000000000E+00 -0.72698719615E+02  0.72698719660E+02  0.25500000000E-02 0.  1.
         11    1    1    2    0    0  0.28269568792E+02 -0.13297591553E+03  0.20688923741E+03  0.24755791077E+03  0.51100000000E-03 0.  1.
         22    1    1    2    0    0 -0.57530062112E+02  0.11634410230E+03  0.76152794171E+03  0.77250920007E+03  0.00000000000E+00 0.  1.
          2    1    1    2  501    0  0.29260493320E+02  0.16631813231E+02 -0.40832026817E+02  0.52915480733E+02  0.25500000000E-02 0.  1.
<mgrwt>
<rscale>  0 0.33657001E+02</rscale>
<asrwt>0</asrwt>
<pdfrwt beam="1">  1       11 0.10000000E+01 0.13039890E+03</pdfrwt>
<pdfrwt beam="2">  1        2 0.11187593E-01 0.33657001E+02</pdfrwt>
<totfact> 0.60603819E+02</totfact>
</mgrwt>
</event>
<event>
 5    1  0.6729100E-004  0.1485718E+03  0.7818608E-02  0.1202239E+00
         11   -1    0    0    0    0  0.00000000000E+00  0.00000000000E+00  0.10002411302E+04  0.10002411302E+04  0.51100000000E-03 0. -1.
          2   -1    0    0  501    0 -0.00000000000E+00 -0.00000000000E+00 -0.35214011506E+02  0.35214011598E+02  0.25500000000E-02 0.  1.
         11    1    1    2    0    0  0.48024983970E+02 -0.15056905899E+03  0.71729863823E+03  0.73450308169E+03  0.51100000000E-03 0. -1.
         22    1    1    2    0    0  0.32315747706E+01  0.13937602185E+02  0.67759403318E+02  0.69253422790E+02  0.00000000000E+00 0.  1.
          2    1    1    2  501    0 -0.51256558741E+02  0.13663145680E+03  0.17996907718E+03  0.23169863735E+03  0.25500000000E-02 0.  1.
<mgrwt>
<rscale>  0 0.14857179E+03</rscale>
<asrwt>0</asrwt>
<pdfrwt beam="1">  1       11 0.10000000E+01 0.14307335E+02</pdfrwt>
<pdfrwt beam="2">  1        2 0.54188464E-02 0.14857179E+03</pdfrwt>
<totfact> 0.16620823E+03</totfact>
</mgrwt>
</event>
<event>
 5    1  0.6729100E-004  0.8793645E+03  0.7818608E-02  0.9451751E-01
         11   -1    0    0    0    0  0.00000000000E+00  0.00000000000E+00  0.10000814174E+04  0.10000814174E+04  0.51100000000E-03 0. -1.
          2   -1    0    0  501    0 -0.00000000000E+00 -0.00000000000E+00 -0.30281968383E+04  0.30281968383E+04  0.25500000000E-02 0. -1.
         11    1    1    2    0    0 -0.81259316616E+03  0.34748105649E+03  0.68667105930E+03  0.11191817913E+04  0.51100000000E-03 0. -1.
         22    1    1    2    0    0  0.87853067161E+01  0.83191668651E+01  0.27137862185E+02  0.29712854380E+02  0.00000000000E+00 0. -1.
          2    1    1    2  501    0  0.80380785945E+03 -0.35580022336E+03 -0.27419243424E+04  0.28793836100E+04  0.25500000000E-02 0. -1.
<mgrwt>
<rscale>  0 0.87936447E+03</rscale>
<asrwt>0</asrwt>
<pdfrwt beam="1">  1       11 0.10000000E+01 0.12099180E+02</pdfrwt>
<pdfrwt beam="2">  1        2 0.46591435E+00 0.87936447E+03</pdfrwt>
<totfact> 0.21403164E+00</totfact>
</mgrwt>
</event>
<event>
 5    1  0.6729100E-004  0.4700485E+03  0.7818608E-02  0.1025606E+00
         11   -1    0    0    0    0  0.00000000000E+00  0.00000000000E+00  0.10007130937E+04  0.10007130937E+04  0.51100000000E-03 0. -1.
         -2   -1    0    0    0  501 -0.00000000000E+00 -0.00000000000E+00 -0.35319285659E+03  0.35319285660E+03  0.25500000000E-02 0.  1.
         11    1    1    2    0    0  0.38825231458E+03 -0.99831333569E+02  0.59731604280E+03  0.71936959202E+03  0.51100000000E-03 0. -1.
         22    1    1    2    0    0  0.44962711281E+02 -0.46200396452E+02  0.15293739520E+03  0.16596978306E+03  0.00000000000E+00 0. -1.
         -2    1    1    2    0  501 -0.43321502586E+03  0.14603173002E+03 -0.10273320092E+03  0.46856657519E+03  0.25500000000E-02 0.  1.
<mgrwt>
<rscale>  0 0.45716575E+03</rscale>
<asrwt>0</asrwt>
<pdfrwt beam="1">  1       11 0.10000000E+01 0.47004850E+03</pdfrwt>
<pdfrwt beam="2">  1       -2 0.54376109E-01 0.45716575E+03</pdfrwt>
<totfact> 0.26117631E+01</totfact>
</mgrwt>
</event>
<event>
 5    1  0.6729100E-004  0.1758429E+03  0.7818608E-02  0.1228521E+00
         11   -1    0    0    0    0  0.00000000000E+00  0.00000000000E+00  0.10000301650E+04  0.10000301650E+04  0.51100000000E-03 0. -1.
          2   -1    0    0  501    0 -0.00000000000E+00 -0.00000000000E+00 -0.12768206725E+03  0.12768206728E+03  0.25500000000E-02 0. -1.
         11    1    1    2    0    0 -0.10598166129E+03 -0.26171856192E+03  0.31222274763E+03  0.42096527449E+03  0.51100000000E-03 0. -1.
         22    1    1    2    0    0  0.74174463269E+02  0.13640742242E+03  0.55613163752E+03  0.57740041058E+03  0.00000000000E+00 0.  1.
          2    1    1    2  501    0  0.31807198024E+02  0.12531113950E+03  0.39937126008E+01  0.12934654721E+03  0.25500000000E-02 0. -1.
<mgrwt>
<rscale>  0 0.12928488E+03</rscale>
<asrwt>0</asrwt>
<pdfrwt beam="1">  1       11 0.10000000E+01 0.17584295E+03</pdfrwt>
<pdfrwt beam="2">  1        2 0.19643987E-01 0.12928488E+03</pdfrwt>
<totfact> 0.34231826E+02</totfact>
</mgrwt>
</event>
<event>
 5    1  0.6729100E-004  0.1590868E+03  0.7818608E-02  0.1203048E+00
         11   -1    0    0    0    0  0.00000000000E+00  0.00000000000E+00  0.10001674406E+04  0.10001674406E+04  0.51100000000E-03 0. -1.
         -2   -1    0    0    0  501 -0.00000000000E+00 -0.00000000000E+00 -0.31820797424E+02  0.31820797527E+02  0.25500000000E-02 0.  1.
         11    1    1    2    0    0 -0.86678888393E+02  0.31146015192E+02  0.54295492173E+03  0.55071167682E+03  0.51100000000E-03 0. -1.
         22    1    1    2    0    0 -0.37129946596E+02  0.49803328675E+02  0.21703132062E+03  0.22574675770E+03  0.00000000000E+00 0. -1.
         -2    1    1    2    0  501  0.12380883499E+03 -0.80949343867E+02  0.20836040083E+03  0.25552980361E+03  0.25500000000E-02 0.  1.
<mgrwt>
<rscale>  0 0.14792371E+03</rscale>
<asrwt>0</asrwt>
<pdfrwt beam="1">  1       11 0.10000000E+01 0.15908681E+03</pdfrwt>
<pdfrwt beam="2">  1       -2 0.48963269E-02 0.14792371E+03</pdfrwt>
<totfact> 0.15358692E+03</totfact>
</mgrwt>
</event>
<event>
 5    1  0.6729100E-004  0.1651504E+03  0.7818608E-02  0.1183002E+00
         11   -1    0    0    0    0  0.00000000000E+00  0.00000000000E+00  0.10003555604E+04  0.10003555604E+04  0.51100000000E-03 0. -1.
          2   -1    0    0  501    0 -0.00000000000E+00 -0.00000000000E+00 -0.26617685132E+02  0.26617685254E+02  0.25500000000E-02 0. -1.
         11    1    1    2    0    0  0.14213712306E+03 -0.75407388815E+02  0.50272157162E+03  0.52784298292E+03  0.51100000000E-03 0. -1.
         22    1    1    2    0    0 -0.12340533505E+02  0.20511550322E+02  0.79303867462E+02  0.82837889026E+02  0.00000000000E+00 0.  1.
          2    1    1    2  501    0 -0.12979658955E+03  0.54895838493E+02  0.39171243618E+03  0.41629237371E+03  0.25500000000E-02 0. -1.
<mgrwt>
<rscale>  0 0.16515042E+03</rscale>
<asrwt>0</asrwt>
<pdfrwt beam="1">  1       11 0.10000000E+01 0.16090132E+03</pdfrwt>
<pdfrwt beam="2">  1        2 0.40964844E-02 0.16515042E+03</pdfrwt>
<totfact> 0.24226552E+03</totfact>
</mgrwt>
</event>
<event>
 5    1  0.9749119E-004  0.5569921E+03  0.7818608E-02  0.1001020E+00
         11   -1    0    0    0    0  0.00000000000E+00  0.00000000000E+00  0.10002353639E+04  0.10002353639E+04  0.51100000000E-03 0.  1.
          2   -1    0    0  501    0 -0.00000000000E+00 -0.00000000000E+00 -0.20632255713E+04  0.20632255713E+04  0.25500000000E-02 0.  1.
         11    1    1    2    0    0 -0.53887672935E+03  0.28099251141E+02  0.85332667099E+03  0.10096257251E+04  0.51100000000E-03 0.  1.
         22    1    1    2    0    0 -0.11651476392E+02  0.12899066126E+02  0.27838755664E+02  0.32819797775E+02  0.00000000000E+00 0.  1.
          2    1    1    2  501    0  0.55052820574E+03 -0.40998317268E+02 -0.19441556341E+04  0.20210154124E+04  0.25500000000E-02 0.  1.
<mgrwt>
<rscale>  0 0.55205269E+03</rscale>
<asrwt>0</asrwt>
<pdfrwt beam="1">  1       11 0.10000000E+01 0.55699206E+03</pdfrwt>
<pdfrwt beam="2">  1        2 0.31749402E+00 0.55205269E+03</pdfrwt>
<totfact> 0.80433224E+00</totfact>
</mgrwt>
</event>
<event>
 5    1  0.6729100E-004  0.2371218E+03  0.7818608E-02  0.1121725E+00
         11   -1    0    0    0    0  0.00000000000E+00  0.00000000000E+00  0.10001474346E+04  0.10001474346E+04  0.51100000000E-03 0. -1.
          2   -1    0    0  501    0 -0.00000000000E+00 -0.00000000000E+00 -0.16162640715E+03  0.16162640717E+03  0.25500000000E-02 0. -1.
         11    1    1    2    0    0 -0.22319444934E+03  0.17252942860E+03  0.60129984489E+03  0.66418647187E+03  0.51100000000E-03 0. -1.
         22    1    1    2    0    0  0.39249955044E+02 -0.34836287516E+02  0.26133653023E+03  0.26655376180E+03  0.00000000000E+00 0.  1.
          2    1    1    2  501    0  0.18394449430E+03 -0.13769314108E+03 -0.24115347639E+02  0.23103360812E+03  0.25500000000E-02 0. -1.
<mgrwt>
<rscale>  0 0.23712182E+03</rscale>
<asrwt>0</asrwt>
<pdfrwt beam="1">  1       11 0.10000000E+01 0.52479767E+02</pdfrwt>
<pdfrwt beam="2">  1        2 0.24869266E-01 0.23712182E+03</pdfrwt>
<totfact> 0.26683132E+02</totfact>
</mgrwt>
</event>
<event>
 5    1  0.6729100E-004  0.3907733E+03  0.7818608E-02  0.1047022E+00
         11   -1    0    0    0    0  0.00000000000E+00  0.00000000000E+00  0.10000627597E+04  0.10000627597E+04  0.51100000000E-03 0.  1.
          2   -1    0    0  501    0 -0.00000000000E+00 -0.00000000000E+00 -0.19858204595E+03  0.19858204597E+03  0.25500000000E-02 0.  1.
         11    1    1    2    0    0  0.27704825839E+03  0.26151691552E+03  0.15922968179E+03  0.41291757791E+03  0.51100000000E-03 0.  1.
         22    1    1    2    0    0  0.34756625414E+02  0.83275292174E+01  0.87402502476E+02  0.94427581734E+02  0.00000000000E+00 0.  1.
          2    1    1    2  501    0 -0.31180488380E+03 -0.26984444474E+03  0.55484852948E+03  0.69129964603E+03  0.25500000000E-02 0.  1.
<mgrwt>
<rscale>  0 0.39077328E+03</rscale>
<asrwt>0</asrwt>
<pdfrwt beam="1">  1       11 0.10000000E+01 0.35740324E+02</pdfrwt>
<pdfrwt beam="2">  1        2 0.30553000E-01 0.39077328E+03</pdfrwt>
<totfact> 0.21375267E+02</totfact>
</mgrwt>
</event>
<event>
 5    1  0.6729100E-004  0.1393665E+03  0.7818608E-02  0.1453753E+00
         11   -1    0    0    0    0  0.00000000000E+00  0.00000000000E+00  0.10003006577E+04  0.10003006577E+04  0.51100000000E-03 0. -1.
          2   -1    0    0  501    0 -0.00000000000E+00 -0.00000000000E+00 -0.40746662144E+03  0.40746662145E+03  0.25500000000E-02 0. -1.
         11    1    1    2    0    0 -0.10044354284E+03  0.69295572512E+02  0.46135694806E+03  0.47722218639E+03  0.51100000000E-03 0. -1.
         22    1    1    2    0    0  0.14632098130E+03 -0.84946348609E+02  0.51597362848E+03  0.54300506167E+03  0.00000000000E+00 0. -1.
          2    1    1    2  501    0 -0.45877438466E+02  0.15650776097E+02 -0.38449654031E+03  0.38754003105E+03  0.25500000000E-02 0. -1.
<mgrwt>
<rscale>  0 0.48473561E+02</rscale>
<asrwt>0</asrwt>
<pdfrwt beam="1">  1       11 0.10000000E+01 0.13936648E+03</pdfrwt>
<pdfrwt beam="2">  1        2 0.62706018E-01 0.48473561E+02</pdfrwt>
<totfact> 0.98221331E+01</totfact>
</mgrwt>
</event>
<event>
 5    1  0.6729100E-004  0.1522541E+03  0.7818608E-02  0.1206794E+00
         11   -1    0    0    0    0  0.00000000000E+00  0.00000000000E+00  0.10003261820E+04  0.10003261820E+04  0.51100000000E-03 0. -1.
          2   -1    0    0  501    0 -0.00000000000E+00 -0.00000000000E+00 -0.44043933018E+02  0.44043933092E+02  0.25500000000E-02 0. -1.
         11    1    1    2    0    0 -0.91929567867E+02  0.94301006144E+02  0.79408149898E+03  0.80492804165E+03  0.51100000000E-03 0. -1.
         22    1    1    2    0    0 -0.24823908460E-02  0.17791370943E+02  0.58646388564E+02  0.61285657195E+02  0.00000000000E+00 0.  1.
          2    1    1    2  501    0  0.91932050258E+02 -0.11209237709E+03  0.10355436140E+03  0.17815641621E+03  0.25500000000E-02 0. -1.
<mgrwt>
<rscale>  0 0.14496966E+03</rscale>
<asrwt>0</asrwt>
<pdfrwt beam="1">  1       11 0.10000000E+01 0.15225414E+03</pdfrwt>
<pdfrwt beam="2">  1        2 0.67781997E-02 0.14496966E+03</pdfrwt>
<totfact> 0.12431823E+03</totfact>
</mgrwt>
</event>
<event>
 5    1  0.6729100E-004  0.1819897E+03  0.7818608E-02  0.1166959E+00
         11   -1    0    0    0    0  0.00000000000E+00  0.00000000000E+00  0.10003491913E+04  0.10003491913E+04  0.51100000000E-03 0. -1.
         -2   -1    0    0    0  501 -0.00000000000E+00 -0.00000000000E+00 -0.37135932812E+02  0.37135932899E+02  0.25500000000E-02 0. -1.
         11    1    1    2    0    0 -0.86136732201E+02 -0.14816853844E+03  0.62704376953E+03  0.65004410722E+03  0.51100000000E-03 0. -1.
         22    1    1    2    0    0 -0.94100627233E+00 -0.10366119788E+02  0.30942713040E+02  0.32646491734E+02  0.00000000000E+00 0. -1.
         -2    1    1    2    0  501  0.87077738474E+02  0.15853465823E+03  0.30522677587E+03  0.35479452520E+03  0.25500000000E-02 0. -1.
<mgrwt>
<rscale>  0 0.18087501E+03</rscale>
<asrwt>0</asrwt>
<pdfrwt beam="1">  1       11 0.10000000E+01 0.18198968E+03</pdfrwt>
<pdfrwt beam="2">  1       -2 0.57152153E-02 0.18087501E+03</pdfrwt>
<totfact> 0.12355208E+03</totfact>
</mgrwt>
</event>
<event>
 5    1  0.6729100E-004  0.1892756E+03  0.7818608E-02  0.1162806E+00
         11   -1    0    0    0    0  0.00000000000E+00  0.00000000000E+00  0.10001318429E+04  0.10001318429E+04  0.51100000000E-03 0.  1.
          2   -1    0    0  501    0 -0.00000000000E+00 -0.00000000000E+00 -0.39464901290E+02  0.39464901372E+02  0.25500000000E-02 0.  1.
         11    1    1    2    0    0 -0.14844243781E+03  0.84391192862E+02  0.60918789158E+03  0.63266651407E+03  0.51100000000E-03 0.  1.
         22    1    1    2    0    0 -0.68378983122E+01  0.16652027850E+02  0.49274995338E+02  0.52460194914E+02  0.00000000000E+00 0.  1.
          2    1    1    2  501    0  0.15528033612E+03 -0.10104322071E+03  0.30220405468E+03  0.35447003528E+03  0.25500000000E-02 0.  1.
<mgrwt>
<rscale>  0 0.18526121E+03</rscale>
<asrwt>0</asrwt>
<pdfrwt beam="1">  1       11 0.10000000E+01 0.18927555E+03</pdfrwt>
<pdfrwt beam="2">  1        2 0.60723236E-02 0.18526121E+03</pdfrwt>
<totfact> 0.14568883E+03</totfact>
</mgrwt>
</event>
<event>
 5    1  0.6729100E-004  0.1845017E+03  0.7818608E-02  0.1163516E+00
         11   -1    0    0    0    0  0.00000000000E+00  0.00000000000E+00  0.10003924674E+04  0.10003924674E+04  0.51100000000E-03 0.  1.
          2   -1    0    0  501    0 -0.00000000000E+00 -0.00000000000E+00 -0.13625623681E+03  0.13625623683E+03  0.25500000000E-02 0.  1.
         11    1    1    2    0    0 -0.19083709401E+01  0.19911102433E+03  0.59343013925E+03  0.62594582199E+03  0.51100000000E-03 0.  1.
         22    1    1    2    0    0  0.69260717490E+02 -0.27569655874E+02  0.31288906093E+03  0.32164685194E+03  0.00000000000E+00 0. -1.
          2    1    1    2  501    0 -0.67352346550E+02 -0.17154136845E+03 -0.42182969567E+02  0.18905603033E+03  0.25500000000E-02 0.  1.
<mgrwt>
<rscale>  0 0.18450165E+03</rscale>
<asrwt>0</asrwt>
<pdfrwt beam="1">  1       11 0.10000000E+01 0.74546180E+02</pdfrwt>
<pdfrwt beam="2">  1        2 0.20970724E-01 0.18450165E+03</pdfrwt>
<totfact> 0.32140903E+02</totfact>
</mgrwt>
</event>
<event>
 5    1  0.7721817E-004  0.3198047E+03  0.7818608E-02  0.1076636E+00
         11   -1    0    0    0    0  0.00000000000E+00  0.00000000000E+00  0.10009213405E+04  0.10009213405E+04  0.51100000000E-03 0. -1.
          2   -1    0    0  501    0 -0.00000000000E+00 -0.00000000000E+00 -0.15519279829E+04  0.15519279829E+04  0.25500000000E-02 0. -1.
         11    1    1    2    0    0 -0.51048837499E+02 -0.29517799488E+03  0.87518884073E+03  0.92503596655E+03  0.51100000000E-03 0. -1.
         22    1    1    2    0    0 -0.75618826749E+01 -0.17236783635E+02  0.83204410665E+02  0.85306873895E+02  0.00000000000E+00 0. -1.
          2    1    1    2  501    0  0.58610720174E+02  0.31241477851E+03 -0.15093998939E+04  0.15425064830E+04  0.25500000000E-02 0. -1.
<mgrwt>
<rscale>  0 0.31786508E+03</rscale>
<asrwt>0</asrwt>
<pdfrwt beam="1">  1       11 0.10000000E+01 0.31980468E+03</pdfrwt>
<pdfrwt beam="2">  1        2 0.23897812E+00 0.31786508E+03</pdfrwt>
<totfact> 0.15826944E+01</totfact>
</mgrwt>
</event>
<event>
 5    1  0.6729100E-004  0.1355030E+03  0.7818608E-02  0.1219511E+00
         11   -1    0    0    0    0  0.00000000000E+00  0.00000000000E+00  0.10001280010E+04  0.10001280010E+04  0.51100000000E-03 0.  1.
          2   -1    0    0  501    0 -0.00000000000E+00 -0.00000000000E+00 -0.87667985809E+02  0.87667985846E+02  0.25500000000E-02 0.  1.
         11    1    1    2    0    0  0.69982462115E+02  0.10019771441E+03  0.73483386692E+03  0.74492814348E+03  0.51100000000E-03 0.  1.
         22    1    1    2    0    0  0.45537275108E+02 -0.26060428672E+02  0.19734062905E+03  0.20419626157E+03  0.00000000000E+00 0.  1.
          2    1    1    2  501    0 -0.11551973722E+03 -0.74137285738E+02 -0.19714480821E+02  0.13867158175E+03  0.25500000000E-02 0.  1.
<mgrwt>
<rscale>  0 0.13550302E+03</rscale>
<asrwt>0</asrwt>
<pdfrwt beam="1">  1       11 0.10000000E+01 0.52467031E+02</pdfrwt>
<pdfrwt beam="2">  1        2 0.13489108E-01 0.13550302E+03</pdfrwt>
<totfact> 0.53009371E+02</totfact>
</mgrwt>
</event>
<event>
 5    1  0.6729100E-004  0.2787833E+03  0.7818608E-02  0.1096355E+00
         11   -1    0    0    0    0  0.00000000000E+00  0.00000000000E+00  0.10001955040E+04  0.10001955040E+04  0.51100000000E-03 0.  1.
          2   -1    0    0  501    0 -0.00000000000E+00 -0.00000000000E+00 -0.18120653100E+03  0.18120653101E+03  0.25500000000E-02 0.  1.
         11    1    1    2    0    0  0.26317498260E+03 -0.55749908827E+02  0.16778130346E+03  0.31704840260E+03  0.51100000000E-03 0.  1.
         22    1    1    2    0    0  0.30743449995E+02  0.16212745838E+03  0.48083011502E+03  0.50835821228E+03  0.00000000000E+00 0.  1.
          2    1    1    2  501    0 -0.29391843260E+03 -0.10637754956E+03  0.17037755454E+03  0.35599542015E+03  0.25500000000E-02 0.  1.
<mgrwt>
<rscale>  0 0.27878330E+03</rscale>
<asrwt>0</asrwt>
<pdfrwt beam="1">  1       11 0.10000000E+01 0.16501658E+03</pdfrwt>
<pdfrwt beam="2">  1        2 0.27883377E-01 0.27878330E+03</pdfrwt>
<totfact> 0.23553154E+02</totfact>
</mgrwt>
</event>
<event>
 5    1  0.6729100E-004  0.1757626E+03  0.7818608E-02  0.1171968E+00
         11   -1    0    0    0    0  0.00000000000E+00  0.00000000000E+00  0.10001082955E+04  0.10001082955E+04  0.51100000000E-03 0. -1.
          2   -1    0    0  501    0 -0.00000000000E+00 -0.00000000000E+00 -0.44577923144E+02  0.44577923216E+02  0.25500000000E-02 0. -1.
         11    1    1    2    0    0  0.64355435334E+02  0.16767614292E+03  0.66388917244E+03  0.68775413066E+03  0.51100000000E-03 0. -1.
         22    1    1    2    0    0  0.15163698957E+02 -0.12176617369E+02  0.81003297010E+02  0.83305113307E+02  0.00000000000E+00 0. -1.
          2    1    1    2  501    0 -0.79519134291E+02 -0.15549952555E+03  0.21063790292E+03  0.27362697476E+03  0.25500000000E-02 0. -1.
<mgrwt>
<rscale>  0 0.17576257E+03</rscale>
<asrwt>0</asrwt>
<pdfrwt beam="1">  1       11 0.10000000E+01 0.19447565E+02</pdfrwt>
<pdfrwt beam="2">  1        2 0.68588845E-02 0.17576257E+03</pdfrwt>
<totfact> 0.12405780E+03</totfact>
</mgrwt>
</event>
<event>
 5    1  0.6729100E-004  0.4997616E+03  0.7818608E-02  0.1013841E+00
         11   -1    0    0    0    0  0.00000000000E+00  0.00000000000E+00  0.99972961180E+03  0.99972961180E+03  0.51100000000E-03 0.  1.
          2   -1    0    0  501    0 -0.00000000000E+00 -0.00000000000E+00 -0.70542718675E+03  0.70542718676E+03  0.25500000000E-02 0.  1.
         11    1    1    2    0    0  0.12177312208E+03 -0.50110041844E+03  0.80496782467E+03  0.95598301312E+03  0.51100000000E-03 0.  1.
         22    1    1    2    0    0  0.15293030787E+02  0.22337298530E+02  0.98438020207E+01  0.28805071333E+02  0.00000000000E+00 0. -1.
          2    1    1    2  501    0 -0.13706615287E+03  0.47876311991E+03 -0.52050920165E+03  0.72036871410E+03  0.25500000000E-02 0.  1.
<mgrwt>
<rscale>  0 0.49976157E+03</rscale>
<asrwt>0</asrwt>
<pdfrwt beam="1">  1       11 0.10000000E+01 0.27070864E+02</pdfrwt>
<pdfrwt beam="2">  1        2 0.10849791E+00 0.49976157E+03</pdfrwt>
<totfact> 0.50935341E+01</totfact>
</mgrwt>
</event>
<event>
 5    1  0.6729100E-004  0.2094903E+03  0.7818608E-02  0.1141970E+00
         11   -1    0    0    0    0  0.00000000000E+00  0.00000000000E+00  0.10003985749E+04  0.10003985749E+04  0.51100000000E-03 0. -1.
          2   -1    0    0  501    0 -0.00000000000E+00 -0.00000000000E+00 -0.13992916776E+04  0.13992916776E+04  0.25500000000E-02 0. -1.
         11    1    1    2    0    0 -0.19263619840E+03 -0.19536838531E+02  0.89549479291E+03  0.91618847249E+03  0.51100000000E-03 0. -1.
         22    1    1    2    0    0 -0.12151495193E+02 -0.25307115759E+02  0.84359208321E+02  0.88907732915E+02  0.00000000000E+00 0.  1.
          2    1    1    2  501    0  0.20478769359E+03  0.44843954290E+02 -0.13787471039E+04  0.13945940471E+04  0.25500000000E-02 0. -1.
<mgrwt>
<rscale>  0 0.20949034E+03</rscale>
<asrwt>0</asrwt>
<pdfrwt beam="1">  1       11 0.10000000E+01 0.28073278E+02</pdfrwt>
<pdfrwt beam="2">  1        2 0.21536144E+00 0.20949034E+03</pdfrwt>
<totfact> 0.19727819E+01</totfact>
</mgrwt>
</event>
<event>
 5    1  0.6729100E-004  0.1309008E+03  0.7818608E-02  0.1226125E+00
         11   -1    0    0    0    0  0.00000000000E+00  0.00000000000E+00  0.10001366001E+04  0.10001366001E+04  0.51100000000E-03 0.  1.
         -2   -1    0    0    0  501 -0.00000000000E+00 -0.00000000000E+00 -0.25951218083E+02  0.25951218208E+02  0.25500000000E-02 0. -1.
         11    1    1    2    0    0 -0.54049010129E+02  0.10503379183E+03  0.52212626455E+03  0.53532161273E+03  0.51100000000E-03 0.  1.
         22    1    1    2    0    0 -0.41112554565E+02 -0.31182199825E+01  0.18453310509E+03  0.18908313598E+03  0.00000000000E+00 0.  1.
         -2    1    1    2    0  501  0.95161564694E+02 -0.10191557185E+03  0.26752601243E+03  0.30168306965E+03  0.25500000000E-02 0. -1.
<mgrwt>
<rscale>  0 0.13090081E+03</rscale>
<asrwt>0</asrwt>
<pdfrwt beam="1">  1       11 0.10000000E+01 0.41230637E+02</pdfrwt>
<pdfrwt beam="2">  1       -2 0.39930404E-02 0.13090081E+03</pdfrwt>
<totfact> 0.20597404E+03</totfact>
</mgrwt>
</event>
<event>
 5    1  0.6729100E-004  0.2849849E+03  0.7818608E-02  0.1092997E+00
         11   -1    0    0    0    0  0.00000000000E+00  0.00000000000E+00  0.10001132233E+04  0.10001132233E+04  0.51100000000E-03 0. -1.
          2   -1    0    0  501    0 -0.00000000000E+00 -0.00000000000E+00 -0.29952133876E+03  0.29952133877E+03  0.25500000000E-02 0. -1.
         11    1    1    2    0    0  0.16690088525E+03 -0.44888864484E+02 -0.12356642378E+03  0.21246076517E+03  0.51100000000E-03 0. -1.
         22    1    1    2    0    0  0.10472965146E+03  0.19641707833E+03  0.72851717003E+03  0.76176455390E+03  0.00000000000E+00 0.  1.
          2    1    1    2  501    0 -0.27163053672E+03 -0.15152821385E+03  0.95641138235E+02  0.32540924295E+03  0.25500000000E-02 0. -1.
<mgrwt>
<rscale>  0 0.28498489E+03</rscale>
<asrwt>0</asrwt>
<pdfrwt beam="1">  1       11 0.10000000E+01 0.17283213E+03</pdfrwt>
<pdfrwt beam="2">  1        2 0.46085422E-01 0.28498489E+03</pdfrwt>
<totfact> 0.13593938E+02</totfact>
</mgrwt>
</event>
<event>
 5    1  0.6729100E-004  0.6531922E+03  0.7818608E-02  0.9800808E-01
         11   -1    0    0    0    0  0.00000000000E+00  0.00000000000E+00  0.10004814561E+04  0.10004814561E+04  0.51100000000E-03 0.  1.
          2   -1    0    0  501    0 -0.00000000000E+00 -0.00000000000E+00 -0.41896063285E+03  0.41896063286E+03  0.25500000000E-02 0.  1.
         11    1    1    2    0    0  0.19097627575E+01 -0.64141265535E+03  0.27424690470E+03  0.69758526817E+03  0.51100000000E-03 0.  1.
         22    1    1    2    0    0  0.37205904195E+02  0.12706388019E+03  0.28196531165E+02  0.13536821387E+03  0.00000000000E+00 0.  1.
          2    1    1    2  501    0 -0.39115666952E+02  0.51434877516E+03  0.27907738742E+03  0.58648860695E+03  0.25500000000E-02 0.  1.
<mgrwt>
<rscale>  0 0.65319217E+03</rscale>
<asrwt>0</asrwt>
<pdfrwt beam="1">  1       11 0.10000000E+01 0.64141582E+03</pdfrwt>
<pdfrwt beam="2">  1        2 0.64486513E-01 0.65319217E+03</pdfrwt>
<totfact> 0.93440014E+01</totfact>
</mgrwt>
</event>
<event>
 5    1  0.6729100E-004  0.1161101E+03  0.7818608E-02  0.1601555E+00
         11   -1    0    0    0    0  0.00000000000E+00  0.00000000000E+00  0.10000152875E+04  0.10000152875E+04  0.51100000000E-03 0. -1.
          2   -1    0    0  501    0 -0.00000000000E+00 -0.00000000000E+00 -0.87764664651E+02  0.87764664688E+02  0.25500000000E-02 0.  1.
         11    1    1    2    0    0 -0.56972960162E+01  0.10744356073E+03  0.36812494843E+03  0.38352647311E+03  0.51100000000E-03 0. -1.
         22    1    1    2    0    0 -0.19871994237E+02 -0.12253096915E+03  0.61500514461E+03  0.62740741345E+03  0.00000000000E+00 0. -1.
          2    1    1    2  501    0  0.25569290253E+02  0.15087408424E+02 -0.70879470203E+02  0.76846065610E+02  0.25500000000E-02 0.  1.
<mgrwt>
<rscale>  0 0.29688693E+02</rscale>
<asrwt>0</asrwt>
<pdfrwt beam="1">  1       11 0.10000000E+01 0.11611011E+03</pdfrwt>
<pdfrwt beam="2">  1        2 0.13502462E-01 0.29688693E+02</pdfrwt>
<totfact> 0.48449372E+02</totfact>
</mgrwt>
</event>
<event>
 5    1  0.6729100E-004  0.2559578E+03  0.7818608E-02  0.1109596E+00
         11   -1    0    0    0    0  0.00000000000E+00  0.00000000000E+00  0.10001429146E+04  0.10001429146E+04  0.51100000000E-03 0. -1.
          2   -1    0    0  501    0 -0.00000000000E+00 -0.00000000000E+00 -0.43425711744E+03  0.43425711744E+03  0.25500000000E-02 0.  1.
         11    1    1    2    0    0  0.22311620239E+03 -0.15888202276E+03  0.88080510599E+03  0.92241095595E+03  0.51100000000E-03 0. -1.
         22    1    1    2    0    0 -0.10801910166E+02  0.17328211302E+02  0.57226510943E+02  0.60760363106E+02  0.00000000000E+00 0. -1.
          2    1    1    2  501    0 -0.21231429222E+03  0.14155381146E+03 -0.37214581978E+03  0.45122871297E+03  0.25500000000E-02 0.  1.
<mgrwt>
<rscale>  0 0.25595780E+03</rscale>
<asrwt>0</asrwt>
<pdfrwt beam="1">  1       11 0.10000000E+01 0.20419309E+02</pdfrwt>
<pdfrwt beam="2">  1        2 0.66818333E-01 0.25595780E+03</pdfrwt>
<totfact> 0.90756715E+01</totfact>
</mgrwt>
</event>
<event>
 5    1  0.6729100E-004  0.1420496E+03  0.7818608E-02  0.1210597E+00
         11   -1    0    0    0    0  0.00000000000E+00  0.00000000000E+00  0.10002778268E+04  0.10002778268E+04  0.51100000000E-03 0. -1.
         -2   -1    0    0    0  501 -0.00000000000E+00 -0.00000000000E+00 -0.28837964060E+02  0.28837964172E+02  0.25500000000E-02 0. -1.
         11    1    1    2    0    0 -0.55275430899E+02 -0.12744004369E+03  0.19283260877E+03  0.23765679666E+03  0.51100000000E-03 0. -1.
         22    1    1    2    0    0 -0.33864106477E+01  0.13056084983E+02  0.70944380952E+02  0.72215194529E+02  0.00000000000E+00 0.  1.
         -2    1    1    2    0  501  0.58661841547E+02  0.11438395871E+03  0.70766287306E+03  0.71924379981E+03  0.25500000000E-02 0. -1.
<mgrwt>
<rscale>  0 0.14204958E+03</rscale>
<asrwt>0</asrwt>
<pdfrwt beam="1">  1       11 0.10000000E+01 0.13891133E+03</pdfrwt>
<pdfrwt beam="2">  1       -2 0.44378423E-02 0.14204958E+03</pdfrwt>
<totfact> 0.17733698E+03</totfact>
</mgrwt>
</event>
<event>
 5    1  0.6729100E-004  0.5805094E+03  0.7818608E-02  0.9946689E-01
         11   -1    0    0    0    0  0.00000000000E+00  0.00000000000E+00  0.10002248154E+04  0.10002248154E+04  0.51100000000E-03 0. -1.
          2   -1    0    0  501    0 -0.00000000000E+00 -0.00000000000E+00 -0.92308665483E+03  0.92308665484E+03  0.25500000000E-02 0. -1.
         11    1    1    2    0    0  0.51687639891E+03 -0.97572403312E+02  0.50616426349E+03  0.72998893640E+03  0.51100000000E-03 0. -1.
         22    1    1    2    0    0  0.55326688263E+02 -0.46979681568E+02  0.26935685386E+03  0.27896459926E+03  0.00000000000E+00 0.  1.
          2    1    1    2  501    0 -0.57220308717E+03  0.14455208488E+03 -0.69838295678E+03  0.91435793458E+03  0.25500000000E-02 0. -1.
<mgrwt>
<rscale>  0 0.58050938E+03</rscale>
<asrwt>0</asrwt>
<pdfrwt beam="1">  1       11 0.10000000E+01 0.72581905E+02</pdfrwt>
<pdfrwt beam="2">  1        2 0.14204525E+00 0.58050938E+03</pdfrwt>
<totfact> 0.35517727E+01</totfact>
</mgrwt>
</event>
<event>
 5    1  0.6729100E-004  0.1841986E+03  0.7818608E-02  0.1163800E+00
         11   -1    0    0    0    0  0.00000000000E+00  0.00000000000E+00  0.10004304670E+04  0.10004304670E+04  0.51100000000E-03 0.  1.
         -2   -1    0    0    0  501 -0.00000000000E+00 -0.00000000000E+00 -0.59550080550E+02  0.59550080604E+02  0.25500000000E-02 0. -1.
         11    1    1    2    0    0 -0.20508756457E+03  0.38374411654E+02  0.51585725362E+03  0.55645503926E+03  0.51100000000E-03 0.  1.
         22    1    1    2    0    0  0.29439623602E+02 -0.53762396683E+02  0.24097202285E+03  0.24864553592E+03  0.00000000000E+00 0. -1.
         -2    1    1    2    0  501  0.17564794097E+03  0.15387985030E+02  0.18405110998E+03  0.25487997242E+03  0.25500000000E-02 0. -1.
<mgrwt>
<rscale>  0 0.18419863E+03</rscale>
<asrwt>0</asrwt>
<pdfrwt beam="1">  1       11 0.10000000E+01 0.61295079E+02</pdfrwt>
<pdfrwt beam="2">  1       -2 0.91654943E-02 0.18419863E+03</pdfrwt>
<totfact> 0.59613943E+02</totfact>
</mgrwt>
</event>
<event>
 5    1  0.8039872E-004  0.2196266E+03  0.7818608E-02  0.1136117E+00
         11   -1    0    0    0    0  0.00000000000E+00  0.00000000000E+00  0.10001426439E+04  0.10001426439E+04  0.51100000000E-03 0. -1.
          2   -1    0    0  501    0 -0.00000000000E+00 -0.00000000000E+00 -0.65104643501E+03  0.65104643502E+03  0.25500000000E-02 0. -1.
         11    1    1    2    0    0  0.18402561466E+03  0.90510321030E+02  0.89514088918E+03  0.91833259582E+03  0.51100000000E-03 0. -1.
         22    1    1    2    0    0  0.69698862009E+01  0.12557140485E+02  0.74283170428E+02  0.75658776752E+02  0.00000000000E+00 0.  1.
          2    1    1    2  501    0 -0.19099550086E+03 -0.10306746152E+03 -0.62032785067E+03  0.65719770640E+03  0.25500000000E-02 0. -1.
<mgrwt>
<rscale>  0 0.21703037E+03</rscale>
<asrwt>0</asrwt>
<pdfrwt beam="1">  1       11 0.10000000E+01 0.21962660E+03</pdfrwt>
<pdfrwt beam="2">  1        2 0.10017527E+00 0.21703037E+03</pdfrwt>
<totfact> 0.57474538E+01</totfact>
</mgrwt>
</event>
<event>
 5    1  0.6729100E-004  0.1547886E+03  0.7818608E-02  0.1283041E+00
         11   -1    0    0    0    0  0.00000000000E+00  0.00000000000E+00  0.10006735261E+04  0.10006735261E+04  0.51100000000E-03 0. -1.
         -2   -1    0    0    0  501 -0.00000000000E+00 -0.00000000000E+00 -0.13390213631E+03  0.13390213634E+03  0.25500000000E-02 0.  1.
         11    1    1    2    0    0  0.14809373643E+03 -0.91247774001E+02  0.51343720760E+03  0.54210301344E+03  0.51100000000E-03 0. -1.
         22    1    1    2    0    0 -0.15129447489E+03 -0.74064598598E+01  0.43735807446E+03  0.46284658266E+03  0.00000000000E+00 0.  1.
         -2    1    1    2    0  501  0.32007384575E+01  0.98654233860E+02 -0.84023892297E+02  0.12962606632E+03  0.25500000000E-02 0.  1.
<mgrwt>
<rscale>  0 0.98706143E+02</rscale>
<asrwt>0</asrwt>
<pdfrwt beam="1">  1       11 0.10000000E+01 0.15478863E+03</pdfrwt>
<pdfrwt beam="2">  1       -2 0.20614203E-01 0.98706143E+02</pdfrwt>
<totfact> 0.15536012E+02</totfact>
</mgrwt>
</event>
<event>
 5    1  0.6729100E-004  0.1154612E+03  0.7818608E-02  0.1385147E+00
         11   -1    0    0    0    0  0.00000000000E+00  0.00000000000E+00  0.10007254098E+04  0.10007254098E+04  0.51100000000E-03 0. -1.
          2   -1    0    0  501    0 -0.00000000000E+00 -0.00000000000E+00 -0.36092615263E+03  0.36092615263E+03  0.25500000000E-02 0. -1.
         11    1    1    2    0    0  0.90257859413E+02 -0.11136546986E+03  0.79318088332E+03  0.80603018723E+03  0.51100000000E-03 0. -1.
         22    1    1    2    0    0 -0.51222078123E+02  0.61750764610E+02  0.19012606948E+03  0.20636080179E+03  0.00000000000E+00 0. -1.
          2    1    1    2  501    0 -0.39035781289E+02  0.49614705253E+02 -0.34350769562E+03  0.34926057343E+03  0.25500000000E-02 0. -1.
<mgrwt>
<rscale>  0 0.63130113E+02</rscale>
<asrwt>0</asrwt>
<pdfrwt beam="1">  1       11 0.10000000E+01 0.11546119E+03</pdfrwt>
<pdfrwt beam="2">  1        2 0.55567379E-01 0.63130113E+02</pdfrwt>
<totfact> 0.11124096E+02</totfact>
</mgrwt>
</event>
<event>
 5    1  0.6729100E-004  0.1548614E+03  0.7818608E-02  0.1194623E+00
         11   -1    0    0    0    0  0.00000000000E+00  0.00000000000E+00  0.10003719396E+04  0.10003719396E+04  0.51100000000E-03 0. -1.
          2   -1    0    0  501    0 -0.00000000000E+00 -0.00000000000E+00 -0.44836019151E+03  0.44836019152E+03  0.25500000000E-02 0. -1.
         11    1    1    2    0    0 -0.72130302646E+02 -0.10248440861E+03  0.74662095736E+03  0.75706584161E+03  0.51100000000E-03 0. -1.
         22    1    1    2    0    0  0.64884815512E+02 -0.53113371548E+02  0.22711238666E+03  0.24209730625E+03  0.00000000000E+00 0.  1.
          2    1    1    2  501    0  0.72454871339E+01  0.15559778016E+03 -0.42172159590E+03  0.44956898328E+03  0.25500000000E-02 0. -1.
<mgrwt>
<rscale>  0 0.15486140E+03</rscale>
<asrwt>0</asrwt>
<pdfrwt beam="1">  1       11 0.10000000E+01 0.83851473E+02</pdfrwt>
<pdfrwt beam="2">  1        2 0.69004145E-01 0.15486140E+03</pdfrwt>
<totfact> 0.88091359E+01</totfact>
</mgrwt>
</event>
<event>
 5    1  0.6729100E-004  0.1390632E+03  0.7818608E-02  0.1280102E+00
         11   -1    0    0    0    0  0.00000000000E+00  0.00000000000E+00  0.10000289638E+04  0.10000289638E+04  0.51100000000E-03 0. -1.
         -2   -1    0    0    0  501 -0.00000000000E+00 -0.00000000000E+00 -0.62449583200E+02  0.62449583252E+02  0.25500000000E-02 0.  1.
         11    1    1    2    0    0  0.11743653213E+03 -0.15889009600E+03  0.23644353166E+03  0.30812813138E+03  0.51100000000E-03 0. -1.
         22    1    1    2    0    0 -0.11672821426E+03  0.58800494127E+02  0.59203857197E+03  0.60629418999E+03  0.00000000000E+00 0.  1.
         -2    1    1    2    0  501 -0.70831786216E+00  0.10008960187E+03  0.10909727701E+03  0.14805622572E+03  0.25500000000E-02 0.  1.
<mgrwt>
<rscale>  0 0.10009211E+03</rscale>
<asrwt>0</asrwt>
<pdfrwt beam="1">  1       11 0.10000000E+01 0.13906315E+03</pdfrwt>
<pdfrwt beam="2">  1       -2 0.96079062E-02 0.10009211E+03</pdfrwt>
<totfact> 0.53281323E+02</totfact>
</mgrwt>
</event>
<event>
 5    1  0.6729100E-004  0.2039749E+03  0.7818608E-02  0.1146428E+00
         11   -1    0    0    0    0  0.00000000000E+00  0.00000000000E+00  0.10001220616E+04  0.10001220616E+04  0.51100000000E-03 0. -1.
         -2   -1    0    0    0  501 -0.00000000000E+00 -0.00000000000E+00 -0.65862254977E+02  0.65862255026E+02  0.25500000000E-02 0.  1.
         11    1    1    2    0    0 -0.68944919129E+01  0.18214617755E+03  0.34834980717E+03  0.39315690528E+03  0.51100000000E-03 0. -1.
         22    1    1    2    0    0 -0.44566190372E+02  0.35362602501E+02  0.32199126606E+03  0.32697864517E+03  0.00000000000E+00 0. -1.
         -2    1    1    2    0  501  0.51460682285E+02 -0.21750878005E+03  0.26391873338E+03  0.34584876616E+03  0.25500000000E-02 0.  1.
<mgrwt>
<rscale>  0 0.20397485E+03</rscale>
<asrwt>0</asrwt>
<pdfrwt beam="1">  1       11 0.10000000E+01 0.56891642E+02</pdfrwt>
<pdfrwt beam="2">  1       -2 0.10133891E-01 0.20397485E+03</pdfrwt>
<totfact> 0.51159120E+02</totfact>
</mgrwt>
</event>
<event>
 5    1  0.6729100E-004  0.2280316E+03  0.7818608E-02  0.1134081E+00
         11   -1    0    0    0    0  0.00000000000E+00  0.00000000000E+00  0.10001802056E+04  0.10001802056E+04  0.51100000000E-03 0.  1.
          2   -1    0    0  501    0 -0.00000000000E+00 -0.00000000000E+00 -0.13034627326E+03  0.13034627328E+03  0.25500000000E-02 0.  1.
         11    1    1    2    0    0 -0.71196114080E+02  0.27258438256E+02  0.37616455755E+03  0.38381204186E+03  0.51100000000E-03 0.  1.
         22    1    1    2    0    0 -0.10210962391E+03  0.10782949727E+03  0.50530111383E+03  0.52667142643E+03  0.00000000000E+00 0.  1.
          2    1    1    2  501    0  0.17330573799E+03 -0.13508793553E+03 -0.11631739061E+02  0.22004301058E+03  0.25500000000E-02 0.  1.
<mgrwt>
<rscale>  0 0.21973536E+03</rscale>
<asrwt>0</asrwt>
<pdfrwt beam="1">  1       11 0.10000000E+01 0.22803161E+03</pdfrwt>
<pdfrwt beam="2">  1        2 0.20056886E-01 0.21973536E+03</pdfrwt>
<totfact> 0.33981822E+02</totfact>
</mgrwt>
</event>
<event>
 5    1  0.6729100E-004  0.1380231E+03  0.7818608E-02  0.1348066E+00
         11   -1    0    0    0    0  0.00000000000E+00  0.00000000000E+00  0.10003468263E+04  0.10003468263E+04  0.51100000000E-03 0.  1.
         -2   -1    0    0    0  501 -0.00000000000E+00 -0.00000000000E+00 -0.17042263925E+03  0.17042263927E+03  0.25500000000E-02 0. -1.
         11    1    1    2    0    0  0.10832035363E+03 -0.13482058186E+03  0.40505573251E+03  0.44043164594E+03  0.51100000000E-03 0.  1.
         22    1    1    2    0    0 -0.35735046174E+02  0.12227307395E+03  0.56114725661E+03  0.57542500966E+03  0.00000000000E+00 0.  1.
         -2    1    1    2    0  501 -0.72585307456E+02  0.12547507902E+02 -0.13627880204E+03  0.15491281001E+03  0.25500000000E-02 0. -1.
<mgrwt>
<rscale>  0 0.73661841E+02</rscale>
<asrwt>0</asrwt>
<pdfrwt beam="1">  1       11 0.10000000E+01 0.13802306E+03</pdfrwt>
<pdfrwt beam="2">  1       -2 0.26227960E-01 0.73661841E+02</pdfrwt>
<totfact> 0.10191101E+02</totfact>
</mgrwt>
</event>
<event>
 5    1  0.6729100E-004  0.1384445E+03  0.7818608E-02  0.1215437E+00
         11   -1    0    0    0    0  0.00000000000E+00  0.00000000000E+00  0.10004992387E+04  0.10004992387E+04  0.51100000000E-03 0.  1.
          2   -1    0    0  501    0 -0.00000000000E+00 -0.00000000000E+00 -0.82175872253E+02  0.82175872292E+02  0.25500000000E-02 0.  1.
         11    1    1    2    0    0  0.48039880407E+02  0.97840038481E+02  0.61515570151E+03  0.62473757718E+03  0.51100000000E-03 0.  1.
         22    1    1    2    0    0  0.95960814123E+02 -0.11441761109E+03  0.27105933628E+03  0.30947218188E+03  0.00000000000E+00 0.  1.
          2    1    1    2  501    0 -0.14400069453E+03  0.16577572612E+02  0.32108328619E+02  0.14846535189E+03  0.25500000000E-02 0.  1.
<mgrwt>
<rscale>  0 0.13844447E+03</rscale>
<asrwt>0</asrwt>
<pdfrwt beam="1">  1       11 0.10000000E+01 0.10899772E+03</pdfrwt>
<pdfrwt beam="2">  1        2 0.12648753E-01 0.13844447E+03</pdfrwt>
<totfact> 0.57284884E+02</totfact>
</mgrwt>
</event>
<event>
 5    1  0.6729100E-004  0.1763978E+03  0.7818608E-02  0.1173695E+00
         11   -1    0    0    0    0  0.00000000000E+00  0.00000000000E+00  0.10000343720E+04  0.10000343720E+04  0.51100000000E-03 0.  1.
          2   -1    0    0  501    0 -0.00000000000E+00 -0.00000000000E+00 -0.43306292094E+02  0.43306292169E+02  0.25500000000E-02 0.  1.
         11    1    1    2    0    0 -0.55318901250E+02  0.15315526965E+03  0.68954494068E+03  0.70851178020E+03  0.51100000000E-03 0.  1.
         22    1    1    2    0    0 -0.10445921022E+02  0.79852106315E+01  0.72536707562E+02  0.73718754728E+02  0.00000000000E+00 0. -1.
          2    1    1    2  501    0  0.65764822273E+02 -0.16114048028E+03  0.19464643171E+03  0.26111012929E+03  0.25500000000E-02 0.  1.
<mgrwt>
<rscale>  0 0.17404386E+03</rscale>
<asrwt>0</asrwt>
<pdfrwt beam="1">  1       11 0.10000000E+01 0.17639776E+03</pdfrwt>
<pdfrwt beam="2">  1        2 0.66627353E-02 0.17404386E+03</pdfrwt>
<totfact> 0.12868267E+03</totfact>
</mgrwt>
</event>
<event>
 5    1  0.6729100E-004  0.1437498E+03  0.7818608E-02  0.1246135E+00
         11   -1    0    0    0    0  0.00000000000E+00  0.00000000000E+00  0.10001418889E+04  0.10001418889E+04  0.51100000000E-03 0. -1.
          2   -1    0    0  501    0 -0.00000000000E+00 -0.00000000000E+00 -0.25547286333E+03  0.25547286334E+03  0.25500000000E-02 0. -1.
         11    1    1    2    0    0  0.11680137629E+03  0.53408923254E+02  0.36690848831E+02  0.13357130296E+03  0.51100000000E-03 0. -1.
         22    1    1    2    0    0 -0.42224512543E+02 -0.14508271875E+03  0.89125309987E+03  0.90397123448E+03  0.00000000000E+00 0.  1.
          2    1    1    2  501    0 -0.74576863746E+02  0.91673795496E+02 -0.18327492316E+03  0.21807221477E+03  0.25500000000E-02 0. -1.
<mgrwt>
<rscale>  0 0.11817696E+03</rscale>
<asrwt>0</asrwt>
<pdfrwt beam="1">  1       11 0.10000000E+01 0.14374976E+03</pdfrwt>
<pdfrwt beam="2">  1        2 0.39309093E-01 0.11817696E+03</pdfrwt>
<totfact> 0.16033052E+02</totfact>
</mgrwt>
</event>
<event>
 5    1  0.6729100E-004  0.2621539E+03  0.7818608E-02  0.1105856E+00
         11   -1    0    0    0    0  0.00000000000E+00  0.00000000000E+00  0.10000096617E+04  0.10000096617E+04  0.51100000000E-03 0. -1.
          2   -1    0    0  501    0 -0.00000000000E+00 -0.00000000000E+00 -0.88507566534E+03  0.88507566534E+03  0.25500000000E-02 0. -1.
         11    1    1    2    0    0 -0.25753509289E+03 -0.43072565241E+02  0.84112175413E+03  0.88071866974E+03  0.51100000000E-03 0. -1.
         22    1    1    2    0    0  0.24442976601E+02 -0.77581644224E+02  0.10494397808E+03  0.13277653844E+03  0.00000000000E+00 0. -1.
          2    1    1    2  501    0  0.23309211629E+03  0.12065420947E+03 -0.83113173586E+03  0.87159011886E+03  0.25500000000E-02 0. -1.
<mgrwt>
<rscale>  0 0.26215390E+03</rscale>
<asrwt>0</asrwt>
<pdfrwt beam="1">  1       11 0.10000000E+01 0.81341076E+02</pdfrwt>
<pdfrwt beam="2">  1        2 0.13616680E+00 0.26215390E+03</pdfrwt>
<totfact> 0.38895176E+01</totfact>
</mgrwt>
</event>
<event>
 5    1  0.6729100E-004  0.1802487E+03  0.7818608E-02  0.1167563E+00
         11   -1    0    0    0    0  0.00000000000E+00  0.00000000000E+00  0.10004858989E+04  0.10004858989E+04  0.51100000000E-03 0.  1.
         -2   -1    0    0    0  501 -0.00000000000E+00 -0.00000000000E+00 -0.21490693590E+03  0.21490693592E+03  0.25500000000E-02 0. -1.
         11    1    1    2    0    0 -0.12387948809E+01  0.19252478803E+03  0.82611002913E+03  0.84824825897E+03  0.51100000000E-03 0.  1.
         22    1    1    2    0    0 -0.17469430453E+02 -0.13794719940E+02  0.12249993971E+03  0.12450586543E+03  0.00000000000E+00 0.  1.
         -2    1    1    2    0  501  0.18708225334E+02 -0.17873006809E+03 -0.16303100582E+03  0.24263871043E+03  0.25500000000E-02 0. -1.
<mgrwt>
<rscale>  0 0.18024871E+03</rscale>
<asrwt>0</asrwt>
<pdfrwt beam="1">  1       11 0.10000000E+01 0.22259274E+02</pdfrwt>
<pdfrwt beam="2">  1       -2 0.33078670E-01 0.18024871E+03</pdfrwt>
<totfact> 0.68599367E+01</totfact>
</mgrwt>
</event>
<event>
 5    1  0.6729100E-004  0.1516824E+03  0.7818608E-02  0.1303599E+00
         11   -1    0    0    0    0  0.00000000000E+00  0.00000000000E+00  0.10000112889E+04  0.10000112889E+04  0.51100000000E-03 0.  1.
         -2   -1    0    0    0  501 -0.00000000000E+00 -0.00000000000E+00 -0.13200667320E+03  0.13200667323E+03  0.25500000000E-02 0. -1.
         11    1    1    2    0    0 -0.74027303694E+02 -0.10346773195E+03  0.45840814377E+03  0.47573484161E+03  0.51100000000E-03 0.  1.
         22    1    1    2    0    0  0.13647267057E+03  0.16785132981E+03  0.49012558309E+03  0.53574429155E+03  0.00000000000E+00 0.  1.
         -2    1    1    2    0  501 -0.62445366876E+02 -0.64383597852E+02 -0.80529111213E+02  0.12053882891E+03  0.25500000000E-02 0. -1.
<mgrwt>
<rscale>  0 0.89692093E+02</rscale>
<asrwt>0</asrwt>
<pdfrwt beam="1">  1       11 0.10000000E+01 0.15168236E+03</pdfrwt>
<pdfrwt beam="2">  1       -2 0.20308948E-01 0.89692093E+02</pdfrwt>
<totfact> 0.15873708E+02</totfact>
</mgrwt>
</event>
<event>
 5    1  0.6729100E-004  0.1223316E+03  0.7818608E-02  0.1239300E+00
         11   -1    0    0    0    0  0.00000000000E+00  0.00000000000E+00  0.10003988351E+04  0.10003988351E+04  0.51100000000E-03 0. -1.
          2   -1    0    0  501    0 -0.00000000000E+00 -0.00000000000E+00 -0.30036318774E+02  0.30036318882E+02  0.25500000000E-02 0. -1.
         11    1    1    2    0    0  0.25016844356E+02  0.50204787166E+02  0.48634635728E+02  0.74240763389E+02  0.51100000000E-03 0. -1.
         22    1    1    2    0    0  0.79526284467E+02  0.48841554425E+02  0.54394776375E+03  0.55189591143E+03  0.00000000000E+00 0. -1.
          2    1    1    2  501    0 -0.10454312882E+03 -0.99046341591E+02  0.37778011689E+03  0.40429847921E+03  0.25500000000E-02 0. -1.
<mgrwt>
<rscale>  0 0.12233157E+03</rscale>
<asrwt>0</asrwt>
<pdfrwt beam="1">  1       11 0.10000000E+01 0.56092480E+02</pdfrwt>
<pdfrwt beam="2">  1        2 0.46228150E-02 0.12233157E+03</pdfrwt>
<totfact> 0.20125523E+03</totfact>
</mgrwt>
</event>
<event>
 5    1  0.6729100E-004  0.1780476E+03  0.7818608E-02  0.1176443E+00
         11   -1    0    0    0    0  0.00000000000E+00  0.00000000000E+00  0.10000100020E+04  0.10000100020E+04  0.51100000000E-03 0.  1.
          2   -1    0    0  501    0 -0.00000000000E+00 -0.00000000000E+00 -0.39007170065E+02  0.39007170149E+02  0.25500000000E-02 0. -1.
         11    1    1    2    0    0 -0.13856501338E+03  0.27791750903E+02  0.56168836613E+03  0.57919466934E+03  0.51100000000E-03 0.  1.
         22    1    1    2    0    0 -0.23524703790E+02  0.27789194758E+02  0.16830541599E+03  0.17219861812E+03  0.00000000000E+00 0.  1.
          2    1    1    2  501    0  0.16208971717E+03 -0.55580945661E+02  0.23100904983E+03  0.28762388469E+03  0.25500000000E-02 0. -1.
<mgrwt>
<rscale>  0 0.17135436E+03</rscale>
<asrwt>0</asrwt>
<pdfrwt beam="1">  1       11 0.10000000E+01 0.17804761E+03</pdfrwt>
<pdfrwt beam="2">  1        2 0.60011629E-02 0.17135436E+03</pdfrwt>
<totfact> 0.14712309E+03</totfact>
</mgrwt>
</event>
<event>
 5    1  0.6729100E-004  0.6618248E+03  0.7818608E-02  0.9784840E-01
         11   -1    0    0    0    0  0.00000000000E+00  0.00000000000E+00  0.10004194335E+04  0.10004194335E+04  0.51100000000E-03 0.  1.
          2   -1    0    0  501    0 -0.00000000000E+00 -0.00000000000E+00 -0.50848290547E+03  0.50848290548E+03  0.25500000000E-02 0.  1.
         11    1    1    2    0    0 -0.56391342445E+03 -0.34254256250E+03  0.47773921407E+03  0.81459714832E+03  0.51100000000E-03 0.  1.
         22    1    1    2    0    0  0.29966687834E+01 -0.10683278120E+02  0.29230080930E+02  0.31265157706E+02  0.00000000000E+00 0.  1.
          2    1    1    2  501    0  0.56091675566E+03  0.35322584062E+03 -0.15032766923E+02  0.66304003299E+03  0.25500000000E-02 0.  1.
<mgrwt>
<rscale>  0 0.66182478E+03</rscale>
<asrwt>0</asrwt>
<pdfrwt beam="1">  1       11 0.10000000E+01 0.11095605E+02</pdfrwt>
<pdfrwt beam="2">  1        2 0.78260949E-01 0.66182478E+03</pdfrwt>
<totfact> 0.74878564E+01</totfact>
</mgrwt>
</event>
<event>
 5    1  0.6729100E-004  0.2556184E+03  0.7818608E-02  0.1109805E+00
         11   -1    0    0    0    0  0.00000000000E+00  0.00000000000E+00  0.10002765193E+04  0.10002765193E+04  0.51100000000E-03 0.  1.
          2   -1    0    0  501    0 -0.00000000000E+00 -0.00000000000E+00 -0.72581333194E+02  0.72581333239E+02  0.25500000000E-02 0.  1.
         11    1    1    2    0    0  0.12489892528E+03 -0.22804963760E+03  0.49497378836E+03  0.55911128580E+03  0.51100000000E-03 0.  1.
         22    1    1    2    0    0 -0.13057954143E+02  0.17916371473E+01  0.73808316640E+02  0.74975914368E+02  0.00000000000E+00 0. -1.
          2    1    1    2  501    0 -0.11184097113E+03  0.22625800045E+03  0.35891308114E+03  0.43877065240E+03  0.25500000000E-02 0.  1.
<mgrwt>
<rscale>  0 0.25561840E+03</rscale>
<asrwt>0</asrwt>
<pdfrwt beam="1">  1       11 0.10000000E+01 0.13180293E+02</pdfrwt>
<pdfrwt beam="2">  1        2 0.11169446E-01 0.25561840E+03</pdfrwt>
<totfact> 0.68539045E+02</totfact>
</mgrwt>
</event>
<event>
 5    1  0.6729100E-004  0.2332712E+03  0.7818608E-02  0.1126254E+00
         11   -1    0    0    0    0  0.00000000000E+00  0.00000000000E+00  0.99998664118E+03  0.99998664118E+03  0.51100000000E-03 0. -1.
         -2   -1    0    0    0  501 -0.00000000000E+00 -0.00000000000E+00 -0.17977075534E+03  0.17977075535E+03  0.25500000000E-02 0. -1.
         11    1    1    2    0    0 -0.15686370234E+03  0.14314003598E+03  0.81454718780E+03  0.84177337340E+03  0.51100000000E-03 0. -1.
         22    1    1    2    0    0 -0.20315249298E+02  0.43730821954E+01  0.90097323171E+02  0.92462753823E+02  0.00000000000E+00 0. -1.
         -2    1    1    2    0  501  0.17717895164E+03 -0.14751311817E+03 -0.84428625126E+02  0.24552126931E+03  0.25500000000E-02 0. -1.
<mgrwt>
<rscale>  0 0.23054826E+03</rscale>
<asrwt>0</asrwt>
<pdfrwt beam="1">  1       11 0.10000000E+01 0.23327119E+03</pdfrwt>
<pdfrwt beam="2">  1       -2 0.27656669E-01 0.23054826E+03</pdfrwt>
<totfact> 0.95287363E+01</totfact>
</mgrwt>
</event>
<event>
 5    1  0.6729100E-004  0.7626874E+03  0.7818608E-02  0.9615653E-01
         11   -1    0    0    0    0  0.00000000000E+00  0.00000000000E+00  0.10012976599E+04  0.10012976599E+04  0.51100000000E-03 0. -1.
          2   -1    0    0  501    0 -0.00000000000E+00 -0.00000000000E+00 -0.12352642419E+04  0.12352642419E+04  0.25500000000E-02 0. -1.
         11    1    1    2    0    0  0.38746077653E+03 -0.64961413877E+03  0.67216926431E+03  0.10118971798E+04  0.51100000000E-03 0. -1.
         22    1    1    2    0    0 -0.26822946019E+01 -0.10090138580E+02  0.21016585557E+02  0.23467050718E+02  0.00000000000E+00 0. -1.
          2    1    1    2  501    0 -0.38477848192E+03  0.65970427735E+03 -0.92715243180E+03  0.12011976713E+04  0.25500000000E-02 0. -1.
<mgrwt>
<rscale>  0 0.76268737E+03</rscale>
<asrwt>0</asrwt>
<pdfrwt beam="1">  1       11 0.10000000E+01 0.10440575E+02</pdfrwt>
<pdfrwt beam="2">  1        2 0.19028726E+00 0.76268737E+03</pdfrwt>
<totfact> 0.22449409E+01</totfact>
</mgrwt>
</event>
<event>
 5    1  0.6729100E-004  0.6391087E+03  0.7818608E-02  0.1228610E+00
         11   -1    0    0    0    0  0.00000000000E+00  0.00000000000E+00  0.10001699243E+04  0.10001699243E+04  0.51100000000E-03 0. -1.
          2   -1    0    0  501    0 -0.00000000000E+00 -0.00000000000E+00 -0.31202151498E+04  0.31202151498E+04  0.25500000000E-02 0. -1.
         11    1    1    2    0    0  0.72894537103E+03 -0.18051247961E+03 -0.79359593068E+03  0.10925843722E+04  0.51100000000E-03 0. -1.
         22    1    1    2    0    0 -0.59975115004E+03  0.17769007884E+03  0.73338706004E+03  0.96391482296E+03  0.00000000000E+00 0. -1.
          2    1    1    2  501    0 -0.12919422099E+03  0.28224007669E+01 -0.20598363548E+04  0.20638858789E+04  0.25500000000E-02 0. -1.
<mgrwt>
<rscale>  0 0.12922505E+03</rscale>
<asrwt>0</asrwt>
<pdfrwt beam="1">  1       11 0.10000000E+01 0.63910871E+03</pdfrwt>
<pdfrwt beam="2">  1        2 0.48011466E+00 0.12922505E+03</pdfrwt>
<totfact> 0.24814338E+00</totfact>
</mgrwt>
</event>
<event>
 5    1  0.6729100E-004  0.2832742E+03  0.7818608E-02  0.1720848E+00
         11   -1    0    0    0    0  0.00000000000E+00  0.00000000000E+00  0.10003300234E+04  0.10003300234E+04  0.51100000000E-03 0.  1.
          2   -1    0    0  501    0 -0.00000000000E+00 -0.00000000000E+00 -0.40581570267E+03  0.40581570267E+03  0.25500000000E-02 0. -1.
         11    1    1    2    0    0  0.27349275703E+03  0.34391025100E+02  0.41561804644E+03  0.49871774711E+03  0.51100000000E-03 0.  1.
         22    1    1    2    0    0 -0.28598782833E+03 -0.51627363458E+02  0.50391730989E+03  0.58171047594E+03  0.00000000000E+00 0. -1.
          2    1    1    2  501    0  0.12495071308E+02  0.17236338359E+02 -0.32502103562E+03  0.32571750301E+03  0.25500000000E-02 0. -1.
<mgrwt>
<rscale>  0 0.21288921E+02</rscale>
<asrwt>0</asrwt>
<pdfrwt beam="1">  1       11 0.10000000E+01 0.28327421E+03</pdfrwt>
<pdfrwt beam="2">  1        2 0.62453788E-01 0.21288921E+02</pdfrwt>
<totfact> 0.98506234E+01</totfact>
</mgrwt>
</event>
<event>
 5    1  0.6729100E-004  0.2456924E+03  0.7818608E-02  0.1116058E+00
         11   -1    0    0    0    0  0.00000000000E+00  0.00000000000E+00  0.10003736985E+04  0.10003736985E+04  0.51100000000E-03 0. -1.
          2   -1    0    0  501    0 -0.00000000000E+00 -0.00000000000E+00 -0.79164836514E+03  0.79164836514E+03  0.25500000000E-02 0. -1.
         11    1    1    2    0    0 -0.11787281377E+03 -0.15200493391E+03  0.79418311593E+01  0.19251642226E+03  0.51100000000E-03 0. -1.
         22    1    1    2    0    0  0.12612452462E+03 -0.11743706582E+03  0.86535229833E+03  0.88234543143E+03  0.00000000000E+00 0. -1.
          2    1    1    2  501    0 -0.82517108510E+01  0.26944199972E+03 -0.66456879613E+03  0.71716020995E+03  0.25500000000E-02 0. -1.
<mgrwt>
<rscale>  0 0.24569238E+03</rscale>
<asrwt>0</asrwt>
<pdfrwt beam="1">  1       11 0.10000000E+01 0.17233357E+03</pdfrwt>
<pdfrwt beam="2">  1        2 0.12183757E+00 0.24569238E+03</pdfrwt>
<totfact> 0.45055385E+01</totfact>
</mgrwt>
</event>
<event>
 5    1  0.6729100E-004  0.7185946E+03  0.7818608E-02  0.9685951E-01
         11   -1    0    0    0    0  0.00000000000E+00  0.00000000000E+00  0.10013954726E+04  0.10013954726E+04  0.51100000000E-03 0. -1.
          2   -1    0    0  501    0 -0.00000000000E+00 -0.00000000000E+00 -0.15257785803E+04  0.15257785803E+04  0.25500000000E-02 0. -1.
         11    1    1    2    0    0 -0.53823085525E+03  0.41149321524E+03  0.51381564887E+03  0.85030914423E+03  0.51100000000E-03 0. -1.
         22    1    1    2    0    0 -0.29831641093E+02  0.38081711906E+02  0.21986779918E+03  0.22512661483E+03  0.00000000000E+00 0.  1.
          2    1    1    2  501    0  0.56806249634E+03 -0.44957492714E+03 -0.12580665558E+04  0.14517382938E+04  0.25500000000E-02 0. -1.
<mgrwt>
<rscale>  0 0.71859455E+03</rscale>
<asrwt>0</asrwt>
<pdfrwt beam="1">  1       11 0.10000000E+01 0.48375031E+02</pdfrwt>
<pdfrwt beam="2">  1        2 0.23506273E+00 0.71859455E+03</pdfrwt>
<totfact> 0.15400273E+01</totfact>
</mgrwt>
</event>
<event>
 5    1  0.6729100E-004  0.6324187E+03  0.7818608E-02  0.9853360E-01
         11   -1    0    0    0    0  0.00000000000E+00  0.00000000000E+00  0.10002082652E+04  0.10002082652E+04  0.51100000000E-03 0. -1.
          2   -1    0    0  501    0 -0.00000000000E+00 -0.00000000000E+00 -0.83330334512E+03  0.83330334512E+03  0.25500000000E-02 0. -1.
         11    1    1    2    0    0 -0.14839111287E+03  0.58864368341E+03  0.69271649691E+03  0.92107407600E+03  0.51100000000E-03 0. -1.
         22    1    1    2    0    0 -0.15546907825E+01  0.18884438440E+02  0.55306935320E+02  0.58462775961E+02  0.00000000000E+00 0. -1.
          2    1    1    2  501    0  0.14994580365E+03 -0.60752812185E+03 -0.58111851210E+03  0.85397475840E+03  0.25500000000E-02 0. -1.
<mgrwt>
<rscale>  0 0.62575887E+03</rscale>
<asrwt>0</asrwt>
<pdfrwt beam="1">  1       11 0.10000000E+01 0.63241868E+03</pdfrwt>
<pdfrwt beam="2">  1        2 0.12822721E+00 0.62575887E+03</pdfrwt>
<totfact> 0.40736881E+01</totfact>
</mgrwt>
</event>
<event>
 5    1  0.6729100E-004  0.2827461E+03  0.7818608E-02  0.1094198E+00
         11   -1    0    0    0    0  0.00000000000E+00  0.00000000000E+00  0.10000707142E+04  0.10000707142E+04  0.51100000000E-03 0. -1.
          2   -1    0    0  501    0 -0.00000000000E+00 -0.00000000000E+00 -0.11333734451E+03  0.11333734454E+03  0.25500000000E-02 0. -1.
         11    1    1    2    0    0  0.38118235393E+02  0.26405902681E+03  0.56792299106E+03  0.62746847991E+03  0.51100000000E-03 0. -1.
         22    1    1    2    0    0 -0.15870523759E+02  0.24836337170E+02  0.14519409587E+03  0.14815546782E+03  0.00000000000E+00 0.  1.
          2    1    1    2  501    0 -0.22247711634E+02 -0.28889536398E+03  0.17361628274E+03  0.33778411099E+03  0.25500000000E-02 0. -1.
<mgrwt>
<rscale>  0 0.28274611E+03</rscale>
<asrwt>0</asrwt>
<pdfrwt beam="1">  1       11 0.10000000E+01 0.29474008E+02</pdfrwt>
<pdfrwt beam="2">  1        2 0.17437747E-01 0.28274611E+03</pdfrwt>
<totfact> 0.40260072E+02</totfact>
</mgrwt>
</event>
<event>
 5    1  0.6729100E-004  0.1127468E+03  0.7818608E-02  0.1255566E+00
         11   -1    0    0    0    0  0.00000000000E+00  0.00000000000E+00  0.10002321966E+04  0.10002321966E+04  0.51100000000E-03 0. -1.
          2   -1    0    0  501    0 -0.00000000000E+00 -0.00000000000E+00 -0.75854268498E+02  0.75854268541E+02  0.25500000000E-02 0.  1.
         11    1    1    2    0    0  0.97864937822E+02 -0.90980597575E+02  0.75088679930E+03  0.76268342093E+03  0.51100000000E-03 0. -1.
         22    1    1    2    0    0 -0.41291117410E+02 -0.54428234696E+01  0.19513696888E+03  0.19953199575E+03  0.00000000000E+00 0. -1.
          2    1    1    2  501    0 -0.56573820412E+02  0.96423421045E+02 -0.21645840069E+02  0.11387104848E+03  0.25500000000E-02 0.  1.
<mgrwt>
<rscale>  0 0.11274678E+03</rscale>
<asrwt>0</asrwt>
<pdfrwt beam="1">  1       11 0.10000000E+01 0.41648298E+02</pdfrwt>
<pdfrwt beam="2">  1        2 0.11672597E-01 0.11274678E+03</pdfrwt>
<totfact> 0.62412662E+02</totfact>
</mgrwt>
</event>
<event>
 5    1  0.6729100E-004  0.1309333E+03  0.7818608E-02  0.1342004E+00
         11   -1    0    0    0    0  0.00000000000E+00  0.00000000000E+00  0.10003006931E+04  0.10003006931E+04  0.51100000000E-03 0.  1.
          2   -1    0    0  501    0 -0.00000000000E+00 -0.00000000000E+00 -0.42739617519E+02  0.42739617595E+02  0.25500000000E-02 0. -1.
         11    1    1    2    0    0  0.15431833395E+03  0.19940934143E+02  0.55644698111E+03  0.57779324316E+03  0.51100000000E-03 0.  1.
         22    1    1    2    0    0 -0.95536020865E+02 -0.67490479592E+02  0.36137319451E+03  0.37983243915E+03  0.00000000000E+00 0. -1.
          2    1    1    2  501    0 -0.58782313088E+02  0.47549545449E+02  0.39740899929E+02  0.85414628361E+02  0.25500000000E-02 0. -1.
<mgrwt>
<rscale>  0 0.75606346E+02</rscale>
<asrwt>0</asrwt>
<pdfrwt beam="1">  1       11 0.10000000E+01 0.13093331E+03</pdfrwt>
<pdfrwt beam="2">  1        2 0.65773027E-02 0.75606346E+02</pdfrwt>
<totfact> 0.12288440E+03</totfact>
</mgrwt>
</event>
<event>
 5    1  0.6729100E-004  0.1297378E+03  0.7818608E-02  0.1227845E+00
         11   -1    0    0    0    0  0.00000000000E+00  0.00000000000E+00  0.10000726818E+04  0.10000726818E+04  0.51100000000E-03 0.  1.
          2   -1    0    0  501    0 -0.00000000000E+00 -0.00000000000E+00 -0.97983394632E+02  0.97983394665E+02  0.25500000000E-02 0.  1.
         11    1    1    2    0    0  0.25671410941E+02  0.15543488886E+03  0.80462749779E+03  0.81990513854E+03  0.51100000000E-03 0.  1.
         22    1    1    2    0    0 -0.14335898757E+02 -0.27761958801E+02  0.13973427751E+03  0.14318488978E+03  0.00000000000E+00 0.  1.
          2    1    1    2  501    0 -0.11335512183E+02 -0.12767293006E+03 -0.42272488093E+02  0.13496604818E+03  0.25500000000E-02 0.  1.
<mgrwt>
<rscale>  0 0.12973784E+03</rscale>
<asrwt>0</asrwt>
<pdfrwt beam="1">  1       11 0.10000000E+01 0.31244909E+02</pdfrwt>
<pdfrwt beam="2">  1        2 0.15075464E-01 0.12973784E+03</pdfrwt>
<totfact> 0.46417702E+02</totfact>
</mgrwt>
</event>
<event>
 5    1  0.6729100E-004  0.1736178E+03  0.7818608E-02  0.1273993E+00
         11   -1    0    0    0    0  0.00000000000E+00  0.00000000000E+00  0.10002562345E+04  0.10002562345E+04  0.51100000000E-03 0. -1.
          2   -1    0    0  501    0 -0.00000000000E+00 -0.00000000000E+00 -0.57143050807E+03  0.57143050808E+03  0.25500000000E-02 0. -1.
         11    1    1    2    0    0 -0.22195339216E+03 -0.14228912714E+03  0.21547265227E+03  0.34049664884E+03  0.51100000000E-03 0. -1.
         22    1    1    2    0    0  0.13359973788E+03  0.89235886727E+02  0.70795972963E+03  0.72596068228E+03  0.00000000000E+00 0. -1.
          2    1    1    2  501    0  0.88353654274E+02  0.53053240417E+02 -0.49460665548E+03  0.50522941145E+03  0.25500000000E-02 0. -1.
<mgrwt>
<rscale>  0 0.10305831E+03</rscale>
<asrwt>0</asrwt>
<pdfrwt beam="1">  1       11 0.10000000E+01 0.17361783E+03</pdfrwt>
<pdfrwt beam="2">  1        2 0.87934910E-01 0.10305831E+03</pdfrwt>
<totfact> 0.67924482E+01</totfact>
</mgrwt>
</event>
<event>
 5    1  0.6729100E-004  0.1955020E+03  0.7818608E-02  0.1413032E+00
         11   -1    0    0    0    0  0.00000000000E+00  0.00000000000E+00  0.99997282030E+03  0.99997282030E+03  0.51100000000E-03 0.  1.
          2   -1    0    0  501    0 -0.00000000000E+00 -0.00000000000E+00 -0.26229731280E+03  0.26229731281E+03  0.25500000000E-02 0. -1.
         11    1    1    2    0    0  0.31846424399E+02  0.19904429547E+03  0.83453027411E+03  0.85852990904E+03  0.51100000000E-03 0.  1.
         22    1    1    2    0    0  0.18701284857E+02 -0.17375128404E+03  0.98341526104E+02  0.20052506706E+03  0.00000000000E+00 0. -1.
          2    1    1    2  501    0 -0.50547709256E+02 -0.25293011427E+02 -0.19519629272E+03  0.20321515701E+03  0.25500000000E-02 0. -1.
<mgrwt>
<rscale>  0 0.56522627E+02</rscale>
<asrwt>0</asrwt>
<pdfrwt beam="1">  1       11 0.10000000E+01 0.19550199E+03</pdfrwt>
<pdfrwt beam="2">  1        2 0.40352335E-01 0.56522627E+02</pdfrwt>
<totfact> 0.15446052E+02</totfact>
</mgrwt>
</event>
<event>
 5    1  0.6729100E-004  0.2123311E+03  0.7818608E-02  0.1139733E+00
         11   -1    0    0    0    0  0.00000000000E+00  0.00000000000E+00  0.99955996959E+03  0.99955996959E+03  0.51100000000E-03 0.  1.
          2   -1    0    0  501    0 -0.00000000000E+00 -0.00000000000E+00 -0.28019755636E+03  0.28019755637E+03  0.25500000000E-02 0.  1.
         11    1    1    2    0    0 -0.18194078074E+03 -0.43597636003E+02  0.26165783347E+03  0.32166445775E+03  0.51100000000E-03 0.  1.
         22    1    1    2    0    0  0.25102365678E+02 -0.11167155978E+03  0.65326668117E+03  0.66321793005E+03  0.00000000000E+00 0.  1.
          2    1    1    2  501    0  0.15683841507E+03  0.15526919578E+03 -0.19556210140E+03  0.29487513817E+03  0.25500000000E-02 0.  1.
<mgrwt>
<rscale>  0 0.21233107E+03</rscale>
<asrwt>0</asrwt>
<pdfrwt beam="1">  1       11 0.10000000E+01 0.11445814E+03</pdfrwt>
<pdfrwt beam="2">  1        2 0.43088347E-01 0.21233107E+03</pdfrwt>
<totfact> 0.14604446E+02</totfact>
</mgrwt>
</event>
<event>
 5    1  0.6729100E-004  0.3460384E+03  0.7818608E-02  0.1065433E+00
         11   -1    0    0    0    0  0.00000000000E+00  0.00000000000E+00  0.10002147417E+04  0.10002147417E+04  0.51100000000E-03 0. -1.
          2   -1    0    0  501    0 -0.00000000000E+00 -0.00000000000E+00 -0.13664766328E+03  0.13664766331E+03  0.25500000000E-02 0. -1.
         11    1    1    2    0    0  0.33258637925E+03 -0.48265105906E+01  0.21974088007E+03  0.39865153862E+03  0.51100000000E-03 0. -1.
         22    1    1    2    0    0  0.10617911174E+02  0.81578413235E+01  0.78239766036E+01  0.15508224355E+02  0.00000000000E+00 0.  1.
          2    1    1    2  501    0 -0.34320429043E+03 -0.33313307330E+01  0.63600222174E+03  0.72270264203E+03  0.25500000000E-02 0. -1.
<mgrwt>
<rscale>  0 0.34322046E+03</rscale>
<asrwt>0</asrwt>
<pdfrwt beam="1">  1       11 0.10000000E+01 0.34603836E+03</pdfrwt>
<pdfrwt beam="2">  1        2 0.21027231E-01 0.34322046E+03</pdfrwt>
<totfact> 0.32554122E+02</totfact>
</mgrwt>
</event>
<event>
 5    1  0.6729100E-004  0.2498058E+03  0.7818608E-02  0.1118472E+00
         11   -1    0    0    0    0  0.00000000000E+00  0.00000000000E+00  0.10000908893E+04  0.10000908893E+04  0.51100000000E-03 0. -1.
          2   -1    0    0  501    0 -0.00000000000E+00 -0.00000000000E+00 -0.27266738797E+03  0.27266738798E+03  0.25500000000E-02 0. -1.
         11    1    1    2    0    0  0.93291929321E+02 -0.20136090316E+03  0.79139009786E+03  0.82191720044E+03  0.51100000000E-03 0. -1.
         22    1    1    2    0    0 -0.81234151838E+01 -0.25149731412E+02  0.13499495062E+03  0.13755775353E+03  0.00000000000E+00 0.  1.
          2    1    1    2  501    0 -0.85168514137E+02  0.22651063457E+03 -0.19896154718E+03  0.31328332327E+03  0.25500000000E-02 0. -1.
<mgrwt>
<rscale>  0 0.24199327E+03</rscale>
<asrwt>0</asrwt>
<pdfrwt beam="1">  1       11 0.10000000E+01 0.24980578E+03</pdfrwt>
<pdfrwt beam="2">  1        2 0.41952640E-01 0.24199327E+03</pdfrwt>
<totfact> 0.15040422E+02</totfact>
</mgrwt>
</event>
<event>
 5    1  0.6729100E-004  0.5761605E+03  0.7818608E-02  0.1594726E+00
         11   -1    0    0    0    0  0.00000000000E+00  0.00000000000E+00  0.10008903161E+04  0.10008903161E+04  0.51100000000E-03 0.  1.
          2   -1    0    0  501    0 -0.00000000000E+00 -0.00000000000E+00 -0.15763462696E+04  0.15763462696E+04  0.25500000000E-02 0.  1.
         11    1    1    2    0    0 -0.54295137380E+03 -0.18767628098E+03  0.70757918048E+03  0.91142025290E+03  0.51100000000E-03 0.  1.
         22    1    1    2    0    0  0.54194262667E+03  0.21796589600E+03 -0.25505310071E+03  0.63738765803E+03  0.00000000000E+00 0.  1.
          2    1    1    2  501    0  0.10087471243E+01 -0.30289615023E+02 -0.10279820333E+04  0.10284286748E+04  0.25500000000E-02 0.  1.
<mgrwt>
<rscale>  0 0.30306408E+02</rscale>
<asrwt>0</asrwt>
<pdfrwt beam="1">  1       11 0.10000000E+01 0.57616055E+03</pdfrwt>
<pdfrwt beam="2">  1        2 0.24273072E+00 0.30306408E+02</pdfrwt>
<totfact> 0.18799689E+01</totfact>
</mgrwt>
</event>
<event>
 5    1  0.6729100E-004  0.1584940E+03  0.7818608E-02  0.1208022E+00
         11   -1    0    0    0    0  0.00000000000E+00  0.00000000000E+00  0.10001208708E+04  0.10001208708E+04  0.51100000000E-03 0. -1.
         -2   -1    0    0    0  501 -0.00000000000E+00 -0.00000000000E+00 -0.55906395540E+02  0.55906395598E+02  0.25500000000E-02 0. -1.
         11    1    1    2    0    0  0.74271323812E+02  0.38565330000E+02  0.45680708436E+03  0.46440954614E+03  0.51100000000E-03 0. -1.
         22    1    1    2    0    0  0.17073914318E+02  0.72777514779E+02  0.43021165938E+03  0.43665794058E+03  0.00000000000E+00 0.  1.
         -2    1    1    2    0  501 -0.91345238130E+02 -0.11134284478E+03  0.57195731540E+02  0.15495977970E+03  0.25500000000E-02 0. -1.
<mgrwt>
<rscale>  0 0.14401799E+03</rscale>
<asrwt>0</asrwt>
<pdfrwt beam="1">  1       11 0.10000000E+01 0.15849405E+03</pdfrwt>
<pdfrwt beam="2">  1       -2 0.86020233E-02 0.14401799E+03</pdfrwt>
<totfact> 0.64829612E+02</totfact>
</mgrwt>
</event>
<event>
 5    1  0.6729100E-004  0.3558233E+03  0.7818608E-02  0.1060250E+00
         11   -1    0    0    0    0  0.00000000000E+00  0.00000000000E+00  0.10001463330E+04  0.10001463330E+04  0.51100000000E-03 0. -1.
          2   -1    0    0  501    0 -0.00000000000E+00 -0.00000000000E+00 -0.25952072952E+04  0.25952072952E+04  0.25500000000E-02 0. -1.
         11    1    1    2    0    0 -0.99687047941E+02 -0.36360890985E+03  0.87041524063E+03  0.94856293306E+03  0.51100000000E-03 0. -1.
         22    1    1    2    0    0  0.14358848191E+01  0.21918883171E+02  0.76746037305E+02  0.79827648385E+02  0.00000000000E+00 0.  1.
          2    1    1    2  501    0  0.98251163122E+02  0.34169002668E+03 -0.25422222401E+04  0.25669630467E+04  0.25500000000E-02 0. -1.
<mgrwt>
<rscale>  0 0.35582333E+03</rscale>
<asrwt>0</asrwt>
<pdfrwt beam="1">  1       11 0.10000000E+01 0.21965865E+02</pdfrwt>
<pdfrwt beam="2">  1        2 0.39932107E+00 0.35582333E+03</pdfrwt>
<totfact> 0.43075723E+00</totfact>
</mgrwt>
</event>
<event>
 5    1  0.6729100E-004  0.1843856E+03  0.7818608E-02  0.1163625E+00
         11   -1    0    0    0    0  0.00000000000E+00  0.00000000000E+00  0.10004420715E+04  0.10004420715E+04  0.51100000000E-03 0.  1.
         -2   -1    0    0    0  501 -0.00000000000E+00 -0.00000000000E+00 -0.92565661731E+02  0.92565661766E+02  0.25500000000E-02 0. -1.
         11    1    1    2    0    0 -0.14822968168E+03  0.63481141168E+02  0.73904788251E+03  0.75643483953E+03  0.51100000000E-03 0.  1.
         22    1    1    2    0    0 -0.39266273740E+02 -0.41240746150E+02  0.13261108909E+03  0.14432027005E+03  0.00000000000E+00 0. -1.
         -2    1    1    2    0  501  0.18749595542E+03 -0.22240395018E+02  0.36217438129E+02  0.19225262365E+03  0.25500000000E-02 0. -1.
<mgrwt>
<rscale>  0 0.18438556E+03</rscale>
<asrwt>0</asrwt>
<pdfrwt beam="1">  1       11 0.10000000E+01 0.56944178E+02</pdfrwt>
<pdfrwt beam="2">  1       -2 0.14247166E-01 0.18438556E+03</pdfrwt>
<totfact> 0.29407861E+02</totfact>
</mgrwt>
</event>
<event>
 5    1  0.6729100E-004  0.9377118E+03  0.7818608E-02  0.9379630E-01
         11   -1    0    0    0    0  0.00000000000E+00  0.00000000000E+00  0.10002512501E+04  0.10002512501E+04  0.51100000000E-03 0. -1.
          2   -1    0    0  501    0 -0.00000000000E+00 -0.00000000000E+00 -0.11721090903E+04  0.11721090903E+04  0.25500000000E-02 0. -1.
         11    1    1    2    0    0 -0.73605714510E+03 -0.56994806286E+03  0.42061208517E+03  0.10215358248E+04  0.51100000000E-03 0. -1.
         22    1    1    2    0    0 -0.12848814824E+02  0.16577319345E+01  0.23537670109E+02  0.26867490238E+02  0.00000000000E+00 0. -1.
          2    1    1    2  501    0  0.74890595992E+03  0.56829033092E+03 -0.61600759554E+03  0.11239570253E+04  0.25500000000E-02 0. -1.
<mgrwt>
<rscale>  0 0.93771176E+03</rscale>
<asrwt>0</asrwt>
<pdfrwt beam="1">  1       11 0.10000000E+01 0.12955312E+02</pdfrwt>
<pdfrwt beam="2">  1        2 0.18036978E+00 0.93771176E+03</pdfrwt>
<totfact> 0.24241868E+01</totfact>
</mgrwt>
</event>
<event>
 5    1  0.6729100E-004  0.1036728E+03  0.7818608E-02  0.1435923E+00
         11   -1    0    0    0    0  0.00000000000E+00  0.00000000000E+00  0.10004850674E+04  0.10004850674E+04  0.51100000000E-03 0.  1.
          2   -1    0    0  501    0 -0.00000000000E+00 -0.00000000000E+00 -0.49862362550E+02  0.49862362615E+02  0.25500000000E-02 0.  1.
         11    1    1    2    0    0  0.94795601676E+02  0.55005167897E+02  0.58397805676E+03  0.59417349770E+03  0.51100000000E-03 0.  1.
         22    1    1    2    0    0 -0.54414726697E+02 -0.87432140131E+02  0.38704532641E+03  0.40051145590E+03  0.00000000000E+00 0.  1.
          2    1    1    2  501    0 -0.40380874979E+02  0.32426972234E+02 -0.20400678360E+02  0.55662476376E+02  0.25500000000E-02 0.  1.
<mgrwt>
<rscale>  0 0.51789223E+02</rscale>
<asrwt>0</asrwt>
<pdfrwt beam="1">  1       11 0.10000000E+01 0.10367282E+03</pdfrwt>
<pdfrwt beam="2">  1        2 0.76748535E-02 0.51789223E+02</pdfrwt>
<totfact> 0.98301350E+02</totfact>
</mgrwt>
</event>
<event>
 5    1  0.6729100E-004  0.1154981E+03  0.7818608E-02  0.1476491E+00
         11   -1    0    0    0    0  0.00000000000E+00  0.00000000000E+00  0.99990655963E+03  0.99990655964E+03  0.51100000000E-03 0. -1.
          2   -1    0    0  501    0 -0.00000000000E+00 -0.00000000000E+00 -0.32216680597E+03  0.32216680598E+03  0.25500000000E-02 0.  1.
         11    1    1    2    0    0  0.14948539850E+02  0.10389004070E+03  0.54503632913E+03  0.55505062785E+03  0.51100000000E-03 0. -1.
         22    1    1    2    0    0 -0.49821147804E+02 -0.13178608726E+03  0.43716316826E+03  0.45930529634E+03  0.00000000000E+00 0. -1.
          2    1    1    2  501    0  0.34872607955E+02  0.27896046557E+02 -0.30445974373E+03  0.30771744143E+03  0.25500000000E-02 0.  1.
<mgrwt>
<rscale>  0 0.44657454E+02</rscale>
<asrwt>0</asrwt>
<pdfrwt beam="1">  1       11 0.10000000E+01 0.11549809E+03</pdfrwt>
<pdfrwt beam="2">  1        2 0.49559491E-01 0.44657454E+02</pdfrwt>
<totfact> 0.12482915E+02</totfact>
</mgrwt>
</event>
<event>
 5    1  0.6729100E-004  0.9362946E+02  0.7818608E-02  0.1294293E+00
         11   -1    0    0    0    0  0.00000000000E+00  0.00000000000E+00  0.10000122007E+04  0.10000122007E+04  0.51100000000E-03 0.  1.
          2   -1    0    0  501    0 -0.00000000000E+00 -0.00000000000E+00 -0.10231067774E+02  0.10231068092E+02  0.25500000000E-02 0.  1.
         11    1    1    2    0    0 -0.96706254485E+02 -0.28751047643E+01  0.46588047458E+03  0.47582032583E+03  0.51100000000E-03 0.  1.
         22    1    1    2    0    0  0.61338585382E+01  0.12820108253E+02  0.82625159811E+02  0.83838514002E+02  0.00000000000E+00 0. -1.
          2    1    1    2  501    0  0.90572395946E+02 -0.99450034885E+01  0.44127549852E+03  0.45058442894E+03  0.25500000000E-02 0.  1.
<mgrwt>
<rscale>  0 0.93629458E+02</rscale>
<asrwt>0</asrwt>
<pdfrwt beam="1">  1       11 0.10000000E+01 0.14211946E+02</pdfrwt>
<pdfrwt beam="2">  1        2 0.15740296E-02 0.93629458E+02</pdfrwt>
<totfact> 0.82585250E+03</totfact>
</mgrwt>
</event>
<event>
 5    1  0.6729100E-004  0.1870438E+03  0.7818608E-02  0.1161155E+00
         11   -1    0    0    0    0  0.00000000000E+00  0.00000000000E+00  0.10002240624E+04  0.10002240624E+04  0.51100000000E-03 0. -1.
          2   -1    0    0  501    0 -0.00000000000E+00 -0.00000000000E+00 -0.58326656210E+02  0.58326656266E+02  0.25500000000E-02 0. -1.
         11    1    1    2    0    0  0.17974008333E+03 -0.74681472920E+02  0.62456199040E+03  0.65418766406E+03  0.51100000000E-03 0. -1.
         22    1    1    2    0    0 -0.23479846921E+02 -0.24912449782E+02  0.15269907152E+03  0.15648942395E+03  0.00000000000E+00 0. -1.
          2    1    1    2  501    0 -0.15626023641E+03  0.99593922702E+02  0.16463634431E+03  0.24787363070E+03  0.25500000000E-02 0. -1.
<mgrwt>
<rscale>  0 0.18704377E+03</rscale>
<asrwt>0</asrwt>
<pdfrwt beam="1">  1       11 0.10000000E+01 0.34233512E+02</pdfrwt>
<pdfrwt beam="2">  1        2 0.89753421E-02 0.18704377E+03</pdfrwt>
<totfact> 0.88554406E+02</totfact>
</mgrwt>
</event>
<event>
 5    1  0.6729100E-004  0.1299110E+03  0.7818608E-02  0.1227588E+00
         11   -1    0    0    0    0  0.00000000000E+00  0.00000000000E+00  0.10003233704E+04  0.10003233704E+04  0.51100000000E-03 0. -1.
          2   -1    0    0  501    0 -0.00000000000E+00 -0.00000000000E+00 -0.19992592343E+02  0.19992592506E+02  0.25500000000E-02 0. -1.
         11    1    1    2    0    0  0.80102024369E+02 -0.98243820520E+02  0.49486289244E+03  0.51083996016E+03  0.51100000000E-03 0. -1.
         22    1    1    2    0    0  0.18901981187E+02  0.91033161365E+01  0.78676176235E+02  0.81425401224E+02  0.00000000000E+00 0. -1.
          2    1    1    2  501    0 -0.99004005556E+02  0.89140504384E+02  0.40679170938E+03  0.42805060152E+03  0.25500000000E-02 0. -1.
<mgrwt>
<rscale>  0 0.12991102E+03</rscale>
<asrwt>0</asrwt>
<pdfrwt beam="1">  1       11 0.10000000E+01 0.20979877E+02</pdfrwt>
<pdfrwt beam="2">  1        2 0.30767780E-02 0.12991102E+03</pdfrwt>
<totfact> 0.34720465E+03</totfact>
</mgrwt>
</event>
<event>
 5    1  0.6729100E-004  0.2272770E+03  0.7818608E-02  0.1128571E+00
         11   -1    0    0    0    0  0.00000000000E+00  0.00000000000E+00  0.10000128667E+04  0.10000128667E+04  0.51100000000E-03 0. -1.
          2   -1    0    0  501    0 -0.00000000000E+00 -0.00000000000E+00 -0.26298074473E+03  0.26298074475E+03  0.25500000000E-02 0. -1.
         11    1    1    2    0    0  0.15970911489E+03 -0.12613941291E+03  0.70568448634E+03  0.73444451603E+03  0.51100000000E-03 0. -1.
         22    1    1    2    0    0  0.36697256758E+02  0.81063419463E+01  0.22525601690E+03  0.22836960083E+03  0.00000000000E+00 0. -1.
          2    1    1    2  501    0 -0.19640637165E+03  0.11803307096E+03 -0.19390838124E+03  0.30017949462E+03  0.25500000000E-02 0. -1.
<mgrwt>
<rscale>  0 0.22727696E+03</rscale>
<asrwt>0</asrwt>
<pdfrwt beam="1">  1       11 0.10000000E+01 0.37581930E+02</pdfrwt>
<pdfrwt beam="2">  1        2 0.40459096E-01 0.22727696E+03</pdfrwt>
<totfact> 0.15635030E+02</totfact>
</mgrwt>
</event>
<event>
 5    1  0.6729100E-004  0.1131093E+03  0.7818608E-02  0.1254918E+00
         11   -1    0    0    0    0  0.00000000000E+00  0.00000000000E+00  0.10002259564E+04  0.10002259564E+04  0.51100000000E-03 0. -1.
          2   -1    0    0  501    0 -0.00000000000E+00 -0.00000000000E+00 -0.63155059246E+02  0.63155059298E+02  0.25500000000E-02 0. -1.
         11    1    1    2    0    0 -0.44645021540E+02  0.22994827732E+02 -0.35864581291E+02  0.61710681751E+02  0.51100000000E-03 0. -1.
         22    1    1    2    0    0 -0.79231364346E+02 -0.68159575090E+02  0.36944864774E+03  0.38394744444E+03  0.00000000000E+00 0. -1.
          2    1    1    2  501    0  0.12387638589E+03  0.45164747358E+02  0.60348683075E+03  0.61772288955E+03  0.25500000000E-02 0. -1.
<mgrwt>
<rscale>  0 0.11310933E+03</rscale>
<asrwt>0</asrwt>
<pdfrwt beam="1">  1       11 0.10000000E+01 0.50218946E+02</pdfrwt>
<pdfrwt beam="2">  1        2 0.97183581E-02 0.11310933E+03</pdfrwt>
<totfact> 0.77941940E+02</totfact>
</mgrwt>
</event>
<event>
 5    1  0.6729100E-004  0.1968810E+03  0.7818608E-02  0.1156381E+00
         11   -1    0    0    0    0  0.00000000000E+00  0.00000000000E+00  0.10003746688E+04  0.10003746688E+04  0.51100000000E-03 0. -1.
          2   -1    0    0  501    0 -0.00000000000E+00 -0.00000000000E+00 -0.38001019628E+02  0.38001019714E+02  0.25500000000E-02 0. -1.
         11    1    1    2    0    0 -0.17577688945E+03 -0.37334949318E+02  0.44708750687E+03  0.48184920059E+03  0.51100000000E-03 0. -1.
         22    1    1    2    0    0 -0.11002529862E+02 -0.85167925077E+01  0.71763896218E+02  0.73100261411E+02  0.00000000000E+00 0. -1.
          2    1    1    2  501    0  0.18677941931E+03  0.45851741826E+02  0.44352224611E+03  0.48342622654E+03  0.25500000000E-02 0. -1.
<mgrwt>
<rscale>  0 0.19232507E+03</rscale>
<asrwt>0</asrwt>
<pdfrwt beam="1">  1       11 0.10000000E+01 0.19688100E+03</pdfrwt>
<pdfrwt beam="2">  1        2 0.58485010E-02 0.19232507E+03</pdfrwt>
<totfact> 0.15338419E+03</totfact>
</mgrwt>
</event>
<event>
 5    1  0.6729100E-004  0.1254519E+03  0.7818608E-02  0.1655215E+00
         11   -1    0    0    0    0  0.00000000000E+00  0.00000000000E+00  0.10002391514E+04  0.10002391514E+04  0.51100000000E-03 0. -1.
         -2   -1    0    0    0  501 -0.00000000000E+00 -0.00000000000E+00 -0.48000340224E+02  0.48000340292E+02  0.25500000000E-02 0. -1.
         11    1    1    2    0    0 -0.71896737102E+02  0.84155029679E+02  0.26724003643E+03  0.28925498596E+03  0.51100000000E-03 0. -1.
         22    1    1    2    0    0  0.78305462135E+02 -0.10874113679E+03  0.71047658922E+03  0.72300301802E+03  0.00000000000E+00 0. -1.
         -2    1    1    2    0  501 -0.64087250332E+01  0.24586107115E+02 -0.25477814494E+02  0.35981487705E+02  0.25500000000E-02 0. -1.
<mgrwt>
<rscale>  0 0.25407645E+02</rscale>
<asrwt>0</asrwt>
<pdfrwt beam="1">  1       11 0.10000000E+01 0.12545195E+03</pdfrwt>
<pdfrwt beam="2">  1       -2 0.73864336E-02 0.25407645E+02</pdfrwt>
<totfact> 0.69923099E+02</totfact>
</mgrwt>
</event>
<event>
 5    1  0.6729100E-004  0.1976554E+03  0.7818608E-02  0.1325824E+00
         11   -1    0    0    0    0  0.00000000000E+00  0.00000000000E+00  0.10002049208E+04  0.10002049208E+04  0.51100000000E-03 0.  1.
          2   -1    0    0  501    0 -0.00000000000E+00 -0.00000000000E+00 -0.26710541549E+03  0.26710541550E+03  0.25500000000E-02 0. -1.
         11    1    1    2    0    0 -0.22472530892E+03  0.68208613377E+02  0.69246039330E+03  0.73120125526E+03  0.51100000000E-03 0.  1.
         22    1    1    2    0    0  0.14385621197E+03 -0.61483324952E+02  0.25932082991E+03  0.30285656967E+03  0.00000000000E+00 0. -1.
          2    1    1    2  501    0  0.80869096952E+02 -0.67252884244E+01 -0.21868171786E+03  0.23325251141E+03  0.25500000000E-02 0. -1.
<mgrwt>
<rscale>  0 0.81148262E+02</rscale>
<asrwt>0</asrwt>
<pdfrwt beam="1">  1       11 0.10000000E+01 0.19765542E+03</pdfrwt>
<pdfrwt beam="2">  1        2 0.41101561E-01 0.81148262E+02</pdfrwt>
<totfact> 0.15232136E+02</totfact>
</mgrwt>
</event>
<event>
 5    1  0.6729100E-004  0.1105460E+03  0.7818608E-02  0.1321449E+00
         11   -1    0    0    0    0  0.00000000000E+00  0.00000000000E+00  0.10001498642E+04  0.10001498642E+04  0.51100000000E-03 0.  1.
          2   -1    0    0  501    0 -0.00000000000E+00 -0.00000000000E+00 -0.25628394033E+02  0.25628394160E+02  0.25500000000E-02 0.  1.
         11    1    1    2    0    0  0.92327066431E+02 -0.94178889828E+02  0.63099165856E+03  0.64462735255E+03  0.51100000000E-03 0.  1.
         22    1    1    2    0    0 -0.61461931576E+02  0.75926189566E+01  0.74660510089E+02  0.97002106485E+02  0.00000000000E+00 0.  1.
          2    1    1    2  501    0 -0.30865134855E+02  0.86586270871E+02  0.26886930157E+03  0.28414879937E+03  0.25500000000E-02 0.  1.
<mgrwt>
<rscale>  0 0.82740669E+02</rscale>
<asrwt>0</asrwt>
<pdfrwt beam="1">  1       11 0.10000000E+01 0.11054602E+03</pdfrwt>
<pdfrwt beam="2">  1        2 0.39434206E-02 0.82740669E+02</pdfrwt>
<totfact> 0.23868356E+03</totfact>
</mgrwt>
</event>
<event>
 5    1  0.6729100E-004  0.3736917E+03  0.7818608E-02  0.1351443E+00
         11   -1    0    0    0    0  0.00000000000E+00  0.00000000000E+00  0.10001126371E+04  0.10001126371E+04  0.51100000000E-03 0. -1.
          2   -1    0    0  501    0 -0.00000000000E+00 -0.00000000000E+00 -0.14917284597E+03  0.14917284599E+03  0.25500000000E-02 0. -1.
         11    1    1    2    0    0  0.57514213733E+02  0.36609860927E+03  0.31713155992E+03  0.48775865219E+03  0.51100000000E-03 0. -1.
         22    1    1    2    0    0  0.13767460871E+02  0.30791426070E+01  0.13059621353E+02  0.19224406568E+02  0.00000000000E+00 0.  1.
          2    1    1    2  501    0 -0.71281674604E+02 -0.36917775188E+03  0.52074860987E+03  0.64230242433E+03  0.25500000000E-02 0. -1.
<mgrwt>
<rscale>  0 0.72607762E+02</rscale>
<asrwt>0</asrwt>
<pdfrwt beam="1">  1       11 0.10000000E+01 0.37369173E+03</pdfrwt>
<pdfrwt beam="2">  1        2 0.22952253E-01 0.72607762E+02</pdfrwt>
<totfact> 0.28227606E+02</totfact>
</mgrwt>
</event>
<event>
 5    1  0.6729100E-004  0.1079263E+03  0.7818608E-02  0.1264459E+00
         11   -1    0    0    0    0  0.00000000000E+00  0.00000000000E+00  0.99998349670E+03  0.99998349670E+03  0.51100000000E-03 0. -1.
         -2   -1    0    0    0  501 -0.00000000000E+00 -0.00000000000E+00 -0.15289147953E+03  0.15289147955E+03  0.25500000000E-02 0.  1.
         11    1    1    2    0    0 -0.29097006368E+02  0.19416443900E+03  0.58643080756E+03  0.61842344491E+03  0.51100000000E-03 0. -1.
         22    1    1    2    0    0 -0.20613821965E+02 -0.10147314097E+03  0.36911994310E+03  0.38336830905E+03  0.00000000000E+00 0.  1.
         -2    1    1    2    0  501  0.49710828333E+02 -0.92691298030E+02 -0.10845873348E+03  0.15108322229E+03  0.25500000000E-02 0.  1.
<mgrwt>
<rscale>  0 0.10792632E+03</rscale>
<asrwt>0</asrwt>
<pdfrwt beam="1">  1       11 0.10000000E+01 0.10354578E+03</pdfrwt>
<pdfrwt beam="2">  1       -2 0.23521377E-01 0.10792632E+03</pdfrwt>
<totfact> 0.12446412E+02</totfact>
</mgrwt>
</event>
<event>
 5    1  0.6729100E-004  0.1505925E+03  0.7818608E-02  0.1199747E+00
         11   -1    0    0    0    0  0.00000000000E+00  0.00000000000E+00  0.10002894688E+04  0.10002894688E+04  0.51100000000E-03 0. -1.
          2   -1    0    0  501    0 -0.00000000000E+00 -0.00000000000E+00 -0.35426306516E+02  0.35426306607E+02  0.25500000000E-02 0. -1.
         11    1    1    2    0    0  0.73824138919E+02  0.12543029461E+03  0.64232171105E+03  0.65860454202E+03  0.51100000000E-03 0. -1.
         22    1    1    2    0    0  0.24961161612E+02 -0.87295694544E+01  0.12254143940E+03  0.12536215275E+03  0.00000000000E+00 0. -1.
          2    1    1    2  501    0 -0.98785300530E+02 -0.11670072516E+03  0.20000001180E+03  0.25174908059E+03  0.25500000000E-02 0. -1.
<mgrwt>
<rscale>  0 0.15059250E+03</rscale>
<asrwt>0</asrwt>
<pdfrwt beam="1">  1       11 0.10000000E+01 0.26443619E+02</pdfrwt>
<pdfrwt beam="2">  1        2 0.54517785E-02 0.15059250E+03</pdfrwt>
<totfact> 0.16507581E+03</totfact>
</mgrwt>
</event>
<event>
 5    1  0.6729100E-004  0.1144554E+03  0.7818608E-02  0.1307596E+00
         11   -1    0    0    0    0  0.00000000000E+00  0.00000000000E+00  0.10002514575E+04  0.10002514575E+04  0.51100000000E-03 0. -1.
          2   -1    0    0  501    0 -0.00000000000E+00 -0.00000000000E+00 -0.29560116231E+02  0.29560116341E+02  0.25500000000E-02 0. -1.
         11    1    1    2    0    0  0.27529261506E+02 -0.10302025024E+03  0.30995204521E+03  0.32778240119E+03  0.51100000000E-03 0. -1.
         22    1    1    2    0    0  0.57918291945E+02  0.12434865002E+03  0.50300183348E+03  0.52137123030E+03  0.00000000000E+00 0. -1.
          2    1    1    2  501    0 -0.85447553450E+02 -0.21328399773E+02  0.15773746260E+03  0.18065794237E+03  0.25500000000E-02 0. -1.
<mgrwt>
<rscale>  0 0.88069206E+02</rscale>
<asrwt>0</asrwt>
<pdfrwt beam="1">  1       11 0.10000000E+01 0.11445537E+03</pdfrwt>
<pdfrwt beam="2">  1        2 0.45488536E-02 0.88069206E+02</pdfrwt>
<totfact> 0.19944796E+03</totfact>
</mgrwt>
</event>
<event>
 5    1  0.6729100E-004  0.2946372E+03  0.7818608E-02  0.1087953E+00
         11   -1    0    0    0    0  0.00000000000E+00  0.00000000000E+00  0.99973652591E+03  0.99973652591E+03  0.51100000000E-03 0. -1.
          2   -1    0    0  501    0 -0.00000000000E+00 -0.00000000000E+00 -0.85725254162E+02  0.85725254200E+02  0.25500000000E-02 0. -1.
         11    1    1    2    0    0 -0.19077839749E+02 -0.29000705958E+03  0.43869611752E+03  0.52623411340E+03  0.51100000000E-03 0. -1.
         22    1    1    2    0    0 -0.71134363716E+01  0.10159572388E+02  0.11608832474E+02  0.16987727321E+02  0.00000000000E+00 0. -1.
          2    1    1    2  501    0  0.26191276121E+02  0.27984748719E+03  0.46370632175E+03  0.54223993939E+03  0.25500000000E-02 0. -1.
<mgrwt>
<rscale>  0 0.29463721E+03</rscale>
<asrwt>0</asrwt>
<pdfrwt beam="1">  1       11 0.10000000E+01 0.29063404E+03</pdfrwt>
<pdfrwt beam="2">  1        2 0.13185025E-01 0.29463721E+03</pdfrwt>
<totfact> 0.56276445E+02</totfact>
</mgrwt>
</event>
<event>
 5    1  0.6729100E-004  0.2202107E+03  0.7818608E-02  0.1133726E+00
         11   -1    0    0    0    0  0.00000000000E+00  0.00000000000E+00  0.10003252061E+04  0.10003252061E+04  0.51100000000E-03 0. -1.
          2   -1    0    0  501    0 -0.00000000000E+00 -0.00000000000E+00 -0.59418262583E+02  0.59418262638E+02  0.25500000000E-02 0. -1.
         11    1    1    2    0    0 -0.17510064250E+03 -0.11240789724E+03  0.35110670374E+03  0.40813194898E+03  0.51100000000E-03 0. -1.
         22    1    1    2    0    0 -0.16063942068E+02 -0.25008133932E+02  0.14843068678E+03  0.15137742822E+03  0.00000000000E+00 0. -1.
          2    1    1    2  501    0  0.19116458457E+03  0.13741603117E+03  0.44136955299E+03  0.50023409153E+03  0.25500000000E-02 0. -1.
<mgrwt>
<rscale>  0 0.22021065E+03</rscale>
<asrwt>0</asrwt>
<pdfrwt beam="1">  1       11 0.10000000E+01 0.29723005E+02</pdfrwt>
<pdfrwt beam="2">  1        2 0.91442437E-02 0.22021065E+03</pdfrwt>
<totfact> 0.87276154E+02</totfact>
</mgrwt>
</event>
<event>
 5    1  0.6729100E-004  0.8876138E+02  0.7818608E-02  0.1305879E+00
         11   -1    0    0    0    0  0.00000000000E+00  0.00000000000E+00  0.10000832375E+04  0.10000832375E+04  0.51100000000E-03 0. -1.
          2   -1    0    0  501    0 -0.00000000000E+00 -0.00000000000E+00 -0.13935553622E+02  0.13935553856E+02  0.25500000000E-02 0. -1.
         11    1    1    2    0    0  0.13963366228E+02  0.89236008166E+02  0.22679225601E+03  0.24411630043E+03  0.51100000000E-03 0. -1.
         22    1    1    2    0    0 -0.35495730570E+02 -0.19899801712E+01  0.16452304896E+03  0.16832035097E+03  0.00000000000E+00 0. -1.
          2    1    1    2  501    0  0.21532364342E+02 -0.87246027995E+02  0.59483237888E+03  0.60158213993E+03  0.25500000000E-02 0. -1.
<mgrwt>
<rscale>  0 0.88761378E+02</rscale>
<asrwt>0</asrwt>
<pdfrwt beam="1">  1       11 0.10000000E+01 0.35551468E+02</pdfrwt>
<pdfrwt beam="2">  1        2 0.21441097E-02 0.88761378E+02</pdfrwt>
<totfact> 0.53996739E+03</totfact>
</mgrwt>
</event>
<event>
 5    1  0.6729100E-004  0.2328352E+03  0.7818608E-02  0.1124660E+00
         11   -1    0    0    0    0  0.00000000000E+00  0.00000000000E+00  0.99999697872E+03  0.99999697872E+03  0.51100000000E-03 0.  1.
          2   -1    0    0  501    0 -0.00000000000E+00 -0.00000000000E+00 -0.26752686700E+03  0.26752686701E+03  0.25500000000E-02 0.  1.
         11    1    1    2    0    0  0.23947245703E+03 -0.11886191569E+01  0.91205087521E+03  0.94296620802E+03  0.51100000000E-03 0.  1.
         22    1    1    2    0    0 -0.72920278880E+01 -0.10231150822E+02  0.16294174572E+02  0.20575476734E+02  0.00000000000E+00 0. -1.
          2    1    1    2  501    0 -0.23218042914E+03  0.11419769979E+02 -0.19587493806E+03  0.30398216097E+03  0.25500000000E-02 0.  1.
<mgrwt>
<rscale>  0 0.23283523E+03</rscale>
<asrwt>0</asrwt>
<pdfrwt beam="1">  1       11 0.10000000E+01 0.12563842E+02</pdfrwt>
<pdfrwt beam="2">  1        2 0.41157854E-01 0.23283523E+03</pdfrwt>
<totfact> 0.15351222E+02</totfact>
</mgrwt>
</event>
<event>
 5    1  0.6729100E-004  0.1894108E+03  0.7818608E-02  0.1158994E+00
         11   -1    0    0    0    0  0.00000000000E+00  0.00000000000E+00  0.99989968570E+03  0.99989968570E+03  0.51100000000E-03 0. -1.
          2   -1    0    0  501    0 -0.00000000000E+00 -0.00000000000E+00 -0.30997138432E+03  0.30997138433E+03  0.25500000000E-02 0. -1.
         11    1    1    2    0    0  0.15587857571E+03 -0.10577469203E+03  0.94056622733E+03  0.95924514272E+03  0.51100000000E-03 0. -1.
         22    1    1    2    0    0 -0.11526262807E+02 -0.16962423002E+02  0.14230418730E+02  0.24961637479E+02  0.00000000000E+00 0.  1.
          2    1    1    2  501    0 -0.14435231291E+03  0.12273711503E+03 -0.26486834468E+03  0.32566428983E+03  0.25500000000E-02 0. -1.
<mgrwt>
<rscale>  0 0.18941084E+03</rscale>
<asrwt>0</asrwt>
<pdfrwt beam="1">  1       11 0.10000000E+01 0.20508011E+02</pdfrwt>
<pdfrwt beam="2">  1        2 0.47683120E-01 0.18941084E+03</pdfrwt>
<totfact> 0.13095397E+02</totfact>
</mgrwt>
</event>
<event>
 5    1  0.6729100E-004  0.6304083E+03  0.7818608E-02  0.9844252E-01
         11   -1    0    0    0    0  0.00000000000E+00  0.00000000000E+00  0.10003926885E+04  0.10003926885E+04  0.51100000000E-03 0.  1.
          2   -1    0    0  501    0 -0.00000000000E+00 -0.00000000000E+00 -0.64005152751E+03  0.64005152752E+03  0.25500000000E-02 0.  1.
         11    1    1    2    0    0 -0.47978166327E+03 -0.39117998357E+03  0.61812136945E+03  0.87480640791E+03  0.51100000000E-03 0.  1.
         22    1    1    2    0    0 -0.15563554491E+02 -0.35837854238E+01  0.56381394755E+02  0.58599739086E+02  0.00000000000E+00 0.  1.
          2    1    1    2  501    0  0.49534521776E+03  0.39476376900E+03 -0.31416160323E+03  0.70703806900E+03  0.25500000000E-02 0.  1.
<mgrwt>
<rscale>  0 0.63040835E+03</rscale>
<asrwt>0</asrwt>
<pdfrwt beam="1">  1       11 0.10000000E+01 0.15970841E+02</pdfrwt>
<pdfrwt beam="2">  1        2 0.98508131E-01 0.63040835E+03</pdfrwt>
<totfact> 0.57018542E+01</totfact>
</mgrwt>
</event>
<event>
 5    1  0.6729100E-004  0.1179606E+03  0.7818608E-02  0.1246500E+00
         11   -1    0    0    0    0  0.00000000000E+00  0.00000000000E+00  0.99994901437E+03  0.99994901437E+03  0.51100000000E-03 0. -1.
          2   -1    0    0  501    0 -0.00000000000E+00 -0.00000000000E+00 -0.33002285800E+02  0.33002285898E+02  0.25500000000E-02 0. -1.
         11    1    1    2    0    0 -0.12994168218E+03  0.79010990543E+02  0.64931797089E+03  0.66688934968E+03  0.51100000000E-03 0. -1.
         22    1    1    2    0    0  0.56355463110E+02  0.42977073026E+01  0.18271239876E+03  0.19125435726E+03  0.00000000000E+00 0. -1.
          2    1    1    2  501    0  0.73586219074E+02 -0.83308697845E+02  0.13491635892E+03  0.17480759332E+03  0.25500000000E-02 0. -1.
<mgrwt>
<rscale>  0 0.11796059E+03</rscale>
<asrwt>0</asrwt>
<pdfrwt beam="1">  1       11 0.10000000E+01 0.56519099E+02</pdfrwt>
<pdfrwt beam="2">  1        2 0.50770157E-02 0.11796059E+03</pdfrwt>
<totfact> 0.17755441E+03</totfact>
</mgrwt>
</event>
<event>
 5    1  0.6729100E-004  0.1872128E+03  0.7818608E-02  0.1172797E+00
         11   -1    0    0    0    0  0.00000000000E+00  0.00000000000E+00  0.10001693800E+04  0.10001693800E+04  0.51100000000E-03 0.  1.
          2   -1    0    0  501    0 -0.00000000000E+00 -0.00000000000E+00 -0.13966704555E+03  0.13966704557E+03  0.25500000000E-02 0.  1.
         11    1    1    2    0    0  0.10327890185E+03 -0.70091311269E+02  0.74574214829E+03  0.75611551711E+03  0.51100000000E-03 0.  1.
         22    1    1    2    0    0  0.22777825107E+02 -0.51201075433E+02  0.18643282955E+03  0.19467300629E+03  0.00000000000E+00 0. -1.
          2    1    1    2  501    0 -0.12605672695E+03  0.12129238670E+03 -0.71672643426E+02  0.18904790214E+03  0.25500000000E-02 0.  1.
<mgrwt>
<rscale>  0 0.17493468E+03</rscale>
<asrwt>0</asrwt>
<pdfrwt beam="1">  1       11 0.10000000E+01 0.18721279E+03</pdfrwt>
<pdfrwt beam="2">  1        2 0.21490877E-01 0.17493468E+03</pdfrwt>
<totfact> 0.31214811E+02</totfact>
</mgrwt>
</event>
<event>
 5    1  0.6729100E-004  0.1770496E+03  0.7818608E-02  0.1170689E+00
         11   -1    0    0    0    0  0.00000000000E+00  0.00000000000E+00  0.99996270374E+03  0.99996270374E+03  0.51100000000E-03 0. -1.
         -2   -1    0    0    0  501 -0.00000000000E+00 -0.00000000000E+00 -0.30774700709E+02  0.30774700815E+02  0.25500000000E-02 0.  1.
         11    1    1    2    0    0  0.16061039424E+03  0.45462604988E+02  0.57237906624E+03  0.59622172273E+03  0.51100000000E-03 0. -1.
         22    1    1    2    0    0 -0.33805706696E+02 -0.14275780621E+02  0.15933952313E+03  0.16351057259E+03  0.00000000000E+00 0. -1.
         -2    1    1    2    0  501 -0.12680468755E+03 -0.31186824367E+02  0.23746941367E+03  0.27100510924E+03  0.25500000000E-02 0.  1.
<mgrwt>
<rscale>  0 0.17704956E+03</rscale>
<asrwt>0</asrwt>
<pdfrwt beam="1">  1       11 0.10000000E+01 0.16692078E+03</pdfrwt>
<pdfrwt beam="2">  1       -2 0.47343926E-02 0.17704956E+03</pdfrwt>
<totfact> 0.16404718E+03</totfact>
</mgrwt>
</event>
<event>
 5    1  0.6729100E-004  0.3109564E+03  0.7818608E-02  0.1079888E+00
         11   -1    0    0    0    0  0.00000000000E+00  0.00000000000E+00  0.10003099240E+04  0.10003099240E+04  0.51100000000E-03 0. -1.
          2   -1    0    0  501    0 -0.00000000000E+00 -0.00000000000E+00 -0.12039621300E+03  0.12039621302E+03  0.25500000000E-02 0. -1.
         11    1    1    2    0    0 -0.84175080606E+02 -0.29555098944E+03  0.58314094489E+03  0.65915794250E+03  0.51100000000E-03 0. -1.
         22    1    1    2    0    0  0.11154016070E+02 -0.86099260934E+01  0.79380193505E+02  0.80621076790E+02  0.00000000000E+00 0. -1.
          2    1    1    2  501    0  0.73021064537E+02  0.30416091553E+03  0.21739257263E+03  0.38092711776E+03  0.25500000000E-02 0. -1.
<mgrwt>
<rscale>  0 0.31095639E+03</rscale>
<asrwt>0</asrwt>
<pdfrwt beam="1">  1       11 0.10000000E+01 0.14090525E+02</pdfrwt>
<pdfrwt beam="2">  1        2 0.18528234E-01 0.31095639E+03</pdfrwt>
<totfact> 0.37602984E+02</totfact>
</mgrwt>
</event>
<event>
 5    1  0.6729100E-004  0.2173043E+03  0.7818608E-02  0.1135909E+00
         11   -1    0    0    0    0  0.00000000000E+00  0.00000000000E+00  0.10001193031E+04  0.10001193031E+04  0.51100000000E-03 0. -1.
          2   -1    0    0  501    0 -0.00000000000E+00 -0.00000000000E+00 -0.59056830807E+02  0.59056830862E+02  0.25500000000E-02 0. -1.
         11    1    1    2    0    0 -0.19961343495E+03  0.47976698589E+02  0.40463914731E+03  0.45374015312E+03  0.51100000000E-03 0. -1.
         22    1    1    2    0    0 -0.13016667974E+02  0.41221093708E+02  0.14331835035E+03  0.14969556359E+03  0.00000000000E+00 0. -1.
          2    1    1    2  501    0  0.21263010293E+03 -0.89197792297E+02  0.39310497459E+03  0.45574041721E+03  0.25500000000E-02 0. -1.
<mgrwt>
<rscale>  0 0.21730435E+03</rscale>
<asrwt>0</asrwt>
<pdfrwt beam="1">  1       11 0.10000000E+01 0.43227447E+02</pdfrwt>
<pdfrwt beam="2">  1        2 0.90867500E-02 0.21730435E+03</pdfrwt>
<totfact> 0.87907647E+02</totfact>
</mgrwt>
</event>
<event>
 5    1  0.6729100E-004  0.1066143E+03  0.7818608E-02  0.1266971E+00
         11   -1    0    0    0    0  0.00000000000E+00  0.00000000000E+00  0.10000883945E+04  0.10000883945E+04  0.51100000000E-03 0. -1.
          2   -1    0    0  501    0 -0.00000000000E+00 -0.00000000000E+00 -0.88066004153E+02  0.88066004190E+02  0.25500000000E-02 0. -1.
         11    1    1    2    0    0 -0.19472573738E+02 -0.88052534764E+02  0.35408940613E+03  0.36539258003E+03  0.51100000000E-03 0. -1.
         22    1    1    2    0    0  0.12350062511E+03  0.10019207083E+03  0.59171594403E+03  0.61271413717E+03  0.00000000000E+00 0. -1.
          2    1    1    2  501    0 -0.10402805138E+03 -0.12139536062E+02 -0.33782959861E+02  0.11004768145E+03  0.25500000000E-02 0. -1.
<mgrwt>
<rscale>  0 0.10661432E+03</rscale>
<asrwt>0</asrwt>
<pdfrwt beam="1">  1       11 0.10000000E+01 0.90179987E+02</pdfrwt>
<pdfrwt beam="2">  1        2 0.13549813E-01 0.10661432E+03</pdfrwt>
<totfact> 0.52129314E+02</totfact>
</mgrwt>
</event>
<event>
 5    1  0.6729100E-004  0.7488512E+03  0.7818608E-02  0.9637154E-01
         11   -1    0    0    0    0  0.00000000000E+00  0.00000000000E+00  0.99984648349E+03  0.99984648349E+03  0.51100000000E-03 0.  1.
          2   -1    0    0  501    0 -0.00000000000E+00 -0.00000000000E+00 -0.87862763725E+03  0.87862763725E+03  0.25500000000E-02 0.  1.
         11    1    1    2    0    0  0.24346644767E+03 -0.70418645415E+03  0.60164002624E+03  0.95766653618E+03  0.51100000000E-03 0.  1.
         22    1    1    2    0    0 -0.17656166046E+02 -0.10891538043E+02  0.11743816576E+02  0.23838687635E+02  0.00000000000E+00 0.  1.
          2    1    1    2  501    0 -0.22581028162E+03  0.71507799219E+03 -0.49216499658E+03  0.89696889693E+03  0.25500000000E-02 0.  1.
<mgrwt>
<rscale>  0 0.74885124E+03</rscale>
<asrwt>0</asrwt>
<pdfrwt beam="1">  1       11 0.10000000E+01 0.20745260E+02</pdfrwt>
<pdfrwt beam="2">  1        2 0.13515273E+00 0.74885124E+03</pdfrwt>
<totfact> 0.37667777E+01</totfact>
</mgrwt>
</event>
<event>
 5    1  0.6729100E-004  0.1878804E+03  0.7818608E-02  0.1160387E+00
         11   -1    0    0    0    0  0.00000000000E+00  0.00000000000E+00  0.10000799514E+04  0.10000799514E+04  0.51100000000E-03 0.  1.
          2   -1    0    0  501    0 -0.00000000000E+00 -0.00000000000E+00 -0.10164280954E+03  0.10164280957E+03  0.25500000000E-02 0.  1.
         11    1    1    2    0    0 -0.40577625332E+02 -0.16525005675E+03  0.68941083594E+03  0.71009958854E+03  0.51100000000E-03 0.  1.
         22    1    1    2    0    0  0.37632011358E+02 -0.25774234527E+02  0.19477602297E+03  0.20004544126E+03  0.00000000000E+00 0.  1.
          2    1    1    2  501    0  0.29456139732E+01  0.19102429128E+03  0.14250282914E+02  0.19157773114E+03  0.25500000000E-02 0.  1.
<mgrwt>
<rscale>  0 0.18788042E+03</rscale>
<asrwt>0</asrwt>
<pdfrwt beam="1">  1       11 0.10000000E+01 0.45612273E+02</pdfrwt>
<pdfrwt beam="2">  1        2 0.15638605E-01 0.18788042E+03</pdfrwt>
<totfact> 0.45128328E+02</totfact>
</mgrwt>
</event>
<event>
 5    1  0.6729100E-004  0.1172730E+03  0.7818608E-02  0.1562296E+00
         11   -1    0    0    0    0  0.00000000000E+00  0.00000000000E+00  0.10001393752E+04  0.10001393752E+04  0.51100000000E-03 0. -1.
          2   -1    0    0  501    0 -0.00000000000E+00 -0.00000000000E+00 -0.40850985325E+02  0.40850985405E+02  0.25500000000E-02 0. -1.
         11    1    1    2    0    0  0.10185367856E+03  0.73003886199E+02  0.62409502698E+03  0.63655191614E+03  0.51100000000E-03 0. -1.
         22    1    1    2    0    0 -0.69941689001E+02 -0.83210718250E+02  0.35096095518E+03  0.36740911196E+03  0.00000000000E+00 0.  1.
          2    1    1    2  501    0 -0.31911989562E+02  0.10206832051E+02 -0.15767592233E+02  0.37029332557E+02  0.25500000000E-02 0. -1.
<mgrwt>
<rscale>  0 0.33504545E+02</rscale>
<asrwt>0</asrwt>
<pdfrwt beam="1">  1       11 0.10000000E+01 0.11727297E+03</pdfrwt>
<pdfrwt beam="2">  1        2 0.62856427E-02 0.33504545E+02</pdfrwt>
<totfact> 0.12028764E+03</totfact>
</mgrwt>
</event>
<event>
 5    1  0.6729100E-004  0.2316824E+03  0.7818608E-02  0.1303204E+00
         11   -1    0    0    0    0  0.00000000000E+00  0.00000000000E+00  0.10001210830E+04  0.10001210830E+04  0.51100000000E-03 0. -1.
          2   -1    0    0  501    0 -0.00000000000E+00 -0.00000000000E+00 -0.68920261157E+03  0.68920261158E+03  0.25500000000E-02 0. -1.
         11    1    1    2    0    0 -0.26825618367E+03  0.17094026878E+03 -0.35400629136E+03  0.47592269319E+03  0.51100000000E-03 0. -1.
         22    1    1    2    0    0  0.18836705931E+03 -0.12981089226E+03  0.91735843686E+03  0.94545201807E+03  0.00000000000E+00 0. -1.
          2    1    1    2  501    0  0.79889124362E+02 -0.41129376514E+02 -0.25243367412E+03  0.26794898328E+03  0.25500000000E-02 0. -1.
<mgrwt>
<rscale>  0 0.89854871E+02</rscale>
<asrwt>0</asrwt>
<pdfrwt beam="1">  1       11 0.10000000E+01 0.23168241E+03</pdfrwt>
<pdfrwt beam="2">  1        2 0.10604401E+00 0.89854871E+02</pdfrwt>
<totfact> 0.55104211E+01</totfact>
</mgrwt>
</event>
<event>
 5    1  0.6729100E-004  0.1924777E+03  0.7818608E-02  0.1206454E+00
         11   -1    0    0    0    0  0.00000000000E+00  0.00000000000E+00  0.99994723800E+03  0.99994723800E+03  0.51100000000E-03 0. -1.
          2   -1    0    0  501    0 -0.00000000000E+00 -0.00000000000E+00 -0.85903875202E+02  0.85903875239E+02  0.25500000000E-02 0. -1.
         11    1    1    2    0    0  0.13052551519E+03 -0.11805207530E+03  0.14340347111E+03  0.22701929020E+03  0.51100000000E-03 0. -1.
         22    1    1    2    0    0 -0.21569238036E+03  0.40952760960E+00  0.58252858526E+03  0.62117865651E+03  0.00000000000E+00 0. -1.
          2    1    1    2  501    0  0.85166865167E+02  0.11764254769E+03  0.18811130643E+03  0.23765316653E+03  0.25500000000E-02 0. -1.
<mgrwt>
<rscale>  0 0.14523486E+03</rscale>
<asrwt>0</asrwt>
<pdfrwt beam="1">  1       11 0.10000000E+01 0.19247773E+03</pdfrwt>
<pdfrwt beam="2">  1        2 0.13215283E-01 0.14523486E+03</pdfrwt>
<totfact> 0.54488887E+02</totfact>
</mgrwt>
</event>
<event>
 5    1  0.6729100E-004  0.1596073E+03  0.7818608E-02  0.1189141E+00
         11   -1    0    0    0    0  0.00000000000E+00  0.00000000000E+00  0.10003901799E+04  0.10003901799E+04  0.51100000000E-03 0.  1.
         -2   -1    0    0    0  501 -0.00000000000E+00 -0.00000000000E+00 -0.20180146457E+03  0.20180146459E+03  0.25500000000E-02 0. -1.
         11    1    1    2    0    0  0.27511264836E+02 -0.15869213078E+03  0.91867922077E+03  0.93269050212E+03  0.51100000000E-03 0.  1.
         22    1    1    2    0    0  0.12882114321E+02  0.43138058309E+01  0.40735703439E+02  0.42941300921E+02  0.00000000000E+00 0. -1.
         -2    1    1    2    0  501 -0.40393379157E+02  0.15437832495E+03 -0.16082620887E+03  0.22655984146E+03  0.25500000000E-02 0. -1.
<mgrwt>
<rscale>  0 0.15960731E+03</rscale>
<asrwt>0</asrwt>
<pdfrwt beam="1">  1       11 0.10000000E+01 0.13585205E+02</pdfrwt>
<pdfrwt beam="2">  1       -2 0.31058492E-01 0.15960731E+03</pdfrwt>
<totfact> 0.76843363E+01</totfact>
</mgrwt>
</event>
<event>
 5    1  0.6729100E-004  0.1104184E+03  0.7818608E-02  0.1259797E+00
         11   -1    0    0    0    0  0.00000000000E+00  0.00000000000E+00  0.10003506294E+04  0.10003506294E+04  0.51100000000E-03 0.  1.
          2   -1    0    0  501    0 -0.00000000000E+00 -0.00000000000E+00 -0.19930815709E+02  0.19930815872E+02  0.25500000000E-02 0.  1.
         11    1    1    2    0    0  0.10882328238E+03 -0.31532224918E+02  0.19697684370E+03  0.22723702372E+03  0.51100000000E-03 0.  1.
         22    1    1    2    0    0 -0.74459131552E+01  0.18947218841E+02  0.10524159901E+03  0.10719250387E+03  0.00000000000E+00 0.  1.
          2    1    1    2  501    0 -0.10137736923E+03  0.12585006077E+02  0.67820137103E+03  0.68585191772E+03  0.25500000000E-02 0.  1.
<mgrwt>
<rscale>  0 0.11041839E+03</rscale>
<asrwt>0</asrwt>
<pdfrwt beam="1">  1       11 0.10000000E+01 0.20357768E+02</pdfrwt>
<pdfrwt beam="2">  1        2 0.30673544E-02 0.11041839E+03</pdfrwt>
<totfact> 0.34279217E+03</totfact>
</mgrwt>
</event>
<event>
 5    1  0.6729100E-004  0.1772043E+03  0.7818608E-02  0.1170536E+00
         11   -1    0    0    0    0  0.00000000000E+00  0.00000000000E+00  0.10000692785E+04  0.10000692785E+04  0.51100000000E-03 0. -1.
          2   -1    0    0  501    0 -0.00000000000E+00 -0.00000000000E+00 -0.24031825412E+03  0.24031825414E+03  0.25500000000E-02 0. -1.
         11    1    1    2    0    0 -0.17808952485E+03 -0.42782558840E+01  0.91001179134E+03  0.92728401405E+03  0.51100000000E-03 0. -1.
         22    1    1    2    0    0  0.10032371119E+01  0.10034496696E+02  0.46932533887E+02  0.48003753454E+02  0.00000000000E+00 0. -1.
          2    1    1    2  501    0  0.17708628773E+03 -0.57562408118E+01 -0.19719330080E+03  0.26509976518E+03  0.25500000000E-02 0. -1.
<mgrwt>
<rscale>  0 0.17720430E+03</rscale>
<asrwt>0</asrwt>
<pdfrwt beam="1">  1       11 0.10000000E+01 0.10084523E+02</pdfrwt>
<pdfrwt beam="2">  1        2 0.36974599E-01 0.17720430E+03</pdfrwt>
<totfact> 0.17192538E+02</totfact>
</mgrwt>
</event>
<event>
 5    1  0.6729100E-004  0.4205748E+03  0.7818608E-02  0.1036879E+00
         11   -1    0    0    0    0  0.00000000000E+00  0.00000000000E+00  0.10007225646E+04  0.10007225646E+04  0.51100000000E-03 0. -1.
          2   -1    0    0  501    0 -0.00000000000E+00 -0.00000000000E+00 -0.14244327569E+04  0.14244327569E+04  0.25500000000E-02 0. -1.
         11    1    1    2    0    0 -0.34019393109E+03 -0.16626073814E+03  0.67910556730E+03  0.77753386764E+03  0.51100000000E-03 0. -1.
         22    1    1    2    0    0 -0.44313107924E+02 -0.87238519554E+01  0.23778400437E+03  0.24203510047E+03  0.00000000000E+00 0.  1.
          2    1    1    2  501    0  0.38450703901E+03  0.17498459009E+03 -0.13405997639E+04  0.14055863534E+04  0.25500000000E-02 0. -1.
<mgrwt>
<rscale>  0 0.42057484E+03</rscale>
<asrwt>0</asrwt>
<pdfrwt beam="1">  1       11 0.10000000E+01 0.45163670E+02</pdfrwt>
<pdfrwt beam="2">  1        2 0.21930184E+00 0.42057484E+03</pdfrwt>
<totfact> 0.18205101E+01</totfact>
</mgrwt>
</event>
<event>
 5    1  0.6729100E-004  0.2536860E+03  0.7818608E-02  0.1110997E+00
         11   -1    0    0    0    0  0.00000000000E+00  0.00000000000E+00  0.99987199376E+03  0.99987199376E+03  0.51100000000E-03 0. -1.
         -2   -1    0    0    0  501 -0.00000000000E+00 -0.00000000000E+00 -0.97909072327E+02  0.97909072360E+02  0.25500000000E-02 0. -1.
         11    1    1    2    0    0  0.17570058150E+03 -0.20718148082E+03  0.69080214857E+03  0.74229540535E+03  0.51100000000E-03 0. -1.
         22    1    1    2    0    0 -0.19568944420E+02  0.14274550316E+02  0.60479432275E+02  0.65149582507E+02  0.00000000000E+00 0. -1.
         -2    1    1    2    0  501 -0.15613163708E+03  0.19290693051E+03  0.15068134059E+03  0.29033607827E+03  0.25500000000E-02 0. -1.
<mgrwt>
<rscale>  0 0.25368604E+03</rscale>
<asrwt>0</asrwt>
<pdfrwt beam="1">  1       11 0.10000000E+01 0.24222022E+02</pdfrwt>
<pdfrwt beam="2">  1       -2 0.15061006E-01 0.25368604E+03</pdfrwt>
<totfact> 0.27177857E+02</totfact>
</mgrwt>
</event>
<event>
 5    1  0.6729100E-004  0.2362587E+03  0.7818608E-02  0.1252932E+00
         11   -1    0    0    0    0  0.00000000000E+00  0.00000000000E+00  0.99972005141E+03  0.99972005141E+03  0.51100000000E-03 0.  1.
          2   -1    0    0  501    0 -0.00000000000E+00 -0.00000000000E+00 -0.12237334169E+03  0.12237334172E+03  0.25500000000E-02 0.  1.
         11    1    1    2    0    0 -0.21824559756E+02 -0.28823403783E+03  0.67664754099E+03  0.73580368761E+03  0.51100000000E-03 0.  1.
         22    1    1    2    0    0 -0.71818996103E+01  0.17774890816E+03  0.20569674844E+03  0.27195111023E+03  0.00000000000E+00 0.  1.
          2    1    1    2  501    0  0.29006459367E+02  0.11048512968E+03 -0.49975797153E+01  0.11433859530E+03  0.25500000000E-02 0.  1.
<mgrwt>
<rscale>  0 0.11422932E+03</rscale>
<asrwt>0</asrwt>
<pdfrwt beam="1">  1       11 0.10000000E+01 0.23625866E+03</pdfrwt>
<pdfrwt beam="2">  1        2 0.18821397E-01 0.11422932E+03</pdfrwt>
<totfact> 0.35773176E+02</totfact>
</mgrwt>
</event>
<event>
 5    1  0.6729100E-004  0.1149175E+03  0.7818608E-02  0.1251725E+00
         11   -1    0    0    0    0  0.00000000000E+00  0.00000000000E+00  0.10001334807E+04  0.10001334807E+04  0.51100000000E-03 0.  1.
          2   -1    0    0  501    0 -0.00000000000E+00 -0.00000000000E+00 -0.49909544650E+02  0.49909544715E+02  0.25500000000E-02 0.  1.
         11    1    1    2    0    0  0.60486342937E+02 -0.10140667712E+03  0.70871025579E+03  0.71847904529E+03  0.51100000000E-03 0.  1.
         22    1    1    2    0    0 -0.33247362695E+02 -0.10407901385E+02  0.20912720784E+03  0.21200919932E+03  0.00000000000E+00 0. -1.
          2    1    1    2  501    0 -0.27238980242E+02  0.11181457850E+03  0.32386472402E+02  0.11955478080E+03  0.25500000000E-02 0.  1.
<mgrwt>
<rscale>  0 0.11491747E+03</rscale>
<asrwt>0</asrwt>
<pdfrwt beam="1">  1       11 0.10000000E+01 0.34838363E+02</pdfrwt>
<pdfrwt beam="2">  1        2 0.76794162E-02 0.11491747E+03</pdfrwt>
<totfact> 0.10445628E+03</totfact>
</mgrwt>
</event>
<event>
 5    1  0.6729100E-004  0.2099401E+03  0.7818608E-02  0.1141613E+00
         11   -1    0    0    0    0  0.00000000000E+00  0.00000000000E+00  0.10003267776E+04  0.10003267776E+04  0.51100000000E-03 0.  1.
          2   -1    0    0  501    0 -0.00000000000E+00 -0.00000000000E+00 -0.43417062899E+03  0.43417062900E+03  0.25500000000E-02 0.  1.
         11    1    1    2    0    0 -0.33009561421E+03 -0.18604867241E+02  0.22728226410E+03  0.40120628506E+03  0.51100000000E-03 0.  1.
         22    1    1    2    0    0  0.13602265427E+03 -0.25950389374E+02  0.64962331965E+03  0.66421836968E+03  0.00000000000E+00 0.  1.
          2    1    1    2  501    0  0.19407295993E+03  0.44555256615E+02 -0.31074943517E+03  0.36907275182E+03  0.25500000000E-02 0.  1.
<mgrwt>
<rscale>  0 0.20994005E+03</rscale>
<asrwt>0</asrwt>
<pdfrwt beam="1">  1       11 0.10000000E+01 0.13847594E+03</pdfrwt>
<pdfrwt beam="2">  1        2 0.66817307E-01 0.20994005E+03</pdfrwt>
<totfact> 0.90948028E+01</totfact>
</mgrwt>
</event>
<event>
 5    1  0.6729100E-004  0.1612922E+03  0.7818608E-02  0.1564333E+00
         11   -1    0    0    0    0  0.00000000000E+00  0.00000000000E+00  0.10000643045E+04  0.10000643045E+04  0.51100000000E-03 0. -1.
          2   -1    0    0  501    0 -0.00000000000E+00 -0.00000000000E+00 -0.75508731210E+03  0.75508731211E+03  0.25500000000E-02 0.  1.
         11    1    1    2    0    0  0.11162945873E+02  0.16425887945E+03  0.42319712101E+03  0.45409403660E+03  0.51100000000E-03 0. -1.
         22    1    1    2    0    0 -0.42954058918E+02 -0.15438267382E+03  0.54959560867E+03  0.57248091166E+03  0.00000000000E+00 0. -1.
          2    1    1    2  501    0  0.31791113045E+02 -0.98762056309E+01 -0.72781573725E+03  0.72857666838E+03  0.25500000000E-02 0.  1.
<mgrwt>
<rscale>  0 0.33289853E+02</rscale>
<asrwt>0</asrwt>
<pdfrwt beam="1">  1       11 0.10000000E+01 0.16129219E+03</pdfrwt>
<pdfrwt beam="2">  1        2 0.11617475E+00 0.33289853E+02</pdfrwt>
<totfact> 0.51207999E+01</totfact>
</mgrwt>
</event>
<event>
 5    1  0.6729100E-004  0.1172083E+03  0.7818608E-02  0.1247775E+00
         11   -1    0    0    0    0  0.00000000000E+00  0.00000000000E+00  0.10001959202E+04  0.10001959202E+04  0.51100000000E-03 0.  1.
          2   -1    0    0  501    0 -0.00000000000E+00 -0.00000000000E+00 -0.43793131182E+02  0.43793131256E+02  0.25500000000E-02 0.  1.
         11    1    1    2    0    0  0.94753829905E+02  0.66450657938E+02  0.52136611411E+02  0.12693385865E+03  0.51100000000E-03 0.  1.
         22    1    1    2    0    0  0.20181902286E+02 -0.28631002617E+01  0.91475409661E+02  0.93719032729E+02  0.00000000000E+00 0.  1.
          2    1    1    2  501    0 -0.11493573219E+03 -0.63587557677E+02  0.81279076791E+03  0.82333616005E+03  0.25500000000E-02 0.  1.
<mgrwt>
<rscale>  0 0.11720830E+03</rscale>
<asrwt>0</asrwt>
<pdfrwt beam="1">  1       11 0.10000000E+01 0.20383977E+02</pdfrwt>
<pdfrwt beam="2">  1        2 0.67387246E-02 0.11720830E+03</pdfrwt>
<totfact> 0.12335411E+03</totfact>
</mgrwt>
</event>
<event>
 5    1  0.6729100E-004  0.1217977E+03  0.7818608E-02  0.1240160E+00
         11   -1    0    0    0    0  0.00000000000E+00  0.00000000000E+00  0.10003041397E+04  0.10003041397E+04  0.51100000000E-03 0. -1.
          2   -1    0    0  501    0 -0.00000000000E+00 -0.00000000000E+00 -0.51090193008E+02  0.51090193072E+02  0.25500000000E-02 0. -1.
         11    1    1    2    0    0 -0.50787369542E+02 -0.99813929913E+02  0.19427611956E+02  0.11366446066E+03  0.51100000000E-03 0. -1.
         22    1    1    2    0    0  0.77261537819E+01  0.39048974073E+02  0.18528053637E+03  0.18950829266E+03  0.00000000000E+00 0. -1.
          2    1    1    2  501    0  0.43061215760E+02  0.60764955840E+02  0.74450579834E+03  0.74822157943E+03  0.25500000000E-02 0. -1.
<mgrwt>
<rscale>  0 0.12179772E+03</rscale>
<asrwt>0</asrwt>
<pdfrwt beam="1">  1       11 0.10000000E+01 0.11199192E+03</pdfrwt>
<pdfrwt beam="2">  1        2 0.78624200E-02 0.12179772E+03</pdfrwt>
<totfact> 0.10181844E+03</totfact>
</mgrwt>
</event>
<event>
 5    1  0.6729100E-004  0.2996498E+03  0.7818608E-02  0.1087888E+00
         11   -1    0    0    0    0  0.00000000000E+00  0.00000000000E+00  0.99998924693E+03  0.99998924693E+03  0.51100000000E-03 0.  1.
          2   -1    0    0  501    0 -0.00000000000E+00 -0.00000000000E+00 -0.92435980793E+02  0.92435980828E+02  0.25500000000E-02 0.  1.
         11    1    1    2    0    0 -0.65627282852E+02  0.27549728711E+03  0.52481264651E+03  0.59635057592E+03  0.51100000000E-03 0.  1.
         22    1    1    2    0    0 -0.11281298742E+02  0.90557955257E+01  0.47607174331E+02  0.49756589329E+02  0.00000000000E+00 0. -1.
          2    1    1    2  501    0  0.76908581593E+02 -0.28455308264E+03  0.33513344530E+03  0.44631806251E+03  0.25500000000E-02 0.  1.
<mgrwt>
<rscale>  0 0.29476327E+03</rscale>
<asrwt>0</asrwt>
<pdfrwt beam="1">  1       11 0.10000000E+01 0.29964983E+03</pdfrwt>
<pdfrwt beam="2">  1        2 0.14220767E-01 0.29476327E+03</pdfrwt>
<totfact> 0.51363351E+02</totfact>
</mgrwt>
</event>
<event>
 5    1  0.6729100E-004  0.2159768E+03  0.7818608E-02  0.1136918E+00
         11   -1    0    0    0    0  0.00000000000E+00  0.00000000000E+00  0.10001419649E+04  0.10001419649E+04  0.51100000000E-03 0. -1.
          2   -1    0    0  501    0 -0.00000000000E+00 -0.00000000000E+00 -0.61208967426E+03  0.61208967426E+03  0.25500000000E-02 0. -1.
         11    1    1    2    0    0 -0.17980081791E+03 -0.15852238570E+03  0.58927501713E+03  0.63616250023E+03  0.51100000000E-03 0. -1.
         22    1    1    2    0    0 -0.28675611855E+02  0.10207775276E+03  0.35969972986E+03  0.37500140531E+03  0.00000000000E+00 0. -1.
          2    1    1    2  501    0  0.20847642977E+03  0.56444632946E+02 -0.56092245635E+03  0.60106773362E+03  0.25500000000E-02 0. -1.
<mgrwt>
<rscale>  0 0.21597685E+03</rscale>
<asrwt>0</asrwt>
<pdfrwt beam="1">  1       11 0.10000000E+01 0.10602904E+03</pdfrwt>
<pdfrwt beam="2">  1        2 0.94181008E-01 0.21597685E+03</pdfrwt>
<totfact> 0.61799340E+01</totfact>
</mgrwt>
</event>
<event>
 5    1  0.6729100E-004  0.6205680E+02  0.7818608E-02  0.1612147E+00
         11   -1    0    0    0    0  0.00000000000E+00  0.00000000000E+00  0.10000682755E+04  0.10000682755E+04  0.51100000000E-03 0. -1.
          2   -1    0    0  501    0 -0.00000000000E+00 -0.00000000000E+00 -0.99417213491E+01  0.99417216762E+01  0.25500000000E-02 0. -1.
         11    1    1    2    0    0 -0.16967463180E+02 -0.67704333554E+02  0.14348893543E+03  0.15956455177E+03  0.51100000000E-03 0. -1.
         22    1    1    2    0    0 -0.67684161087E+01  0.11488432916E+02  0.60937923910E+02  0.62379693153E+02  0.00000000000E+00 0.  1.
          2    1    1    2  501    0  0.23735879289E+02  0.56215900637E+02  0.78569969480E+03  0.78806575225E+03  0.25500000000E-02 0. -1.
<mgrwt>
<rscale>  0 0.28765690E+02</rscale>
<asrwt>0</asrwt>
<pdfrwt beam="1">  1       11 0.10000000E+01 0.62056798E+02</pdfrwt>
<pdfrwt beam="2">  1        2 0.15296000E-02 0.28765690E+02</pdfrwt>
<totfact> 0.70870555E+03</totfact>
</mgrwt>
</event>
<event>
 5    1  0.6729100E-004  0.1906316E+03  0.7818608E-02  0.1157893E+00
         11   -1    0    0    0    0  0.00000000000E+00  0.00000000000E+00  0.10004024952E+04  0.10004024952E+04  0.51100000000E-03 0.  1.
          2   -1    0    0  501    0 -0.00000000000E+00 -0.00000000000E+00 -0.56224560160E+03  0.56224560161E+03  0.25500000000E-02 0.  1.
         11    1    1    2    0    0  0.86049441443E+02  0.15382733699E+03  0.60236772281E+03  0.62762586743E+03  0.51100000000E-03 0.  1.
         22    1    1    2    0    0  0.70595031730E+02 -0.43688049800E+02  0.36390878818E+03  0.37325850334E+03  0.00000000000E+00 0.  1.
          2    1    1    2  501    0 -0.15664447317E+03 -0.11013928719E+03 -0.52811961742E+03  0.56176372602E+03  0.25500000000E-02 0.  1.
<mgrwt>
<rscale>  0 0.19063162E+03</rscale>
<asrwt>0</asrwt>
<pdfrwt beam="1">  1       11 0.10000000E+01 0.83019902E+02</pdfrwt>
<pdfrwt beam="2">  1        2 0.86534136E-01 0.19063162E+03</pdfrwt>
<totfact> 0.68307379E+01</totfact>
</mgrwt>
</event>
<event>
 5    1  0.6729100E-004  0.1368821E+03  0.7818608E-02  0.1324604E+00
         11   -1    0    0    0    0  0.00000000000E+00  0.00000000000E+00  0.10002386648E+04  0.10002386648E+04  0.51100000000E-03 0.  1.
         -2   -1    0    0    0  501 -0.00000000000E+00 -0.00000000000E+00 -0.12286100804E+03  0.12286100807E+03  0.25500000000E-02 0. -1.
         11    1    1    2    0    0 -0.16557175054E+03 -0.29600832149E+02  0.30872393528E+03  0.35156888664E+03  0.51100000000E-03 0.  1.
         22    1    1    2    0    0  0.12509305549E+03 -0.41237743622E+02  0.64588965429E+03  0.65918303190E+03  0.00000000000E+00 0. -1.
         -2    1    1    2    0  501  0.40478695052E+02  0.70838575770E+02 -0.77235932827E+02  0.11234775430E+03  0.25500000000E-02 0. -1.
<mgrwt>
<rscale>  0 0.81588164E+02</rscale>
<asrwt>0</asrwt>
<pdfrwt beam="1">  1       11 0.10000000E+01 0.13688206E+03</pdfrwt>
<pdfrwt beam="2">  1       -2 0.18906204E-01 0.81588164E+02</pdfrwt>
<totfact> 0.17817449E+02</totfact>
</mgrwt>
</event>
<event>
 5    1  0.6729100E-004  0.4810643E+03  0.7818608E-02  0.1018843E+00
         11   -1    0    0    0    0  0.00000000000E+00  0.00000000000E+00  0.99997762373E+03  0.99997762373E+03  0.51100000000E-03 0. -1.
          2   -1    0    0  501    0 -0.00000000000E+00 -0.00000000000E+00 -0.75579704119E+03  0.75579704120E+03  0.25500000000E-02 0. -1.
         11    1    1    2    0    0  0.47332775888E+03  0.71645542108E+02  0.80655838576E+03  0.93792786539E+03  0.51100000000E-03 0. -1.
         22    1    1    2    0    0 -0.65764087554E+01  0.46612853697E+02  0.28961143325E+02  0.55269839014E+02  0.00000000000E+00 0. -1.
          2    1    1    2  501    0 -0.46675135013E+03 -0.11825839581E+03 -0.59133894654E+03  0.76257696053E+03  0.25500000000E-02 0. -1.
<mgrwt>
<rscale>  0 0.48106431E+03</rscale>
<asrwt>0</asrwt>
<pdfrwt beam="1">  1       11 0.10000000E+01 0.47074487E+02</pdfrwt>
<pdfrwt beam="2">  1        2 0.11627386E+00 0.48106431E+03</pdfrwt>
<totfact> 0.46727448E+01</totfact>
</mgrwt>
</event>
<event>
 5    1  0.6729100E-004  0.5314313E+03  0.7818608E-02  0.1005886E+00
         11   -1    0    0    0    0  0.00000000000E+00  0.00000000000E+00  0.10008755626E+04  0.10008755626E+04  0.51100000000E-03 0. -1.
          2   -1    0    0  501    0 -0.00000000000E+00 -0.00000000000E+00 -0.19791749847E+04  0.19791749847E+04  0.25500000000E-02 0. -1.
         11    1    1    2    0    0  0.42584305214E+03 -0.34973575034E+03  0.70291720978E+03  0.89316851933E+03  0.51100000000E-03 0. -1.
         22    1    1    2    0    0  0.48121726310E+01  0.39845272608E+02  0.16299760675E+03  0.16786608520E+03  0.00000000000E+00 0. -1.
          2    1    1    2  501    0 -0.43065522477E+03  0.30989047773E+03 -0.18442142386E+04  0.19190159428E+04  0.25500000000E-02 0. -1.
<mgrwt>
<rscale>  0 0.53143133E+03</rscale>
<asrwt>0</asrwt>
<pdfrwt beam="1">  1       11 0.10000000E+01 0.40134807E+02</pdfrwt>
<pdfrwt beam="2">  1        2 0.30475505E+00 0.53143133E+03</pdfrwt>
<totfact> 0.89477394E+00</totfact>
</mgrwt>
</event>
<event>
 5    1  0.6729100E-004  0.1578048E+03  0.7818608E-02  0.1195094E+00
         11   -1    0    0    0    0  0.00000000000E+00  0.00000000000E+00  0.10000967956E+04  0.10000967956E+04  0.51100000000E-03 0.  1.
          2   -1    0    0  501    0 -0.00000000000E+00 -0.00000000000E+00 -0.98553771560E+02  0.98553771593E+02  0.25500000000E-02 0.  1.
         11    1    1    2    0    0  0.14458146429E+03 -0.25490686339E+02  0.87869666066E+03  0.89087675711E+03  0.51100000000E-03 0.  1.
         22    1    1    2    0    0  0.60182893211E+01 -0.88369461523E+01  0.49836915615E+02  0.50970869933E+02  0.00000000000E+00 0.  1.
          2    1    1    2  501    0 -0.15059975361E+03  0.34327632491E+02 -0.26990552190E+02  0.15680294020E+03  0.25500000000E-02 0.  1.
<mgrwt>
<rscale>  0 0.15446253E+03</rscale>
<asrwt>0</asrwt>
<pdfrwt beam="1">  1       11 0.10000000E+01 0.15780479E+03</pdfrwt>
<pdfrwt beam="2">  1        2 0.15163586E-01 0.15446253E+03</pdfrwt>
<totfact> 0.46437887E+02</totfact>
</mgrwt>
</event>
<event>
 5    1  0.6729100E-004  0.3937874E+03  0.7818608E-02  0.1045952E+00
         11   -1    0    0    0    0  0.00000000000E+00  0.00000000000E+00  0.10001864364E+04  0.10001864364E+04  0.51100000000E-03 0.  1.
          2   -1    0    0  501    0 -0.00000000000E+00 -0.00000000000E+00 -0.18156704473E+03  0.18156704475E+03  0.25500000000E-02 0.  1.
         11    1    1    2    0    0  0.10265479382E+03 -0.38707442818E+03  0.24478779862E+03  0.46934601948E+03  0.51100000000E-03 0.  1.
         22    1    1    2    0    0 -0.36851894677E+02  0.88350969246E+01  0.60508259467E+02  0.71395872028E+02  0.00000000000E+00 0.  1.
          2    1    1    2  501    0 -0.65802899142E+02  0.37823933125E+03  0.51332333357E+03  0.64101158963E+03  0.25500000000E-02 0.  1.
<mgrwt>
<rscale>  0 0.39378738E+03</rscale>
<asrwt>0</asrwt>
<pdfrwt beam="1">  1       11 0.10000000E+01 0.37896188E+02</pdfrwt>
<pdfrwt beam="2">  1        2 0.27938598E-01 0.39378738E+03</pdfrwt>
<totfact> 0.23625213E+02</totfact>
</mgrwt>
</event>
<event>
 5    1  0.6729100E-004  0.2211445E+03  0.7818608E-02  0.1133033E+00
         11   -1    0    0    0    0  0.00000000000E+00  0.00000000000E+00  0.10000724622E+04  0.10000724622E+04  0.51100000000E-03 0. -1.
          2   -1    0    0  501    0 -0.00000000000E+00 -0.00000000000E+00 -0.13697362105E+03  0.13697362108E+03  0.25500000000E-02 0. -1.
         11    1    1    2    0    0 -0.32813161393E+02  0.20127481240E+03  0.45484732427E+03  0.49847200730E+03  0.51100000000E-03 0. -1.
         22    1    1    2    0    0 -0.67885711220E+02  0.22467901096E+01  0.40584560313E+03  0.41149018389E+03  0.00000000000E+00 0.  1.
          2    1    1    2  501    0  0.10069887261E+03 -0.20352160251E+03  0.24059137750E+01  0.22708389212E+03  0.25500000000E-02 0. -1.
<mgrwt>
<rscale>  0 0.22114447E+03</rscale>
<asrwt>0</asrwt>
<pdfrwt beam="1">  1       11 0.10000000E+01 0.67922882E+02</pdfrwt>
<pdfrwt beam="2">  1        2 0.21074391E-01 0.22114447E+03</pdfrwt>
<totfact> 0.32119775E+02</totfact>
</mgrwt>
</event>
<event>
 5    1  0.6729100E-004  0.3261470E+03  0.7818608E-02  0.1073318E+00
         11   -1    0    0    0    0  0.00000000000E+00  0.00000000000E+00  0.10003934562E+04  0.10003934562E+04  0.51100000000E-03 0.  1.
          2   -1    0    0  501    0 -0.00000000000E+00 -0.00000000000E+00 -0.22459969301E+03  0.22459969302E+03  0.25500000000E-02 0.  1.
         11    1    1    2    0    0 -0.20717567768E+03  0.23787804015E+03  0.80406176459E+03  0.86372625564E+03  0.51100000000E-03 0.  1.
         22    1    1    2    0    0 -0.97945898802E+01  0.42468069971E+01  0.29218289068E+02  0.31107519615E+02  0.00000000000E+00 0.  1.
          2    1    1    2  501    0  0.21697026756E+03 -0.24212484715E+03 -0.57486290481E+02  0.33015937395E+03  0.25500000000E-02 0.  1.
<mgrwt>
<rscale>  0 0.32511619E+03</rscale>
<asrwt>0</asrwt>
<pdfrwt beam="1">  1       11 0.10000000E+01 0.32614696E+03</pdfrwt>
<pdfrwt beam="2">  1        2 0.34567393E-01 0.32511619E+03</pdfrwt>
<totfact> 0.18610939E+02</totfact>
</mgrwt>
</event>
<event>
 5    1  0.6729100E-004  0.3921442E+03  0.7818608E-02  0.1046534E+00
         11   -1    0    0    0    0  0.00000000000E+00  0.00000000000E+00  0.10001976072E+04  0.10001976072E+04  0.51100000000E-03 0. -1.
          2   -1    0    0  501    0 -0.00000000000E+00 -0.00000000000E+00 -0.18748877926E+03  0.18748877928E+03  0.25500000000E-02 0. -1.
         11    1    1    2    0    0  0.21717254847E+03 -0.31722044522E+03  0.56360102460E+03  0.68223078325E+03  0.51100000000E-03 0. -1.
         22    1    1    2    0    0  0.45731363548E+01 -0.10804354294E+02  0.69841938350E+02  0.70820505507E+02  0.00000000000E+00 0.  1.
          2    1    1    2  501    0 -0.22174568483E+03  0.32802479952E+03  0.17926586502E+03  0.43463509776E+03  0.25500000000E-02 0. -1.
<mgrwt>
<rscale>  0 0.39214423E+03</rscale>
<asrwt>0</asrwt>
<pdfrwt beam="1">  1       11 0.10000000E+01 0.11732333E+02</pdfrwt>
<pdfrwt beam="2">  1        2 0.28850127E-01 0.39214423E+03</pdfrwt>
<totfact> 0.22789174E+02</totfact>
</mgrwt>
</event>
<event>
 5    1  0.6729100E-004  0.1360779E+03  0.7818608E-02  0.1636579E+00
         11   -1    0    0    0    0  0.00000000000E+00  0.00000000000E+00  0.10002984926E+04  0.10002984926E+04  0.51100000000E-03 0.  1.
          2   -1    0    0  501    0 -0.00000000000E+00 -0.00000000000E+00 -0.41276981744E+02  0.41276981823E+02  0.25500000000E-02 0.  1.
         11    1    1    2    0    0  0.33820787881E+02  0.12331775069E+03  0.47062209034E+03  0.48768459607E+03  0.51100000000E-03 0.  1.
         22    1    1    2    0    0 -0.57919920208E+02 -0.13501408086E+03  0.50255816675E+03  0.52359166356E+03  0.00000000000E+00 0.  1.
          2    1    1    2  501    0  0.24099132327E+02  0.11696330173E+02 -0.14158746199E+02  0.30299214822E+02  0.25500000000E-02 0.  1.
<mgrwt>
<rscale>  0 0.26787540E+02</rscale>
<asrwt>0</asrwt>
<pdfrwt beam="1">  1       11 0.10000000E+01 0.13607787E+03</pdfrwt>
<pdfrwt beam="2">  1        2 0.63522002E-02 0.26787540E+02</pdfrwt>
<totfact> 0.11583473E+03</totfact>
</mgrwt>
</event>
<event>
 5    1  0.6729100E-004  0.1239582E+03  0.7818608E-02  0.1236707E+00
         11   -1    0    0    0    0  0.00000000000E+00  0.00000000000E+00  0.10004264150E+04  0.10004264150E+04  0.51100000000E-03 0. -1.
          2   -1    0    0  501    0 -0.00000000000E+00 -0.00000000000E+00 -0.26879419997E+02  0.26879420118E+02  0.25500000000E-02 0. -1.
         11    1    1    2    0    0 -0.10683989638E+03  0.54323722406E+02  0.66721296203E+03  0.67789303506E+03  0.51100000000E-03 0. -1.
         22    1    1    2    0    0 -0.13983436261E+02 -0.19884447292E+02  0.13375754434E+03  0.13594855057E+03  0.00000000000E+00 0.  1.
          2    1    1    2  501    0  0.12082333264E+03 -0.34439275113E+02  0.17257648868E+03  0.21346424954E+03  0.25500000000E-02 0. -1.
<mgrwt>
<rscale>  0 0.12395817E+03</rscale>
<asrwt>0</asrwt>
<pdfrwt beam="1">  1       11 0.10000000E+01 0.24309005E+02</pdfrwt>
<pdfrwt beam="2">  1        2 0.41370586E-02 0.12395817E+03</pdfrwt>
<totfact> 0.23312259E+03</totfact>
</mgrwt>
</event>
<event>
 5    1  0.6729100E-004  0.2242556E+02  0.7818608E-02  0.1711287E+00
         11   -1    0    0    0    0  0.00000000000E+00  0.00000000000E+00  0.10000932360E+04  0.10000932360E+04  0.51100000000E-03 0. -1.
          2   -1    0    0  501    0 -0.00000000000E+00 -0.00000000000E+00 -0.28600274794E+01  0.28600286162E+01  0.25500000000E-02 0. -1.
         11    1    1    2    0    0 -0.28464292153E+02  0.15670051419E+02  0.15556895305E+03  0.15892597519E+03  0.51100000000E-03 0. -1.
         22    1    1    2    0    0  0.20642900429E+02  0.50073637760E+01  0.11017142534E+03  0.11220047233E+03  0.00000000000E+00 0. -1.
          2    1    1    2  501    0  0.78213917234E+01 -0.20677415195E+02  0.73149283018E+03  0.73182681714E+03  0.25500000000E-02 0. -1.
<mgrwt>
<rscale>  0 0.21825519E+02</rscale>
<asrwt>0</asrwt>
<pdfrwt beam="1">  1       11 0.10000000E+01 0.22425565E+02</pdfrwt>
<pdfrwt beam="2">  1        2 0.44004533E-03 0.21825519E+02</pdfrwt>
<totfact> 0.33995883E+04</totfact>
</mgrwt>
</event>
<event>
 5    1  0.6729100E-004  0.1482663E+03  0.7818608E-02  0.1202620E+00
         11   -1    0    0    0    0  0.00000000000E+00  0.00000000000E+00  0.99997957572E+03  0.99997957572E+03  0.51100000000E-03 0. -1.
          2   -1    0    0  501    0 -0.00000000000E+00 -0.00000000000E+00 -0.73599948189E+02  0.73599948234E+02  0.25500000000E-02 0.  1.
         11    1    1    2    0    0 -0.75484262781E+02 -0.13322940758E+03  0.85927013148E+03  0.87280760070E+03  0.51100000000E-03 0. -1.
         22    1    1    2    0    0  0.10434079278E+02  0.48359994687E+00  0.51012129745E+02  0.52070541195E+02  0.00000000000E+00 0. -1.
          2    1    1    2  501    0  0.65050183503E+02  0.13274580764E+03  0.16097366302E+02  0.14870138206E+03  0.25500000000E-02 0.  1.
<mgrwt>
<rscale>  0 0.14826628E+03</rscale>
<asrwt>0</asrwt>
<pdfrwt beam="1">  1       11 0.10000000E+01 0.10445280E+02</pdfrwt>
<pdfrwt beam="2">  1        2 0.11322837E-01 0.14826628E+03</pdfrwt>
<totfact> 0.65679472E+02</totfact>
</mgrwt>
</event>
<event>
 5    1  0.6729100E-004  0.1285329E+03  0.7818608E-02  0.1229649E+00
         11   -1    0    0    0    0  0.00000000000E+00  0.00000000000E+00  0.10001940950E+04  0.10001940950E+04  0.51100000000E-03 0.  1.
         -2   -1    0    0    0  501 -0.00000000000E+00 -0.00000000000E+00 -0.31425297564E+02  0.31425297668E+02  0.25500000000E-02 0. -1.
         11    1    1    2    0    0 -0.12829009880E+03 -0.10182170826E+03  0.55325277121E+03  0.57698755495E+03  0.51100000000E-03 0.  1.
         22    1    1    2    0    0  0.28611985788E+02  0.41893276526E+02  0.23110405348E+03  0.23660679594E+03  0.00000000000E+00 0. -1.
         -2    1    1    2    0  501  0.99678113012E+02  0.59928431732E+02  0.18441197277E+03  0.21802504180E+03  0.25500000000E-02 0. -1.
<mgrwt>
<rscale>  0 0.12853290E+03</rscale>
<asrwt>0</asrwt>
<pdfrwt beam="1">  1       11 0.10000000E+01 0.50731572E+02</pdfrwt>
<pdfrwt beam="2">  1       -2 0.48355994E-02 0.12853290E+03</pdfrwt>
<totfact> 0.15457041E+03</totfact>
</mgrwt>
</event>
<event>
 5    1  0.6729100E-004  0.1065922E+03  0.7818608E-02  0.1577970E+00
         11   -1    0    0    0    0  0.00000000000E+00  0.00000000000E+00  0.10001935872E+04  0.10001935872E+04  0.51100000000E-03 0. -1.
         -2   -1    0    0    0  501 -0.00000000000E+00 -0.00000000000E+00 -0.23591310731E+03  0.23591310733E+03  0.25500000000E-02 0. -1.
         11    1    1    2    0    0 -0.89572892737E+02 -0.48856928921E+02  0.58212490846E+03  0.59099891004E+03  0.51100000000E-03 0. -1.
         22    1    1    2    0    0  0.85677518070E+02  0.80520028989E+02  0.40411280130E+03  0.42086965719E+03  0.00000000000E+00 0. -1.
         -2    1    1    2    0  501  0.38953746666E+01 -0.31663100067E+02 -0.22195722985E+03  0.22423812731E+03  0.25500000000E-02 0. -1.
<mgrwt>
<rscale>  0 0.31901816E+02</rscale>
<asrwt>0</asrwt>
<pdfrwt beam="1">  1       11 0.10000000E+01 0.10659216E+03</pdfrwt>
<pdfrwt beam="2">  1       -2 0.36301349E-01 0.31901816E+02</pdfrwt>
<totfact> 0.56010680E+01</totfact>
</mgrwt>
</event>
<event>
 5    1  0.6729100E-004  0.7716327E+02  0.7818608E-02  0.1337300E+00
         11   -1    0    0    0    0  0.00000000000E+00  0.00000000000E+00  0.10001474769E+04  0.10001474769E+04  0.51100000000E-03 0. -1.
          2   -1    0    0  501    0 -0.00000000000E+00 -0.00000000000E+00 -0.15813938137E+02  0.15813938343E+02  0.25500000000E-02 0. -1.
         11    1    1    2    0    0 -0.74904416207E+02  0.98094853255E+01  0.37577998535E+03  0.38329818022E+03  0.51100000000E-03 0. -1.
         22    1    1    2    0    0  0.84378705518E+01 -0.67231129051E+02  0.40982975659E+03  0.41539336991E+03  0.00000000000E+00 0. -1.
          2    1    1    2  501    0  0.66466545655E+02  0.57421643726E+02  0.19872379682E+03  0.21726986512E+03  0.25500000000E-02 0. -1.
<mgrwt>
<rscale>  0 0.77163275E+02</rscale>
<asrwt>0</asrwt>
<pdfrwt beam="1">  1       11 0.10000000E+01 0.67758559E+02</pdfrwt>
<pdfrwt beam="2">  1        2 0.24332723E-02 0.77163275E+02</pdfrwt>
<totfact> 0.44783897E+03</totfact>
</mgrwt>
</event>
<event>
 5    1  0.6729100E-004  0.9089486E+02  0.7818608E-02  0.1374490E+00
         11   -1    0    0    0    0  0.00000000000E+00  0.00000000000E+00  0.10006121248E+04  0.10006121248E+04  0.51100000000E-03 0. -1.
          2   -1    0    0  501    0 -0.00000000000E+00 -0.00000000000E+00 -0.69084578751E+02  0.69084578798E+02  0.25500000000E-02 0. -1.
         11    1    1    2    0    0 -0.12204248962E+03  0.20641932385E+02  0.60742921985E+03  0.61991186130E+03  0.51100000000E-03 0. -1.
         22    1    1    2    0    0  0.71620446049E+02  0.21843314217E+02  0.36472960815E+03  0.37233628044E+03  0.00000000000E+00 0.  1.
          2    1    1    2  501    0  0.50422043570E+02 -0.42485246603E+02 -0.40631281948E+02  0.77448561871E+02  0.25500000000E-02 0. -1.
<mgrwt>
<rscale>  0 0.65934654E+02</rscale>
<asrwt>0</asrwt>
<pdfrwt beam="1">  1       11 0.10000000E+01 0.90894858E+02</pdfrwt>
<pdfrwt beam="2">  1        2 0.10634902E-01 0.65934654E+02</pdfrwt>
<totfact> 0.67546090E+02</totfact>
</mgrwt>
</event>
<event>
 5    1  0.6729100E-004  0.1656646E+03  0.7818608E-02  0.1302541E+00
         11   -1    0    0    0    0  0.00000000000E+00  0.00000000000E+00  0.99965531497E+03  0.99965531497E+03  0.51100000000E-03 0.  1.
          2   -1    0    0  501    0 -0.00000000000E+00 -0.00000000000E+00 -0.95774836727E+03  0.95774836727E+03  0.25500000000E-02 0.  1.
         11    1    1    2    0    0  0.19279555399E+03 -0.67641176659E+02  0.42646032274E+03  0.47287827323E+03  0.51100000000E-03 0.  1.
         22    1    1    2    0    0 -0.15248582447E+03 -0.12970752020E+02  0.53709931734E+03  0.55847635917E+03  0.00000000000E+00 0.  1.
          2    1    1    2  501    0 -0.40309729516E+02  0.80611928679E+02 -0.92165269238E+03  0.92604904984E+03  0.25500000000E-02 0.  1.
<mgrwt>
<rscale>  0 0.90128560E+02</rscale>
<asrwt>0</asrwt>
<pdfrwt beam="1">  1       11 0.10000000E+01 0.16566455E+03</pdfrwt>
<pdfrwt beam="2">  1        2 0.14729511E+00 0.90128560E+02</pdfrwt>
<totfact> 0.36752421E+01</totfact>
</mgrwt>
</event>
<event>
 5    1  0.6729100E-004  0.1489195E+03  0.7818608E-02  0.1728411E+00
         11   -1    0    0    0    0  0.00000000000E+00  0.00000000000E+00  0.10003229751E+04  0.10003229751E+04  0.51100000000E-03 0.  1.
          2   -1    0    0  501    0 -0.00000000000E+00 -0.00000000000E+00 -0.53748002586E+02  0.53748002646E+02  0.25500000000E-02 0.  1.
         11    1    1    2    0    0  0.16137748656E+02  0.15417498481E+03  0.25891380605E+03  0.30177261611E+03  0.51100000000E-03 0.  1.
         22    1    1    2    0    0 -0.33863631351E+02 -0.14314394861E+03  0.70801924473E+03  0.72313773685E+03  0.00000000000E+00 0.  1.
          2    1    1    2  501    0  0.17725882695E+02 -0.11031036193E+02 -0.20358078303E+02  0.29160624744E+02  0.25500000000E-02 0.  1.
<mgrwt>
<rscale>  0 0.20877995E+02</rscale>
<asrwt>0</asrwt>
<pdfrwt beam="1">  1       11 0.10000000E+01 0.14891955E+03</pdfrwt>
<pdfrwt beam="2">  1        2 0.82715939E-02 0.20877995E+02</pdfrwt>
<totfact> 0.82300558E+02</totfact>
</mgrwt>
</event>
<event>
 5    1  0.6729100E-004  0.1521713E+03  0.7818608E-02  0.1482434E+00
         11   -1    0    0    0    0  0.00000000000E+00  0.00000000000E+00  0.10000126121E+04  0.10000126121E+04  0.51100000000E-03 0. -1.
          2   -1    0    0  501    0 -0.00000000000E+00 -0.00000000000E+00 -0.67684417002E+02  0.67684417050E+02  0.25500000000E-02 0. -1.
         11    1    1    2    0    0  0.13109753000E+03 -0.77851435786E+02  0.88538519195E+03  0.89841769047E+03  0.51100000000E-03 0. -1.
         22    1    1    2    0    0 -0.87593150551E+01 -0.90105605215E+01  0.26984420091E+01  0.12852913694E+02  0.00000000000E+00 0. -1.
          2    1    1    2  501    0 -0.12233821495E+03  0.86861996308E+02  0.44244561147E+02  0.15642642499E+03  0.25500000000E-02 0. -1.
<mgrwt>
<rscale>  0 0.43729324E+02</rscale>
<asrwt>0</asrwt>
<pdfrwt beam="1">  1       11 0.10000000E+01 0.15217130E+03</pdfrwt>
<pdfrwt beam="2">  1        2 0.10413118E-01 0.43729324E+02</pdfrwt>
<totfact> 0.67250869E+02</totfact>
</mgrwt>
</event>
<event>
 5    1  0.6729100E-004  0.1202356E+03  0.7818608E-02  0.1242709E+00
         11   -1    0    0    0    0  0.00000000000E+00  0.00000000000E+00  0.10001118372E+04  0.10001118372E+04  0.51100000000E-03 0.  1.
          2   -1    0    0  501    0 -0.00000000000E+00 -0.00000000000E+00 -0.14859301291E+02  0.14859301510E+02  0.25500000000E-02 0.  1.
         11    1    1    2    0    0  0.77050200243E+02 -0.85659389097E+02  0.61456493457E+03  0.62527139956E+03  0.51100000000E-03 0.  1.
         22    1    1    2    0    0 -0.12003620018E+01  0.14653490616E+02  0.71181718016E+02  0.72684266770E+02  0.00000000000E+00 0. -1.
          2    1    1    2  501    0 -0.75849838241E+02  0.71005898481E+02  0.29950588333E+03  0.31701547239E+03  0.25500000000E-02 0.  1.
<mgrwt>
<rscale>  0 0.12023556E+03</rscale>
<asrwt>0</asrwt>
<pdfrwt beam="1">  1       11 0.10000000E+01 0.11521399E+03</pdfrwt>
<pdfrwt beam="2">  1        2 0.22863020E-02 0.12023556E+03</pdfrwt>
<totfact> 0.51371053E+03</totfact>
</mgrwt>
</event>
<event>
 5    1  0.6729100E-004  0.1747366E+03  0.7818608E-02  0.1172996E+00
         11   -1    0    0    0    0  0.00000000000E+00  0.00000000000E+00  0.99988563788E+03  0.99988563789E+03  0.51100000000E-03 0.  1.
          2   -1    0    0  501    0 -0.00000000000E+00 -0.00000000000E+00 -0.81143881441E+02  0.81143881481E+02  0.25500000000E-02 0. -1.
         11    1    1    2    0    0  0.16138439512E+03 -0.79187502287E+02  0.81968210067E+03  0.83916287434E+03  0.51100000000E-03 0.  1.
         22    1    1    2    0    0 -0.12846514202E+02 -0.11763549860E+02  0.61196765964E+02  0.63627495605E+02  0.00000000000E+00 0. -1.
          2    1    1    2  501    0 -0.14853788092E+03  0.90951052147E+02  0.37862889808E+02  0.17823914942E+03  0.25500000000E-02 0. -1.
<mgrwt>
<rscale>  0 0.17473656E+03</rscale>
<asrwt>0</asrwt>
<pdfrwt beam="1">  1       11 0.10000000E+01 0.17418784E+02</pdfrwt>
<pdfrwt beam="2">  1        2 0.12482246E-01 0.17473656E+03</pdfrwt>
<totfact> 0.58839663E+02</totfact>
</mgrwt>
</event>
<event>
 5    1  0.6729100E-004  0.4344631E+03  0.7818608E-02  0.1117227E+00
         11   -1    0    0    0    0  0.00000000000E+00  0.00000000000E+00  0.10001490978E+04  0.10001490978E+04  0.51100000000E-03 0. -1.
          2   -1    0    0  501    0 -0.00000000000E+00 -0.00000000000E+00 -0.10208822472E+04  0.10208822472E+04  0.25500000000E-02 0. -1.
         11    1    1    2    0    0 -0.16829130322E+03 -0.39771578418E+03  0.83177065267E+03  0.93719913912E+03  0.51100000000E-03 0. -1.
         22    1    1    2    0    0  0.10207327115E+03 -0.91246277371E+02 -0.58250403057E+02  0.14878825651E+03  0.00000000000E+00 0.  1.
          2    1    1    2  501    0  0.66218032063E+02  0.48896206155E+03 -0.79425339900E+03  0.93504394937E+03  0.25500000000E-02 0. -1.
<mgrwt>
<rscale>  0 0.24389160E+03</rscale>
<asrwt>0</asrwt>
<pdfrwt beam="1">  1       11 0.10000000E+01 0.43446308E+03</pdfrwt>
<pdfrwt beam="2">  1        2 0.15708222E+00 0.24389160E+03</pdfrwt>
<totfact> 0.32051775E+01</totfact>
</mgrwt>
</event>
<event>
 5    1  0.6729100E-004  0.1252093E+03  0.7818608E-02  0.1234743E+00
         11   -1    0    0    0    0  0.00000000000E+00  0.00000000000E+00  0.99995468473E+03  0.99995468473E+03  0.51100000000E-03 0. -1.
          2   -1    0    0  501    0 -0.00000000000E+00 -0.00000000000E+00 -0.35914994555E+03  0.35914994556E+03  0.25500000000E-02 0.  1.
         11    1    1    2    0    0 -0.10462300149E+03 -0.98908030933E+02  0.84234437781E+03  0.85456001653E+03  0.51100000000E-03 0. -1.
         22    1    1    2    0    0 -0.13294177957E+01  0.32583251091E+02  0.13848447191E+03  0.14227221993E+03  0.00000000000E+00 0.  1.
          2    1    1    2  501    0  0.10595241929E+03  0.66324779842E+02 -0.34002411054E+03  0.36227239383E+03  0.25500000000E-02 0.  1.
<mgrwt>
<rscale>  0 0.12520926E+03</rscale>
<asrwt>0</asrwt>
<pdfrwt beam="1">  1       11 0.10000000E+01 0.32610360E+02</pdfrwt>
<pdfrwt beam="2">  1        2 0.55251332E-01 0.12520926E+03</pdfrwt>
<totfact> 0.11191767E+02</totfact>
</mgrwt>
</event>
<event>
 5    1  0.6729100E-004  0.1834098E+03  0.7818608E-02  0.1164543E+00
         11   -1    0    0    0    0  0.00000000000E+00  0.00000000000E+00  0.99989497557E+03  0.99989497557E+03  0.51100000000E-03 0.  1.
          2   -1    0    0  501    0 -0.00000000000E+00 -0.00000000000E+00 -0.23526940601E+03  0.23526940602E+03  0.25500000000E-02 0.  1.
         11    1    1    2    0    0  0.17912990720E+03  0.31554279906E+02  0.80249305074E+03  0.82284767286E+03  0.51100000000E-03 0.  1.
         22    1    1    2    0    0 -0.73105843107E+01  0.33210455916E+02  0.14751837648E+03  0.15138708804E+03  0.00000000000E+00 0. -1.
          2    1    1    2  501    0 -0.17181932289E+03 -0.64764735822E+02 -0.18538585767E+03  0.26092962069E+03  0.25500000000E-02 0.  1.
<mgrwt>
<rscale>  0 0.18340979E+03</rscale>
<asrwt>0</asrwt>
<pdfrwt beam="1">  1       11 0.10000000E+01 0.34005573E+02</pdfrwt>
<pdfrwt beam="2">  1        2 0.36191491E-01 0.18340979E+03</pdfrwt>
<totfact> 0.17600503E+02</totfact>
</mgrwt>
</event>
<event>
 5    1  0.6729100E-004  0.7828789E+02  0.7818608E-02  0.1333982E+00
         11   -1    0    0    0    0  0.00000000000E+00  0.00000000000E+00  0.10000718694E+04  0.10000718694E+04  0.51100000000E-03 0. -1.
          2   -1    0    0  501    0 -0.00000000000E+00 -0.00000000000E+00 -0.41929294135E+02  0.41929294212E+02  0.25500000000E-02 0. -1.
         11    1    1    2    0    0  0.73903679564E+02  0.10918543174E+03  0.52580952003E+03  0.54208750559E+03  0.51100000000E-03 0. -1.
         22    1    1    2    0    0 -0.64692312010E+02 -0.34976159723E+02  0.41718317572E+03  0.42361566199E+03  0.00000000000E+00 0. -1.
          2    1    1    2  501    0 -0.92113675540E+01 -0.74209272022E+02  0.15149879544E+02  0.76297996061E+02  0.25500000000E-02 0. -1.
<mgrwt>
<rscale>  0 0.78287891E+02</rscale>
<asrwt>0</asrwt>
<pdfrwt beam="1">  1       11 0.10000000E+01 0.73542008E+02</pdfrwt>
<pdfrwt beam="2">  1        2 0.64511241E-02 0.78287891E+02</pdfrwt>
<totfact> 0.12627531E+03</totfact>
</mgrwt>
</event>
<event>
 5    1  0.6729100E-004  0.1914001E+03  0.7818608E-02  0.1157205E+00
         11   -1    0    0    0    0  0.00000000000E+00  0.00000000000E+00  0.10001417425E+04  0.10001417425E+04  0.51100000000E-03 0.  1.
          2   -1    0    0  501    0 -0.00000000000E+00 -0.00000000000E+00 -0.10992212049E+04  0.10992212049E+04  0.25500000000E-02 0.  1.
         11    1    1    2    0    0  0.14324211515E+03 -0.13291543937E+03  0.89565679939E+03  0.91672565137E+03  0.51100000000E-03 0.  1.
         22    1    1    2    0    0  0.10497324726E+02  0.18950171019E+02  0.84158045645E+02  0.86901550359E+02  0.00000000000E+00 0.  1.
          2    1    1    2  501    0 -0.15373943987E+03  0.11396526835E+03 -0.10788943074E+04  0.10957357456E+04  0.25500000000E-02 0.  1.
<mgrwt>
<rscale>  0 0.19140007E+03</rscale>
<asrwt>0</asrwt>
<pdfrwt beam="1">  1       11 0.10000000E+01 0.21663398E+02</pdfrwt>
<pdfrwt beam="2">  1        2 0.16913492E+00 0.19140007E+03</pdfrwt>
<totfact> 0.29161474E+01</totfact>
</mgrwt>
</event>
<event>
 5    1  0.6729100E-004  0.1804355E+03  0.7818608E-02  0.1167382E+00
         11   -1    0    0    0    0  0.00000000000E+00  0.00000000000E+00  0.10001332298E+04  0.10001332298E+04  0.51100000000E-03 0. -1.
         -2   -1    0    0    0  501 -0.00000000000E+00 -0.00000000000E+00 -0.41075367326E+02  0.41075367405E+02  0.25500000000E-02 0.  1.
         11    1    1    2    0    0 -0.84775606419E+02  0.15494498990E+03  0.72202451522E+03  0.74331302552E+03  0.51100000000E-03 0. -1.
         22    1    1    2    0    0  0.34275607343E+02 -0.75601477328E+02  0.14002226555E+03  0.16277787160E+03  0.00000000000E+00 0.  1.
         -2    1    1    2    0  501  0.50499999076E+02 -0.79343512570E+02  0.97011081689E+02  0.13511770006E+03  0.25500000000E-02 0.  1.
<mgrwt>
<rscale>  0 0.18043548E+03</rscale>
<asrwt>0</asrwt>
<pdfrwt beam="1">  1       11 0.10000000E+01 0.17662065E+03</pdfrwt>
<pdfrwt beam="2">  1       -2 0.63201290E-02 0.18043548E+03</pdfrwt>
<totfact> 0.10593807E+03</totfact>
</mgrwt>
</event>
<event>
 5    1  0.6729100E-004  0.3119931E+03  0.7818608E-02  0.1246276E+00
         11   -1    0    0    0    0  0.00000000000E+00  0.00000000000E+00  0.10000186160E+04  0.10000186160E+04  0.51100000000E-03 0.  1.
          2   -1    0    0  501    0 -0.00000000000E+00 -0.00000000000E+00 -0.24635252757E+03  0.24635252758E+03  0.25500000000E-02 0.  1.
         11    1    1    2    0    0 -0.37349245154E+03 -0.12936034060E+03  0.35492793834E+03  0.53122928241E+03  0.51100000000E-03 0.  1.
         22    1    1    2    0    0  0.25943213645E+03  0.98762066078E+02  0.49183469466E+03  0.56476574435E+03  0.00000000000E+00 0.  1.
          2    1    1    2  501    0  0.11406031509E+03  0.30598274521E+02 -0.93096544597E+02  0.15037611680E+03  0.25500000000E-02 0.  1.
<mgrwt>
<rscale>  0 0.11809323E+03</rscale>
<asrwt>0</asrwt>
<pdfrwt beam="1">  1       11 0.10000000E+01 0.31199307E+03</pdfrwt>
<pdfrwt beam="2">  1        2 0.37901093E-01 0.11809323E+03</pdfrwt>
<totfact> 0.16665514E+02</totfact>
</mgrwt>
</event>
<event>
 5    1  0.6729100E-004  0.8637986E+03  0.7818608E-02  0.9472002E-01
         11   -1    0    0    0    0  0.00000000000E+00  0.00000000000E+00  0.99992432144E+03  0.99992432144E+03  0.51100000000E-03 0. -1.
          2   -1    0    0  501    0 -0.00000000000E+00 -0.00000000000E+00 -0.76515269839E+03  0.76515269839E+03  0.25500000000E-02 0. -1.
         11    1    1    2    0    0 -0.83227477385E+03  0.21447108063E+03  0.53635128272E+02  0.86113638328E+03  0.51100000000E-03 0. -1.
         22    1    1    2    0    0 -0.77636827921E+01  0.71246039284E+01  0.16691969977E+02  0.19739721714E+02  0.00000000000E+00 0. -1.
          2    1    1    2  501    0  0.84003845665E+03 -0.22159568456E+03  0.16444452480E+03  0.88420091484E+03  0.25500000000E-02 0. -1.
<mgrwt>
<rscale>  0 0.86379860E+03</rscale>
<asrwt>0</asrwt>
<pdfrwt beam="1">  1       11 0.10000000E+01 0.10537303E+02</pdfrwt>
<pdfrwt beam="2">  1        2 0.11770689E+00 0.86379860E+03</pdfrwt>
<totfact> 0.45113370E+01</totfact>
</mgrwt>
</event>
<event>
 5    1  0.6729100E-004  0.5208530E+03  0.7818608E-02  0.1008475E+00
         11   -1    0    0    0    0  0.00000000000E+00  0.00000000000E+00  0.10003475229E+04  0.10003475229E+04  0.51100000000E-03 0.  1.
          2   -1    0    0  501    0 -0.00000000000E+00 -0.00000000000E+00 -0.10994473709E+04  0.10994473709E+04  0.25500000000E-02 0.  1.
         11    1    1    2    0    0 -0.39247990133E+03  0.33923768267E+03  0.84141206686E+03  0.98848214175E+03  0.51100000000E-03 0.  1.
         22    1    1    2    0    0  0.11425834615E+02  0.16106359783E+02  0.13757829612E+02  0.24067455157E+02  0.00000000000E+00 0. -1.
          2    1    1    2  501    0  0.38105406672E+03 -0.35534404245E+03 -0.95426974453E+03  0.10872452969E+04  0.25500000000E-02 0.  1.
<mgrwt>
<rscale>  0 0.52085299E+03</rscale>
<asrwt>0</asrwt>
<pdfrwt beam="1">  1       11 0.10000000E+01 0.19747519E+02</pdfrwt>
<pdfrwt beam="2">  1        2 0.16920453E+00 0.52085299E+03</pdfrwt>
<totfact> 0.27643723E+01</totfact>
</mgrwt>
</event>
<event>
 5    1  0.6729100E-004  0.3856195E+03  0.7818608E-02  0.1048876E+00
         11   -1    0    0    0    0  0.00000000000E+00  0.00000000000E+00  0.10008843435E+04  0.10008843435E+04  0.51100000000E-03 0. -1.
          2   -1    0    0  501    0 -0.00000000000E+00 -0.00000000000E+00 -0.13703453003E+04  0.13703453003E+04  0.25500000000E-02 0.  1.
         11    1    1    2    0    0 -0.24346502085E+03 -0.30885000726E+03  0.84728102096E+03  0.93410313770E+03  0.51100000000E-03 0. -1.
         22    1    1    2    0    0  0.37405050082E+02 -0.16887778762E+02  0.76963884134E+02  0.87222556166E+02  0.00000000000E+00 0. -1.
          2    1    1    2  501    0  0.20605997077E+03  0.32573778603E+03 -0.12937058619E+04  0.13499039499E+04  0.25500000000E-02 0.  1.
<mgrwt>
<rscale>  0 0.38561946E+03</rscale>
<asrwt>0</asrwt>
<pdfrwt beam="1">  1       11 0.10000000E+01 0.41040649E+02</pdfrwt>
<pdfrwt beam="2">  1        2 0.21100879E+00 0.38561946E+03</pdfrwt>
<totfact> 0.19612255E+01</totfact>
</mgrwt>
</event>
<event>
 5    1  0.6729100E-004  0.2198529E+03  0.7818608E-02  0.1133993E+00
         11   -1    0    0    0    0  0.00000000000E+00  0.00000000000E+00  0.10001369991E+04  0.10001369991E+04  0.51100000000E-03 0. -1.
          2   -1    0    0  501    0 -0.00000000000E+00 -0.00000000000E+00 -0.57445355500E+02  0.57445355557E+02  0.25500000000E-02 0. -1.
         11    1    1    2    0    0 -0.96957652113E+02 -0.20136063225E+03  0.38241208515E+03  0.44292876786E+03  0.51100000000E-03 0. -1.
         22    1    1    2    0    0 -0.16073270108E+02  0.16713987697E+02  0.13982307138E+03  0.14173284266E+03  0.00000000000E+00 0. -1.
          2    1    1    2  501    0  0.11303092222E+03  0.18464664455E+03  0.42045648707E+03  0.47292074415E+03  0.25500000000E-02 0. -1.
<mgrwt>
<rscale>  0 0.21985292E+03</rscale>
<asrwt>0</asrwt>
<pdfrwt beam="1">  1       11 0.10000000E+01 0.23188519E+02</pdfrwt>
<pdfrwt beam="2">  1        2 0.88389575E-02 0.21985292E+03</pdfrwt>
<totfact> 0.91074792E+02</totfact>
</mgrwt>
</event>
<event>
 5    1  0.6729100E-004  0.2540680E+03  0.7818608E-02  0.1110761E+00
         11   -1    0    0    0    0  0.00000000000E+00  0.00000000000E+00  0.10002995293E+04  0.10002995293E+04  0.51100000000E-03 0. -1.
          2   -1    0    0  501    0 -0.00000000000E+00 -0.00000000000E+00 -0.20720707796E+03  0.20720707798E+03  0.25500000000E-02 0. -1.
         11    1    1    2    0    0  0.10180004505E+03 -0.23629608593E+03  0.87477993344E+03  0.91183278146E+03  0.51100000000E-03 0. -1.
         22    1    1    2    0    0 -0.10491872967E+02 -0.48322994978E+00  0.19756270710E+02  0.22374609313E+02  0.00000000000E+00 0. -1.
          2    1    1    2  501    0 -0.91308172085E+02  0.23677931588E+03 -0.10144375286E+03  0.27329921646E+03  0.25500000000E-02 0. -1.
<mgrwt>
<rscale>  0 0.25406795E+03</rscale>
<asrwt>0</asrwt>
<pdfrwt beam="1">  1       11 0.10000000E+01 0.10502995E+02</pdfrwt>
<pdfrwt beam="2">  1        2 0.31887559E-01 0.25406795E+03</pdfrwt>
<totfact> 0.20279823E+02</totfact>
</mgrwt>
</event>
<event>
 5    1  0.6729100E-004  0.1401901E+03  0.7818608E-02  0.1705564E+00
         11   -1    0    0    0    0  0.00000000000E+00  0.00000000000E+00  0.10001024833E+04  0.10001024833E+04  0.51100000000E-03 0. -1.
          2   -1    0    0  501    0 -0.00000000000E+00 -0.00000000000E+00 -0.25170364513E+03  0.25170364515E+03  0.25500000000E-02 0.  1.
         11    1    1    2    0    0 -0.10820868613E+03 -0.77660786418E+02  0.43095598328E+03  0.45106914883E+03  0.51100000000E-03 0. -1.
         22    1    1    2    0    0  0.12930634161E+03  0.70894053322E+02  0.54882764015E+03  0.56829382837E+03  0.00000000000E+00 0. -1.
          2    1    1    2  501    0 -0.21097655482E+02  0.67667330963E+01 -0.23138478522E+03  0.23244315129E+03  0.25500000000E-02 0.  1.
<mgrwt>
<rscale>  0 0.22156258E+02</rscale>
<asrwt>0</asrwt>
<pdfrwt beam="1">  1       11 0.10000000E+01 0.14019007E+03</pdfrwt>
<pdfrwt beam="2">  1        2 0.38727605E-01 0.22156258E+02</pdfrwt>
<totfact> 0.15769016E+02</totfact>
</mgrwt>
</event>
<event>
 5    1  0.6729100E-004  0.2470417E+03  0.7818608E-02  0.1117786E+00
         11   -1    0    0    0    0  0.00000000000E+00  0.00000000000E+00  0.10000961557E+04  0.10000961557E+04  0.51100000000E-03 0. -1.
          2   -1    0    0  501    0 -0.00000000000E+00 -0.00000000000E+00 -0.11185089721E+03  0.11185089723E+03  0.25500000000E-02 0. -1.
         11    1    1    2    0    0 -0.22616255905E+03  0.53135303849E+02  0.76214752160E+03  0.79676954530E+03  0.51100000000E-03 0. -1.
         22    1    1    2    0    0 -0.12425246807E+02 -0.68444667166E+01  0.62316421460E+02  0.63910639697E+02  0.00000000000E+00 0.  1.
          2    1    1    2  501    0  0.23858780586E+03 -0.46290837132E+02  0.63781315394E+02  0.25126686790E+03  0.25500000000E-02 0. -1.
<mgrwt>
<rscale>  0 0.24303700E+03</rscale>
<asrwt>0</asrwt>
<pdfrwt beam="1">  1       11 0.10000000E+01 0.24704167E+03</pdfrwt>
<pdfrwt beam="2">  1        2 0.17209484E-01 0.24303700E+03</pdfrwt>
<totfact> 0.40695257E+02</totfact>
</mgrwt>
</event>
<event>
 5    1  0.6729100E-004  0.1628195E+03  0.7818608E-02  0.1378884E+00
         11   -1    0    0    0    0  0.00000000000E+00  0.00000000000E+00  0.10000108883E+04  0.10000108883E+04  0.51100000000E-03 0.  1.
          2   -1    0    0  501    0 -0.00000000000E+00 -0.00000000000E+00 -0.11786443960E+03  0.11786443963E+03  0.25500000000E-02 0.  1.
         11    1    1    2    0    0 -0.42327595939E+02 -0.16833082834E+03  0.85346733269E+03  0.87093821889E+03  0.51100000000E-03 0.  1.
         22    1    1    2    0    0 -0.77503715828E+01  0.12727236757E+03  0.91322831056E+02  0.15683807981E+03  0.00000000000E+00 0.  1.
          2    1    1    2  501    0  0.50077967522E+02  0.41058460775E+02 -0.62643715032E+02  0.90099029250E+02  0.25500000000E-02 0.  1.
<mgrwt>
<rscale>  0 0.64758011E+02</rscale>
<asrwt>0</asrwt>
<pdfrwt beam="1">  1       11 0.10000000E+01 0.16281953E+03</pdfrwt>
<pdfrwt beam="2">  1        2 0.18133188E-01 0.64758011E+02</pdfrwt>
<totfact> 0.36445609E+02</totfact>
</mgrwt>
</event>
<event>
 5    1  0.6729100E-004  0.4160169E+03  0.7818608E-02  0.1038370E+00
         11   -1    0    0    0    0  0.00000000000E+00  0.00000000000E+00  0.10004692399E+04  0.10004692399E+04  0.51100000000E-03 0.  1.
          2   -1    0    0  501    0 -0.00000000000E+00 -0.00000000000E+00 -0.30412690126E+03  0.30412690128E+03  0.25500000000E-02 0.  1.
         11    1    1    2    0    0 -0.21152701456E+03  0.31482723980E+03  0.50912121907E+03  0.63487343976E+03  0.51100000000E-03 0.  1.
         22    1    1    2    0    0 -0.11820633486E+02  0.50829379947E+02  0.23303576021E+03  0.23880749314E+03  0.00000000000E+00 0.  1.
          2    1    1    2  501    0  0.22334764804E+03 -0.36565661975E+03 -0.45814640607E+02  0.43091520831E+03  0.25500000000E-02 0.  1.
<mgrwt>
<rscale>  0 0.41601693E+03</rscale>
<asrwt>0</asrwt>
<pdfrwt beam="1">  1       11 0.10000000E+01 0.52185757E+02</pdfrwt>
<pdfrwt beam="2">  1        2 0.46810708E-01 0.41601693E+03</pdfrwt>
<totfact> 0.13365924E+02</totfact>
</mgrwt>
</event>
<event>
 5    1  0.6729100E-004  0.4098821E+03  0.7818608E-02  0.1040411E+00
         11   -1    0    0    0    0  0.00000000000E+00  0.00000000000E+00  0.10000128432E+04  0.10000128432E+04  0.51100000000E-03 0. -1.
          2   -1    0    0  501    0 -0.00000000000E+00 -0.00000000000E+00 -0.41318582234E+03  0.41318582234E+03  0.25500000000E-02 0. -1.
         11    1    1    2    0    0  0.26252756974E+03  0.19649717394E+03  0.27423691090E+03  0.42747835915E+03  0.51100000000E-03 0. -1.
         22    1    1    2    0    0  0.50405544650E+02  0.12224158666E+03  0.48817907568E+03  0.50576925012E+03  0.00000000000E+00 0. -1.
          2    1    1    2  501    0 -0.31293311439E+03 -0.31873876060E+03 -0.17558896566E+03  0.47995105632E+03  0.25500000000E-02 0. -1.
<mgrwt>
<rscale>  0 0.40988214E+03</rscale>
<asrwt>0</asrwt>
<pdfrwt beam="1">  1       11 0.10000000E+01 0.13222604E+03</pdfrwt>
<pdfrwt beam="2">  1        2 0.63567864E-01 0.40988214E+03</pdfrwt>
<totfact> 0.95433729E+01</totfact>
</mgrwt>
</event>
<event>
 5    1  0.6729100E-004  0.4987883E+02  0.7818608E-02  0.1654751E+00
         11   -1    0    0    0    0  0.00000000000E+00  0.00000000000E+00  0.10003864943E+04  0.10003864943E+04  0.51100000000E-03 0.  1.
          2   -1    0    0  501    0 -0.00000000000E+00 -0.00000000000E+00 -0.46203110745E+01  0.46203117782E+01  0.25500000000E-02 0.  1.
         11    1    1    2    0    0 -0.47507546622E+02 -0.15356892909E+01  0.17333709866E+03  0.17973612631E+03  0.51100000000E-03 0.  1.
         22    1    1    2    0    0 -0.12421453295E+01 -0.12916468023E+02  0.75014497969E+02  0.76128529322E+02  0.00000000000E+00 0.  1.
          2    1    1    2  501    0  0.48749691951E+02  0.14452157314E+02  0.74741458657E+03  0.74914215043E+03  0.25500000000E-02 0.  1.
<mgrwt>
<rscale>  0 0.25440721E+02</rscale>
<asrwt>0</asrwt>
<pdfrwt beam="1">  1       11 0.10000000E+01 0.49878833E+02</pdfrwt>
<pdfrwt beam="2">  1        2 0.71109185E-03 0.25440721E+02</pdfrwt>
<totfact> 0.18829933E+04</totfact>
</mgrwt>
</event>
<event>
 5    1  0.6729100E-004  0.3882623E+02  0.7818608E-02  0.1622773E+00
         11   -1    0    0    0    0  0.00000000000E+00  0.00000000000E+00  0.10000641635E+04  0.10000641635E+04  0.51100000000E-03 0.  1.
          2   -1    0    0  501    0 -0.00000000000E+00 -0.00000000000E+00 -0.46995133868E+01  0.46995140786E+01  0.25500000000E-02 0.  1.
         11    1    1    2    0    0 -0.34907204187E+02 -0.31894556130E+02  0.16591862848E+03  0.17252468487E+03  0.51100000000E-03 0.  1.
         22    1    1    2    0    0 -0.12514118056E+01  0.19981297070E+02  0.11141921914E+03  0.11320362475E+03  0.00000000000E+00 0.  1.
          2    1    1    2  501    0  0.36158615993E+02  0.11913259060E+02  0.71802680247E+03  0.71903536793E+03  0.25500000000E-02 0.  1.
<mgrwt>
<rscale>  0 0.27880423E+02</rscale>
<asrwt>0</asrwt>
<pdfrwt beam="1">  1       11 0.10000000E+01 0.38826225E+02</pdfrwt>
<pdfrwt beam="2">  1        2 0.72304848E-03 0.27880423E+02</pdfrwt>
<totfact> 0.18820981E+04</totfact>
</mgrwt>
</event>
<event>
 5    1  0.6729100E-004  0.2357990E+03  0.7818608E-02  0.1122623E+00
         11   -1    0    0    0    0  0.00000000000E+00  0.00000000000E+00  0.10004148327E+04  0.10004148327E+04  0.51100000000E-03 0. -1.
          2   -1    0    0  501    0 -0.00000000000E+00 -0.00000000000E+00 -0.46317749837E+03  0.46317749837E+03  0.25500000000E-02 0.  1.
         11    1    1    2    0    0  0.94778781340E+02 -0.98170117075E+02  0.21240200072E+03  0.25245791568E+03  0.51100000000E-03 0. -1.
         22    1    1    2    0    0 -0.31335940008E+03  0.16374700898E+02  0.70124187599E+03  0.76824632318E+03  0.00000000000E+00 0.  1.
          2    1    1    2  501    0  0.21858061874E+03  0.81795416177E+02 -0.37640654242E+03  0.44288809216E+03  0.25500000000E-02 0.  1.
<mgrwt>
<rscale>  0 0.23579896E+03</rscale>
<asrwt>0</asrwt>
<pdfrwt beam="1">  1       11 0.10000000E+01 0.13645655E+03</pdfrwt>
<pdfrwt beam="2">  1        2 0.71287635E-01 0.23579896E+03</pdfrwt>
<totfact> 0.84578778E+01</totfact>
</mgrwt>
</event>
<event>
 5    1  0.6729100E-004  0.1571069E+03  0.7818608E-02  0.1192002E+00
         11   -1    0    0    0    0  0.00000000000E+00  0.00000000000E+00  0.10001983140E+04  0.10001983140E+04  0.51100000000E-03 0. -1.
          2   -1    0    0  501    0 -0.00000000000E+00 -0.00000000000E+00 -0.83771711854E+03  0.83771711854E+03  0.25500000000E-02 0. -1.
         11    1    1    2    0    0 -0.40007929272E+02  0.16367772014E+03  0.90755946287E+03  0.92306836644E+03  0.51100000000E-03 0. -1.
         22    1    1    2    0    0  0.15640367780E+02 -0.85608782389E+01  0.76422467840E+02  0.78474857957E+02  0.00000000000E+00 0. -1.
          2    1    1    2  501    0  0.24367561492E+02 -0.15511684191E+03 -0.82150073520E+03  0.83637220820E+03  0.25500000000E-02 0. -1.
<mgrwt>
<rscale>  0 0.15710690E+03</rscale>
<asrwt>0</asrwt>
<pdfrwt beam="1">  1       11 0.10000000E+01 0.17830024E+02</pdfrwt>
<pdfrwt beam="2">  1        2 0.12890511E+00 0.15710690E+03</pdfrwt>
<totfact> 0.42644725E+01</totfact>
</mgrwt>
</event>
<event>
 5    1  0.6729100E-004  0.5770231E+03  0.7818608E-02  0.9965744E-01
         11   -1    0    0    0    0  0.00000000000E+00  0.00000000000E+00  0.10012287027E+04  0.10012287027E+04  0.51100000000E-03 0. -1.
          2   -1    0    0  501    0 -0.00000000000E+00 -0.00000000000E+00 -0.33222588771E+04  0.33222588771E+04  0.25500000000E-02 0. -1.
         11    1    1    2    0    0  0.51275078485E+03  0.36284365361E+02  0.78447431674E+03  0.93788585454E+03  0.51100000000E-03 0. -1.
         22    1    1    2    0    0  0.58848615447E+02 -0.21853734259E+02  0.10621674954E+03  0.12338048113E+03  0.00000000000E+00 0. -1.
          2    1    1    2  501    0 -0.57159940029E+03 -0.14430631103E+02 -0.32117212407E+04  0.32622212441E+04  0.25500000000E-02 0. -1.
<mgrwt>
<rscale>  0 0.57178153E+03</rscale>
<asrwt>0</asrwt>
<pdfrwt beam="1">  1       11 0.10000000E+01 0.57702310E+03</pdfrwt>
<pdfrwt beam="2">  1        2 0.51174475E+00 0.57178153E+03</pdfrwt>
<totfact> 0.14714426E+00</totfact>
</mgrwt>
</event>
<event>
 5    1  0.6729100E-004  0.3385071E+03  0.7818608E-02  0.1069593E+00
         11   -1    0    0    0    0  0.00000000000E+00  0.00000000000E+00  0.10001868421E+04  0.10001868421E+04  0.51100000000E-03 0. -1.
          2   -1    0    0  501    0 -0.00000000000E+00 -0.00000000000E+00 -0.14216323021E+03  0.14216323023E+03  0.25500000000E-02 0. -1.
         11    1    1    2    0    0 -0.28268218113E+03 -0.15031596001E+03  0.63011968686E+03  0.70679199425E+03  0.51100000000E-03 0. -1.
         22    1    1    2    0    0 -0.14931706253E+02 -0.20463131030E+00  0.60641843922E+02  0.62453430329E+02  0.00000000000E+00 0.  1.
          2    1    1    2  501    0  0.29761388738E+03  0.15052059132E+03  0.16726208106E+03  0.37310464771E+03  0.25500000000E-02 0. -1.
<mgrwt>
<rscale>  0 0.33351233E+03</rscale>
<asrwt>0</asrwt>
<pdfrwt beam="1">  1       11 0.10000000E+01 0.33850706E+03</pdfrwt>
<pdfrwt beam="2">  1        2 0.21875352E-01 0.33351233E+03</pdfrwt>
<totfact> 0.31087413E+02</totfact>
</mgrwt>
</event>
<event>
 5    1  0.6729100E-004  0.2654056E+03  0.7818608E-02  0.1103938E+00
         11   -1    0    0    0    0  0.00000000000E+00  0.00000000000E+00  0.10000571331E+04  0.10000571331E+04  0.51100000000E-03 0.  1.
          2   -1    0    0  501    0 -0.00000000000E+00 -0.00000000000E+00 -0.10247481396E+03  0.10247481399E+03  0.25500000000E-02 0.  1.
         11    1    1    2    0    0 -0.21971907599E+03  0.16283753891E+03  0.68637613493E+03  0.73885366281E+03  0.51100000000E-03 0.  1.
         22    1    1    2    0    0  0.18911761303E+02  0.68607334972E+01  0.53355581152E+02  0.57022297566E+02  0.00000000000E+00 0.  1.
          2    1    1    2  501    0  0.20080731469E+03 -0.16969827241E+03  0.15785060301E+03  0.30665598668E+03  0.25500000000E-02 0.  1.
<mgrwt>
<rscale>  0 0.26540558E+03</rscale>
<asrwt>0</asrwt>
<pdfrwt beam="1">  1       11 0.10000000E+01 0.20117763E+02</pdfrwt>
<pdfrwt beam="2">  1        2 0.15766256E-01 0.26540558E+03</pdfrwt>
<totfact> 0.45246295E+02</totfact>
</mgrwt>
</event>
<event>
 5    1  0.6729100E-004  0.9634717E+02  0.7818608E-02  0.1300747E+00
         11   -1    0    0    0    0  0.00000000000E+00  0.00000000000E+00  0.10003325972E+04  0.10003325972E+04  0.51100000000E-03 0. -1.
          2   -1    0    0  501    0 -0.00000000000E+00 -0.00000000000E+00 -0.10940754912E+02  0.10940755209E+02  0.25500000000E-02 0. -1.
         11    1    1    2    0    0  0.62020426373E+02 -0.47787815114E+02  0.19968249846E+03  0.21448381932E+03  0.51100000000E-03 0. -1.
         22    1    1    2    0    0  0.14369075407E+02 -0.14351208250E+01  0.80928858850E+02  0.82207117056E+02  0.00000000000E+00 0.  1.
          2    1    1    2  501    0 -0.76389501781E+02  0.49222935939E+02  0.70878048495E+03  0.71458241600E+03  0.25500000000E-02 0. -1.
<mgrwt>
<rscale>  0 0.90874933E+02</rscale>
<asrwt>0</asrwt>
<pdfrwt beam="1">  1       11 0.10000000E+01 0.96347174E+02</pdfrwt>
<pdfrwt beam="2">  1        2 0.16837529E-02 0.90874933E+02</pdfrwt>
<totfact> 0.75062627E+03</totfact>
</mgrwt>
</event>
<event>
 5    1  0.6729100E-004  0.1383370E+03  0.7818608E-02  0.1215584E+00
         11   -1    0    0    0    0  0.00000000000E+00  0.00000000000E+00  0.10003920601E+04  0.10003920601E+04  0.51100000000E-03 0. -1.
          2   -1    0    0  501    0 -0.00000000000E+00 -0.00000000000E+00 -0.63506238417E+03  0.63506238418E+03  0.25500000000E-02 0. -1.
         11    1    1    2    0    0  0.29401827065E+02 -0.15402272939E+03  0.78366067259E+03  0.79919429325E+03  0.51100000000E-03 0. -1.
         22    1    1    2    0    0  0.23265563186E+02  0.26263218979E+02  0.19980680342E+03  0.20286399827E+03  0.00000000000E+00 0.  1.
          2    1    1    2  501    0 -0.52667390252E+02  0.12775951041E+03 -0.61813780005E+03  0.63339615278E+03  0.25500000000E-02 0. -1.
<mgrwt>
<rscale>  0 0.13833703E+03</rscale>
<asrwt>0</asrwt>
<pdfrwt beam="1">  1       11 0.10000000E+01 0.35086224E+02</pdfrwt>
<pdfrwt beam="2">  1        2 0.97740207E-01 0.13833703E+03</pdfrwt>
<totfact> 0.59851038E+01</totfact>
</mgrwt>
</event>
<event>
 5    1  0.6729100E-004  0.1679189E+03  0.7818608E-02  0.1180036E+00
         11   -1    0    0    0    0  0.00000000000E+00  0.00000000000E+00  0.10000140060E+04  0.10000140060E+04  0.51100000000E-03 0. -1.
          2   -1    0    0  501    0 -0.00000000000E+00 -0.00000000000E+00 -0.78635930695E+02  0.78635930737E+02  0.25500000000E-02 0. -1.
         11    1    1    2    0    0  0.16880117881E+03 -0.71664056178E+02  0.33185994066E+03  0.37915774439E+03  0.51100000000E-03 0. -1.
         22    1    1    2    0    0 -0.68275498593E+02 -0.64081615925E+02  0.49927936787E+03  0.50798413793E+03  0.00000000000E+00 0.  1.
          2    1    1    2  501    0 -0.10052568021E+03  0.13574567210E+03  0.90238766802E+02  0.19150805445E+03  0.25500000000E-02 0. -1.
<mgrwt>
<rscale>  0 0.16791886E+03</rscale>
<asrwt>0</asrwt>
<pdfrwt beam="1">  1       11 0.10000000E+01 0.93637584E+02</pdfrwt>
<pdfrwt beam="2">  1        2 0.12098005E-01 0.16791886E+03</pdfrwt>
<totfact> 0.60990490E+02</totfact>
</mgrwt>
</event>
<event>
 5    1  0.6729100E-004  0.2019709E+03  0.7818608E-02  0.1148087E+00
         11   -1    0    0    0    0  0.00000000000E+00  0.00000000000E+00  0.10001772396E+04  0.10001772396E+04  0.51100000000E-03 0. -1.
         -2   -1    0    0    0  501 -0.00000000000E+00 -0.00000000000E+00 -0.46827894463E+02  0.46827894532E+02  0.25500000000E-02 0.  1.
         11    1    1    2    0    0  0.12050385541E+03 -0.15296322162E+03  0.37077330800E+03  0.41879800890E+03  0.51100000000E-03 0. -1.
         22    1    1    2    0    0  0.23198612754E+01 -0.19237676855E+02  0.91280178602E+02  0.93314205632E+02  0.00000000000E+00 0. -1.
         -2    1    1    2    0  501 -0.12282371669E+03  0.17220089847E+03  0.49129585856E+03  0.53489291962E+03  0.25500000000E-02 0.  1.
<mgrwt>
<rscale>  0 0.20197088E+03</rscale>
<asrwt>0</asrwt>
<pdfrwt beam="1">  1       11 0.10000000E+01 0.19377047E+02</pdfrwt>
<pdfrwt beam="2">  1       -2 0.72055681E-02 0.20197088E+03</pdfrwt>
<totfact> 0.87252349E+02</totfact>
</mgrwt>
</event>
<event>
 5    1  0.6729100E-004  0.1542935E+03  0.7818608E-02  0.1195294E+00
         11   -1    0    0    0    0  0.00000000000E+00  0.00000000000E+00  0.10001057368E+04  0.10001057368E+04  0.51100000000E-03 0. -1.
         -2   -1    0    0    0  501 -0.00000000000E+00 -0.00000000000E+00 -0.41802131357E+02  0.41802131435E+02  0.25500000000E-02 0.  1.
         11    1    1    2    0    0 -0.49330111808E+02 -0.14234770244E+03  0.82305183614E+03  0.83672615191E+03  0.51100000000E-03 0. -1.
         22    1    1    2    0    0  0.48771777024E+01  0.38594125052E+02  0.19536647469E+02  0.43531298455E+02  0.00000000000E+00 0.  1.
         -2    1    1    2    0  501  0.44452934105E+02  0.10375357738E+03  0.11571512185E+03  0.16165041788E+03  0.25500000000E-02 0.  1.
<mgrwt>
<rscale>  0 0.15429354E+03</rscale>
<asrwt>0</asrwt>
<pdfrwt beam="1">  1       11 0.10000000E+01 0.15065301E+03</pdfrwt>
<pdfrwt beam="2">  1       -2 0.64317770E-02 0.15429354E+03</pdfrwt>
<totfact> 0.10195298E+03</totfact>
</mgrwt>
</event>
<event>
 5    1  0.6729100E-004  0.3699057E+03  0.7818608E-02  0.1064830E+00
         11   -1    0    0    0    0  0.00000000000E+00  0.00000000000E+00  0.10005130649E+04  0.10005130649E+04  0.51100000000E-03 0.  1.
          2   -1    0    0  501    0 -0.00000000000E+00 -0.00000000000E+00 -0.14138606235E+04  0.14138606235E+04  0.25500000000E-02 0.  1.
         11    1    1    2    0    0  0.19113306854E+01  0.93759378087E+02  0.12947523835E+03  0.15986967039E+03  0.51100000000E-03 0.  1.
         22    1    1    2    0    0  0.10776536190E+03  0.23298027540E+03  0.81455925612E+03  0.85404915765E+03  0.00000000000E+00 0.  1.
          2    1    1    2  501    0 -0.10967669258E+03 -0.32673965348E+03 -0.13573820531E+04  0.14004548604E+04  0.25500000000E-02 0.  1.
<mgrwt>
<rscale>  0 0.34465603E+03</rscale>
<asrwt>0</asrwt>
<pdfrwt beam="1">  1       11 0.10000000E+01 0.36990575E+03</pdfrwt>
<pdfrwt beam="2">  1        2 0.21762861E+00 0.34465603E+03</pdfrwt>
<totfact> 0.18709510E+01</totfact>
</mgrwt>
</event>
<event>
 5    1  0.6729100E-004  0.2321661E+03  0.7818608E-02  0.1125124E+00
         11   -1    0    0    0    0  0.00000000000E+00  0.00000000000E+00  0.10000285248E+04  0.10000285248E+04  0.51100000000E-03 0. -1.
          2   -1    0    0  501    0 -0.00000000000E+00 -0.00000000000E+00 -0.77901674510E+02  0.77901674552E+02  0.25500000000E-02 0. -1.
         11    1    1    2    0    0 -0.14874006133E+03  0.15740244468E+03  0.28158836977E+03  0.35523393057E+03  0.51100000000E-03 0. -1.
         22    1    1    2    0    0  0.80886991313E+01  0.55592618064E+02  0.24935575363E+03  0.25560566916E+03  0.00000000000E+00 0. -1.
          2    1    1    2  501    0  0.14065136219E+03 -0.21299506274E+03  0.39118272687E+03  0.46709059961E+03  0.25500000000E-02 0. -1.
<mgrwt>
<rscale>  0 0.23216614E+03</rscale>
<asrwt>0</asrwt>
<pdfrwt beam="1">  1       11 0.10000000E+01 0.56177987E+02</pdfrwt>
<pdfrwt beam="2">  1        2 0.11985215E-01 0.23216614E+03</pdfrwt>
<totfact> 0.62599439E+02</totfact>
</mgrwt>
</event>
<event>
 5    1  0.6729100E-004  0.1636475E+03  0.7818608E-02  0.1395330E+00
         11   -1    0    0    0    0  0.00000000000E+00  0.00000000000E+00  0.10001389399E+04  0.10001389399E+04  0.51100000000E-03 0.  1.
          2   -1    0    0  501    0 -0.00000000000E+00 -0.00000000000E+00 -0.32695609443E+02  0.32695609543E+02  0.25500000000E-02 0.  1.
         11    1    1    2    0    0  0.17560552112E+03  0.15373919433E+01  0.45253880056E+03  0.48541840574E+03  0.51100000000E-03 0.  1.
         22    1    1    2    0    0 -0.20731570060E+02 -0.85901588748E+01  0.25137452278E+02  0.33696889080E+02  0.00000000000E+00 0.  1.
          2    1    1    2  501    0 -0.15487395106E+03  0.70527669315E+01  0.48976707763E+03  0.51371925463E+03  0.25500000000E-02 0.  1.
<mgrwt>
<rscale>  0 0.60600138E+02</rscale>
<asrwt>0</asrwt>
<pdfrwt beam="1">  1       11 0.10000000E+01 0.16364751E+03</pdfrwt>
<pdfrwt beam="2">  1        2 0.50307925E-02 0.60600138E+02</pdfrwt>
<totfact> 0.16893190E+03</totfact>
</mgrwt>
</event>
<event>
 5    1  0.6729100E-004  0.1136880E+03  0.7818608E-02  0.1382521E+00
         11   -1    0    0    0    0  0.00000000000E+00  0.00000000000E+00  0.10004140324E+04  0.10004140324E+04  0.51100000000E-03 0. -1.
          2   -1    0    0  501    0 -0.00000000000E+00 -0.00000000000E+00 -0.22333646527E+02  0.22333646672E+02  0.25500000000E-02 0. -1.
         11    1    1    2    0    0 -0.25989213026E+02  0.11261617779E+03  0.67023235088E+03  0.68012443484E+03  0.51100000000E-03 0. -1.
         22    1    1    2    0    0  0.35803424429E+02 -0.69106148973E+00  0.10208271416E+03  0.10818152937E+03  0.00000000000E+00 0. -1.
          2    1    1    2  501    0 -0.98142114031E+01 -0.11192511630E+03  0.20576532081E+03  0.23444171484E+03  0.25500000000E-02 0. -1.
<mgrwt>
<rscale>  0 0.63805788E+02</rscale>
<asrwt>0</asrwt>
<pdfrwt beam="1">  1       11 0.10000000E+01 0.11368802E+03</pdfrwt>
<pdfrwt beam="2">  1        2 0.34373681E-02 0.63805788E+02</pdfrwt>
<totfact> 0.27749902E+03</totfact>
</mgrwt>
</event>
<event>
 5    1  0.6729100E-004  0.2793594E+03  0.7818608E-02  0.1096039E+00
         11   -1    0    0    0    0  0.00000000000E+00  0.00000000000E+00  0.10000484422E+04  0.10000484422E+04  0.51100000000E-03 0. -1.
          2   -1    0    0  501    0 -0.00000000000E+00 -0.00000000000E+00 -0.47874003153E+03  0.47874003154E+03  0.25500000000E-02 0. -1.
         11    1    1    2    0    0 -0.24741541728E+03  0.13587715313E+03  0.85668752153E+03  0.90199251604E+03  0.51100000000E-03 0. -1.
         22    1    1    2    0    0  0.10083428545E+02  0.11249235650E+02  0.77167301983E+02  0.78632139289E+02  0.00000000000E+00 0.  1.
          2    1    1    2  501    0  0.23733198874E+03 -0.14712638878E+03 -0.41254641288E+03  0.49816381837E+03  0.25500000000E-02 0. -1.
<mgrwt>
<rscale>  0 0.27935938E+03</rscale>
<asrwt>0</asrwt>
<pdfrwt beam="1">  1       11 0.10000000E+01 0.15106980E+02</pdfrwt>
<pdfrwt beam="2">  1        2 0.73655878E-01 0.27935938E+03</pdfrwt>
<totfact> 0.81367908E+01</totfact>
</mgrwt>
</event>
<event>
 5    1  0.6729100E-004  0.1102553E+03  0.7818608E-02  0.1513461E+00
         11   -1    0    0    0    0  0.00000000000E+00  0.00000000000E+00  0.10000764531E+04  0.10000764531E+04  0.51100000000E-03 0. -1.
          2   -1    0    0  501    0 -0.00000000000E+00 -0.00000000000E+00 -0.39298700198E+03  0.39298700198E+03  0.25500000000E-02 0.  1.
         11    1    1    2    0    0  0.12155397245E+03 -0.48297325934E+02  0.42517056746E+03  0.44483481355E+03  0.51100000000E-03 0. -1.
         22    1    1    2    0    0 -0.10055712720E+03  0.15081843376E+02  0.55947151417E+03  0.56863659133E+03  0.00000000000E+00 0. -1.
          2    1    1    2  501    0 -0.20996845253E+02  0.33215482558E+02 -0.37755263049E+03  0.37959205022E+03  0.25500000000E-02 0.  1.
<mgrwt>
<rscale>  0 0.39295493E+02</rscale>
<asrwt>0</asrwt>
<pdfrwt beam="1">  1       11 0.10000000E+01 0.11025525E+03</pdfrwt>
<pdfrwt beam="2">  1        2 0.60464159E-01 0.39295493E+02</pdfrwt>
<totfact> 0.10194314E+02</totfact>
</mgrwt>
</event>
<event>
 5    1  0.6729100E-004  0.3343680E+03  0.7818608E-02  0.1069220E+00
         11   -1    0    0    0    0  0.00000000000E+00  0.00000000000E+00  0.10001667351E+04  0.10001667351E+04  0.51100000000E-03 0.  1.
          2   -1    0    0  501    0 -0.00000000000E+00 -0.00000000000E+00 -0.11835702677E+03  0.11835702680E+03  0.25500000000E-02 0.  1.
         11    1    1    2    0    0  0.22822037352E+03  0.19990666789E+03  0.63230586905E+03  0.70132583496E+03  0.51100000000E-03 0.  1.
         22    1    1    2    0    0 -0.83483767773E+02  0.18362611185E+01  0.86212659512E+02  0.12002305610E+03  0.00000000000E+00 0. -1.
          2    1    1    2  501    0 -0.14473660575E+03 -0.20174292901E+03  0.16329117975E+03  0.29717487081E+03  0.25500000000E-02 0.  1.
<mgrwt>
<rscale>  0 0.33436798E+03</rscale>
<asrwt>0</asrwt>
<pdfrwt beam="1">  1       11 0.10000000E+01 0.30339284E+03</pdfrwt>
<pdfrwt beam="2">  1        2 0.18211809E-01 0.33436798E+03</pdfrwt>
<totfact> 0.38445148E+02</totfact>
</mgrwt>
</event>
<event>
 5    1  0.6729100E-004  0.3304619E+03  0.7818608E-02  0.1070933E+00
         11   -1    0    0    0    0  0.00000000000E+00  0.00000000000E+00  0.10000898523E+04  0.10000898523E+04  0.51100000000E-03 0.  1.
          2   -1    0    0  501    0 -0.00000000000E+00 -0.00000000000E+00 -0.13108522357E+03  0.13108522360E+03  0.25500000000E-02 0.  1.
         11    1    1    2    0    0 -0.17609337875E+03  0.27981209199E+03  0.63630530954E+03  0.71706912624E+03  0.51100000000E-03 0.  1.
         22    1    1    2    0    0 -0.85052300642E+01 -0.57379759262E+01  0.15788985883E+02  0.18829641032E+02  0.00000000000E+00 0.  1.
          2    1    1    2  501    0  0.18459860881E+03 -0.27407411606E+03  0.21691033334E+03  0.39527630865E+03  0.25500000000E-02 0.  1.
<mgrwt>
<rscale>  0 0.33046192E+03</rscale>
<asrwt>0</asrwt>
<pdfrwt beam="1">  1       11 0.10000000E+01 0.10259791E+02</pdfrwt>
<pdfrwt beam="2">  1        2 0.20168769E-01 0.33046192E+03</pdfrwt>
<totfact> 0.34128122E+02</totfact>
</mgrwt>
</event>
<event>
 5    1  0.6729100E-004  0.9753124E+02  0.7818608E-02  0.1382314E+00
         11   -1    0    0    0    0  0.00000000000E+00  0.00000000000E+00  0.10003248821E+04  0.10003248821E+04  0.51100000000E-03 0.  1.
          2   -1    0    0  501    0 -0.00000000000E+00 -0.00000000000E+00 -0.24303190390E+02  0.24303190524E+02  0.25500000000E-02 0.  1.
         11    1    1    2    0    0  0.48597514457E+02  0.91896587243E+02  0.50799658021E+03  0.51852408494E+03  0.51100000000E-03 0.  1.
         22    1    1    2    0    0 -0.90841832323E+02 -0.44006671208E+02  0.40107487572E+03  0.41358177129E+03  0.00000000000E+00 0.  1.
          2    1    1    2  501    0  0.42244317867E+02 -0.47889916035E+02  0.66950235803E+02  0.92522216416E+02  0.25500000000E-02 0.  1.
<mgrwt>
<rscale>  0 0.63859427E+02</rscale>
<asrwt>0</asrwt>
<pdfrwt beam="1">  1       11 0.10000000E+01 0.97531237E+02</pdfrwt>
<pdfrwt beam="2">  1        2 0.37401670E-02 0.63859427E+02</pdfrwt>
<totfact> 0.24866112E+03</totfact>
</mgrwt>
</event>
<event>
 5    1  0.6729100E-004  0.1022769E+03  0.7818608E-02  0.1410794E+00
         11   -1    0    0    0    0  0.00000000000E+00  0.00000000000E+00  0.10004349638E+04  0.10004349638E+04  0.51100000000E-03 0.  1.
          2   -1    0    0  501    0 -0.00000000000E+00 -0.00000000000E+00 -0.87470444529E+02  0.87470444566E+02  0.25500000000E-02 0.  1.
         11    1    1    2    0    0  0.10769632783E+03 -0.53838755285E+02  0.51935976038E+03  0.53313382120E+03  0.51100000000E-03 0.  1.
         22    1    1    2    0    0 -0.94678581552E+02 -0.16724252591E+01  0.45862154831E+03  0.46829537195E+03  0.00000000000E+00 0.  1.
          2    1    1    2  501    0 -0.13017746281E+02  0.55511180544E+02 -0.65016789431E+02  0.86476215216E+02  0.25500000000E-02 0.  1.
<mgrwt>
<rscale>  0 0.57017128E+02</rscale>
<asrwt>0</asrwt>
<pdfrwt beam="1">  1       11 0.10000000E+01 0.10227686E+03</pdfrwt>
<pdfrwt beam="2">  1        2 0.13462844E-01 0.57017128E+02</pdfrwt>
<totfact> 0.50764047E+02</totfact>
</mgrwt>
</event>
<event>
 5    1  0.6729100E-004  0.6227394E+03  0.7818608E-02  0.9859321E-01
         11   -1    0    0    0    0  0.00000000000E+00  0.00000000000E+00  0.10002485300E+04  0.10002485300E+04  0.51100000000E-03 0.  1.
          2   -1    0    0  501    0 -0.00000000000E+00 -0.00000000000E+00 -0.56854462663E+03  0.56854462663E+03  0.25500000000E-02 0.  1.
         11    1    1    2    0    0  0.18740259044E+03 -0.59132235151E+03  0.60907798717E+03  0.86934334342E+03  0.51100000000E-03 0.  1.
         22    1    1    2    0    0  0.42411007335E+02  0.11332229733E+02  0.15339267241E+02  0.46501678393E+02  0.00000000000E+00 0. -1.
          2    1    1    2  501    0 -0.22981359778E+03  0.57999012177E+03 -0.19271335104E+03  0.65294813481E+03  0.25500000000E-02 0.  1.
<mgrwt>
<rscale>  0 0.62273944E+03</rscale>
<asrwt>0</asrwt>
<pdfrwt beam="1">  1       11 0.10000000E+01 0.43898895E+02</pdfrwt>
<pdfrwt beam="2">  1        2 0.87490140E-01 0.62273944E+03</pdfrwt>
<totfact> 0.65782892E+01</totfact>
</mgrwt>
</event>
<event>
 5    1  0.6729100E-004  0.1748759E+03  0.7818608E-02  0.1172856E+00
         11   -1    0    0    0    0  0.00000000000E+00  0.00000000000E+00  0.10002112522E+04  0.10002112522E+04  0.51100000000E-03 0.  1.
          2   -1    0    0  501    0 -0.00000000000E+00 -0.00000000000E+00 -0.11563355011E+03  0.11563355013E+03  0.25500000000E-02 0.  1.
         11    1    1    2    0    0 -0.12304128603E+03 -0.99187980105E+02  0.47696714175E+03  0.50246897196E+03  0.51100000000E-03 0.  1.
         22    1    1    2    0    0 -0.51111087952E+02  0.54727021420E+02  0.42615449730E+03  0.43268353996E+03  0.00000000000E+00 0.  1.
          2    1    1    2  501    0  0.17415237398E+03  0.44460958686E+02 -0.18543936959E+02  0.18069229041E+03  0.25500000000E-02 0.  1.
<mgrwt>
<rscale>  0 0.17487590E+03</rscale>
<asrwt>0</asrwt>
<pdfrwt beam="1">  1       11 0.10000000E+01 0.74882509E+02</pdfrwt>
<pdfrwt beam="2">  1        2 0.17793535E-01 0.17487590E+03</pdfrwt>
<totfact> 0.38725219E+02</totfact>
</mgrwt>
</event>
<event>
 5    1  0.6729100E-004  0.8140139E+02  0.7818608E-02  0.1494999E+00
         11   -1    0    0    0    0  0.00000000000E+00  0.00000000000E+00  0.10004641280E+04  0.10004641280E+04  0.51100000000E-03 0. -1.
         -2   -1    0    0    0  501 -0.00000000000E+00 -0.00000000000E+00 -0.14725844357E+02  0.14725844578E+02  0.25500000000E-02 0.  1.
         11    1    1    2    0    0 -0.20799874180E+02  0.94658295759E+02  0.56508787928E+03  0.57333859021E+03  0.51100000000E-03 0. -1.
         22    1    1    2    0    0 -0.13198183098E+02 -0.70248550520E+02  0.36653591959E+03  0.37344026461E+03  0.00000000000E+00 0.  1.
         -2    1    1    2    0  501  0.33998057278E+02 -0.24409745240E+02  0.54114484739E+02  0.68411117711E+02  0.25500000000E-02 0.  1.
<mgrwt>
<rscale>  0 0.41853358E+02</rscale>
<asrwt>0</asrwt>
<pdfrwt beam="1">  1       11 0.10000000E+01 0.81401386E+02</pdfrwt>
<pdfrwt beam="2">  1       -2 0.22665660E-02 0.41853358E+02</pdfrwt>
<totfact> 0.40492377E+03</totfact>
</mgrwt>
</event>
<event>
 5    1  0.6729100E-004  0.9741986E+02  0.7818608E-02  0.1461257E+00
         11   -1    0    0    0    0  0.00000000000E+00  0.00000000000E+00  0.10001843993E+04  0.10001843993E+04  0.51100000000E-03 0. -1.
          2   -1    0    0  501    0 -0.00000000000E+00 -0.00000000000E+00 -0.12145302384E+02  0.12145302652E+02  0.25500000000E-02 0. -1.
         11    1    1    2    0    0 -0.91699277387E+02  0.19616706313E+02  0.44771092146E+03  0.45742610533E+03  0.51100000000E-03 0. -1.
         22    1    1    2    0    0 -0.20488288680E+01  0.22743099276E+02  0.78345469714E+02  0.81605507713E+02  0.00000000000E+00 0. -1.
          2    1    1    2  501    0  0.93748106255E+02 -0.42359805589E+02  0.46198270573E+03  0.47329808890E+03  0.25500000000E-02 0. -1.
<mgrwt>
<rscale>  0 0.47165685E+02</rscale>
<asrwt>0</asrwt>
<pdfrwt beam="1">  1       11 0.10000000E+01 0.97419861E+02</pdfrwt>
<pdfrwt beam="2">  1        2 0.18688526E-02 0.47165685E+02</pdfrwt>
<totfact> 0.59317456E+03</totfact>
</mgrwt>
</event>
<event>
 5    1  0.6729100E-004  0.1258464E+03  0.7818608E-02  0.1273327E+00
         11   -1    0    0    0    0  0.00000000000E+00  0.00000000000E+00  0.10001778804E+04  0.10001778804E+04  0.51100000000E-03 0. -1.
         -2   -1    0    0    0  501 -0.00000000000E+00 -0.00000000000E+00 -0.45867452237E+02  0.45867452308E+02  0.25500000000E-02 0. -1.
         11    1    1    2    0    0 -0.27178667411E+02 -0.19848408308E+03  0.40359246381E+03  0.45057905859E+03  0.51100000000E-03 0. -1.
         22    1    1    2    0    0 -0.15319132168E+02  0.10423365059E+03  0.39304116173E+03  0.40691606572E+03  0.00000000000E+00 0. -1.
         -2    1    1    2    0  501  0.42497799579E+02  0.94250432486E+02  0.15767680259E+03  0.18855020836E+03  0.25500000000E-02 0. -1.
<mgrwt>
<rscale>  0 0.10338862E+03</rscale>
<asrwt>0</asrwt>
<pdfrwt beam="1">  1       11 0.10000000E+01 0.12584643E+03</pdfrwt>
<pdfrwt beam="2">  1       -2 0.70577861E-02 0.10338862E+03</pdfrwt>
<totfact> 0.85792892E+02</totfact>
</mgrwt>
</event>
<event>
 5    1  0.6729100E-004  0.6787320E+03  0.7818608E-02  0.9754311E-01
         11   -1    0    0    0    0  0.00000000000E+00  0.00000000000E+00  0.10001531053E+04  0.10001531053E+04  0.51100000000E-03 0. -1.
          2   -1    0    0  501    0 -0.00000000000E+00 -0.00000000000E+00 -0.60369601854E+03  0.60369601854E+03  0.25500000000E-02 0. -1.
         11    1    1    2    0    0 -0.24604279270E+03 -0.57495310067E+03  0.21405404511E+03  0.66100473375E+03  0.51100000000E-03 0. -1.
         22    1    1    2    0    0  0.21137465354E+02 -0.11300015044E+03  0.18645914049E+03  0.21904985166E+03  0.00000000000E+00 0. -1.
          2    1    1    2  501    0  0.22490532735E+03  0.68795325111E+03 -0.40560987913E+01  0.72379453847E+03  0.25500000000E-02 0. -1.
<mgrwt>
<rscale>  0 0.67873195E+03</rscale>
<asrwt>0</asrwt>
<pdfrwt beam="1">  1       11 0.10000000E+01 0.11496011E+03</pdfrwt>
<pdfrwt beam="2">  1        2 0.92890528E-01 0.67873195E+03</pdfrwt>
<totfact> 0.61118075E+01</totfact>
</mgrwt>
</event>
<event>
 5    1  0.6729100E-004  0.1492834E+03  0.7818608E-02  0.1201356E+00
         11   -1    0    0    0    0  0.00000000000E+00  0.00000000000E+00  0.10001571856E+04  0.10001571856E+04  0.51100000000E-03 0.  1.
          2   -1    0    0  501    0 -0.00000000000E+00 -0.00000000000E+00 -0.36851049974E+02  0.36851050062E+02  0.25500000000E-02 0.  1.
         11    1    1    2    0    0 -0.74133239045E+02 -0.11696488403E+03  0.64221364914E+03  0.65697404239E+03  0.51100000000E-03 0.  1.
         22    1    1    2    0    0 -0.31232149028E+02  0.53805927855E+01  0.13574882916E+03  0.13939921998E+03  0.00000000000E+00 0. -1.
          2    1    1    2  501    0  0.10536538807E+03  0.11158429124E+03  0.18534365730E+03  0.24063497328E+03  0.25500000000E-02 0.  1.
<mgrwt>
<rscale>  0 0.14928338E+03</rscale>
<asrwt>0</asrwt>
<pdfrwt beam="1">  1       11 0.10000000E+01 0.31692237E+02</pdfrwt>
<pdfrwt beam="2">  1        2 0.56702833E-02 0.14928338E+03</pdfrwt>
<totfact> 0.15675556E+03</totfact>
</mgrwt>
</event>
<event>
 5    1  0.6729100E-004  0.1197652E+03  0.7818608E-02  0.1243485E+00
         11   -1    0    0    0    0  0.00000000000E+00  0.00000000000E+00  0.10002845388E+04  0.10002845388E+04  0.51100000000E-03 0.  1.
          2   -1    0    0  501    0 -0.00000000000E+00 -0.00000000000E+00 -0.20466710126E+02  0.20466710285E+02  0.25500000000E-02 0.  1.
         11    1    1    2    0    0  0.12008360091E+03 -0.37429570247E+01  0.60111068601E+03  0.61299929671E+03  0.51100000000E-03 0.  1.
         22    1    1    2    0    0 -0.25450796352E+01 -0.21344407100E+02  0.12720387882E+03  0.12900731736E+03  0.00000000000E+00 0.  1.
          2    1    1    2  501    0 -0.11753852127E+03  0.25087364125E+02  0.25150326389E+03  0.27874463506E+03  0.25500000000E-02 0.  1.
<mgrwt>
<rscale>  0 0.11976517E+03</rscale>
<asrwt>0</asrwt>
<pdfrwt beam="1">  1       11 0.10000000E+01 0.21495608E+02</pdfrwt>
<pdfrwt beam="2">  1        2 0.31496205E-02 0.11976517E+03</pdfrwt>
<totfact> 0.33369310E+03</totfact>
</mgrwt>
</event>
<event>
 5    1  0.6729100E-004  0.2158916E+03  0.7818608E-02  0.1147778E+00
         11   -1    0    0    0    0  0.00000000000E+00  0.00000000000E+00  0.10003301780E+04  0.10003301780E+04  0.51100000000E-03 0. -1.
          2   -1    0    0  501    0 -0.00000000000E+00 -0.00000000000E+00 -0.57805196000E+02  0.57805196056E+02  0.25500000000E-02 0. -1.
         11    1    1    2    0    0 -0.89546366763E+02 -0.41563779288E+02  0.23348921786E+03  0.25350209941E+03  0.51100000000E-03 0. -1.
         22    1    1    2    0    0 -0.10278050391E+03 -0.21305718289E+02  0.51042051332E+03  0.52110158898E+03  0.00000000000E+00 0. -1.
          2    1    1    2  501    0  0.19232687068E+03  0.62869497577E+02  0.19861525081E+03  0.28353168566E+03  0.25500000000E-02 0. -1.
<mgrwt>
<rscale>  0 0.20234179E+03</rscale>
<asrwt>0</asrwt>
<pdfrwt beam="1">  1       11 0.10000000E+01 0.21589161E+03</pdfrwt>
<pdfrwt beam="2">  1        2 0.88960431E-02 0.20234179E+03</pdfrwt>
<totfact> 0.89934207E+02</totfact>
</mgrwt>
</event>
<event>
 5    1  0.6729100E-004  0.1967839E+03  0.7818608E-02  0.1152481E+00
         11   -1    0    0    0    0  0.00000000000E+00  0.00000000000E+00  0.99995905971E+03  0.99995905971E+03  0.51100000000E-03 0. -1.
          2   -1    0    0  501    0 -0.00000000000E+00 -0.00000000000E+00 -0.52661731151E+02  0.52661731212E+02  0.25500000000E-02 0. -1.
         11    1    1    2    0    0  0.19174514305E+03  0.50166957894E+01  0.35051672772E+03  0.39956644445E+03  0.51100000000E-03 0. -1.
         22    1    1    2    0    0  0.91715859482E+01 -0.42255928581E+02  0.22215734061E+03  0.22632623683E+03  0.00000000000E+00 0. -1.
          2    1    1    2  501    0 -0.20091672900E+03  0.37239232792E+02  0.37462326023E+03  0.42672810965E+03  0.25500000000E-02 0. -1.
<mgrwt>
<rscale>  0 0.19678394E+03</rscale>
<asrwt>0</asrwt>
<pdfrwt beam="1">  1       11 0.10000000E+01 0.43239814E+02</pdfrwt>
<pdfrwt beam="2">  1        2 0.81014729E-02 0.19678394E+03</pdfrwt>
<totfact> 0.10104229E+03</totfact>
</mgrwt>
</event>
<event>
 5    1  0.6729100E-004  0.1572406E+03  0.7818608E-02  0.1191848E+00
         11   -1    0    0    0    0  0.00000000000E+00  0.00000000000E+00  0.10000163528E+04  0.10000163528E+04  0.51100000000E-03 0. -1.
          2   -1    0    0  501    0 -0.00000000000E+00 -0.00000000000E+00 -0.48555451732E+02  0.48555451799E+02  0.25500000000E-02 0. -1.
         11    1    1    2    0    0 -0.19220625225E+02 -0.18832963122E+03  0.45739135624E+03  0.49501953011E+03  0.51100000000E-03 0. -1.
         22    1    1    2    0    0 -0.32154899499E+02  0.52035495177E+02  0.32359994124E+03  0.32933046062E+03  0.00000000000E+00 0. -1.
          2    1    1    2  501    0  0.51375524724E+02  0.13629413604E+03  0.17046960358E+03  0.22422181386E+03  0.25500000000E-02 0. -1.
<mgrwt>
<rscale>  0 0.15724055E+03</rscale>
<asrwt>0</asrwt>
<pdfrwt beam="1">  1       11 0.10000000E+01 0.61168867E+02</pdfrwt>
<pdfrwt beam="2">  1        2 0.74701914E-02 0.15724055E+03</pdfrwt>
<totfact> 0.11045392E+03</totfact>
</mgrwt>
</event>
<event>
 5    1  0.6729100E-004  0.1675041E+03  0.7818608E-02  0.1444319E+00
         11   -1    0    0    0    0  0.00000000000E+00  0.00000000000E+00  0.10006731828E+04  0.10006731828E+04  0.51100000000E-03 0. -1.
          2   -1    0    0  501    0 -0.00000000000E+00 -0.00000000000E+00 -0.33857753771E+03  0.33857753772E+03  0.25500000000E-02 0. -1.
         11    1    1    2    0    0 -0.14325475307E+03  0.13517324789E+03  0.40708142438E+03  0.45222673218E+03  0.51100000000E-03 0. -1.
         22    1    1    2    0    0  0.12725792202E+03 -0.87600715103E+02  0.55847000805E+03  0.57944560909E+03  0.00000000000E+00 0. -1.
          2    1    1    2  501    0  0.15996831055E+02 -0.47572532790E+02 -0.30345578736E+03  0.30757837923E+03  0.25500000000E-02 0. -1.
<mgrwt>
<rscale>  0 0.50190084E+02</rscale>
<asrwt>0</asrwt>
<pdfrwt beam="1">  1       11 0.10000000E+01 0.16750405E+03</pdfrwt>
<pdfrwt beam="2">  1        2 0.52123916E-01 0.50190084E+02</pdfrwt>
<totfact> 0.11868596E+02</totfact>
</mgrwt>
</event>
<event>
 5    1  0.6884299E-004  0.9448534E+02  0.7818608E-02  0.1292339E+00
         11   -1    0    0    0    0  0.00000000000E+00  0.00000000000E+00  0.10005729588E+04  0.10005729588E+04  0.51100000000E-03 0. -1.
          2   -1    0    0  501    0 -0.00000000000E+00 -0.00000000000E+00 -0.18183489347E+04  0.18183489347E+04  0.25500000000E-02 0. -1.
         11    1    1    2    0    0  0.84069732850E+02  0.10408381857E+03  0.65435526858E+03  0.66789368824E+03  0.51100000000E-03 0. -1.
         22    1    1    2    0    0  0.26081084658E+01 -0.66587676213E+02  0.33493294818E+03  0.34149787793E+03  0.00000000000E+00 0.  1.
          2    1    1    2  501    0 -0.86677841315E+02 -0.37496142353E+02 -0.18070641927E+04  0.18095303273E+04  0.25500000000E-02 0. -1.
<mgrwt>
<rscale>  0 0.94485336E+02</rscale>
<asrwt>0</asrwt>
<pdfrwt beam="1">  1       11 0.10000000E+01 0.66638734E+02</pdfrwt>
<pdfrwt beam="2">  1        2 0.27990626E+00 0.94485336E+02</pdfrwt>
<totfact> 0.12798553E+01</totfact>
</mgrwt>
</event>
<event>
 5    1  0.6729100E-004  0.1194361E+03  0.7818608E-02  0.1244030E+00
         11   -1    0    0    0    0  0.00000000000E+00  0.00000000000E+00  0.99983551187E+03  0.99983551187E+03  0.51100000000E-03 0.  1.
          2   -1    0    0  501    0 -0.00000000000E+00 -0.00000000000E+00 -0.88250359933E+03  0.88250359933E+03  0.25500000000E-02 0.  1.
         11    1    1    2    0    0  0.85657235393E+02  0.28508377751E+01  0.28037824837E+03  0.29318467117E+03  0.51100000000E-03 0.  1.
         22    1    1    2    0    0 -0.86727524582E+02  0.11659143169E+03  0.70150184267E+03  0.71639378887E+03  0.00000000000E+00 0.  1.
          2    1    1    2  501    0  0.10702891887E+01 -0.11944226947E+03 -0.86454817850E+03  0.87276065115E+03  0.25500000000E-02 0.  1.
<mgrwt>
<rscale>  0 0.11943612E+03</rscale>
<asrwt>0</asrwt>
<pdfrwt beam="1">  1       11 0.10000000E+01 0.85704663E+02</pdfrwt>
<pdfrwt beam="2">  1        2 0.13574745E+00 0.11943612E+03</pdfrwt>
<totfact> 0.40360933E+01</totfact>
</mgrwt>
</event>
<event>
 5    1  0.6729100E-004  0.1508075E+03  0.7818608E-02  0.1201686E+00
         11   -1    0    0    0    0  0.00000000000E+00  0.00000000000E+00  0.10001300922E+04  0.10001300922E+04  0.51100000000E-03 0.  1.
          2   -1    0    0  501    0 -0.00000000000E+00 -0.00000000000E+00 -0.38364923043E+02  0.38364923128E+02  0.25500000000E-02 0.  1.
         11    1    1    2    0    0  0.13672389548E+03 -0.28207684930E+02  0.77396023439E+03  0.78644996122E+03  0.51100000000E-03 0.  1.
         22    1    1    2    0    0  0.80689639070E+01 -0.70221487722E+01  0.42815614244E+02  0.44131571182E+02  0.00000000000E+00 0.  1.
          2    1    1    2  501    0 -0.14479285939E+03  0.35229833702E+02  0.14498932053E+03  0.20791348294E+03  0.25500000000E-02 0.  1.
<mgrwt>
<rscale>  0 0.14901716E+03</rscale>
<asrwt>0</asrwt>
<pdfrwt beam="1">  1       11 0.10000000E+01 0.15080748E+03</pdfrwt>
<pdfrwt beam="2">  1        2 0.59030635E-02 0.14901716E+03</pdfrwt>
<totfact> 0.14877857E+03</totfact>
</mgrwt>
</event>
<event>
 5    1  0.6729100E-004  0.1405791E+03  0.7818608E-02  0.1212552E+00
         11   -1    0    0    0    0  0.00000000000E+00  0.00000000000E+00  0.10005216674E+04  0.10005216674E+04  0.51100000000E-03 0. -1.
         -2   -1    0    0    0  501 -0.00000000000E+00 -0.00000000000E+00 -0.21222005020E+02  0.21222005173E+02  0.25500000000E-02 0. -1.
         11    1    1    2    0    0  0.57261212522E+02 -0.11994547077E+03  0.65397415608E+03  0.66734395872E+03  0.51100000000E-03 0. -1.
         22    1    1    2    0    0 -0.46727524216E+02  0.84072180343E+02  0.27748459281E+03  0.29368229820E+03  0.00000000000E+00 0. -1.
         -2    1    1    2    0  501 -0.10533688306E+02  0.35873290427E+02  0.47840913540E+02  0.60717415708E+02  0.25500000000E-02 0. -1.
<mgrwt>
<rscale>  0 0.14057906E+03</rscale>
<asrwt>0</asrwt>
<pdfrwt beam="1">  1       11 0.10000000E+01 0.13291261E+03</pdfrwt>
<pdfrwt beam="2">  1       -2 0.32666270E-02 0.14057906E+03</pdfrwt>
<totfact> 0.27921087E+03</totfact>
</mgrwt>
</event>
<event>
 5    1  0.6729100E-004  0.1595692E+03  0.7818608E-02  0.1189184E+00
         11   -1    0    0    0    0  0.00000000000E+00  0.00000000000E+00  0.99968647016E+03  0.99968647016E+03  0.51100000000E-03 0.  1.
          2   -1    0    0  501    0 -0.00000000000E+00 -0.00000000000E+00 -0.38821157924E+03  0.38821157925E+03  0.25500000000E-02 0.  1.
         11    1    1    2    0    0  0.43230095880E+02 -0.87685976247E+02  0.48035447162E+03  0.49020209100E+03  0.51100000000E-03 0.  1.
         22    1    1    2    0    0 -0.56217024792E+02 -0.74060074546E+02  0.49268865020E+03  0.50138543513E+03  0.00000000000E+00 0.  1.
          2    1    1    2  501    0  0.12986928912E+02  0.16174605079E+03 -0.36156823090E+03  0.39631052329E+03  0.25500000000E-02 0.  1.
<mgrwt>
<rscale>  0 0.15956925E+03</rscale>
<asrwt>0</asrwt>
<pdfrwt beam="1">  1       11 0.10000000E+01 0.92979829E+02</pdfrwt>
<pdfrwt beam="2">  1        2 0.59706131E-01 0.15956925E+03</pdfrwt>
<totfact> 0.10295320E+02</totfact>
</mgrwt>
</event>
<event>
 5    1  0.6729100E-004  0.9351461E+02  0.7818608E-02  0.1294557E+00
         11   -1    0    0    0    0  0.00000000000E+00  0.00000000000E+00  0.10001870395E+04  0.10001870395E+04  0.51100000000E-03 0. -1.
          2   -1    0    0  501    0 -0.00000000000E+00 -0.00000000000E+00 -0.92357923063E+01  0.92357926583E+01  0.25500000000E-02 0. -1.
         11    1    1    2    0    0 -0.66472900656E+02 -0.61624174441E+02  0.34372860367E+03  0.35547930794E+03  0.51100000000E-03 0. -1.
         22    1    1    2    0    0  0.14843204355E+02  0.26978869618E+02  0.18241807591E+03  0.18499874200E+03  0.00000000000E+00 0.  1.
          2    1    1    2  501    0  0.51629696300E+02  0.34645304823E+02  0.46480456765E+03  0.46894478225E+03  0.25500000000E-02 0. -1.
<mgrwt>
<rscale>  0 0.93514612E+02</rscale>
<asrwt>0</asrwt>
<pdfrwt beam="1">  1       11 0.10000000E+01 0.90643222E+02</pdfrwt>
<pdfrwt beam="2">  1        2 0.14211569E-02 0.93514612E+02</pdfrwt>
<totfact> 0.94881418E+03</totfact>
</mgrwt>
</event>
<event>
 5    1  0.6729100E-004  0.1823381E+03  0.7818608E-02  0.1165559E+00
         11   -1    0    0    0    0  0.00000000000E+00  0.00000000000E+00  0.10002655644E+04  0.10002655644E+04  0.51100000000E-03 0. -1.
          2   -1    0    0  501    0 -0.00000000000E+00 -0.00000000000E+00 -0.95122552111E+02  0.95122552145E+02  0.25500000000E-02 0. -1.
         11    1    1    2    0    0 -0.14394902397E+03  0.10617708087E+03  0.17907199625E+03  0.25310407711E+03  0.51100000000E-03 0. -1.
         22    1    1    2    0    0  0.69780670383E+02  0.77726612382E+02  0.59611503750E+03  0.60519741091E+03  0.00000000000E+00 0. -1.
          2    1    1    2  501    0  0.74168353591E+02 -0.18390369325E+03  0.12995597854E+03  0.23708662854E+03  0.25500000000E-02 0. -1.
<mgrwt>
<rscale>  0 0.18233808E+03</rscale>
<asrwt>0</asrwt>
<pdfrwt beam="1">  1       11 0.10000000E+01 0.10445462E+03</pdfrwt>
<pdfrwt beam="2">  1        2 0.14638125E-01 0.18233808E+03</pdfrwt>
<totfact> 0.48731918E+02</totfact>
</mgrwt>
</event>
<event>
 5    1  0.6729100E-004  0.2377240E+03  0.7818608E-02  0.1121318E+00
         11   -1    0    0    0    0  0.00000000000E+00  0.00000000000E+00  0.10005337020E+04  0.10005337020E+04  0.51100000000E-03 0.  1.
          2   -1    0    0  501    0 -0.00000000000E+00 -0.00000000000E+00 -0.10276484365E+04  0.10276484365E+04  0.25500000000E-02 0.  1.
         11    1    1    2    0    0  0.17756703679E+02  0.24927870764E+03  0.93817802735E+03  0.97089298361E+03  0.51100000000E-03 0.  1.
         22    1    1    2    0    0 -0.72076640170E+01 -0.11966162739E+02  0.30504310025E+02  0.33550743679E+02  0.00000000000E+00 0.  1.
          2    1    1    2  501    0 -0.10549039662E+02 -0.23731254490E+03 -0.99579707185E+03  0.10237384112E+04  0.25500000000E-02 0.  1.
<mgrwt>
<rscale>  0 0.23772397E+03</rscale>
<asrwt>0</asrwt>
<pdfrwt beam="1">  1       11 0.10000000E+01 0.13969233E+02</pdfrwt>
<pdfrwt beam="2">  1        2 0.15818413E+00 0.23772397E+03</pdfrwt>
<totfact> 0.31773506E+01</totfact>
</mgrwt>
</event>
<event>
 5    1  0.6729100E-004  0.2427621E+03  0.7818608E-02  0.1117966E+00
         11   -1    0    0    0    0  0.00000000000E+00  0.00000000000E+00  0.10001400662E+04  0.10001400662E+04  0.51100000000E-03 0. -1.
          2   -1    0    0  501    0 -0.00000000000E+00 -0.00000000000E+00 -0.41347533700E+03  0.41347533700E+03  0.25500000000E-02 0. -1.
         11    1    1    2    0    0  0.24399693012E+03  0.62254685648E+01  0.85218230061E+03  0.88644680147E+03  0.51100000000E-03 0. -1.
         22    1    1    2    0    0 -0.14927588454E+01 -0.16678064935E+02  0.92842983879E+02  0.94340902235E+02  0.00000000000E+00 0.  1.
          2    1    1    2  501    0 -0.24250417127E+03  0.10452596371E+02 -0.35836055529E+03  0.43282769949E+03  0.25500000000E-02 0. -1.
<mgrwt>
<rscale>  0 0.24276206E+03</rscale>
<asrwt>0</asrwt>
<pdfrwt beam="1">  1       11 0.10000000E+01 0.16744736E+02</pdfrwt>
<pdfrwt beam="2">  1        2 0.63620498E-01 0.24276206E+03</pdfrwt>
<totfact> 0.95824058E+01</totfact>
</mgrwt>
</event>
<event>
 5    1  0.6729100E-004  0.1422131E+03  0.7818608E-02  0.1210382E+00
         11   -1    0    0    0    0  0.00000000000E+00  0.00000000000E+00  0.10003229501E+04  0.10003229501E+04  0.51100000000E-03 0. -1.
          2   -1    0    0  501    0 -0.00000000000E+00 -0.00000000000E+00 -0.42282022608E+02  0.42282022685E+02  0.25500000000E-02 0. -1.
         11    1    1    2    0    0  0.16499951080E+02  0.15078282775E+03  0.72567962300E+03  0.74136268099E+03  0.51100000000E-03 0. -1.
         22    1    1    2    0    0  0.17581626718E+02 -0.14444200652E+02  0.11766496239E+03  0.11984486599E+03  0.00000000000E+00 0. -1.
          2    1    1    2  501    0 -0.34081577799E+02 -0.13633862710E+03  0.11469634206E+03  0.18139742576E+03  0.25500000000E-02 0. -1.
<mgrwt>
<rscale>  0 0.14221305E+03</rscale>
<asrwt>0</asrwt>
<pdfrwt beam="1">  1       11 0.10000000E+01 0.22754088E+02</pdfrwt>
<pdfrwt beam="2">  1        2 0.65070271E-02 0.14221305E+03</pdfrwt>
<totfact> 0.13080508E+03</totfact>
</mgrwt>
</event>
<event>
 5    1  0.6729100E-004  0.3313934E+03  0.7818608E-02  0.1070522E+00
         11   -1    0    0    0    0  0.00000000000E+00  0.00000000000E+00  0.10002331912E+04  0.10002331912E+04  0.51100000000E-03 0.  1.
          2   -1    0    0  501    0 -0.00000000000E+00 -0.00000000000E+00 -0.11762897103E+04  0.11762897103E+04  0.25500000000E-02 0.  1.
         11    1    1    2    0    0  0.28882316068E+03 -0.13943800651E+03  0.85913679447E+03  0.91704842152E+03  0.51100000000E-03 0.  1.
         22    1    1    2    0    0 -0.11624652796E+02 -0.42835089779E+02  0.82446924465E+02  0.93634784257E+02  0.00000000000E+00 0.  1.
          2    1    1    2  501    0 -0.27719850788E+03  0.18227309629E+03 -0.11176402381E+04  0.11658396958E+04  0.25500000000E-02 0.  1.
<mgrwt>
<rscale>  0 0.33139340E+03</rscale>
<asrwt>0</asrwt>
<pdfrwt beam="1">  1       11 0.10000000E+01 0.44384428E+02</pdfrwt>
<pdfrwt beam="2">  1        2 0.18100984E+00 0.33139340E+03</pdfrwt>
<totfact> 0.25516170E+01</totfact>
</mgrwt>
</event>
<event>
 5    1  0.6729100E-004  0.1111023E+03  0.7818608E-02  0.1565191E+00
         11   -1    0    0    0    0  0.00000000000E+00  0.00000000000E+00  0.10002379246E+04  0.10002379246E+04  0.51100000000E-03 0. -1.
          2   -1    0    0  501    0 -0.00000000000E+00 -0.00000000000E+00 -0.42317846529E+02  0.42317846606E+02  0.25500000000E-02 0. -1.
         11    1    1    2    0    0  0.94440684473E+02 -0.77094376767E+02  0.71384461479E+03  0.72418003278E+03  0.51100000000E-03 0. -1.
         22    1    1    2    0    0 -0.82936341356E+02  0.45951210310E+02  0.26341076886E+03  0.27995568149E+03  0.00000000000E+00 0. -1.
          2    1    1    2  501    0 -0.11504343117E+02  0.31143166457E+02 -0.19335305572E+02  0.38420056944E+02  0.25500000000E-02 0. -1.
<mgrwt>
<rscale>  0 0.33200101E+02</rscale>
<asrwt>0</asrwt>
<pdfrwt beam="1">  1       11 0.10000000E+01 0.11110233E+03</pdfrwt>
<pdfrwt beam="2">  1        2 0.65119867E-02 0.33200101E+02</pdfrwt>
<totfact> 0.11509320E+03</totfact>
</mgrwt>
</event>
<event>
 5    1  0.6729100E-004  0.5530579E+03  0.7818608E-02  0.1001480E+00
         11   -1    0    0    0    0  0.00000000000E+00  0.00000000000E+00  0.10003746613E+04  0.10003746613E+04  0.51100000000E-03 0.  1.
          2   -1    0    0  501    0 -0.00000000000E+00 -0.00000000000E+00 -0.83643229938E+03  0.83643229938E+03  0.25500000000E-02 0.  1.
         11    1    1    2    0    0 -0.51742521857E+03 -0.13437524761E+03  0.78582491975E+03  0.95042430971E+03  0.51100000000E-03 0.  1.
         22    1    1    2    0    0 -0.12322456855E+02 -0.13722986103E+02  0.28895971079E+02  0.34280321398E+02  0.00000000000E+00 0.  1.
          2    1    1    2  501    0  0.52974767542E+03  0.14809823371E+03 -0.65077852888E+03  0.85210232960E+03  0.25500000000E-02 0.  1.
<mgrwt>
<rscale>  0 0.55005971E+03</rscale>
<asrwt>0</asrwt>
<pdfrwt beam="1">  1       11 0.10000000E+01 0.55305794E+03</pdfrwt>
<pdfrwt beam="2">  1        2 0.12873010E+00 0.55005971E+03</pdfrwt>
<totfact> 0.40719136E+01</totfact>
</mgrwt>
</event>
<event>
 5    1  0.6729100E-004  0.8623003E+02  0.7818608E-02  0.1659826E+00
         11   -1    0    0    0    0  0.00000000000E+00  0.00000000000E+00  0.10000963583E+04  0.10000963583E+04  0.51100000000E-03 0.  1.
          2   -1    0    0  501    0 -0.00000000000E+00 -0.00000000000E+00 -0.99097267207E+02  0.99097267239E+02  0.25500000000E-02 0. -1.
         11    1    1    2    0    0 -0.48757834050E+02 -0.72290375870E+02  0.51363428894E+03  0.52098311643E+03  0.51100000000E-03 0.  1.
         22    1    1    2    0    0  0.67233523934E+02  0.55326876980E+02  0.47712857091E+03  0.48500833316E+03  0.00000000000E+00 0.  1.
          2    1    1    2  501    0 -0.18475689884E+02  0.16963498891E+02 -0.89763768766E+02  0.93202175945E+02  0.25500000000E-02 0. -1.
<mgrwt>
<rscale>  0 0.25082094E+02</rscale>
<asrwt>0</asrwt>
<pdfrwt beam="1">  1       11 0.10000000E+01 0.86230032E+02</pdfrwt>
<pdfrwt beam="2">  1        2 0.15247202E-01 0.25082094E+02</pdfrwt>
<totfact> 0.41809282E+02</totfact>
</mgrwt>
</event>
<event>
 5    1  0.6729100E-004  0.1282081E+03  0.7818608E-02  0.1230139E+00
         11   -1    0    0    0    0  0.00000000000E+00  0.00000000000E+00  0.99997959707E+03  0.99997959707E+03  0.51100000000E-03 0. -1.
          2   -1    0    0  501    0 -0.00000000000E+00 -0.00000000000E+00 -0.61498510257E+02  0.61498510309E+02  0.25500000000E-02 0. -1.
         11    1    1    2    0    0 -0.15648649405E+03  0.36211962187E+02  0.31440559089E+03  0.35305835865E+03  0.51100000000E-03 0. -1.
         22    1    1    2    0    0  0.76390091866E+02  0.60548082507E+02  0.55807807253E+03  0.56652683209E+03  0.00000000000E+00 0. -1.
          2    1    1    2  501    0  0.80096402189E+02 -0.96760044695E+02  0.65997423382E+02  0.14189291664E+03  0.25500000000E-02 0. -1.
<mgrwt>
<rscale>  0 0.12820811E+03</rscale>
<asrwt>0</asrwt>
<pdfrwt beam="1">  1       11 0.10000000E+01 0.97475722E+02</pdfrwt>
<pdfrwt beam="2">  1        2 0.94611160E-02 0.12820811E+03</pdfrwt>
<totfact> 0.81159872E+02</totfact>
</mgrwt>
</event>
<event>
 5    1  0.6729100E-004  0.2821314E+03  0.7818608E-02  0.1095873E+00
         11   -1    0    0    0    0  0.00000000000E+00  0.00000000000E+00  0.10004042460E+04  0.10004042460E+04  0.51100000000E-03 0. -1.
          2   -1    0    0  501    0 -0.00000000000E+00 -0.00000000000E+00 -0.10165905619E+04  0.10165905619E+04  0.25500000000E-02 0. -1.
         11    1    1    2    0    0 -0.46997903609E+02  0.26137933526E+03  0.92139803860E+03  0.95890682831E+03  0.51100000000E-03 0. -1.
         22    1    1    2    0    0  0.47258829397E+01  0.15070884662E+02  0.39091183572E+02  0.42161429852E+02  0.00000000000E+00 0. -1.
          2    1    1    2  501    0  0.42272020670E+02 -0.27645021992E+03 -0.97667553807E+03  0.10159265498E+04  0.25500000000E-02 0. -1.
<mgrwt>
<rscale>  0 0.27966345E+03</rscale>
<asrwt>0</asrwt>
<pdfrwt beam="1">  1       11 0.10000000E+01 0.28213137E+03</pdfrwt>
<pdfrwt beam="2">  1        2 0.15646177E+00 0.27966345E+03</pdfrwt>
<totfact> 0.32017758E+01</totfact>
</mgrwt>
</event>
<event>
 5    1  0.6729100E-004  0.1222168E+03  0.7818608E-02  0.1239484E+00
         11   -1    0    0    0    0  0.00000000000E+00  0.00000000000E+00  0.10002303273E+04  0.10002303273E+04  0.51100000000E-03 0. -1.
          2   -1    0    0  501    0 -0.00000000000E+00 -0.00000000000E+00 -0.42178111379E+02  0.42178111456E+02  0.25500000000E-02 0. -1.
         11    1    1    2    0    0 -0.12557391917E+03  0.18735886138E+02  0.58387233630E+03  0.59751715264E+03  0.51100000000E-03 0. -1.
         22    1    1    2    0    0  0.21090751745E+02  0.46134471209E+02  0.29339556253E+03  0.29774849346E+03  0.00000000000E+00 0.  1.
          2    1    1    2  501    0  0.10448316742E+03 -0.64870357347E+02  0.80784317085E+02  0.14714279265E+03  0.25500000000E-02 0. -1.
<mgrwt>
<rscale>  0 0.12221682E+03</rscale>
<asrwt>0</asrwt>
<pdfrwt beam="1">  1       11 0.10000000E+01 0.50726810E+02</pdfrwt>
<pdfrwt beam="2">  1        2 0.64904346E-02 0.12221682E+03</pdfrwt>
<totfact> 0.12979069E+03</totfact>
</mgrwt>
</event>
<event>
 5    1  0.6729100E-004  0.3130498E+03  0.7818608E-02  0.1078893E+00
         11   -1    0    0    0    0  0.00000000000E+00  0.00000000000E+00  0.99997797284E+03  0.99997797284E+03  0.51100000000E-03 0. -1.
          2   -1    0    0  501    0 -0.00000000000E+00 -0.00000000000E+00 -0.11299016806E+03  0.11299016808E+03  0.25500000000E-02 0. -1.
         11    1    1    2    0    0 -0.30387169522E+03  0.55617374237E+02  0.27442811020E+03  0.41320949546E+03  0.51100000000E-03 0. -1.
         22    1    1    2    0    0 -0.13081431804E+02 -0.85049838644E+01  0.49541126977E+02  0.51940175883E+02  0.00000000000E+00 0.  1.
          2    1    1    2  501    0  0.31695312702E+03 -0.47112390372E+02  0.56301856761E+03  0.64781846958E+03  0.25500000000E-02 0. -1.
<mgrwt>
<rscale>  0 0.31304978E+03</rscale>
<asrwt>0</asrwt>
<pdfrwt beam="1">  1       11 0.10000000E+01 0.15603160E+02</pdfrwt>
<pdfrwt beam="2">  1        2 0.17382719E-01 0.31304978E+03</pdfrwt>
<totfact> 0.40530272E+02</totfact>
</mgrwt>
</event>
<event>
 5    1  0.6729100E-004  0.2165130E+03  0.7818608E-02  0.1136510E+00
         11   -1    0    0    0    0  0.00000000000E+00  0.00000000000E+00  0.10001598688E+04  0.10001598688E+04  0.51100000000E-03 0. -1.
          2   -1    0    0  501    0 -0.00000000000E+00 -0.00000000000E+00 -0.60815702590E+02  0.60815702643E+02  0.25500000000E-02 0. -1.
         11    1    1    2    0    0 -0.21447964539E+03 -0.44631788138E+02  0.23818586380E+03  0.32361399926E+03  0.51100000000E-03 0. -1.
         22    1    1    2    0    0  0.58525689264E+01  0.15585014625E+02  0.36336493589E+02  0.39968562774E+02  0.00000000000E+00 0. -1.
          2    1    1    2  501    0  0.20862707646E+03  0.29046773514E+02  0.66482180879E+03  0.69739300938E+03  0.25500000000E-02 0. -1.
<mgrwt>
<rscale>  0 0.21651299E+03</rscale>
<asrwt>0</asrwt>
<pdfrwt beam="1">  1       11 0.10000000E+01 0.16647680E+02</pdfrwt>
<pdfrwt beam="2">  1        2 0.93577574E-02 0.21651299E+03</pdfrwt>
<totfact> 0.84711917E+02</totfact>
</mgrwt>
</event>
<event>
 5    1  0.6729100E-004  0.1955986E+03  0.7818608E-02  0.1157991E+00
         11   -1    0    0    0    0  0.00000000000E+00  0.00000000000E+00  0.10000017640E+04  0.10000017640E+04  0.51100000000E-03 0. -1.
          2   -1    0    0  501    0 -0.00000000000E+00 -0.00000000000E+00 -0.37786607327E+02  0.37786607413E+02  0.25500000000E-02 0. -1.
         11    1    1    2    0    0  0.14335837702E+03 -0.11233640344E+03  0.37975250892E+03  0.42116868335E+03  0.51100000000E-03 0. -1.
         22    1    1    2    0    0  0.10981902671E+02  0.63202815691E+00  0.47062062472E+02  0.48330522136E+02  0.00000000000E+00 0. -1.
          2    1    1    2  501    0 -0.15434027969E+03  0.11170437528E+03  0.53540058532E+03  0.56828916597E+03  0.25500000000E-02 0. -1.
<mgrwt>
<rscale>  0 0.19052241E+03</rscale>
<asrwt>0</asrwt>
<pdfrwt beam="1">  1       11 0.10000000E+01 0.19559863E+03</pdfrwt>
<pdfrwt beam="2">  1        2 0.58133343E-02 0.19052241E+03</pdfrwt>
<totfact> 0.15449066E+03</totfact>
</mgrwt>
</event>
<event>
 5    1  0.6729100E-004  0.2051157E+03  0.7818608E-02  0.1145493E+00
         11   -1    0    0    0    0  0.00000000000E+00  0.00000000000E+00  0.99987673912E+03  0.99987673912E+03  0.51100000000E-03 0.  1.
          2   -1    0    0  501    0 -0.00000000000E+00 -0.00000000000E+00 -0.14137893377E+03  0.14137893379E+03  0.25500000000E-02 0.  1.
         11    1    1    2    0    0 -0.72539085652E+02  0.21002004511E+03  0.70381734600E+03  0.73805771782E+03  0.51100000000E-03 0.  1.
         22    1    1    2    0    0  0.45594803838E+02 -0.82518930537E+01  0.19089882024E+03  0.19644169478E+03  0.00000000000E+00 0.  1.
          2    1    1    2  501    0  0.26944281814E+02 -0.20176815206E+03 -0.36218360892E+02  0.20675626032E+03  0.25500000000E-02 0.  1.
<mgrwt>
<rscale>  0 0.20511573E+03</rscale>
<asrwt>0</asrwt>
<pdfrwt beam="1">  1       11 0.10000000E+01 0.46335514E+02</pdfrwt>
<pdfrwt beam="2">  1        2 0.21747924E-01 0.20511573E+03</pdfrwt>
<totfact> 0.30930726E+02</totfact>
</mgrwt>
</event>
<event>
 5    1  0.6729100E-004  0.1299365E+03  0.7818608E-02  0.1227550E+00
         11   -1    0    0    0    0  0.00000000000E+00  0.00000000000E+00  0.10002222952E+04  0.10002222952E+04  0.51100000000E-03 0.  1.
          2   -1    0    0  501    0 -0.00000000000E+00 -0.00000000000E+00 -0.24923710387E+02  0.24923710517E+02  0.25500000000E-02 0.  1.
         11    1    1    2    0    0 -0.11793138061E+03 -0.69421642053E+00  0.48198968361E+03  0.49620796807E+03  0.51100000000E-03 0.  1.
         22    1    1    2    0    0 -0.16154910619E+02  0.41355036310E+02  0.18549168586E+03  0.19073118698E+03  0.00000000000E+00 0.  1.
          2    1    1    2  501    0  0.13408629123E+03 -0.40660819890E+02  0.30781721537E+03  0.33820685069E+03  0.25500000000E-02 0.  1.
<mgrwt>
<rscale>  0 0.12993652E+03</rscale>
<asrwt>0</asrwt>
<pdfrwt beam="1">  1       11 0.10000000E+01 0.44398425E+02</pdfrwt>
<pdfrwt beam="2">  1        2 0.38352693E-02 0.12993652E+03</pdfrwt>
<totfact> 0.25880585E+03</totfact>
</mgrwt>
</event>
<event>
 5    1  0.6729100E-004  0.1419075E+03  0.7818608E-02  0.1210785E+00
         11   -1    0    0    0    0  0.00000000000E+00  0.00000000000E+00  0.99988778569E+03  0.99988778569E+03  0.51100000000E-03 0. -1.
         -2   -1    0    0    0  501 -0.00000000000E+00 -0.00000000000E+00 -0.40057962555E+02  0.40057962636E+02  0.25500000000E-02 0.  1.
         11    1    1    2    0    0 -0.11280018137E+03 -0.17687706455E+02  0.22968797586E+03  0.25650205093E+03  0.51100000000E-03 0. -1.
         22    1    1    2    0    0 -0.63786433784E+02 -0.30710702862E+02  0.39735014269E+03  0.40360747305E+03  0.00000000000E+00 0. -1.
         -2    1    1    2    0  501  0.17658661516E+03  0.48398409317E+02  0.33279170458E+03  0.37983622434E+03  0.25500000000E-02 0.  1.
<mgrwt>
<rscale>  0 0.14190753E+03</rscale>
<asrwt>0</asrwt>
<pdfrwt beam="1">  1       11 0.10000000E+01 0.70794466E+02</pdfrwt>
<pdfrwt beam="2">  1       -2 0.61620717E-02 0.14190753E+03</pdfrwt>
<totfact> 0.10813176E+03</totfact>
</mgrwt>
</event>
<event>
 5    1  0.6729100E-004  0.9182446E+02  0.7818608E-02  0.1512957E+00
         11   -1    0    0    0    0  0.00000000000E+00  0.00000000000E+00  0.10001925160E+04  0.10001925160E+04  0.51100000000E-03 0.  1.
          2   -1    0    0  501    0 -0.00000000000E+00 -0.00000000000E+00 -0.35831776735E+03  0.35831776736E+03  0.25500000000E-02 0. -1.
         11    1    1    2    0    0  0.77940269867E+02  0.40165570633E+02  0.44599808818E+03  0.45453520589E+03  0.51100000000E-03 0.  1.
         22    1    1    2    0    0 -0.64039025266E+02 -0.76991548127E+02  0.54424919320E+03  0.55338583243E+03  0.00000000000E+00 0.  1.
          2    1    1    2  501    0 -0.13901244601E+02  0.36825977494E+02 -0.34837253270E+03  0.35058924508E+03  0.25500000000E-02 0. -1.
<mgrwt>
<rscale>  0 0.39362383E+02</rscale>
<asrwt>0</asrwt>
<pdfrwt beam="1">  1       11 0.10000000E+01 0.91824458E+02</pdfrwt>
<pdfrwt beam="2">  1        2 0.55136421E-01 0.39362383E+02</pdfrwt>
<totfact> 0.11192739E+02</totfact>
</mgrwt>
</event>
<event>
 5    1  0.6729100E-004  0.1883046E+03  0.7818608E-02  0.1159999E+00
         11   -1    0    0    0    0  0.00000000000E+00  0.00000000000E+00  0.10002987190E+04  0.10002987190E+04  0.51100000000E-03 0. -1.
          2   -1    0    0  501    0 -0.00000000000E+00 -0.00000000000E+00 -0.87989239157E+02  0.87989239194E+02  0.25500000000E-02 0. -1.
         11    1    1    2    0    0 -0.19032541787E+03 -0.24019771100E+02  0.80458881026E+02  0.20802486781E+03  0.51100000000E-03 0. -1.
         22    1    1    2    0    0  0.83327494273E+01  0.76189305492E+02  0.42061016992E+03  0.42753615054E+03  0.00000000000E+00 0. -1.
          2    1    1    2  501    0  0.18199266845E+03 -0.52169534392E+02  0.41124042893E+03  0.45272693986E+03  0.25500000000E-02 0. -1.
<mgrwt>
<rscale>  0 0.18830457E+03</rscale>
<asrwt>0</asrwt>
<pdfrwt beam="1">  1       11 0.10000000E+01 0.76643623E+02</pdfrwt>
<pdfrwt beam="2">  1        2 0.13540849E-01 0.18830457E+03</pdfrwt>
<totfact> 0.53537284E+02</totfact>
</mgrwt>
</event>
<event>
 5    1  0.6729100E-004  0.1764728E+03  0.7818608E-02  0.1171261E+00
         11   -1    0    0    0    0  0.00000000000E+00  0.00000000000E+00  0.10001483986E+04  0.10001483986E+04  0.51100000000E-03 0. -1.
          2   -1    0    0  501    0 -0.00000000000E+00 -0.00000000000E+00 -0.66209915764E+02  0.66209915813E+02  0.25500000000E-02 0. -1.
         11    1    1    2    0    0 -0.11511440061E+03 -0.12189240497E+03  0.53809176969E+03  0.56360610024E+03  0.51100000000E-03 0. -1.
         22    1    1    2    0    0  0.33752603020E+02 -0.39368889291E+02  0.28746877662E+03  0.29210861881E+03  0.00000000000E+00 0. -1.
          2    1    1    2  501    0  0.81361797590E+02  0.16126129426E+03  0.10837793653E+03  0.21064359536E+03  0.25500000000E-02 0. -1.
<mgrwt>
<rscale>  0 0.17647283E+03</rscale>
<asrwt>0</asrwt>
<pdfrwt beam="1">  1       11 0.10000000E+01 0.51856992E+02</pdfrwt>
<pdfrwt beam="2">  1        2 0.10187652E-01 0.17647283E+03</pdfrwt>
<totfact> 0.75414959E+02</totfact>
</mgrwt>
</event>
<event>
 5    1  0.6729100E-004  0.1068269E+03  0.7818608E-02  0.1320335E+00
         11   -1    0    0    0    0  0.00000000000E+00  0.00000000000E+00  0.10001128019E+04  0.10001128019E+04  0.51100000000E-03 0. -1.
          2   -1    0    0  501    0 -0.00000000000E+00 -0.00000000000E+00 -0.25411537015E+02  0.25411537143E+02  0.25500000000E-02 0. -1.
         11    1    1    2    0    0  0.11130786554E+03  0.33194138273E+02  0.21669306968E+03  0.24586007849E+03  0.51100000000E-03 0. -1.
         22    1    1    2    0    0 -0.73810608177E+01 -0.64303223586E+02  0.17362473113E+03  0.18529687500E+03  0.00000000000E+00 0. -1.
          2    1    1    2  501    0 -0.10392680472E+03  0.31109085313E+02  0.58438346408E+03  0.59436738556E+03  0.25500000000E-02 0. -1.
<mgrwt>
<rscale>  0 0.83152963E+02</rscale>
<asrwt>0</asrwt>
<pdfrwt beam="1">  1       11 0.10000000E+01 0.10682688E+03</pdfrwt>
<pdfrwt beam="2">  1        2 0.39099081E-02 0.83152963E+02</pdfrwt>
<totfact> 0.24148233E+03</totfact>
</mgrwt>
</event>
<event>
 5    1  0.6729100E-004  0.1425354E+03  0.7818608E-02  0.1209958E+00
         11   -1    0    0    0    0  0.00000000000E+00  0.00000000000E+00  0.99998522447E+03  0.99998522447E+03  0.51100000000E-03 0. -1.
          2   -1    0    0  501    0 -0.00000000000E+00 -0.00000000000E+00 -0.31089863661E+02  0.31089863766E+02  0.25500000000E-02 0. -1.
         11    1    1    2    0    0  0.57013506983E+02  0.11019084545E+03  0.49375596474E+03  0.50910462099E+03  0.51100000000E-03 0. -1.
         22    1    1    2    0    0  0.53244416866E+02  0.74651983669E+00  0.18307136334E+03  0.19065846243E+03  0.00000000000E+00 0. -1.
          2    1    1    2  501    0 -0.11025792385E+03 -0.11093736528E+03  0.29206803272E+03  0.33131200481E+03  0.25500000000E-02 0. -1.
<mgrwt>
<rscale>  0 0.14253542E+03</rscale>
<asrwt>0</asrwt>
<pdfrwt beam="1">  1       11 0.10000000E+01 0.53249650E+02</pdfrwt>
<pdfrwt beam="2">  1        2 0.47829851E-02 0.14253542E+03</pdfrwt>
<totfact> 0.19499498E+03</totfact>
</mgrwt>
</event>
<event>
 5    1  0.6729100E-004  0.2353876E+03  0.7818608E-02  0.1123935E+00
         11   -1    0    0    0    0  0.00000000000E+00  0.00000000000E+00  0.10001808761E+04  0.10001808761E+04  0.51100000000E-03 0. -1.
          2   -1    0    0  501    0 -0.00000000000E+00 -0.00000000000E+00 -0.56288609524E+02  0.56288609582E+02  0.25500000000E-02 0. -1.
         11    1    1    2    0    0 -0.13265727604E+03  0.17074510687E+03  0.49018966596E+03  0.53575904381E+03  0.51100000000E-03 0. -1.
         22    1    1    2    0    0 -0.87315759953E+01  0.15565012444E+02  0.61772507489E+02  0.64298932442E+02  0.00000000000E+00 0. -1.
          2    1    1    2  501    0  0.14138885204E+03 -0.18631011931E+03  0.39193009313E+03  0.45641150944E+03  0.25500000000E-02 0. -1.
<mgrwt>
<rscale>  0 0.23388516E+03</rscale>
<asrwt>0</asrwt>
<pdfrwt beam="1">  1       11 0.10000000E+01 0.23538762E+03</pdfrwt>
<pdfrwt beam="2">  1        2 0.86613522E-02 0.23388516E+03</pdfrwt>
<totfact> 0.93752584E+02</totfact>
</mgrwt>
</event>
<event>
 5    1  0.6729100E-004  0.1861891E+03  0.7818608E-02  0.1161944E+00
         11   -1    0    0    0    0  0.00000000000E+00  0.00000000000E+00  0.10003740277E+04  0.10003740277E+04  0.51100000000E-03 0. -1.
          2   -1    0    0  501    0 -0.00000000000E+00 -0.00000000000E+00 -0.48905201676E+02  0.48905201743E+02  0.25500000000E-02 0. -1.
         11    1    1    2    0    0  0.87079535184E+00 -0.18307982190E+03  0.61997479642E+03  0.64644236221E+03  0.51100000000E-03 0. -1.
         22    1    1    2    0    0  0.32743896027E+02 -0.22475283524E+01  0.94960130200E+02  0.10047208786E+03  0.00000000000E+00 0.  1.
          2    1    1    2  501    0 -0.33614691379E+02  0.18532735025E+03  0.23653389938E+03  0.30236477934E+03  0.25500000000E-02 0. -1.
<mgrwt>
<rscale>  0 0.18618907E+03</rscale>
<asrwt>0</asrwt>
<pdfrwt beam="1">  1       11 0.10000000E+01 0.32820940E+02</pdfrwt>
<pdfrwt beam="2">  1        2 0.75266911E-02 0.18618907E+03</pdfrwt>
<totfact> 0.11057403E+03</totfact>
</mgrwt>
</event>
<event>
 5    1  0.6729100E-004  0.9743837E+02  0.7818608E-02  0.1285777E+00
         11   -1    0    0    0    0  0.00000000000E+00  0.00000000000E+00  0.10004498537E+04  0.10004498537E+04  0.51100000000E-03 0. -1.
          2   -1    0    0  501    0 -0.00000000000E+00 -0.00000000000E+00 -0.12389856098E+02  0.12389856360E+02  0.25500000000E-02 0. -1.
         11    1    1    2    0    0 -0.47591548374E+02 -0.84910784977E+02  0.33630686603E+03  0.35011013271E+03  0.51100000000E-03 0. -1.
         22    1    1    2    0    0  0.18712099571E+02 -0.97560423105E+01  0.12131823281E+03  0.12313990679E+03  0.00000000000E+00 0. -1.
          2    1    1    2  501    0  0.28879448803E+02  0.94666827288E+02  0.53043489871E+03  0.53958967052E+03  0.25500000000E-02 0. -1.
<mgrwt>
<rscale>  0 0.97438373E+02</rscale>
<asrwt>0</asrwt>
<pdfrwt beam="1">  1       11 0.10000000E+01 0.21102678E+02</pdfrwt>
<pdfrwt beam="2">  1        2 0.19069892E-02 0.97438373E+02</pdfrwt>
<totfact> 0.64003799E+03</totfact>
</mgrwt>
</event>
<event>
 5    1  0.6729100E-004  0.1547445E+03  0.7818608E-02  0.1194761E+00
         11   -1    0    0    0    0  0.00000000000E+00  0.00000000000E+00  0.99997786772E+03  0.99997786772E+03  0.51100000000E-03 0. -1.
          2   -1    0    0  501    0 -0.00000000000E+00 -0.00000000000E+00 -0.14144065253E+03  0.14144065255E+03  0.25500000000E-02 0. -1.
         11    1    1    2    0    0  0.21013213424E+03  0.69489535427E+02  0.65043755368E+03  0.68706136598E+03  0.51100000000E-03 0. -1.
         22    1    1    2    0    0 -0.68678240702E+02 -0.19505024634E+02  0.27930930038E+03  0.28828949341E+03  0.00000000000E+00 0. -1.
          2    1    1    2  501    0 -0.14145389354E+03 -0.49984510793E+02 -0.71209638876E+02  0.16606766088E+03  0.25500000000E-02 0. -1.
<mgrwt>
<rscale>  0 0.15474453E+03</rscale>
<asrwt>0</asrwt>
<pdfrwt beam="1">  1       11 0.10000000E+01 0.71394305E+02</pdfrwt>
<pdfrwt beam="2">  1        2 0.21759618E-01 0.15474453E+03</pdfrwt>
<totfact> 0.30674579E+02</totfact>
</mgrwt>
</event>
<event>
 5    1  0.6729100E-004  0.1094029E+03  0.7818608E-02  0.1348149E+00
         11   -1    0    0    0    0  0.00000000000E+00  0.00000000000E+00  0.10003459198E+04  0.10003459198E+04  0.51100000000E-03 0.  1.
          2   -1    0    0  501    0 -0.00000000000E+00 -0.00000000000E+00 -0.33937886747E+02  0.33937886843E+02  0.25500000000E-02 0.  1.
         11    1    1    2    0    0  0.91728662285E+02 -0.19545538590E+02  0.29717616942E+03  0.31162453567E+03  0.51100000000E-03 0.  1.
         22    1    1    2    0    0 -0.95391228407E+02  0.93090041368E+02  0.61980220380E+03  0.63397161932E+03  0.00000000000E+00 0.  1.
          2    1    1    2  501    0  0.36625661221E+01 -0.73544502778E+02  0.49429659847E+02  0.88687651669E+02  0.25500000000E-02 0.  1.
<mgrwt>
<rscale>  0 0.73635645E+02</rscale>
<asrwt>0</asrwt>
<pdfrwt beam="1">  1       11 0.10000000E+01 0.10940292E+03</pdfrwt>
<pdfrwt beam="2">  1        2 0.52230193E-02 0.73635645E+02</pdfrwt>
<totfact> 0.16414261E+03</totfact>
</mgrwt>
</event>
<event>
 5    1  0.6729100E-004  0.1791864E+03  0.7818608E-02  0.1173130E+00
         11   -1    0    0    0    0  0.00000000000E+00  0.00000000000E+00  0.99982925057E+03  0.99982925057E+03  0.51100000000E-03 0. -1.
          2   -1    0    0  501    0 -0.00000000000E+00 -0.00000000000E+00 -0.35462378932E+02  0.35462379024E+02  0.25500000000E-02 0. -1.
         11    1    1    2    0    0 -0.62146810809E+02 -0.13531898969E+03  0.61135319418E+03  0.62922665479E+03  0.51100000000E-03 0. -1.
         22    1    1    2    0    0 -0.94620351358E+01 -0.23924865310E+02  0.53734507057E+02  0.59576224601E+02  0.00000000000E+00 0. -1.
          2    1    1    2  501    0  0.71608845945E+02  0.15924385500E+03  0.29927917040E+03  0.34648875020E+03  0.25500000000E-02 0. -1.
<mgrwt>
<rscale>  0 0.17460364E+03</rscale>
<asrwt>0</asrwt>
<pdfrwt beam="1">  1       11 0.10000000E+01 0.17918637E+03</pdfrwt>
<pdfrwt beam="2">  1        2 0.54548189E-02 0.17460364E+03</pdfrwt>
<totfact> 0.16680875E+03</totfact>
</mgrwt>
</event>
<event>
 5    1  0.6729100E-004  0.2947867E+03  0.7818608E-02  0.1090939E+00
         11   -1    0    0    0    0  0.00000000000E+00  0.00000000000E+00  0.10000883258E+04  0.10000883258E+04  0.51100000000E-03 0.  1.
          2   -1    0    0  501    0 -0.00000000000E+00 -0.00000000000E+00 -0.48882122656E+03  0.48882122656E+03  0.25500000000E-02 0.  1.
         11    1    1    2    0    0  0.10345564250E+02 -0.28213114450E+03  0.88846390707E+03  0.93224091713E+03  0.51100000000E-03 0.  1.
         22    1    1    2    0    0 -0.10384703052E+02 -0.67427494749E+01  0.44123170664E+02  0.45827512669E+02  0.00000000000E+00 0. -1.
          2    1    1    2  501    0  0.39138802569E-01  0.28887389398E+03 -0.42131997853E+03  0.51084112253E+03  0.25500000000E-02 0.  1.
<mgrwt>
<rscale>  0 0.28887390E+03</rscale>
<asrwt>0</asrwt>
<pdfrwt beam="1">  1       11 0.10000000E+01 0.29478670E+03</pdfrwt>
<pdfrwt beam="2">  1        2 0.75209906E-01 0.28887390E+03</pdfrwt>
<totfact> 0.79445291E+01</totfact>
</mgrwt>
</event>
<event>
 5    1  0.6729100E-004  0.5366628E+02  0.7818608E-02  0.1551337E+00
         11   -1    0    0    0    0  0.00000000000E+00  0.00000000000E+00  0.10005013531E+04  0.10005013531E+04  0.51100000000E-03 0. -1.
          2   -1    0    0  501    0 -0.00000000000E+00 -0.00000000000E+00 -0.57698255388E+01  0.57698261023E+01  0.25500000000E-02 0. -1.
         11    1    1    2    0    0  0.55926108580E+02 -0.35300014147E+02  0.30454531069E+03  0.31164349325E+03  0.51100000000E-03 0. -1.
         22    1    1    2    0    0 -0.75808448307E+01  0.21108551530E+02  0.11033540806E+03  0.11259192879E+03  0.00000000000E+00 0. -1.
          2    1    1    2  501    0 -0.48345263749E+02  0.14191462616E+02  0.57985080885E+03  0.58203575720E+03  0.25500000000E-02 0. -1.
<mgrwt>
<rscale>  0 0.34693755E+02</rscale>
<asrwt>0</asrwt>
<pdfrwt beam="1">  1       11 0.10000000E+01 0.53666283E+02</pdfrwt>
<pdfrwt beam="2">  1        2 0.88811052E-03 0.34693755E+02</pdfrwt>
<totfact> 0.15042583E+04</totfact>
</mgrwt>
</event>
<event>
 5    1  0.6729100E-004  0.4158075E+03  0.7818608E-02  0.1038440E+00
         11   -1    0    0    0    0  0.00000000000E+00  0.00000000000E+00  0.10001702485E+04  0.10001702485E+04  0.51100000000E-03 0.  1.
          2   -1    0    0  501    0 -0.00000000000E+00 -0.00000000000E+00 -0.26167775433E+03  0.26167775434E+03  0.25500000000E-02 0.  1.
         11    1    1    2    0    0 -0.39100920152E+03  0.12765551658E+03  0.62657842401E+03  0.74952294696E+03  0.51100000000E-03 0.  1.
         22    1    1    2    0    0 -0.15465422770E+02 -0.31867124780E+02  0.87045363573E+02  0.93976530382E+02  0.00000000000E+00 0. -1.
          2    1    1    2  501    0  0.40647462429E+03 -0.95788391799E+02  0.24868706559E+02  0.41834852547E+03  0.25500000000E-02 0.  1.
<mgrwt>
<rscale>  0 0.41580751E+03</rscale>
<asrwt>0</asrwt>
<pdfrwt beam="1">  1       11 0.10000000E+01 0.35421645E+02</pdfrwt>
<pdfrwt beam="2">  1        2 0.40264969E-01 0.41580751E+03</pdfrwt>
<totfact> 0.15764717E+02</totfact>
</mgrwt>
</event>
<event>
 5    1  0.6729100E-004  0.1477649E+04  0.7818608E-02  0.8899454E-01
         11   -1    0    0    0    0  0.00000000000E+00  0.00000000000E+00  0.10008266005E+04  0.10008266005E+04  0.51100000000E-03 0. -1.
          2   -1    0    0  501    0 -0.00000000000E+00 -0.00000000000E+00 -0.26241009136E+04  0.26241009136E+04  0.25500000000E-02 0. -1.
         11    1    1    2    0    0 -0.98416252930E+02  0.14929691761E+04 -0.49647219027E+03  0.15764286712E+04  0.51100000000E-03 0. -1.
         22    1    1    2    0    0  0.29557475749E+02 -0.28496223785E+02  0.11818433125E+03  0.12511281028E+03  0.00000000000E+00 0. -1.
          2    1    1    2  501    0  0.68858777181E+02 -0.14644729524E+04 -0.12449864540E+04  0.19233860325E+04  0.25500000000E-02 0. -1.
<mgrwt>
<rscale>  0 0.14776487E+04</rscale>
<asrwt>0</asrwt>
<pdfrwt beam="1">  1       11 0.10000000E+01 0.41057023E+02</pdfrwt>
<pdfrwt beam="2">  1        2 0.40404153E+00 0.14776487E+04</pdfrwt>
<totfact> 0.35128921E+00</totfact>
</mgrwt>
</event>
<event>
 5    1  0.6729100E-004  0.1517050E+03  0.7818608E-02  0.1198393E+00
         11   -1    0    0    0    0  0.00000000000E+00  0.00000000000E+00  0.10001279269E+04  0.10001279269E+04  0.51100000000E-03 0.  1.
          2   -1    0    0  501    0 -0.00000000000E+00 -0.00000000000E+00 -0.42809903846E+02  0.42809903922E+02  0.25500000000E-02 0.  1.
         11    1    1    2    0    0 -0.14485972259E+03 -0.50850960594E+02  0.72340819090E+03  0.73951982400E+03  0.51100000000E-03 0.  1.
         22    1    1    2    0    0 -0.47358519575E+01  0.25667966737E+02  0.92207317514E+02  0.95830382516E+02  0.00000000000E+00 0.  1.
          2    1    1    2  501    0  0.14959557455E+03  0.25182993857E+02  0.14170251464E+03  0.20758762431E+03  0.25500000000E-02 0.  1.
<mgrwt>
<rscale>  0 0.15170498E+03</rscale>
<asrwt>0</asrwt>
<pdfrwt beam="1">  1       11 0.10000000E+01 0.26101203E+02</pdfrwt>
<pdfrwt beam="2">  1        2 0.65869814E-02 0.15170498E+03</pdfrwt>
<totfact> 0.12936423E+03</totfact>
</mgrwt>
</event>
<event>
 5    1  0.6729100E-004  0.2212028E+03  0.7818608E-02  0.1220044E+00
         11   -1    0    0    0    0  0.00000000000E+00  0.00000000000E+00  0.10004950060E+04  0.10004950060E+04  0.51100000000E-03 0. -1.
          2   -1    0    0  501    0 -0.00000000000E+00 -0.00000000000E+00 -0.52613353159E+03  0.52613353160E+03  0.25500000000E-02 0. -1.
         11    1    1    2    0    0  0.10116092941E+03  0.26112522711E+03  0.17289368396E+03  0.32910810355E+03  0.51100000000E-03 0. -1.
         22    1    1    2    0    0  0.25174048413E+02 -0.21318721989E+03  0.72334766134E+03  0.75452923244E+03  0.00000000000E+00 0. -1.
          2    1    1    2  501    0 -0.12633497782E+03 -0.47938007220E+02 -0.42187987094E+03  0.44299120157E+03  0.25500000000E-02 0. -1.
<mgrwt>
<rscale>  0 0.13512431E+03</rscale>
<asrwt>0</asrwt>
<pdfrwt beam="1">  1       11 0.10000000E+01 0.22120280E+03</pdfrwt>
<pdfrwt beam="2">  1        2 0.80983686E-01 0.13512431E+03</pdfrwt>
<totfact> 0.74052113E+01</totfact>
</mgrwt>
</event>
<event>
 5    1  0.6729100E-004  0.1211480E+03  0.7818608E-02  0.1241215E+00
         11   -1    0    0    0    0  0.00000000000E+00  0.00000000000E+00  0.10006795492E+04  0.10006795492E+04  0.51100000000E-03 0. -1.
          2   -1    0    0  501    0 -0.00000000000E+00 -0.00000000000E+00 -0.29829615624E+02  0.29829615733E+02  0.25500000000E-02 0. -1.
         11    1    1    2    0    0  0.65547720391E+02 -0.10040299078E+03  0.12922798892E+03  0.17628708781E+03  0.51100000000E-03 0. -1.
         22    1    1    2    0    0  0.17819464128E+02  0.31732890230E+01  0.10511225119E+03  0.10665921627E+03  0.00000000000E+00 0.  1.
          2    1    1    2  501    0 -0.83367184519E+02  0.97229701760E+02  0.73650969344E+03  0.74756286083E+03  0.25500000000E-02 0. -1.
<mgrwt>
<rscale>  0 0.12114798E+03</rscale>
<asrwt>0</asrwt>
<pdfrwt beam="1">  1       11 0.10000000E+01 0.18099808E+02</pdfrwt>
<pdfrwt beam="2">  1        2 0.45922901E-02 0.12114798E+03</pdfrwt>
<totfact> 0.20283434E+03</totfact>
</mgrwt>
</event>
<event>
 5    1  0.6729100E-004  0.1260100E+03  0.7818608E-02  0.1571615E+00
         11   -1    0    0    0    0  0.00000000000E+00  0.00000000000E+00  0.10001811870E+04  0.10001811870E+04  0.51100000000E-03 0. -1.
          2   -1    0    0  501    0 -0.00000000000E+00 -0.00000000000E+00 -0.64723612404E+02  0.64723612455E+02  0.25500000000E-02 0. -1.
         11    1    1    2    0    0 -0.37156918941E+01  0.11501630620E+03  0.41369876927E+03  0.42940566922E+03  0.51100000000E-03 0. -1.
         22    1    1    2    0    0 -0.20028376161E+02 -0.13726396912E+03  0.56477592717E+03  0.58156201817E+03  0.00000000000E+00 0. -1.
          2    1    1    2  501    0  0.23744068055E+02  0.22247662921E+02 -0.43017121878E+02  0.53937112033E+02  0.25500000000E-02 0. -1.
<mgrwt>
<rscale>  0 0.32538274E+02</rscale>
<asrwt>0</asrwt>
<pdfrwt beam="1">  1       11 0.10000000E+01 0.12601004E+03</pdfrwt>
<pdfrwt beam="2">  1        2 0.99592827E-02 0.32538274E+02</pdfrwt>
<totfact> 0.69173196E+02</totfact>
</mgrwt>
</event>
<event>
 5    1  0.6729100E-004  0.1474141E+03  0.7818608E-02  0.1203687E+00
         11   -1    0    0    0    0  0.00000000000E+00  0.00000000000E+00  0.10001705824E+04  0.10001705824E+04  0.51100000000E-03 0. -1.
          2   -1    0    0  501    0 -0.00000000000E+00 -0.00000000000E+00 -0.47214194872E+02  0.47214194940E+02  0.25500000000E-02 0. -1.
         11    1    1    2    0    0  0.59133123669E+02 -0.14324656700E+03  0.71491093783E+03  0.73151483532E+03  0.51100000000E-03 0. -1.
         22    1    1    2    0    0 -0.23063715631E+02  0.15713156966E+01  0.13510739928E+03  0.13707083334E+03  0.00000000000E+00 0. -1.
          2    1    1    2  501    0 -0.36069408039E+02  0.14167525130E+03  0.10293805038E+03  0.17879910864E+03  0.25500000000E-02 0. -1.
<mgrwt>
<rscale>  0 0.14741408E+03</rscale>
<asrwt>0</asrwt>
<pdfrwt beam="1">  1       11 0.10000000E+01 0.23117180E+02</pdfrwt>
<pdfrwt beam="2">  1        2 0.72649611E-02 0.14741408E+03</pdfrwt>
<totfact> 0.11394074E+03</totfact>
</mgrwt>
</event>
<event>
 5    1  0.6729100E-004  0.4504779E+03  0.7818608E-02  0.1027580E+00
         11   -1    0    0    0    0  0.00000000000E+00  0.00000000000E+00  0.10002391544E+04  0.10002391544E+04  0.51100000000E-03 0. -1.
          2   -1    0    0  501    0 -0.00000000000E+00 -0.00000000000E+00 -0.97557451648E+03  0.97557451649E+03  0.25500000000E-02 0. -1.
         11    1    1    2    0    0  0.11105897278E+02  0.44352910332E+03  0.82947990021E+03  0.94067970708E+03  0.51100000000E-03 0. -1.
         22    1    1    2    0    0  0.23603553415E+02  0.60726422966E+01  0.57265608010E+02  0.62236280248E+02  0.00000000000E+00 0. -1.
          2    1    1    2  501    0 -0.34709450693E+02 -0.44960174562E+03 -0.86208087033E+03  0.97289768354E+03  0.25500000000E-02 0. -1.
<mgrwt>
<rscale>  0 0.45047786E+03</rscale>
<asrwt>0</asrwt>
<pdfrwt beam="1">  1       11 0.10000000E+01 0.24372212E+02</pdfrwt>
<pdfrwt beam="2">  1        2 0.15012428E+00 0.45047786E+03</pdfrwt>
<totfact> 0.33214307E+01</totfact>
</mgrwt>
</event>
<event>
 5    1  0.6729100E-004  0.9967709E+02  0.7818608E-02  0.1400112E+00
         11   -1    0    0    0    0  0.00000000000E+00  0.00000000000E+00  0.99979085298E+03  0.99979085298E+03  0.51100000000E-03 0. -1.
          2   -1    0    0  501    0 -0.00000000000E+00 -0.00000000000E+00 -0.29004499289E+03  0.29004499290E+03  0.25500000000E-02 0.  1.
         11    1    1    2    0    0  0.93898507774E+02  0.17223422402E+02  0.54031852487E+03  0.54868723728E+03  0.51100000000E-03 0. -1.
         22    1    1    2    0    0 -0.11000058882E+03  0.40014825590E+02  0.44453553236E+03  0.45968810659E+03  0.00000000000E+00 0. -1.
          2    1    1    2  501    0  0.16102081042E+02 -0.57238247991E+02 -0.27510819714E+03  0.28146050200E+03  0.25500000000E-02 0.  1.
<mgrwt>
<rscale>  0 0.59460021E+02</rscale>
<asrwt>0</asrwt>
<pdfrwt beam="1">  1       11 0.10000000E+01 0.99677087E+02</pdfrwt>
<pdfrwt beam="2">  1        2 0.44612973E-01 0.59460021E+02</pdfrwt>
<totfact> 0.13940902E+02</totfact>
</mgrwt>
</event>
<event>
 5    1  0.6729100E-004  0.2020551E+03  0.7818608E-02  0.1161920E+00
         11   -1    0    0    0    0  0.00000000000E+00  0.00000000000E+00  0.10001014026E+04  0.10001014026E+04  0.51100000000E-03 0. -1.
          2   -1    0    0  501    0 -0.00000000000E+00 -0.00000000000E+00 -0.10873704141E+03  0.10873704144E+03  0.25500000000E-02 0.  1.
         11    1    1    2    0    0 -0.90499656947E+02  0.10336111406E+03  0.60042066591E+03  0.61593724020E+03  0.51100000000E-03 0. -1.
         22    1    1    2    0    0 -0.64599016476E+02 -0.30497516587E+00  0.29959937885E+03  0.30648476920E+03  0.00000000000E+00 0.  1.
          2    1    1    2  501    0  0.15509867342E+03 -0.10305613889E+03 -0.86556835301E+01  0.18641643470E+03  0.25500000000E-02 0.  1.
<mgrwt>
<rscale>  0 0.18621538E+03</rscale>
<asrwt>0</asrwt>
<pdfrwt beam="1">  1       11 0.10000000E+01 0.20205515E+03</pdfrwt>
<pdfrwt beam="2">  1        2 0.16730471E-01 0.18621538E+03</pdfrwt>
<totfact> 0.41686379E+02</totfact>
</mgrwt>
</event>
<event>
 5    1  0.6729100E-004  0.7676870E+02  0.7818608E-02  0.1338480E+00
         11   -1    0    0    0    0  0.00000000000E+00  0.00000000000E+00  0.10001962999E+04  0.10001962999E+04  0.51100000000E-03 0. -1.
          2   -1    0    0  501    0 -0.00000000000E+00 -0.00000000000E+00 -0.68761302953E+02  0.68761303000E+02  0.25500000000E-02 0.  1.
         11    1    1    2    0    0  0.93674033857E+02  0.36166206010E+02  0.58633236568E+03  0.59486844101E+03  0.51100000000E-03 0. -1.
         22    1    1    2    0    0 -0.63929147927E+02  0.34867886666E+02  0.38187061450E+03  0.38875168385E+03  0.00000000000E+00 0. -1.
          2    1    1    2  501    0 -0.29744885931E+02 -0.71034092676E+02 -0.36767983226E+02  0.85337478041E+02  0.25500000000E-02 0.  1.
<mgrwt>
<rscale>  0 0.76768703E+02</rscale>
<asrwt>0</asrwt>
<pdfrwt beam="1">  1       11 0.10000000E+01 0.72819678E+02</pdfrwt>
<pdfrwt beam="2">  1        2 0.10580738E-01 0.76768703E+02</pdfrwt>
<totfact> 0.68641036E+02</totfact>
</mgrwt>
</event>
<event>
 5    1  0.6729100E-004  0.1033182E+03  0.7818608E-02  0.1729159E+00
         11   -1    0    0    0    0  0.00000000000E+00  0.00000000000E+00  0.10003424785E+04  0.10003424785E+04  0.51100000000E-03 0. -1.
          2   -1    0    0  501    0 -0.00000000000E+00 -0.00000000000E+00 -0.13502031780E+02  0.13502032021E+02  0.25500000000E-02 0. -1.
         11    1    1    2    0    0 -0.62738031226E+02  0.86651997482E+02  0.49508008035E+03  0.50650657961E+03  0.51100000000E-03 0. -1.
         22    1    1    2    0    0  0.42418979952E+02 -0.91273558452E+02  0.44338708149E+03  0.45466728095E+03  0.00000000000E+00 0. -1.
          2    1    1    2  501    0  0.20319051275E+02  0.46215609703E+01  0.48373284852E+02  0.52670649933E+02  0.25500000000E-02 0. -1.
<mgrwt>
<rscale>  0 0.20838010E+02</rscale>
<asrwt>0</asrwt>
<pdfrwt beam="1">  1       11 0.10000000E+01 0.10331817E+03</pdfrwt>
<pdfrwt beam="2">  1        2 0.20779470E-02 0.20838010E+02</pdfrwt>
<totfact> 0.44930954E+03</totfact>
</mgrwt>
</event>
<event>
 5    1  0.6729100E-004  0.1057196E+03  0.7818608E-02  0.1603962E+00
         11   -1    0    0    0    0  0.00000000000E+00  0.00000000000E+00  0.99962997099E+03  0.99962997099E+03  0.51100000000E-03 0.  1.
          2   -1    0    0  501    0 -0.00000000000E+00 -0.00000000000E+00 -0.11611086586E+04  0.11611086586E+04  0.25500000000E-02 0. -1.
         11    1    1    2    0    0  0.12245793493E+03 -0.12274250098E+02  0.47445186686E+03  0.49015423799E+03  0.51100000000E-03 0.  1.
         22    1    1    2    0    0 -0.96090827691E+02 -0.90039651647E+00  0.51267373341E+03  0.52160196972E+03  0.00000000000E+00 0.  1.
          2    1    1    2  501    0 -0.26367107243E+02  0.13174646615E+02 -0.11486042879E+04  0.11489824219E+04  0.25500000000E-02 0. -1.
<mgrwt>
<rscale>  0 0.29475340E+02</rscale>
<asrwt>0</asrwt>
<pdfrwt beam="1">  1       11 0.10000000E+01 0.10571957E+03</pdfrwt>
<pdfrwt beam="2">  1        2 0.17856600E+00 0.29475340E+02</pdfrwt>
<totfact> 0.30218798E+01</totfact>
</mgrwt>
</event>
<event>
 5    1  0.6729100E-004  0.1748619E+03  0.7818608E-02  0.1172870E+00
         11   -1    0    0    0    0  0.00000000000E+00  0.00000000000E+00  0.10000550990E+04  0.10000550990E+04  0.51100000000E-03 0. -1.
          2   -1    0    0  501    0 -0.00000000000E+00 -0.00000000000E+00 -0.29660129485E+02  0.29660129594E+02  0.25500000000E-02 0. -1.
         11    1    1    2    0    0 -0.50483317602E+02 -0.15812507226E+03  0.54706347495E+03  0.57169095625E+03  0.51100000000E-03 0. -1.
         22    1    1    2    0    0  0.11244267652E+02  0.11515693071E+03  0.30362904213E+03  0.32492791119E+03  0.00000000000E+00 0. -1.
          2    1    1    2  501    0  0.39239049950E+02  0.42968141542E+02  0.11970245249E+03  0.13309636121E+03  0.25500000000E-02 0. -1.
<mgrwt>
<rscale>  0 0.17486189E+03</rscale>
<asrwt>0</asrwt>
<pdfrwt beam="1">  1       11 0.10000000E+01 0.16598826E+03</pdfrwt>
<pdfrwt beam="2">  1        2 0.45633481E-02 0.17486189E+03</pdfrwt>
<totfact> 0.21094532E+03</totfact>
</mgrwt>
</event>
<event>
 5    1  0.6729100E-004  0.1794213E+03  0.7818608E-02  0.1168364E+00
         11   -1    0    0    0    0  0.00000000000E+00  0.00000000000E+00  0.10001573500E+04  0.10001573500E+04  0.51100000000E-03 0.  1.
          2   -1    0    0  501    0 -0.00000000000E+00 -0.00000000000E+00 -0.51318613554E+02  0.51318613617E+02  0.25500000000E-02 0.  1.
         11    1    1    2    0    0  0.91649214809E+02  0.15011395568E+03  0.23248300166E+03  0.29151693660E+03  0.51100000000E-03 0.  1.
         22    1    1    2    0    0  0.54590968928E+02 -0.23340447926E+02  0.14369219431E+03  0.15547474748E+03  0.00000000000E+00 0.  1.
          2    1    1    2  501    0 -0.14624018374E+03 -0.12677350775E+03  0.57266354045E+03  0.60448427951E+03  0.25500000000E-02 0.  1.
<mgrwt>
<rscale>  0 0.17942129E+03</rscale>
<asrwt>0</asrwt>
<pdfrwt beam="1">  1       11 0.10000000E+01 0.59371293E+02</pdfrwt>
<pdfrwt beam="2">  1        2 0.78964134E-02 0.17942129E+03</pdfrwt>
<totfact> 0.10380234E+03</totfact>
</mgrwt>
</event>
<event>
 5    1  0.6729100E-004  0.3224174E+03  0.7818608E-02  0.1074542E+00
         11   -1    0    0    0    0  0.00000000000E+00  0.00000000000E+00  0.10003508107E+04  0.10003508107E+04  0.51100000000E-03 0. -1.
          2   -1    0    0  501    0 -0.00000000000E+00 -0.00000000000E+00 -0.60284207734E+03  0.60284207735E+03  0.25500000000E-02 0.  1.
         11    1    1    2    0    0 -0.19767935004E+03 -0.22592328729E+03  0.59349188812E+03  0.66509478906E+03  0.51100000000E-03 0. -1.
         22    1    1    2    0    0 -0.61526933905E+02  0.30682141070E+02  0.32068522958E+03  0.32797251996E+03  0.00000000000E+00 0.  1.
          2    1    1    2  501    0  0.25920628394E+03  0.19524114622E+03 -0.51666838434E+03  0.61012557904E+03  0.25500000000E-02 0.  1.
<mgrwt>
<rscale>  0 0.32241739E+03</rscale>
<asrwt>0</asrwt>
<pdfrwt beam="1">  1       11 0.10000000E+01 0.68752872E+02</pdfrwt>
<pdfrwt beam="2">  1        2 0.92777468E-01 0.32241739E+03</pdfrwt>
<totfact> 0.62298289E+01</totfact>
</mgrwt>
</event>
<event>
 5    1  0.6729100E-004  0.4182467E+02  0.7818608E-02  0.1543178E+00
         11   -1    0    0    0    0  0.00000000000E+00  0.00000000000E+00  0.99984056360E+03  0.99984056360E+03  0.51100000000E-03 0.  1.
          2   -1    0    0  501    0 -0.00000000000E+00 -0.00000000000E+00 -0.44923979396E+01  0.44923986633E+01  0.25500000000E-02 0.  1.
         11    1    1    2    0    0 -0.99363628078E+01 -0.29641337443E+02  0.12278644561E+03  0.12670379401E+03  0.51100000000E-03 0.  1.
         22    1    1    2    0    0 -0.30181936053E+02  0.30219207920E+01  0.12932438400E+03  0.13283402263E+03  0.00000000000E+00 0. -1.
          2    1    1    2  501    0  0.40118298860E+02  0.26619416651E+02  0.74323733604E+03  0.74479514562E+03  0.25500000000E-02 0.  1.
<mgrwt>
<rscale>  0 0.35618261E+02</rscale>
<asrwt>0</asrwt>
<pdfrwt beam="1">  1       11 0.10000000E+01 0.41824672E+02</pdfrwt>
<pdfrwt beam="2">  1        2 0.69102799E-03 0.35618261E+02</pdfrwt>
<totfact> 0.21119260E+04</totfact>
</mgrwt>
</event>
<event>
 5    1  0.6729100E-004  0.1353434E+03  0.7818608E-02  0.1219736E+00
         11   -1    0    0    0    0  0.00000000000E+00  0.00000000000E+00  0.99995054695E+03  0.99995054695E+03  0.51100000000E-03 0. -1.
         -2   -1    0    0    0  501 -0.00000000000E+00 -0.00000000000E+00 -0.23381487259E+02  0.23381487398E+02  0.25500000000E-02 0.  1.
         11    1    1    2    0    0 -0.26850672320E+02 -0.12744104714E+03  0.73484496296E+03  0.74629705794E+03  0.51100000000E-03 0. -1.
         22    1    1    2    0    0  0.30279545128E+01  0.17669974450E+02  0.66698567438E+02  0.69065877276E+02  0.00000000000E+00 0. -1.
         -2    1    1    2    0  501  0.23822717807E+02  0.10977107269E+03  0.17502552929E+03  0.20796909913E+03  0.25500000000E-02 0.  1.
<mgrwt>
<rscale>  0 0.13534341E+03</rscale>
<asrwt>0</asrwt>
<pdfrwt beam="1">  1       11 0.10000000E+01 0.13023893E+03</pdfrwt>
<pdfrwt beam="2">  1       -2 0.35969739E-02 0.13534341E+03</pdfrwt>
<totfact> 0.24124750E+03</totfact>
</mgrwt>
</event>
<event>
 5    1  0.6729100E-004  0.3348521E+03  0.7818608E-02  0.1069010E+00
         11   -1    0    0    0    0  0.00000000000E+00  0.00000000000E+00  0.10010449243E+04  0.10010449243E+04  0.51100000000E-03 0. -1.
          2   -1    0    0  501    0 -0.00000000000E+00 -0.00000000000E+00 -0.12841687413E+04  0.12841687413E+04  0.25500000000E-02 0.  1.
         11    1    1    2    0    0 -0.24060261297E+03 -0.27368140492E+03  0.49258280380E+03  0.61272256965E+03  0.51100000000E-03 0. -1.
         22    1    1    2    0    0 -0.53595147384E+02  0.11445993389E+03  0.41597307442E+03  0.43474948526E+03  0.00000000000E+00 0.  1.
          2    1    1    2  501    0  0.29419776035E+03  0.15922147103E+03 -0.11916796952E+04  0.12377416108E+04  0.25500000000E-02 0.  1.
<mgrwt>
<rscale>  0 0.33485213E+03</rscale>
<asrwt>0</asrwt>
<pdfrwt beam="1">  1       11 0.10000000E+01 0.12638638E+03</pdfrwt>
<pdfrwt beam="2">  1        2 0.19777086E+00 0.33485213E+03</pdfrwt>
<totfact> 0.22103613E+01</totfact>
</mgrwt>
</event>
<event>
 5    1  0.6729100E-004  0.2508613E+03  0.7818608E-02  0.1112762E+00
         11   -1    0    0    0    0  0.00000000000E+00  0.00000000000E+00  0.99989208370E+03  0.99989208370E+03  0.51100000000E-03 0. -1.
          2   -1    0    0  501    0 -0.00000000000E+00 -0.00000000000E+00 -0.88678692483E+02  0.88678692520E+02  0.25500000000E-02 0. -1.
         11    1    1    2    0    0 -0.50539839597E+02 -0.24942747587E+03  0.57889289359E+03  0.63236486568E+03  0.51100000000E-03 0. -1.
         22    1    1    2    0    0 -0.29841472397E+02  0.12789697314E+02  0.13194178101E+03  0.13587760451E+03  0.00000000000E+00 0.  1.
          2    1    1    2  501    0  0.80381311995E+02  0.23663777856E+03  0.20037871662E+03  0.32032830602E+03  0.25500000000E-02 0. -1.
<mgrwt>
<rscale>  0 0.25086127E+03</rscale>
<asrwt>0</asrwt>
<pdfrwt beam="1">  1       11 0.10000000E+01 0.32466750E+02</pdfrwt>
<pdfrwt beam="2">  1        2 0.13641403E-01 0.25086127E+03</pdfrwt>
<totfact> 0.53677937E+02</totfact>
</mgrwt>
</event>
<event>
 5    1  0.6729100E-004  0.1235921E+03  0.7818608E-02  0.1237286E+00
         11   -1    0    0    0    0  0.00000000000E+00  0.00000000000E+00  0.10003575315E+04  0.10003575315E+04  0.51100000000E-03 0.  1.
          2   -1    0    0  501    0 -0.00000000000E+00 -0.00000000000E+00 -0.20090293701E+02  0.20090293863E+02  0.25500000000E-02 0.  1.
         11    1    1    2    0    0 -0.76748960354E+01 -0.12608910476E+03  0.43506544964E+03  0.45303345554E+03  0.51100000000E-03 0.  1.
         22    1    1    2    0    0 -0.30184291511E+02  0.90362646432E+01  0.15899535527E+03  0.16208722507E+03  0.00000000000E+00 0. -1.
          2    1    1    2  501    0  0.37859187546E+02  0.11705284012E+03  0.38620643285E+03  0.40532714471E+03  0.25500000000E-02 0.  1.
<mgrwt>
<rscale>  0 0.12359212E+03</rscale>
<asrwt>0</asrwt>
<pdfrwt beam="1">  1       11 0.10000000E+01 0.31507865E+02</pdfrwt>
<pdfrwt beam="2">  1        2 0.30919194E-02 0.12359212E+03</pdfrwt>
<totfact> 0.34315903E+03</totfact>
</mgrwt>
</event>
<event>
 5    1  0.6729100E-004  0.8955380E+02  0.7818608E-02  0.1482065E+00
         11   -1    0    0    0    0  0.00000000000E+00  0.00000000000E+00  0.10000666346E+04  0.10000666346E+04  0.51100000000E-03 0.  1.
         -2   -1    0    0    0  501 -0.00000000000E+00 -0.00000000000E+00 -0.56906578311E+02  0.56906578368E+02  0.25500000000E-02 0. -1.
         11    1    1    2    0    0  0.40467685669E+02  0.10564169685E+03  0.62609049530E+03  0.63622881890E+03  0.51100000000E-03 0.  1.
         22    1    1    2    0    0 -0.38737044682E+02 -0.61889739628E+02  0.35523438269E+03  0.36266012346E+03  0.00000000000E+00 0.  1.
         -2    1    1    2    0  501 -0.17306409875E+01 -0.43751957220E+02 -0.38164821655E+02  0.58084270653E+02  0.25500000000E-02 0. -1.
<mgrwt>
<rscale>  0 0.43786172E+02</rscale>
<asrwt>0</asrwt>
<pdfrwt beam="1">  1       11 0.10000000E+01 0.89553801E+02</pdfrwt>
<pdfrwt beam="2">  1       -2 0.87554413E-02 0.43786172E+02</pdfrwt>
<totfact> 0.57527626E+02</totfact>
</mgrwt>
</event>
<event>
 5    1  0.6729100E-004  0.7810315E+02  0.7818608E-02  0.1336323E+00
         11   -1    0    0    0    0  0.00000000000E+00  0.00000000000E+00  0.10004615587E+04  0.10004615587E+04  0.51100000000E-03 0. -1.
          2   -1    0    0  501    0 -0.00000000000E+00 -0.00000000000E+00 -0.23075844859E+02  0.23075845000E+02  0.25500000000E-02 0. -1.
         11    1    1    2    0    0 -0.10117798769E+03 -0.72077072371E+01  0.14812080022E+03  0.17952355749E+03  0.51100000000E-03 0. -1.
         22    1    1    2    0    0  0.47564452966E+02  0.63159364957E+02  0.38389570747E+03  0.39195330944E+03  0.00000000000E+00 0. -1.
          2    1    1    2  501    0  0.53613534727E+02 -0.55951657720E+02  0.44536920619E+03  0.45206053681E+03  0.25500000000E-02 0. -1.
<mgrwt>
<rscale>  0 0.77491929E+02</rscale>
<asrwt>0</asrwt>
<pdfrwt beam="1">  1       11 0.10000000E+01 0.78103147E+02</pdfrwt>
<pdfrwt beam="2">  1        2 0.35517685E-02 0.77491929E+02</pdfrwt>
<totfact> 0.27178038E+03</totfact>
</mgrwt>
</event>
<event>
 5    1  0.6729100E-004  0.9908643E+02  0.7818608E-02  0.1282229E+00
         11   -1    0    0    0    0  0.00000000000E+00  0.00000000000E+00  0.10001052631E+04  0.10001052631E+04  0.51100000000E-03 0.  1.
          2   -1    0    0  501    0 -0.00000000000E+00 -0.00000000000E+00 -0.10438109154E+02  0.10438109465E+02  0.25500000000E-02 0.  1.
         11    1    1    2    0    0  0.20132961120E+02 -0.94774388203E+02  0.34661651507E+03  0.35990349999E+03  0.51100000000E-03 0.  1.
         22    1    1    2    0    0 -0.64002893080E+01  0.23838722125E+02  0.11138051305E+03  0.11408272026E+03  0.00000000000E+00 0. -1.
          2    1    1    2  501    0 -0.13732671812E+02  0.70935666078E+02  0.53167012581E+03  0.53655715230E+03  0.25500000000E-02 0.  1.
<mgrwt>
<rscale>  0 0.99086425E+02</rscale>
<asrwt>0</asrwt>
<pdfrwt beam="1">  1       11 0.10000000E+01 0.96889268E+02</pdfrwt>
<pdfrwt beam="2">  1        2 0.16060320E-02 0.99086425E+02</pdfrwt>
<totfact> 0.80980387E+03</totfact>
</mgrwt>
</event>
<event>
 5    1  0.6729100E-004  0.1031127E+03  0.7818608E-02  0.1459755E+00
         11   -1    0    0    0    0  0.00000000000E+00  0.00000000000E+00  0.10003830309E+04  0.10003830309E+04  0.51100000000E-03 0.  1.
          2   -1    0    0  501    0 -0.00000000000E+00 -0.00000000000E+00 -0.33089592560E+03  0.33089592561E+03  0.25500000000E-02 0.  1.
         11    1    1    2    0    0  0.10544101960E+03  0.39401033789E+02  0.39982382839E+03  0.41536651746E+03  0.51100000000E-03 0.  1.
         22    1    1    2    0    0 -0.10117509928E+03  0.78303279215E+01  0.58666816207E+03  0.59537991832E+03  0.00000000000E+00 0.  1.
          2    1    1    2  501    0 -0.42659203215E+01 -0.47231361710E+02 -0.31700488517E+03  0.32053252071E+03  0.25500000000E-02 0.  1.
<mgrwt>
<rscale>  0 0.47423619E+02</rscale>
<asrwt>0</asrwt>
<pdfrwt beam="1">  1       11 0.10000000E+01 0.10311272E+03</pdfrwt>
<pdfrwt beam="2">  1        2 0.50926563E-01 0.47423619E+02</pdfrwt>
<totfact> 0.12148295E+02</totfact>
</mgrwt>
</event>
<event>
 5    1  0.6729100E-004  0.1440297E+03  0.7818608E-02  0.1208007E+00
         11   -1    0    0    0    0  0.00000000000E+00  0.00000000000E+00  0.10004653874E+04  0.10004653874E+04  0.51100000000E-03 0. -1.
          2   -1    0    0  501    0 -0.00000000000E+00 -0.00000000000E+00 -0.12140513790E+03  0.12140513792E+03  0.25500000000E-02 0. -1.
         11    1    1    2    0    0  0.15244130608E+03 -0.23338350442E+02  0.85674893997E+03  0.87051810810E+03  0.51100000000E-03 0. -1.
         22    1    1    2    0    0 -0.10021500904E+02  0.43261548368E+02  0.83888239785E+02  0.94916957504E+02  0.00000000000E+00 0. -1.
          2    1    1    2  501    0 -0.14241980517E+03 -0.19923197926E+02 -0.61576930228E+02  0.15643545974E+03  0.25500000000E-02 0. -1.
<mgrwt>
<rscale>  0 0.14402966E+03</rscale>
<asrwt>0</asrwt>
<pdfrwt beam="1">  1       11 0.10000000E+01 0.44407117E+02</pdfrwt>
<pdfrwt beam="2">  1        2 0.18686405E-01 0.14402966E+03</pdfrwt>
<totfact> 0.36365256E+02</totfact>
</mgrwt>
</event>
<event>
 5    1  0.6729100E-004  0.1097427E+03  0.7818608E-02  0.1261047E+00
         11   -1    0    0    0    0  0.00000000000E+00  0.00000000000E+00  0.10002014335E+04  0.10002014335E+04  0.51100000000E-03 0.  1.
          2   -1    0    0  501    0 -0.00000000000E+00 -0.00000000000E+00 -0.33350906804E+02  0.33350906901E+02  0.25500000000E-02 0.  1.
         11    1    1    2    0    0 -0.23870271724E+02  0.60719322717E+02  0.35166713872E+02  0.74116960193E+02  0.51100000000E-03 0.  1.
         22    1    1    2    0    0  0.13607890714E+02  0.80351452504E+02  0.45376767205E+03  0.46102779830E+03  0.00000000000E+00 0.  1.
          2    1    1    2  501    0  0.10262381010E+02 -0.14107077522E+03  0.47791614082E+03  0.49840758195E+03  0.25500000000E-02 0.  1.
<mgrwt>
<rscale>  0 0.10974271E+03</rscale>
<asrwt>0</asrwt>
<pdfrwt beam="1">  1       11 0.10000000E+01 0.65242856E+02</pdfrwt>
<pdfrwt beam="2">  1        2 0.51319421E-02 0.10974271E+03</pdfrwt>
<totfact> 0.17403149E+03</totfact>
</mgrwt>
</event>
<event>
 5    1  0.6729100E-004  0.2598250E+03  0.7818608E-02  0.1107248E+00
         11   -1    0    0    0    0  0.00000000000E+00  0.00000000000E+00  0.99996555426E+03  0.99996555426E+03  0.51100000000E-03 0. -1.
          2   -1    0    0  501    0 -0.00000000000E+00 -0.00000000000E+00 -0.33075783718E+03  0.33075783719E+03  0.25500000000E-02 0. -1.
         11    1    1    2    0    0  0.18119863053E+03  0.21780595820E+03  0.80536727210E+03  0.85374985921E+03  0.51100000000E-03 0. -1.
         22    1    1    2    0    0 -0.80801365389E+02  0.20931421015E+02  0.97367329229E+02  0.12824734631E+03  0.00000000000E+00 0. -1.
          2    1    1    2  501    0 -0.10039726514E+03 -0.23873737922E+03 -0.23352688424E+03  0.34872618593E+03  0.25500000000E-02 0. -1.
<mgrwt>
<rscale>  0 0.25982498E+03</rscale>
<asrwt>0</asrwt>
<pdfrwt beam="1">  1       11 0.10000000E+01 0.83468467E+02</pdfrwt>
<pdfrwt beam="2">  1        2 0.50884067E-01 0.25982498E+03</pdfrwt>
<totfact> 0.12211005E+02</totfact>
</mgrwt>
</event>
<event>
 5    1  0.6729100E-004  0.2994960E+03  0.7818608E-02  0.1085493E+00
         11   -1    0    0    0    0  0.00000000000E+00  0.00000000000E+00  0.10001794666E+04  0.10001794666E+04  0.51100000000E-03 0. -1.
          2   -1    0    0  501    0 -0.00000000000E+00 -0.00000000000E+00 -0.14438375220E+03  0.14438375222E+03  0.25500000000E-02 0. -1.
         11    1    1    2    0    0 -0.30120698727E+03  0.99991964958E+01  0.70228134032E+03  0.76421509673E+03  0.51100000000E-03 0. -1.
         22    1    1    2    0    0  0.30785229670E+01  0.13519687940E+02  0.67869401747E+02  0.69271314115E+02  0.00000000000E+00 0.  1.
          2    1    1    2  501    0  0.29812846430E+03 -0.23518884436E+02  0.85644972309E+02  0.31107680795E+03  0.25500000000E-02 0. -1.
<mgrwt>
<rscale>  0 0.29949603E+03</rscale>
<asrwt>0</asrwt>
<pdfrwt beam="1">  1       11 0.10000000E+01 0.13865759E+02</pdfrwt>
<pdfrwt beam="2">  1        2 0.22216871E-01 0.29949603E+03</pdfrwt>
<totfact> 0.30467740E+02</totfact>
</mgrwt>
</event>
<event>
 5    1  0.6729100E-004  0.1542359E+03  0.7818608E-02  0.1416691E+00
         11   -1    0    0    0    0  0.00000000000E+00  0.00000000000E+00  0.10003367509E+04  0.10003367509E+04  0.51100000000E-03 0. -1.
         -2   -1    0    0    0  501 -0.00000000000E+00 -0.00000000000E+00 -0.12009605305E+03  0.12009605308E+03  0.25500000000E-02 0.  1.
         11    1    1    2    0    0  0.26206087785E+02 -0.15414981058E+03  0.43733571859E+03  0.46444747162E+03  0.51100000000E-03 0. -1.
         22    1    1    2    0    0 -0.78821975319E+02  0.13579010526E+03  0.52990023925E+03  0.55267180137E+03  0.00000000000E+00 0. -1.
         -2    1    1    2    0  501  0.52615887534E+02  0.18359705320E+02 -0.86995260032E+02  0.10331353094E+03  0.25500000000E-02 0.  1.
<mgrwt>
<rscale>  0 0.55727107E+02</rscale>
<asrwt>0</asrwt>
<pdfrwt beam="1">  1       11 0.10000000E+01 0.15423592E+03</pdfrwt>
<pdfrwt beam="2">  1       -2 0.18482537E-01 0.55727107E+02</pdfrwt>
<totfact> 0.18165245E+02</totfact>
</mgrwt>
</event>
<event>
 5    1  0.6729100E-004  0.1796786E+03  0.7818608E-02  0.1737745E+00
         11   -1    0    0    0    0  0.00000000000E+00  0.00000000000E+00  0.10001701227E+04  0.10001701227E+04  0.51100000000E-03 0. -1.
         -2   -1    0    0    0  501 -0.00000000000E+00 -0.00000000000E+00 -0.48235779974E+02  0.48235780042E+02  0.25500000000E-02 0. -1.
         11    1    1    2    0    0  0.12855060424E+01 -0.18827159214E+03  0.28263558053E+03  0.33960376369E+03  0.51100000000E-03 0. -1.
         22    1    1    2    0    0  0.14842413203E+02  0.17580123528E+03  0.66494959760E+03  0.68795664028E+03  0.00000000000E+00 0. -1.
         -2    1    1    2    0  501 -0.16127919246E+02  0.12470356864E+02  0.43491645871E+01  0.20845498761E+02  0.25500000000E-02 0. -1.
<mgrwt>
<rscale>  0 0.20386750E+02</rscale>
<asrwt>0</asrwt>
<pdfrwt beam="1">  1       11 0.10000000E+01 0.17967858E+03</pdfrwt>
<pdfrwt beam="2">  1       -2 0.74221515E-02 0.20386750E+02</pdfrwt>
<totfact> 0.67588134E+02</totfact>
</mgrwt>
</event>
<event>
 5    1  0.6729100E-004  0.1693122E+03  0.7818608E-02  0.1178567E+00
         11   -1    0    0    0    0  0.00000000000E+00  0.00000000000E+00  0.99985923396E+03  0.99985923396E+03  0.51100000000E-03 0.  1.
          2   -1    0    0  501    0 -0.00000000000E+00 -0.00000000000E+00 -0.87863884188E+03  0.87863884189E+03  0.25500000000E-02 0.  1.
         11    1    1    2    0    0  0.11505794005E+03 -0.19225579565E+02  0.35405120628E+03  0.37277367013E+03  0.51100000000E-03 0.  1.
         22    1    1    2    0    0 -0.52827185650E+01 -0.11213092234E+03  0.62295320012E+03  0.63298652466E+03  0.00000000000E+00 0.  1.
          2    1    1    2  501    0 -0.10977522149E+03  0.13135650191E+03 -0.85578401432E+03  0.87273788105E+03  0.25500000000E-02 0.  1.
<mgrwt>
<rscale>  0 0.16931224E+03</rscale>
<asrwt>0</asrwt>
<pdfrwt beam="1">  1       11 0.10000000E+01 0.11225529E+03</pdfrwt>
<pdfrwt beam="2">  1        2 0.13515617E+00 0.16931224E+03</pdfrwt>
<totfact> 0.39997521E+01</totfact>
</mgrwt>
</event>
<event>
 5    1  0.6729100E-004  0.4021842E+03  0.7818608E-02  0.1068166E+00
         11   -1    0    0    0    0  0.00000000000E+00  0.00000000000E+00  0.10010019982E+04  0.10010019982E+04  0.51100000000E-03 0.  1.
          2   -1    0    0  501    0 -0.00000000000E+00 -0.00000000000E+00 -0.15407688215E+04  0.15407688215E+04  0.25500000000E-02 0.  1.
         11    1    1    2    0    0  0.34529027703E+03 -0.15315801489E+03  0.89963858349E+02  0.38829917428E+03  0.51100000000E-03 0.  1.
         22    1    1    2    0    0 -0.15170652465E+03  0.42876744581E+03  0.67057034790E+03  0.81025982480E+03  0.00000000000E+00 0.  1.
          2    1    1    2  501    0 -0.19358375238E+03 -0.27560943092E+03 -0.13003010296E+04  0.13432118207E+04  0.25500000000E-02 0.  1.
<mgrwt>
<rscale>  0 0.33680147E+03</rscale>
<asrwt>0</asrwt>
<pdfrwt beam="1">  1       11 0.10000000E+01 0.40218424E+03</pdfrwt>
<pdfrwt beam="2">  1        2 0.23727887E+00 0.33680147E+03</pdfrwt>
<totfact> 0.15974526E+01</totfact>
</mgrwt>
</event>
<event>
 5    1  0.6729100E-004  0.3554504E+03  0.7818608E-02  0.1330302E+00
         11   -1    0    0    0    0  0.00000000000E+00  0.00000000000E+00  0.10001929524E+04  0.10001929524E+04  0.51100000000E-03 0. -1.
          2   -1    0    0  501    0 -0.00000000000E+00 -0.00000000000E+00 -0.20194009800E+04  0.20194009800E+04  0.25500000000E-02 0. -1.
         11    1    1    2    0    0 -0.22651090948E+03  0.30523723013E+03  0.44100614971E+03  0.58220561905E+03  0.51100000000E-03 0. -1.
         22    1    1    2    0    0  0.14695556450E+03 -0.30428139837E+03  0.42922445360E+03  0.54627533250E+03  0.00000000000E+00 0. -1.
          2    1    1    2  501    0  0.79555344988E+02 -0.95583175722E+00 -0.18894386309E+04  0.18911129809E+04  0.25500000000E-02 0. -1.
<mgrwt>
<rscale>  0 0.79561087E+02</rscale>
<asrwt>0</asrwt>
<pdfrwt beam="1">  1       11 0.10000000E+01 0.35545044E+03</pdfrwt>
<pdfrwt beam="2">  1        2 0.31073701E+00 0.79561087E+02</pdfrwt>
<totfact> 0.10345782E+01</totfact>
</mgrwt>
</event>
<event>
 5    1  0.6729100E-004  0.5404230E+02  0.7818608E-02  0.1438696E+00
         11   -1    0    0    0    0  0.00000000000E+00  0.00000000000E+00  0.10001196387E+04  0.10001196387E+04  0.51100000000E-03 0.  1.
          2   -1    0    0  501    0 -0.00000000000E+00 -0.00000000000E+00 -0.38832444345E+01  0.38832452718E+01  0.25500000000E-02 0.  1.
         11    1    1    2    0    0  0.40031890177E+02  0.13879241737E+02  0.18190703865E+03  0.18677621982E+03  0.51100000000E-03 0.  1.
         22    1    1    2    0    0  0.51019632567E+01  0.10407400667E+02  0.57087460274E+02  0.58252228612E+02  0.00000000000E+00 0.  1.
          2    1    1    2  501    0 -0.45133853434E+02 -0.24286642404E+02  0.75724189536E+03  0.75897443555E+03  0.25500000000E-02 0.  1.
<mgrwt>
<rscale>  0 0.51253348E+02</rscale>
<asrwt>0</asrwt>
<pdfrwt beam="1">  1       11 0.10000000E+01 0.54042299E+02</pdfrwt>
<pdfrwt beam="2">  1        2 0.59749374E-03 0.51253348E+02</pdfrwt>
<totfact> 0.27735050E+04</totfact>
</mgrwt>
</event>
<event>
 5    1  0.6729100E-004  0.1764252E+03  0.7818608E-02  0.1171308E+00
         11   -1    0    0    0    0  0.00000000000E+00  0.00000000000E+00  0.10006807618E+04  0.10006807618E+04  0.51100000000E-03 0. -1.
          2   -1    0    0  501    0 -0.00000000000E+00 -0.00000000000E+00 -0.74435253590E+03  0.74435253591E+03  0.25500000000E-02 0. -1.
         11    1    1    2    0    0 -0.59805995833E+02  0.15633040496E+02  0.30697069138E+03  0.31313280642E+03  0.51100000000E-03 0. -1.
         22    1    1    2    0    0 -0.47274589053E+02 -0.15630546817E+03  0.67014216747E+03  0.68975126732E+03  0.00000000000E+00 0. -1.
          2    1    1    2  501    0  0.10708058489E+03  0.14067242767E+03 -0.72078463294E+03  0.74214922398E+03  0.25500000000E-02 0. -1.
<mgrwt>
<rscale>  0 0.17642515E+03</rscale>
<asrwt>0</asrwt>
<pdfrwt beam="1">  1       11 0.10000000E+01 0.61815444E+02</pdfrwt>
<pdfrwt beam="2">  1        2 0.11459373E+00 0.17642515E+03</pdfrwt>
<totfact> 0.49190435E+01</totfact>
</mgrwt>
</event>
<event>
 5    1  0.6729100E-004  0.1130415E+03  0.7818608E-02  0.1579911E+00
         11   -1    0    0    0    0  0.00000000000E+00  0.00000000000E+00  0.10000708569E+04  0.10000708569E+04  0.51100000000E-03 0. -1.
          2   -1    0    0  501    0 -0.00000000000E+00 -0.00000000000E+00 -0.36501734385E+02  0.36501734474E+02  0.25500000000E-02 0. -1.
         11    1    1    2    0    0  0.11577998179E+03  0.11062552063E+02  0.42782940790E+03  0.44335695157E+03  0.51100000000E-03 0. -1.
         22    1    1    2    0    0 -0.11065314884E+03  0.20231311883E+02  0.54784386210E+03  0.55927303044E+03  0.00000000000E+00 0. -1.
          2    1    1    2  501    0 -0.51268329536E+01 -0.31293863946E+02 -0.12104147498E+02  0.33942609357E+02  0.25500000000E-02 0. -1.
<mgrwt>
<rscale>  0 0.31711045E+02</rscale>
<asrwt>0</asrwt>
<pdfrwt beam="1">  1       11 0.10000000E+01 0.11304150E+03</pdfrwt>
<pdfrwt beam="2">  1        2 0.56160492E-02 0.31711045E+02</pdfrwt>
<totfact> 0.13725793E+03</totfact>
</mgrwt>
</event>
<event>
 5    1  0.1896189E-003  0.1427258E+03  0.7818608E-02  0.1209708E+00
         11   -1    0    0    0    0  0.00000000000E+00  0.00000000000E+00  0.10004028901E+04  0.10004028901E+04  0.51100000000E-03 0.  1.
          2   -1    0    0  501    0 -0.00000000000E+00 -0.00000000000E+00 -0.20610092833E+04  0.20610092833E+04  0.25500000000E-02 0.  1.
         11    1    1    2    0    0 -0.15469527546E+03  0.15347112091E+02  0.93046389033E+03  0.94336059559E+03  0.51100000000E-03 0.  1.
         22    1    1    2    0    0  0.14864635363E+02  0.13096325058E+02  0.59402896419E+02  0.62619287903E+02  0.00000000000E+00 0. -1.
          2    1    1    2  501    0  0.13983064010E+03 -0.28443437149E+02 -0.20504731799E+04  0.20554322899E+04  0.25500000000E-02 0.  1.
<mgrwt>
<rscale>  0 0.14272577E+03</rscale>
<asrwt>0</asrwt>
<pdfrwt beam="1">  1       11 0.10000000E+01 0.19810884E+02</pdfrwt>
<pdfrwt beam="2">  1        2 0.31720609E+00 0.14272577E+03</pdfrwt>
<totfact> 0.92368912E+00</totfact>
</mgrwt>
</event>
<event>
 5    1  0.6729100E-004  0.1102583E+03  0.7818608E-02  0.1449235E+00
         11   -1    0    0    0    0  0.00000000000E+00  0.00000000000E+00  0.10002662994E+04  0.10002662994E+04  0.51100000000E-03 0.  1.
          2   -1    0    0  501    0 -0.00000000000E+00 -0.00000000000E+00 -0.17783304912E+02  0.17783305094E+02  0.25500000000E-02 0.  1.
         11    1    1    2    0    0 -0.99070223811E+02 -0.50464756545E+02  0.66704845922E+03  0.67625087641E+03  0.51100000000E-03 0.  1.
         22    1    1    2    0    0  0.13216499016E+02 -0.17625724552E+02  0.55376891150E+02  0.59598171831E+02  0.00000000000E+00 0.  1.
          2    1    1    2  501    0  0.85853724795E+02  0.68090481097E+02  0.26005764410E+03  0.28220055624E+03  0.25500000000E-02 0.  1.
<mgrwt>
<rscale>  0 0.49285324E+02</rscale>
<asrwt>0</asrwt>
<pdfrwt beam="1">  1       11 0.10000000E+01 0.11025830E+03</pdfrwt>
<pdfrwt beam="2">  1        2 0.27366216E-02 0.49285324E+02</pdfrwt>
<totfact> 0.36167199E+03</totfact>
</mgrwt>
</event>
<event>
 5    1  0.6729100E-004  0.1181517E+03  0.7818608E-02  0.1258362E+00
         11   -1    0    0    0    0  0.00000000000E+00  0.00000000000E+00  0.10001166661E+04  0.10001166661E+04  0.51100000000E-03 0. -1.
          2   -1    0    0  501    0 -0.00000000000E+00 -0.00000000000E+00 -0.14254107937E+02  0.14254108165E+02  0.25500000000E-02 0. -1.
         11    1    1    2    0    0  0.17000788883E+02  0.84862247719E+02  0.47673531668E+03  0.48452780114E+03  0.51100000000E-03 0. -1.
         22    1    1    2    0    0  0.26259018248E+02  0.17579145282E+02  0.17112987526E+03  0.17402297720E+03  0.00000000000E+00 0. -1.
          2    1    1    2  501    0 -0.43259807131E+02 -0.10244139300E+03  0.33799736618E+03  0.35581999587E+03  0.25500000000E-02 0. -1.
<mgrwt>
<rscale>  0 0.11120094E+03</rscale>
<asrwt>0</asrwt>
<pdfrwt beam="1">  1       11 0.10000000E+01 0.11815169E+03</pdfrwt>
<pdfrwt beam="2">  1        2 0.21931955E-02 0.11120094E+03</pdfrwt>
<totfact> 0.53850132E+03</totfact>
</mgrwt>
</event>
<event>
 5    1  0.6729100E-004  0.2975588E+03  0.7818608E-02  0.1096305E+00
         11   -1    0    0    0    0  0.00000000000E+00  0.00000000000E+00  0.10000075090E+04  0.10000075090E+04  0.51100000000E-03 0.  1.
          2   -1    0    0  501    0 -0.00000000000E+00 -0.00000000000E+00 -0.18320748256E+03  0.18320748258E+03  0.25500000000E-02 0.  1.
         11    1    1    2    0    0 -0.13897589455E+03 -0.10576318387E+03  0.61395721808E+03  0.63831310182E+03  0.51100000000E-03 0.  1.
         22    1    1    2    0    0 -0.11385699730E+03 -0.11910702288E+02  0.23772507373E+03  0.26385316247E+03  0.00000000000E+00 0.  1.
          2    1    1    2  501    0  0.25283289185E+03  0.11767388615E+03 -0.34882265345E+02  0.28104872732E+03  0.25500000000E-02 0.  1.
<mgrwt>
<rscale>  0 0.27887563E+03</rscale>
<asrwt>0</asrwt>
<pdfrwt beam="1">  1       11 0.10000000E+01 0.29755880E+03</pdfrwt>
<pdfrwt beam="2">  1        2 0.28185977E-01 0.27887563E+03</pdfrwt>
<totfact> 0.23272294E+02</totfact>
</mgrwt>
</event>
<event>
 5    1  0.6729100E-004  0.1390207E+03  0.7818608E-02  0.1214653E+00
         11   -1    0    0    0    0  0.00000000000E+00  0.00000000000E+00  0.99988854079E+03  0.99988854079E+03  0.51100000000E-03 0.  1.
          2   -1    0    0  501    0 -0.00000000000E+00 -0.00000000000E+00 -0.48883220729E+02  0.48883220796E+02  0.25500000000E-02 0.  1.
         11    1    1    2    0    0  0.32243296807E+02 -0.13055212314E+03  0.90083553846E+02  0.16185961114E+03  0.51100000000E-03 0.  1.
         22    1    1    2    0    0  0.42673074292E+02 -0.18235750978E+02  0.20143561659E+03  0.20671197719E+03  0.00000000000E+00 0.  1.
          2    1    1    2  501    0 -0.74916371099E+02  0.14878787412E+03  0.65948614963E+03  0.68020017326E+03  0.25500000000E-02 0.  1.
<mgrwt>
<rscale>  0 0.13902066E+03</rscale>
<asrwt>0</asrwt>
<pdfrwt beam="1">  1       11 0.10000000E+01 0.46406184E+02</pdfrwt>
<pdfrwt beam="2">  1        2 0.75196571E-02 0.13902066E+03</pdfrwt>
<totfact> 0.10865095E+03</totfact>
</mgrwt>
</event>
<event>
 5    1  0.6729100E-004  0.2309479E+03  0.7818608E-02  0.1359185E+00
         11   -1    0    0    0    0  0.00000000000E+00  0.00000000000E+00  0.10002517850E+04  0.10002517850E+04  0.51100000000E-03 0.  1.
          2   -1    0    0  501    0 -0.00000000000E+00 -0.00000000000E+00 -0.45101173300E+03  0.45101173300E+03  0.25500000000E-02 0.  1.
         11    1    1    2    0    0  0.17466623501E+03 -0.10431843348E+03  0.33906644918E+03  0.39541963302E+03  0.51100000000E-03 0.  1.
         22    1    1    2    0    0 -0.19342831140E+03  0.17203518050E+03  0.60329745909E+03  0.65648948135E+03  0.00000000000E+00 0.  1.
          2    1    1    2  501    0  0.18762076391E+02 -0.67716747014E+02 -0.39312385626E+03  0.39935440364E+03  0.25500000000E-02 0.  1.
<mgrwt>
<rscale>  0 0.70267868E+02</rscale>
<asrwt>0</asrwt>
<pdfrwt beam="1">  1       11 0.10000000E+01 0.23094787E+03</pdfrwt>
<pdfrwt beam="2">  1        2 0.69403889E-01 0.70267868E+02</pdfrwt>
<totfact> 0.88214235E+01</totfact>
</mgrwt>
</event>
<event>
 5    1  0.6729100E-004  0.1450871E+03  0.7818608E-02  0.1206643E+00
         11   -1    0    0    0    0  0.00000000000E+00  0.00000000000E+00  0.10001075199E+04  0.10001075199E+04  0.51100000000E-03 0. -1.
          2   -1    0    0  501    0 -0.00000000000E+00 -0.00000000000E+00 -0.74359018572E+02  0.74359018615E+02  0.25500000000E-02 0. -1.
         11    1    1    2    0    0  0.29821504931E+02  0.68149762151E+02 -0.32484483188E+01  0.74459819059E+02  0.51100000000E-03 0. -1.
         22    1    1    2    0    0 -0.11797829898E+03 -0.16491204566E+03  0.75804198862E+03  0.78469262667E+03  0.00000000000E+00 0. -1.
          2    1    1    2  501    0  0.88156794047E+02  0.96762283507E+02  0.17095496101E+03  0.21531409277E+03  0.25500000000E-02 0. -1.
<mgrwt>
<rscale>  0 0.14508705E+03</rscale>
<asrwt>0</asrwt>
<pdfrwt beam="1">  1       11 0.10000000E+01 0.74388963E+02</pdfrwt>
<pdfrwt beam="2">  1        2 0.11441079E-01 0.14508705E+03</pdfrwt>
<totfact> 0.64785969E+02</totfact>
</mgrwt>
</event>
<event>
 5    1  0.6729100E-004  0.3001305E+03  0.7818608E-02  0.1466895E+00
         11   -1    0    0    0    0  0.00000000000E+00  0.00000000000E+00  0.10000451497E+04  0.10000451497E+04  0.51100000000E-03 0. -1.
          2   -1    0    0  501    0 -0.00000000000E+00 -0.00000000000E+00 -0.27014778582E+03  0.27014778584E+03  0.25500000000E-02 0.  1.
         11    1    1    2    0    0  0.12722736240E+03 -0.27759572241E+03  0.61394623375E+03  0.68569392938E+03  0.51100000000E-03 0. -1.
         22    1    1    2    0    0 -0.81197235516E+02  0.28172722912E+03  0.28521672899E+03  0.40903765741E+03  0.00000000000E+00 0. -1.
          2    1    1    2  501    0 -0.46030126889E+02 -0.41315067090E+01 -0.16926559888E+03  0.17546134873E+03  0.25500000000E-02 0.  1.
<mgrwt>
<rscale>  0 0.46215170E+02</rscale>
<asrwt>0</asrwt>
<pdfrwt beam="1">  1       11 0.10000000E+01 0.30013046E+03</pdfrwt>
<pdfrwt beam="2">  1        2 0.41563073E-01 0.46215170E+02</pdfrwt>
<totfact> 0.14935771E+02</totfact>
</mgrwt>
</event>
<event>
 5    1  0.6729100E-004  0.3151595E+03  0.7818608E-02  0.1084394E+00
         11   -1    0    0    0    0  0.00000000000E+00  0.00000000000E+00  0.99988035360E+03  0.99988035360E+03  0.51100000000E-03 0.  1.
          2   -1    0    0  501    0 -0.00000000000E+00 -0.00000000000E+00 -0.28388144988E+03  0.28388144989E+03  0.25500000000E-02 0.  1.
         11    1    1    2    0    0  0.26852955040E+03  0.37530886418E+02  0.69797062764E+03  0.74878547257E+03  0.51100000000E-03 0.  1.
         22    1    1    2    0    0  0.32542041761E+02 -0.18059965733E+02  0.18598718968E+03  0.18967440937E+03  0.00000000000E+00 0.  1.
          2    1    1    2  501    0 -0.30107159217E+03 -0.19470920685E+02 -0.16795891360E+03  0.34530192155E+03  0.25500000000E-02 0.  1.
<mgrwt>
<rscale>  0 0.30170055E+03</rscale>
<asrwt>0</asrwt>
<pdfrwt beam="1">  1       11 0.10000000E+01 0.31515953E+03</pdfrwt>
<pdfrwt beam="2">  1        2 0.43668843E-01 0.30170055E+03</pdfrwt>
<totfact> 0.14413368E+02</totfact>
</mgrwt>
</event>
<event>
 5    1  0.6729100E-004  0.1152619E+03  0.7818608E-02  0.1343311E+00
         11   -1    0    0    0    0  0.00000000000E+00  0.00000000000E+00  0.99987487793E+03  0.99987487793E+03  0.51100000000E-03 0.  1.
          2   -1    0    0  501    0 -0.00000000000E+00 -0.00000000000E+00 -0.32432489695E+03  0.32432489696E+03  0.25500000000E-02 0.  1.
         11    1    1    2    0    0 -0.13563487172E+01 -0.15853435311E+03  0.38270210808E+03  0.41424133585E+03  0.51100000000E-03 0.  1.
         22    1    1    2    0    0 -0.41484725205E+02  0.96753569562E+02  0.59211089080E+03  0.60139632744E+03  0.00000000000E+00 0.  1.
          2    1    1    2  501    0  0.42841073922E+02  0.61780783546E+02 -0.29926301790E+03  0.30856211161E+03  0.25500000000E-02 0.  1.
<mgrwt>
<rscale>  0 0.75181267E+02</rscale>
<asrwt>0</asrwt>
<pdfrwt beam="1">  1       11 0.10000000E+01 0.11526191E+03</pdfrwt>
<pdfrwt beam="2">  1        2 0.49889893E-01 0.75181267E+02</pdfrwt>
<totfact> 0.12445492E+02</totfact>
</mgrwt>
</event>
<event>
 5    1  0.6729100E-004  0.1874349E+03  0.7818608E-02  0.1160795E+00
         11   -1    0    0    0    0  0.00000000000E+00  0.00000000000E+00  0.99972545616E+03  0.99972545616E+03  0.51100000000E-03 0. -1.
          2   -1    0    0  501    0 -0.00000000000E+00 -0.00000000000E+00 -0.12576546238E+04  0.12576546238E+04  0.25500000000E-02 0. -1.
         11    1    1    2    0    0  0.16146813376E+03 -0.15159446950E+03  0.65857423986E+03  0.69481858842E+03  0.51100000000E-03 0. -1.
         22    1    1    2    0    0 -0.23528467492E+01  0.53116740940E+02  0.31371721167E+03  0.31819084361E+03  0.00000000000E+00 0.  1.
          2    1    1    2  501    0 -0.15911528701E+03  0.98477728564E+02 -0.12302206192E+04  0.12443706480E+04  0.25500000000E-02 0. -1.
<mgrwt>
<rscale>  0 0.18743488E+03</rscale>
<asrwt>0</asrwt>
<pdfrwt beam="1">  1       11 0.10000000E+01 0.53168826E+02</pdfrwt>
<pdfrwt beam="2">  1        2 0.19343220E+00 0.18743488E+03</pdfrwt>
<totfact> 0.23767667E+01</totfact>
</mgrwt>
</event>
<event>
 5    1  0.6729100E-004  0.2024755E+03  0.7818608E-02  0.1344828E+00
         11   -1    0    0    0    0  0.00000000000E+00  0.00000000000E+00  0.10006901805E+04  0.10006901805E+04  0.51100000000E-03 0.  1.
          2   -1    0    0  501    0 -0.00000000000E+00 -0.00000000000E+00 -0.10998239740E+04  0.10998239740E+04  0.25500000000E-02 0.  1.
         11    1    1    2    0    0 -0.77677851242E+02 -0.19067538325E+03 -0.12927100079E+03  0.24310890974E+03  0.51100000000E-03 0.  1.
         22    1    1    2    0    0  0.13898518901E+03  0.14801040667E+03  0.93128824664E+03  0.95316407904E+03  0.00000000000E+00 0.  1.
          2    1    1    2  501    0 -0.61307337772E+02  0.42664976579E+02 -0.90115103942E+03  0.90424116570E+03  0.25500000000E-02 0.  1.
<mgrwt>
<rscale>  0 0.74691967E+02</rscale>
<asrwt>0</asrwt>
<pdfrwt beam="1">  1       11 0.10000000E+01 0.20247553E+03</pdfrwt>
<pdfrwt beam="2">  1        2 0.16932046E+00 0.74691967E+02</pdfrwt>
<totfact> 0.30701124E+01</totfact>
</mgrwt>
</event>
<event>
 5    1  0.6729100E-004  0.1005122E+03  0.7818608E-02  0.1279223E+00
         11   -1    0    0    0    0  0.00000000000E+00  0.00000000000E+00  0.10000400566E+04  0.10000400566E+04  0.51100000000E-03 0.  1.
          2   -1    0    0  501    0 -0.00000000000E+00 -0.00000000000E+00 -0.16203367352E+02  0.16203367553E+02  0.25500000000E-02 0.  1.
         11    1    1    2    0    0  0.15316198379E+02  0.10632682217E+03  0.64885430669E+03  0.65768677222E+03  0.51100000000E-03 0.  1.
         22    1    1    2    0    0 -0.25409887663E+02 -0.80374080908E+01  0.10334826694E+03  0.10672922093E+03  0.00000000000E+00 0.  1.
          2    1    1    2  501    0  0.10093689284E+02 -0.98289414077E+02  0.23163411564E+03  0.25182743103E+03  0.25500000000E-02 0.  1.
<mgrwt>
<rscale>  0 0.10051217E+03</rscale>
<asrwt>0</asrwt>
<pdfrwt beam="1">  1       11 0.10000000E+01 0.26650747E+02</pdfrwt>
<pdfrwt beam="2">  1        2 0.24929255E-02 0.10051217E+03</pdfrwt>
<totfact> 0.44771112E+03</totfact>
</mgrwt>
</event>
<event>
 5    1  0.6729100E-004  0.4885743E+03  0.7818608E-02  0.1016805E+00
         11   -1    0    0    0    0  0.00000000000E+00  0.00000000000E+00  0.10005143348E+04  0.10005143348E+04  0.51100000000E-03 0. -1.
          2   -1    0    0  501    0 -0.00000000000E+00 -0.00000000000E+00 -0.27572122969E+03  0.27572122970E+03  0.25500000000E-02 0. -1.
         11    1    1    2    0    0  0.30098672992E+03  0.38986366504E+03  0.37187748781E+03  0.61715440114E+03  0.51100000000E-03 0. -1.
         22    1    1    2    0    0  0.11837145456E+02 -0.18363970970E+02  0.11723118092E+03  0.11924975146E+03  0.00000000000E+00 0. -1.
          2    1    1    2  501    0 -0.31282387537E+03 -0.37149969407E+03  0.23568443635E+03  0.53983141187E+03  0.25500000000E-02 0. -1.
<mgrwt>
<rscale>  0 0.48857428E+03</rscale>
<asrwt>0</asrwt>
<pdfrwt beam="1">  1       11 0.10000000E+01 0.21848420E+02</pdfrwt>
<pdfrwt beam="2">  1        2 0.42440467E-01 0.48857428E+03</pdfrwt>
<totfact> 0.14885532E+02</totfact>
</mgrwt>
</event>
<event>
 5    1  0.6729100E-004  0.7440774E+03  0.7818608E-02  0.1355627E+00
         11   -1    0    0    0    0  0.00000000000E+00  0.00000000000E+00  0.10001523772E+04  0.10001523772E+04  0.51100000000E-03 0. -1.
          2   -1    0    0  501    0 -0.00000000000E+00 -0.00000000000E+00 -0.29362271626E+04  0.29362271626E+04  0.25500000000E-02 0. -1.
         11    1    1    2    0    0 -0.62659918149E+03 -0.31821993864E+03  0.10656710340E+02  0.70285420186E+03  0.51100000000E-03 0. -1.
         22    1    1    2    0    0  0.69646220980E+03  0.33261359959E+03  0.41119997335E+03  0.87451519963E+03  0.00000000000E+00 0. -1.
          2    1    1    2  501    0 -0.69863028313E+02 -0.14393660948E+02 -0.23579314690E+04  0.23590101383E+04  0.25500000000E-02 0. -1.
<mgrwt>
<rscale>  0 0.71330360E+02</rscale>
<asrwt>0</asrwt>
<pdfrwt beam="1">  1       11 0.10000000E+01 0.74407737E+03</pdfrwt>
<pdfrwt beam="2">  1        2 0.45179608E+00 0.71330360E+02</pdfrwt>
<totfact> 0.34883248E+00</totfact>
</mgrwt>
</event>
<event>
 5    1  0.6729100E-004  0.3260689E+03  0.7818608E-02  0.1075187E+00
         11   -1    0    0    0    0  0.00000000000E+00  0.00000000000E+00  0.10000803649E+04  0.10000803649E+04  0.51100000000E-03 0.  1.
          2   -1    0    0  501    0 -0.00000000000E+00 -0.00000000000E+00 -0.92295334447E+03  0.92295334447E+03  0.25500000000E-02 0.  1.
         11    1    1    2    0    0 -0.10318306456E+03 -0.29071708125E+03  0.87861699906E+03  0.93119868834E+03  0.51100000000E-03 0.  1.
         22    1    1    2    0    0  0.67827460536E+01 -0.15471659873E+02  0.65333690648E+02  0.67482360932E+02  0.00000000000E+00 0.  1.
          2    1    1    2  501    0  0.96400318508E+02  0.30618874112E+03 -0.86682366928E+03  0.92435266009E+03  0.25500000000E-02 0.  1.
<mgrwt>
<rscale>  0 0.32100556E+03</rscale>
<asrwt>0</asrwt>
<pdfrwt beam="1">  1       11 0.10000000E+01 0.32606891E+03</pdfrwt>
<pdfrwt beam="2">  1        2 0.14200423E+00 0.32100556E+03</pdfrwt>
<totfact> 0.36438424E+01</totfact>
</mgrwt>
</event>
<event>
 5    1  0.6729100E-004  0.3466986E+03  0.7818608E-02  0.1063978E+00
         11   -1    0    0    0    0  0.00000000000E+00  0.00000000000E+00  0.99950137590E+03  0.99950137590E+03  0.51100000000E-03 0. -1.
         -2   -1    0    0    0  501 -0.00000000000E+00 -0.00000000000E+00 -0.28018113132E+03  0.28018113134E+03  0.25500000000E-02 0. -1.
         11    1    1    2    0    0 -0.29132723074E+03  0.13615441698E+03 -0.20175647553E+02  0.32220589285E+03  0.51100000000E-03 0. -1.
         22    1    1    2    0    0 -0.62030636484E+02  0.99976588222E+02  0.38960481137E+03  0.40698283391E+03  0.00000000000E+00 0. -1.
         -2    1    1    2    0  501  0.35335786722E+03 -0.23613100520E+03  0.34989108076E+03  0.55049378048E+03  0.25500000000E-02 0. -1.
<mgrwt>
<rscale>  0 0.34669859E+03</rscale>
<asrwt>0</asrwt>
<pdfrwt beam="1">  1       11 0.10000000E+01 0.11765678E+03</pdfrwt>
<pdfrwt beam="2">  1       -2 0.43083295E-01 0.34669859E+03</pdfrwt>
<totfact> 0.41708504E+01</totfact>
</mgrwt>
</event>
<event>
 5    1  0.6729100E-004  0.1033075E+03  0.7818608E-02  0.1465935E+00
         11   -1    0    0    0    0  0.00000000000E+00  0.00000000000E+00  0.10000124115E+04  0.10000124115E+04  0.51100000000E-03 0. -1.
          2   -1    0    0  501    0 -0.00000000000E+00 -0.00000000000E+00 -0.18279035115E+02  0.18279035293E+02  0.25500000000E-02 0. -1.
         11    1    1    2    0    0  0.61153894930E+02 -0.80274187493E+02  0.32033872596E+03  0.33585807031E+03  0.51100000000E-03 0. -1.
         22    1    1    2    0    0 -0.96578045042E+02  0.50344466547E+02  0.56575905788E+03  0.57614685252E+03  0.00000000000E+00 0. -1.
          2    1    1    2  501    0  0.35424150111E+02  0.29929720946E+02  0.95635592488E+02  0.10628652391E+03  0.25500000000E-02 0. -1.
<mgrwt>
<rscale>  0 0.46375194E+02</rscale>
<asrwt>0</asrwt>
<pdfrwt beam="1">  1       11 0.10000000E+01 0.10330751E+03</pdfrwt>
<pdfrwt beam="2">  1        2 0.28121941E-02 0.46375194E+02</pdfrwt>
<totfact> 0.34616724E+03</totfact>
</mgrwt>
</event>
<event>
 5    1  0.6729100E-004  0.7935389E+02  0.7818608E-02  0.1562913E+00
         11   -1    0    0    0    0  0.00000000000E+00  0.00000000000E+00  0.10004131276E+04  0.10004131276E+04  0.51100000000E-03 0.  1.
          2   -1    0    0  501    0 -0.00000000000E+00 -0.00000000000E+00 -0.77527805042E+01  0.77527809236E+01  0.25500000000E-02 0.  1.
         11    1    1    2    0    0  0.41476267902E+02  0.69423972841E+02  0.38343030533E+03  0.39186575233E+03  0.51100000000E-03 0.  1.
         22    1    1    2    0    0  0.10092575943E+02 -0.98336873622E+01  0.79227575371E+02  0.80470927641E+02  0.00000000000E+00 0. -1.
          2    1    1    2  501    0 -0.51568843844E+02 -0.59590285479E+02  0.53000246639E+03  0.53582922855E+03  0.25500000000E-02 0.  1.
<mgrwt>
<rscale>  0 0.33439345E+02</rscale>
<asrwt>0</asrwt>
<pdfrwt beam="1">  1       11 0.10000000E+01 0.79353889E+02</pdfrwt>
<pdfrwt beam="2">  1        2 0.11932282E-02 0.33439345E+02</pdfrwt>
<totfact> 0.10102005E+04</totfact>
</mgrwt>
</event>
<event>
 5    1  0.6729100E-004  0.2854812E+03  0.7818608E-02  0.1095315E+00
         11   -1    0    0    0    0  0.00000000000E+00  0.00000000000E+00  0.99995448480E+03  0.99995448480E+03  0.51100000000E-03 0. -1.
          2   -1    0    0  501    0 -0.00000000000E+00 -0.00000000000E+00 -0.10203907830E+03  0.10203907833E+03  0.25500000000E-02 0. -1.
         11    1    1    2    0    0 -0.22532897350E+03  0.57748246540E+01  0.60938700126E+03  0.64973764875E+03  0.51100000000E-03 0. -1.
         22    1    1    2    0    0 -0.55306554596E+02 -0.11063626736E+02  0.97809184477E+02  0.11290640100E+03  0.00000000000E+00 0.  1.
          2    1    1    2  501    0  0.28063552809E+03  0.52888020817E+01  0.19071922076E+03  0.33934951338E+03  0.25500000000E-02 0. -1.
<mgrwt>
<rscale>  0 0.28068536E+03</rscale>
<asrwt>0</asrwt>
<pdfrwt beam="1">  1       11 0.10000000E+01 0.28548118E+03</pdfrwt>
<pdfrwt beam="2">  1        2 0.15697605E-01 0.28068536E+03</pdfrwt>
<totfact> 0.45567376E+02</totfact>
</mgrwt>
</event>
<event>
 5    1  0.6729100E-004  0.1211707E+03  0.7818608E-02  0.1241178E+00
         11   -1    0    0    0    0  0.00000000000E+00  0.00000000000E+00  0.10003436676E+04  0.10003436676E+04  0.51100000000E-03 0. -1.
          2   -1    0    0  501    0 -0.00000000000E+00 -0.00000000000E+00 -0.69060762831E+03  0.69060762831E+03  0.25500000000E-02 0. -1.
         11    1    1    2    0    0 -0.51905500680E+02  0.54795945144E+02  0.36918922138E+03  0.37682550045E+03  0.51100000000E-03 0. -1.
         22    1    1    2    0    0  0.17063206840E+03 -0.32417651839E+02  0.60980129565E+03  0.63405348914E+03  0.00000000000E+00 0. -1.
          2    1    1    2  501    0 -0.11872656772E+03 -0.22378293305E+02 -0.66925447772E+03  0.68007230634E+03  0.25500000000E-02 0. -1.
<mgrwt>
<rscale>  0 0.12117070E+03</rscale>
<asrwt>0</asrwt>
<pdfrwt beam="1">  1       11 0.10000000E+01 0.75476994E+02</pdfrwt>
<pdfrwt beam="2">  1        2 0.10628384E+00 0.12117070E+03</pdfrwt>
<totfact> 0.54478244E+01</totfact>
</mgrwt>
</event>
<event>
 5    1  0.6729100E-004  0.1270390E+03  0.7818608E-02  0.1409581E+00
         11   -1    0    0    0    0  0.00000000000E+00  0.00000000000E+00  0.10004871179E+04  0.10004871179E+04  0.51100000000E-03 0. -1.
          2   -1    0    0  501    0 -0.00000000000E+00 -0.00000000000E+00 -0.40439190198E+03  0.40439190199E+03  0.25500000000E-02 0. -1.
         11    1    1    2    0    0 -0.11448053216E+03 -0.38050231297E+02  0.61785390584E+03  0.62952129535E+03  0.51100000000E-03 0. -1.
         22    1    1    2    0    0  0.11627663720E+03  0.95309455388E+02  0.35957686629E+03  0.38974308386E+03  0.00000000000E+00 0. -1.
          2    1    1    2  501    0 -0.17961050427E+01 -0.57259224091E+02 -0.38133555616E+03  0.38561464072E+03  0.25500000000E-02 0. -1.
<mgrwt>
<rscale>  0 0.57287387E+02</rscale>
<asrwt>0</asrwt>
<pdfrwt beam="1">  1       11 0.10000000E+01 0.12703895E+03</pdfrwt>
<pdfrwt beam="2">  1        2 0.62244443E-01 0.57287387E+02</pdfrwt>
<totfact> 0.98937551E+01</totfact>
</mgrwt>
</event>
<event>
 5    1  0.6729100E-004  0.1839309E+03  0.7818608E-02  0.1164052E+00
         11   -1    0    0    0    0  0.00000000000E+00  0.00000000000E+00  0.99999230803E+03  0.99999230803E+03  0.51100000000E-03 0. -1.
          2   -1    0    0  501    0 -0.00000000000E+00 -0.00000000000E+00 -0.12137826957E+03  0.12137826960E+03  0.25500000000E-02 0. -1.
         11    1    1    2    0    0  0.62776701295E+01  0.34525107317E+02  0.12496602372E+03  0.12979945787E+03  0.51100000000E-03 0. -1.
         22    1    1    2    0    0 -0.12974543082E+03 -0.16724443794E+03  0.78016697376E+03  0.80837187345E+03  0.00000000000E+00 0. -1.
          2    1    1    2  501    0  0.12346776069E+03  0.13271933062E+03 -0.26518959031E+02  0.18319924630E+03  0.25500000000E-02 0. -1.
<mgrwt>
<rscale>  0 0.18393086E+03</rscale>
<asrwt>0</asrwt>
<pdfrwt beam="1">  1       11 0.10000000E+01 0.35091198E+02</pdfrwt>
<pdfrwt beam="2">  1        2 0.18673436E-01 0.18393086E+03</pdfrwt>
<totfact> 0.36690570E+02</totfact>
</mgrwt>
</event>
<event>
 5    1  0.6729100E-004  0.3973537E+03  0.7818608E-02  0.1044700E+00
         11   -1    0    0    0    0  0.00000000000E+00  0.00000000000E+00  0.99997979828E+03  0.99997979828E+03  0.51100000000E-03 0. -1.
          2   -1    0    0  501    0 -0.00000000000E+00 -0.00000000000E+00 -0.16505966659E+04  0.16505966659E+04  0.25500000000E-02 0. -1.
         11    1    1    2    0    0  0.27003731868E+03 -0.28663715642E+03  0.87838919844E+03  0.96262588624E+03  0.51100000000E-03 0. -1.
         22    1    1    2    0    0  0.94382484768E+01  0.40402028394E+01  0.54432717471E+02  0.55392458914E+02  0.00000000000E+00 0.  1.
          2    1    1    2  501    0 -0.27947556716E+03  0.28259695358E+03 -0.15834387835E+04  0.16325581190E+04  0.25500000000E-02 0. -1.
<mgrwt>
<rscale>  0 0.39735368E+03</rscale>
<asrwt>0</asrwt>
<pdfrwt beam="1">  1       11 0.10000000E+01 0.10266634E+02</pdfrwt>
<pdfrwt beam="2">  1        2 0.25393281E+00 0.39735368E+03</pdfrwt>
<totfact> 0.13796042E+01</totfact>
</mgrwt>
</event>
<event>
 5    1  0.6729100E-004  0.1317838E+03  0.7818608E-02  0.1398198E+00
         11   -1    0    0    0    0  0.00000000000E+00  0.00000000000E+00  0.99999066309E+03  0.99999066309E+03  0.51100000000E-03 0.  1.
          2   -1    0    0  501    0 -0.00000000000E+00 -0.00000000000E+00 -0.12625132620E+04  0.12625132620E+04  0.25500000000E-02 0.  1.
         11    1    1    2    0    0  0.11040829363E+03  0.91386291928E+02  0.25424652640E+03  0.29186082615E+03  0.51100000000E-03 0.  1.
         22    1    1    2    0    0 -0.56874281994E+02 -0.11828706354E+03  0.72028172509E+03  0.73214225179E+03  0.00000000000E+00 0.  1.
          2    1    1    2  501    0 -0.53534011637E+02  0.26900771615E+02 -0.12370508504E+04  0.12385008472E+04  0.25500000000E-02 0.  1.
<mgrwt>
<rscale>  0 0.59912786E+02</rscale>
<asrwt>0</asrwt>
<pdfrwt beam="1">  1       11 0.10000000E+01 0.13178381E+03</pdfrwt>
<pdfrwt beam="2">  1        2 0.19423099E+00 0.59912786E+02</pdfrwt>
<totfact> 0.25479483E+01</totfact>
</mgrwt>
</event>
<event>
 5    1  0.6729100E-004  0.4400384E+03  0.7818608E-02  0.1030735E+00
         11   -1    0    0    0    0  0.00000000000E+00  0.00000000000E+00  0.10002171750E+04  0.10002171750E+04  0.51100000000E-03 0.  1.
         -2   -1    0    0    0  501 -0.00000000000E+00 -0.00000000000E+00 -0.47790894611E+03  0.47790894612E+03  0.25500000000E-02 0. -1.
         11    1    1    2    0    0 -0.18028575882E+02 -0.44760477862E+03  0.81402998134E+03  0.92915008363E+03  0.51100000000E-03 0.  1.
         22    1    1    2    0    0  0.50092842444E+01  0.88039595221E+01  0.11588335866E+02  0.15391301441E+02  0.00000000000E+00 0. -1.
         -2    1    1    2    0  501  0.13019291637E+02  0.43880081909E+03 -0.30331008836E+03  0.53358473601E+03  0.25500000000E-02 0. -1.
<mgrwt>
<rscale>  0 0.44003845E+03</rscale>
<asrwt>0</asrwt>
<pdfrwt beam="1">  1       11 0.10000000E+01 0.10129296E+02</pdfrwt>
<pdfrwt beam="2">  1       -2 0.73540419E-01 0.44003845E+03</pdfrwt>
<totfact> 0.13778580E+01</totfact>
</mgrwt>
</event>
<event>
 5    1  0.6729100E-004  0.2970004E+03  0.7818608E-02  0.1086750E+00
         11   -1    0    0    0    0  0.00000000000E+00  0.00000000000E+00  0.10001240966E+04  0.10001240966E+04  0.51100000000E-03 0.  1.
          2   -1    0    0  501    0 -0.00000000000E+00 -0.00000000000E+00 -0.15649263207E+04  0.15649263207E+04  0.25500000000E-02 0.  1.
         11    1    1    2    0    0 -0.14487086083E+03 -0.19222086755E+03  0.44120615187E+03  0.50259257523E+03  0.51100000000E-03 0.  1.
         22    1    1    2    0    0  0.36355315369E+02 -0.86409270371E+02  0.50933711197E+03  0.51789242569E+03  0.00000000000E+00 0.  1.
          2    1    1    2  501    0  0.10851554546E+03  0.27863013792E+03 -0.15153454880E+04  0.15445654164E+04  0.25500000000E-02 0.  1.
<mgrwt>
<rscale>  0 0.29700037E+03</rscale>
<asrwt>0</asrwt>
<pdfrwt beam="1">  1       11 0.10000000E+01 0.93745778E+02</pdfrwt>
<pdfrwt beam="2">  1        2 0.24078777E+00 0.29700037E+03</pdfrwt>
<totfact> 0.15679749E+01</totfact>
</mgrwt>
</event>
<event>
 5    1  0.6729100E-004  0.6434662E+03  0.7818608E-02  0.9819117E-01
         11   -1    0    0    0    0  0.00000000000E+00  0.00000000000E+00  0.99993437450E+03  0.99993437450E+03  0.51100000000E-03 0.  1.
          2   -1    0    0  501    0 -0.00000000000E+00 -0.00000000000E+00 -0.57071726092E+03  0.57071726092E+03  0.25500000000E-02 0.  1.
         11    1    1    2    0    0 -0.37156793289E+03  0.54052904549E+03 -0.35148499994E+02  0.65686360443E+03  0.51100000000E-03 0.  1.
         22    1    1    2    0    0  0.79607964968E+02  0.15468035024E+02  0.22934336481E+03  0.24325925918E+03  0.00000000000E+00 0.  1.
          2    1    1    2  501    0  0.29195996793E+03 -0.55599708051E+03  0.23502224877E+03  0.67052877182E+03  0.25500000000E-02 0.  1.
<mgrwt>
<rscale>  0 0.64346624E+03</rscale>
<asrwt>0</asrwt>
<pdfrwt beam="1">  1       11 0.10000000E+01 0.81096783E+02</pdfrwt>
<pdfrwt beam="2">  1        2 0.87796891E-01 0.64346624E+03</pdfrwt>
<totfact> 0.65463810E+01</totfact>
</mgrwt>
</event>
<event>
 5    1  0.6729100E-004  0.1753146E+03  0.7818608E-02  0.1172416E+00
         11   -1    0    0    0    0  0.00000000000E+00  0.00000000000E+00  0.10002327498E+04  0.10002327498E+04  0.51100000000E-03 0. -1.
          2   -1    0    0  501    0 -0.00000000000E+00 -0.00000000000E+00 -0.15058208575E+04  0.15058208575E+04  0.25500000000E-02 0.  1.
         11    1    1    2    0    0  0.18317747143E+03  0.16934816430E+02  0.82613861842E+03  0.84637213499E+03  0.51100000000E-03 0. -1.
         22    1    1    2    0    0 -0.85176488912E+01 -0.31652670640E+02  0.15714529494E+03  0.16052752295E+03  0.00000000000E+00 0. -1.
          2    1    1    2  501    0 -0.17465982254E+03  0.14717854210E+02 -0.14888720210E+04  0.14991539494E+04  0.25500000000E-02 0.  1.
<mgrwt>
<rscale>  0 0.17531456E+03</rscale>
<asrwt>0</asrwt>
<pdfrwt beam="1">  1       11 0.10000000E+01 0.32778681E+02</pdfrwt>
<pdfrwt beam="2">  1        2 0.23171866E+00 0.17531456E+03</pdfrwt>
<totfact> 0.17546286E+01</totfact>
</mgrwt>
</event>
<event>
 5    1  0.6729100E-004  0.1840544E+03  0.7818608E-02  0.1163936E+00
         11   -1    0    0    0    0  0.00000000000E+00  0.00000000000E+00  0.10005702695E+04  0.10005702695E+04  0.51100000000E-03 0. -1.
          2   -1    0    0  501    0 -0.00000000000E+00 -0.00000000000E+00 -0.14551583268E+03  0.14551583270E+03  0.25500000000E-02 0. -1.
         11    1    1    2    0    0  0.18991163519E+03  0.38840583515E+02  0.81281895566E+03  0.83561335244E+03  0.51100000000E-03 0. -1.
         22    1    1    2    0    0 -0.16430756851E+02  0.20704683166E+02  0.11136754798E+03  0.11446127913E+03  0.00000000000E+00 0. -1.
          2    1    1    2  501    0 -0.17348087834E+03 -0.59545266681E+02 -0.69132066854E+02  0.19601147060E+03  0.25500000000E-02 0. -1.
<mgrwt>
<rscale>  0 0.18405443E+03</rscale>
<asrwt>0</asrwt>
<pdfrwt beam="1">  1       11 0.10000000E+01 0.26432058E+02</pdfrwt>
<pdfrwt beam="2">  1        2 0.22399817E-01 0.18405443E+03</pdfrwt>
<totfact> 0.29831427E+02</totfact>
</mgrwt>
</event>
<event>
 5    1  0.6729100E-004  0.1578321E+03  0.7818608E-02  0.1191166E+00
         11   -1    0    0    0    0  0.00000000000E+00  0.00000000000E+00  0.99993352135E+03  0.99993352135E+03  0.51100000000E-03 0. -1.
          2   -1    0    0  501    0 -0.00000000000E+00 -0.00000000000E+00 -0.76456335498E+03  0.76456335499E+03  0.25500000000E-02 0.  1.
         11    1    1    2    0    0  0.10804974873E+03  0.14268380198E+03  0.89758181192E+03  0.91525216451E+03  0.51100000000E-03 0. -1.
         22    1    1    2    0    0 -0.14509818671E+02 -0.15795350110E+02  0.83932594988E+02  0.86629720214E+02  0.00000000000E+00 0.  1.
          2    1    1    2  501    0 -0.93539930062E+02 -0.12688845187E+03 -0.74614424054E+03  0.76261499161E+03  0.25500000000E-02 0.  1.
<mgrwt>
<rscale>  0 0.15783209E+03</rscale>
<asrwt>0</asrwt>
<pdfrwt beam="1">  1       11 0.10000000E+01 0.21448262E+02</pdfrwt>
<pdfrwt beam="2">  1        2 0.11761731E+00 0.15783209E+03</pdfrwt>
<totfact> 0.47821541E+01</totfact>
</mgrwt>
</event>
<event>
 5    1  0.6729100E-004  0.7899808E+02  0.7818608E-02  0.1462201E+00
         11   -1    0    0    0    0  0.00000000000E+00  0.00000000000E+00  0.10002340345E+04  0.10002340345E+04  0.51100000000E-03 0. -1.
          2   -1    0    0  501    0 -0.00000000000E+00 -0.00000000000E+00 -0.91622616167E+01  0.91622619715E+01  0.25500000000E-02 0. -1.
         11    1    1    2    0    0 -0.79408294104E+02 -0.54867966725E+01  0.38150679569E+03  0.38972197432E+03  0.51100000000E-03 0. -1.
         22    1    1    2    0    0  0.57268123901E+01 -0.27375675767E+02  0.10320732951E+03  0.10692977541E+03  0.00000000000E+00 0.  1.
          2    1    1    2  501    0  0.73681481714E+02  0.32862472439E+02  0.50635764765E+03  0.51274454672E+03  0.25500000000E-02 0. -1.
<mgrwt>
<rscale>  0 0.47004663E+02</rscale>
<asrwt>0</asrwt>
<pdfrwt beam="1">  1       11 0.10000000E+01 0.78998078E+02</pdfrwt>
<pdfrwt beam="2">  1        2 0.14099086E-02 0.47004663E+02</pdfrwt>
<totfact> 0.86155816E+03</totfact>
</mgrwt>
</event>
<event>
 5    1  0.6729100E-004  0.9745090E+02  0.7818608E-02  0.1285750E+00
         11   -1    0    0    0    0  0.00000000000E+00  0.00000000000E+00  0.10005440494E+04  0.10005440494E+04  0.51100000000E-03 0. -1.
          2   -1    0    0  501    0 -0.00000000000E+00 -0.00000000000E+00 -0.59566564520E+02  0.59566564574E+02  0.25500000000E-02 0. -1.
         11    1    1    2    0    0  0.11563854126E+03  0.52124490207E+02  0.70006794289E+03  0.71146634450E+03  0.51100000000E-03 0. -1.
         22    1    1    2    0    0 -0.20319419054E+02 -0.69258311063E+02  0.24123039816E+03  0.25179693692E+03  0.00000000000E+00 0. -1.
          2    1    1    2  501    0 -0.95319122210E+02  0.17133820856E+02 -0.32085612668E+00  0.96847332597E+02  0.25500000000E-02 0. -1.
<mgrwt>
<rscale>  0 0.97450902E+02</rscale>
<asrwt>0</asrwt>
<pdfrwt beam="1">  1       11 0.10000000E+01 0.72177506E+02</pdfrwt>
<pdfrwt beam="2">  1        2 0.91690723E-02 0.97450902E+02</pdfrwt>
<totfact> 0.82915868E+02</totfact>
</mgrwt>
</event>
<event>
 5    1  0.6729100E-004  0.8048210E+03  0.7818608E-02  0.9553065E-01
         11   -1    0    0    0    0  0.00000000000E+00  0.00000000000E+00  0.10003277058E+04  0.10003277058E+04  0.51100000000E-03 0.  1.
          2   -1    0    0  501    0 -0.00000000000E+00 -0.00000000000E+00 -0.13106334431E+04  0.13106334431E+04  0.25500000000E-02 0.  1.
         11    1    1    2    0    0 -0.28061243931E+03 -0.73285679401E+03 -0.17671149828E+03  0.80439379364E+03  0.51100000000E-03 0.  1.
         22    1    1    2    0    0 -0.20409338406E+03  0.59647329448E+02  0.44634281835E+03  0.49440249274E+03  0.00000000000E+00 0. -1.
          2    1    1    2  501    0  0.48470582337E+03  0.67320946457E+03 -0.57993705738E+03  0.10121648625E+04  0.25500000000E-02 0.  1.
<mgrwt>
<rscale>  0 0.80482102E+03</rscale>
<asrwt>0</asrwt>
<pdfrwt beam="1">  1       11 0.10000000E+01 0.21263093E+03</pdfrwt>
<pdfrwt beam="2">  1        2 0.20170199E+00 0.80482102E+03</pdfrwt>
<totfact> 0.20264043E+01</totfact>
</mgrwt>
</event>
<event>
 5    1  0.6729100E-004  0.1727303E+03  0.7818608E-02  0.1488219E+00
         11   -1    0    0    0    0  0.00000000000E+00  0.00000000000E+00  0.10001126143E+04  0.10001126143E+04  0.51100000000E-03 0. -1.
          2   -1    0    0  501    0 -0.00000000000E+00 -0.00000000000E+00 -0.19312451874E+03  0.19312451875E+03  0.25500000000E-02 0. -1.
         11    1    1    2    0    0 -0.11850298388E+03  0.14416608740E+03  0.69899439353E+03  0.72347769844E+03  0.51100000000E-03 0. -1.
         22    1    1    2    0    0  0.11161584207E+03 -0.10187181888E+03  0.26606406495E+03  0.30598374195E+03  0.00000000000E+00 0. -1.
          2    1    1    2  501    0  0.68871418118E+01 -0.42294268521E+02 -0.15807036291E+03  0.16377569267E+03  0.25500000000E-02 0. -1.
<mgrwt>
<rscale>  0 0.42851346E+02</rscale>
<asrwt>0</asrwt>
<pdfrwt beam="1">  1       11 0.10000000E+01 0.17273026E+03</pdfrwt>
<pdfrwt beam="2">  1        2 0.29714810E-01 0.42851346E+02</pdfrwt>
<totfact> 0.21060766E+02</totfact>
</mgrwt>
</event>
<event>
 5    1  0.6729100E-004  0.9823474E+03  0.7818608E-02  0.9328121E-01
         11   -1    0    0    0    0  0.00000000000E+00  0.00000000000E+00  0.99983134375E+03  0.99983134375E+03  0.51100000000E-03 0. -1.
          2   -1    0    0  501    0 -0.00000000000E+00 -0.00000000000E+00 -0.99006823254E+03  0.99006823254E+03  0.25500000000E-02 0. -1.
         11    1    1    2    0    0 -0.88264796029E+03 -0.41929102318E+03  0.89524832710E+02  0.98126809771E+03  0.51100000000E-03 0. -1.
         22    1    1    2    0    0 -0.45599426197E+01 -0.12522411608E+02  0.11640820409E+02  0.17694987115E+02  0.00000000000E+00 0.  1.
          2    1    1    2  501    0  0.88720790291E+03  0.43181343478E+03 -0.91402541906E+02  0.99093649147E+03  0.25500000000E-02 0. -1.
<mgrwt>
<rscale>  0 0.98234739E+03</rscale>
<asrwt>0</asrwt>
<pdfrwt beam="1">  1       11 0.10000000E+01 0.13326810E+02</pdfrwt>
<pdfrwt beam="2">  1        2 0.15229250E+00 0.98234739E+03</pdfrwt>
<totfact> 0.31416572E+01</totfact>
</mgrwt>
</event>
<event>
 5    1  0.6729100E-004  0.3993693E+03  0.7818608E-02  0.1179773E+00
         11   -1    0    0    0    0  0.00000000000E+00  0.00000000000E+00  0.10000349983E+04  0.10000349983E+04  0.51100000000E-03 0.  1.
          2   -1    0    0  501    0 -0.00000000000E+00 -0.00000000000E+00 -0.95813043273E+03  0.95813043273E+03  0.25500000000E-02 0.  1.
         11    1    1    2    0    0 -0.51330841147E+02  0.41561200176E+03  0.83282299750E+03  0.93218149329E+03  0.51100000000E-03 0.  1.
         22    1    1    2    0    0  0.15566965069E+03 -0.28372713799E+03 -0.13811231419E+03  0.35186523032E+03  0.00000000000E+00 0. -1.
          2    1    1    2  501    0 -0.10433880954E+03 -0.13188486377E+03 -0.65280611768E+03  0.67411870747E+03  0.25500000000E-02 0.  1.
<mgrwt>
<rscale>  0 0.16816719E+03</rscale>
<asrwt>0</asrwt>
<pdfrwt beam="1">  1       11 0.10000000E+01 0.39936930E+03</pdfrwt>
<pdfrwt beam="2">  1        2 0.14740984E+00 0.16816719E+03</pdfrwt>
<totfact> 0.35644725E+01</totfact>
</mgrwt>
</event>
<event>
 5    1  0.6729100E-004  0.1196227E+03  0.7818608E-02  0.1391158E+00
         11   -1    0    0    0    0  0.00000000000E+00  0.00000000000E+00  0.99998700777E+03  0.99998700777E+03  0.51100000000E-03 0. -1.
         -2   -1    0    0    0  501 -0.00000000000E+00 -0.00000000000E+00 -0.76903056216E+02  0.76903056258E+02  0.25500000000E-02 0.  1.
         11    1    1    2    0    0 -0.13628807588E+03 -0.32192411046E+02  0.25141542541E+03  0.28778552273E+03  0.51100000000E-03 0. -1.
         22    1    1    2    0    0  0.90850187441E+02  0.73814290324E+02  0.70797329530E+03  0.71758518161E+03  0.00000000000E+00 0. -1.
         -2    1    1    2    0  501  0.45437888443E+02 -0.41621879278E+02 -0.36304769152E+02  0.71519359690E+02  0.25500000000E-02 0.  1.
<mgrwt>
<rscale>  0 0.61619660E+02</rscale>
<asrwt>0</asrwt>
<pdfrwt beam="1">  1       11 0.10000000E+01 0.11962274E+03</pdfrwt>
<pdfrwt beam="2">  1       -2 0.11831085E-01 0.61619660E+02</pdfrwt>
<totfact> 0.37267588E+02</totfact>
</mgrwt>
</event>
<event>
 5    1  0.6729100E-004  0.1790665E+03  0.7818608E-02  0.1174108E+00
         11   -1    0    0    0    0  0.00000000000E+00  0.00000000000E+00  0.10003057212E+04  0.10003057212E+04  0.51100000000E-03 0. -1.
          2   -1    0    0  501    0 -0.00000000000E+00 -0.00000000000E+00 -0.34139494094E+02  0.34139494189E+02  0.25500000000E-02 0. -1.
         11    1    1    2    0    0 -0.49925632961E+02  0.13840382972E+03  0.25284685682E+03  0.29254012017E+03  0.51100000000E-03 0. -1.
         22    1    1    2    0    0 -0.22080943370E+02  0.19598326057E+02  0.82451396053E+02  0.87577937606E+02  0.00000000000E+00 0. -1.
          2    1    1    2  501    0  0.72006576331E+02 -0.15800215577E+03  0.63086797422E+03  0.65432715760E+03  0.25500000000E-02 0. -1.
<mgrwt>
<rscale>  0 0.17363648E+03</rscale>
<asrwt>0</asrwt>
<pdfrwt beam="1">  1       11 0.10000000E+01 0.17906652E+03</pdfrwt>
<pdfrwt beam="2">  1        2 0.52538354E-02 0.17363648E+03</pdfrwt>
<totfact> 0.17513261E+03</totfact>
</mgrwt>
</event>
<event>
 5    1  0.6729100E-004  0.4041663E+02  0.7818608E-02  0.1560884E+00
         11   -1    0    0    0    0  0.00000000000E+00  0.00000000000E+00  0.10002567275E+04  0.10002567275E+04  0.51100000000E-03 0.  1.
          2   -1    0    0  501    0 -0.00000000000E+00 -0.00000000000E+00 -0.10476999446E+02  0.10476999756E+02  0.25500000000E-02 0.  1.
         11    1    1    2    0    0  0.17423083974E+02 -0.66403651673E+02  0.13033675697E+03  0.14731150338E+03  0.51100000000E-03 0.  1.
         22    1    1    2    0    0 -0.11781867602E+02  0.33225324212E+02  0.19730547505E+03  0.20043000039E+03  0.00000000000E+00 0. -1.
          2    1    1    2  501    0 -0.56412163722E+01  0.33178327461E+02  0.66213749606E+03  0.66299222351E+03  0.25500000000E-02 0.  1.
<mgrwt>
<rscale>  0 0.33654491E+02</rscale>
<asrwt>0</asrwt>
<pdfrwt beam="1">  1       11 0.10000000E+01 0.40416633E+02</pdfrwt>
<pdfrwt beam="2">  1        2 0.16122599E-02 0.33654491E+02</pdfrwt>
<totfact> 0.68094035E+03</totfact>
</mgrwt>
</event>
<event>
 5    1  0.6729100E-004  0.3664043E+03  0.7818608E-02  0.1106433E+00
         11   -1    0    0    0    0  0.00000000000E+00  0.00000000000E+00  0.10004114708E+04  0.10004114708E+04  0.51100000000E-03 0. -1.
          2   -1    0    0  501    0 -0.00000000000E+00 -0.00000000000E+00 -0.80224689828E+03  0.80224689829E+03  0.25500000000E-02 0.  1.
         11    1    1    2    0    0 -0.32776163301E+03 -0.39520224577E+03  0.53019572875E+03  0.73805149815E+03  0.51100000000E-03 0. -1.
         22    1    1    2    0    0  0.97737405145E+02  0.27148281277E+03  0.27821078331E+03  0.40082010671E+03  0.00000000000E+00 0.  1.
          2    1    1    2  501    0  0.23002422786E+03  0.12371943300E+03 -0.61024193957E+03  0.66378676420E+03  0.25500000000E-02 0.  1.
<mgrwt>
<rscale>  0 0.26118508E+03</rscale>
<asrwt>0</asrwt>
<pdfrwt beam="1">  1       11 0.10000000E+01 0.36640428E+03</pdfrwt>
<pdfrwt beam="2">  1        2 0.12347338E+00 0.26118508E+03</pdfrwt>
<totfact> 0.44198834E+01</totfact>
</mgrwt>
</event>
<event>
 5    1  0.6729100E-004  0.1611383E+03  0.7818608E-02  0.1426666E+00
         11   -1    0    0    0    0  0.00000000000E+00  0.00000000000E+00  0.10002369258E+04  0.10002369258E+04  0.51100000000E-03 0.  1.
          2   -1    0    0  501    0 -0.00000000000E+00 -0.00000000000E+00 -0.47806785694E+02  0.47806785762E+02  0.25500000000E-02 0. -1.
         11    1    1    2    0    0 -0.17097472327E+03  0.38148337679E+02  0.55906524390E+03  0.58586824338E+03  0.51100000000E-03 0.  1.
         22    1    1    2    0    0  0.14931314618E+03  0.10917943322E+02  0.37771602496E+03  0.40630408886E+03  0.00000000000E+00 0.  1.
          2    1    1    2  501    0  0.21661577088E+02 -0.49066281002E+02  0.15648871285E+02  0.55871379366E+02  0.25500000000E-02 0. -1.
<mgrwt>
<rscale>  0 0.53635099E+02</rscale>
<asrwt>0</asrwt>
<pdfrwt beam="1">  1       11 0.10000000E+01 0.16113829E+03</pdfrwt>
<pdfrwt beam="2">  1        2 0.73566325E-02 0.53635099E+02</pdfrwt>
<totfact> 0.10384229E+03</totfact>
</mgrwt>
</event>
<event>
 5    1  0.6729100E-004  0.1885369E+03  0.7818608E-02  0.1162276E+00
         11   -1    0    0    0    0  0.00000000000E+00  0.00000000000E+00  0.10004364213E+04  0.10004364213E+04  0.51100000000E-03 0.  1.
         -2   -1    0    0    0  501 -0.00000000000E+00 -0.00000000000E+00 -0.56754812360E+02  0.56754812417E+02  0.25500000000E-02 0. -1.
         11    1    1    2    0    0 -0.16494409269E+03 -0.36981436621E+02  0.73719851085E+03  0.75633049969E+03  0.51100000000E-03 0.  1.
         22    1    1    2    0    0 -0.14142303925E+02 -0.12630847552E+02  0.63836214832E+02  0.66592832905E+02  0.00000000000E+00 0.  1.
         -2    1    1    2    0  501  0.17908639662E+03  0.49612284172E+02  0.14264688331E+03  0.23426790117E+03  0.25500000000E-02 0. -1.
<mgrwt>
<rscale>  0 0.18583142E+03</rscale>
<asrwt>0</asrwt>
<pdfrwt beam="1">  1       11 0.10000000E+01 0.18853694E+03</pdfrwt>
<pdfrwt beam="2">  1       -2 0.87353200E-02 0.18583142E+03</pdfrwt>
<totfact> 0.64317942E+02</totfact>
</mgrwt>
</event>
<event>
 5    1  0.6729100E-004  0.1406166E+03  0.7818608E-02  0.1586636E+00
         11   -1    0    0    0    0  0.00000000000E+00  0.00000000000E+00  0.10001480215E+04  0.10001480215E+04  0.51100000000E-03 0.  1.
          2   -1    0    0  501    0 -0.00000000000E+00 -0.00000000000E+00 -0.10827478946E+03  0.10827478949E+03  0.25500000000E-02 0.  1.
         11    1    1    2    0    0 -0.13393071726E+03  0.48866773205E+02  0.65437727574E+03  0.66972756966E+03  0.51100000000E-03 0.  1.
         22    1    1    2    0    0  0.11719172369E+03 -0.75032848929E+02  0.32085818795E+03  0.34973390641E+03  0.00000000000E+00 0.  1.
          2    1    1    2  501    0  0.16738993568E+02  0.26166075724E+02 -0.83362231693E+02  0.88961334881E+02  0.25500000000E-02 0.  1.
<mgrwt>
<rscale>  0 0.31062154E+02</rscale>
<asrwt>0</asrwt>
<pdfrwt beam="1">  1       11 0.10000000E+01 0.14061656E+03</pdfrwt>
<pdfrwt beam="2">  1        2 0.16660125E-01 0.31062154E+02</pdfrwt>
<totfact> 0.38480358E+02</totfact>
</mgrwt>
</event>
<event>
 5    1  0.6729100E-004  0.3992840E+03  0.7818608E-02  0.1044028E+00
         11   -1    0    0    0    0  0.00000000000E+00  0.00000000000E+00  0.10005940195E+04  0.10005940195E+04  0.51100000000E-03 0. -1.
          2   -1    0    0  501    0 -0.00000000000E+00 -0.00000000000E+00 -0.13580232434E+04  0.13580232434E+04  0.25500000000E-02 0. -1.
         11    1    1    2    0    0 -0.35466125057E+03  0.13960406994E+03  0.52279606861E+03  0.64698502947E+03  0.51100000000E-03 0. -1.
         22    1    1    2    0    0  0.21758327892E+02  0.83399462801E+02  0.37978589205E+03  0.38944347347E+03  0.00000000000E+00 0. -1.
          2    1    1    2  501    0  0.33290292268E+03 -0.22300353274E+03 -0.12600111846E+04  0.13221887600E+04  0.25500000000E-02 0. -1.
<mgrwt>
<rscale>  0 0.39928395E+03</rscale>
<asrwt>0</asrwt>
<pdfrwt beam="1">  1       11 0.10000000E+01 0.86191039E+02</pdfrwt>
<pdfrwt beam="2">  1        2 0.20905075E+00 0.39928395E+03</pdfrwt>
<totfact> 0.19888662E+01</totfact>
</mgrwt>
</event>
<event>
 5    1  0.6729100E-004  0.1878543E+03  0.7818608E-02  0.1168093E+00
         11   -1    0    0    0    0  0.00000000000E+00  0.00000000000E+00  0.10002889542E+04  0.10002889542E+04  0.51100000000E-03 0. -1.
         -2   -1    0    0    0  501 -0.00000000000E+00 -0.00000000000E+00 -0.19454980838E+03  0.19454980840E+03  0.25500000000E-02 0.  1.
         11    1    1    2    0    0  0.41111292010E+02  0.16312698990E+03  0.87814345920E+03  0.89411212278E+03  0.51100000000E-03 0. -1.
         22    1    1    2    0    0 -0.12128000873E+02  0.14221216702E+02  0.69363096721E+02  0.71837111554E+02  0.00000000000E+00 0. -1.
         -2    1    1    2    0  501 -0.28983291137E+02 -0.17734820660E+03 -0.14176741014E+03  0.22888952823E+03  0.25500000000E-02 0.  1.
<mgrwt>
<rscale>  0 0.17970091E+03</rscale>
<asrwt>0</asrwt>
<pdfrwt beam="1">  1       11 0.10000000E+01 0.18785433E+03</pdfrwt>
<pdfrwt beam="2">  1       -2 0.29939388E-01 0.17970091E+03</pdfrwt>
<totfact> 0.82273658E+01</totfact>
</mgrwt>
</event>
<event>
 5    1  0.6729100E-004  0.1088252E+03  0.7818608E-02  0.1598903E+00
         11   -1    0    0    0    0  0.00000000000E+00  0.00000000000E+00  0.10005641700E+04  0.10005641700E+04  0.51100000000E-03 0.  1.
          2   -1    0    0  501    0 -0.00000000000E+00 -0.00000000000E+00 -0.29144984249E+03  0.29144984250E+03  0.25500000000E-02 0. -1.
         11    1    1    2    0    0 -0.63144182580E+02  0.76650396064E+02  0.37491176686E+03  0.38784185430E+03  0.51100000000E-03 0.  1.
         22    1    1    2    0    0  0.92878346837E+02 -0.73263691883E+02  0.61272834605E+03  0.62404325324E+03  0.00000000000E+00 0.  1.
          2    1    1    2  501    0 -0.29734164257E+02 -0.33867041810E+01 -0.27852578538E+03  0.28012890500E+03  0.25500000000E-02 0. -1.
<mgrwt>
<rscale>  0 0.29926415E+02</rscale>
<asrwt>0</asrwt>
<pdfrwt beam="1">  1       11 0.10000000E+01 0.10882522E+03</pdfrwt>
<pdfrwt beam="2">  1        2 0.44863733E-01 0.29926415E+02</pdfrwt>
<totfact> 0.13723446E+02</totfact>
</mgrwt>
</event>
<event>
 5    1  0.6729100E-004  0.7237363E+02  0.7818608E-02  0.1352202E+00
         11   -1    0    0    0    0  0.00000000000E+00  0.00000000000E+00  0.10005290546E+04  0.10005290546E+04  0.51100000000E-03 0.  1.
         -2   -1    0    0    0  501 -0.00000000000E+00 -0.00000000000E+00 -0.18007457200E+02  0.18007457381E+02  0.25500000000E-02 0. -1.
         11    1    1    2    0    0 -0.56299162914E+02  0.57140241702E+02  0.12456256906E+03  0.14815679727E+03  0.51100000000E-03 0.  1.
         22    1    1    2    0    0 -0.14569632452E+02 -0.71822096919E+02  0.38460165494E+03  0.39152154574E+03  0.00000000000E+00 0. -1.
         -2    1    1    2    0  501  0.70868795367E+02  0.14681855218E+02  0.47335737336E+03  0.47885816893E+03  0.25500000000E-02 0. -1.
<mgrwt>
<rscale>  0 0.72373635E+02</rscale>
<asrwt>0</asrwt>
<pdfrwt beam="1">  1       11 0.10000000E+01 0.68509056E+02</pdfrwt>
<pdfrwt beam="2">  1       -2 0.27718436E-02 0.72373635E+02</pdfrwt>
<totfact> 0.32872294E+03</totfact>
</mgrwt>
</event>
<event>
 5    1  0.6729100E-004  0.3224739E+03  0.7818608E-02  0.1074516E+00
         11   -1    0    0    0    0  0.00000000000E+00  0.00000000000E+00  0.10004260692E+04  0.10004260692E+04  0.51100000000E-03 0. -1.
          2   -1    0    0  501    0 -0.00000000000E+00 -0.00000000000E+00 -0.24832798205E+03  0.24832798206E+03  0.25500000000E-02 0. -1.
         11    1    1    2    0    0  0.31642812723E+03 -0.17798114023E+03  0.69535011037E+03  0.78442069196E+03  0.51100000000E-03 0. -1.
         22    1    1    2    0    0 -0.20506089650E+02  0.66990857629E+02  0.12286887130E+03  0.14143915389E+03  0.00000000000E+00 0. -1.
          2    1    1    2  501    0 -0.29592203758E+03  0.11099028260E+03 -0.66120894561E+02  0.32289420537E+03  0.25500000000E-02 0. -1.
<mgrwt>
<rscale>  0 0.32247387E+03</rscale>
<asrwt>0</asrwt>
<pdfrwt beam="1">  1       11 0.10000000E+01 0.70059080E+02</pdfrwt>
<pdfrwt beam="2">  1        2 0.38220582E-01 0.32247387E+03</pdfrwt>
<totfact> 0.16669199E+02</totfact>
</mgrwt>
</event>
<event>
 5    1  0.6729100E-004  0.1532453E+03  0.7818608E-02  0.1199131E+00
         11   -1    0    0    0    0  0.00000000000E+00  0.00000000000E+00  0.99992944874E+03  0.99992944874E+03  0.51100000000E-03 0. -1.
          2   -1    0    0  501    0 -0.00000000000E+00 -0.00000000000E+00 -0.71781844065E+02  0.71781844111E+02  0.25500000000E-02 0. -1.
         11    1    1    2    0    0  0.12878111013E+03 -0.31613664253E+02  0.78368435161E+03  0.79482398117E+03  0.51100000000E-03 0. -1.
         22    1    1    2    0    0  0.19983645405E+02  0.51657310925E+01  0.12247053279E+03  0.12419767415E+03  0.00000000000E+00 0. -1.
          2    1    1    2  501    0 -0.14876475553E+03  0.26447933160E+02  0.21992720274E+02  0.15268963753E+03  0.25500000000E-02 0. -1.
<mgrwt>
<rscale>  0 0.15109747E+03</rscale>
<asrwt>0</asrwt>
<pdfrwt beam="1">  1       11 0.10000000E+01 0.15324532E+03</pdfrwt>
<pdfrwt beam="2">  1        2 0.11042581E-01 0.15109747E+03</pdfrwt>
<totfact> 0.67776702E+02</totfact>
</mgrwt>
</event>
<event>
 5    1  0.6729100E-004  0.2274021E+03  0.7818608E-02  0.1324663E+00
         11   -1    0    0    0    0  0.00000000000E+00  0.00000000000E+00  0.10001613199E+04  0.10001613199E+04  0.51100000000E-03 0. -1.
          2   -1    0    0  501    0 -0.00000000000E+00 -0.00000000000E+00 -0.33218818048E+03  0.33218818049E+03  0.25500000000E-02 0. -1.
         11    1    1    2    0    0 -0.13765446614E+03 -0.16155759014E+03 -0.29362953812E+02  0.21427036668E+03  0.51100000000E-03 0. -1.
         22    1    1    2    0    0  0.20203111359E+03  0.11146986264E+03  0.88440018456E+03  0.91400535424E+03  0.00000000000E+00 0. -1.
          2    1    1    2  501    0 -0.64376647448E+02  0.50087727499E+02 -0.18706409134E+03  0.20407377945E+03  0.25500000000E-02 0. -1.
<mgrwt>
<rscale>  0 0.81566741E+02</rscale>
<asrwt>0</asrwt>
<pdfrwt beam="1">  1       11 0.10000000E+01 0.22740205E+03</pdfrwt>
<pdfrwt beam="2">  1        2 0.51114117E-01 0.81566741E+02</pdfrwt>
<totfact> 0.12139945E+02</totfact>
</mgrwt>
</event>
<event>
 5    1  0.6729100E-004  0.1820392E+03  0.7818608E-02  0.1382222E+00
         11   -1    0    0    0    0  0.00000000000E+00  0.00000000000E+00  0.10001049806E+04  0.10001049806E+04  0.51100000000E-03 0. -1.
          2   -1    0    0  501    0 -0.00000000000E+00 -0.00000000000E+00 -0.80632963607E+03  0.80632963607E+03  0.25500000000E-02 0. -1.
         11    1    1    2    0    0  0.80028579451E+02 -0.17291247657E+03  0.29895026552E+03  0.35450607800E+03  0.51100000000E-03 0. -1.
         22    1    1    2    0    0 -0.16642719246E+02  0.18086874758E+03  0.65977293531E+03  0.68431776984E+03  0.00000000000E+00 0. -1.
          2    1    1    2  501    0 -0.63385860205E+02 -0.79562710020E+01 -0.76494785631E+03  0.76761076882E+03  0.25500000000E-02 0. -1.
<mgrwt>
<rscale>  0 0.63883249E+02</rscale>
<asrwt>0</asrwt>
<pdfrwt beam="1">  1       11 0.10000000E+01 0.18203919E+03</pdfrwt>
<pdfrwt beam="2">  1        2 0.12406373E+00 0.63883249E+02</pdfrwt>
<totfact> 0.46307819E+01</totfact>
</mgrwt>
</event>
<event>
 5    1  0.6729100E-004  0.1999081E+03  0.7818608E-02  0.1149817E+00
         11   -1    0    0    0    0  0.00000000000E+00  0.00000000000E+00  0.10004911706E+04  0.10004911706E+04  0.51100000000E-03 0. -1.
         -2   -1    0    0    0  501 -0.00000000000E+00 -0.00000000000E+00 -0.17102255487E+03  0.17102255489E+03  0.25500000000E-02 0. -1.
         11    1    1    2    0    0 -0.26240688545E+03 -0.10707757879E+03  0.55207692010E+02  0.28874014385E+03  0.51100000000E-03 0. -1.
         22    1    1    2    0    0  0.13089789116E+03  0.44067781862E+02  0.71018730376E+03  0.72349307788E+03  0.00000000000E+00 0. -1.
         -2    1    1    2    0  501  0.13150899430E+03  0.63009796926E+02  0.64073619910E+02  0.15928050372E+03  0.25500000000E-02 0. -1.
<mgrwt>
<rscale>  0 0.19990810E+03</rscale>
<asrwt>0</asrwt>
<pdfrwt beam="1">  1       11 0.10000000E+01 0.13811672E+03</pdfrwt>
<pdfrwt beam="2">  1       -2 0.26324085E-01 0.19990810E+03</pdfrwt>
<totfact> 0.10379836E+02</totfact>
</mgrwt>
</event>
<event>
 5    1  0.6729100E-004  0.1054570E+03  0.7818608E-02  0.1269222E+00
         11   -1    0    0    0    0  0.00000000000E+00  0.00000000000E+00  0.10005043144E+04  0.10005043144E+04  0.51100000000E-03 0. -1.
          2   -1    0    0  501    0 -0.00000000000E+00 -0.00000000000E+00 -0.16055784007E+02  0.16055784209E+02  0.25500000000E-02 0. -1.
         11    1    1    2    0    0  0.30645586452E+02 -0.10926941887E+03  0.43564481168E+03  0.45018369563E+03  0.51100000000E-03 0. -1.
         22    1    1    2    0    0 -0.36278781767E+02  0.80303751388E+01  0.18571664601E+03  0.18939722685E+03  0.00000000000E+00 0. -1.
          2    1    1    2  501    0  0.56331953150E+01  0.10123904373E+03  0.36308707267E+03  0.37697917610E+03  0.25500000000E-02 0. -1.
<mgrwt>
<rscale>  0 0.10545701E+03</rscale>
<asrwt>0</asrwt>
<pdfrwt beam="1">  1       11 0.10000000E+01 0.37156923E+02</pdfrwt>
<pdfrwt beam="2">  1        2 0.24713663E-02 0.10545701E+03</pdfrwt>
<totfact> 0.45552139E+03</totfact>
</mgrwt>
</event>
<event>
 5    1  0.6729100E-004  0.1147197E+03  0.7818608E-02  0.1252071E+00
         11   -1    0    0    0    0  0.00000000000E+00  0.00000000000E+00  0.99984362637E+03  0.99984362637E+03  0.51100000000E-03 0. -1.
          2   -1    0    0  501    0 -0.00000000000E+00 -0.00000000000E+00 -0.34729197952E+03  0.34729197953E+03  0.25500000000E-02 0. -1.
         11    1    1    2    0    0  0.12335703047E+03 -0.60481949835E+02  0.83091765117E+03  0.84219900632E+03  0.51100000000E-03 0. -1.
         22    1    1    2    0    0 -0.35848755649E+02 -0.13366706710E+02  0.15124173204E+03  0.15600597309E+03  0.00000000000E+00 0.  1.
          2    1    1    2  501    0 -0.87508274825E+02  0.73848656545E+02 -0.32960773635E+03  0.34893062649E+03  0.25500000000E-02 0. -1.
<mgrwt>
<rscale>  0 0.11471968E+03</rscale>
<asrwt>0</asrwt>
<pdfrwt beam="1">  1       11 0.10000000E+01 0.38259667E+02</pdfrwt>
<pdfrwt beam="2">  1        2 0.53421179E-01 0.11471968E+03</pdfrwt>
<totfact> 0.11598588E+02</totfact>
</mgrwt>
</event>
<event>
 5    1  0.6729100E-004  0.3493008E+03  0.7818608E-02  0.1062902E+00
         11   -1    0    0    0    0  0.00000000000E+00  0.00000000000E+00  0.10003332389E+04  0.10003332389E+04  0.51100000000E-03 0. -1.
          2   -1    0    0  501    0 -0.00000000000E+00 -0.00000000000E+00 -0.13886822647E+03  0.13886822650E+03  0.25500000000E-02 0. -1.
         11    1    1    2    0    0 -0.10340802396E+03 -0.31994514860E+03  0.20014400421E+03  0.39130006383E+03  0.51100000000E-03 0. -1.
         22    1    1    2    0    0  0.23355686973E+02  0.36555265765E+02  0.34757794708E+02  0.55586687814E+02  0.00000000000E+00 0.  1.
          2    1    1    2  501    0  0.80052336991E+02  0.28338988283E+03  0.62656321349E+03  0.69231471374E+03  0.25500000000E-02 0. -1.
<mgrwt>
<rscale>  0 0.34930077E+03</rscale>
<asrwt>0</asrwt>
<pdfrwt beam="1">  1       11 0.10000000E+01 0.33624133E+03</pdfrwt>
<pdfrwt beam="2">  1        2 0.21371461E-01 0.34930077E+03</pdfrwt>
<totfact> 0.31963501E+02</totfact>
</mgrwt>
</event>
<event>
 5    1  0.6729100E-004  0.1409277E+03  0.7818608E-02  0.1660516E+00
         11   -1    0    0    0    0  0.00000000000E+00  0.00000000000E+00  0.10002315827E+04  0.10002315827E+04  0.51100000000E-03 0. -1.
         -2   -1    0    0    0  501 -0.00000000000E+00 -0.00000000000E+00 -0.10682933849E+03  0.10682933852E+03  0.25500000000E-02 0.  1.
         11    1    1    2    0    0 -0.87153650393E+01  0.15433017678E+03  0.13346413561E+03  0.20422153791E+03  0.51100000000E-03 0. -1.
         22    1    1    2    0    0 -0.10649653358E+02 -0.13846539391E+03  0.82318562802E+03  0.83481773975E+03  0.00000000000E+00 0. -1.
         -2    1    1    2    0  501  0.19365018397E+02 -0.15864782867E+02 -0.63247519414E+02  0.68021643552E+02  0.25500000000E-02 0.  1.
<mgrwt>
<rscale>  0 0.25033883E+02</rscale>
<asrwt>0</asrwt>
<pdfrwt beam="1">  1       11 0.10000000E+01 0.14092773E+03</pdfrwt>
<pdfrwt beam="2">  1       -2 0.16439089E-01 0.25033883E+02</pdfrwt>
<totfact> 0.20850086E+02</totfact>
</mgrwt>
</event>
<event>
 5    1  0.6729100E-004  0.1264699E+03  0.7818608E-02  0.1232790E+00
         11   -1    0    0    0    0  0.00000000000E+00  0.00000000000E+00  0.10003035427E+04  0.10003035427E+04  0.51100000000E-03 0. -1.
         -2   -1    0    0    0  501 -0.00000000000E+00 -0.00000000000E+00 -0.15638784906E+02  0.15638785114E+02  0.25500000000E-02 0. -1.
         11    1    1    2    0    0 -0.55271170088E+02 -0.10842027995E+03  0.54682563567E+03  0.56020365509E+03  0.51100000000E-03 0. -1.
         22    1    1    2    0    0  0.12115340816E+02  0.75046108928E+01  0.86153732471E+02  0.87324488470E+02  0.00000000000E+00 0. -1.
         -2    1    1    2    0  501  0.43155829271E+02  0.10091566906E+03  0.35168538969E+03  0.36841418429E+03  0.25500000000E-02 0. -1.
<mgrwt>
<rscale>  0 0.12646992E+03</rscale>
<asrwt>0</asrwt>
<pdfrwt beam="1">  1       11 0.10000000E+01 0.12169577E+03</pdfrwt>
<pdfrwt beam="2">  1       -2 0.24066972E-02 0.12646992E+03</pdfrwt>
<totfact> 0.43189518E+03</totfact>
</mgrwt>
</event>
<event>
 5    1  0.6729100E-004  0.1855243E+03  0.7818608E-02  0.1162561E+00
         11   -1    0    0    0    0  0.00000000000E+00  0.00000000000E+00  0.10001765309E+04  0.10001765309E+04  0.51100000000E-03 0.  1.
          2   -1    0    0  501    0 -0.00000000000E+00 -0.00000000000E+00 -0.65873379870E+02  0.65873379919E+02  0.25500000000E-02 0.  1.
         11    1    1    2    0    0 -0.16436111128E+03  0.11176882506E+03  0.17405814806E+03  0.26420273288E+03  0.51100000000E-03 0.  1.
         22    1    1    2    0    0 -0.90808497580E+00 -0.87927707737E+02  0.25855863651E+03  0.27310194968E+03  0.00000000000E+00 0. -1.
          2    1    1    2  501    0  0.16526919625E+03 -0.23841117319E+02  0.50168636641E+03  0.52874522821E+03  0.25500000000E-02 0.  1.
<mgrwt>
<rscale>  0 0.18552433E+03</rscale>
<asrwt>0</asrwt>
<pdfrwt beam="1">  1       11 0.10000000E+01 0.87932397E+02</pdfrwt>
<pdfrwt beam="2">  1        2 0.10136155E-01 0.18552433E+03</pdfrwt>
<totfact> 0.76086784E+02</totfact>
</mgrwt>
</event>
<event>
 5    1  0.6729100E-004  0.3690620E+03  0.7818608E-02  0.1055052E+00
         11   -1    0    0    0    0  0.00000000000E+00  0.00000000000E+00  0.10003350713E+04  0.10003350713E+04  0.51100000000E-03 0. -1.
          2   -1    0    0  501    0 -0.00000000000E+00 -0.00000000000E+00 -0.38649309571E+03  0.38649309572E+03  0.25500000000E-02 0. -1.
         11    1    1    2    0    0  0.30798842961E+03 -0.26791288916E+03  0.59340902972E+03  0.72025583337E+03  0.51100000000E-03 0. -1.
         22    1    1    2    0    0 -0.17425331112E+03 -0.76098624116E+02  0.18241825565E+03  0.26349883685E+03  0.00000000000E+00 0.  1.
          2    1    1    2  501    0 -0.13373511849E+03  0.34401151327E+03 -0.16198530982E+03  0.40307349676E+03  0.25500000000E-02 0. -1.
<mgrwt>
<rscale>  0 0.36906196E+03</rscale>
<asrwt>0</asrwt>
<pdfrwt beam="1">  1       11 0.10000000E+01 0.19014525E+03</pdfrwt>
<pdfrwt beam="2">  1        2 0.59480398E-01 0.36906196E+03</pdfrwt>
<totfact> 0.10280859E+02</totfact>
</mgrwt>
</event>
<event>
 5    1  0.6729100E-004  0.2102364E+03  0.7818608E-02  0.1141379E+00
         11   -1    0    0    0    0  0.00000000000E+00  0.00000000000E+00  0.99977920957E+03  0.99977920957E+03  0.51100000000E-03 0. -1.
          2   -1    0    0  501    0 -0.00000000000E+00 -0.00000000000E+00 -0.11266451320E+04  0.11266451320E+04  0.25500000000E-02 0. -1.
         11    1    1    2    0    0 -0.20885316622E+03 -0.13411921824E+03  0.76998126273E+03  0.80899861229E+03  0.51100000000E-03 0. -1.
         22    1    1    2    0    0  0.22404653945E+02  0.37989299681E+02  0.19790356473E+03  0.20275841867E+03  0.00000000000E+00 0. -1.
          2    1    1    2  501    0  0.18644851227E+03  0.96129918556E+02 -0.10947507499E+04  0.11146673106E+04  0.25500000000E-02 0. -1.
<mgrwt>
<rscale>  0 0.21023644E+03</rscale>
<asrwt>0</asrwt>
<pdfrwt beam="1">  1       11 0.10000000E+01 0.44103916E+02</pdfrwt>
<pdfrwt beam="2">  1        2 0.17329175E+00 0.21023644E+03</pdfrwt>
<totfact> 0.27984762E+01</totfact>
</mgrwt>
</event>
<event>
 5    1  0.6729100E-004  0.4808340E+03  0.7818608E-02  0.1018906E+00
         11   -1    0    0    0    0  0.00000000000E+00  0.00000000000E+00  0.10002576181E+04  0.10002576181E+04  0.51100000000E-03 0.  1.
          2   -1    0    0  501    0 -0.00000000000E+00 -0.00000000000E+00 -0.21768764478E+04  0.21768764478E+04  0.25500000000E-02 0.  1.
         11    1    1    2    0    0 -0.31657953262E+03 -0.41356992239E+03  0.83573671231E+03  0.98474287684E+03  0.51100000000E-03 0.  1.
         22    1    1    2    0    0  0.31764135852E+02  0.27661348428E+02  0.55481337254E+02  0.69658375711E+02  0.00000000000E+00 0.  1.
          2    1    1    2  501    0  0.28481539677E+03  0.38590857396E+03 -0.20678368793E+04  0.21227328134E+04  0.25500000000E-02 0.  1.
<mgrwt>
<rscale>  0 0.48083401E+03</rscale>
<asrwt>0</asrwt>
<pdfrwt beam="1">  1       11 0.10000000E+01 0.42120191E+02</pdfrwt>
<pdfrwt beam="2">  1        2 0.33499034E+00 0.48083401E+03</pdfrwt>
<totfact> 0.70738147E+00</totfact>
</mgrwt>
</event>
<event>
 5    1  0.6729100E-004  0.1408709E+03  0.7818608E-02  0.1341659E+00
         11   -1    0    0    0    0  0.00000000000E+00  0.00000000000E+00  0.10000643697E+04  0.10000643697E+04  0.51100000000E-03 0.  1.
         -2   -1    0    0    0  501 -0.00000000000E+00 -0.00000000000E+00 -0.60472068380E+02  0.60472068433E+02  0.25500000000E-02 0. -1.
         11    1    1    2    0    0 -0.12277617283E+03  0.76674061170E+02  0.85343926363E+03  0.86562779355E+03  0.51100000000E-03 0.  1.
         22    1    1    2    0    0  0.40674612427E+02 -0.14217485757E+01  0.71912136045E+02  0.82630507536E+02  0.00000000000E+00 0. -1.
         -2    1    1    2    0  501  0.82101560404E+02 -0.75252312594E+02  0.14240901646E+02  0.11227813704E+03  0.25500000000E-02 0. -1.
<mgrwt>
<rscale>  0 0.75719022E+02</rscale>
<asrwt>0</asrwt>
<pdfrwt beam="1">  1       11 0.10000000E+01 0.14087094E+03</pdfrwt>
<pdfrwt beam="2">  1       -2 0.93039937E-02 0.75719022E+02</pdfrwt>
<totfact> 0.54892715E+02</totfact>
</mgrwt>
</event>
<event>
 5    1  0.6729100E-004  0.6595599E+02  0.7818608E-02  0.1627081E+00
         11   -1    0    0    0    0  0.00000000000E+00  0.00000000000E+00  0.10003503862E+04  0.10003503862E+04  0.51100000000E-03 0.  1.
          2   -1    0    0  501    0 -0.00000000000E+00 -0.00000000000E+00 -0.67730143031E+01  0.67730147832E+01  0.25500000000E-02 0.  1.
         11    1    1    2    0    0  0.44881248101E+02  0.49213582954E+02  0.23311948646E+03  0.24244792873E+03  0.51100000000E-03 0.  1.
         22    1    1    2    0    0 -0.94906987315E+01  0.64823328243E+01  0.58196539113E+02  0.59320579617E+02  0.00000000000E+00 0.  1.
          2    1    1    2  501    0 -0.35390549370E+02 -0.55695915778E+02  0.70226134635E+03  0.70535489266E+03  0.25500000000E-02 0.  1.
<mgrwt>
<rscale>  0 0.27532635E+02</rscale>
<asrwt>0</asrwt>
<pdfrwt beam="1">  1       11 0.10000000E+01 0.65955985E+02</pdfrwt>
<pdfrwt beam="2">  1        2 0.10423673E-02 0.27532635E+02</pdfrwt>
<totfact> 0.11599852E+04</totfact>
</mgrwt>
</event>
<event>
 5    1  0.6729100E-004  0.1568316E+03  0.7818608E-02  0.1192321E+00
         11   -1    0    0    0    0  0.00000000000E+00  0.00000000000E+00  0.10000357963E+04  0.10000357963E+04  0.51100000000E-03 0.  1.
         -2   -1    0    0    0  501 -0.00000000000E+00 -0.00000000000E+00 -0.60844011118E+02  0.60844011171E+02  0.25500000000E-02 0. -1.
         11    1    1    2    0    0 -0.70123903946E+02 -0.13335984341E+03  0.88069986940E+03  0.89349564615E+03  0.51100000000E-03 0.  1.
         22    1    1    2    0    0  0.42899843203E+02  0.37516584187E+02  0.25436790954E+02  0.62409301951E+02  0.00000000000E+00 0. -1.
         -2    1    1    2    0  501  0.27224060743E+02  0.95843259218E+02  0.33055124871E+02  0.10497485941E+03  0.25500000000E-02 0. -1.
<mgrwt>
<rscale>  0 0.15683161E+03</rscale>
<asrwt>0</asrwt>
<pdfrwt beam="1">  1       11 0.10000000E+01 0.15067252E+03</pdfrwt>
<pdfrwt beam="2">  1       -2 0.93609519E-02 0.15683161E+03</pdfrwt>
<totfact> 0.57120020E+02</totfact>
</mgrwt>
</event>
<event>
 5    1  0.6729100E-004  0.1003561E+03  0.7818608E-02  0.1543421E+00
         11   -1    0    0    0    0  0.00000000000E+00  0.00000000000E+00  0.10001165413E+04  0.10001165413E+04  0.51100000000E-03 0. -1.
          2   -1    0    0  501    0 -0.00000000000E+00 -0.00000000000E+00 -0.28977059289E+02  0.28977059401E+02  0.25500000000E-02 0. -1.
         11    1    1    2    0    0 -0.87082330226E+02  0.20435918356E+02  0.52217423010E+03  0.52978003509E+03  0.51100000000E-03 0. -1.
         22    1    1    2    0    0  0.12113642808E+03 -0.30779144535E+02  0.44647177517E+03  0.46363610296E+03  0.00000000000E+00 0. -1.
          2    1    1    2  501    0 -0.34054097856E+02  0.10343226179E+02  0.24934767424E+01  0.35677462652E+02  0.25500000000E-02 0. -1.
<mgrwt>
<rscale>  0 0.35590222E+02</rscale>
<asrwt>0</asrwt>
<pdfrwt beam="1">  1       11 0.10000000E+01 0.10035613E+03</pdfrwt>
<pdfrwt beam="2">  1        2 0.44585285E-02 0.35590222E+02</pdfrwt>
<totfact> 0.18544685E+03</totfact>
</mgrwt>
</event>
<event>
 5    1  0.6729100E-004  0.1284925E+03  0.7818608E-02  0.1323415E+00
         11   -1    0    0    0    0  0.00000000000E+00  0.00000000000E+00  0.10001244585E+04  0.10001244585E+04  0.51100000000E-03 0. -1.
          2   -1    0    0  501    0 -0.00000000000E+00 -0.00000000000E+00 -0.45905316133E+02  0.45905316203E+02  0.25500000000E-02 0. -1.
         11    1    1    2    0    0 -0.19453683029E+02 -0.18678797316E+03  0.41732733236E+03  0.45763554827E+03  0.51100000000E-03 0. -1.
         22    1    1    2    0    0 -0.92558028216E+01  0.10995678065E+03  0.46934083110E+03  0.48213792553E+03  0.00000000000E+00 0. -1.
          2    1    1    2  501    0  0.28709485851E+02  0.76831192512E+02  0.67550978854E+02  0.10625630085E+03  0.25500000000E-02 0. -1.
<mgrwt>
<rscale>  0 0.82019917E+02</rscale>
<asrwt>0</asrwt>
<pdfrwt beam="1">  1       11 0.10000000E+01 0.12849250E+03</pdfrwt>
<pdfrwt beam="2">  1        2 0.70632351E-02 0.82019917E+02</pdfrwt>
<totfact> 0.11312958E+03</totfact>
</mgrwt>
</event>
<event>
 5    1  0.6729100E-004  0.2420452E+03  0.7818608E-02  0.1277829E+00
         11   -1    0    0    0    0  0.00000000000E+00  0.00000000000E+00  0.99991482824E+03  0.99991482824E+03  0.51100000000E-03 0. -1.
          2   -1    0    0  501    0 -0.00000000000E+00 -0.00000000000E+00 -0.41548185104E+03  0.41548185105E+03  0.25500000000E-02 0. -1.
         11    1    1    2    0    0 -0.14594454680E+03  0.21075151197E+03  0.31584337273E+03  0.40678378365E+03  0.51100000000E-03 0. -1.
         22    1    1    2    0    0  0.48181030939E+02 -0.23683147213E+03  0.60808876793E+03  0.65435656000E+03  0.00000000000E+00 0. -1.
          2    1    1    2  501    0  0.97763515866E+02  0.26079960160E+02 -0.33949916346E+03  0.35425633565E+03  0.25500000000E-02 0. -1.
<mgrwt>
<rscale>  0 0.10118236E+03</rscale>
<asrwt>0</asrwt>
<pdfrwt beam="1">  1       11 0.10000000E+01 0.24204517E+03</pdfrwt>
<pdfrwt beam="2">  1        2 0.63914839E-01 0.10118236E+03</pdfrwt>
<totfact> 0.95989671E+01</totfact>
</mgrwt>
</event>
<event>
 5    1  0.6729100E-004  0.3980099E+03  0.7818608E-02  0.1044471E+00
         11   -1    0    0    0    0  0.00000000000E+00  0.00000000000E+00  0.99996682567E+03  0.99996682567E+03  0.51100000000E-03 0.  1.
          2   -1    0    0  501    0 -0.00000000000E+00 -0.00000000000E+00 -0.16932111173E+03  0.16932111175E+03  0.25500000000E-02 0.  1.
         11    1    1    2    0    0 -0.39274571644E+03  0.66981177497E+02  0.34042969762E+03  0.52404966839E+03  0.51100000000E-03 0.  1.
         22    1    1    2    0    0  0.26390311030E+01  0.98338098489E+01  0.54244193908E+02  0.55191492768E+02  0.00000000000E+00 0.  1.
          2    1    1    2  501    0  0.39010668534E+03 -0.76814987346E+02  0.43597182241E+03  0.59004677626E+03  0.25500000000E-02 0.  1.
<mgrwt>
<rscale>  0 0.39800986E+03</rscale>
<asrwt>0</asrwt>
<pdfrwt beam="1">  1       11 0.10000000E+01 0.10181763E+02</pdfrwt>
<pdfrwt beam="2">  1        2 0.26048537E-01 0.39800986E+03</pdfrwt>
<totfact> 0.25569236E+02</totfact>
</mgrwt>
</event>
<event>
 5    1  0.6729100E-004  0.1410860E+03  0.7818608E-02  0.1485694E+00
         11   -1    0    0    0    0  0.00000000000E+00  0.00000000000E+00  0.10000870834E+04  0.10000870834E+04  0.51100000000E-03 0.  1.
         -2   -1    0    0    0  501 -0.00000000000E+00 -0.00000000000E+00 -0.70152542201E+02  0.70152542247E+02  0.25500000000E-02 0.  1.
         11    1    1    2    0    0 -0.16626669818E+02  0.12173950061E+03  0.34509155815E+01  0.12291810679E+03  0.51100000000E-03 0.  1.
         22    1    1    2    0    0 -0.21654503212E+02 -0.14182727306E+03  0.81896417070E+03  0.83143623074E+03  0.00000000000E+00 0.  1.
         -2    1    1    2    0  501  0.38281173030E+02  0.20087772454E+02  0.10751945492E+03  0.11588528812E+03  0.25500000000E-02 0.  1.
<mgrwt>
<rscale>  0 0.43231549E+02</rscale>
<asrwt>0</asrwt>
<pdfrwt beam="1">  1       11 0.10000000E+01 0.14108596E+03</pdfrwt>
<pdfrwt beam="2">  1       -2 0.10793638E-01 0.43231549E+02</pdfrwt>
<totfact> 0.41817346E+02</totfact>
</mgrwt>
</event>
<event>
 5    1  0.6729100E-004  0.2463569E+03  0.7818608E-02  0.1118622E+00
         11   -1    0    0    0    0  0.00000000000E+00  0.00000000000E+00  0.10003033557E+04  0.10003033557E+04  0.51100000000E-03 0.  1.
         -2   -1    0    0    0  501 -0.00000000000E+00 -0.00000000000E+00 -0.12463441259E+03  0.12463441261E+03  0.25500000000E-02 0. -1.
         11    1    1    2    0    0 -0.17985244142E+03  0.14487357755E+03  0.78288120830E+03  0.81623418237E+03  0.51100000000E-03 0.  1.
         22    1    1    2    0    0 -0.14716565365E+01  0.15039870328E+02  0.63378940206E+02  0.65155610150E+02  0.00000000000E+00 0. -1.
         -2    1    1    2    0  501  0.18132409796E+03 -0.15991344787E+03  0.29408794612E+02  0.24354797580E+03  0.25500000000E-02 0. -1.
<mgrwt>
<rscale>  0 0.24176588E+03</rscale>
<asrwt>0</asrwt>
<pdfrwt beam="1">  1       11 0.10000000E+01 0.24635691E+03</pdfrwt>
<pdfrwt beam="2">  1       -2 0.19180341E-01 0.24176588E+03</pdfrwt>
<totfact> 0.18077940E+02</totfact>
</mgrwt>
</event>
<event>
 5    1  0.6729100E-004  0.1825124E+03  0.7818608E-02  0.1171617E+00
         11   -1    0    0    0    0  0.00000000000E+00  0.00000000000E+00  0.10002136773E+04  0.10002136773E+04  0.51100000000E-03 0.  1.
          2   -1    0    0  501    0 -0.00000000000E+00 -0.00000000000E+00 -0.25212460279E+03  0.25212460280E+03  0.25500000000E-02 0.  1.
         11    1    1    2    0    0  0.85082062716E+02  0.13627880863E+03  0.87948805578E+03  0.89404144833E+03  0.51100000000E-03 0.  1.
         22    1    1    2    0    0 -0.44585087162E+01  0.20297436709E+02  0.80284971713E+02  0.82930940666E+02  0.00000000000E+00 0.  1.
          2    1    1    2  501    0 -0.80623554000E+02 -0.15657624534E+03 -0.21168395294E+03  0.27536589114E+03  0.25500000000E-02 0.  1.
<mgrwt>
<rscale>  0 0.17611439E+03</rscale>
<asrwt>0</asrwt>
<pdfrwt beam="1">  1       11 0.10000000E+01 0.18251242E+03</pdfrwt>
<pdfrwt beam="2">  1        2 0.38796688E-01 0.17611439E+03</pdfrwt>
<totfact> 0.16324814E+02</totfact>
</mgrwt>
</event>
<event>
 5    1  0.6729100E-004  0.2312112E+03  0.7818608E-02  0.1125790E+00
         11   -1    0    0    0    0  0.00000000000E+00  0.00000000000E+00  0.10002533597E+04  0.10002533597E+04  0.51100000000E-03 0. -1.
          2   -1    0    0  501    0 -0.00000000000E+00 -0.00000000000E+00 -0.58987544020E+03  0.58987544020E+03  0.25500000000E-02 0. -1.
         11    1    1    2    0    0  0.22662556912E+03 -0.18084973072E+03  0.76824006582E+03  0.82113249382E+03  0.51100000000E-03 0. -1.
         22    1    1    2    0    0 -0.44582038573E+02  0.41147200726E+02  0.17693507516E+03  0.18704724299E+03  0.00000000000E+00 0.  1.
          2    1    1    2  501    0 -0.18204353055E+03  0.13970252999E+03 -0.53479722149E+03  0.58194906308E+03  0.25500000000E-02 0. -1.
<mgrwt>
<rscale>  0 0.23121120E+03</rscale>
<asrwt>0</asrwt>
<pdfrwt beam="1">  1       11 0.10000000E+01 0.60668363E+02</pdfrwt>
<pdfrwt beam="2">  1        2 0.90773058E-01 0.23121120E+03</pdfrwt>
<totfact> 0.64397645E+01</totfact>
</mgrwt>
</event>
<event>
 5    1  0.6729100E-004  0.1953430E+03  0.7818608E-02  0.1155450E+00
         11   -1    0    0    0    0  0.00000000000E+00  0.00000000000E+00  0.99966303129E+03  0.99966303129E+03  0.51100000000E-03 0. -1.
          2   -1    0    0  501    0 -0.00000000000E+00 -0.00000000000E+00 -0.31536690521E+03  0.31536690522E+03  0.25500000000E-02 0. -1.
         11    1    1    2    0    0  0.45373351181E+02 -0.17126042644E+03  0.89557148719E+03  0.91292779744E+03  0.51100000000E-03 0. -1.
         22    1    1    2    0    0  0.10478272749E+02 -0.13875449014E+02  0.63648325325E+02  0.65980539570E+02  0.00000000000E+00 0.  1.
          2    1    1    2  501    0 -0.55851623929E+02  0.18513587546E+03 -0.27492368644E+03  0.33612159950E+03  0.25500000000E-02 0. -1.
<mgrwt>
<rscale>  0 0.19337708E+03</rscale>
<asrwt>0</asrwt>
<pdfrwt beam="1">  1       11 0.10000000E+01 0.19534299E+03</pdfrwt>
<pdfrwt beam="2">  1        2 0.48501635E-01 0.19337708E+03</pdfrwt>
<totfact> 0.12859266E+02</totfact>
</mgrwt>
</event>
<event>
 5    1  0.6729100E-004  0.2352869E+03  0.7818608E-02  0.1122973E+00
         11   -1    0    0    0    0  0.00000000000E+00  0.00000000000E+00  0.10001056503E+04  0.10001056503E+04  0.51100000000E-03 0. -1.
          2   -1    0    0  501    0 -0.00000000000E+00 -0.00000000000E+00 -0.11185195909E+03  0.11185195912E+03  0.25500000000E-02 0. -1.
         11    1    1    2    0    0 -0.34473864762E+02  0.21915661357E+03  0.69087073903E+03  0.72561728664E+03  0.51100000000E-03 0. -1.
         22    1    1    2    0    0  0.50087886264E+02  0.19693251762E+02  0.12528818522E+03  0.13635890096E+03  0.00000000000E+00 0. -1.
          2    1    1    2  501    0 -0.15614021501E+02 -0.23884986533E+03  0.72094766987E+02  0.24998142185E+03  0.25500000000E-02 0. -1.
<mgrwt>
<rscale>  0 0.23528691E+03</rscale>
<asrwt>0</asrwt>
<pdfrwt beam="1">  1       11 0.10000000E+01 0.53820261E+02</pdfrwt>
<pdfrwt beam="2">  1        2 0.17209811E-01 0.23528691E+03</pdfrwt>
<totfact> 0.40653097E+02</totfact>
</mgrwt>
</event>
<event>
 5    1  0.6729100E-004  0.2048633E+03  0.7818608E-02  0.1255031E+00
         11   -1    0    0    0    0  0.00000000000E+00  0.00000000000E+00  0.10003440288E+04  0.10003440288E+04  0.51100000000E-03 0. -1.
          2   -1    0    0  501    0 -0.00000000000E+00 -0.00000000000E+00 -0.11416355582E+03  0.11416355584E+03  0.25500000000E-02 0. -1.
         11    1    1    2    0    0  0.25215129586E+03 -0.65955234113E+02  0.47694356229E+03  0.54351221745E+03  0.51100000000E-03 0. -1.
         22    1    1    2    0    0 -0.14588401064E+03  0.10451166271E+03  0.42069351427E+03  0.45737059936E+03  0.00000000000E+00 0. -1.
          2    1    1    2  501    0 -0.10626728521E+03 -0.38556428597E+02 -0.11456603581E+02  0.11362476783E+03  0.25500000000E-02 0. -1.
<mgrwt>
<rscale>  0 0.11304572E+03</rscale>
<asrwt>0</asrwt>
<pdfrwt beam="1">  1       11 0.10000000E+01 0.20486326E+03</pdfrwt>
<pdfrwt beam="2">  1        2 0.17569666E-01 0.11304572E+03</pdfrwt>
<totfact> 0.38672247E+02</totfact>
</mgrwt>
</event>
<event>
 5    1  0.6729100E-004  0.1647329E+03  0.7818608E-02  0.1183455E+00
         11   -1    0    0    0    0  0.00000000000E+00  0.00000000000E+00  0.10003745912E+04  0.10003745912E+04  0.51100000000E-03 0. -1.
          2   -1    0    0  501    0 -0.00000000000E+00 -0.00000000000E+00 -0.26690501974E+02  0.26690502096E+02  0.25500000000E-02 0. -1.
         11    1    1    2    0    0  0.52786972097E+02 -0.13973606850E+03  0.32324643007E+03  0.35609112291E+03  0.51100000000E-03 0. -1.
         22    1    1    2    0    0 -0.50195483317E+02  0.39546035983E+02  0.28184803301E+03  0.28900136543E+03  0.00000000000E+00 0.  1.
          2    1    1    2  501    0 -0.25914887798E+01  0.10019003252E+03  0.36858962618E+03  0.38197260500E+03  0.25500000000E-02 0. -1.
<mgrwt>
<rscale>  0 0.16473288E+03</rscale>
<asrwt>0</asrwt>
<pdfrwt beam="1">  1       11 0.10000000E+01 0.14937421E+03</pdfrwt>
<pdfrwt beam="2">  1        2 0.41077691E-02 0.16473288E+03</pdfrwt>
<totfact> 0.24132921E+03</totfact>
</mgrwt>
</event>
<event>
 5    1  0.6729100E-004  0.1028695E+03  0.7818608E-02  0.1619863E+00
         11   -1    0    0    0    0  0.00000000000E+00  0.00000000000E+00  0.10000905156E+04  0.10000905156E+04  0.51100000000E-03 0. -1.
         -2   -1    0    0    0  501 -0.00000000000E+00 -0.00000000000E+00 -0.17156339964E+02  0.17156340153E+02  0.25500000000E-02 0. -1.
         11    1    1    2    0    0 -0.10578776456E+03  0.59263014613E+02  0.40181897053E+03  0.41971614350E+03  0.51100000000E-03 0. -1.
         22    1    1    2    0    0  0.85908233302E+02 -0.39376393742E+02  0.53674489810E+03  0.54500074364E+03  0.00000000000E+00 0. -1.
         -2    1    1    2    0  501  0.19879531259E+02 -0.19886620871E+02  0.44370307014E+02  0.52529968626E+02  0.25500000000E-02 0. -1.
<mgrwt>
<rscale>  0 0.28118916E+02</rscale>
<asrwt>0</asrwt>
<pdfrwt beam="1">  1       11 0.10000000E+01 0.10286948E+03</pdfrwt>
<pdfrwt beam="2">  1       -2 0.26396758E-02 0.28118916E+02</pdfrwt>
<totfact> 0.30652843E+03</totfact>
</mgrwt>
</event>
<event>
 5    1  0.6729100E-004  0.3293189E+03  0.7818608E-02  0.1071439E+00
         11   -1    0    0    0    0  0.00000000000E+00  0.00000000000E+00  0.99983038336E+03  0.99983038336E+03  0.51100000000E-03 0. -1.
          2   -1    0    0  501    0 -0.00000000000E+00 -0.00000000000E+00 -0.39796342966E+03  0.39796342967E+03  0.25500000000E-02 0. -1.
         11    1    1    2    0    0 -0.29498891054E+03 -0.14092831746E+03  0.79805604396E+03  0.86242257467E+03  0.51100000000E-03 0. -1.
         22    1    1    2    0    0 -0.16270057322E+02  0.32214654985E+02  0.91148995174E+02  0.98033861916E+02  0.00000000000E+00 0.  1.
          2    1    1    2  501    0  0.31125896786E+03  0.10871366247E+03 -0.28733808544E+03  0.43733737644E+03  0.25500000000E-02 0. -1.
<mgrwt>
<rscale>  0 0.32931887E+03</rscale>
<asrwt>0</asrwt>
<pdfrwt beam="1">  1       11 0.10000000E+01 0.36090148E+02</pdfrwt>
<pdfrwt beam="2">  1        2 0.61214756E-01 0.32931887E+03</pdfrwt>
<totfact> 0.99699158E+01</totfact>
</mgrwt>
</event>
<event>
 5    1  0.4356692E-003  0.1637115E+03  0.7818608E-02  0.1184569E+00
         11   -1    0    0    0    0  0.00000000000E+00  0.00000000000E+00  0.99957018610E+03  0.99957018610E+03  0.51100000000E-03 0. -1.
          2   -1    0    0  501    0 -0.00000000000E+00 -0.00000000000E+00 -0.33723203984E+04  0.33723203984E+04  0.25500000000E-02 0.  1.
         11    1    1    2    0    0 -0.89837246421E+02 -0.13244865558E+03  0.94658213011E+03  0.96001620104E+03  0.51100000000E-03 0. -1.
         22    1    1    2    0    0 -0.27015812238E+02  0.17768736737E+02  0.38372609668E+02  0.50180068641E+02  0.00000000000E+00 0.  1.
          2    1    1    2  501    0  0.11685305866E+03  0.11467991884E+03 -0.33577049520E+04  0.33616943148E+04  0.25500000000E-02 0.  1.
<mgrwt>
<rscale>  0 0.16371149E+03</rscale>
<asrwt>0</asrwt>
<pdfrwt beam="1">  1       11 0.10000000E+01 0.32335462E+02</pdfrwt>
<pdfrwt beam="2">  1        2 0.51859551E+00 0.16371149E+03</pdfrwt>
<totfact> 0.16784573E+00</totfact>
</mgrwt>
</event>
<event>
 5    1  0.6729100E-004  0.1947055E+03  0.7818608E-02  0.1164300E+00
         11   -1    0    0    0    0  0.00000000000E+00  0.00000000000E+00  0.10005081575E+04  0.10005081575E+04  0.51100000000E-03 0. -1.
          2   -1    0    0  501    0 -0.00000000000E+00 -0.00000000000E+00 -0.71594265365E+03  0.71594265366E+03  0.25500000000E-02 0. -1.
         11    1    1    2    0    0 -0.70818018784E+02 -0.84953693469E+02  0.49276822313E+03  0.50502756711E+03  0.51100000000E-03 0. -1.
         22    1    1    2    0    0 -0.79778301107E+02 -0.20187556338E+02  0.48621334709E+03  0.49312831357E+03  0.00000000000E+00 0. -1.
          2    1    1    2  501    0  0.15059631989E+03  0.10514124981E+03 -0.69441606634E+03  0.71829493050E+03  0.25500000000E-02 0. -1.
<mgrwt>
<rscale>  0 0.18366800E+03</rscale>
<asrwt>0</asrwt>
<pdfrwt beam="1">  1       11 0.10000000E+01 0.19470554E+03</pdfrwt>
<pdfrwt beam="2">  1        2 0.11020099E+00 0.18366800E+03</pdfrwt>
<totfact> 0.51521601E+01</totfact>
</mgrwt>
</event>
<event>
 5    1  0.6729100E-004  0.1691077E+03  0.7818608E-02  0.1178782E+00
         11   -1    0    0    0    0  0.00000000000E+00  0.00000000000E+00  0.10002439270E+04  0.10002439270E+04  0.51100000000E-03 0. -1.
          2   -1    0    0  501    0 -0.00000000000E+00 -0.00000000000E+00 -0.10789668287E+04  0.10789668287E+04  0.25500000000E-02 0. -1.
         11    1    1    2    0    0 -0.11596226059E+03  0.13394365547E+03  0.91310306890E+03  0.93013190632E+03  0.51100000000E-03 0. -1.
         22    1    1    2    0    0 -0.16489773454E+02 -0.28864853647E+02  0.68085410557E+02  0.75767509761E+02  0.00000000000E+00 0. -1.
          2    1    1    2  501    0  0.13245203405E+03 -0.10507880182E+03 -0.10599113811E+04  0.10733113396E+04  0.25500000000E-02 0. -1.
<mgrwt>
<rscale>  0 0.16910768E+03</rscale>
<asrwt>0</asrwt>
<pdfrwt beam="1">  1       11 0.10000000E+01 0.33242930E+02</pdfrwt>
<pdfrwt beam="2">  1        2 0.16603538E+00 0.16910768E+03</pdfrwt>
<totfact> 0.30161093E+01</totfact>
</mgrwt>
</event>
<event>
 5    1  0.6729100E-004  0.2434299E+03  0.7818608E-02  0.1117529E+00
         11   -1    0    0    0    0  0.00000000000E+00  0.00000000000E+00  0.10002004132E+04  0.10002004132E+04  0.51100000000E-03 0.  1.
         -2   -1    0    0    0  501 -0.00000000000E+00 -0.00000000000E+00 -0.23779087985E+03  0.23779087986E+03  0.25500000000E-02 0. -1.
         11    1    1    2    0    0  0.21102799191E+03 -0.18745334792E+03  0.46727109418E+03  0.54590644480E+03  0.51100000000E-03 0.  1.
         22    1    1    2    0    0 -0.12549999412E+03 -0.38612389802E+02  0.40560837299E+03  0.42633240249E+03  0.00000000000E+00 0.  1.
         -2    1    1    2    0  501 -0.85527997790E+02  0.22606573772E+03 -0.11046993378E+03  0.26575244581E+03  0.25500000000E-02 0. -1.
<mgrwt>
<rscale>  0 0.24342990E+03</rscale>
<asrwt>0</asrwt>
<pdfrwt beam="1">  1       11 0.10000000E+01 0.13130562E+03</pdfrwt>
<pdfrwt beam="2">  1       -2 0.36590543E-01 0.24342990E+03</pdfrwt>
<totfact> 0.57010204E+01</totfact>
</mgrwt>
</event>
<event>
 5    1  0.6729100E-004  0.8452121E+02  0.7818608E-02  0.1316689E+00
         11   -1    0    0    0    0  0.00000000000E+00  0.00000000000E+00  0.10003972431E+04  0.10003972431E+04  0.51100000000E-03 0. -1.
          2   -1    0    0  501    0 -0.00000000000E+00 -0.00000000000E+00 -0.42658309371E+02  0.42658309447E+02  0.25500000000E-02 0. -1.
         11    1    1    2    0    0  0.12617933099E+03 -0.72394231336E+02  0.68322883093E+03  0.69854404565E+03  0.51100000000E-03 0. -1.
         22    1    1    2    0    0 -0.53485756003E+02  0.39058658379E+02  0.25324213475E+03  0.26175920940E+03  0.00000000000E+00 0. -1.
          2    1    1    2  501    0 -0.72693574989E+02  0.33335572957E+02  0.21267968036E+02  0.82752297490E+02  0.25500000000E-02 0. -1.
<mgrwt>
<rscale>  0 0.84521206E+02</rscale>
<asrwt>0</asrwt>
<pdfrwt beam="1">  1       11 0.10000000E+01 0.66229185E+02</pdfrwt>
<pdfrwt beam="2">  1        2 0.65654237E-02 0.84521206E+02</pdfrwt>
<totfact> 0.12429579E+03</totfact>
</mgrwt>
</event>
<event>
 5    1  0.6729100E-004  0.6502739E+03  0.7818608E-02  0.9806265E-01
         11   -1    0    0    0    0  0.00000000000E+00  0.00000000000E+00  0.10000583854E+04  0.10000583854E+04  0.51100000000E-03 0. -1.
          2   -1    0    0  501    0 -0.00000000000E+00 -0.00000000000E+00 -0.51183588070E+03  0.51183588070E+03  0.25500000000E-02 0. -1.
         11    1    1    2    0    0 -0.57280426801E+03 -0.38003039528E+03  0.12622870500E+03  0.69890021946E+03  0.51100000000E-03 0. -1.
         22    1    1    2    0    0  0.41496305803E+02  0.77416770936E+02  0.13441814474E+03  0.16057253019E+03  0.00000000000E+00 0. -1.
          2    1    1    2  501    0  0.53130796221E+03  0.30261362435E+03  0.22757565492E+03  0.65242151640E+03  0.25500000000E-02 0. -1.
<mgrwt>
<rscale>  0 0.65027387E+03</rscale>
<asrwt>0</asrwt>
<pdfrwt beam="1">  1       11 0.10000000E+01 0.87836779E+02</pdfrwt>
<pdfrwt beam="2">  1        2 0.78748577E-01 0.65027387E+03</pdfrwt>
<totfact> 0.74363810E+01</totfact>
</mgrwt>
</event>
<event>
 5    1  0.6729100E-004  0.2574875E+03  0.7818608E-02  0.1108662E+00
         11   -1    0    0    0    0  0.00000000000E+00  0.00000000000E+00  0.10004778668E+04  0.10004778668E+04  0.51100000000E-03 0. -1.
          2   -1    0    0  501    0 -0.00000000000E+00 -0.00000000000E+00 -0.30102440709E+03  0.30102440710E+03  0.25500000000E-02 0. -1.
         11    1    1    2    0    0 -0.68262409296E+01 -0.13249279491E+03 -0.15801044602E+03  0.20632071956E+03  0.51100000000E-03 0. -1.
         22    1    1    2    0    0  0.83603823822E+02 -0.13691884189E+03  0.79121684277E+03  0.80731682808E+03  0.00000000000E+00 0. -1.
          2    1    1    2  501    0 -0.76777582892E+02  0.26941163680E+03  0.66247062986E+02  0.28786472628E+03  0.25500000000E-02 0. -1.
<mgrwt>
<rscale>  0 0.25748750E+03</rscale>
<asrwt>0</asrwt>
<pdfrwt beam="1">  1       11 0.10000000E+01 0.13266859E+03</pdfrwt>
<pdfrwt beam="2">  1        2 0.46333577E-01 0.25748750E+03</pdfrwt>
<totfact> 0.13513096E+02</totfact>
</mgrwt>
</event>
<event>
 5    1  0.6729100E-004  0.9378443E+02  0.7818608E-02  0.1487117E+00
         11   -1    0    0    0    0  0.00000000000E+00  0.00000000000E+00  0.10002946927E+04  0.10002946927E+04  0.51100000000E-03 0.  1.
          2   -1    0    0  501    0 -0.00000000000E+00 -0.00000000000E+00 -0.16329597022E+02  0.16329597221E+02  0.25500000000E-02 0. -1.
         11    1    1    2    0    0 -0.58967468871E+02  0.68571609249E+02  0.46719632684E+03  0.47586934740E+03  0.51100000000E-03 0.  1.
         22    1    1    2    0    0  0.93887241077E+02 -0.43450969838E+02  0.44679757485E+03  0.45861844022E+03  0.00000000000E+00 0. -1.
          2    1    1    2  501    0 -0.34919772206E+02 -0.25120639411E+02  0.69971193957E+02  0.82136502272E+02  0.25500000000E-02 0. -1.
<mgrwt>
<rscale>  0 0.43016706E+02</rscale>
<asrwt>0</asrwt>
<pdfrwt beam="1">  1       11 0.10000000E+01 0.93784427E+02</pdfrwt>
<pdfrwt beam="2">  1        2 0.25129860E-02 0.43016706E+02</pdfrwt>
<totfact> 0.39659092E+03</totfact>
</mgrwt>
</event>
<event>
 5    1  0.6729100E-004  0.2666570E+03  0.7818608E-02  0.1103208E+00
         11   -1    0    0    0    0  0.00000000000E+00  0.00000000000E+00  0.99988947124E+03  0.99988947124E+03  0.51100000000E-03 0. -1.
          2   -1    0    0  501    0 -0.00000000000E+00 -0.00000000000E+00 -0.64462788261E+03  0.64462788261E+03  0.25500000000E-02 0. -1.
         11    1    1    2    0    0  0.28311609956E+03 -0.14050742948E+03  0.82977453718E+03  0.88793178010E+03  0.51100000000E-03 0. -1.
         22    1    1    2    0    0 -0.36183911816E+02  0.44232542340E+02  0.10488683391E+03  0.11944472029E+03  0.00000000000E+00 0.  1.
          2    1    1    2  501    0 -0.24693218775E+03  0.96274887139E+02 -0.57939978245E+03  0.63714085346E+03  0.25500000000E-02 0. -1.
<mgrwt>
<rscale>  0 0.26665702E+03</rscale>
<asrwt>0</asrwt>
<pdfrwt beam="1">  1       11 0.10000000E+01 0.57147120E+02</pdfrwt>
<pdfrwt beam="2">  1        2 0.99162556E-01 0.26665702E+03</pdfrwt>
<totfact> 0.57855167E+01</totfact>
</mgrwt>
</event>
<event>
 5    1  0.6729100E-004  0.1047365E+03  0.7818608E-02  0.1270640E+00
         11   -1    0    0    0    0  0.00000000000E+00  0.00000000000E+00  0.10002751366E+04  0.10002751366E+04  0.51100000000E-03 0.  1.
          2   -1    0    0  501    0 -0.00000000000E+00 -0.00000000000E+00 -0.17194696169E+02  0.17194696358E+02  0.25500000000E-02 0.  1.
         11    1    1    2    0    0 -0.75875773049E+02  0.70008418618E+02  0.21266853481E+03  0.23640265927E+03  0.51100000000E-03 0.  1.
         22    1    1    2    0    0  0.74116459615E+01  0.16444457993E+02  0.92176532375E+02  0.93924788076E+02  0.00000000000E+00 0.  1.
          2    1    1    2  501    0  0.68464127087E+02 -0.86452876611E+02  0.67823537329E+03  0.68714238565E+03  0.25500000000E-02 0.  1.
<mgrwt>
<rscale>  0 0.10473651E+03</rscale>
<asrwt>0</asrwt>
<pdfrwt beam="1">  1       11 0.10000000E+01 0.18037536E+02</pdfrwt>
<pdfrwt beam="2">  1        2 0.26460656E-02 0.10473651E+03</pdfrwt>
<totfact> 0.41527000E+03</totfact>
</mgrwt>
</event>
<event>
 5    1  0.6729100E-004  0.3184052E+03  0.7818608E-02  0.1076386E+00
         11   -1    0    0    0    0  0.00000000000E+00  0.00000000000E+00  0.10000975485E+04  0.10000975485E+04  0.51100000000E-03 0.  1.
          2   -1    0    0  501    0 -0.00000000000E+00 -0.00000000000E+00 -0.39908144925E+03  0.39908144925E+03  0.25500000000E-02 0.  1.
         11    1    1    2    0    0  0.20862995567E+03 -0.21770044843E+03  0.77655813376E+03  0.83304410374E+03  0.51100000000E-03 0.  1.
         22    1    1    2    0    0 -0.29546407672E+02 -0.47778095346E+02  0.11865215652E+03  0.13127860011E+03  0.00000000000E+00 0.  1.
          2    1    1    2  501    0 -0.17908354800E+03  0.26547854378E+03 -0.29419419099E+03  0.43485629395E+03  0.25500000000E-02 0.  1.
<mgrwt>
<rscale>  0 0.31840524E+03</rscale>
<asrwt>0</asrwt>
<pdfrwt beam="1">  1       11 0.10000000E+01 0.56175943E+02</pdfrwt>
<pdfrwt beam="2">  1        2 0.61403133E-01 0.31840524E+03</pdfrwt>
<totfact> 0.99390570E+01</totfact>
</mgrwt>
</event>
<event>
 5    1  0.6729100E-004  0.1909496E+03  0.7818608E-02  0.1157608E+00
         11   -1    0    0    0    0  0.00000000000E+00  0.00000000000E+00  0.10004466064E+04  0.10004466064E+04  0.51100000000E-03 0. -1.
          2   -1    0    0  501    0 -0.00000000000E+00 -0.00000000000E+00 -0.13578194164E+03  0.13578194167E+03  0.25500000000E-02 0. -1.
         11    1    1    2    0    0 -0.16419505226E+03  0.13626107369E+03  0.40694582878E+02  0.21721681442E+03  0.51100000000E-03 0. -1.
         22    1    1    2    0    0  0.13775456300E+03  0.47440765006E+02  0.64475987638E+03  0.66101606940E+03  0.00000000000E+00 0. -1.
          2    1    1    2  501    0  0.26440489256E+02 -0.18370183870E+03  0.17921020551E+03  0.25799566426E+03  0.25500000000E-02 0. -1.
<mgrwt>
<rscale>  0 0.19094964E+03</rscale>
<asrwt>0</asrwt>
<pdfrwt beam="1">  1       11 0.10000000E+01 0.14569470E+03</pdfrwt>
<pdfrwt beam="2">  1        2 0.20898858E-01 0.19094964E+03</pdfrwt>
<totfact> 0.32298168E+02</totfact>
</mgrwt>
</event>
<event>
 5    1  0.6729100E-004  0.1023452E+03  0.7818608E-02  0.1275440E+00
         11   -1    0    0    0    0  0.00000000000E+00  0.00000000000E+00  0.10003882705E+04  0.10003882705E+04  0.51100000000E-03 0. -1.
         -2   -1    0    0    0  501 -0.00000000000E+00 -0.00000000000E+00 -0.59705556912E+02  0.59705556966E+02  0.25500000000E-02 0.  1.
         11    1    1    2    0    0 -0.11856787785E+03  0.85000351138E+02  0.77811267518E+03  0.79167085120E+03  0.51100000000E-03 0. -1.
         22    1    1    2    0    0  0.36120470563E+02 -0.29156735845E+02  0.16233672040E+03  0.16884316518E+03  0.00000000000E+00 0. -1.
         -2    1    1    2    0  501  0.82447407288E+02 -0.55843615293E+02  0.23331803078E+00  0.99579811113E+02  0.25500000000E-02 0.  1.
<mgrwt>
<rscale>  0 0.10234518E+03</rscale>
<asrwt>0</asrwt>
<pdfrwt beam="1">  1       11 0.10000000E+01 0.46419863E+02</pdfrwt>
<pdfrwt beam="2">  1       -2 0.91890365E-02 0.10234518E+03</pdfrwt>
<totfact> 0.57184827E+02</totfact>
</mgrwt>
</event>
<event>
 5    1  0.6729100E-004  0.2776319E+03  0.7818608E-02  0.1096989E+00
         11   -1    0    0    0    0  0.00000000000E+00  0.00000000000E+00  0.99983879858E+03  0.99983879858E+03  0.51100000000E-03 0.  1.
          2   -1    0    0  501    0 -0.00000000000E+00 -0.00000000000E+00 -0.19157405128E+04  0.19157405128E+04  0.25500000000E-02 0. -1.
         11    1    1    2    0    0  0.45219283591E+02  0.23793411881E+03  0.67744746311E+03  0.71943901324E+03  0.51100000000E-03 0.  1.
         22    1    1    2    0    0  0.57308697846E+02  0.20698661402E+02  0.28797769840E+03  0.29435331866E+03  0.00000000000E+00 0.  1.
          2    1    1    2  501    0 -0.10252798144E+03 -0.25863278021E+03 -0.18813268758E+04  0.19017869795E+04  0.25500000000E-02 0. -1.
<mgrwt>
<rscale>  0 0.27763192E+03</rscale>
<asrwt>0</asrwt>
<pdfrwt beam="1">  1       11 0.10000000E+01 0.60932105E+02</pdfrwt>
<pdfrwt beam="2">  1        2 0.29468179E+00 0.27763192E+03</pdfrwt>
<totfact> 0.10295778E+01</totfact>
</mgrwt>
</event>
<event>
 5    1  0.6729100E-004  0.9041805E+02  0.7818608E-02  0.1301842E+00
         11   -1    0    0    0    0  0.00000000000E+00  0.00000000000E+00  0.10002742023E+04  0.10002742023E+04  0.51100000000E-03 0. -1.
          2   -1    0    0  501    0 -0.00000000000E+00 -0.00000000000E+00 -0.13443842287E+03  0.13443842289E+03  0.25500000000E-02 0. -1.
         11    1    1    2    0    0 -0.81025741763E+02 -0.62651331371E+02  0.61604093380E+03  0.62449723159E+03  0.51100000000E-03 0. -1.
         22    1    1    2    0    0  0.80707557355E+02 -0.28475927826E+02  0.35838067135E+03  0.36845799472E+03  0.00000000000E+00 0. -1.
          2    1    1    2  501    0  0.31818440785E+00  0.91127259197E+02 -0.10858582566E+03  0.14175739893E+03  0.25500000000E-02 0. -1.
<mgrwt>
<rscale>  0 0.90418046E+02</rscale>
<asrwt>0</asrwt>
<pdfrwt beam="1">  1       11 0.10000000E+01 0.85583809E+02</pdfrwt>
<pdfrwt beam="2">  1        2 0.20688505E-01 0.90418046E+02</pdfrwt>
<totfact> 0.31897742E+02</totfact>
</mgrwt>
</event>
<event>
 5    1  0.6729100E-004  0.3777684E+03  0.7818608E-02  0.1051762E+00
         11   -1    0    0    0    0  0.00000000000E+00  0.00000000000E+00  0.10001848508E+04  0.10001848508E+04  0.51100000000E-03 0. -1.
          2   -1    0    0  501    0 -0.00000000000E+00 -0.00000000000E+00 -0.14317281246E+03  0.14317281248E+03  0.25500000000E-02 0. -1.
         11    1    1    2    0    0  0.11905944045E+03 -0.32181102788E+03  0.23594063979E+03  0.41641982846E+03  0.51100000000E-03 0. -1.
         22    1    1    2    0    0 -0.14768101751E+03  0.17953388024E+03  0.39294970107E+03  0.45656496215E+03  0.00000000000E+00 0. -1.
          2    1    1    2  501    0  0.28621577060E+02  0.14227714764E+03  0.22812169749E+03  0.27037287269E+03  0.25500000000E-02 0. -1.
<mgrwt>
<rscale>  0 0.37776836E+03</rscale>
<asrwt>0</asrwt>
<pdfrwt beam="1">  1       11 0.10000000E+01 0.34312914E+03</pdfrwt>
<pdfrwt beam="2">  1        2 0.22030658E-01 0.37776836E+03</pdfrwt>
<totfact> 0.30918310E+02</totfact>
</mgrwt>
</event>
<event>
 5    1  0.6729100E-004  0.9412140E+02  0.7818608E-02  0.1293167E+00
         11   -1    0    0    0    0  0.00000000000E+00  0.00000000000E+00  0.10001582976E+04  0.10001582976E+04  0.51100000000E-03 0.  1.
          2   -1    0    0  501    0 -0.00000000000E+00 -0.00000000000E+00 -0.10530992588E+02  0.10530992897E+02  0.25500000000E-02 0.  1.
         11    1    1    2    0    0  0.87126375682E+02 -0.27002801851E+02  0.40864096993E+03  0.41869750292E+03  0.51100000000E-03 0.  1.
         22    1    1    2    0    0  0.98671356607E+01  0.11787868807E+02  0.85825109326E+02  0.87190960586E+02  0.00000000000E+00 0.  1.
          2    1    1    2  501    0 -0.96993511343E+02  0.15214933044E+02  0.49516122573E+03  0.50480082697E+03  0.25500000000E-02 0.  1.
<mgrwt>
<rscale>  0 0.94121403E+02</rscale>
<asrwt>0</asrwt>
<pdfrwt beam="1">  1       11 0.10000000E+01 0.15372515E+02</pdfrwt>
<pdfrwt beam="2">  1        2 0.16204091E-02 0.94121403E+02</pdfrwt>
<totfact> 0.79448300E+03</totfact>
</mgrwt>
</event>
<event>
 5    1  0.6729100E-004  0.5929543E+02  0.7818608E-02  0.1427187E+00
         11   -1    0    0    0    0  0.00000000000E+00  0.00000000000E+00  0.10004400100E+04  0.10004400100E+04  0.51100000000E-03 0.  1.
          2   -1    0    0  501    0 -0.00000000000E+00 -0.00000000000E+00 -0.13299413244E+02  0.13299413488E+02  0.25500000000E-02 0.  1.
         11    1    1    2    0    0  0.81315730813E+02 -0.79256748985E+01  0.16812254273E+03  0.18692312263E+03  0.51100000000E-03 0.  1.
         22    1    1    2    0    0 -0.39613555748E+02  0.41485662551E+02  0.33847308947E+03  0.34329917899E+03  0.00000000000E+00 0. -1.
          2    1    1    2  501    0 -0.41702175065E+02 -0.33559987652E+02  0.48054496454E+03  0.48351712186E+03  0.25500000000E-02 0.  1.
<mgrwt>
<rscale>  0 0.53528910E+02</rscale>
<asrwt>0</asrwt>
<pdfrwt beam="1">  1       11 0.10000000E+01 0.59295429E+02</pdfrwt>
<pdfrwt beam="2">  1        2 0.20469638E-02 0.53528910E+02</pdfrwt>
<totfact> 0.53607091E+03</totfact>
</mgrwt>
</event>
<event>
 5    1  0.6729100E-004  0.2960360E+03  0.7818608E-02  0.1087239E+00
         11   -1    0    0    0    0  0.00000000000E+00  0.00000000000E+00  0.99985910054E+03  0.99985910054E+03  0.51100000000E-03 0. -1.
          2   -1    0    0  501    0 -0.00000000000E+00 -0.00000000000E+00 -0.20187269292E+04  0.20187269292E+04  0.25500000000E-02 0. -1.
         11    1    1    2    0    0  0.11604840241E+03  0.26797385511E+03  0.88419744324E+03  0.93117256046E+03  0.51100000000E-03 0. -1.
         22    1    1    2    0    0  0.13852659000E+02 -0.19025318567E+01  0.80584046250E+02  0.81788167230E+02  0.00000000000E+00 0.  1.
          2    1    1    2  501    0 -0.12990106141E+03 -0.26607132326E+03 -0.19836493182E+04  0.20056253021E+04  0.25500000000E-02 0. -1.
<mgrwt>
<rscale>  0 0.29603602E+03</rscale>
<asrwt>0</asrwt>
<pdfrwt beam="1">  1       11 0.10000000E+01 0.13982696E+02</pdfrwt>
<pdfrwt beam="2">  1        2 0.31052961E+00 0.29603602E+03</pdfrwt>
<totfact> 0.90301978E+00</totfact>
</mgrwt>
</event>
<event>
 5    1  0.6729100E-004  0.6618323E+02  0.7818608E-02  0.1373575E+00
         11   -1    0    0    0    0  0.00000000000E+00  0.00000000000E+00  0.10005741777E+04  0.10005741777E+04  0.51100000000E-03 0. -1.
         -2   -1    0    0    0  501 -0.00000000000E+00 -0.00000000000E+00 -0.22344666920E+02  0.22344667066E+02  0.25500000000E-02 0.  1.
         11    1    1    2    0    0 -0.60548440636E+02  0.93772276021E+02  0.64036632164E+03  0.65002182986E+03  0.51100000000E-03 0. -1.
         22    1    1    2    0    0  0.34191254192E+02 -0.37807475429E+02  0.29062751093E+03  0.29506405605E+03  0.00000000000E+00 0. -1.
         -2    1    1    2    0  501  0.26357186443E+02 -0.55964800592E+02  0.47235678234E+02  0.77832958875E+02  0.25500000000E-02 0.  1.
<mgrwt>
<rscale>  0 0.66183227E+02</rscale>
<asrwt>0</asrwt>
<pdfrwt beam="1">  1       11 0.10000000E+01 0.50974965E+02</pdfrwt>
<pdfrwt beam="2">  1       -2 0.34396148E-02 0.66183227E+02</pdfrwt>
<totfact> 0.23800351E+03</totfact>
</mgrwt>
</event>
<event>
 5    1  0.6729100E-004  0.1298695E+03  0.7818608E-02  0.1664221E+00
         11   -1    0    0    0    0  0.00000000000E+00  0.00000000000E+00  0.10002351982E+04  0.10002351982E+04  0.51100000000E-03 0. -1.
          2   -1    0    0  501    0 -0.00000000000E+00 -0.00000000000E+00 -0.95516465792E+02  0.95516465826E+02  0.25500000000E-02 0.  1.
         11    1    1    2    0    0 -0.26810977302E+02 -0.13904139325E+03  0.61039470905E+03  0.62660437149E+03  0.51100000000E-03 0. -1.
         22    1    1    2    0    0  0.23272851319E+02  0.11451795440E+03  0.37078912663E+03  0.38876800784E+03  0.00000000000E+00 0. -1.
          2    1    1    2  501    0  0.35381259831E+01  0.24523438852E+02 -0.76465103256E+02  0.80379284713E+02  0.25500000000E-02 0.  1.
<mgrwt>
<rscale>  0 0.24777356E+02</rscale>
<asrwt>0</asrwt>
<pdfrwt beam="1">  1       11 0.10000000E+01 0.12986950E+03</pdfrwt>
<pdfrwt beam="2">  1        2 0.14698297E-01 0.24777356E+02</pdfrwt>
<totfact> 0.43494106E+02</totfact>
</mgrwt>
</event>
<event>
 5    1  0.6729100E-004  0.4613629E+03  0.7818608E-02  0.1026707E+00
         11   -1    0    0    0    0  0.00000000000E+00  0.00000000000E+00  0.99994012562E+03  0.99994012562E+03  0.51100000000E-03 0.  1.
          2   -1    0    0  501    0 -0.00000000000E+00 -0.00000000000E+00 -0.47627917368E+03  0.47627917368E+03  0.25500000000E-02 0.  1.
         11    1    1    2    0    0 -0.39729156458E+03 -0.18715070336E+03  0.79094933865E+03  0.90469156587E+03  0.51100000000E-03 0.  1.
         22    1    1    2    0    0 -0.19297731092E+02  0.81466317737E+01  0.24577173856E+02  0.32292530240E+02  0.00000000000E+00 0.  1.
          2    1    1    2  501    0  0.41658929567E+03  0.17900407159E+03 -0.29186556056E+03  0.53923520319E+03  0.25500000000E-02 0.  1.
<mgrwt>
<rscale>  0 0.45341934E+03</rscale>
<asrwt>0</asrwt>
<pdfrwt beam="1">  1       11 0.10000000E+01 0.46136288E+03</pdfrwt>
<pdfrwt beam="2">  1        2 0.73269330E-01 0.45341934E+03</pdfrwt>
<totfact> 0.81266237E+01</totfact>
</mgrwt>
</event>
<event>
 5    1  0.6729100E-004  0.5607501E+02  0.7818608E-02  0.1415082E+00
         11   -1    0    0    0    0  0.00000000000E+00  0.00000000000E+00  0.10001692978E+04  0.10001692978E+04  0.51100000000E-03 0.  1.
          2   -1    0    0  501    0 -0.00000000000E+00 -0.00000000000E+00 -0.86553658965E+01  0.86553662721E+01  0.25500000000E-02 0.  1.
         11    1    1    2    0    0  0.33329311939E+02 -0.46562075233E+02  0.15691130149E+03  0.16703300997E+03  0.51100000000E-03 0.  1.
         22    1    1    2    0    0 -0.38618382543E+02 -0.16769322880E+02  0.22672661478E+03  0.23060257482E+03  0.00000000000E+00 0.  1.
          2    1    1    2  501    0  0.52890706041E+01  0.63331398112E+02  0.60787601567E+03  0.61118907932E+03  0.25500000000E-02 0.  1.
<mgrwt>
<rscale>  0 0.56075006E+02</rscale>
<asrwt>0</asrwt>
<pdfrwt beam="1">  1       11 0.10000000E+01 0.42102134E+02</pdfrwt>
<pdfrwt beam="2">  1        2 0.13318202E-02 0.56075006E+02</pdfrwt>
<totfact> 0.95758125E+03</totfact>
</mgrwt>
</event>
<event>
 5    1  0.6729100E-004  0.1366781E+03  0.7818608E-02  0.1217870E+00
         11   -1    0    0    0    0  0.00000000000E+00  0.00000000000E+00  0.10000344192E+04  0.10000344192E+04  0.51100000000E-03 0.  1.
          2   -1    0    0  501    0 -0.00000000000E+00 -0.00000000000E+00 -0.28478897520E+02  0.28478897634E+02  0.25500000000E-02 0.  1.
         11    1    1    2    0    0 -0.76390874771E+01 -0.13298260078E+03  0.60358377752E+03  0.61810687122E+03  0.51100000000E-03 0.  1.
         22    1    1    2    0    0 -0.28800484655E+02 -0.10480803806E+01  0.14405284340E+03  0.14690741329E+03  0.00000000000E+00 0.  1.
          2    1    1    2  501    0  0.36439572132E+02  0.13403068116E+03  0.22391890078E+03  0.26349903234E+03  0.25500000000E-02 0.  1.
<mgrwt>
<rscale>  0 0.13667808E+03</rscale>
<asrwt>0</asrwt>
<pdfrwt beam="1">  1       11 0.10000000E+01 0.28819549E+02</pdfrwt>
<pdfrwt beam="2">  1        2 0.43815195E-02 0.13667808E+03</pdfrwt>
<totfact> 0.21803567E+03</totfact>
</mgrwt>
</event>
<event>
 5    1  0.6729100E-004  0.1549853E+03  0.7818608E-02  0.1640138E+00
         11   -1    0    0    0    0  0.00000000000E+00  0.00000000000E+00  0.10005809044E+04  0.10005809044E+04  0.51100000000E-03 0.  1.
         -2   -1    0    0    0  501 -0.00000000000E+00 -0.00000000000E+00 -0.71444506084E+02  0.71444506129E+02  0.25500000000E-02 0.  1.
         11    1    1    2    0    0 -0.14767220706E+03  0.65359134846E+02  0.10497404049E+03  0.19260956992E+03  0.51100000000E-03 0.  1.
         22    1    1    2    0    0  0.12913770666E+03 -0.84321250734E+02  0.83619384163E+03  0.85029804269E+03  0.00000000000E+00 0.  1.
         -2    1    1    2    0  501  0.18534500398E+02  0.18962115889E+02 -0.12031483848E+02  0.29117797892E+02  0.25500000000E-02 0.  1.
<mgrwt>
<rscale>  0 0.26515836E+02</rscale>
<asrwt>0</asrwt>
<pdfrwt beam="1">  1       11 0.10000000E+01 0.15498530E+03</pdfrwt>
<pdfrwt beam="2">  1       -2 0.10997847E-01 0.26515836E+02</pdfrwt>
<totfact> 0.38913638E+02</totfact>
</mgrwt>
</event>
<event>
 5    1  0.6729100E-004  0.1420847E+03  0.7818608E-02  0.1268522E+00
         11   -1    0    0    0    0  0.00000000000E+00  0.00000000000E+00  0.10004402957E+04  0.10004402957E+04  0.51100000000E-03 0.  1.
          2   -1    0    0  501    0 -0.00000000000E+00 -0.00000000000E+00 -0.14476260766E+03  0.14476260768E+03  0.25500000000E-02 0.  1.
         11    1    1    2    0    0  0.12099183554E+03  0.86657451214E+01  0.31990786881E+03  0.34213325465E+03  0.51100000000E-03 0.  1.
         22    1    1    2    0    0 -0.15440416303E+03  0.91735592726E+02  0.63384202884E+03  0.65879570586E+03  0.00000000000E+00 0.  1.
          2    1    1    2  501    0  0.33412327491E+02 -0.10040133785E+03 -0.98072209647E+02  0.14427394284E+03  0.25500000000E-02 0.  1.
<mgrwt>
<rscale>  0 0.10581499E+03</rscale>
<asrwt>0</asrwt>
<pdfrwt beam="1">  1       11 0.10000000E+01 0.14208469E+03</pdfrwt>
<pdfrwt beam="2">  1        2 0.22280976E-01 0.10581499E+03</pdfrwt>
<totfact> 0.29533653E+02</totfact>
</mgrwt>
</event>
<event>
 5    1  0.6729100E-004  0.1019113E+03  0.7818608E-02  0.1338860E+00
         11   -1    0    0    0    0  0.00000000000E+00  0.00000000000E+00  0.10001074246E+04  0.10001074246E+04  0.51100000000E-03 0. -1.
          2   -1    0    0  501    0 -0.00000000000E+00 -0.00000000000E+00 -0.52072234438E+02  0.52072234500E+02  0.25500000000E-02 0. -1.
         11    1    1    2    0    0  0.98457284872E+02 -0.19073361147E+02  0.22479061221E+02  0.10277615601E+03  0.51100000000E-03 0. -1.
         22    1    1    2    0    0 -0.26879256259E+01  0.57575705158E+02  0.86016333586E+02  0.10354224458E+03  0.00000000000E+00 0. -1.
          2    1    1    2  501    0 -0.95769359246E+02 -0.38502344012E+02  0.83953979532E+03  0.84586125848E+03  0.25500000000E-02 0. -1.
<mgrwt>
<rscale>  0 0.76642042E+02</rscale>
<asrwt>0</asrwt>
<pdfrwt beam="1">  1       11 0.10000000E+01 0.10191130E+03</pdfrwt>
<pdfrwt beam="2">  1        2 0.80119734E-02 0.76642042E+02</pdfrwt>
<totfact> 0.96240473E+02</totfact>
</mgrwt>
</event>
<event>
 5    1  0.6729100E-004  0.1176801E+03  0.7818608E-02  0.1653412E+00
         11   -1    0    0    0    0  0.00000000000E+00  0.00000000000E+00  0.10003640880E+04  0.10003640880E+04  0.51100000000E-03 0. -1.
          2   -1    0    0  501    0 -0.00000000000E+00 -0.00000000000E+00 -0.22565359161E+02  0.22565359305E+02  0.25500000000E-02 0. -1.
         11    1    1    2    0    0  0.29577926903E+02  0.10562812333E+03  0.42871881087E+03  0.44252906457E+03  0.51100000000E-03 0. -1.
         22    1    1    2    0    0 -0.14436072489E+02 -0.12619121836E+03  0.53760268421E+03  0.55240317690E+03  0.00000000000E+00 0. -1.
          2    1    1    2  501    0 -0.15141854414E+02  0.20563095035E+02  0.11477233743E+02  0.27997205815E+02  0.25500000000E-02 0. -1.
<mgrwt>
<rscale>  0 0.25536575E+02</rscale>
<asrwt>0</asrwt>
<pdfrwt beam="1">  1       11 0.10000000E+01 0.11768011E+03</pdfrwt>
<pdfrwt beam="2">  1        2 0.34728576E-02 0.25536575E+02</pdfrwt>
<totfact> 0.24265812E+03</totfact>
</mgrwt>
</event>
<event>
 5    1  0.6729100E-004  0.2410345E+03  0.7818608E-02  0.1119106E+00
         11   -1    0    0    0    0  0.00000000000E+00  0.00000000000E+00  0.10000817180E+04  0.10000817180E+04  0.51100000000E-03 0.  1.
          2   -1    0    0  501    0 -0.00000000000E+00 -0.00000000000E+00 -0.19408382192E+03  0.19408382193E+03  0.25500000000E-02 0.  1.
         11    1    1    2    0    0 -0.23212943555E+03 -0.25158376702E+02  0.79177227491E+03  0.82548189203E+03  0.51100000000E-03 0.  1.
         22    1    1    2    0    0 -0.95765742820E+01  0.16411069842E+02  0.10771618213E+03  0.10937920223E+03  0.00000000000E+00 0. -1.
          2    1    1    2  501    0  0.24170600983E+03  0.87473068594E+01 -0.93490560927E+02  0.25930444569E+03  0.25500000000E-02 0.  1.
<mgrwt>
<rscale>  0 0.24103449E+03</rscale>
<asrwt>0</asrwt>
<pdfrwt beam="1">  1       11 0.10000000E+01 0.19000894E+02</pdfrwt>
<pdfrwt beam="2">  1        2 0.29861489E-01 0.24103449E+03</pdfrwt>
<totfact> 0.21781725E+02</totfact>
</mgrwt>
</event>
<event>
 5    1  0.6729100E-004  0.1570101E+03  0.7818608E-02  0.1192114E+00
         11   -1    0    0    0    0  0.00000000000E+00  0.00000000000E+00  0.10001755445E+04  0.10001755445E+04  0.51100000000E-03 0.  1.
          2   -1    0    0  501    0 -0.00000000000E+00 -0.00000000000E+00 -0.37889053998E+02  0.37889054083E+02  0.25500000000E-02 0.  1.
         11    1    1    2    0    0 -0.10639685680E+03 -0.11891693137E+03  0.74819242989E+03  0.76501858791E+03  0.51100000000E-03 0.  1.
         22    1    1    2    0    0  0.99431462779E+01 -0.41476122317E+01  0.27896824785E+02  0.29904877164E+02  0.00000000000E+00 0. -1.
          2    1    1    2  501    0  0.96453710521E+02  0.12306454360E+03  0.18619723581E+03  0.24314113349E+03  0.25500000000E-02 0.  1.
<mgrwt>
<rscale>  0 0.15701013E+03</rscale>
<asrwt>0</asrwt>
<pdfrwt beam="1">  1       11 0.10000000E+01 0.10773525E+02</pdfrwt>
<pdfrwt beam="2">  1        2 0.58301083E-02 0.15701013E+03</pdfrwt>
<totfact> 0.15178292E+03</totfact>
</mgrwt>
</event>
<event>
 5    1  0.6729100E-004  0.3467161E+03  0.7818608E-02  0.1063971E+00
         11   -1    0    0    0    0  0.00000000000E+00  0.00000000000E+00  0.10002563149E+04  0.10002563149E+04  0.51100000000E-03 0. -1.
          2   -1    0    0  501    0 -0.00000000000E+00 -0.00000000000E+00 -0.15474935444E+03  0.15474935446E+03  0.25500000000E-02 0. -1.
         11    1    1    2    0    0  0.32531166315E+03 -0.88757691793E+02  0.36426920375E+03  0.49638458763E+03  0.51100000000E-03 0. -1.
         22    1    1    2    0    0  0.50369666507E+01 -0.43578194559E+02  0.20079291538E+03  0.20552913404E+03  0.00000000000E+00 0. -1.
          2    1    1    2  501    0 -0.33034862980E+03  0.13233588635E+03  0.28044484131E+03  0.45309194768E+03  0.25500000000E-02 0. -1.
<mgrwt>
<rscale>  0 0.34671610E+03</rscale>
<asrwt>0</asrwt>
<pdfrwt beam="1">  1       11 0.10000000E+01 0.43868327E+02</pdfrwt>
<pdfrwt beam="2">  1        2 0.23813695E-01 0.34671610E+03</pdfrwt>
<totfact> 0.28237917E+02</totfact>
</mgrwt>
</event>
<event>
 5    1  0.6729100E-004  0.3621853E+03  0.7818608E-02  0.1057722E+00
         11   -1    0    0    0    0  0.00000000000E+00  0.00000000000E+00  0.10000757079E+04  0.10000757079E+04  0.51100000000E-03 0. -1.
          2   -1    0    0  501    0 -0.00000000000E+00 -0.00000000000E+00 -0.47514352931E+03  0.47514352932E+03  0.25500000000E-02 0. -1.
         11    1    1    2    0    0 -0.30957149316E+03 -0.19808378274E+03  0.82037302037E+03  0.89893469558E+03  0.51100000000E-03 0. -1.
         22    1    1    2    0    0  0.18373862376E+02 -0.16601560670E+02  0.62579485569E+02  0.67300836915E+02  0.00000000000E+00 0. -1.
          2    1    1    2  501    0  0.29119763079E+03  0.21468534341E+03 -0.35802032737E+03  0.50898370471E+03  0.25500000000E-02 0. -1.
<mgrwt>
<rscale>  0 0.36218535E+03</rscale>
<asrwt>0</asrwt>
<pdfrwt beam="1">  1       11 0.10000000E+01 0.24763090E+02</pdfrwt>
<pdfrwt beam="2">  1        2 0.73104537E-01 0.36218535E+03</pdfrwt>
<totfact> 0.81746439E+01</totfact>
</mgrwt>
</event>
<event>
 5    1  0.6729100E-004  0.2125595E+03  0.7818608E-02  0.1139555E+00
         11   -1    0    0    0    0  0.00000000000E+00  0.00000000000E+00  0.10002720189E+04  0.10002720189E+04  0.51100000000E-03 0. -1.
         -2   -1    0    0    0  501 -0.00000000000E+00 -0.00000000000E+00 -0.80791201530E+03  0.80791201531E+03  0.25500000000E-02 0.  1.
         11    1    1    2    0    0 -0.41362173321E+02  0.22462509927E+03  0.80913862339E+03  0.84075714476E+03  0.51100000000E-03 0. -1.
         22    1    1    2    0    0  0.35183256723E+02 -0.12384265160E+02  0.15889636201E+03  0.16321545710E+03  0.00000000000E+00 0. -1.
         -2    1    1    2    0  501  0.61789165986E+01 -0.21224083411E+03 -0.77567498175E+03  0.80421143240E+03  0.25500000000E-02 0.  1.
<mgrwt>
<rscale>  0 0.21255946E+03</rscale>
<asrwt>0</asrwt>
<pdfrwt beam="1">  1       11 0.10000000E+01 0.37299217E+02</pdfrwt>
<pdfrwt beam="2">  1       -2 0.12432796E+00 0.21255946E+03</pdfrwt>
<totfact> 0.41804833E+00</totfact>
</mgrwt>
</event>
<event>
 5    1  0.6729100E-004  0.1521727E+03  0.7818608E-02  0.1498432E+00
         11   -1    0    0    0    0  0.00000000000E+00  0.00000000000E+00  0.10000276131E+04  0.10000276131E+04  0.51100000000E-03 0. -1.
          2   -1    0    0  501    0 -0.00000000000E+00 -0.00000000000E+00 -0.29598100146E+03  0.29598100147E+03  0.25500000000E-02 0.  1.
         11    1    1    2    0    0 -0.10964903499E+03 -0.11402323029E+03  0.39796500006E+03  0.42825266980E+03  0.51100000000E-03 0. -1.
         22    1    1    2    0    0  0.72349527840E+02  0.13189582326E+03  0.57567594896E+03  0.59500736179E+03  0.00000000000E+00 0. -1.
          2    1    1    2  501    0  0.37299507145E+02 -0.17872592969E+02 -0.26959433734E+03  0.27274858303E+03  0.25500000000E-02 0.  1.
<mgrwt>
<rscale>  0 0.41360402E+02</rscale>
<asrwt>0</asrwt>
<pdfrwt beam="1">  1       11 0.10000000E+01 0.15217274E+03</pdfrwt>
<pdfrwt beam="2">  1        2 0.45536795E-01 0.41360402E+02</pdfrwt>
<totfact> 0.13589528E+02</totfact>
</mgrwt>
</event>
<event>
 5    1  0.6729100E-004  0.7686620E+02  0.7818608E-02  0.1338188E+00
         11   -1    0    0    0    0  0.00000000000E+00  0.00000000000E+00  0.99991560979E+03  0.99991560979E+03  0.51100000000E-03 0. -1.
          2   -1    0    0  501    0 -0.00000000000E+00 -0.00000000000E+00 -0.13458910532E+02  0.13458910774E+02  0.25500000000E-02 0. -1.
         11    1    1    2    0    0  0.31662236518E+02 -0.81262373897E+02  0.46521377992E+03  0.47331800268E+03  0.51100000000E-03 0. -1.
         22    1    1    2    0    0  0.39028546165E+02  0.45744781710E+02  0.27165583139E+03  0.27823138428E+03  0.00000000000E+00 0.  1.
          2    1    1    2  501    0 -0.70690782683E+02  0.35517592187E+02  0.24958708795E+03  0.26182513361E+03  0.25500000000E-02 0. -1.
<mgrwt>
<rscale>  0 0.76866196E+02</rscale>
<asrwt>0</asrwt>
<pdfrwt beam="1">  1       11 0.10000000E+01 0.60131626E+02</pdfrwt>
<pdfrwt beam="2">  1        2 0.20704268E-02 0.76866196E+02</pdfrwt>
<totfact> 0.55541261E+03</totfact>
</mgrwt>
</event>
<event>
 5    1  0.6729100E-004  0.3002720E+03  0.7818608E-02  0.1085105E+00
         11   -1    0    0    0    0  0.00000000000E+00  0.00000000000E+00  0.10000538185E+04  0.10000538185E+04  0.51100000000E-03 0. -1.
          2   -1    0    0  501    0 -0.00000000000E+00 -0.00000000000E+00 -0.39928888724E+03  0.39928888725E+03  0.25500000000E-02 0. -1.
         11    1    1    2    0    0  0.20396697060E+03 -0.22360038122E+03 -0.30720640585E+03  0.43124868854E+03  0.51100000000E-03 0. -1.
         22    1    1    2    0    0  0.13777469707E+02  0.53480911399E+02  0.21706769469E+03  0.22398305881E+03  0.00000000000E+00 0.  1.
          2    1    1    2  501    0 -0.21774444030E+03  0.17011946982E+03  0.69090364242E+03  0.74411095840E+03  0.25500000000E-02 0. -1.
<mgrwt>
<rscale>  0 0.30027197E+03</rscale>
<asrwt>0</asrwt>
<pdfrwt beam="1">  1       11 0.10000000E+01 0.55227046E+02</pdfrwt>
<pdfrwt beam="2">  1        2 0.61432364E-01 0.30027197E+03</pdfrwt>
<totfact> 0.99387137E+01</totfact>
</mgrwt>
</event>
<event>
 5    1  0.6729100E-004  0.1276719E+03  0.7818608E-02  0.1230952E+00
         11   -1    0    0    0    0  0.00000000000E+00  0.00000000000E+00  0.10001831613E+04  0.10001831613E+04  0.51100000000E-03 0.  1.
          2   -1    0    0  501    0 -0.00000000000E+00 -0.00000000000E+00 -0.33592815129E+02  0.33592815226E+02  0.25500000000E-02 0.  1.
         11    1    1    2    0    0 -0.90935298038E+02 -0.40585454417E+02  0.43790023077E+03  0.44908019289E+03  0.51100000000E-03 0.  1.
         22    1    1    2    0    0  0.42388090235E+01 -0.79564009755E+02  0.31325931858E+03  0.32323335198E+03  0.00000000000E+00 0.  1.
          2    1    1    2  501    0  0.86696489014E+02  0.12014946417E+03  0.21543079685E+03  0.26146243170E+03  0.25500000000E-02 0.  1.
<mgrwt>
<rscale>  0 0.12767194E+03</rscale>
<asrwt>0</asrwt>
<pdfrwt beam="1">  1       11 0.10000000E+01 0.79676842E+02</pdfrwt>
<pdfrwt beam="2">  1        2 0.51690719E-02 0.12767194E+03</pdfrwt>
<totfact> 0.17460777E+03</totfact>
</mgrwt>
</event>
<event>
 5    1  0.6729100E-004  0.2488960E+03  0.7818608E-02  0.1536053E+00
         11   -1    0    0    0    0  0.00000000000E+00  0.00000000000E+00  0.10003180562E+04  0.10003180562E+04  0.51100000000E-03 0. -1.
          2   -1    0    0  501    0 -0.00000000000E+00 -0.00000000000E+00 -0.75139810712E+03  0.75139810713E+03  0.25500000000E-02 0. -1.
         11    1    1    2    0    0  0.21814776654E+03  0.15353469106E+03  0.51754975493E+03  0.58225346563E+03  0.51100000000E-03 0. -1.
         22    1    1    2    0    0 -0.19650081880E+03 -0.12420341739E+03  0.41990818449E+03  0.47996035678E+03  0.00000000000E+00 0. -1.
          2    1    1    2  501    0 -0.21646947741E+02 -0.29331273669E+02 -0.68853799035E+03  0.68950234091E+03  0.25500000000E-02 0. -1.
<mgrwt>
<rscale>  0 0.36454272E+02</rscale>
<asrwt>0</asrwt>
<pdfrwt beam="1">  1       11 0.10000000E+01 0.24889603E+03</pdfrwt>
<pdfrwt beam="2">  1        2 0.11563647E+00 0.36454272E+02</pdfrwt>
<totfact> 0.51319885E+01</totfact>
</mgrwt>
</event>
<event>
 5    1  0.6729100E-004  0.2559505E+03  0.7818608E-02  0.1109601E+00
         11   -1    0    0    0    0  0.00000000000E+00  0.00000000000E+00  0.10000483523E+04  0.10000483523E+04  0.51100000000E-03 0. -1.
          2   -1    0    0  501    0 -0.00000000000E+00 -0.00000000000E+00 -0.17581932430E+03  0.17581932432E+03  0.25500000000E-02 0. -1.
         11    1    1    2    0    0 -0.85861256207E+02  0.27347344513E+03  0.49375280579E+03  0.57092181052E+03  0.51100000000E-03 0. -1.
         22    1    1    2    0    0  0.99031830984E+02 -0.21624419012E+02  0.33776509440E+03  0.35264738485E+03  0.00000000000E+00 0. -1.
          2    1    1    2  501    0 -0.13170574777E+02 -0.25184902612E+03 -0.72888721445E+01  0.25229848129E+03  0.25500000000E-02 0. -1.
<mgrwt>
<rscale>  0 0.25595046E+03</rscale>
<asrwt>0</asrwt>
<pdfrwt beam="1">  1       11 0.10000000E+01 0.10136528E+03</pdfrwt>
<pdfrwt beam="2">  1        2 0.27050434E-01 0.25595046E+03</pdfrwt>
<totfact> 0.24325513E+02</totfact>
</mgrwt>
</event>
<event>
 5    1  0.6729100E-004  0.1909163E+03  0.7818608E-02  0.1162296E+00
         11   -1    0    0    0    0  0.00000000000E+00  0.00000000000E+00  0.10002388963E+04  0.10002388963E+04  0.51100000000E-03 0.  1.
          2   -1    0    0  501    0 -0.00000000000E+00 -0.00000000000E+00 -0.38116570666E+02  0.38116570751E+02  0.25500000000E-02 0. -1.
         11    1    1    2    0    0  0.15966208297E+03 -0.41084568534E+02  0.55312520989E+03  0.57717191575E+03  0.51100000000E-03 0.  1.
         22    1    1    2    0    0  0.15718462966E+02 -0.20288955585E+02  0.70745331629E+02  0.75256984686E+02  0.00000000000E+00 0.  1.
          2    1    1    2  501    0 -0.17538054594E+03  0.61373524118E+02  0.33825178411E+03  0.38592656661E+03  0.25500000000E-02 0. -1.
<mgrwt>
<rscale>  0 0.18580916E+03</rscale>
<asrwt>0</asrwt>
<pdfrwt beam="1">  1       11 0.10000000E+01 0.19091626E+03</pdfrwt>
<pdfrwt beam="2">  1        2 0.58654885E-02 0.18580916E+03</pdfrwt>
<totfact> 0.15243176E+03</totfact>
</mgrwt>
</event>
<event>
 5    1  0.6729100E-004  0.1151503E+03  0.7818608E-02  0.1395373E+00
         11   -1    0    0    0    0  0.00000000000E+00  0.00000000000E+00  0.10007194211E+04  0.10007194211E+04  0.51100000000E-03 0.  1.
          2   -1    0    0  501    0 -0.00000000000E+00 -0.00000000000E+00 -0.25995699904E+04  0.25995699904E+04  0.25500000000E-02 0. -1.
         11    1    1    2    0    0  0.88446929547E+02 -0.58442686795E+02  0.30124943267E+03  0.31935814953E+03  0.51100000000E-03 0.  1.
         22    1    1    2    0    0 -0.12596167818E+03  0.10863480062E+02  0.68426962344E+03  0.69585147634E+03  0.00000000000E+00 0.  1.
          2    1    1    2  501    0  0.37514748633E+02  0.47579206733E+02 -0.25843696255E+04  0.25850797857E+04  0.25500000000E-02 0. -1.
<mgrwt>
<rscale>  0 0.60589911E+02</rscale>
<asrwt>0</asrwt>
<pdfrwt beam="1">  1       11 0.10000000E+01 0.11515034E+03</pdfrwt>
<pdfrwt beam="2">  1        2 0.40022155E+00 0.60589911E+02</pdfrwt>
<totfact> 0.54251748E+00</totfact>
</mgrwt>
</event>
<event>
 5    1  0.6729100E-004  0.2674148E+03  0.7818608E-02  0.1104920E+00
         11   -1    0    0    0    0  0.00000000000E+00  0.00000000000E+00  0.10003796552E+04  0.10003796552E+04  0.51100000000E-03 0. -1.
          2   -1    0    0  501    0 -0.00000000000E+00 -0.00000000000E+00 -0.78967445509E+02  0.78967445551E+02  0.25500000000E-02 0. -1.
         11    1    1    2    0    0  0.60576533600E+02  0.23815971439E+03  0.24732500802E+03  0.34865344624E+03  0.51100000000E-03 0. -1.
         22    1    1    2    0    0  0.17744531149E+01  0.18098268419E+02  0.39548292883E+02  0.43528880914E+02  0.00000000000E+00 0.  1.
          2    1    1    2  501    0 -0.62350986715E+02 -0.25625798281E+03  0.63453890877E+03  0.68716477358E+03  0.25500000000E-02 0. -1.
<mgrwt>
<rscale>  0 0.26373433E+03</rscale>
<asrwt>0</asrwt>
<pdfrwt beam="1">  1       11 0.10000000E+01 0.26741482E+03</pdfrwt>
<pdfrwt beam="2">  1        2 0.12153450E-01 0.26373433E+03</pdfrwt>
<totfact> 0.61874333E+02</totfact>
</mgrwt>
</event>
<event>
 5    1  0.6729100E-004  0.1746451E+03  0.7818608E-02  0.1173088E+00
         11   -1    0    0    0    0  0.00000000000E+00  0.00000000000E+00  0.10000309396E+04  0.10000309396E+04  0.51100000000E-03 0. -1.
          2   -1    0    0  501    0 -0.00000000000E+00 -0.00000000000E+00 -0.49499649392E+03  0.49499649393E+03  0.25500000000E-02 0. -1.
         11    1    1    2    0    0  0.10955728166E+03  0.65562679807E+02  0.25304284150E+03  0.28342890217E+03  0.51100000000E-03 0. -1.
         22    1    1    2    0    0 -0.19604108679E+03  0.86208876520E+02  0.69931769675E+03  0.73137495109E+03  0.00000000000E+00 0. -1.
          2    1    1    2  501    0  0.86483805136E+02 -0.15177155633E+03 -0.44732609261E+03  0.48022358022E+03  0.25500000000E-02 0. -1.
<mgrwt>
<rscale>  0 0.17464514E+03</rscale>
<asrwt>0</asrwt>
<pdfrwt beam="1">  1       11 0.10000000E+01 0.12767640E+03</pdfrwt>
<pdfrwt beam="2">  1        2 0.76155661E-01 0.17464514E+03</pdfrwt>
<totfact> 0.78943743E+01</totfact>
</mgrwt>
</event>
<event>
 5    1  0.6729100E-004  0.1114761E+03  0.7818608E-02  0.1510702E+00
         11   -1    0    0    0    0  0.00000000000E+00  0.00000000000E+00  0.10004752916E+04  0.10004752916E+04  0.51100000000E-03 0. -1.
         -2   -1    0    0    0  501 -0.00000000000E+00 -0.00000000000E+00 -0.28741682864E+02  0.28741682977E+02  0.25500000000E-02 0.  1.
         11    1    1    2    0    0  0.12801372562E+03  0.16920959043E+02  0.69307517473E+03  0.70500144016E+03  0.51100000000E-03 0. -1.
         22    1    1    2    0    0 -0.88351676226E+02 -0.16576462005E+02  0.26867563177E+03  0.28331500647E+03  0.00000000000E+00 0. -1.
         -2    1    1    2    0  501 -0.39662049390E+02 -0.34449703798E+00  0.99828022493E+01  0.40900527959E+02  0.25500000000E-02 0.  1.
<mgrwt>
<rscale>  0 0.39663546E+02</rscale>
<asrwt>0</asrwt>
<pdfrwt beam="1">  1       11 0.10000000E+01 0.11147613E+03</pdfrwt>
<pdfrwt beam="2">  1       -2 0.44238989E-02 0.39663546E+02</pdfrwt>
<totfact> 0.15523527E+03</totfact>
</mgrwt>
</event>
<event>
 5    1  0.6729100E-004  0.2345844E+03  0.7818608E-02  0.1123454E+00
         11   -1    0    0    0    0  0.00000000000E+00  0.00000000000E+00  0.99993823059E+03  0.99993823059E+03  0.51100000000E-03 0. -1.
          2   -1    0    0  501    0 -0.00000000000E+00 -0.00000000000E+00 -0.49199338026E+03  0.49199338027E+03  0.25500000000E-02 0. -1.
         11    1    1    2    0    0  0.10384549879E+03 -0.21249602109E+03  0.86020981414E+03  0.89213192462E+03  0.51100000000E-03 0. -1.
         22    1    1    2    0    0 -0.21855711001E+02 -0.72639031332E+01  0.93389812258E+02  0.96187802894E+02  0.00000000000E+00 0. -1.
          2    1    1    2  501    0 -0.81989787789E+02  0.21975992422E+03 -0.44565477607E+03  0.50361188334E+03  0.25500000000E-02 0. -1.
<mgrwt>
<rscale>  0 0.23458435E+03</rscale>
<asrwt>0</asrwt>
<pdfrwt beam="1">  1       11 0.10000000E+01 0.23031205E+02</pdfrwt>
<pdfrwt beam="2">  1        2 0.75686612E-01 0.23458435E+03</pdfrwt>
<totfact> 0.79136351E+01</totfact>
</mgrwt>
</event>
<event>
 5    1  0.6729100E-004  0.2448559E+03  0.7818608E-02  0.1116600E+00
         11   -1    0    0    0    0  0.00000000000E+00  0.00000000000E+00  0.99973978227E+03  0.99973978227E+03  0.51100000000E-03 0.  1.
         -2   -1    0    0    0  501 -0.00000000000E+00 -0.00000000000E+00 -0.27709286150E+03  0.27709286151E+03  0.25500000000E-02 0. -1.
         11    1    1    2    0    0 -0.21082215435E+03  0.11054485451E+03  0.75161317703E+03  0.78840884921E+03  0.51100000000E-03 0.  1.
         22    1    1    2    0    0 -0.21023112511E+02 -0.29634906950E+02  0.16908893840E+03  0.17294874402E+03  0.00000000000E+00 0.  1.
         -2    1    1    2    0  501  0.23184526686E+03 -0.80909947563E+02 -0.19805519466E+03  0.31547505055E+03  0.25500000000E-02 0. -1.
<mgrwt>
<rscale>  0 0.24485588E+03</rscale>
<asrwt>0</asrwt>
<pdfrwt beam="1">  1       11 0.10000000E+01 0.36334542E+02</pdfrwt>
<pdfrwt beam="2">  1       -2 0.42618577E-01 0.24485588E+03</pdfrwt>
<totfact> 0.42608785E+01</totfact>
</mgrwt>
</event>
<event>
 5    1  0.6729100E-004  0.1999958E+03  0.7818608E-02  0.1155565E+00
         11   -1    0    0    0    0  0.00000000000E+00  0.00000000000E+00  0.10003143099E+04  0.10003143099E+04  0.51100000000E-03 0. -1.
         -2   -1    0    0    0  501 -0.00000000000E+00 -0.00000000000E+00 -0.89699013016E+02  0.89699013052E+02  0.25500000000E-02 0.  1.
         11    1    1    2    0    0 -0.11779324206E+03 -0.95078396924E+02  0.75972171275E+03  0.77465620133E+03  0.51100000000E-03 0. -1.
         22    1    1    2    0    0 -0.35395258126E+02 -0.22724669074E+02  0.11008703176E+03  0.11784901122E+03  0.00000000000E+00 0.  1.
         -2    1    1    2    0  501  0.15318850019E+03  0.11780306600E+03  0.40806552358E+02  0.19750811039E+03  0.25500000000E-02 0.  1.
<mgrwt>
<rscale>  0 0.19324668E+03</rscale>
<asrwt>0</asrwt>
<pdfrwt beam="1">  1       11 0.10000000E+01 0.19999576E+03</pdfrwt>
<pdfrwt beam="2">  1       -2 0.13804185E-01 0.19324668E+03</pdfrwt>
<totfact> 0.31029828E+02</totfact>
</mgrwt>
</event>
<event>
 5    1  0.6729100E-004  0.3962347E+03  0.7818608E-02  0.1045091E+00
         11   -1    0    0    0    0  0.00000000000E+00  0.00000000000E+00  0.10001323102E+04  0.10001323102E+04  0.51100000000E-03 0. -1.
          2   -1    0    0  501    0 -0.00000000000E+00 -0.00000000000E+00 -0.50689028859E+03  0.50689028860E+03  0.25500000000E-02 0. -1.
         11    1    1    2    0    0  0.24306669971E+03 -0.16028199609E+02  0.46032806713E+03  0.52080730897E+03  0.51100000000E-03 0. -1.
         22    1    1    2    0    0 -0.93501666120E+01 -0.34049311779E+03  0.32392854517E+03  0.47005605118E+03  0.00000000000E+00 0. -1.
          2    1    1    2  501    0 -0.23371653310E+03  0.35652131740E+03 -0.29101459071E+03  0.51615923862E+03  0.25500000000E-02 0. -1.
<mgrwt>
<rscale>  0 0.39623468E+03</rscale>
<asrwt>0</asrwt>
<pdfrwt beam="1">  1       11 0.10000000E+01 0.24359459E+03</pdfrwt>
<pdfrwt beam="2">  1        2 0.77993437E-01 0.39623468E+03</pdfrwt>
<totfact> 0.75850456E+01</totfact>
</mgrwt>
</event>
<event>
 5    1  0.6729100E-004  0.1254513E+03  0.7818608E-02  0.1234366E+00
         11   -1    0    0    0    0  0.00000000000E+00  0.00000000000E+00  0.10007543574E+04  0.10007543574E+04  0.51100000000E-03 0.  1.
          2   -1    0    0  501    0 -0.00000000000E+00 -0.00000000000E+00 -0.34994733069E+03  0.34994733070E+03  0.25500000000E-02 0. -1.
         11    1    1    2    0    0 -0.12076707841E+03  0.12597149787E+03  0.73151348229E+03  0.75204087673E+03  0.51100000000E-03 0.  1.
         22    1    1    2    0    0  0.35763891142E+02 -0.34747350638E+02  0.24493731346E+03  0.24996144064E+03  0.00000000000E+00 0.  1.
          2    1    1    2  501    0  0.85003187270E+02 -0.91224147236E+02 -0.32564376899E+03  0.34869937076E+03  0.25500000000E-02 0. -1.
<mgrwt>
<rscale>  0 0.12545129E+03</rscale>
<asrwt>0</asrwt>
<pdfrwt beam="1">  1       11 0.10000000E+01 0.49864158E+02</pdfrwt>
<pdfrwt beam="2">  1        2 0.53878662E-01 0.12545129E+03</pdfrwt>
<totfact> 0.11494248E+02</totfact>
</mgrwt>
</event>
<event>
 5    1  0.6729100E-004  0.1347963E+04  0.7818608E-02  0.8992371E-01
         11   -1    0    0    0    0  0.00000000000E+00  0.00000000000E+00  0.10008088490E+04  0.10008088490E+04  0.51100000000E-03 0. -1.
          2   -1    0    0  501    0 -0.00000000000E+00 -0.00000000000E+00 -0.19261549788E+04  0.19261549788E+04  0.25500000000E-02 0. -1.
         11    1    1    2    0    0 -0.47728214062E+03  0.12660285242E+04 -0.33989302254E+03  0.13950461400E+04  0.51100000000E-03 0. -1.
         22    1    1    2    0    0  0.68916469100E+02  0.14984607748E+02 -0.19855755913E+02  0.73268473612E+02  0.00000000000E+00 0.  1.
          2    1    1    2  501    0  0.40836567152E+03 -0.12810131320E+04 -0.56559735136E+03  0.14586492141E+04  0.25500000000E-02 0. -1.
<mgrwt>
<rscale>  0 0.13479635E+04</rscale>
<asrwt>0</asrwt>
<pdfrwt beam="1">  1       11 0.10000000E+01 0.70526720E+02</pdfrwt>
<pdfrwt beam="2">  1        2 0.29657121E+00 0.13479635E+04</pdfrwt>
<totfact> 0.88248798E+00</totfact>
</mgrwt>
</event>
<event>
 5    1  0.6729100E-004  0.9711523E+02  0.7818608E-02  0.1455793E+00
         11   -1    0    0    0    0  0.00000000000E+00  0.00000000000E+00  0.10002928763E+04  0.10002928763E+04  0.51100000000E-03 0. -1.
          2   -1    0    0  501    0 -0.00000000000E+00 -0.00000000000E+00 -0.21994999193E+02  0.21994999340E+02  0.25500000000E-02 0. -1.
         11    1    1    2    0    0 -0.15009600376E+01 -0.88158001726E+02  0.50438019317E+03  0.51202877400E+03  0.51100000000E-03 0. -1.
         22    1    1    2    0    0 -0.16578478657E+02  0.13274497313E+03  0.27789337616E+03  0.30841660519E+03  0.00000000000E+00 0. -1.
          2    1    1    2  501    0  0.18079438695E+02 -0.44586971406E+02  0.19602430783E+03  0.20184249649E+03  0.25500000000E-02 0. -1.
<mgrwt>
<rscale>  0 0.48113035E+02</rscale>
<asrwt>0</asrwt>
<pdfrwt beam="1">  1       11 0.10000000E+01 0.97115232E+02</pdfrwt>
<pdfrwt beam="2">  1        2 0.33848370E-02 0.48113035E+02</pdfrwt>
<totfact> 0.27354367E+03</totfact>
</mgrwt>
</event>
<event>
 5    1  0.6729100E-004  0.1179617E+03  0.7818608E-02  0.1250040E+00
         11   -1    0    0    0    0  0.00000000000E+00  0.00000000000E+00  0.10003492244E+04  0.10003492244E+04  0.51100000000E-03 0. -1.
          2   -1    0    0  501    0 -0.00000000000E+00 -0.00000000000E+00 -0.13801940883E+02  0.13801941119E+02  0.25500000000E-02 0. -1.
         11    1    1    2    0    0 -0.41255148924E+01 -0.10628634735E+03  0.40224513762E+03  0.41607085724E+03  0.51100000000E-03 0. -1.
         22    1    1    2    0    0 -0.72533998985E+01 -0.90410763842E+01  0.45146444841E+02  0.46610667813E+02  0.00000000000E+00 0.  1.
          2    1    1    2  501    0  0.11378914791E+02  0.11532742373E+03  0.53915570106E+03  0.55146964047E+03  0.25500000000E-02 0. -1.
<mgrwt>
<rscale>  0 0.11588742E+03</rscale>
<asrwt>0</asrwt>
<pdfrwt beam="1">  1       11 0.10000000E+01 0.11796171E+03</pdfrwt>
<pdfrwt beam="2">  1        2 0.21241170E-02 0.11588742E+03</pdfrwt>
<totfact> 0.56511792E+03</totfact>
</mgrwt>
</event>
<event>
 5    1  0.6729100E-004  0.1995366E+03  0.7818608E-02  0.1290683E+00
         11   -1    0    0    0    0  0.00000000000E+00  0.00000000000E+00  0.10008531843E+04  0.10008531843E+04  0.51100000000E-03 0.  1.
          2   -1    0    0  501    0 -0.00000000000E+00 -0.00000000000E+00 -0.10577042126E+04  0.10577042126E+04  0.25500000000E-02 0.  1.
         11    1    1    2    0    0  0.25119775591E+03 -0.28278082785E+02  0.13138109893E+03  0.28488761941E+03  0.51100000000E-03 0.  1.
         22    1    1    2    0    0 -0.17397216841E+03  0.83981601476E+02  0.77857579293E+03  0.80218419961E+03  0.00000000000E+00 0.  1.
          2    1    1    2  501    0 -0.77225587501E+02 -0.55703518690E+02 -0.96680792019E+03  0.97148557782E+03  0.25500000000E-02 0.  1.
<mgrwt>
<rscale>  0 0.95219081E+02</rscale>
<asrwt>0</asrwt>
<pdfrwt beam="1">  1       11 0.10000000E+01 0.19953656E+03</pdfrwt>
<pdfrwt beam="2">  1        2 0.16286255E+00 0.95219081E+02</pdfrwt>
<totfact> 0.31979878E+01</totfact>
</mgrwt>
</event>
<event>
 5    1  0.6729100E-004  0.1155935E+03  0.7818608E-02  0.1250549E+00
         11   -1    0    0    0    0  0.00000000000E+00  0.00000000000E+00  0.10002090594E+04  0.10002090594E+04  0.51100000000E-03 0.  1.
          2   -1    0    0  501    0 -0.00000000000E+00 -0.00000000000E+00 -0.16439756049E+02  0.16439756246E+02  0.25500000000E-02 0.  1.
         11    1    1    2    0    0 -0.79562690478E+02  0.78800423076E+02  0.37542377483E+03  0.39176873166E+03  0.51100000000E-03 0.  1.
         22    1    1    2    0    0 -0.18980614720E+02 -0.83509490920E+01  0.11692942092E+03  0.11875391177E+03  0.00000000000E+00 0.  1.
          2    1    1    2  501    0  0.98543305197E+02 -0.70449473984E+02  0.49141610756E+03  0.50612617217E+03  0.25500000000E-02 0.  1.
<mgrwt>
<rscale>  0 0.11559353E+03</rscale>
<asrwt>0</asrwt>
<pdfrwt beam="1">  1       11 0.10000000E+01 0.20736492E+02</pdfrwt>
<pdfrwt beam="2">  1        2 0.25297219E-02 0.11559353E+03</pdfrwt>
<totfact> 0.44609144E+03</totfact>
</mgrwt>
</event>
<event>
 5    1  0.6729100E-004  0.1329073E+03  0.7818608E-02  0.1608548E+00
         11   -1    0    0    0    0  0.00000000000E+00  0.00000000000E+00  0.10002346023E+04  0.10002346023E+04  0.51100000000E-03 0. -1.
          2   -1    0    0  501    0 -0.00000000000E+00 -0.00000000000E+00 -0.23289301478E+03  0.23289301480E+03  0.25500000000E-02 0. -1.
         11    1    1    2    0    0  0.12191503744E+03 -0.96271717239E+02  0.28928681442E+03  0.32835709356E+03  0.51100000000E-03 0. -1.
         22    1    1    2    0    0 -0.99473482529E+02  0.77786238769E+02  0.68462046616E+03  0.69616869748E+03  0.00000000000E+00 0. -1.
          2    1    1    2  501    0 -0.22441554915E+02  0.18485478470E+02 -0.20656569303E+03  0.20860182608E+03  0.25500000000E-02 0. -1.
<mgrwt>
<rscale>  0 0.29074668E+02</rscale>
<asrwt>0</asrwt>
<pdfrwt beam="1">  1       11 0.10000000E+01 0.13290731E+03</pdfrwt>
<pdfrwt beam="2">  1        2 0.35838099E-01 0.29074668E+02</pdfrwt>
<totfact> 0.17177393E+02</totfact>
</mgrwt>
</event>
<event>
 5    1  0.6729100E-004  0.1687779E+03  0.7818608E-02  0.1179128E+00
         11   -1    0    0    0    0  0.00000000000E+00  0.00000000000E+00  0.10001993122E+04  0.10001993122E+04  0.51100000000E-03 0.  1.
          2   -1    0    0  501    0 -0.00000000000E+00 -0.00000000000E+00 -0.71066793237E+03  0.71066793237E+03  0.25500000000E-02 0.  1.
         11    1    1    2    0    0 -0.32646566682E+02 -0.18637981458E+03  0.71216204375E+03  0.73687041612E+03  0.51100000000E-03 0.  1.
         22    1    1    2    0    0  0.78165761848E+02  0.23887930231E+02  0.25910298583E+03  0.27168893390E+03  0.00000000000E+00 0.  1.
          2    1    1    2  501    0 -0.45519195165E+02  0.16249188435E+03 -0.68173364973E+03  0.70230789457E+03  0.25500000000E-02 0.  1.
<mgrwt>
<rscale>  0 0.16877790E+03</rscale>
<asrwt>0</asrwt>
<pdfrwt beam="1">  1       11 0.10000000E+01 0.81734445E+02</pdfrwt>
<pdfrwt beam="2">  1        2 0.10935532E+00 0.16877790E+03</pdfrwt>
<totfact> 0.52139074E+01</totfact>
</mgrwt>
</event>
<event>
 5    1  0.6729100E-004  0.1452074E+03  0.7818608E-02  0.1212532E+00
         11   -1    0    0    0    0  0.00000000000E+00  0.00000000000E+00  0.10000106917E+04  0.10000106917E+04  0.51100000000E-03 0. -1.
          2   -1    0    0  501    0 -0.00000000000E+00 -0.00000000000E+00 -0.26663311676E+02  0.26663311798E+02  0.25500000000E-02 0. -1.
         11    1    1    2    0    0 -0.11111675065E+03  0.24945716176E+02  0.57369723264E+03  0.58489121704E+03  0.51100000000E-03 0. -1.
         22    1    1    2    0    0 -0.20973439338E+02  0.23209530091E+02  0.16736015985E+03  0.17025859904E+03  0.00000000000E+00 0. -1.
          2    1    1    2  501    0  0.13209018999E+03 -0.48155246267E+02  0.23228998752E+03  0.27152418740E+03  0.25500000000E-02 0. -1.
<mgrwt>
<rscale>  0 0.14059426E+03</rscale>
<asrwt>0</asrwt>
<pdfrwt beam="1">  1       11 0.10000000E+01 0.14520739E+03</pdfrwt>
<pdfrwt beam="2">  1        2 0.41020917E-02 0.14059426E+03</pdfrwt>
<totfact> 0.23844594E+03</totfact>
</mgrwt>
</event>
<event>
 5    1  0.6729100E-004  0.1689847E+03  0.7818608E-02  0.1182264E+00
         11   -1    0    0    0    0  0.00000000000E+00  0.00000000000E+00  0.10004566926E+04  0.10004566926E+04  0.51100000000E-03 0.  1.
          2   -1    0    0  501    0 -0.00000000000E+00 -0.00000000000E+00 -0.33624449337E+03  0.33624449338E+03  0.25500000000E-02 0.  1.
         11    1    1    2    0    0  0.29035292781E+02  0.13730097462E+03  0.80242322723E+03  0.81460275071E+03  0.51100000000E-03 0.  1.
         22    1    1    2    0    0  0.18993434675E+02  0.21424689638E+02  0.16984565060E+03  0.17224201843E+03  0.00000000000E+00 0. -1.
          2    1    1    2  501    0 -0.48028727457E+02 -0.15872566426E+03 -0.30805667861E+03  0.34985641683E+03  0.25500000000E-02 0.  1.
<mgrwt>
<rscale>  0 0.16583303E+03</rscale>
<asrwt>0</asrwt>
<pdfrwt beam="1">  1       11 0.10000000E+01 0.16898470E+03</pdfrwt>
<pdfrwt beam="2">  1        2 0.51753545E-01 0.16583303E+03</pdfrwt>
<totfact> 0.11995674E+02</totfact>
</mgrwt>
</event>
<event>
 5    1  0.6729100E-004  0.1036104E+03  0.7818608E-02  0.1272882E+00
         11   -1    0    0    0    0  0.00000000000E+00  0.00000000000E+00  0.99998626560E+03  0.99998626560E+03  0.51100000000E-03 0.  1.
          2   -1    0    0  501    0 -0.00000000000E+00 -0.00000000000E+00 -0.34810701349E+02  0.34810701442E+02  0.25500000000E-02 0.  1.
         11    1    1    2    0    0  0.98983588420E+02 -0.22472663400E+02  0.63940435338E+02  0.11996312203E+03  0.51100000000E-03 0.  1.
         22    1    1    2    0    0  0.24386739740E+02  0.22550599206E+02  0.16129639968E+03  0.16468081597E+03  0.00000000000E+00 0.  1.
          2    1    1    2  501    0 -0.12337032816E+03 -0.77935805697E-01  0.73993872924E+03  0.75015302904E+03  0.25500000000E-02 0.  1.
<mgrwt>
<rscale>  0 0.10361040E+03</rscale>
<asrwt>0</asrwt>
<pdfrwt beam="1">  1       11 0.10000000E+01 0.33215096E+02</pdfrwt>
<pdfrwt beam="2">  1        2 0.53554188E-02 0.10361040E+03</pdfrwt>
<totfact> 0.16389292E+03</totfact>
</mgrwt>
</event>
<event>
 5    1  0.6729100E-004  0.6746538E+02  0.7818608E-02  0.1511616E+00
         11   -1    0    0    0    0  0.00000000000E+00  0.00000000000E+00  0.10003303678E+04  0.10003303678E+04  0.51100000000E-03 0. -1.
          2   -1    0    0  501    0 -0.00000000000E+00 -0.00000000000E+00 -0.66447502191E+01  0.66447507084E+01  0.25500000000E-02 0. -1.
         11    1    1    2    0    0  0.44514758719E+02  0.58490122530E+02  0.43338899064E+03  0.43957783769E+03  0.51100000000E-03 0. -1.
         22    1    1    2    0    0 -0.23059633097E+02  0.23072714637E+01  0.10277728471E+03  0.10535767856E+03  0.00000000000E+00 0. -1.
          2    1    1    2  501    0 -0.21455125623E+02 -0.60797393993E+02  0.45751934224E+03  0.46203960227E+03  0.25500000000E-02 0. -1.
<mgrwt>
<rscale>  0 0.39541045E+02</rscale>
<asrwt>0</asrwt>
<pdfrwt beam="1">  1       11 0.10000000E+01 0.67465382E+02</pdfrwt>
<pdfrwt beam="2">  1        2 0.10226070E-02 0.39541045E+02</pdfrwt>
<totfact> 0.12803257E+04</totfact>
</mgrwt>
</event>
<event>
 5    1  0.6729100E-004  0.1186530E+03  0.7818608E-02  0.1245336E+00
         11   -1    0    0    0    0  0.00000000000E+00  0.00000000000E+00  0.10002132693E+04  0.10002132693E+04  0.51100000000E-03 0. -1.
          2   -1    0    0  501    0 -0.00000000000E+00 -0.00000000000E+00 -0.15816308640E+02  0.15816308846E+02  0.25500000000E-02 0. -1.
         11    1    1    2    0    0 -0.11215392885E+03  0.37030970752E+02  0.45171630806E+03  0.46690193780E+03  0.51100000000E-03 0. -1.
         22    1    1    2    0    0 -0.48949832421E+01 -0.12495436708E+02  0.67404262380E+02  0.68727224493E+02  0.00000000000E+00 0.  1.
          2    1    1    2  501    0  0.11704891209E+03 -0.24535534044E+02  0.46527639019E+03  0.48040041583E+03  0.25500000000E-02 0. -1.
<mgrwt>
<rscale>  0 0.11865304E+03</rscale>
<asrwt>0</asrwt>
<pdfrwt beam="1">  1       11 0.10000000E+01 0.13420015E+02</pdfrwt>
<pdfrwt beam="2">  1        2 0.24337971E-02 0.11865304E+03</pdfrwt>
<totfact> 0.47135405E+03</totfact>
</mgrwt>
</event>
<event>
 5    1  0.6729100E-004  0.2255364E+03  0.7818608E-02  0.1129821E+00
         11   -1    0    0    0    0  0.00000000000E+00  0.00000000000E+00  0.10001663605E+04  0.10001663605E+04  0.51100000000E-03 0.  1.
          2   -1    0    0  501    0 -0.00000000000E+00 -0.00000000000E+00 -0.67352828653E+02  0.67352828701E+02  0.25500000000E-02 0.  1.
         11    1    1    2    0    0  0.20960063782E+03  0.27644446205E+02  0.29604335781E+03  0.36378333178E+03  0.51100000000E-03 0.  1.
         22    1    1    2    0    0  0.37409510913E+02 -0.18235550920E+02  0.17593980492E+03  0.18079497166E+03  0.00000000000E+00 0.  1.
          2    1    1    2  501    0 -0.24701014873E+03 -0.94088952845E+01  0.46083036915E+03  0.52294088578E+03  0.25500000000E-02 0.  1.
<mgrwt>
<rscale>  0 0.22553637E+03</rscale>
<asrwt>0</asrwt>
<pdfrwt beam="1">  1       11 0.10000000E+01 0.41617386E+02</pdfrwt>
<pdfrwt beam="2">  1        2 0.10363697E-01 0.22553637E+03</pdfrwt>
<totfact> 0.74751346E+02</totfact>
</mgrwt>
</event>
<event>
 5    1  0.6729100E-004  0.2570566E+03  0.7818608E-02  0.1108925E+00
         11   -1    0    0    0    0  0.00000000000E+00  0.00000000000E+00  0.99989512080E+03  0.99989512080E+03  0.51100000000E-03 0. -1.
          2   -1    0    0  501    0 -0.00000000000E+00 -0.00000000000E+00 -0.27657670945E+03  0.27657670946E+03  0.25500000000E-02 0. -1.
         11    1    1    2    0    0  0.14218296337E+03 -0.16369269002E+03  0.82114277829E+03  0.84928602613E+03  0.51100000000E-03 0. -1.
         22    1    1    2    0    0  0.60708013879E+02  0.23577850800E+00  0.88182031805E+02  0.10705881222E+03  0.00000000000E+00 0.  1.
          2    1    1    2  501    0 -0.20289097725E+03  0.16345691151E+03 -0.18600639875E+03  0.32012699191E+03  0.25500000000E-02 0. -1.
<mgrwt>
<rscale>  0 0.25705660E+03</rscale>
<asrwt>0</asrwt>
<pdfrwt beam="1">  1       11 0.10000000E+01 0.60708472E+02</pdfrwt>
<pdfrwt beam="2">  1        2 0.42545799E-01 0.25705660E+03</pdfrwt>
<totfact> 0.14817934E+02</totfact>
</mgrwt>
</event>
<event>
 5    1  0.6729100E-004  0.1404311E+03  0.7818608E-02  0.1549428E+00
         11   -1    0    0    0    0  0.00000000000E+00  0.00000000000E+00  0.99993931983E+03  0.99993931983E+03  0.51100000000E-03 0. -1.
         -2   -1    0    0    0  501 -0.00000000000E+00 -0.00000000000E+00 -0.27213980093E+03  0.27213980094E+03  0.25500000000E-02 0.  1.
         11    1    1    2    0    0  0.88696974013E+01 -0.14957969996E+03  0.46152115263E+03  0.48523657374E+03  0.51100000000E-03 0. -1.
         22    1    1    2    0    0 -0.37570406343E+02  0.12971098215E+03  0.51667147286E+03  0.53402798165E+03  0.00000000000E+00 0. -1.
         -2    1    1    2    0  501  0.28700708941E+02  0.19868717809E+02 -0.25039310658E+03  0.25281456538E+03  0.25500000000E-02 0.  1.
<mgrwt>
<rscale>  0 0.34906971E+02</rscale>
<asrwt>0</asrwt>
<pdfrwt beam="1">  1       11 0.10000000E+01 0.14043113E+03</pdfrwt>
<pdfrwt beam="2">  1       -2 0.41865120E-01 0.34906971E+02</pdfrwt>
<totfact> 0.43290072E+01</totfact>
</mgrwt>
</event>
<event>
 5    1  0.7581692E-004  0.2860141E+03  0.7818608E-02  0.1096220E+00
         11   -1    0    0    0    0  0.00000000000E+00  0.00000000000E+00  0.10002625568E+04  0.10002625568E+04  0.51100000000E-03 0.  1.
          2   -1    0    0  501    0 -0.00000000000E+00 -0.00000000000E+00 -0.14062887956E+04  0.14062887956E+04  0.25500000000E-02 0. -1.
         11    1    1    2    0    0  0.26391622299E+03  0.55486157317E+02  0.89593865074E+03  0.93564766461E+03  0.51100000000E-03 0.  1.
         22    1    1    2    0    0  0.61950899255E+01  0.14497372217E+02  0.69538860696E+02  0.71303619033E+02  0.00000000000E+00 0.  1.
          2    1    1    2  501    0 -0.27011131291E+03 -0.69983529533E+02 -0.13715037502E+04  0.13996000688E+04  0.25500000000E-02 0. -1.
<mgrwt>
<rscale>  0 0.27903013E+03</rscale>
<asrwt>0</asrwt>
<pdfrwt beam="1">  1       11 0.10000000E+01 0.28601410E+03</pdfrwt>
<pdfrwt beam="2">  1        2 0.21640892E+00 0.27903013E+03</pdfrwt>
<totfact> 0.19173365E+01</totfact>
</mgrwt>
</event>
<event>
 5    1  0.6729100E-004  0.2705890E+03  0.7818608E-02  0.1100943E+00
         11   -1    0    0    0    0  0.00000000000E+00  0.00000000000E+00  0.10002683142E+04  0.10002683142E+04  0.51100000000E-03 0. -1.
          2   -1    0    0  501    0 -0.00000000000E+00 -0.00000000000E+00 -0.21515595588E+03  0.21515595590E+03  0.25500000000E-02 0. -1.
         11    1    1    2    0    0 -0.26308484357E+03 -0.83463479764E+02  0.76945898574E+03  0.81746371057E+03  0.51100000000E-03 0. -1.
         22    1    1    2    0    0  0.14790763986E+02 -0.22786782183E+02  0.10890509165E+03  0.11224225197E+03  0.00000000000E+00 0. -1.
          2    1    1    2  501    0  0.24829407959E+03  0.10625026195E+03 -0.93251719109E+02  0.28571830751E+03  0.25500000000E-02 0. -1.
<mgrwt>
<rscale>  0 0.27058900E+03</rscale>
<asrwt>0</asrwt>
<pdfrwt beam="1">  1       11 0.10000000E+01 0.27166232E+02</pdfrwt>
<pdfrwt beam="2">  1        2 0.33109797E-01 0.27058900E+03</pdfrwt>
<totfact> 0.19475208E+02</totfact>
</mgrwt>
</event>
<event>
 5    1  0.6729100E-004  0.1019250E+03  0.7818608E-02  0.1276299E+00
         11   -1    0    0    0    0  0.00000000000E+00  0.00000000000E+00  0.10001797554E+04  0.10001797554E+04  0.51100000000E-03 0. -1.
          2   -1    0    0  501    0 -0.00000000000E+00 -0.00000000000E+00 -0.36598184457E+02  0.36598184546E+02  0.25500000000E-02 0. -1.
         11    1    1    2    0    0 -0.63003422836E+02 -0.82565142615E+02  0.50655827667E+02  0.11555278855E+03  0.51100000000E-03 0. -1.
         22    1    1    2    0    0 -0.71381466658E+01  0.30720771026E+02  0.14676400183E+03  0.15011459338E+03  0.00000000000E+00 0. -1.
          2    1    1    2  501    0  0.70141569502E+02  0.51844371590E+02  0.76616174147E+03  0.77111055805E+03  0.25500000000E-02 0. -1.
<mgrwt>
<rscale>  0 0.10192496E+03</rscale>
<asrwt>0</asrwt>
<pdfrwt beam="1">  1       11 0.10000000E+01 0.31539165E+02</pdfrwt>
<pdfrwt beam="2">  1        2 0.56315019E-02 0.10192496E+03</pdfrwt>
<totfact> 0.15342212E+03</totfact>
</mgrwt>
</event>
<event>
 5    1  0.6729100E-004  0.1331916E+03  0.7818608E-02  0.1517602E+00
         11   -1    0    0    0    0  0.00000000000E+00  0.00000000000E+00  0.10003247808E+04  0.10003247808E+04  0.51100000000E-03 0. -1.
          2   -1    0    0  501    0 -0.00000000000E+00 -0.00000000000E+00 -0.79207546309E+02  0.79207546350E+02  0.25500000000E-02 0. -1.
         11    1    1    2    0    0 -0.60499289485E+02 -0.10722897793E+03  0.53913912918E+03  0.55301828031E+03  0.51100000000E-03 0. -1.
         22    1    1    2    0    0  0.51365218086E+02  0.14488900156E+03  0.43470101460E+03  0.46108153345E+03  0.00000000000E+00 0.  1.
          2    1    1    2  501    0  0.91340713984E+01 -0.37660023621E+02 -0.52722909283E+02  0.65432513395E+02  0.25500000000E-02 0. -1.
<mgrwt>
<rscale>  0 0.38751886E+02</rscale>
<asrwt>0</asrwt>
<pdfrwt beam="1">  1       11 0.10000000E+01 0.13319157E+03</pdfrwt>
<pdfrwt beam="2">  1        2 0.12189734E-01 0.38751886E+02</pdfrwt>
<totfact> 0.55488193E+02</totfact>
</mgrwt>
</event>
<event>
 5    1  0.6729100E-004  0.1376350E+03  0.7818608E-02  0.1216547E+00
         11   -1    0    0    0    0  0.00000000000E+00  0.00000000000E+00  0.10004587679E+04  0.10004587679E+04  0.51100000000E-03 0.  1.
          2   -1    0    0  501    0 -0.00000000000E+00 -0.00000000000E+00 -0.21023477200E+02  0.21023477355E+02  0.25500000000E-02 0.  1.
         11    1    1    2    0    0  0.13706866573E+03 -0.38185392616E+01  0.54393627482E+03  0.56095371595E+03  0.51100000000E-03 0.  1.
         22    1    1    2    0    0  0.94369245628E+00  0.10508691271E+02  0.47576757068E+02  0.48732647792E+02  0.00000000000E+00 0.  1.
          2    1    1    2  501    0 -0.13801235819E+03 -0.66901520091E+01  0.38792225877E+03  0.41179588148E+03  0.25500000000E-02 0.  1.
<mgrwt>
<rscale>  0 0.13763496E+03</rscale>
<asrwt>0</asrwt>
<pdfrwt beam="1">  1       11 0.10000000E+01 0.10550979E+02</pdfrwt>
<pdfrwt beam="2">  1        2 0.32358649E-02 0.13763496E+03</pdfrwt>
<totfact> 0.32639720E+03</totfact>
</mgrwt>
</event>
<event>
 5    1  0.6729100E-004  0.1390008E+03  0.7818608E-02  0.1214680E+00
         11   -1    0    0    0    0  0.00000000000E+00  0.00000000000E+00  0.10000653556E+04  0.10000653556E+04  0.51100000000E-03 0. -1.
          2   -1    0    0  501    0 -0.00000000000E+00 -0.00000000000E+00 -0.64820627484E+02  0.64820627534E+02  0.25500000000E-02 0. -1.
         11    1    1    2    0    0  0.17352124044E+03  0.48175729319E+02  0.73669271574E+03  0.75838425564E+03  0.51100000000E-03 0. -1.
         22    1    1    2    0    0 -0.65880063709E+02  0.33122980525E+02  0.14245761667E+03  0.16041037117E+03  0.00000000000E+00 0. -1.
          2    1    1    2  501    0 -0.10764117673E+03 -0.81298709844E+02  0.56094395675E+02  0.14609135629E+03  0.25500000000E-02 0. -1.
<mgrwt>
<rscale>  0 0.13900077E+03</rscale>
<asrwt>0</asrwt>
<pdfrwt beam="1">  1       11 0.10000000E+01 0.73738149E+02</pdfrwt>
<pdfrwt beam="2">  1        2 0.99730557E-02 0.13900077E+03</pdfrwt>
<totfact> 0.76422500E+02</totfact>
</mgrwt>
</event>
<event>
 5    1  0.6729100E-004  0.4365230E+03  0.7818608E-02  0.1031819E+00
         11   -1    0    0    0    0  0.00000000000E+00  0.00000000000E+00  0.10004111998E+04  0.10004111998E+04  0.51100000000E-03 0. -1.
          2   -1    0    0  501    0 -0.00000000000E+00 -0.00000000000E+00 -0.64391404236E+03  0.64391404236E+03  0.25500000000E-02 0.  1.
         11    1    1    2    0    0 -0.25484344939E+03 -0.19665746176E+03  0.30810147740E+03  0.44558485313E+03  0.51100000000E-03 0. -1.
         22    1    1    2    0    0 -0.71782954147E+02 -0.13647332552E+03  0.51579070379E+03  0.53834729608E+03  0.00000000000E+00 0. -1.
          2    1    1    2  501    0  0.32662640354E+03  0.33313078728E+03 -0.46739502378E+03  0.66039309292E+03  0.25500000000E-02 0.  1.
<mgrwt>
<rscale>  0 0.43652298E+03</rscale>
<asrwt>0</asrwt>
<pdfrwt beam="1">  1       11 0.10000000E+01 0.15420039E+03</pdfrwt>
<pdfrwt beam="2">  1        2 0.99104431E-01 0.43652298E+03</pdfrwt>
<totfact> 0.57149380E+01</totfact>
</mgrwt>
</event>
<event>
 5    1  0.6729100E-004  0.3541074E+03  0.7818608E-02  0.1060942E+00
         11   -1    0    0    0    0  0.00000000000E+00  0.00000000000E+00  0.99999371999E+03  0.99999371999E+03  0.51100000000E-03 0. -1.
          2   -1    0    0  501    0 -0.00000000000E+00 -0.00000000000E+00 -0.60013435267E+03  0.60013435268E+03  0.25500000000E-02 0. -1.
         11    1    1    2    0    0  0.35214428621E+03 -0.94565086256E+02  0.85818293596E+03  0.93243021477E+03  0.51100000000E-03 0. -1.
         22    1    1    2    0    0 -0.85022764206E+01  0.11827260603E+02  0.48023813281E+02  0.50184254899E+02  0.00000000000E+00 0.  1.
          2    1    1    2  501    0 -0.34364200979E+03  0.82737825653E+02 -0.50634738192E+03  0.61751360299E+03  0.25500000000E-02 0. -1.
<mgrwt>
<rscale>  0 0.35410744E+03</rscale>
<asrwt>0</asrwt>
<pdfrwt beam="1">  1       11 0.10000000E+01 0.14566152E+02</pdfrwt>
<pdfrwt beam="2">  1        2 0.92327779E-01 0.35410744E+03</pdfrwt>
<totfact> 0.62517813E+01</totfact>
</mgrwt>
</event>
<event>
 5    1  0.6729100E-004  0.3422713E+02  0.7818608E-02  0.1732763E+00
         11   -1    0    0    0    0  0.00000000000E+00  0.00000000000E+00  0.99992616558E+03  0.99992616558E+03  0.51100000000E-03 0. -1.
          2   -1    0    0  501    0 -0.00000000000E+00 -0.00000000000E+00 -0.30370579325E+01  0.30370590030E+01  0.25500000000E-02 0. -1.
         11    1    1    2    0    0 -0.41919330269E+02 -0.16354388198E+00  0.21985749109E+03  0.22381817036E+03  0.51100000000E-03 0. -1.
         22    1    1    2    0    0  0.98982663439E+01 -0.75595198598E+01  0.56302482821E+02  0.57663607145E+02  0.00000000000E+00 0. -1.
          2    1    1    2  501    0  0.32021063925E+02  0.77230637418E+01  0.72072913374E+03  0.72148144708E+03  0.25500000000E-02 0. -1.
<mgrwt>
<rscale>  0 0.20646837E+02</rscale>
<asrwt>0</asrwt>
<pdfrwt beam="1">  1       11 0.10000000E+01 0.34227135E+02</pdfrwt>
<pdfrwt beam="2">  1        2 0.46720525E-03 0.20646837E+02</pdfrwt>
<totfact> 0.30955296E+04</totfact>
</mgrwt>
</event>
<event>
 5    1  0.6729100E-004  0.1570817E+03  0.7818608E-02  0.1552855E+00
         11   -1    0    0    0    0  0.00000000000E+00  0.00000000000E+00  0.10002035435E+04  0.10002035435E+04  0.51100000000E-03 0. -1.
          2   -1    0    0  501    0 -0.00000000000E+00 -0.00000000000E+00 -0.12586599997E+03  0.12586599999E+03  0.25500000000E-02 0.  1.
         11    1    1    2    0    0 -0.11516077642E+03 -0.91201031185E+02  0.47694508768E+03  0.49905535683E+03  0.51100000000E-03 0. -1.
         22    1    1    2    0    0  0.14906291815E+03  0.84670135043E+02  0.49480675154E+03  0.52366258861E+03  0.00000000000E+00 0. -1.
          2    1    1    2  501    0 -0.33902141728E+02  0.65308961415E+01 -0.97414295672E+02  0.10335159808E+03  0.25500000000E-02 0.  1.
<mgrwt>
<rscale>  0 0.34525466E+02</rscale>
<asrwt>0</asrwt>
<pdfrwt beam="1">  1       11 0.10000000E+01 0.15708172E+03</pdfrwt>
<pdfrwt beam="2">  1        2 0.19367941E-01 0.34525466E+02</pdfrwt>
<totfact> 0.32856979E+02</totfact>
</mgrwt>
</event>
<event>
 5    1  0.6729100E-004  0.1305317E+03  0.7818608E-02  0.1678564E+00
         11   -1    0    0    0    0  0.00000000000E+00  0.00000000000E+00  0.10000810926E+04  0.10000810926E+04  0.51100000000E-03 0. -1.
          2   -1    0    0  501    0 -0.00000000000E+00 -0.00000000000E+00 -0.61183312936E+02  0.61183312989E+02  0.25500000000E-02 0. -1.
         11    1    1    2    0    0  0.10559116892E+03 -0.77839946264E+02  0.24447477637E+02  0.13343999157E+03  0.51100000000E-03 0. -1.
         22    1    1    2    0    0 -0.89399431971E+02  0.95309510479E+02  0.70350482682E+03  0.71553840050E+03  0.00000000000E+00 0. -1.
          2    1    1    2  501    0 -0.16191736950E+02 -0.17469564215E+02  0.21094547518E+03  0.21228601349E+03  0.25500000000E-02 0. -1.
<mgrwt>
<rscale>  0 0.23819278E+02</rscale>
<asrwt>0</asrwt>
<pdfrwt beam="1">  1       11 0.10000000E+01 0.13053169E+03</pdfrwt>
<pdfrwt beam="2">  1        2 0.94135804E-02 0.23819278E+02</pdfrwt>
<totfact> 0.71777587E+02</totfact>
</mgrwt>
</event>
<event>
 5    1  0.6729100E-004  0.6492521E+03  0.7818608E-02  0.9836382E-01
         11   -1    0    0    0    0  0.00000000000E+00  0.00000000000E+00  0.10006942790E+04  0.10006942790E+04  0.51100000000E-03 0.  1.
          2   -1    0    0  501    0 -0.00000000000E+00 -0.00000000000E+00 -0.20851017216E+04  0.20851017216E+04  0.25500000000E-02 0. -1.
         11    1    1    2    0    0  0.49845264737E+03  0.34644461537E+03  0.74166864657E+03  0.95841081718E+03  0.51100000000E-03 0.  1.
         22    1    1    2    0    0  0.12576015331E+02  0.29574715936E+02  0.97087424546E+02  0.10226821593E+03  0.00000000000E+00 0. -1.
          2    1    1    2  501    0 -0.51102866271E+03 -0.37601933130E+03 -0.19231635137E+04  0.20251169675E+04  0.25500000000E-02 0. -1.
<mgrwt>
<rscale>  0 0.63446106E+03</rscale>
<asrwt>0</asrwt>
<pdfrwt beam="1">  1       11 0.10000000E+01 0.64925208E+03</pdfrwt>
<pdfrwt beam="2">  1        2 0.32100759E+00 0.63446106E+03</pdfrwt>
<totfact> 0.77146892E+00</totfact>
</mgrwt>
</event>
<event>
 5    1  0.6729100E-004  0.1634073E+03  0.7818608E-02  0.1192091E+00
         11   -1    0    0    0    0  0.00000000000E+00  0.00000000000E+00  0.10001434914E+04  0.10001434914E+04  0.51100000000E-03 0.  1.
          2   -1    0    0  501    0 -0.00000000000E+00 -0.00000000000E+00 -0.82470218732E+02  0.82470218772E+02  0.25500000000E-02 0. -1.
         11    1    1    2    0    0  0.12525421332E+03  0.73578985957E+02  0.83469703878E+03  0.84724354921E+03  0.51100000000E-03 0.  1.
         22    1    1    2    0    0  0.27887667544E+01  0.17324656555E+02  0.76199426291E+02  0.78193820164E+02  0.00000000000E+00 0.  1.
          2    1    1    2  501    0 -0.12804298008E+03 -0.90903642512E+02  0.67768075649E+01  0.15717634077E+03  0.25500000000E-02 0. -1.
<mgrwt>
<rscale>  0 0.15703018E+03</rscale>
<asrwt>0</asrwt>
<pdfrwt beam="1">  1       11 0.10000000E+01 0.16340733E+03</pdfrwt>
<pdfrwt beam="2">  1        2 0.12689546E-01 0.15703018E+03</pdfrwt>
<totfact> 0.57405425E+02</totfact>
</mgrwt>
</event>
<event>
 5    1  0.6729100E-004  0.3476824E+03  0.7818608E-02  0.1063570E+00
         11   -1    0    0    0    0  0.00000000000E+00  0.00000000000E+00  0.10003953256E+04  0.10003953256E+04  0.51100000000E-03 0. -1.
          2   -1    0    0  501    0 -0.00000000000E+00 -0.00000000000E+00 -0.23228261508E+03  0.23228261509E+03  0.25500000000E-02 0. -1.
         11    1    1    2    0    0 -0.61683382178E+01 -0.35813885100E+03  0.30372165184E+01  0.35820484318E+03  0.51100000000E-03 0. -1.
         22    1    1    2    0    0 -0.45208775173E+02  0.41073094327E+02  0.31895892190E+03  0.32475471712E+03  0.00000000000E+00 0. -1.
          2    1    1    2  501    0  0.51377113391E+02  0.31706575667E+03  0.44611657209E+03  0.54971838038E+03  0.25500000000E-02 0. -1.
<mgrwt>
<rscale>  0 0.34768236E+03</rscale>
<asrwt>0</asrwt>
<pdfrwt beam="1">  1       11 0.10000000E+01 0.61080541E+02</pdfrwt>
<pdfrwt beam="2">  1        2 0.35749913E-01 0.34768236E+03</pdfrwt>
<totfact> 0.17945939E+02</totfact>
</mgrwt>
</event>
<event>
 5    1  0.6729100E-004  0.1093832E+03  0.7818608E-02  0.1464875E+00
         11   -1    0    0    0    0  0.00000000000E+00  0.00000000000E+00  0.10001681537E+04  0.10001681537E+04  0.51100000000E-03 0. -1.
          2   -1    0    0  501    0 -0.00000000000E+00 -0.00000000000E+00 -0.33082485085E+03  0.33082485086E+03  0.25500000000E-02 0.  1.
         11    1    1    2    0    0 -0.11494011050E+03 -0.27340613493E+02  0.39306552049E+03  0.41043786563E+03  0.51100000000E-03 0. -1.
         22    1    1    2    0    0  0.10623990793E+03 -0.18391903434E+02  0.59183824938E+03  0.60157933273E+03  0.00000000000E+00 0. -1.
          2    1    1    2  501    0  0.87002025705E+01  0.45732516926E+02 -0.31556046698E+03  0.31897580622E+03  0.25500000000E-02 0.  1.
<mgrwt>
<rscale>  0 0.46552730E+02</rscale>
<asrwt>0</asrwt>
<pdfrwt beam="1">  1       11 0.10000000E+01 0.10938323E+03</pdfrwt>
<pdfrwt beam="2">  1        2 0.50904688E-01 0.46552730E+02</pdfrwt>
<totfact> 0.12151841E+02</totfact>
</mgrwt>
</event>
<event>
 5    1  0.6729100E-004  0.9932428E+02  0.7818608E-02  0.1412715E+00
         11   -1    0    0    0    0  0.00000000000E+00  0.00000000000E+00  0.99974302569E+03  0.99974302569E+03  0.51100000000E-03 0.  1.
          2   -1    0    0  501    0 -0.00000000000E+00 -0.00000000000E+00 -0.56001218037E+02  0.56001218095E+02  0.25500000000E-02 0.  1.
         11    1    1    2    0    0  0.80040750053E+02  0.39670211010E+02  0.39301648860E+03  0.40304119842E+03  0.51100000000E-03 0.  1.
         22    1    1    2    0    0 -0.69035039022E+02 -0.95182128870E+02  0.57803005350E+03  0.58986796575E+03  0.00000000000E+00 0.  1.
          2    1    1    2  501    0 -0.11005711030E+02  0.55511917860E+02 -0.27304734452E+02  0.62835079611E+02  0.25500000000E-02 0.  1.
<mgrwt>
<rscale>  0 0.56592391E+02</rscale>
<asrwt>0</asrwt>
<pdfrwt beam="1">  1       11 0.10000000E+01 0.99324282E+02</pdfrwt>
<pdfrwt beam="2">  1        2 0.86133578E-02 0.56592391E+02</pdfrwt>
<totfact> 0.86052261E+02</totfact>
</mgrwt>
</event>
<event>
 5    1  0.6729100E-004  0.3366242E+03  0.7818608E-02  0.1068243E+00
         11   -1    0    0    0    0  0.00000000000E+00  0.00000000000E+00  0.99955641619E+03  0.99955641619E+03  0.51100000000E-03 0.  1.
          2   -1    0    0  501    0 -0.00000000000E+00 -0.00000000000E+00 -0.17557220265E+04  0.17557220266E+04  0.25500000000E-02 0.  1.
         11    1    1    2    0    0  0.14047776113E+03 -0.32743494618E+03  0.79293040986E+03  0.86930218005E+03  0.51100000000E-03 0.  1.
         22    1    1    2    0    0 -0.32835183297E+02  0.88738286203E+01  0.15006073231E+03  0.15386720728E+03  0.00000000000E+00 0. -1.
          2    1    1    2  501    0 -0.10764257783E+03  0.31856111756E+03 -0.16991567525E+04  0.17321090554E+04  0.25500000000E-02 0.  1.
<mgrwt>
<rscale>  0 0.33662421E+03</rscale>
<asrwt>0</asrwt>
<pdfrwt beam="1">  1       11 0.10000000E+01 0.34013146E+02</pdfrwt>
<pdfrwt beam="2">  1        2 0.26999126E+00 0.33662421E+03</pdfrwt>
<totfact> 0.12300963E+01</totfact>
</mgrwt>
</event>
<event>
 5    1  0.6729100E-004  0.2379816E+03  0.7818608E-02  0.1121145E+00
         11   -1    0    0    0    0  0.00000000000E+00  0.00000000000E+00  0.10002810399E+04  0.10002810399E+04  0.51100000000E-03 0. -1.
          2   -1    0    0  501    0 -0.00000000000E+00 -0.00000000000E+00 -0.10047505709E+04  0.10047505709E+04  0.25500000000E-02 0. -1.
         11    1    1    2    0    0 -0.52136487581E+02 -0.31512535010E+03  0.12161416971E+03  0.34177800673E+03  0.51100000000E-03 0. -1.
         22    1    1    2    0    0  0.13349409269E+03  0.94560936462E+02  0.74410097201E+03  0.76187183964E+03  0.00000000000E+00 0. -1.
          2    1    1    2  501    0 -0.81357605114E+02  0.22056441363E+03 -0.87018467273E+03  0.90138176437E+03  0.25500000000E-02 0. -1.
<mgrwt>
<rscale>  0 0.23798158E+03</rscale>
<asrwt>0</asrwt>
<pdfrwt beam="1">  1       11 0.10000000E+01 0.16359231E+03</pdfrwt>
<pdfrwt beam="2">  1        2 0.15462045E+00 0.23798158E+03</pdfrwt>
<totfact> 0.32817307E+01</totfact>
</mgrwt>
</event>
<event>
 5    1  0.6729100E-004  0.2267981E+03  0.7818608E-02  0.1132197E+00
         11   -1    0    0    0    0  0.00000000000E+00  0.00000000000E+00  0.10000887498E+04  0.10000887498E+04  0.51100000000E-03 0. -1.
          2   -1    0    0  501    0 -0.00000000000E+00 -0.00000000000E+00 -0.12220535844E+03  0.12220535847E+03  0.25500000000E-02 0. -1.
         11    1    1    2    0    0  0.15110457086E+03 -0.14434736711E+03  0.77476838838E+03  0.80245548746E+03  0.51100000000E-03 0. -1.
         22    1    1    2    0    0  0.28528888391E+01 -0.15977187787E+02  0.96090095252E+02  0.97451094965E+02  0.00000000000E+00 0.  1.
          2    1    1    2  501    0 -0.15395745970E+03  0.16032455490E+03  0.70249077015E+01  0.22238752581E+03  0.25500000000E-02 0. -1.
<mgrwt>
<rscale>  0 0.22227654E+03</rscale>
<asrwt>0</asrwt>
<pdfrwt beam="1">  1       11 0.10000000E+01 0.22679806E+03</pdfrwt>
<pdfrwt beam="2">  1        2 0.18802492E-01 0.22227654E+03</pdfrwt>
<totfact> 0.36613998E+02</totfact>
</mgrwt>
</event>
<event>
 5    1  0.6729100E-004  0.4045901E+03  0.7818608E-02  0.1042202E+00
         11   -1    0    0    0    0  0.00000000000E+00  0.00000000000E+00  0.99996298344E+03  0.99996298344E+03  0.51100000000E-03 0. -1.
          2   -1    0    0  501    0 -0.00000000000E+00 -0.00000000000E+00 -0.21954482882E+03  0.21954482884E+03  0.25500000000E-02 0. -1.
         11    1    1    2    0    0 -0.30478587913E+03 -0.25904749282E+03  0.70115176632E+03  0.80722601238E+03  0.51100000000E-03 0. -1.
         22    1    1    2    0    0  0.11221385585E+01  0.14563796431E+02  0.48547940011E+01  0.15392608168E+02  0.00000000000E+00 0. -1.
          2    1    1    2  501    0  0.30366374057E+03  0.24448369639E+03  0.74411594300E+02  0.39688919173E+03  0.25500000000E-02 0. -1.
<mgrwt>
<rscale>  0 0.40459007E+03</rscale>
<asrwt>0</asrwt>
<pdfrwt beam="1">  1       11 0.10000000E+01 0.40000004E+03</pdfrwt>
<pdfrwt beam="2">  1        2 0.33774876E-01 0.40459007E+03</pdfrwt>
<totfact> 0.19131171E+02</totfact>
</mgrwt>
</event>
<event>
 5    1  0.6729100E-004  0.7864151E+02  0.7818608E-02  0.1332951E+00
         11   -1    0    0    0    0  0.00000000000E+00  0.00000000000E+00  0.10003641242E+04  0.10003641242E+04  0.51100000000E-03 0.  1.
         -2   -1    0    0    0  501 -0.00000000000E+00 -0.00000000000E+00 -0.60196965874E+02  0.60196965928E+02  0.25500000000E-02 0. -1.
         11    1    1    2    0    0 -0.94749545287E+02 -0.11606681785E+03  0.75184031622E+03  0.76662431714E+03  0.51100000000E-03 0.  1.
         22    1    1    2    0    0  0.42045293560E+02  0.61659144437E+02  0.20343815893E+03  0.21669504220E+03  0.00000000000E+00 0.  1.
         -2    1    1    2    0  501  0.52704251727E+02  0.54407673408E+02 -0.15111316809E+02  0.77241730807E+02  0.25500000000E-02 0. -1.
<mgrwt>
<rscale>  0 0.78641513E+02</rscale>
<asrwt>0</asrwt>
<pdfrwt beam="1">  1       11 0.10000000E+01 0.74630133E+02</pdfrwt>
<pdfrwt beam="2">  1       -2 0.92644436E-02 0.78641513E+02</pdfrwt>
<totfact> 0.55408279E+02</totfact>
</mgrwt>
</event>
<event>
 5    1  0.6729100E-004  0.1778489E+03  0.7818608E-02  0.1169901E+00
         11   -1    0    0    0    0  0.00000000000E+00  0.00000000000E+00  0.10003544546E+04  0.10003544546E+04  0.51100000000E-03 0. -1.
          2   -1    0    0  501    0 -0.00000000000E+00 -0.00000000000E+00 -0.35525612740E+03  0.35525612741E+03  0.25500000000E-02 0. -1.
         11    1    1    2    0    0 -0.11140717505E+03  0.12251739799E+03  0.90194950247E+03  0.91702506861E+03  0.51100000000E-03 0. -1.
         22    1    1    2    0    0  0.38486633028E+01  0.19528988413E+02  0.66488825004E+02  0.69404304248E+02  0.00000000000E+00 0. -1.
          2    1    1    2  501    0  0.10755851175E+03 -0.14204638640E+03 -0.32334000032E+03  0.36918120910E+03  0.25500000000E-02 0. -1.
<mgrwt>
<rscale>  0 0.17784886E+03</rscale>
<asrwt>0</asrwt>
<pdfrwt beam="1">  1       11 0.10000000E+01 0.19904612E+02</pdfrwt>
<pdfrwt beam="2">  1        2 0.54674160E-01 0.17784886E+03</pdfrwt>
<totfact> 0.11309873E+02</totfact>
</mgrwt>
</event>
<event>
 5    1  0.6729100E-004  0.4596746E+02  0.7818608E-02  0.1608522E+00
         11   -1    0    0    0    0  0.00000000000E+00  0.00000000000E+00  0.10004402141E+04  0.10004402141E+04  0.51100000000E-03 0.  1.
          2   -1    0    0  501    0 -0.00000000000E+00 -0.00000000000E+00 -0.58537709036E+01  0.58537714590E+01  0.25500000000E-02 0.  1.
         11    1    1    2    0    0 -0.25343497070E+02  0.48634767374E+02  0.21263595058E+03  0.21959435540E+03  0.51100000000E-03 0.  1.
         22    1    1    2    0    0  0.37599795792E+02 -0.22267195452E+02  0.23839472375E+03  0.24236669934E+03  0.00000000000E+00 0.  1.
          2    1    1    2  501    0 -0.12256298722E+02 -0.26367571922E+02  0.54355576888E+03  0.54433293084E+03  0.25500000000E-02 0.  1.
<mgrwt>
<rscale>  0 0.29076893E+02</rscale>
<asrwt>0</asrwt>
<pdfrwt beam="1">  1       11 0.10000000E+01 0.45967463E+02</pdfrwt>
<pdfrwt beam="2">  1        2 0.90097660E-03 0.29076893E+02</pdfrwt>
<totfact> 0.14216043E+04</totfact>
</mgrwt>
</event>
<event>
 5    1  0.6729100E-004  0.1572185E+03  0.7818608E-02  0.1191873E+00
         11   -1    0    0    0    0  0.00000000000E+00  0.00000000000E+00  0.10003033080E+04  0.10003033080E+04  0.51100000000E-03 0. -1.
          2   -1    0    0  501    0 -0.00000000000E+00 -0.00000000000E+00 -0.25038019976E+02  0.25038020106E+02  0.25500000000E-02 0. -1.
         11    1    1    2    0    0 -0.14371707183E+03 -0.32168398016E+02  0.61279012553E+03  0.63023895509E+03  0.51100000000E-03 0. -1.
         22    1    1    2    0    0  0.37505954706E+02  0.33546640624E+02  0.13421306460E+03  0.14333604029E+03  0.00000000000E+00 0.  1.
          2    1    1    2  501    0  0.10621111713E+03 -0.13782426086E+01  0.22826209790E+03  0.25176633273E+03  0.25500000000E-02 0. -1.
<mgrwt>
<rscale>  0 0.15721845E+03</rscale>
<asrwt>0</asrwt>
<pdfrwt beam="1">  1       11 0.10000000E+01 0.14727322E+03</pdfrwt>
<pdfrwt beam="2">  1        2 0.38531713E-02 0.15721845E+03</pdfrwt>
<totfact> 0.26171620E+03</totfact>
</mgrwt>
</event>
<event>
 5    1  0.6729100E-004  0.1308534E+03  0.7818608E-02  0.1226195E+00
         11   -1    0    0    0    0  0.00000000000E+00  0.00000000000E+00  0.10003064284E+04  0.10003064284E+04  0.51100000000E-03 0. -1.
          2   -1    0    0  501    0 -0.00000000000E+00 -0.00000000000E+00 -0.11932804447E+03  0.11932804450E+03  0.25500000000E-02 0.  1.
         11    1    1    2    0    0 -0.84789384190E+02  0.16629262898E+03  0.85864428474E+03  0.87869931481E+03  0.51100000000E-03 0. -1.
         22    1    1    2    0    0  0.32238208363E+02 -0.49341933866E+02  0.80805067652E+02  0.10001693594E+03  0.00000000000E+00 0.  1.
          2    1    1    2  501    0  0.52551175828E+02 -0.11695069512E+03 -0.58470968475E+02  0.14091822214E+03  0.25500000000E-02 0.  1.
<mgrwt>
<rscale>  0 0.13085341E+03</rscale>
<asrwt>0</asrwt>
<pdfrwt beam="1">  1       11 0.10000000E+01 0.58940042E+02</pdfrwt>
<pdfrwt beam="2">  1        2 0.18363786E-01 0.13085341E+03</pdfrwt>
<totfact> 0.36971775E+02</totfact>
</mgrwt>
</event>
<event>
 5    1  0.6729100E-004  0.5894428E+02  0.7818608E-02  0.1640440E+00
         11   -1    0    0    0    0  0.00000000000E+00  0.00000000000E+00  0.10001990100E+04  0.10001990100E+04  0.51100000000E-03 0.  1.
          2   -1    0    0  501    0 -0.00000000000E+00 -0.00000000000E+00 -0.67700639578E+01  0.67700644380E+01  0.25500000000E-02 0.  1.
         11    1    1    2    0    0  0.19785577691E+02 -0.63729389042E+02  0.22328724138E+03  0.23304526658E+03  0.51100000000E-03 0.  1.
         22    1    1    2    0    0  0.34006997853E+01  0.11411501121E+02  0.45713387046E+02  0.47238764507E+02  0.00000000000E+00 0.  1.
          2    1    1    2  501    0 -0.23186277476E+02  0.52317887921E+02  0.72442831764E+03  0.72668504337E+03  0.25500000000E-02 0.  1.
<mgrwt>
<rscale>  0 0.26492926E+02</rscale>
<asrwt>0</asrwt>
<pdfrwt beam="1">  1       11 0.10000000E+01 0.58944280E+02</pdfrwt>
<pdfrwt beam="2">  1        2 0.10417556E-02 0.26492926E+02</pdfrwt>
<totfact> 0.11513757E+04</totfact>
</mgrwt>
</event>
<event>
 5    1  0.6729100E-004  0.4928502E+02  0.7818608E-02  0.1449236E+00
         11   -1    0    0    0    0  0.00000000000E+00  0.00000000000E+00  0.99987985121E+03  0.99987985121E+03  0.51100000000E-03 0. -1.
          2   -1    0    0  501    0 -0.00000000000E+00 -0.00000000000E+00 -0.19002463865E+02  0.19002464036E+02  0.25500000000E-02 0. -1.
         11    1    1    2    0    0 -0.87710033010E+00  0.49773242858E+02  0.17275802345E+02  0.52693437509E+02  0.51100000000E-03 0. -1.
         22    1    1    2    0    0 -0.10159561847E+02 -0.13275840144E+02  0.78211622911E+02  0.79978263215E+02  0.00000000000E+00 0. -1.
          2    1    1    2  501    0  0.11036662177E+02 -0.36497402714E+02  0.88538996209E+03  0.88621061453E+03  0.25500000000E-02 0. -1.
<mgrwt>
<rscale>  0 0.49285025E+02</rscale>
<asrwt>0</asrwt>
<pdfrwt beam="1">  1       11 0.10000000E+01 0.16717196E+02</pdfrwt>
<pdfrwt beam="2">  1        2 0.29231047E-02 0.49285025E+02</pdfrwt>
<totfact> 0.33188688E+03</totfact>
</mgrwt>
</event>
<event>
 5    1  0.6729100E-004  0.4971350E+03  0.7818608E-02  0.1014529E+00
         11   -1    0    0    0    0  0.00000000000E+00  0.00000000000E+00  0.10008440543E+04  0.10008440543E+04  0.51100000000E-03 0.  1.
          2   -1    0    0  501    0 -0.00000000000E+00 -0.00000000000E+00 -0.11098561767E+04  0.11098561767E+04  0.25500000000E-02 0.  1.
         11    1    1    2    0    0  0.11593751618E+03  0.47049309929E+03  0.80730586426E+03  0.94156679137E+03  0.51100000000E-03 0.  1.
         22    1    1    2    0    0  0.66338177057E+01  0.12177865923E+02  0.66189827663E+02  0.67626926899E+02  0.00000000000E+00 0. -1.
          2    1    1    2  501    0 -0.12257133389E+03 -0.48267096522E+03 -0.98250781427E+03  0.11015065128E+04  0.25500000000E-02 0.  1.
<mgrwt>
<rscale>  0 0.49713502E+03</rscale>
<asrwt>0</asrwt>
<pdfrwt beam="1">  1       11 0.10000000E+01 0.13867514E+02</pdfrwt>
<pdfrwt beam="2">  1        2 0.17089122E+00 0.49713502E+03</pdfrwt>
<totfact> 0.27291524E+01</totfact>
</mgrwt>
</event>
<event>
 5    1  0.6729100E-004  0.2366961E+03  0.7818608E-02  0.1122014E+00
         11   -1    0    0    0    0  0.00000000000E+00  0.00000000000E+00  0.99998944565E+03  0.99998944565E+03  0.51100000000E-03 0.  1.
          2   -1    0    0  501    0 -0.00000000000E+00 -0.00000000000E+00 -0.29734672794E+03  0.29734672795E+03  0.25500000000E-02 0.  1.
         11    1    1    2    0    0  0.40002898873E+02  0.22761245499E+03  0.22345629288E+03  0.32146598018E+03  0.51100000000E-03 0.  1.
         22    1    1    2    0    0  0.13192226854E+03 -0.52024022937E+02  0.65726411656E+03  0.67238835714E+03  0.00000000000E+00 0.  1.
          2    1    1    2  501    0 -0.17192516741E+03 -0.17558843205E+03 -0.17807769173E+03  0.30348183629E+03  0.25500000000E-02 0.  1.
<mgrwt>
<rscale>  0 0.23669612E+03</rscale>
<asrwt>0</asrwt>
<pdfrwt beam="1">  1       11 0.10000000E+01 0.14180967E+03</pdfrwt>
<pdfrwt beam="2">  1        2 0.45745166E-01 0.23669612E+03</pdfrwt>
<totfact> 0.13698826E+02</totfact>
</mgrwt>
</event>
<event>
 5    1  0.6729100E-004  0.6627969E+02  0.7818608E-02  0.1476949E+00
         11   -1    0    0    0    0  0.00000000000E+00  0.00000000000E+00  0.10002112437E+04  0.10002112437E+04  0.51100000000E-03 0. -1.
          2   -1    0    0  501    0 -0.00000000000E+00 -0.00000000000E+00 -0.16471086350E+03  0.16471086352E+03  0.25500000000E-02 0. -1.
         11    1    1    2    0    0  0.65850043331E+02 -0.87170531252E+02 -0.14220053153E+03  0.17932072075E+03  0.51100000000E-03 0. -1.
         22    1    1    2    0    0 -0.44369522509E+02  0.48101187266E+02  0.33351613910E+03  0.33987555632E+03  0.00000000000E+00 0. -1.
          2    1    1    2  501    0 -0.21480520822E+02  0.39069343986E+02  0.64418477259E+03  0.64572583009E+03  0.25500000000E-02 0. -1.
<mgrwt>
<rscale>  0 0.44585047E+02</rscale>
<asrwt>0</asrwt>
<pdfrwt beam="1">  1       11 0.10000000E+01 0.66279686E+02</pdfrwt>
<pdfrwt beam="2">  1        2 0.25345485E-01 0.44585047E+02</pdfrwt>
<totfact> 0.24923435E+02</totfact>
</mgrwt>
</event>
<event>
 5    1  0.6729100E-004  0.3437101E+03  0.7818608E-02  0.1065227E+00
         11   -1    0    0    0    0  0.00000000000E+00  0.00000000000E+00  0.10001708598E+04  0.10001708598E+04  0.51100000000E-03 0. -1.
          2   -1    0    0  501    0 -0.00000000000E+00 -0.00000000000E+00 -0.31228858393E+03  0.31228858394E+03  0.25500000000E-02 0. -1.
         11    1    1    2    0    0 -0.34264037482E+03  0.72746022230E+02  0.78960588390E+03  0.86381239983E+03  0.51100000000E-03 0. -1.
         22    1    1    2    0    0  0.18818378385E+02  0.40860702944E+02  0.55274552138E+02  0.71267134952E+02  0.00000000000E+00 0.  1.
          2    1    1    2  501    0  0.32382199644E+03 -0.11360672517E+03 -0.15699816017E+03  0.37737990896E+03  0.25500000000E-02 0. -1.
<mgrwt>
<rscale>  0 0.34371013E+03</rscale>
<asrwt>0</asrwt>
<pdfrwt beam="1">  1       11 0.10000000E+01 0.44985869E+02</pdfrwt>
<pdfrwt beam="2">  1        2 0.48052605E-01 0.34371013E+03</pdfrwt>
<totfact> 0.12990629E+02</totfact>
</mgrwt>
</event>
<event>
 5    1  0.6729100E-004  0.1415539E+03  0.7818608E-02  0.1306236E+00
         11   -1    0    0    0    0  0.00000000000E+00  0.00000000000E+00  0.10003511365E+04  0.10003511365E+04  0.51100000000E-03 0. -1.
          2   -1    0    0  501    0 -0.00000000000E+00 -0.00000000000E+00 -0.79932363537E+03  0.79932363537E+03  0.25500000000E-02 0. -1.
         11    1    1    2    0    0 -0.96018014771E+02  0.94131901555E+02  0.74082009194E+03  0.75292408826E+03  0.51100000000E-03 0. -1.
         22    1    1    2    0    0  0.81542346325E+02 -0.18155834595E+03  0.21140009836E+03  0.29034908096E+03  0.00000000000E+00 0. -1.
          2    1    1    2  501    0  0.14475668446E+02  0.87426444394E+02 -0.75119268919E+03  0.75640160263E+03  0.25500000000E-02 0. -1.
<mgrwt>
<rscale>  0 0.88616749E+02</rscale>
<asrwt>0</asrwt>
<pdfrwt beam="1">  1       11 0.10000000E+01 0.14155393E+03</pdfrwt>
<pdfrwt beam="2">  1        2 0.12301604E+00 0.88616749E+02</pdfrwt>
<totfact> 0.46210210E+01</totfact>
</mgrwt>
</event>
<event>
 5    1  0.6729100E-004  0.2028267E+03  0.7818608E-02  0.1147376E+00
         11   -1    0    0    0    0  0.00000000000E+00  0.00000000000E+00  0.10007422425E+04  0.10007422425E+04  0.51100000000E-03 0. -1.
          2   -1    0    0  501    0 -0.00000000000E+00 -0.00000000000E+00 -0.27819316337E+03  0.27819316338E+03  0.25500000000E-02 0. -1.
         11    1    1    2    0    0  0.16431175970E+03 -0.13229000447E+03  0.89261753683E+03  0.91720502982E+03  0.51100000000E-03 0. -1.
         22    1    1    2    0    0 -0.31944132764E+01  0.96495125066E+01  0.56766049020E+02  0.57668897069E+02  0.00000000000E+00 0.  1.
          2    1    1    2  501    0 -0.16111734642E+03  0.12264049196E+03 -0.22683450670E+03  0.30406147902E+03  0.25500000000E-02 0. -1.
<mgrwt>
<rscale>  0 0.20282665E+03</rscale>
<asrwt>0</asrwt>
<pdfrwt beam="1">  1       11 0.10000000E+01 0.10164515E+02</pdfrwt>
<pdfrwt beam="2">  1        2 0.42830714E-01 0.20282665E+03</pdfrwt>
<totfact> 0.14695612E+02</totfact>
</mgrwt>
</event>
<event>
 5    1  0.6729100E-004  0.1752829E+03  0.7818608E-02  0.1172448E+00
         11   -1    0    0    0    0  0.00000000000E+00  0.00000000000E+00  0.10005433357E+04  0.10005433357E+04  0.51100000000E-03 0.  1.
          2   -1    0    0  501    0 -0.00000000000E+00 -0.00000000000E+00 -0.57609091929E+03  0.57609091930E+03  0.25500000000E-02 0.  1.
         11    1    1    2    0    0  0.18690441473E+03  0.12120720617E+03  0.82702305587E+03  0.85649961005E+03  0.51100000000E-03 0.  1.
         22    1    1    2    0    0 -0.54077746578E+02 -0.79749333747E+01  0.13994040624E+03  0.15023754369E+03  0.00000000000E+00 0. -1.
          2    1    1    2  501    0 -0.13282666816E+03 -0.11323227280E+03 -0.54251104566E+03  0.56989710128E+03  0.25500000000E-02 0.  1.
<mgrwt>
<rscale>  0 0.17528291E+03</rscale>
<asrwt>0</asrwt>
<pdfrwt beam="1">  1       11 0.10000000E+01 0.54662622E+02</pdfrwt>
<pdfrwt beam="2">  1        2 0.88677525E-01 0.17528291E+03</pdfrwt>
<totfact> 0.66548248E+01</totfact>
</mgrwt>
</event>
<event>
 5    1  0.6729100E-004  0.8691391E+02  0.7818608E-02  0.1502703E+00
         11   -1    0    0    0    0  0.00000000000E+00  0.00000000000E+00  0.10003478165E+04  0.10003478165E+04  0.51100000000E-03 0. -1.
          2   -1    0    0  501    0 -0.00000000000E+00 -0.00000000000E+00 -0.14131415750E+02  0.14131415980E+02  0.25500000000E-02 0. -1.
         11    1    1    2    0    0 -0.85435573314E+02 -0.25034082127E+02  0.42947486864E+03  0.43860529551E+03  0.51100000000E-03 0. -1.
         22    1    1    2    0    0  0.65726013665E+02  0.60710179184E+02  0.48653548100E+03  0.49469425810E+03  0.00000000000E+00 0. -1.
          2    1    1    2  501    0  0.19709559649E+02 -0.35676097056E+02  0.70206051151E+02  0.81179678907E+02  0.25500000000E-02 0. -1.
<mgrwt>
<rscale>  0 0.40758443E+02</rscale>
<asrwt>0</asrwt>
<pdfrwt beam="1">  1       11 0.10000000E+01 0.86913906E+02</pdfrwt>
<pdfrwt beam="2">  1        2 0.21748201E-02 0.40758443E+02</pdfrwt>
<totfact> 0.47508127E+03</totfact>
</mgrwt>
</event>
<event>
 5    1  0.6729100E-004  0.4359001E+02  0.7818608E-02  0.1702660E+00
         11   -1    0    0    0    0  0.00000000000E+00  0.00000000000E+00  0.10001304487E+04  0.10001304487E+04  0.51100000000E-03 0.  1.
          2   -1    0    0  501    0 -0.00000000000E+00 -0.00000000000E+00 -0.94065304652E+01  0.94065308108E+01  0.25500000000E-02 0.  1.
         11    1    1    2    0    0  0.49301105113E+01  0.51177770860E+02  0.71374129013E+02  0.87964404804E+02  0.51100000000E-03 0.  1.
         22    1    1    2    0    0  0.63040373901E+01 -0.95413255526E+01  0.56497805173E+02  0.57643557924E+02  0.00000000000E+00 0. -1.
          2    1    1    2  501    0 -0.11234147901E+02 -0.41636445308E+02  0.86285198409E+03  0.86392901682E+03  0.25500000000E-02 0.  1.
<mgrwt>
<rscale>  0 0.22326820E+02</rscale>
<asrwt>0</asrwt>
<pdfrwt beam="1">  1       11 0.10000000E+01 0.43590012E+02</pdfrwt>
<pdfrwt beam="2">  1        2 0.14473473E-02 0.22326820E+02</pdfrwt>
<totfact> 0.72422413E+03</totfact>
</mgrwt>
</event>
<event>
 5    1  0.6729100E-004  0.2879341E+02  0.7818608E-02  0.1721806E+00
         11   -1    0    0    0    0  0.00000000000E+00  0.00000000000E+00  0.10002228307E+04  0.10002228307E+04  0.51100000000E-03 0. -1.
          2   -1    0    0  501    0 -0.00000000000E+00 -0.00000000000E+00 -0.39332460640E+01  0.39332468906E+01  0.25500000000E-02 0. -1.
         11    1    1    2    0    0  0.24538989156E+02  0.15495291094E+02  0.69918956207E+02  0.75702882853E+02  0.51100000000E-03 0. -1.
         22    1    1    2    0    0  0.45663841602E+01 -0.14982103041E+02  0.76638795656E+02  0.78222888437E+02  0.00000000000E+00 0.  1.
          2    1    1    2  501    0 -0.29105373317E+02 -0.51318805284E+00  0.84973183275E+03  0.85023030627E+03  0.25500000000E-02 0. -1.
<mgrwt>
<rscale>  0 0.21236240E+02</rscale>
<asrwt>0</asrwt>
<pdfrwt beam="1">  1       11 0.10000000E+01 0.28793414E+02</pdfrwt>
<pdfrwt beam="2">  1        2 0.60524966E-03 0.21236240E+02</pdfrwt>
<totfact> 0.22237003E+04</totfact>
</mgrwt>
</event>
<event>
 5    1  0.6729100E-004  0.1162414E+03  0.7818608E-02  0.1571560E+00
         11   -1    0    0    0    0  0.00000000000E+00  0.00000000000E+00  0.10001302374E+04  0.10001302374E+04  0.51100000000E-03 0.  1.
          2   -1    0    0  501    0 -0.00000000000E+00 -0.00000000000E+00 -0.65401903186E+02  0.65401903236E+02  0.25500000000E-02 0. -1.
         11    1    1    2    0    0 -0.62179543382E+02 -0.10575467300E+03  0.64227393678E+03  0.65388543060E+03  0.51100000000E-03 0.  1.
         22    1    1    2    0    0  0.77218036773E+02  0.76893828149E+02  0.33830356708E+03  0.35542170658E+03  0.00000000000E+00 0.  1.
          2    1    1    2  501    0 -0.15038493391E+02  0.28860844850E+02 -0.45849169653E+02  0.56225003453E+02  0.25500000000E-02 0. -1.
<mgrwt>
<rscale>  0 0.32543888E+02</rscale>
<asrwt>0</asrwt>
<pdfrwt beam="1">  1       11 0.10000000E+01 0.11624141E+03</pdfrwt>
<pdfrwt beam="2">  1        2 0.10063141E-01 0.32543888E+02</pdfrwt>
<totfact> 0.68341593E+02</totfact>
</mgrwt>
</event>
<event>
 5    1  0.6729100E-004  0.1528219E+03  0.7818608E-02  0.1395613E+00
         11   -1    0    0    0    0  0.00000000000E+00  0.00000000000E+00  0.10003926902E+04  0.10003926902E+04  0.51100000000E-03 0.  1.
         -2   -1    0    0    0  501 -0.00000000000E+00 -0.00000000000E+00 -0.47728240391E+02  0.47728240459E+02  0.25500000000E-02 0. -1.
         11    1    1    2    0    0  0.90565866659E+01 -0.15164740142E+03  0.77544647468E+03  0.79018744056E+03  0.51100000000E-03 0.  1.
         22    1    1    2    0    0 -0.23053712843E+02 -0.65871273162E+01  0.46082063043E+02  0.51946322838E+02  0.00000000000E+00 0. -1.
         -2    1    1    2    0  501  0.13997126177E+02  0.15823452874E+03  0.13113591205E+03  0.20598716722E+03  0.25500000000E-02 0. -1.
<mgrwt>
<rscale>  0 0.60531861E+02</rscale>
<asrwt>0</asrwt>
<pdfrwt beam="1">  1       11 0.10000000E+01 0.15282188E+03</pdfrwt>
<pdfrwt beam="2">  1       -2 0.73456895E-02 0.60531861E+02</pdfrwt>
<totfact> 0.77159618E+02</totfact>
</mgrwt>
</event>
<event>
 5    1  0.6729100E-004  0.3246074E+03  0.7818608E-02  0.1236071E+00
         11   -1    0    0    0    0  0.00000000000E+00  0.00000000000E+00  0.10003852279E+04  0.10003852279E+04  0.51100000000E-03 0. -1.
         -2   -1    0    0    0  501 -0.00000000000E+00 -0.00000000000E+00 -0.60133768108E+03  0.60133768109E+03  0.25500000000E-02 0.  1.
         11    1    1    2    0    0 -0.26096279142E+03  0.12942269674E+03  0.39223342860E+03  0.48856818915E+03  0.51100000000E-03 0. -1.
         22    1    1    2    0    0  0.27881406643E+03 -0.25249607605E+03  0.48800706730E+03  0.61615132054E+03  0.00000000000E+00 0.  1.
         -2    1    1    2    0  501 -0.17851275009E+02  0.12307337931E+03 -0.48119294906E+03  0.49700339933E+03  0.25500000000E-02 0.  1.
<mgrwt>
<rscale>  0 0.12436127E+03</rscale>
<asrwt>0</asrwt>
<pdfrwt beam="1">  1       11 0.10000000E+01 0.32460740E+03</pdfrwt>
<pdfrwt beam="2">  1       -2 0.92549126E-01 0.12436127E+03</pdfrwt>
<totfact> 0.85060539E+00</totfact>
</mgrwt>
</event>
<event>
 5    1  0.6729100E-004  0.9788346E+02  0.7818608E-02  0.1417435E+00
         11   -1    0    0    0    0  0.00000000000E+00  0.00000000000E+00  0.10001952645E+04  0.10001952645E+04  0.51100000000E-03 0. -1.
          2   -1    0    0  501    0 -0.00000000000E+00 -0.00000000000E+00 -0.15731617387E+02  0.15731617594E+02  0.25500000000E-02 0. -1.
         11    1    1    2    0    0  0.33549440666E+02  0.99469829569E+02  0.63435459869E+03  0.64298177956E+03  0.51100000000E-03 0. -1.
         22    1    1    2    0    0  0.17800781947E+02 -0.26042442299E+02  0.45026794821E+02  0.54977166994E+02  0.00000000000E+00 0. -1.
          2    1    1    2  501    0 -0.51350222613E+02 -0.73427387271E+02  0.30508225358E+03  0.31796793552E+03  0.25500000000E-02 0. -1.
<mgrwt>
<rscale>  0 0.55567236E+02</rscale>
<asrwt>0</asrwt>
<pdfrwt beam="1">  1       11 0.10000000E+01 0.97883464E+02</pdfrwt>
<pdfrwt beam="2">  1        2 0.24207214E-02 0.55567236E+02</pdfrwt>
<totfact> 0.43182380E+03</totfact>
</mgrwt>
</event>
<event>
 5    1  0.6729100E-004  0.2879504E+03  0.7818608E-02  0.1091424E+00
         11   -1    0    0    0    0  0.00000000000E+00  0.00000000000E+00  0.10012298345E+04  0.10012298345E+04  0.51100000000E-03 0.  1.
          2   -1    0    0  501    0 -0.00000000000E+00 -0.00000000000E+00 -0.14704887418E+04  0.14704887418E+04  0.25500000000E-02 0.  1.
         11    1    1    2    0    0  0.32552931009E+03  0.39505303461E+02  0.78436294219E+03  0.85015011958E+03  0.51100000000E-03 0.  1.
         22    1    1    2    0    0 -0.40956638878E+02 -0.39115089605E+00  0.16712681806E+03  0.17207257940E+03  0.00000000000E+00 0.  1.
          2    1    1    2  501    0 -0.28457267121E+03 -0.39114152565E+02 -0.14207486676E+04  0.14494958774E+04  0.25500000000E-02 0.  1.
<mgrwt>
<rscale>  0 0.28795041E+03</rscale>
<asrwt>0</asrwt>
<pdfrwt beam="1">  1       11 0.10000000E+01 0.40958507E+02</pdfrwt>
<pdfrwt beam="2">  1        2 0.22650726E+00 0.28795041E+03</pdfrwt>
<totfact> 0.17626523E+01</totfact>
</mgrwt>
</event>
<event>
 5    1  0.6729100E-004  0.2586295E+03  0.7818608E-02  0.1109180E+00
         11   -1    0    0    0    0  0.00000000000E+00  0.00000000000E+00  0.10003584825E+04  0.10003584825E+04  0.51100000000E-03 0.  1.
          2   -1    0    0  501    0 -0.00000000000E+00 -0.00000000000E+00 -0.95157561117E+02  0.95157561151E+02  0.25500000000E-02 0.  1.
         11    1    1    2    0    0 -0.15824434251E+02  0.24663872549E+03  0.71028331903E+03  0.75205283519E+03  0.51100000000E-03 0.  1.
         22    1    1    2    0    0 -0.59205827692E+01  0.90771668499E+01  0.44910752562E+02  0.46199826342E+02  0.00000000000E+00 0. -1.
          2    1    1    2  501    0  0.21745017020E+02 -0.25571589234E+03  0.15000684980E+03  0.29726338213E+03  0.25500000000E-02 0.  1.
<mgrwt>
<rscale>  0 0.25663878E+03</rscale>
<asrwt>0</asrwt>
<pdfrwt beam="1">  1       11 0.10000000E+01 0.25862951E+03</pdfrwt>
<pdfrwt beam="2">  1        2 0.14644872E-01 0.25663878E+03</pdfrwt>
<totfact> 0.49339748E+02</totfact>
</mgrwt>
</event>
<event>
 5    1  0.6729100E-004  0.9201367E+02  0.7818608E-02  0.1298047E+00
         11   -1    0    0    0    0  0.00000000000E+00  0.00000000000E+00  0.10001695041E+04  0.10001695041E+04  0.51100000000E-03 0.  1.
          2   -1    0    0  501    0 -0.00000000000E+00 -0.00000000000E+00 -0.15926624345E+02  0.15926624549E+02  0.25500000000E-02 0.  1.
         11    1    1    2    0    0 -0.83723066415E+02  0.50612787621E+02  0.26591615894E+03  0.28334186014E+03  0.51100000000E-03 0.  1.
         22    1    1    2    0    0  0.42712859843E+02  0.31351141186E+02  0.27306599513E+03  0.27815880382E+03  0.00000000000E+00 0.  1.
          2    1    1    2  501    0  0.41010206572E+02 -0.81963928807E+02  0.44526072565E+03  0.45459546465E+03  0.25500000000E-02 0.  1.
<mgrwt>
<rscale>  0 0.92013666E+02</rscale>
<asrwt>0</asrwt>
<pdfrwt beam="1">  1       11 0.10000000E+01 0.52983794E+02</pdfrwt>
<pdfrwt beam="2">  1        2 0.24506652E-02 0.92013666E+02</pdfrwt>
<totfact> 0.45333466E+03</totfact>
</mgrwt>
</event>
<event>
 5    1  0.6729100E-004  0.2186344E+03  0.7818608E-02  0.1138519E+00
         11   -1    0    0    0    0  0.00000000000E+00  0.00000000000E+00  0.99983274133E+03  0.99983274133E+03  0.51100000000E-03 0.  1.
          2   -1    0    0  501    0 -0.00000000000E+00 -0.00000000000E+00 -0.49442967484E+03  0.49442967485E+03  0.25500000000E-02 0.  1.
         11    1    1    2    0    0  0.18024835937E+03  0.24045640052E+02  0.76911368342E+03  0.79031862048E+03  0.51100000000E-03 0.  1.
         22    1    1    2    0    0  0.33371100095E+02 -0.13225342056E+02  0.19475612608E+03  0.19803658409E+03  0.00000000000E+00 0. -1.
          2    1    1    2  501    0 -0.21361945946E+03 -0.10820297997E+02 -0.45846674300E+03  0.50590721161E+03  0.25500000000E-02 0.  1.
<mgrwt>
<rscale>  0 0.21389332E+03</rscale>
<asrwt>0</asrwt>
<pdfrwt beam="1">  1       11 0.10000000E+01 0.21863440E+03</pdfrwt>
<pdfrwt beam="2">  1        2 0.76053379E-01 0.21389332E+03</pdfrwt>
<totfact> 0.78820848E+01</totfact>
</mgrwt>
</event>
<event>
 5    1  0.6729100E-004  0.2005711E+03  0.7818608E-02  0.1149258E+00
         11   -1    0    0    0    0  0.00000000000E+00  0.00000000000E+00  0.99977089366E+03  0.99977089366E+03  0.51100000000E-03 0.  1.
          2   -1    0    0  501    0 -0.00000000000E+00 -0.00000000000E+00 -0.93464545235E+02  0.93464545270E+02  0.25500000000E-02 0.  1.
         11    1    1    2    0    0  0.81793540232E+02 -0.34333314033E+02  0.89962853326E+02  0.12634189588E+03  0.51100000000E-03 0.  1.
         22    1    1    2    0    0  0.80121980069E+02  0.16497491743E+03  0.70987812194E+03  0.73318701781E+03  0.00000000000E+00 0.  1.
          2    1    1    2  501    0 -0.16191552030E+03 -0.13064160339E+03  0.10646537315E+03  0.23370652524E+03  0.25500000000E-02 0.  1.
<mgrwt>
<rscale>  0 0.20057108E+03</rscale>
<asrwt>0</asrwt>
<pdfrwt beam="1">  1       11 0.10000000E+01 0.88707201E+02</pdfrwt>
<pdfrwt beam="2">  1        2 0.14375866E-01 0.20057108E+03</pdfrwt>
<totfact> 0.49976997E+02</totfact>
</mgrwt>
</event>
<event>
 5    1  0.6729100E-004  0.1338112E+03  0.7818608E-02  0.1221908E+00
         11   -1    0    0    0    0  0.00000000000E+00  0.00000000000E+00  0.10005453606E+04  0.10005453606E+04  0.51100000000E-03 0. -1.
          2   -1    0    0  501    0 -0.00000000000E+00 -0.00000000000E+00 -0.61346286772E+03  0.61346286773E+03  0.25500000000E-02 0. -1.
         11    1    1    2    0    0 -0.11492845460E+03  0.21273298678E+03  0.42301895374E+03  0.48724625044E+03  0.51100000000E-03 0. -1.
         22    1    1    2    0    0  0.82084866622E+02 -0.84754004468E+02  0.53134991319E+03  0.54429210618E+03  0.00000000000E+00 0. -1.
          2    1    1    2  501    0  0.32843587978E+02 -0.12797898231E+03 -0.56728637408E+03  0.58246987168E+03  0.25500000000E-02 0. -1.
<mgrwt>
<rscale>  0 0.13381124E+03</rscale>
<asrwt>0</asrwt>
<pdfrwt beam="1">  1       11 0.10000000E+01 0.11798799E+03</pdfrwt>
<pdfrwt beam="2">  1        2 0.94430371E-01 0.13381124E+03</pdfrwt>
<totfact> 0.62319543E+01</totfact>
</mgrwt>
</event>
<event>
 5    1  0.6729100E-004  0.1587403E+03  0.7818608E-02  0.1190126E+00
         11   -1    0    0    0    0  0.00000000000E+00  0.00000000000E+00  0.10002511889E+04  0.10002511889E+04  0.51100000000E-03 0.  1.
          2   -1    0    0  501    0 -0.00000000000E+00 -0.00000000000E+00 -0.22305032828E+03  0.22305032830E+03  0.25500000000E-02 0.  1.
         11    1    1    2    0    0 -0.14458019692E+03 -0.67763012067E+02  0.90241450354E+03  0.91643177342E+03  0.51100000000E-03 0.  1.
         22    1    1    2    0    0  0.66339266121E+01 -0.10752900301E+02  0.60938328212E+02  0.62234344958E+02  0.00000000000E+00 0.  1.
          2    1    1    2  501    0  0.13794627030E+03  0.78515912368E+02 -0.18615197114E+03  0.24463539881E+03  0.25500000000E-02 0.  1.
<mgrwt>
<rscale>  0 0.15874033E+03</rscale>
<asrwt>0</asrwt>
<pdfrwt beam="1">  1       11 0.10000000E+01 0.12634629E+02</pdfrwt>
<pdfrwt beam="2">  1        2 0.34324054E-01 0.15874033E+03</pdfrwt>
<totfact> 0.18602085E+02</totfact>
</mgrwt>
</event>
<event>
 5    1  0.6729100E-004  0.1014292E+03  0.7818608E-02  0.1277319E+00
         11   -1    0    0    0    0  0.00000000000E+00  0.00000000000E+00  0.10001792150E+04  0.10001792150E+04  0.51100000000E-03 0.  1.
          2   -1    0    0  501    0 -0.00000000000E+00 -0.00000000000E+00 -0.49768945563E+02  0.49768945628E+02  0.25500000000E-02 0.  1.
         11    1    1    2    0    0  0.99095357184E+02 -0.15091339237E+02  0.11577506108E+02  0.10090429616E+03  0.51100000000E-03 0.  1.
         22    1    1    2    0    0  0.19368541663E+02  0.34070492458E+01  0.11900315787E+03  0.12061716285E+03  0.00000000000E+00 0. -1.
          2    1    1    2  501    0 -0.11846389885E+03  0.11684289991E+02  0.81982960544E+03  0.82842670160E+03  0.25500000000E-02 0.  1.
<mgrwt>
<rscale>  0 0.10142916E+03</rscale>
<asrwt>0</asrwt>
<pdfrwt beam="1">  1       11 0.10000000E+01 0.19665920E+02</pdfrwt>
<pdfrwt beam="2">  1        2 0.76581328E-02 0.10142916E+03</pdfrwt>
<totfact> 0.10390180E+03</totfact>
</mgrwt>
</event>
<event>
 5    1  0.6729100E-004  0.1291486E+03  0.7818608E-02  0.1228725E+00
         11   -1    0    0    0    0  0.00000000000E+00  0.00000000000E+00  0.10001422674E+04  0.10001422674E+04  0.51100000000E-03 0. -1.
         -2   -1    0    0    0  501 -0.00000000000E+00 -0.00000000000E+00 -0.58622328469E+02  0.58622328524E+02  0.25500000000E-02 0.  1.
         11    1    1    2    0    0  0.10119723106E+03  0.12541524806E+03  0.79587554857E+03  0.81202694095E+03  0.51100000000E-03 0. -1.
         22    1    1    2    0    0 -0.21533989718E+02 -0.27986915592E+02  0.11059680740E+03  0.11609751921E+03  0.00000000000E+00 0.  1.
         -2    1    1    2    0  501 -0.79663241341E+02 -0.97428332466E+02  0.35047582916E+02  0.13064013573E+03  0.25500000000E-02 0.  1.
<mgrwt>
<rscale>  0 0.12914862E+03</rscale>
<asrwt>0</asrwt>
<pdfrwt beam="1">  1       11 0.10000000E+01 0.35312606E+02</pdfrwt>
<pdfrwt beam="2">  1       -2 0.90201026E-02 0.12914862E+03</pdfrwt>
<totfact> 0.59789638E+02</totfact>
</mgrwt>
</event>
<event>
 5    1  0.6729100E-004  0.6298921E+02  0.7818608E-02  0.1485858E+00
         11   -1    0    0    0    0  0.00000000000E+00  0.00000000000E+00  0.10000931257E+04  0.10000931257E+04  0.51100000000E-03 0.  1.
          2   -1    0    0  501    0 -0.00000000000E+00 -0.00000000000E+00 -0.64775076383E+01  0.64775081402E+01  0.25500000000E-02 0.  1.
         11    1    1    2    0    0  0.29604412830E+02 -0.53743863341E+02  0.34873188846E+03  0.35408862469E+03  0.51100000000E-03 0.  1.
         22    1    1    2    0    0  0.25523051966E+02  0.15064057058E+02  0.13816887865E+03  0.14131168042E+03  0.00000000000E+00 0.  1.
          2    1    1    2  501    0 -0.55127464796E+02  0.38679806283E+02  0.50671485096E+03  0.51117032874E+03  0.25500000000E-02 0.  1.
<mgrwt>
<rscale>  0 0.43206604E+02</rscale>
<asrwt>0</asrwt>
<pdfrwt beam="1">  1       11 0.10000000E+01 0.62989214E+02</pdfrwt>
<pdfrwt beam="2">  1        2 0.99663245E-03 0.43206604E+02</pdfrwt>
<totfact> 0.13478444E+04</totfact>
</mgrwt>
</event>
<event>
 5    1  0.6729100E-004  0.1733390E+03  0.7818608E-02  0.1175967E+00
         11   -1    0    0    0    0  0.00000000000E+00  0.00000000000E+00  0.10001767609E+04  0.10001767609E+04  0.51100000000E-03 0.  1.
          2   -1    0    0  501    0 -0.00000000000E+00 -0.00000000000E+00 -0.15578254723E+03  0.15578254725E+03  0.25500000000E-02 0.  1.
         11    1    1    2    0    0 -0.42719314956E+02 -0.15544199756E+03  0.89236093130E+03  0.90680493282E+03  0.51100000000E-03 0.  1.
         22    1    1    2    0    0 -0.78496854915E+01 -0.87635035051E+01  0.50003930292E+02  0.51369344951E+02  0.00000000000E+00 0. -1.
          2    1    1    2  501    0  0.50569000448E+02  0.16420550107E+03 -0.97970647911E+02  0.19778503039E+03  0.25500000000E-02 0.  1.
<mgrwt>
<rscale>  0 0.17181580E+03</rscale>
<asrwt>0</asrwt>
<pdfrwt beam="1">  1       11 0.10000000E+01 0.17333902E+03</pdfrwt>
<pdfrwt beam="2">  1        2 0.23970781E-01 0.17181580E+03</pdfrwt>
<totfact> 0.27600719E+02</totfact>
</mgrwt>
</event>
<event>
 5    1  0.6729100E-004  0.7119709E+02  0.7818608E-02  0.1356069E+00
         11   -1    0    0    0    0  0.00000000000E+00  0.00000000000E+00  0.10000145998E+04  0.10000145998E+04  0.51100000000E-03 0.  1.
          2   -1    0    0  501    0 -0.00000000000E+00 -0.00000000000E+00 -0.99208076203E+02  0.99208076236E+02  0.25500000000E-02 0. -1.
         11    1    1    2    0    0 -0.45387158597E+02  0.11688707395E+03  0.64715705470E+03  0.65919256343E+03  0.51100000000E-03 0.  1.
         22    1    1    2    0    0  0.33990761573E+02 -0.47694135625E+02  0.33069996328E+03  0.33584604830E+03  0.00000000000E+00 0.  1.
          2    1    1    2  501    0  0.11396397024E+02 -0.69192938320E+02 -0.77050494349E+02  0.10418406435E+03  0.25500000000E-02 0. -1.
<mgrwt>
<rscale>  0 0.71197087E+02</rscale>
<asrwt>0</asrwt>
<pdfrwt beam="1">  1       11 0.10000000E+01 0.58567076E+02</pdfrwt>
<pdfrwt beam="2">  1        2 0.15263003E-01 0.71197087E+02</pdfrwt>
<totfact> 0.44491727E+02</totfact>
</mgrwt>
</event>
<event>
 5    1  0.6729100E-004  0.1791688E+03  0.7818608E-02  0.1168610E+00
         11   -1    0    0    0    0  0.00000000000E+00  0.00000000000E+00  0.99991768780E+03  0.99991768780E+03  0.51100000000E-03 0. -1.
          2   -1    0    0  501    0 -0.00000000000E+00 -0.00000000000E+00 -0.36228901732E+03  0.36228901732E+03  0.25500000000E-02 0. -1.
         11    1    1    2    0    0 -0.44559231667E+02 -0.32909501890E+03  0.63866972530E+03  0.71985281454E+03  0.51100000000E-03 0. -1.
         22    1    1    2    0    0  0.23222729050E+02  0.15688372872E+03  0.27432673378E+03  0.31687056718E+03  0.00000000000E+00 0. -1.
          2    1    1    2  501    0  0.21336502618E+02  0.17221129018E+03 -0.27536778859E+03  0.32548332340E+03  0.25500000000E-02 0. -1.
<mgrwt>
<rscale>  0 0.17916881E+03</rscale>
<asrwt>0</asrwt>
<pdfrwt beam="1">  1       11 0.10000000E+01 0.15859319E+03</pdfrwt>
<pdfrwt beam="2">  1        2 0.55732182E-01 0.17916881E+03</pdfrwt>
<totfact> 0.11079326E+02</totfact>
</mgrwt>
</event>
<event>
 5    1  0.6729100E-004  0.1018379E+03  0.7818608E-02  0.1377248E+00
         11   -1    0    0    0    0  0.00000000000E+00  0.00000000000E+00  0.99989528102E+03  0.99989528102E+03  0.51100000000E-03 0. -1.
          2   -1    0    0  501    0 -0.00000000000E+00 -0.00000000000E+00 -0.20634716261E+02  0.20634716419E+02  0.25500000000E-02 0. -1.
         11    1    1    2    0    0 -0.11104691199E+02  0.77269027368E+02  0.18374783956E+03  0.19964239355E+03  0.51100000000E-03 0. -1.
         22    1    1    2    0    0 -0.40539199025E+02 -0.11705594051E+03  0.64614834542E+03  0.65791580324E+03  0.00000000000E+00 0. -1.
          2    1    1    2  501    0  0.51643890224E+02  0.39786913140E+02  0.14936437977E+03  0.16297180065E+03  0.25500000000E-02 0. -1.
<mgrwt>
<rscale>  0 0.65192713E+02</rscale>
<asrwt>0</asrwt>
<pdfrwt beam="1">  1       11 0.10000000E+01 0.10183792E+03</pdfrwt>
<pdfrwt beam="2">  1        2 0.31742392E-02 0.65192713E+02</pdfrwt>
<totfact> 0.30871327E+03</totfact>
</mgrwt>
</event>
<event>
 5    1  0.6729100E-004  0.1477139E+03  0.7818608E-02  0.1372606E+00
         11   -1    0    0    0    0  0.00000000000E+00  0.00000000000E+00  0.10001588321E+04  0.10001588321E+04  0.51100000000E-03 0.  1.
          2   -1    0    0  501    0 -0.00000000000E+00 -0.00000000000E+00 -0.75925033333E+03  0.75925033333E+03  0.25500000000E-02 0.  1.
         11    1    1    2    0    0  0.16775185767E+03  0.12871764413E+02  0.84582729205E+03  0.86239792211E+03  0.51100000000E-03 0.  1.
         22    1    1    2    0    0 -0.10275000894E+03  0.91545541857E+00  0.12627759030E+03  0.16280181881E+03  0.00000000000E+00 0. -1.
          2    1    1    2  501    0 -0.65001848735E+02 -0.13787219831E+02 -0.73119638355E+03  0.73420942455E+03  0.25500000000E-02 0.  1.
<mgrwt>
<rscale>  0 0.66447933E+02</rscale>
<asrwt>0</asrwt>
<pdfrwt beam="1">  1       11 0.10000000E+01 0.14771394E+03</pdfrwt>
<pdfrwt beam="2">  1        2 0.11682629E+00 0.66447933E+02</pdfrwt>
<totfact> 0.49677301E+01</totfact>
</mgrwt>
</event>
<event>
 5    1  0.6729100E-004  0.1120843E+03  0.7818608E-02  0.1587024E+00
         11   -1    0    0    0    0  0.00000000000E+00  0.00000000000E+00  0.10008684255E+04  0.10008684255E+04  0.51100000000E-03 0.  1.
          2   -1    0    0  501    0 -0.00000000000E+00 -0.00000000000E+00 -0.15575249468E+04  0.15575249469E+04  0.25500000000E-02 0.  1.
         11    1    1    2    0    0 -0.99268355917E+02 -0.28394888050E+02  0.28802057964E+03  0.30596785852E+03  0.51100000000E-03 0.  1.
         22    1    1    2    0    0  0.10218686562E+03  0.59282638857E+02  0.69876015043E+03  0.70867646681E+03  0.00000000000E+00 0. -1.
          2    1    1    2  501    0 -0.29185097055E+01 -0.30887750808E+02 -0.15434372515E+04  0.15437490470E+04  0.25500000000E-02 0.  1.
<mgrwt>
<rscale>  0 0.31025326E+02</rscale>
<asrwt>0</asrwt>
<pdfrwt beam="1">  1       11 0.10000000E+01 0.11208429E+03</pdfrwt>
<pdfrwt beam="2">  1        2 0.23982731E+00 0.31025326E+02</pdfrwt>
<totfact> 0.19150776E+01</totfact>
</mgrwt>
</event>
<event>
 5    1  0.6729100E-004  0.1359109E+03  0.7818608E-02  0.1296118E+00
         11   -1    0    0    0    0  0.00000000000E+00  0.00000000000E+00  0.10002164393E+04  0.10002164393E+04  0.51100000000E-03 0.  1.
         -2   -1    0    0    0  501 -0.00000000000E+00 -0.00000000000E+00 -0.68116558071E+02  0.68116558119E+02  0.25500000000E-02 0. -1.
         11    1    1    2    0    0  0.12882484660E+03  0.15233576599E+02  0.70599285021E+03  0.71781181901E+03  0.51100000000E-03 0.  1.
         22    1    1    2    0    0  0.63206558162E+02 -0.51707091093E+01  0.10683588330E+03  0.12424053762E+03  0.00000000000E+00 0. -1.
         -2    1    1    2    0  501 -0.19203140477E+03 -0.10062867489E+02  0.11927114775E+03  0.22628064082E+03  0.25500000000E-02 0. -1.
<mgrwt>
<rscale>  0 0.92839428E+02</rscale>
<asrwt>0</asrwt>
<pdfrwt beam="1">  1       11 0.10000000E+01 0.13591093E+03</pdfrwt>
<pdfrwt beam="2">  1       -2 0.10481738E-01 0.92839428E+02</pdfrwt>
<totfact> 0.46291563E+02</totfact>
</mgrwt>
</event>
<event>
 5    1  0.6729100E-004  0.1602751E+03  0.7818608E-02  0.1188387E+00
         11   -1    0    0    0    0  0.00000000000E+00  0.00000000000E+00  0.10002463044E+04  0.10002463044E+04  0.51100000000E-03 0. -1.
          2   -1    0    0  501    0 -0.00000000000E+00 -0.00000000000E+00 -0.36225583765E+02  0.36225583854E+02  0.25500000000E-02 0. -1.
         11    1    1    2    0    0 -0.77161092558E+02 -0.12633326706E+03  0.48502303484E+03  0.50711071069E+03  0.51100000000E-03 0. -1.
         22    1    1    2    0    0  0.25799557046E+02 -0.35677459662E+02  0.18125369605E+03  0.18652453084E+03  0.00000000000E+00 0. -1.
          2    1    1    2  501    0  0.51361535512E+02  0.16201072673E+03  0.29774398975E+03  0.34283664673E+03  0.25500000000E-02 0. -1.
<mgrwt>
<rscale>  0 0.16027508E+03</rscale>
<asrwt>0</asrwt>
<pdfrwt beam="1">  1       11 0.10000000E+01 0.44028380E+02</pdfrwt>
<pdfrwt beam="2">  1        2 0.55745393E-02 0.16027508E+03</pdfrwt>
<totfact> 0.16112971E+03</totfact>
</mgrwt>
</event>
<event>
 5    1  0.6729100E-004  0.3198479E+03  0.7818608E-02  0.1076918E+00
         11   -1    0    0    0    0  0.00000000000E+00  0.00000000000E+00  0.10001586336E+04  0.10001586336E+04  0.51100000000E-03 0.  1.
          2   -1    0    0  501    0 -0.00000000000E+00 -0.00000000000E+00 -0.28207173398E+03  0.28207173400E+03  0.25500000000E-02 0.  1.
         11    1    1    2    0    0  0.29551065532E+03 -0.82941172109E+02  0.81634189106E+03  0.87213523523E+03  0.51100000000E-03 0.  1.
         22    1    1    2    0    0  0.93495777910E+01 -0.48807366491E+01  0.56239428840E+02  0.57219835297E+02  0.00000000000E+00 0. -1.
          2    1    1    2  501    0 -0.30486023311E+03  0.87821908758E+02 -0.15449442027E+03  0.35287529708E+03  0.25500000000E-02 0.  1.
<mgrwt>
<rscale>  0 0.31725770E+03</rscale>
<asrwt>0</asrwt>
<pdfrwt beam="1">  1       11 0.10000000E+01 0.31984791E+03</pdfrwt>
<pdfrwt beam="2">  1        2 0.43402534E-01 0.31725770E+03</pdfrwt>
<totfact> 0.14511442E+02</totfact>
</mgrwt>
</event>
<event>
 5    1  0.6729100E-004  0.1327501E+03  0.7818608E-02  0.1223431E+00
         11   -1    0    0    0    0  0.00000000000E+00  0.00000000000E+00  0.10003163600E+04  0.10003163600E+04  0.51100000000E-03 0.  1.
          2   -1    0    0  501    0 -0.00000000000E+00 -0.00000000000E+00 -0.21896306770E+02  0.21896306919E+02  0.25500000000E-02 0.  1.
         11    1    1    2    0    0  0.11230365181E+03 -0.75288465152E+02  0.62762837087E+03  0.64202635080E+03  0.51100000000E-03 0.  1.
         22    1    1    2    0    0  0.24677220523E+01  0.10692177991E+02  0.59525317216E+02  0.60528305048E+02  0.00000000000E+00 0. -1.
          2    1    1    2  501    0 -0.11477137387E+03  0.64596287161E+02  0.29126636516E+03  0.31965801109E+03  0.25500000000E-02 0.  1.
<mgrwt>
<rscale>  0 0.13275009E+03</rscale>
<asrwt>0</asrwt>
<pdfrwt beam="1">  1       11 0.10000000E+01 0.10973255E+02</pdfrwt>
<pdfrwt beam="2">  1        2 0.33697282E-02 0.13275009E+03</pdfrwt>
<totfact> 0.30808341E+03</totfact>
</mgrwt>
</event>
<event>
 5    1  0.6729100E-004  0.1921502E+03  0.7818608E-02  0.1156536E+00
         11   -1    0    0    0    0  0.00000000000E+00  0.00000000000E+00  0.99992077989E+03  0.99992077989E+03  0.51100000000E-03 0. -1.
          2   -1    0    0  501    0 -0.00000000000E+00 -0.00000000000E+00 -0.94528503910E+03  0.94528503910E+03  0.25500000000E-02 0. -1.
         11    1    1    2    0    0  0.13136963017E+03  0.79830505408E+02  0.86935289452E+03  0.88283936508E+03  0.51100000000E-03 0. -1.
         22    1    1    2    0    0  0.89704680871E+00  0.60238506775E+02  0.10588435533E+03  0.12182355723E+03  0.00000000000E+00 0.  1.
          2    1    1    2  501    0 -0.13226667698E+03 -0.14006901218E+03 -0.92060150906E+03  0.94054289668E+03  0.25500000000E-02 0. -1.
<mgrwt>
<rscale>  0 0.19215020E+03</rscale>
<asrwt>0</asrwt>
<pdfrwt beam="1">  1       11 0.10000000E+01 0.60245186E+02</pdfrwt>
<pdfrwt beam="2">  1        2 0.14541694E+00 0.19215020E+03</pdfrwt>
<totfact> 0.36087276E+01</totfact>
</mgrwt>
</event>
<event>
 5    1  0.6729100E-004  0.2098307E+03  0.7818608E-02  0.1210353E+00
         11   -1    0    0    0    0  0.00000000000E+00  0.00000000000E+00  0.10002395539E+04  0.10002395539E+04  0.51100000000E-03 0. -1.
          2   -1    0    0  501    0 -0.00000000000E+00 -0.00000000000E+00 -0.11852416508E+03  0.11852416511E+03  0.25500000000E-02 0. -1.
         11    1    1    2    0    0 -0.15709032632E+03 -0.23205409992E+03  0.62832489583E+03  0.68798157725E+03  0.51100000000E-03 0. -1.
         22    1    1    2    0    0  0.12942593202E+03  0.92535360029E+02  0.23996015882E+03  0.28791447090E+03  0.00000000000E+00 0.  1.
          2    1    1    2  501    0  0.27664394295E+02  0.13951873989E+03  0.13430334158E+02  0.14286767085E+03  0.25500000000E-02 0. -1.
<mgrwt>
<rscale>  0 0.14223501E+03</rscale>
<asrwt>0</asrwt>
<pdfrwt beam="1">  1       11 0.10000000E+01 0.20983071E+03</pdfrwt>
<pdfrwt beam="2">  1        2 0.18238855E-01 0.14223501E+03</pdfrwt>
<totfact> 0.37371406E+02</totfact>
</mgrwt>
</event>
<event>
 5    1  0.6729100E-004  0.3322156E+03  0.7818608E-02  0.1070161E+00
         11   -1    0    0    0    0  0.00000000000E+00  0.00000000000E+00  0.10006440278E+04  0.10006440278E+04  0.51100000000E-03 0. -1.
          2   -1    0    0  501    0 -0.00000000000E+00 -0.00000000000E+00 -0.79115154301E+03  0.79115154301E+03  0.25500000000E-02 0. -1.
         11    1    1    2    0    0  0.33606614392E+03  0.30201450688E+02  0.88128822419E+03  0.94367447503E+03  0.51100000000E-03 0. -1.
         22    1    1    2    0    0 -0.43204789577E+01 -0.16616730441E+02  0.50407765036E+02  0.53251526221E+02  0.00000000000E+00 0. -1.
          2    1    1    2  501    0 -0.33174566496E+03 -0.13584720247E+02 -0.72220350442E+03  0.79486956958E+03  0.25500000000E-02 0. -1.
<mgrwt>
<rscale>  0 0.33221563E+03</rscale>
<asrwt>0</asrwt>
<pdfrwt beam="1">  1       11 0.10000000E+01 0.17169224E+02</pdfrwt>
<pdfrwt beam="2">  1        2 0.12179401E+00 0.33221563E+03</pdfrwt>
<totfact> 0.44594005E+01</totfact>
</mgrwt>
</event>
<event>
 5    1  0.6729100E-004  0.1507621E+03  0.7818608E-02  0.1199540E+00
         11   -1    0    0    0    0  0.00000000000E+00  0.00000000000E+00  0.10002717975E+04  0.10002717975E+04  0.51100000000E-03 0.  1.
          2   -1    0    0  501    0 -0.00000000000E+00 -0.00000000000E+00 -0.62492597927E+02  0.62492597979E+02  0.25500000000E-02 0.  1.
         11    1    1    2    0    0 -0.38639464733E+02  0.18689461759E+03  0.47064167587E+03  0.50786434545E+03  0.51100000000E-03 0.  1.
         22    1    1    2    0    0  0.98049733030E+02 -0.53131562837E+02  0.35029581247E+03  0.36761919068E+03  0.00000000000E+00 0.  1.
          2    1    1    2  501    0 -0.59410268297E+02 -0.13376305475E+03  0.11684171128E+03  0.18728085940E+03  0.25500000000E-02 0.  1.
<mgrwt>
<rscale>  0 0.15076214E+03</rscale>
<asrwt>0</asrwt>
<pdfrwt beam="1">  1       11 0.10000000E+01 0.11152001E+03</pdfrwt>
<pdfrwt beam="2">  1        2 0.96168587E-02 0.15076214E+03</pdfrwt>
<totfact> 0.80290346E+02</totfact>
</mgrwt>
</event>
<event>
 5    1  0.6729100E-004  0.1053132E+03  0.7818608E-02  0.1269504E+00
         11   -1    0    0    0    0  0.00000000000E+00  0.00000000000E+00  0.10001702315E+04  0.10001702315E+04  0.51100000000E-03 0.  1.
         -2   -1    0    0    0  501 -0.00000000000E+00 -0.00000000000E+00 -0.22024880607E+03  0.22024880608E+03  0.25500000000E-02 0. -1.
         11    1    1    2    0    0 -0.11822540383E+03  0.89574674091E+02  0.89663061786E+03  0.90881644639E+03  0.51100000000E-03 0.  1.
         22    1    1    2    0    0  0.17885691451E+02 -0.59311657964E+02  0.72465663000E+02  0.95336472785E+02  0.00000000000E+00 0.  1.
         -2    1    1    2    0  501  0.10033971238E+03 -0.30263016126E+02 -0.18917485544E+03  0.21626611839E+03  0.25500000000E-02 0. -1.
<mgrwt>
<rscale>  0 0.10531325E+03</rscale>
<asrwt>0</asrwt>
<pdfrwt beam="1">  1       11 0.10000000E+01 0.61949744E+02</pdfrwt>
<pdfrwt beam="2">  1       -2 0.33890199E-01 0.10531325E+03</pdfrwt>
<totfact> 0.65130469E+01</totfact>
</mgrwt>
</event>
<event>
 5    1  0.6729100E-004  0.1457369E+03  0.7818608E-02  0.1205811E+00
         11   -1    0    0    0    0  0.00000000000E+00  0.00000000000E+00  0.99967338092E+03  0.99967338092E+03  0.51100000000E-03 0. -1.
          2   -1    0    0  501    0 -0.00000000000E+00 -0.00000000000E+00 -0.30437669591E+03  0.30437669592E+03  0.25500000000E-02 0.  1.
         11    1    1    2    0    0 -0.17773806821E+03  0.76809314867E+01  0.83158006017E+03  0.85039709199E+03  0.51100000000E-03 0. -1.
         22    1    1    2    0    0  0.37564474206E+02 -0.45612471622E+02  0.13421142061E+03  0.14664342028E+03  0.00000000000E+00 0. -1.
          2    1    1    2  501    0  0.14017359400E+03  0.37931540135E+02 -0.27049479576E+03  0.30700956457E+03  0.25500000000E-02 0.  1.
<mgrwt>
<rscale>  0 0.14573694E+03</rscale>
<asrwt>0</asrwt>
<pdfrwt beam="1">  1       11 0.10000000E+01 0.59089655E+02</pdfrwt>
<pdfrwt beam="2">  1        2 0.46811888E-01 0.14573694E+03</pdfrwt>
<totfact> 0.13345345E+02</totfact>
</mgrwt>
</event>
<event>
 5    1  0.6729100E-004  0.1528637E+03  0.7818608E-02  0.1674193E+00
         11   -1    0    0    0    0  0.00000000000E+00  0.00000000000E+00  0.10004245062E+04  0.10004245062E+04  0.51100000000E-03 0.  1.
          2   -1    0    0  501    0 -0.00000000000E+00 -0.00000000000E+00 -0.17539910173E+04  0.17539910173E+04  0.25500000000E-02 0. -1.
         11    1    1    2    0    0 -0.16551224886E+03 -0.44888738249E+02  0.23579186453E+03  0.29155978242E+03  0.51100000000E-03 0.  1.
         22    1    1    2    0    0  0.14146426880E+03  0.43224681241E+02  0.72923862085E+03  0.74408969793E+03  0.00000000000E+00 0.  1.
          2    1    1    2  501    0  0.24047980056E+02  0.16640570081E+01 -0.17185969965E+04  0.17187660431E+04  0.25500000000E-02 0. -1.
<mgrwt>
<rscale>  0 0.24105486E+02</rscale>
<asrwt>0</asrwt>
<pdfrwt beam="1">  1       11 0.10000000E+01 0.15286368E+03</pdfrwt>
<pdfrwt beam="2">  1        2 0.26995931E+00 0.24105486E+02</pdfrwt>
<totfact> 0.15897357E+01</totfact>
</mgrwt>
</event>
<event>
 5    1  0.6937818E-004  0.2118500E+03  0.7818608E-02  0.1140109E+00
         11   -1    0    0    0    0  0.00000000000E+00  0.00000000000E+00  0.10009039674E+04  0.10009039674E+04  0.51100000000E-03 0.  1.
          2   -1    0    0  501    0 -0.00000000000E+00 -0.00000000000E+00 -0.12932572561E+04  0.12932572561E+04  0.25500000000E-02 0.  1.
         11    1    1    2    0    0 -0.18031071375E+02 -0.21303243145E+03  0.94550042813E+03  0.96937041216E+03  0.51100000000E-03 0.  1.
         22    1    1    2    0    0 -0.10703034976E+02  0.31554510612E+01  0.33810128548E+02  0.35603884922E+02  0.00000000000E+00 0.  1.
          2    1    1    2  501    0  0.28734106351E+02  0.20987698038E+03 -0.12716638453E+04  0.12891869264E+04  0.25500000000E-02 0.  1.
<mgrwt>
<rscale>  0 0.21185004E+03</rscale>
<asrwt>0</asrwt>
<pdfrwt beam="1">  1       11 0.10000000E+01 0.11158487E+02</pdfrwt>
<pdfrwt beam="2">  1        2 0.19914250E+00 0.21185004E+03</pdfrwt>
<totfact> 0.22496964E+01</totfact>
</mgrwt>
</event>
<event>
 5    1  0.6729100E-004  0.4561267E+03  0.7818608E-02  0.1025911E+00
         11   -1    0    0    0    0  0.00000000000E+00  0.00000000000E+00  0.10003097385E+04  0.10003097385E+04  0.51100000000E-03 0.  1.
          2   -1    0    0  501    0 -0.00000000000E+00 -0.00000000000E+00 -0.88450206739E+03  0.88450206739E+03  0.25500000000E-02 0.  1.
         11    1    1    2    0    0 -0.17958522239E+03 -0.37266442226E+03  0.64726600687E+03  0.76816854099E+03  0.51100000000E-03 0.  1.
         22    1    1    2    0    0 -0.52358725657E+02 -0.24700829942E+02  0.22440665432E+03  0.23175399382E+03  0.00000000000E+00 0.  1.
          2    1    1    2  501    0  0.23194394805E+03  0.39736525220E+03 -0.75586499012E+03  0.88488927103E+03  0.25500000000E-02 0.  1.
<mgrwt>
<rscale>  0 0.45612665E+03</rscale>
<asrwt>0</asrwt>
<pdfrwt beam="1">  1       11 0.10000000E+01 0.57892721E+02</pdfrwt>
<pdfrwt beam="2">  1        2 0.13611939E+00 0.45612665E+03</pdfrwt>
<totfact> 0.38043917E+01</totfact>
</mgrwt>
</event>
<event>
 5    1  0.6729100E-004  0.1813322E+03  0.7818608E-02  0.1329183E+00
         11   -1    0    0    0    0  0.00000000000E+00  0.00000000000E+00  0.10004138829E+04  0.10004138829E+04  0.51100000000E-03 0. -1.
          2   -1    0    0  501    0 -0.00000000000E+00 -0.00000000000E+00 -0.77231455869E+02  0.77231455911E+02  0.25500000000E-02 0. -1.
         11    1    1    2    0    0  0.14510028301E+03 -0.92319804323E+02  0.57437812217E+03  0.59957256911E+03  0.51100000000E-03 0. -1.
         22    1    1    2    0    0 -0.20895340983E+03  0.44201279318E+02  0.33446967508E+03  0.39684410556E+03  0.00000000000E+00 0. -1.
          2    1    1    2  501    0  0.63853126822E+02  0.48118525005E+02  0.14334629737E+02  0.81228664090E+02  0.25500000000E-02 0. -1.
<mgrwt>
<rscale>  0 0.79953826E+02</rscale>
<asrwt>0</asrwt>
<pdfrwt beam="1">  1       11 0.10000000E+01 0.18133223E+03</pdfrwt>
<pdfrwt beam="2">  1        2 0.11886680E-01 0.79953826E+02</pdfrwt>
<totfact> 0.59904514E+02</totfact>
</mgrwt>
</event>
<event>
 5    1  0.6729100E-004  0.2623491E+03  0.7818608E-02  0.1105740E+00
         11   -1    0    0    0    0  0.00000000000E+00  0.00000000000E+00  0.10004981564E+04  0.10004981564E+04  0.51100000000E-03 0.  1.
         -2   -1    0    0    0  501 -0.00000000000E+00 -0.00000000000E+00 -0.72623589270E+02  0.72623589315E+02  0.25500000000E-02 0.  1.
         11    1    1    2    0    0  0.20009686443E+03 -0.15725593248E+03  0.61004782375E+03  0.66100418358E+03  0.51100000000E-03 0.  1.
         22    1    1    2    0    0 -0.16072839870E+02  0.14123864747E+02  0.63959100685E+02  0.67443207940E+02  0.00000000000E+00 0.  1.
         -2    1    1    2    0  501 -0.18402402456E+03  0.14313206773E+03  0.25386764274E+03  0.34467435423E+03  0.25500000000E-02 0.  1.
<mgrwt>
<rscale>  0 0.26234909E+03</rscale>
<asrwt>0</asrwt>
<pdfrwt beam="1">  1       11 0.10000000E+01 0.25449594E+03</pdfrwt>
<pdfrwt beam="2">  1       -2 0.11178425E-01 0.26234909E+03</pdfrwt>
<totfact> 0.44285181E+02</totfact>
</mgrwt>
</event>
<event>
 5    1  0.6729100E-004  0.1525576E+03  0.7818608E-02  0.1197365E+00
         11   -1    0    0    0    0  0.00000000000E+00  0.00000000000E+00  0.10000842219E+04  0.10000842219E+04  0.51100000000E-03 0. -1.
          2   -1    0    0  501    0 -0.00000000000E+00 -0.00000000000E+00 -0.48417281915E+02  0.48417281982E+02  0.25500000000E-02 0. -1.
         11    1    1    2    0    0  0.92336782487E+02 -0.10386177168E+03  0.52403139390E+03  0.54214596818E+03  0.51100000000E-03 0. -1.
         22    1    1    2    0    0  0.65373017700E+02  0.57690330172E+02  0.24807296504E+03  0.26294866728E+03  0.00000000000E+00 0. -1.
          2    1    1    2  501    0 -0.15770980019E+03  0.46171441505E+02  0.17956258108E+03  0.24340686846E+03  0.25500000000E-02 0. -1.
<mgrwt>
<rscale>  0 0.15255761E+03</rscale>
<asrwt>0</asrwt>
<pdfrwt beam="1">  1       11 0.10000000E+01 0.87188334E+02</pdfrwt>
<pdfrwt beam="2">  1        2 0.74494397E-02 0.15255761E+03</pdfrwt>
<totfact> 0.11062419E+03</totfact>
</mgrwt>
</event>
<event>
 5    1  0.6729100E-004  0.2020078E+03  0.7818608E-02  0.1148056E+00
         11   -1    0    0    0    0  0.00000000000E+00  0.00000000000E+00  0.10002278483E+04  0.10002278483E+04  0.51100000000E-03 0.  1.
          2   -1    0    0  501    0 -0.00000000000E+00 -0.00000000000E+00 -0.54333770399E+03  0.54333770399E+03  0.25500000000E-02 0.  1.
         11    1    1    2    0    0  0.75256680939E+02 -0.16082446559E+03  0.84970829810E+03  0.86806236448E+03  0.51100000000E-03 0.  1.
         22    1    1    2    0    0 -0.35904093389E+02 -0.37994195961E+02  0.11630975035E+03  0.12751713953E+03  0.00000000000E+00 0.  1.
          2    1    1    2  501    0 -0.39352587551E+02  0.19881866156E+03 -0.50912790414E+03  0.54798604828E+03  0.25500000000E-02 0.  1.
<mgrwt>
<rscale>  0 0.20200776E+03</rscale>
<asrwt>0</asrwt>
<pdfrwt beam="1">  1       11 0.10000000E+01 0.52274878E+02</pdfrwt>
<pdfrwt beam="2">  1        2 0.83609460E-01 0.20200776E+03</pdfrwt>
<totfact> 0.70940637E+01</totfact>
</mgrwt>
</event>
<event>
 5    1  0.6729100E-004  0.2581598E+03  0.7818608E-02  0.1112427E+00
         11   -1    0    0    0    0  0.00000000000E+00  0.00000000000E+00  0.99979437841E+03  0.99979437841E+03  0.51100000000E-03 0. -1.
          2   -1    0    0  501    0 -0.00000000000E+00 -0.00000000000E+00 -0.62698969493E+03  0.62698969494E+03  0.25500000000E-02 0. -1.
         11    1    1    2    0    0 -0.21243723864E+03 -0.92998163960E+02  0.82223555849E+03  0.85431232726E+03  0.51100000000E-03 0. -1.
         22    1    1    2    0    0 -0.23369560142E+02  0.58545967198E+01  0.13454425905E+03  0.13668419912E+03  0.00000000000E+00 0. -1.
          2    1    1    2  501    0  0.23580679878E+03  0.87143567240E+02 -0.58397513407E+03  0.63578754697E+03  0.25500000000E-02 0. -1.
<mgrwt>
<rscale>  0 0.25139381E+03</rscale>
<asrwt>0</asrwt>
<pdfrwt beam="1">  1       11 0.10000000E+01 0.25815983E+03</pdfrwt>
<pdfrwt beam="2">  1        2 0.96440116E-01 0.25139381E+03</pdfrwt>
<totfact> 0.59883937E+01</totfact>
</mgrwt>
</event>
<event>
 5    1  0.6729100E-004  0.2707367E+03  0.7818608E-02  0.1100859E+00
         11   -1    0    0    0    0  0.00000000000E+00  0.00000000000E+00  0.10006011801E+04  0.10006011801E+04  0.51100000000E-03 0. -1.
          2   -1    0    0  501    0 -0.00000000000E+00 -0.00000000000E+00 -0.58198231905E+03  0.58198231906E+03  0.25500000000E-02 0. -1.
         11    1    1    2    0    0 -0.22059710522E+03  0.18673189872E+03  0.78801829811E+03  0.83934779620E+03  0.51100000000E-03 0. -1.
         22    1    1    2    0    0  0.31017739169E+00 -0.30542911602E+02  0.15254508466E+03  0.15557303273E+03  0.00000000000E+00 0. -1.
          2    1    1    2  501    0  0.22028692782E+03 -0.15618898712E+03 -0.52194452170E+03  0.58766267025E+03  0.25500000000E-02 0. -1.
<mgrwt>
<rscale>  0 0.27073673E+03</rscale>
<asrwt>0</asrwt>
<pdfrwt beam="1">  1       11 0.10000000E+01 0.30544487E+02</pdfrwt>
<pdfrwt beam="2">  1        2 0.89589566E-01 0.27073673E+03</pdfrwt>
<totfact> 0.65154508E+01</totfact>
</mgrwt>
</event>
<event>
 5    1  0.6729100E-004  0.1274677E+03  0.7818608E-02  0.1363141E+00
         11   -1    0    0    0    0  0.00000000000E+00  0.00000000000E+00  0.10002650161E+04  0.10002650161E+04  0.51100000000E-03 0.  1.
          2   -1    0    0  501    0 -0.00000000000E+00 -0.00000000000E+00 -0.55459406514E+02  0.55459406573E+02  0.25500000000E-02 0.  1.
         11    1    1    2    0    0  0.89380235826E+02  0.11808880007E+03  0.19058381805E+03  0.24136276217E+03  0.51100000000E-03 0.  1.
         22    1    1    2    0    0 -0.11406531385E+03 -0.53536229160E+02  0.73050735789E+03  0.74129482906E+03  0.00000000000E+00 0.  1.
          2    1    1    2  501    0  0.24685078028E+02 -0.64552570906E+02  0.23714433639E+02  0.73066831443E+02  0.25500000000E-02 0.  1.
<mgrwt>
<rscale>  0 0.69111414E+02</rscale>
<asrwt>0</asrwt>
<pdfrwt beam="1">  1       11 0.10000000E+01 0.12746767E+03</pdfrwt>
<pdfrwt beam="2">  1        2 0.85344773E-02 0.69111414E+02</pdfrwt>
<totfact> 0.88368301E+02</totfact>
</mgrwt>
</event>
<event>
 5    1  0.6729100E-004  0.1520050E+03  0.7818608E-02  0.1269427E+00
         11   -1    0    0    0    0  0.00000000000E+00  0.00000000000E+00  0.99999828335E+03  0.99999828335E+03  0.51100000000E-03 0.  1.
          2   -1    0    0  501    0 -0.00000000000E+00 -0.00000000000E+00 -0.76034044882E+02  0.76034044925E+02  0.25500000000E-02 0.  1.
         11    1    1    2    0    0 -0.12529876957E+03 -0.55311816000E+02  0.28066728600E+03  0.31230322457E+03  0.51100000000E-03 0.  1.
         22    1    1    2    0    0  0.87403685532E+02  0.15361274952E+03  0.63376428597E+03  0.65794638932E+03  0.00000000000E+00 0.  1.
          2    1    1    2  501    0  0.37895084038E+02 -0.98300933519E+02  0.95326665023E+01  0.10578271438E+03  0.25500000000E-02 0.  1.
<mgrwt>
<rscale>  0 0.10535232E+03</rscale>
<asrwt>0</asrwt>
<pdfrwt beam="1">  1       11 0.10000000E+01 0.15200499E+03</pdfrwt>
<pdfrwt beam="2">  1        2 0.11697525E-01 0.10535232E+03</pdfrwt>
<totfact> 0.62023502E+02</totfact>
</mgrwt>
</event>
<event>
 5    1  0.1270841E-003  0.1728900E+03  0.7818608E-02  0.1182835E+00
         11   -1    0    0    0    0  0.00000000000E+00  0.00000000000E+00  0.10015155997E+04  0.10015155997E+04  0.51100000000E-03 0. -1.
          2   -1    0    0  501    0 -0.00000000000E+00 -0.00000000000E+00 -0.12844867076E+04  0.12844867076E+04  0.25500000000E-02 0. -1.
         11    1    1    2    0    0  0.88581150601E+02  0.10486818785E+03  0.81363292856E+03  0.82513180735E+03  0.51100000000E-03 0. -1.
         22    1    1    2    0    0  0.34824798502E+02  0.51159175394E+01  0.17503155784E+03  0.17853566994E+03  0.00000000000E+00 0. -1.
          2    1    1    2  501    0 -0.12340594910E+03 -0.10998410539E+03 -0.12716355943E+04  0.12823348301E+04  0.25500000000E-02 0. -1.
<mgrwt>
<rscale>  0 0.16530436E+03</rscale>
<asrwt>0</asrwt>
<pdfrwt beam="1">  1       11 0.10000000E+01 0.17288996E+03</pdfrwt>
<pdfrwt beam="2">  1        2 0.19791284E+00 0.16530436E+03</pdfrwt>
<totfact> 0.23094529E+01</totfact>
</mgrwt>
</event>
<event>
 5    1  0.6729100E-004  0.4045677E+03  0.7818608E-02  0.1042209E+00
         11   -1    0    0    0    0  0.00000000000E+00  0.00000000000E+00  0.99987797108E+03  0.99987797108E+03  0.51100000000E-03 0.  1.
          2   -1    0    0  501    0 -0.00000000000E+00 -0.00000000000E+00 -0.36829064103E+03  0.36829064104E+03  0.25500000000E-02 0.  1.
         11    1    1    2    0    0 -0.26788718854E+03 -0.27419796677E+03  0.60432610231E+03  0.71565222609E+03  0.51100000000E-03 0.  1.
         22    1    1    2    0    0  0.29991536953E+02 -0.59424343969E+02  0.19779285135E+03  0.20869297303E+03  0.00000000000E+00 0.  1.
          2    1    1    2  501    0  0.23789565159E+03  0.33362231074E+03 -0.17053162363E+03  0.44382341300E+03  0.25500000000E-02 0.  1.
<mgrwt>
<rscale>  0 0.40456767E+03</rscale>
<asrwt>0</asrwt>
<pdfrwt beam="1">  1       11 0.10000000E+01 0.66563841E+02</pdfrwt>
<pdfrwt beam="2">  1        2 0.56653183E-01 0.40456767E+03</pdfrwt>
<totfact> 0.10840273E+02</totfact>
</mgrwt>
</event>
<event>
 5    1  0.6729100E-004  0.1202726E+03  0.7818608E-02  0.1242648E+00
         11   -1    0    0    0    0  0.00000000000E+00  0.00000000000E+00  0.10000185311E+04  0.10000185311E+04  0.51100000000E-03 0. -1.
          2   -1    0    0  501    0 -0.00000000000E+00 -0.00000000000E+00 -0.34983761268E+02  0.34983761361E+02  0.25500000000E-02 0. -1.
         11    1    1    2    0    0  0.12422266803E+01 -0.12986780395E+03  0.18564295683E+03  0.22656234694E+03  0.51100000000E-03 0. -1.
         22    1    1    2    0    0  0.70882547726E+02  0.33587562241E+02  0.46968963970E+03  0.47619409651E+03  0.00000000000E+00 0.  1.
          2    1    1    2  501    0 -0.72124774406E+02  0.96280241713E+02  0.30970217326E+03  0.33224584897E+03  0.25500000000E-02 0. -1.
<mgrwt>
<rscale>  0 0.12027257E+03</rscale>
<asrwt>0</asrwt>
<pdfrwt beam="1">  1       11 0.10000000E+01 0.78437618E+02</pdfrwt>
<pdfrwt beam="2">  1        2 0.53822167E-02 0.12027257E+03</pdfrwt>
<totfact> 0.16487987E+03</totfact>
</mgrwt>
</event>
<event>
 5    1  0.6729100E-004  0.9649203E+02  0.7818608E-02  0.1287851E+00
         11   -1    0    0    0    0  0.00000000000E+00  0.00000000000E+00  0.10001249728E+04  0.10001249728E+04  0.51100000000E-03 0.  1.
          2   -1    0    0  501    0 -0.00000000000E+00 -0.00000000000E+00 -0.18376427337E+02  0.18376427514E+02  0.25500000000E-02 0.  1.
         11    1    1    2    0    0  0.98270151210E+02 -0.73183345285E+01  0.15351713086E+03  0.18242283329E+03  0.51100000000E-03 0.  1.
         22    1    1    2    0    0 -0.12725020511E+02 -0.16697454981E+02  0.84966081864E+02  0.87521232951E+02  0.00000000000E+00 0.  1.
          2    1    1    2  501    0 -0.85545130699E+02  0.24015789510E+02  0.74326533274E+03  0.74855733407E+03  0.25500000000E-02 0.  1.
<mgrwt>
<rscale>  0 0.96492034E+02</rscale>
<asrwt>0</asrwt>
<pdfrwt beam="1">  1       11 0.10000000E+01 0.20993598E+02</pdfrwt>
<pdfrwt beam="2">  1        2 0.28274959E-02 0.96492034E+02</pdfrwt>
<totfact> 0.37650805E+03</totfact>
</mgrwt>
</event>
<event>
 5    1  0.6729100E-004  0.3425320E+03  0.7818608E-02  0.1065723E+00
         11   -1    0    0    0    0  0.00000000000E+00  0.00000000000E+00  0.10002982768E+04  0.10002982768E+04  0.51100000000E-03 0. -1.
          2   -1    0    0  501    0 -0.00000000000E+00 -0.00000000000E+00 -0.11628191781E+03  0.11628191784E+03  0.25500000000E-02 0. -1.
         11    1    1    2    0    0 -0.23324148828E+03  0.21455822938E+03  0.56855031672E+03  0.65091188981E+03  0.51100000000E-03 0. -1.
         22    1    1    2    0    0  0.12204047834E+03 -0.31746094499E+02  0.14444462099E+03  0.19174446903E+03  0.00000000000E+00 0.  1.
          2    1    1    2  501    0  0.11120100994E+03 -0.18281213488E+03  0.17102142123E+03  0.27392383576E+03  0.25500000000E-02 0. -1.
<mgrwt>
<rscale>  0 0.34253196E+03</rscale>
<asrwt>0</asrwt>
<pdfrwt beam="1">  1       11 0.10000000E+01 0.31691770E+03</pdfrwt>
<pdfrwt beam="2">  1        2 0.17894861E-01 0.34253196E+03</pdfrwt>
<totfact> 0.39271307E+02</totfact>
</mgrwt>
</event>
<event>
 5    1  0.6729100E-004  0.1550962E+03  0.7818608E-02  0.1194347E+00
         11   -1    0    0    0    0  0.00000000000E+00  0.00000000000E+00  0.10000966239E+04  0.10000966239E+04  0.51100000000E-03 0. -1.
          2   -1    0    0  501    0 -0.00000000000E+00 -0.00000000000E+00 -0.51444509638E+03  0.51444509639E+03  0.25500000000E-02 0. -1.
         11    1    1    2    0    0 -0.11716648759E+03  0.10430377029E+03  0.90880377237E+03  0.92224267900E+03  0.51100000000E-03 0. -1.
         22    1    1    2    0    0  0.14059203014E+02  0.11544346065E+02  0.71565885940E+02  0.73841784552E+02  0.00000000000E+00 0. -1.
          2    1    1    2  501    0  0.10310728457E+03 -0.11584811636E+03 -0.49471813075E+03  0.51845725677E+03  0.25500000000E-02 0. -1.
<mgrwt>
<rscale>  0 0.15509618E+03</rscale>
<asrwt>0</asrwt>
<pdfrwt beam="1">  1       11 0.10000000E+01 0.18191567E+02</pdfrwt>
<pdfrwt beam="2">  1        2 0.79153045E-01 0.15509618E+03</pdfrwt>
<totfact> 0.75779016E+01</totfact>
</mgrwt>
</event>
<event>
 5    1  0.6729100E-004  0.1704560E+03  0.7818608E-02  0.1184990E+00
         11   -1    0    0    0    0  0.00000000000E+00  0.00000000000E+00  0.10000175812E+04  0.10000175812E+04  0.51100000000E-03 0.  1.
          2   -1    0    0  501    0 -0.00000000000E+00 -0.00000000000E+00 -0.59258693197E+02  0.59258693251E+02  0.25500000000E-02 0.  1.
         11    1    1    2    0    0 -0.80665499382E+02  0.11573151798E+03  0.79584815550E+03  0.80825428774E+03  0.51100000000E-03 0.  1.
         22    1    1    2    0    0 -0.45796955781E+01  0.23585919271E+02  0.64788068856E+02  0.69099660386E+02  0.00000000000E+00 0. -1.
          2    1    1    2  501    0  0.85245194960E+02 -0.13931743725E+03  0.80122663682E+02  0.18192232636E+03  0.25500000000E-02 0.  1.
<mgrwt>
<rscale>  0 0.16332817E+03</rscale>
<asrwt>0</asrwt>
<pdfrwt beam="1">  1       11 0.10000000E+01 0.17045598E+03</pdfrwt>
<pdfrwt beam="2">  1        2 0.91168821E-02 0.16332817E+03</pdfrwt>
<totfact> 0.86180746E+02</totfact>
</mgrwt>
</event>
<event>
 5    1  0.6729100E-004  0.1456425E+03  0.7818608E-02  0.1279497E+00
         11   -1    0    0    0    0  0.00000000000E+00  0.00000000000E+00  0.99995237345E+03  0.99995237345E+03  0.51100000000E-03 0. -1.
         -2   -1    0    0    0  501 -0.00000000000E+00 -0.00000000000E+00 -0.61835006467E+03  0.61835006468E+03  0.25500000000E-02 0.  1.
         11    1    1    2    0    0  0.22633252632E+03  0.51906675662E+02  0.28877814858E+03  0.37055840909E+03  0.51100000000E-03 0. -1.
         22    1    1    2    0    0 -0.12839871287E+03 -0.29878292450E+02  0.65934702913E+03  0.67239679256E+03  0.00000000000E+00 0. -1.
         -2    1    1    2    0  501 -0.97933813454E+02 -0.22028383212E+02 -0.56652286894E+03  0.57534723647E+03  0.25500000000E-02 0.  1.
<mgrwt>
<rscale>  0 0.10038068E+03</rscale>
<asrwt>0</asrwt>
<pdfrwt beam="1">  1       11 0.10000000E+01 0.14564248E+03</pdfrwt>
<pdfrwt beam="2">  1       -2 0.95126246E-01 0.10038068E+03</pdfrwt>
<totfact> 0.80370985E+00</totfact>
</mgrwt>
</event>
<event>
 5    1  0.6729100E-004  0.1836623E+03  0.7818608E-02  0.1172036E+00
         11   -1    0    0    0    0  0.00000000000E+00  0.00000000000E+00  0.10002878594E+04  0.10002878594E+04  0.51100000000E-03 0.  1.
          2   -1    0    0  501    0 -0.00000000000E+00 -0.00000000000E+00 -0.40601095266E+02  0.40601095346E+02  0.25500000000E-02 0.  1.
         11    1    1    2    0    0  0.10185363934E+03  0.60854244929E+02  0.56010676766E+03  0.57253558331E+03  0.51100000000E-03 0.  1.
         22    1    1    2    0    0  0.58652301873E+02  0.10605082632E+02  0.16382899185E+03  0.17433444543E+03  0.00000000000E+00 0.  1.
          2    1    1    2  501    0 -0.16050594121E+03 -0.71459327561E+02  0.23575100458E+03  0.29401892596E+03  0.25500000000E-02 0.  1.
<mgrwt>
<rscale>  0 0.17569460E+03</rscale>
<asrwt>0</asrwt>
<pdfrwt beam="1">  1       11 0.10000000E+01 0.18366234E+03</pdfrwt>
<pdfrwt beam="2">  1        2 0.62481202E-02 0.17569460E+03</pdfrwt>
<totfact> 0.13988468E+03</totfact>
</mgrwt>
</event>
<event>
 5    1  0.6729100E-004  0.2859661E+03  0.7818608E-02  0.1174196E+00
         11   -1    0    0    0    0  0.00000000000E+00  0.00000000000E+00  0.10006495025E+04  0.10006495025E+04  0.51100000000E-03 0. -1.
          2   -1    0    0  501    0 -0.00000000000E+00 -0.00000000000E+00 -0.12433517675E+04  0.12433517675E+04  0.25500000000E-02 0. -1.
         11    1    1    2    0    0  0.30317651893E+03 -0.83851116674E+02  0.75180526961E+01  0.31464826793E+03  0.51100000000E-03 0. -1.
         22    1    1    2    0    0 -0.27488705022E+03 -0.87377124182E+02  0.80751030853E+03  0.85747918376E+03  0.00000000000E+00 0. -1.
          2    1    1    2  501    0 -0.28289468706E+02  0.17122824086E+03 -0.10577306262E+04  0.10718738182E+04  0.25500000000E-02 0. -1.
<mgrwt>
<rscale>  0 0.17354943E+03</rscale>
<asrwt>0</asrwt>
<pdfrwt beam="1">  1       11 0.10000000E+01 0.28596609E+03</pdfrwt>
<pdfrwt beam="2">  1        2 0.19140912E+00 0.17354943E+03</pdfrwt>
<totfact> 0.24286729E+01</totfact>
</mgrwt>
</event>
<event>
 5    1  0.6729100E-004  0.1773453E+03  0.7818608E-02  0.1170397E+00
         11   -1    0    0    0    0  0.00000000000E+00  0.00000000000E+00  0.10005542697E+04  0.10005542697E+04  0.51100000000E-03 0. -1.
         -2   -1    0    0    0  501 -0.00000000000E+00 -0.00000000000E+00 -0.53250058077E+03  0.53250058077E+03  0.25500000000E-02 0.  1.
         11    1    1    2    0    0 -0.16213530333E+02 -0.19201816851E+03  0.95290615868E+03  0.97219545507E+03  0.51100000000E-03 0. -1.
         22    1    1    2    0    0  0.27268337883E+01  0.15427530232E+02  0.20252639600E+02  0.25604955035E+02  0.00000000000E+00 0.  1.
         -2    1    1    2    0  501  0.13486696545E+02  0.17659063827E+03 -0.50510510931E+03  0.53525444040E+03  0.25500000000E-02 0.  1.
<mgrwt>
<rscale>  0 0.17734530E+03</rscale>
<asrwt>0</asrwt>
<pdfrwt beam="1">  1       11 0.10000000E+01 0.15666662E+02</pdfrwt>
<pdfrwt beam="2">  1       -2 0.81968571E-01 0.17734530E+03</pdfrwt>
<totfact> 0.11062324E+01</totfact>
</mgrwt>
</event>
<event>
 5    1  0.6729100E-004  0.3079983E+03  0.7818608E-02  0.1082714E+00
         11   -1    0    0    0    0  0.00000000000E+00  0.00000000000E+00  0.10001178534E+04  0.10001178534E+04  0.51100000000E-03 0.  1.
          2   -1    0    0  501    0 -0.00000000000E+00 -0.00000000000E+00 -0.41856677396E+03  0.41856677397E+03  0.25500000000E-02 0.  1.
         11    1    1    2    0    0  0.83612503477E+02  0.26358992215E+03  0.81548096563E+03  0.86109227328E+03  0.51100000000E-03 0.  1.
         22    1    1    2    0    0  0.21534623189E+02  0.22828891428E+02  0.10026897015E+03  0.10506552553E+03  0.00000000000E+00 0. -1.
          2    1    1    2  501    0 -0.10514712667E+03 -0.28641881358E+03 -0.33419885631E+03  0.45252682858E+03  0.25500000000E-02 0.  1.
<mgrwt>
<rscale>  0 0.30510925E+03</rscale>
<asrwt>0</asrwt>
<pdfrwt beam="1">  1       11 0.10000000E+01 0.30799829E+03</pdfrwt>
<pdfrwt beam="2">  1        2 0.64402476E-01 0.30510925E+03</pdfrwt>
<totfact> 0.94343591E+01</totfact>
</mgrwt>
</event>
<event>
 5    1  0.6729100E-004  0.2416405E+03  0.7818608E-02  0.1601993E+00
         11   -1    0    0    0    0  0.00000000000E+00  0.00000000000E+00  0.10002221589E+04  0.10002221589E+04  0.51100000000E-03 0.  1.
          2   -1    0    0  501    0 -0.00000000000E+00 -0.00000000000E+00 -0.60638468385E+03  0.60638468386E+03  0.25500000000E-02 0. -1.
         11    1    1    2    0    0  0.21051861111E+03  0.12145834539E+03  0.65232561720E+03  0.69613140006E+03  0.51100000000E-03 0.  1.
         22    1    1    2    0    0 -0.22095992507E+03 -0.93707937169E+02  0.28135558519E+03  0.36981810568E+03  0.00000000000E+00 0.  1.
          2    1    1    2  501    0  0.10441313955E+02 -0.27750408223E+02 -0.53984372731E+03  0.54065733705E+03  0.25500000000E-02 0. -1.
<mgrwt>
<rscale>  0 0.29649725E+02</rscale>
<asrwt>0</asrwt>
<pdfrwt beam="1">  1       11 0.10000000E+01 0.24164045E+03</pdfrwt>
<pdfrwt beam="2">  1        2 0.93310674E-01 0.29649725E+02</pdfrwt>
<totfact> 0.65311860E+01</totfact>
</mgrwt>
</event>
<event>
 5    1  0.6729100E-004  0.1395040E+03  0.7818608E-02  0.1407070E+00
         11   -1    0    0    0    0  0.00000000000E+00  0.00000000000E+00  0.10000900861E+04  0.10000900861E+04  0.51100000000E-03 0. -1.
          2   -1    0    0  501    0 -0.00000000000E+00 -0.00000000000E+00 -0.32189134351E+03  0.32189134352E+03  0.25500000000E-02 0. -1.
         11    1    1    2    0    0 -0.11216689104E+03  0.75441014788E+02  0.68714661366E+03  0.70031651903E+03  0.51100000000E-03 0. -1.
         22    1    1    2    0    0  0.94115560756E+02 -0.13040543682E+03  0.28220917705E+03  0.32481584989E+03  0.00000000000E+00 0.  1.
          2    1    1    2  501    0  0.18051330280E+02  0.54964422032E+02 -0.29115704808E+03  0.29684906075E+03  0.25500000000E-02 0. -1.
<mgrwt>
<rscale>  0 0.57852729E+02</rscale>
<asrwt>0</asrwt>
<pdfrwt beam="1">  1       11 0.10000000E+01 0.13950403E+03</pdfrwt>
<pdfrwt beam="2">  1        2 0.49526205E-01 0.57852729E+02</pdfrwt>
<totfact> 0.12518715E+02</totfact>
</mgrwt>
</event>
<event>
 5    1  0.6729100E-004  0.3440328E+03  0.7818608E-02  0.1065091E+00
         11   -1    0    0    0    0  0.00000000000E+00  0.00000000000E+00  0.10003606167E+04  0.10003606167E+04  0.51100000000E-03 0.  1.
          2   -1    0    0  501    0 -0.00000000000E+00 -0.00000000000E+00 -0.82532789644E+03  0.82532789644E+03  0.25500000000E-02 0.  1.
         11    1    1    2    0    0  0.46210434213E+01 -0.35300799685E+03  0.84462200321E+03  0.91543559478E+03  0.51100000000E-03 0.  1.
         22    1    1    2    0    0 -0.10917371384E+02  0.94085561028E+01  0.82298745297E+02  0.83551142442E+02  0.00000000000E+00 0.  1.
          2    1    1    2  501    0  0.62963279631E+01  0.34359944075E+03 -0.75188802820E+03  0.82670177597E+03  0.25500000000E-02 0.  1.
<mgrwt>
<rscale>  0 0.34403282E+03</rscale>
<asrwt>0</asrwt>
<pdfrwt beam="1">  1       11 0.10000000E+01 0.14412145E+02</pdfrwt>
<pdfrwt beam="2">  1        2 0.12701931E+00 0.34403282E+03</pdfrwt>
<totfact> 0.42179141E+01</totfact>
</mgrwt>
</event>
<event>
 5    1  0.6729100E-004  0.1115557E+03  0.7818608E-02  0.1555773E+00
         11   -1    0    0    0    0  0.00000000000E+00  0.00000000000E+00  0.10000715805E+04  0.10000715805E+04  0.51100000000E-03 0. -1.
          2   -1    0    0  501    0 -0.00000000000E+00 -0.00000000000E+00 -0.15572325487E+02  0.15572325695E+02  0.25500000000E-02 0. -1.
         11    1    1    2    0    0  0.87339602570E+02 -0.75784377375E+02  0.54392221268E+03  0.55607809837E+03  0.51100000000E-03 0. -1.
         22    1    1    2    0    0 -0.10440508315E+02  0.99774736793E+00  0.62951154642E+01  0.12232260314E+02  0.00000000000E+00 0.  1.
          2    1    1    2  501    0 -0.76899094255E+02  0.74786630007E+02  0.43428192690E+03  0.44733354755E+03  0.25500000000E-02 0. -1.
<mgrwt>
<rscale>  0 0.34205322E+02</rscale>
<asrwt>0</asrwt>
<pdfrwt beam="1">  1       11 0.10000000E+01 0.11155566E+03</pdfrwt>
<pdfrwt beam="2">  1        2 0.23959138E-02 0.34205322E+02</pdfrwt>
<totfact> 0.40757715E+03</totfact>
</mgrwt>
</event>
<event>
 5    1  0.6729100E-004  0.2096796E+03  0.7818608E-02  0.1271304E+00
         11   -1    0    0    0    0  0.00000000000E+00  0.00000000000E+00  0.10003923788E+04  0.10003923788E+04  0.51100000000E-03 0. -1.
          2   -1    0    0  501    0 -0.00000000000E+00 -0.00000000000E+00 -0.59596106035E+02  0.59596106090E+02  0.25500000000E-02 0.  1.
         11    1    1    2    0    0  0.11604157069E+03 -0.17293530831E+03  0.52912384092E+03  0.56863371868E+03  0.51100000000E-03 0. -1.
         22    1    1    2    0    0  0.43905218483E+02  0.27829703761E+02  0.89387058188E+02  0.10340312758E+03  0.00000000000E+00 0. -1.
          2    1    1    2  501    0 -0.15994678917E+03  0.14510560455E+03  0.32228537366E+03  0.38795163864E+03  0.25500000000E-02 0.  1.
<mgrwt>
<rscale>  0 0.10440129E+03</rscale>
<asrwt>0</asrwt>
<pdfrwt beam="1">  1       11 0.10000000E+01 0.20967957E+03</pdfrwt>
<pdfrwt beam="2">  1        2 0.91722290E-02 0.10440129E+03</pdfrwt>
<totfact> 0.83251792E+02</totfact>
</mgrwt>
</event>
<event>
 5    1  0.6729100E-004  0.3144300E+03  0.7818608E-02  0.1078242E+00
         11   -1    0    0    0    0  0.00000000000E+00  0.00000000000E+00  0.10002146478E+04  0.10002146478E+04  0.51100000000E-03 0. -1.
          2   -1    0    0  501    0 -0.00000000000E+00 -0.00000000000E+00 -0.75325762566E+03  0.75325762566E+03  0.25500000000E-02 0. -1.
         11    1    1    2    0    0  0.10490752466E+03  0.29972960397E+03  0.86620312038E+03  0.92257859827E+03  0.51100000000E-03 0. -1.
         22    1    1    2    0    0  0.11364509418E+02 -0.77046653694E+01  0.71070940755E+02  0.72385029961E+02  0.00000000000E+00 0. -1.
          2    1    1    2  501    0 -0.11627203408E+03 -0.29202493860E+03 -0.69031703895E+03  0.75850864527E+03  0.25500000000E-02 0. -1.
<mgrwt>
<rscale>  0 0.31442997E+03</rscale>
<asrwt>0</asrwt>
<pdfrwt beam="1">  1       11 0.10000000E+01 0.13730038E+02</pdfrwt>
<pdfrwt beam="2">  1        2 0.11591066E+00 0.31442997E+03</pdfrwt>
<totfact> 0.47578441E+01</totfact>
</mgrwt>
</event>
<event>
 5    1  0.6729100E-004  0.1396473E+03  0.7818608E-02  0.1213804E+00
         11   -1    0    0    0    0  0.00000000000E+00  0.00000000000E+00  0.10004549908E+04  0.10004549908E+04  0.51100000000E-03 0. -1.
         -2   -1    0    0    0  501 -0.00000000000E+00 -0.00000000000E+00 -0.20895211489E+02  0.20895211645E+02  0.25500000000E-02 0.  1.
         11    1    1    2    0    0 -0.48430433310E+02 -0.12036253905E+03  0.65967188887E+03  0.67230919125E+03  0.51100000000E-03 0. -1.
         22    1    1    2    0    0  0.23811660284E+02  0.10136437692E+03  0.27809097076E+03  0.29694497823E+03  0.00000000000E+00 0.  1.
         -2    1    1    2    0  501  0.24618773026E+02  0.18998162131E+02  0.41796919660E+02  0.52096032951E+02  0.25500000000E-02 0.  1.
<mgrwt>
<rscale>  0 0.13964729E+03</rscale>
<asrwt>0</asrwt>
<pdfrwt beam="1">  1       11 0.10000000E+01 0.12974069E+03</pdfrwt>
<pdfrwt beam="2">  1       -2 0.32161105E-02 0.13964729E+03</pdfrwt>
<totfact> 0.28550940E+03</totfact>
</mgrwt>
</event>
<event>
 5    1  0.6729100E-004  0.1697558E+03  0.7818608E-02  0.1178103E+00
         11   -1    0    0    0    0  0.00000000000E+00  0.00000000000E+00  0.10003748696E+04  0.10003748696E+04  0.51100000000E-03 0. -1.
          2   -1    0    0  501    0 -0.00000000000E+00 -0.00000000000E+00 -0.36622504464E+02  0.36622504553E+02  0.25500000000E-02 0. -1.
         11    1    1    2    0    0  0.23345692969E+02  0.16516715952E+03  0.64726993567E+03  0.66841871726E+03  0.51100000000E-03 0. -1.
         22    1    1    2    0    0  0.12710656887E+02  0.21805068066E+01  0.51646034516E+02  0.53231835303E+02  0.00000000000E+00 0.  1.
          2    1    1    2  501    0 -0.36056349856E+02 -0.16734766633E+03  0.26483639497E+03  0.31534682161E+03  0.25500000000E-02 0. -1.
<mgrwt>
<rscale>  0 0.16975582E+03</rscale>
<asrwt>0</asrwt>
<pdfrwt beam="1">  1       11 0.10000000E+01 0.12896333E+02</pdfrwt>
<pdfrwt beam="2">  1        2 0.56363434E-02 0.16975582E+03</pdfrwt>
<totfact> 0.15950528E+03</totfact>
</mgrwt>
</event>
<event>
 5    1  0.6729100E-004  0.1252648E+03  0.7818608E-02  0.1465080E+00
         11   -1    0    0    0    0  0.00000000000E+00  0.00000000000E+00  0.10003153836E+04  0.10003153836E+04  0.51100000000E-03 0. -1.
         -2   -1    0    0    0  501 -0.00000000000E+00 -0.00000000000E+00 -0.10426552515E+03  0.10426552518E+03  0.25500000000E-02 0. -1.
         11    1    1    2    0    0 -0.72014988610E+02 -0.81137174357E+02  0.45220095990E+03  0.46503237283E+03  0.51100000000E-03 0. -1.
         22    1    1    2    0    0  0.96547720714E+02  0.12066057917E+03  0.52430944428E+03  0.54660848064E+03  0.00000000000E+00 0. -1.
         -2    1    1    2    0  501 -0.24532732105E+02 -0.39523404813E+02 -0.80460545678E+02  0.92940055358E+02  0.25500000000E-02 0. -1.
<mgrwt>
<rscale>  0 0.46518324E+02</rscale>
<asrwt>0</asrwt>
<pdfrwt beam="1">  1       11 0.10000000E+01 0.12526484E+03</pdfrwt>
<pdfrwt beam="2">  1       -2 0.16045909E-01 0.46518324E+02</pdfrwt>
<totfact> 0.22604091E+02</totfact>
</mgrwt>
</event>
<event>
 5    1  0.6729100E-004  0.2071067E+03  0.7818608E-02  0.1177072E+00
         11   -1    0    0    0    0  0.00000000000E+00  0.00000000000E+00  0.10005172785E+04  0.10005172785E+04  0.51100000000E-03 0. -1.
          2   -1    0    0  501    0 -0.00000000000E+00 -0.00000000000E+00 -0.37580938783E+03  0.37580938784E+03  0.25500000000E-02 0. -1.
         11    1    1    2    0    0 -0.19595542350E+03 -0.56738681900E+02  0.69100518421E+03  0.72049009059E+03  0.51100000000E-03 0. -1.
         22    1    1    2    0    0  0.15284240269E+03  0.22195248520E+03  0.20270936801E+03  0.33721624164E+03  0.00000000000E+00 0.  1.
          2    1    1    2  501    0  0.43113020808E+02 -0.16521380330E+03 -0.26900666153E+03  0.31862033413E+03  0.25500000000E-02 0. -1.
<mgrwt>
<rscale>  0 0.17074640E+03</rscale>
<asrwt>0</asrwt>
<pdfrwt beam="1">  1       11 0.10000000E+01 0.20710674E+03</pdfrwt>
<pdfrwt beam="2">  1        2 0.57846735E-01 0.17074640E+03</pdfrwt>
<totfact> 0.10647014E+02</totfact>
</mgrwt>
</event>
<event>
 5    1  0.6729100E-004  0.2649507E+03  0.7818608E-02  0.1106724E+00
         11   -1    0    0    0    0  0.00000000000E+00  0.00000000000E+00  0.10002612140E+04  0.10002612140E+04  0.51100000000E-03 0.  1.
          2   -1    0    0  501    0 -0.00000000000E+00 -0.00000000000E+00 -0.24243433155E+03  0.24243433156E+03  0.25500000000E-02 0. -1.
         11    1    1    2    0    0 -0.99447896261E+02 -0.23012989743E+03  0.83198173596E+03  0.86893225439E+03  0.51100000000E-03 0.  1.
         22    1    1    2    0    0 -0.10641716026E+02 -0.61834689484E+01  0.73250264352E+02  0.74277066688E+02  0.00000000000E+00 0. -1.
          2    1    1    2  501    0  0.11008961229E+03  0.23631336638E+03 -0.14740511787E+03  0.29948622447E+03  0.25500000000E-02 0. -1.
<mgrwt>
<rscale>  0 0.26069854E+03</rscale>
<asrwt>0</asrwt>
<pdfrwt beam="1">  1       11 0.10000000E+01 0.26495065E+03</pdfrwt>
<pdfrwt beam="2">  1        2 0.37307331E-01 0.26069854E+03</pdfrwt>
<totfact> 0.17088349E+02</totfact>
</mgrwt>
</event>
<event>
 5    1  0.6729100E-004  0.1777851E+03  0.7818608E-02  0.1172429E+00
         11   -1    0    0    0    0  0.00000000000E+00  0.00000000000E+00  0.10002179276E+04  0.10002179276E+04  0.51100000000E-03 0.  1.
         -2   -1    0    0    0  501 -0.00000000000E+00 -0.00000000000E+00 -0.79956898995E+02  0.79956899036E+02  0.25500000000E-02 0. -1.
         11    1    1    2    0    0 -0.16268562485E+03 -0.23180966712E+02  0.84352886310E+03  0.85938635818E+03  0.51100000000E-03 0.  1.
         22    1    1    2    0    0 -0.11577946625E+02  0.41341990720E+01  0.39777889485E+02  0.41634372121E+02  0.00000000000E+00 0.  1.
         -2    1    1    2    0  501  0.17426357147E+03  0.19046767640E+02  0.36954275988E+02  0.17915409630E+03  0.25500000000E-02 0. -1.
<mgrwt>
<rscale>  0 0.17530137E+03</rscale>
<asrwt>0</asrwt>
<pdfrwt beam="1">  1       11 0.10000000E+01 0.17778509E+03</pdfrwt>
<pdfrwt beam="2">  1       -2 0.12303742E-01 0.17530137E+03</pdfrwt>
<totfact> 0.37224770E+02</totfact>
</mgrwt>
</event>
<event>
 5    1  0.6729100E-004  0.3867387E+03  0.7818608E-02  0.1051429E+00
         11   -1    0    0    0    0  0.00000000000E+00  0.00000000000E+00  0.10002019949E+04  0.10002019949E+04  0.51100000000E-03 0.  1.
         -2   -1    0    0    0  501 -0.00000000000E+00 -0.00000000000E+00 -0.58376354931E+03  0.58376354932E+03  0.25500000000E-02 0. -1.
         11    1    1    2    0    0  0.33862368139E+03  0.13205664804E+03  0.82329363508E+03  0.89995409075E+03  0.51100000000E-03 0.  1.
         22    1    1    2    0    0  0.19813536429E+02 -0.99549249803E+01  0.70960585443E+02  0.74344343723E+02  0.00000000000E+00 0.  1.
         -2    1    1    2    0  501 -0.35843721782E+03 -0.12210172306E+03 -0.47781577495E+03  0.60966710973E+03  0.25500000000E-02 0. -1.
<mgrwt>
<rscale>  0 0.37866353E+03</rscale>
<asrwt>0</asrwt>
<pdfrwt beam="1">  1       11 0.10000000E+01 0.38673871E+03</pdfrwt>
<pdfrwt beam="2">  1       -2 0.89827915E-01 0.37866353E+03</pdfrwt>
<totfact> 0.88415370E+00</totfact>
</mgrwt>
</event>
<event>
 5    1  0.6729100E-004  0.3180145E+03  0.7818608E-02  0.1076567E+00
         11   -1    0    0    0    0  0.00000000000E+00  0.00000000000E+00  0.10000322838E+04  0.10000322838E+04  0.51100000000E-03 0.  1.
          2   -1    0    0  501    0 -0.00000000000E+00 -0.00000000000E+00 -0.31466748698E+03  0.31466748699E+03  0.25500000000E-02 0.  1.
         11    1    1    2    0    0  0.13807111784E+03  0.61674019712E+02  0.88785486867E+02  0.17535729517E+03  0.51100000000E-03 0.  1.
         22    1    1    2    0    0  0.14737621422E+03 -0.22499938090E+03  0.73489534168E+03  0.78256989026E+03  0.00000000000E+00 0.  1.
          2    1    1    2  501    0 -0.28544733206E+03  0.16332536119E+03 -0.13831603177E+03  0.35677258533E+03  0.25500000000E-02 0.  1.
<mgrwt>
<rscale>  0 0.31801448E+03</rscale>
<asrwt>0</asrwt>
<pdfrwt beam="1">  1       11 0.10000000E+01 0.15121951E+03</pdfrwt>
<pdfrwt beam="2">  1        2 0.48411944E-01 0.31801448E+03</pdfrwt>
<totfact> 0.12886263E+02</totfact>
</mgrwt>
</event>
<event>
 5    1  0.6729100E-004  0.4263314E+03  0.7818608E-02  0.1035025E+00
         11   -1    0    0    0    0  0.00000000000E+00  0.00000000000E+00  0.10011934437E+04  0.10011934437E+04  0.51100000000E-03 0. -1.
          2   -1    0    0  501    0 -0.00000000000E+00 -0.00000000000E+00 -0.14127009184E+04  0.14127009184E+04  0.25500000000E-02 0. -1.
         11    1    1    2    0    0 -0.30327215269E+03 -0.25262572624E+03  0.75001103222E+03  0.84753189002E+03  0.51100000000E-03 0. -1.
         22    1    1    2    0    0 -0.12845500502E+03  0.28725615660E+03  0.12584742936E+02  0.31492088463E+03  0.00000000000E+00 0. -1.
          2    1    1    2  501    0  0.43172715771E+03 -0.34630430364E+02 -0.11741032499E+04  0.12514415875E+04  0.25500000000E-02 0. -1.
<mgrwt>
<rscale>  0 0.42633143E+03</rscale>
<asrwt>0</asrwt>
<pdfrwt beam="1">  1       11 0.10000000E+01 0.31466933E+03</pdfrwt>
<pdfrwt beam="2">  1        2 0.21759798E+00 0.42633143E+03</pdfrwt>
<totfact> 0.18446372E+01</totfact>
</mgrwt>
</event>
<event>
 5    1  0.6729100E-004  0.1374989E+03  0.7818608E-02  0.1216734E+00
         11   -1    0    0    0    0  0.00000000000E+00  0.00000000000E+00  0.10001645584E+04  0.10001645584E+04  0.51100000000E-03 0.  1.
          2   -1    0    0  501    0 -0.00000000000E+00 -0.00000000000E+00 -0.74005271701E+03  0.74005271701E+03  0.25500000000E-02 0.  1.
         11    1    1    2    0    0 -0.95288575370E+02 -0.10446787772E+03  0.82088412993E+03  0.83297311171E+03  0.51100000000E-03 0.  1.
         22    1    1    2    0    0  0.31876241755E+02 -0.17542769517E+02  0.16479415948E+03  0.16876302483E+03  0.00000000000E+00 0. -1.
          2    1    1    2  501    0  0.63412333615E+02  0.12201064724E+03 -0.72556644797E+03  0.73848113891E+03  0.25500000000E-02 0.  1.
<mgrwt>
<rscale>  0 0.13749893E+03</rscale>
<asrwt>0</asrwt>
<pdfrwt beam="1">  1       11 0.10000000E+01 0.36384661E+02</pdfrwt>
<pdfrwt beam="2">  1        2 0.11387300E+00 0.13749893E+03</pdfrwt>
<totfact> 0.49978305E+01</totfact>
</mgrwt>
</event>
<event>
 5    1  0.6729100E-004  0.1930375E+03  0.7818608E-02  0.1158449E+00
         11   -1    0    0    0    0  0.00000000000E+00  0.00000000000E+00  0.10000557090E+04  0.10000557090E+04  0.51100000000E-03 0.  1.
          2   -1    0    0  501    0 -0.00000000000E+00 -0.00000000000E+00 -0.48758592166E+02  0.48758592232E+02  0.25500000000E-02 0.  1.
         11    1    1    2    0    0 -0.79073097182E+02  0.16011864655E+03  0.69085307040E+03  0.71356043931E+03  0.51100000000E-03 0.  1.
         22    1    1    2    0    0  0.30468927011E+01  0.14022569242E+02  0.48620697866E+02  0.50694065375E+02  0.00000000000E+00 0. -1.
          2    1    1    2  501    0  0.76026204481E+02 -0.17414121580E+03  0.21182334859E+03  0.28455979657E+03  0.25500000000E-02 0.  1.
<mgrwt>
<rscale>  0 0.19001354E+03</rscale>
<asrwt>0</asrwt>
<pdfrwt beam="1">  1       11 0.10000000E+01 0.19303755E+03</pdfrwt>
<pdfrwt beam="2">  1        2 0.75017396E-02 0.19001354E+03</pdfrwt>
<totfact> 0.11118398E+03</totfact>
</mgrwt>
</event>
<event>
 5    1  0.6729100E-004  0.1922186E+03  0.7818608E-02  0.1156475E+00
         11   -1    0    0    0    0  0.00000000000E+00  0.00000000000E+00  0.10001510207E+04  0.10001510207E+04  0.51100000000E-03 0.  1.
          2   -1    0    0  501    0 -0.00000000000E+00 -0.00000000000E+00 -0.72897526797E+03  0.72897526797E+03  0.25500000000E-02 0.  1.
         11    1    1    2    0    0  0.22835438155E+03  0.69016692528E+02  0.86363326469E+03  0.89597513543E+03  0.51100000000E-03 0.  1.
         22    1    1    2    0    0 -0.43559882079E+02 -0.18642982524E+02  0.10215822448E+03  0.11261139797E+03  0.00000000000E+00 0. -1.
          2    1    1    2  501    0 -0.18479449947E+03 -0.50373710003E+02 -0.69461573641E+03  0.72053975530E+03  0.25500000000E-02 0.  1.
<mgrwt>
<rscale>  0 0.19221864E+03</rscale>
<asrwt>0</asrwt>
<pdfrwt beam="1">  1       11 0.10000000E+01 0.47381686E+02</pdfrwt>
<pdfrwt beam="2">  1        2 0.11216697E+00 0.19221864E+03</pdfrwt>
<totfact> 0.50353756E+01</totfact>
</mgrwt>
</event>
<event>
 5    1  0.6729100E-004  0.8725622E+02  0.7818608E-02  0.1397225E+00
         11   -1    0    0    0    0  0.00000000000E+00  0.00000000000E+00  0.10001395178E+04  0.10001395178E+04  0.51100000000E-03 0.  1.
          2   -1    0    0  501    0 -0.00000000000E+00 -0.00000000000E+00 -0.12917410146E+02  0.12917410398E+02  0.25500000000E-02 0.  1.
         11    1    1    2    0    0  0.78203950983E+02 -0.42051134313E+01  0.35307078406E+03  0.36165248442E+03  0.51100000000E-03 0.  1.
         22    1    1    2    0    0  0.12719809732E+02 -0.39457547197E+02  0.10823012148E+03  0.11589845032E+03  0.00000000000E+00 0.  1.
          2    1    1    2  501    0 -0.90923760716E+02  0.43662660629E+02  0.52592120213E+03  0.53550599348E+03  0.25500000000E-02 0.  1.
<mgrwt>
<rscale>  0 0.60144746E+02</rscale>
<asrwt>0</asrwt>
<pdfrwt beam="1">  1       11 0.10000000E+01 0.87256225E+02</pdfrwt>
<pdfrwt beam="2">  1        2 0.19875711E-02 0.60144746E+02</pdfrwt>
<totfact> 0.56694322E+03</totfact>
</mgrwt>
</event>
<event>
 5    1  0.6729100E-004  0.2052206E+03  0.7818608E-02  0.1145408E+00
         11   -1    0    0    0    0  0.00000000000E+00  0.00000000000E+00  0.10001874250E+04  0.10001874250E+04  0.51100000000E-03 0.  1.
          2   -1    0    0  501    0 -0.00000000000E+00 -0.00000000000E+00 -0.10554596060E+03  0.10554596063E+03  0.25500000000E-02 0.  1.
         11    1    1    2    0    0 -0.19533859815E+03 -0.37082861256E+02  0.67358805560E+03  0.70231985247E+03  0.51100000000E-03 0.  1.
         22    1    1    2    0    0 -0.84376930048E+01  0.85065258981E+02  0.16636082907E+03  0.18703801324E+03  0.00000000000E+00 0.  1.
          2    1    1    2  501    0  0.20377629116E+03 -0.47982397725E+02  0.54692579712E+02  0.21637551990E+03  0.25500000000E-02 0.  1.
<mgrwt>
<rscale>  0 0.20522061E+03</rscale>
<asrwt>0</asrwt>
<pdfrwt beam="1">  1       11 0.10000000E+01 0.85482706E+02</pdfrwt>
<pdfrwt beam="2">  1        2 0.16240883E-01 0.20522061E+03</pdfrwt>
<totfact> 0.43307206E+02</totfact>
</mgrwt>
</event>
<event>
 5    1  0.6729100E-004  0.1767932E+03  0.7818608E-02  0.1385802E+00
         11   -1    0    0    0    0  0.00000000000E+00  0.00000000000E+00  0.99997718082E+03  0.99997718082E+03  0.51100000000E-03 0.  1.
          2   -1    0    0  501    0 -0.00000000000E+00 -0.00000000000E+00 -0.66181363491E+03  0.66181363492E+03  0.25500000000E-02 0.  1.
         11    1    1    2    0    0  0.13493043795E+03 -0.42371262691E+02  0.24245802506E+03  0.28069100610E+03  0.51100000000E-03 0.  1.
         22    1    1    2    0    0 -0.19784742405E+03  0.44775358152E+02  0.72286498161E+03  0.75078773134E+03  0.00000000000E+00 0.  1.
          2    1    1    2  501    0  0.62916986101E+02 -0.24040954617E+01 -0.62715946076E+03  0.63031207830E+03  0.25500000000E-02 0.  1.
<mgrwt>
<rscale>  0 0.62962900E+02</rscale>
<asrwt>0</asrwt>
<pdfrwt beam="1">  1       11 0.10000000E+01 0.17679319E+03</pdfrwt>
<pdfrwt beam="2">  1        2 0.10181516E+00 0.62962900E+02</pdfrwt>
<totfact> 0.58311868E+01</totfact>
</mgrwt>
</event>
<event>
 5    1  0.6729100E-004  0.1268240E+03  0.7818608E-02  0.1232246E+00
         11   -1    0    0    0    0  0.00000000000E+00  0.00000000000E+00  0.10004557583E+04  0.10004557583E+04  0.51100000000E-03 0. -1.
          2   -1    0    0  501    0 -0.00000000000E+00 -0.00000000000E+00 -0.27766689575E+02  0.27766689692E+02  0.25500000000E-02 0. -1.
         11    1    1    2    0    0  0.65245299472E+02 -0.10428977252E+03  0.17805369877E+03  0.21641724839E+03  0.51100000000E-03 0. -1.
         22    1    1    2    0    0 -0.76941685901E+01 -0.23835188548E+02  0.14646369517E+03  0.14858980599E+03  0.00000000000E+00 0. -1.
          2    1    1    2  501    0 -0.57551130882E+02  0.12812496106E+03  0.64817167477E+03  0.66321539359E+03  0.25500000000E-02 0. -1.
<mgrwt>
<rscale>  0 0.12682397E+03</rscale>
<asrwt>0</asrwt>
<pdfrwt beam="1">  1       11 0.10000000E+01 0.25046286E+02</pdfrwt>
<pdfrwt beam="2">  1        2 0.42737452E-02 0.12682397E+03</pdfrwt>
<totfact> 0.22381733E+03</totfact>
</mgrwt>
</event>
<event>
 5    1  0.6729100E-004  0.1906041E+03  0.7818608E-02  0.1157918E+00
         11   -1    0    0    0    0  0.00000000000E+00  0.00000000000E+00  0.99988603505E+03  0.99988603505E+03  0.51100000000E-03 0. -1.
          2   -1    0    0  501    0 -0.00000000000E+00 -0.00000000000E+00 -0.42338561809E+03  0.42338561810E+03  0.25500000000E-02 0. -1.
         11    1    1    2    0    0  0.18482620851E+03 -0.44116898535E+01 -0.96599546481E+02  0.20859449355E+03  0.51100000000E-03 0. -1.
         22    1    1    2    0    0 -0.26287647518E+02  0.16690585251E+03  0.88688670609E+03  0.90283809925E+03  0.00000000000E+00 0. -1.
          2    1    1    2  501    0 -0.15853856099E+03 -0.16249416266E+03 -0.21378674264E+03  0.31183906035E+03  0.25500000000E-02 0. -1.
<mgrwt>
<rscale>  0 0.19060411E+03</rscale>
<asrwt>0</asrwt>
<pdfrwt beam="1">  1       11 0.10000000E+01 0.16896332E+03</pdfrwt>
<pdfrwt beam="2">  1        2 0.65128824E-01 0.19060411E+03</pdfrwt>
<totfact> 0.93610677E+01</totfact>
</mgrwt>
</event>
<event>
 5    1  0.6729100E-004  0.2782340E+03  0.7818608E-02  0.1107625E+00
         11   -1    0    0    0    0  0.00000000000E+00  0.00000000000E+00  0.10003682483E+04  0.10003682483E+04  0.51100000000E-03 0. -1.
          2   -1    0    0  501    0 -0.00000000000E+00 -0.00000000000E+00 -0.36320814390E+03  0.36320814391E+03  0.25500000000E-02 0. -1.
         11    1    1    2    0    0 -0.17255489082E+03 -0.66057313929E+02  0.54391476127E+03  0.57444062061E+03  0.51100000000E-03 0. -1.
         22    1    1    2    0    0 -0.42640517690E+02 -0.78427155747E+02  0.38712316039E+03  0.39728248617E+03  0.00000000000E+00 0. -1.
          2    1    1    2  501    0  0.21519540851E+03  0.14448446968E+03 -0.29387781726E+03  0.39185328543E+03  0.25500000000E-02 0. -1.
<mgrwt>
<rscale>  0 0.25920036E+03</rscale>
<asrwt>0</asrwt>
<pdfrwt beam="1">  1       11 0.10000000E+01 0.27823405E+03</pdfrwt>
<pdfrwt beam="2">  1        2 0.55898751E-01 0.25920036E+03</pdfrwt>
<totfact> 0.11027577E+02</totfact>
</mgrwt>
</event>
<event>
 5    1  0.6729100E-004  0.1270673E+03  0.7818608E-02  0.1231873E+00
         11   -1    0    0    0    0  0.00000000000E+00  0.00000000000E+00  0.10000783128E+04  0.10000783128E+04  0.51100000000E-03 0. -1.
          2   -1    0    0  501    0 -0.00000000000E+00 -0.00000000000E+00 -0.35574412462E+02  0.35574412554E+02  0.25500000000E-02 0. -1.
         11    1    1    2    0    0 -0.31628573880E+02 -0.68963123986E+02  0.20682373332E+03  0.22030055792E+03  0.51100000000E-03 0. -1.
         22    1    1    2    0    0  0.12455781125E+03 -0.25737514155E+02  0.57895441122E+03  0.59276072597E+03  0.00000000000E+00 0. -1.
          2    1    1    2  501    0 -0.92929237372E+02  0.94700638142E+02  0.17872575582E+03  0.22259144148E+03  0.25500000000E-02 0. -1.
<mgrwt>
<rscale>  0 0.12706734E+03</rscale>
<asrwt>0</asrwt>
<pdfrwt beam="1">  1       11 0.10000000E+01 0.75870147E+02</pdfrwt>
<pdfrwt beam="2">  1        2 0.54734150E-02 0.12706734E+03</pdfrwt>
<totfact> 0.16205592E+03</totfact>
</mgrwt>
</event>
<event>
 5    1  0.6729100E-004  0.4561196E+02  0.7818608E-02  0.1654702E+00
         11   -1    0    0    0    0  0.00000000000E+00  0.00000000000E+00  0.10002779973E+04  0.10002779973E+04  0.51100000000E-03 0.  1.
          2   -1    0    0  501    0 -0.00000000000E+00 -0.00000000000E+00 -0.95951104771E+01  0.95951108159E+01  0.25500000000E-02 0.  1.
         11    1    1    2    0    0  0.25859964849E+02 -0.35690849235E+02  0.51341297370E+02  0.67664638601E+02  0.51100000000E-03 0.  1.
         22    1    1    2    0    0 -0.11752748078E+02 -0.79585448902E+01  0.59411567166E+02  0.61083548009E+02  0.00000000000E+00 0.  1.
          2    1    1    2  501    0 -0.14107216770E+02  0.43649394125E+02  0.87993002230E+03  0.88112492152E+03  0.25500000000E-02 0.  1.
<mgrwt>
<rscale>  0 0.25444238E+02</rscale>
<asrwt>0</asrwt>
<pdfrwt beam="1">  1       11 0.10000000E+01 0.45611960E+02</pdfrwt>
<pdfrwt beam="2">  1        2 0.14765812E-02 0.25444238E+02</pdfrwt>
<totfact> 0.72458158E+03</totfact>
</mgrwt>
</event>
<event>
 5    1  0.6729100E-004  0.3265202E+03  0.7818608E-02  0.1072687E+00
         11   -1    0    0    0    0  0.00000000000E+00  0.00000000000E+00  0.10005284122E+04  0.10005284122E+04  0.51100000000E-03 0. -1.
          2   -1    0    0  501    0 -0.00000000000E+00 -0.00000000000E+00 -0.42788058703E+03  0.42788058704E+03  0.25500000000E-02 0. -1.
         11    1    1    2    0    0 -0.25667837036E+03 -0.20043089870E+03 -0.32432979737E+03  0.45961521779E+03  0.51100000000E-03 0. -1.
         22    1    1    2    0    0 -0.16270860184E+02  0.53860012625E+00  0.91148851338E+01  0.18657762787E+02  0.00000000000E+00 0. -1.
          2    1    1    2  501    0  0.27294923055E+03  0.19989229858E+03  0.88786273745E+03  0.95013601871E+03  0.25500000000E-02 0. -1.
<mgrwt>
<rscale>  0 0.32652018E+03</rscale>
<asrwt>0</asrwt>
<pdfrwt beam="1">  1       11 0.10000000E+01 0.16279772E+02</pdfrwt>
<pdfrwt beam="2">  1        2 0.65862565E-01 0.32652018E+03</pdfrwt>
<totfact> 0.91970190E+01</totfact>
</mgrwt>
</event>
<event>
 5    1  0.6729100E-004  0.1015446E+03  0.7818608E-02  0.1277081E+00
         11   -1    0    0    0    0  0.00000000000E+00  0.00000000000E+00  0.10010881244E+04  0.10010881244E+04  0.51100000000E-03 0. -1.
          2   -1    0    0  501    0 -0.00000000000E+00 -0.00000000000E+00 -0.25453803162E+04  0.25453803162E+04  0.25500000000E-02 0. -1.
         11    1    1    2    0    0  0.50683335370E+02  0.16771846378E+03  0.59168304887E+03  0.61707950371E+03  0.51100000000E-03 0. -1.
         22    1    1    2    0    0  0.57108385550E+01 -0.83406981049E+02  0.39127355436E+03  0.40010540174E+03  0.00000000000E+00 0. -1.
          2    1    1    2  501    0 -0.56394173925E+02 -0.84311482731E+02 -0.25272487951E+04  0.25292835352E+04  0.25500000000E-02 0. -1.
<mgrwt>
<rscale>  0 0.10154458E+03</rscale>
<asrwt>0</asrwt>
<pdfrwt beam="1">  1       11 0.10000000E+01 0.83602262E+02</pdfrwt>
<pdfrwt beam="2">  1        2 0.39202307E+00 0.10154458E+03</pdfrwt>
<totfact> 0.53745591E+00</totfact>
</mgrwt>
</event>
<event>
 5    1  0.6729100E-004  0.3339720E+03  0.7818608E-02  0.1069393E+00
         11   -1    0    0    0    0  0.00000000000E+00  0.00000000000E+00  0.10003827585E+04  0.10003827585E+04  0.51100000000E-03 0. -1.
          2   -1    0    0  501    0 -0.00000000000E+00 -0.00000000000E+00 -0.15357557943E+03  0.15357557945E+03  0.25500000000E-02 0. -1.
         11    1    1    2    0    0 -0.21548172081E+03 -0.24778215799E+03  0.46965551883E+03  0.57306603126E+03  0.51100000000E-03 0. -1.
         22    1    1    2    0    0 -0.31893081687E+02  0.17911326271E+02  0.19263876253E+03  0.19608079227E+03  0.00000000000E+00 0.  1.
          2    1    1    2  501    0  0.24737480249E+03  0.22987083172E+03  0.18451289768E+03  0.38481151438E+03  0.25500000000E-02 0. -1.
<mgrwt>
<rscale>  0 0.33397199E+03</rscale>
<asrwt>0</asrwt>
<pdfrwt beam="1">  1       11 0.10000000E+01 0.36578467E+02</pdfrwt>
<pdfrwt beam="2">  1        2 0.23636055E-01 0.33397199E+03</pdfrwt>
<totfact> 0.28458478E+02</totfact>
</mgrwt>
</event>
<event>
 5    1  0.6729100E-004  0.1189850E+03  0.7818608E-02  0.1411363E+00
         11   -1    0    0    0    0  0.00000000000E+00  0.00000000000E+00  0.10000649428E+04  0.10000649428E+04  0.51100000000E-03 0. -1.
          2   -1    0    0  501    0 -0.00000000000E+00 -0.00000000000E+00 -0.28450943663E+03  0.28450943664E+03  0.25500000000E-02 0. -1.
         11    1    1    2    0    0 -0.12959622276E+03 -0.25463423452E+02  0.30885063030E+03  0.33590516329E+03  0.51100000000E-03 0. -1.
         22    1    1    2    0    0  0.11380161501E+03 -0.29190796011E+02  0.66952876491E+03  0.67975854330E+03  0.00000000000E+00 0. -1.
          2    1    1    2  501    0  0.15794607749E+02  0.54654219462E+02 -0.26282388902E+03  0.26891067287E+03  0.25500000000E-02 0. -1.
<mgrwt>
<rscale>  0 0.56890714E+02</rscale>
<asrwt>0</asrwt>
<pdfrwt beam="1">  1       11 0.10000000E+01 0.11898501E+03</pdfrwt>
<pdfrwt beam="2">  1        2 0.43773524E-01 0.56890714E+02</pdfrwt>
<totfact> 0.14207962E+02</totfact>
</mgrwt>
</event>
<event>
 5    1  0.6729100E-004  0.2071706E+03  0.7818608E-02  0.1143826E+00
         11   -1    0    0    0    0  0.00000000000E+00  0.00000000000E+00  0.10001580616E+04  0.10001580616E+04  0.51100000000E-03 0.  1.
         -2   -1    0    0    0  501 -0.00000000000E+00 -0.00000000000E+00 -0.23264242254E+03  0.23264242256E+03  0.25500000000E-02 0. -1.
         11    1    1    2    0    0  0.28072972951E+02  0.14276751806E+03  0.42385032901E+03  0.44812917493E+03  0.51100000000E-03 0.  1.
         22    1    1    2    0    0 -0.91308225370E+02  0.64740656267E+02  0.50313405141E+03  0.51543420364E+03  0.00000000000E+00 0.  1.
         -2    1    1    2    0  501  0.63235252419E+02 -0.20750817433E+03 -0.15946874134E+03  0.26923710560E+03  0.25500000000E-02 0. -1.
<mgrwt>
<rscale>  0 0.20717065E+03</rscale>
<asrwt>0</asrwt>
<pdfrwt beam="1">  1       11 0.10000000E+01 0.11193098E+03</pdfrwt>
<pdfrwt beam="2">  1       -2 0.35796798E-01 0.20717065E+03</pdfrwt>
<totfact> 0.59338090E+01</totfact>
</mgrwt>
</event>
<event>
 5    1  0.6729100E-004  0.1486167E+03  0.7818608E-02  0.1202183E+00
         11   -1    0    0    0    0  0.00000000000E+00  0.00000000000E+00  0.10004746172E+04  0.10004746172E+04  0.51100000000E-03 0.  1.
          2   -1    0    0  501    0 -0.00000000000E+00 -0.00000000000E+00 -0.27731626542E+02  0.27731626660E+02  0.25500000000E-02 0.  1.
         11    1    1    2    0    0 -0.10932711880E+03  0.91738345297E+02  0.44814337044E+03  0.47031991599E+03  0.51100000000E-03 0.  1.
         22    1    1    2    0    0  0.10764339200E+02  0.27700746954E+02  0.14314013269E+03  0.14619268096E+03  0.00000000000E+00 0. -1.
          2    1    1    2  501    0  0.98562779597E+02 -0.11943909225E+03  0.38145948756E+03  0.41169364695E+03  0.25500000000E-02 0.  1.
<mgrwt>
<rscale>  0 0.14861673E+03</rscale>
<asrwt>0</asrwt>
<pdfrwt beam="1">  1       11 0.10000000E+01 0.29718721E+02</pdfrwt>
<pdfrwt beam="2">  1        2 0.42684289E-02 0.14861673E+03</pdfrwt>
<totfact> 0.22733209E+03</totfact>
</mgrwt>
</event>
<event>
 5    1  0.6729100E-004  0.1536415E+03  0.7818608E-02  0.1196068E+00
         11   -1    0    0    0    0  0.00000000000E+00  0.00000000000E+00  0.99999322142E+03  0.99999322142E+03  0.51100000000E-03 0. -1.
          2   -1    0    0  501    0 -0.00000000000E+00 -0.00000000000E+00 -0.27616549483E+02  0.27616549601E+02  0.25500000000E-02 0. -1.
         11    1    1    2    0    0 -0.50164583007E+02 -0.14325669183E+03  0.33139431293E+03  0.36450124250E+03  0.51100000000E-03 0. -1.
         22    1    1    2    0    0 -0.12590632784E+02 -0.82850297731E+00  0.42259019937E+02  0.44102553408E+02  0.00000000000E+00 0.  1.
          2    1    1    2  501    0  0.62755215791E+02  0.14408519481E+03  0.59872333907E+03  0.61900597511E+03  0.25500000000E-02 0. -1.
<mgrwt>
<rscale>  0 0.15364150E+03</rscale>
<asrwt>0</asrwt>
<pdfrwt beam="1">  1       11 0.10000000E+01 0.12617862E+02</pdfrwt>
<pdfrwt beam="2">  1        2 0.42486710E-02 0.15364150E+03</pdfrwt>
<totfact> 0.22939155E+03</totfact>
</mgrwt>
</event>
<event>
 5    1  0.6729100E-004  0.2182834E+03  0.7818608E-02  0.1135169E+00
         11   -1    0    0    0    0  0.00000000000E+00  0.00000000000E+00  0.10004031926E+04  0.10004031926E+04  0.51100000000E-03 0. -1.
          2   -1    0    0  501    0 -0.00000000000E+00 -0.00000000000E+00 -0.92152199317E+02  0.92152199353E+02  0.25500000000E-02 0. -1.
         11    1    1    2    0    0 -0.91499325335E+02 -0.19335269554E+03  0.88797081297E+02  0.23160810231E+03  0.51100000000E-03 0. -1.
         22    1    1    2    0    0 -0.13294062632E+02 -0.21281763696E+02  0.85566258709E+02  0.89169670834E+02  0.00000000000E+00 0. -1.
          2    1    1    2  501    0  0.10479338797E+03  0.21463445924E+03  0.73388765329E+03  0.77177761882E+03  0.25500000000E-02 0. -1.
<mgrwt>
<rscale>  0 0.21828341E+03</rscale>
<asrwt>0</asrwt>
<pdfrwt beam="1">  1       11 0.10000000E+01 0.25092739E+02</pdfrwt>
<pdfrwt beam="2">  1        2 0.14182977E-01 0.21828341E+03</pdfrwt>
<totfact> 0.50955482E+02</totfact>
</mgrwt>
</event>
<event>
 5    1  0.6729100E-004  0.1306419E+03  0.7818608E-02  0.1226506E+00
         11   -1    0    0    0    0  0.00000000000E+00  0.00000000000E+00  0.10000424890E+04  0.10000424890E+04  0.51100000000E-03 0. -1.
          2   -1    0    0  501    0 -0.00000000000E+00 -0.00000000000E+00 -0.43264381040E+02  0.43264381115E+02  0.25500000000E-02 0. -1.
         11    1    1    2    0    0 -0.11411072860E+03  0.11987485835E+03  0.31817753811E+03  0.35864771825E+03  0.51100000000E-03 0. -1.
         22    1    1    2    0    0 -0.23126704868E+01 -0.92765194335E+02  0.46316643739E+03  0.47237048855E+03  0.00000000000E+00 0. -1.
          2    1    1    2  501    0  0.11642339909E+03 -0.27109664014E+02  0.17543413250E+03  0.21228866336E+03  0.25500000000E-02 0. -1.
<mgrwt>
<rscale>  0 0.13064192E+03</rscale>
<asrwt>0</asrwt>
<pdfrwt beam="1">  1       11 0.10000000E+01 0.92794018E+02</pdfrwt>
<pdfrwt beam="2">  1        2 0.66563412E-02 0.13064192E+03</pdfrwt>
<totfact> 0.12629999E+03</totfact>
</mgrwt>
</event>
<event>
 5    1  0.6729100E-004  0.9447090E+02  0.7818608E-02  0.1292372E+00
         11   -1    0    0    0    0  0.00000000000E+00  0.00000000000E+00  0.10000374116E+04  0.10000374116E+04  0.51100000000E-03 0. -1.
          2   -1    0    0  501    0 -0.00000000000E+00 -0.00000000000E+00 -0.16118223308E+02  0.16118223510E+02  0.25500000000E-02 0. -1.
         11    1    1    2    0    0  0.60222706330E+02  0.66620993167E+02  0.18577010014E+03  0.20633870504E+03  0.51100000000E-03 0. -1.
         22    1    1    2    0    0  0.75691252600E+00  0.26037439531E+02  0.15110272738E+03  0.15333152121E+03  0.00000000000E+00 0.  1.
          2    1    1    2  501    0 -0.60979618856E+02 -0.92658432697E+02  0.64704636073E+03  0.65648540883E+03  0.25500000000E-02 0. -1.
<mgrwt>
<rscale>  0 0.94470900E+02</rscale>
<asrwt>0</asrwt>
<pdfrwt beam="1">  1       11 0.10000000E+01 0.26048439E+02</pdfrwt>
<pdfrwt beam="2">  1        2 0.24798194E-02 0.94470900E+02</pdfrwt>
<totfact> 0.44760713E+03</totfact>
</mgrwt>
</event>
<event>
 5    1  0.6729100E-004  0.3501919E+03  0.7818608E-02  0.1062536E+00
         11   -1    0    0    0    0  0.00000000000E+00  0.00000000000E+00  0.10001421584E+04  0.10001421584E+04  0.51100000000E-03 0.  1.
          2   -1    0    0  501    0 -0.00000000000E+00 -0.00000000000E+00 -0.15538236695E+03  0.15538236697E+03  0.25500000000E-02 0.  1.
         11    1    1    2    0    0  0.33883382366E+03 -0.47481789476E+02  0.38674205812E+03  0.51636450295E+03  0.51100000000E-03 0.  1.
         22    1    1    2    0    0  0.80682588347E+01 -0.38813323889E+02  0.18541201926E+03  0.18960271042E+03  0.00000000000E+00 0.  1.
          2    1    1    2  501    0 -0.34690208249E+03  0.86295113365E+02  0.27260571406E+03  0.44955731200E+03  0.25500000000E-02 0.  1.
<mgrwt>
<rscale>  0 0.35019192E+03</rscale>
<asrwt>0</asrwt>
<pdfrwt beam="1">  1       11 0.10000000E+01 0.39643044E+02</pdfrwt>
<pdfrwt beam="2">  1        2 0.23908377E-01 0.35019192E+03</pdfrwt>
<totfact> 0.28116091E+02</totfact>
</mgrwt>
</event>
<event>
 5    1  0.6729100E-004  0.6121585E+02  0.7818608E-02  0.1723358E+00
         11   -1    0    0    0    0  0.00000000000E+00  0.00000000000E+00  0.10000885435E+04  0.10000885435E+04  0.51100000000E-03 0.  1.
          2   -1    0    0  501    0 -0.00000000000E+00 -0.00000000000E+00 -0.59074933180E+01  0.59074938683E+01  0.25500000000E-02 0.  1.
         11    1    1    2    0    0 -0.39702028270E+02 -0.40318636504E+02  0.33481340539E+03  0.33956127566E+03  0.51100000000E-03 0.  1.
         22    1    1    2    0    0  0.32906825274E+02  0.60348636636E+02  0.37253842852E+03  0.37882673852E+03  0.00000000000E+00 0.  1.
          2    1    1    2  501    0  0.67952029963E+01 -0.20030000132E+02  0.28682921623E+03  0.28760802315E+03  0.25500000000E-02 0.  1.
<mgrwt>
<rscale>  0 0.21151258E+02</rscale>
<asrwt>0</asrwt>
<pdfrwt beam="1">  1       11 0.10000000E+01 0.61215849E+02</pdfrwt>
<pdfrwt beam="2">  1        2 0.90892561E-03 0.21151258E+02</pdfrwt>
<totfact> 0.13076446E+04</totfact>
</mgrwt>
</event>
<event>
 5    1  0.6729100E-004  0.5795100E+03  0.7818608E-02  0.9948852E-01
         11   -1    0    0    0    0  0.00000000000E+00  0.00000000000E+00  0.10003713814E+04  0.10003713814E+04  0.51100000000E-03 0. -1.
          2   -1    0    0  501    0 -0.00000000000E+00 -0.00000000000E+00 -0.65918751414E+03  0.65918751415E+03  0.25500000000E-02 0. -1.
         11    1    1    2    0    0 -0.33850154363E+02  0.56732377364E+03  0.18789739972E+03  0.59858794668E+03  0.51100000000E-03 0. -1.
         22    1    1    2    0    0 -0.12308883048E+03  0.65320840509E+00  0.40270586478E+03  0.42109773260E+03  0.00000000000E+00 0. -1.
          2    1    1    2  501    0  0.15693898484E+03 -0.56797698204E+03 -0.24941939729E+03  0.63987321623E+03  0.25500000000E-02 0. -1.
<mgrwt>
<rscale>  0 0.57950999E+03</rscale>
<asrwt>0</asrwt>
<pdfrwt beam="1">  1       11 0.10000000E+01 0.12309056E+03</pdfrwt>
<pdfrwt beam="2">  1        2 0.10145112E+00 0.57950999E+03</pdfrwt>
<totfact> 0.55121128E+01</totfact>
</mgrwt>
</event>
<event>
 5    1  0.6729100E-004  0.4483559E+03  0.7818608E-02  0.1028213E+00
         11   -1    0    0    0    0  0.00000000000E+00  0.00000000000E+00  0.10004146224E+04  0.10004146224E+04  0.51100000000E-03 0. -1.
          2   -1    0    0  501    0 -0.00000000000E+00 -0.00000000000E+00 -0.33727080228E+03  0.33727080229E+03  0.25500000000E-02 0. -1.
         11    1    1    2    0    0  0.16577027028E+03 -0.38995270679E+03  0.86636446036E+02  0.43249135230E+03  0.51100000000E-03 0. -1.
         22    1    1    2    0    0  0.43480716464E+02 -0.45177182420E+02  0.37797629790E+03  0.38314179137E+03  0.00000000000E+00 0. -1.
          2    1    1    2  501    0 -0.20925098674E+03  0.43512988920E+03  0.19853107622E+03  0.52205228106E+03  0.25500000000E-02 0. -1.
<mgrwt>
<rscale>  0 0.44835588E+03</rscale>
<asrwt>0</asrwt>
<pdfrwt beam="1">  1       11 0.10000000E+01 0.62702077E+02</pdfrwt>
<pdfrwt beam="2">  1        2 0.51909328E-01 0.44835588E+03</pdfrwt>
<totfact> 0.11929671E+02</totfact>
</mgrwt>
</event>
<event>
 5    1  0.6729100E-004  0.3781854E+03  0.7818608E-02  0.1051606E+00
         11   -1    0    0    0    0  0.00000000000E+00  0.00000000000E+00  0.99997809315E+03  0.99997809315E+03  0.51100000000E-03 0. -1.
          2   -1    0    0  501    0 -0.00000000000E+00 -0.00000000000E+00 -0.21253388454E+03  0.21253388456E+03  0.25500000000E-02 0. -1.
         11    1    1    2    0    0  0.36553825557E+03  0.43860231551E+02  0.34940039975E+03  0.50756534115E+03  0.51100000000E-03 0. -1.
         22    1    1    2    0    0  0.95528529519E+01  0.46530964721E+02  0.28651987730E+03  0.29043076243E+03  0.00000000000E+00 0. -1.
          2    1    1    2  501    0 -0.37509110852E+03 -0.90391196272E+02  0.15152393156E+03  0.41451587412E+03  0.25500000000E-02 0. -1.
<mgrwt>
<rscale>  0 0.37818541E+03</rscale>
<asrwt>0</asrwt>
<pdfrwt beam="1">  1       11 0.10000000E+01 0.47501449E+02</pdfrwt>
<pdfrwt beam="2">  1        2 0.32696803E-01 0.37818541E+03</pdfrwt>
<totfact> 0.19817736E+02</totfact>
</mgrwt>
</event>
<event>
 5    1  0.6729100E-004  0.9519416E+02  0.7818608E-02  0.1380322E+00
         11   -1    0    0    0    0  0.00000000000E+00  0.00000000000E+00  0.10002811208E+04  0.10002811208E+04  0.51100000000E-03 0.  1.
          2   -1    0    0  501    0 -0.00000000000E+00 -0.00000000000E+00 -0.10172109249E+03  0.10172109252E+03  0.25500000000E-02 0. -1.
         11    1    1    2    0    0 -0.12005344900E+03 -0.84661514332E+00  0.69543323080E+03  0.70572014700E+03  0.51100000000E-03 0.  1.
         22    1    1    2    0    0  0.67370135652E+02 -0.36155241387E+02  0.28331352002E+03  0.29344929253E+03  0.00000000000E+00 0.  1.
          2    1    1    2  501    0  0.52683313348E+02  0.37001856530E+02 -0.80186722512E+02  0.10283277379E+03  0.25500000000E-02 0. -1.
<mgrwt>
<rscale>  0 0.64379103E+02</rscale>
<asrwt>0</asrwt>
<pdfrwt beam="1">  1       11 0.10000000E+01 0.95194160E+02</pdfrwt>
<pdfrwt beam="2">  1        2 0.15653798E-01 0.64379103E+02</pdfrwt>
<totfact> 0.43004871E+02</totfact>
</mgrwt>
</event>
<event>
 5    1  0.6729100E-004  0.1395724E+03  0.7818608E-02  0.1320115E+00
         11   -1    0    0    0    0  0.00000000000E+00  0.00000000000E+00  0.10012372877E+04  0.10012372877E+04  0.51100000000E-03 0. -1.
          2   -1    0    0  501    0 -0.00000000000E+00 -0.00000000000E+00 -0.31687335397E+04  0.31687335397E+04  0.25500000000E-02 0.  1.
         11    1    1    2    0    0  0.24702705793E+02 -0.19403404653E+03  0.19927280049E+03  0.27922944670E+03  0.51100000000E-03 0. -1.
         22    1    1    2    0    0 -0.59818105510E+02  0.11856940693E+03  0.75564085508E+03  0.76722227018E+03  0.00000000000E+00 0. -1.
          2    1    1    2  501    0  0.35115399718E+02  0.75464639605E+02 -0.31224099076E+04  0.31235191106E+04  0.25500000000E-02 0.  1.
<mgrwt>
<rscale>  0 0.83234627E+02</rscale>
<asrwt>0</asrwt>
<pdfrwt beam="1">  1       11 0.10000000E+01 0.13957236E+03</pdfrwt>
<pdfrwt beam="2">  1        2 0.48810063E+00 0.83234627E+02</pdfrwt>
<totfact> 0.24904928E+00</totfact>
</mgrwt>
</event>
<event>
 5    1  0.6729100E-004  0.2402370E+03  0.7818608E-02  0.1119635E+00
         11   -1    0    0    0    0  0.00000000000E+00  0.00000000000E+00  0.10003413510E+04  0.10003413510E+04  0.51100000000E-03 0.  1.
          2   -1    0    0  501    0 -0.00000000000E+00 -0.00000000000E+00 -0.71147018045E+02  0.71147018091E+02  0.25500000000E-02 0.  1.
         11    1    1    2    0    0 -0.69235042920E+02 -0.22494983100E+03  0.60997251899E+03  0.65380608101E+03  0.51100000000E-03 0.  1.
         22    1    1    2    0    0  0.64598443007E+01 -0.94061218711E+01  0.66043175788E+02  0.67021681456E+02  0.00000000000E+00 0.  1.
          2    1    1    2  501    0  0.62775198619E+02  0.23435595287E+03  0.25317863818E+03  0.35066060664E+03  0.25500000000E-02 0.  1.
<mgrwt>
<rscale>  0 0.24023703E+03</rscale>
<asrwt>0</asrwt>
<pdfrwt beam="1">  1       11 0.10000000E+01 0.11410728E+02</pdfrwt>
<pdfrwt beam="2">  1        2 0.10949431E-01 0.24023703E+03</pdfrwt>
<totfact> 0.70046572E+02</totfact>
</mgrwt>
</event>
<event>
 5    1  0.6729100E-004  0.3063164E+03  0.7818608E-02  0.1242766E+00
         11   -1    0    0    0    0  0.00000000000E+00  0.00000000000E+00  0.10005356504E+04  0.10005356504E+04  0.51100000000E-03 0.  1.
          2   -1    0    0  501    0 -0.00000000000E+00 -0.00000000000E+00 -0.19365206137E+04  0.19365206137E+04  0.25500000000E-02 0.  1.
         11    1    1    2    0    0  0.29784529499E+03  0.27456549062E+03  0.15130350447E+03  0.43242430419E+03  0.51100000000E-03 0.  1.
         22    1    1    2    0    0 -0.20057625934E+03 -0.20394681378E+03  0.67767840515E+03  0.73557675294E+03  0.00000000000E+00 0.  1.
          2    1    1    2  501    0 -0.97269035644E+02 -0.70618676842E+02 -0.17649668729E+04  0.17690552070E+04  0.25500000000E-02 0.  1.
<mgrwt>
<rscale>  0 0.12020093E+03</rscale>
<asrwt>0</asrwt>
<pdfrwt beam="1">  1       11 0.10000000E+01 0.30631645E+03</pdfrwt>
<pdfrwt beam="2">  1        2 0.29808582E+00 0.12020093E+03</pdfrwt>
<totfact> 0.10886953E+01</totfact>
</mgrwt>
</event>
<event>
 5    1  0.6729100E-004  0.1235367E+03  0.7818608E-02  0.1406221E+00
         11   -1    0    0    0    0  0.00000000000E+00  0.00000000000E+00  0.10004042693E+04  0.10004042693E+04  0.51100000000E-03 0.  1.
          2   -1    0    0  501    0 -0.00000000000E+00 -0.00000000000E+00 -0.15326281742E+04  0.15326281742E+04  0.25500000000E-02 0.  1.
         11    1    1    2    0    0 -0.47765506511E+02  0.13354829065E+03  0.55666889878E+03  0.57445361206E+03  0.51100000000E-03 0.  1.
         22    1    1    2    0    0 -0.64558992054E+01 -0.11282803572E+03  0.42693535059E+03  0.44163971500E+03  0.00000000000E+00 0.  1.
          2    1    1    2  501    0  0.54221405716E+02 -0.20720254924E+02 -0.15158281542E+04  0.15169391164E+04  0.25500000000E-02 0.  1.
<mgrwt>
<rscale>  0 0.58045584E+02</rscale>
<asrwt>0</asrwt>
<pdfrwt beam="1">  1       11 0.10000000E+01 0.12353674E+03</pdfrwt>
<pdfrwt beam="2">  1        2 0.23588427E+00 0.58045584E+02</pdfrwt>
<totfact> 0.18609482E+01</totfact>
</mgrwt>
</event>
<event>
 5    1  0.6729100E-004  0.3341466E+03  0.7818608E-02  0.1069317E+00
         11   -1    0    0    0    0  0.00000000000E+00  0.00000000000E+00  0.99964623752E+03  0.99964623752E+03  0.51100000000E-03 0. -1.
          2   -1    0    0  501    0 -0.00000000000E+00 -0.00000000000E+00 -0.19519276907E+04  0.19519276907E+04  0.25500000000E-02 0. -1.
         11    1    1    2    0    0  0.33186079348E+03  0.57322046158E+02  0.86425197867E+03  0.92754993713E+03  0.51100000000E-03 0. -1.
         22    1    1    2    0    0 -0.44273234710E+00 -0.15001676677E+02  0.88576349488E+02  0.89838833495E+02  0.00000000000E+00 0. -1.
          2    1    1    2  501    0 -0.33141806114E+03 -0.42320369481E+02 -0.19051097814E+04  0.19341851576E+04  0.25500000000E-02 0. -1.
<mgrwt>
<rscale>  0 0.33414662E+03</rscale>
<asrwt>0</asrwt>
<pdfrwt beam="1">  1       11 0.10000000E+01 0.15008208E+02</pdfrwt>
<pdfrwt beam="2">  1        2 0.30019033E+00 0.33414662E+03</pdfrwt>
<totfact> 0.96874777E+00</totfact>
</mgrwt>
</event>
<event>
 5    1  0.6729100E-004  0.7266875E+02  0.7818608E-02  0.1351246E+00
         11   -1    0    0    0    0  0.00000000000E+00  0.00000000000E+00  0.10000828708E+04  0.10000828708E+04  0.51100000000E-03 0. -1.
          2   -1    0    0  501    0 -0.00000000000E+00 -0.00000000000E+00 -0.80722110010E+01  0.80722114038E+01  0.25500000000E-02 0. -1.
         11    1    1    2    0    0  0.91056591435E+01 -0.25041583931E+02  0.10888702001E+03  0.11209985317E+03  0.51100000000E-03 0. -1.
         22    1    1    2    0    0 -0.76055693250E+02  0.13837509250E+02  0.33834605221E+03  0.34706482995E+03  0.00000000000E+00 0. -1.
          2    1    1    2  501    0  0.66950034106E+02  0.11204074681E+02  0.54477758759E+03  0.54899039910E+03  0.25500000000E-02 0. -1.
<mgrwt>
<rscale>  0 0.72668753E+02</rscale>
<asrwt>0</asrwt>
<pdfrwt beam="1">  1       11 0.10000000E+01 0.26645725E+02</pdfrwt>
<pdfrwt beam="2">  1        2 0.12419815E-02 0.72668753E+02</pdfrwt>
<totfact> 0.10970495E+04</totfact>
</mgrwt>
</event>
<event>
 5    1  0.6729100E-004  0.2024472E+03  0.7818608E-02  0.1147691E+00
         11   -1    0    0    0    0  0.00000000000E+00  0.00000000000E+00  0.10004011535E+04  0.10004011535E+04  0.51100000000E-03 0. -1.
         -2   -1    0    0    0  501 -0.00000000000E+00 -0.00000000000E+00 -0.64790960964E+03  0.64790960965E+03  0.25500000000E-02 0.  1.
         11    1    1    2    0    0 -0.14465345341E+03 -0.14398087932E+03  0.82188859925E+03  0.84685062718E+03  0.51100000000E-03 0. -1.
         22    1    1    2    0    0 -0.17418516292E+02  0.22654492145E+02  0.14850877931E+03  0.15123322471E+03  0.00000000000E+00 0. -1.
         -2    1    1    2    0  501  0.16207196970E+03  0.12132638718E+03 -0.61790583469E+03  0.65022691127E+03  0.25500000000E-02 0.  1.
<mgrwt>
<rscale>  0 0.20244723E+03</rscale>
<asrwt>0</asrwt>
<pdfrwt beam="1">  1       11 0.10000000E+01 0.28576751E+02</pdfrwt>
<pdfrwt beam="2">  1       -2 0.99718385E-01 0.20244723E+03</pdfrwt>
<totfact> 0.70786336E+00</totfact>
</mgrwt>
</event>
<event>
 5    1  0.6729100E-004  0.8413450E+02  0.7818608E-02  0.1317712E+00
         11   -1    0    0    0    0  0.00000000000E+00  0.00000000000E+00  0.99979508321E+03  0.99979508321E+03  0.51100000000E-03 0. -1.
         -2   -1    0    0    0  501 -0.00000000000E+00 -0.00000000000E+00 -0.31072960180E+02  0.31072960284E+02  0.25500000000E-02 0.  1.
         11    1    1    2    0    0 -0.19530737406E+02  0.10539703733E+03  0.61769338009E+03  0.62692511274E+03  0.51100000000E-03 0. -1.
         22    1    1    2    0    0  0.44207230440E+02 -0.26404219077E+02  0.30486032312E+03  0.30917839288E+03  0.00000000000E+00 0.  1.
         -2    1    1    2    0  501 -0.24676493034E+02 -0.78992818253E+02  0.46168419826E+02  0.94764537881E+02  0.25500000000E-02 0.  1.
<mgrwt>
<rscale>  0 0.84134503E+02</rscale>
<asrwt>0</asrwt>
<pdfrwt beam="1">  1       11 0.10000000E+01 0.51492349E+02</pdfrwt>
<pdfrwt beam="2">  1       -2 0.47794757E-02 0.84134503E+02</pdfrwt>
<totfact> 0.15105635E+03</totfact>
</mgrwt>
</event>
<event>
 5    1  0.6729100E-004  0.2392051E+03  0.7818608E-02  0.1121759E+00
         11   -1    0    0    0    0  0.00000000000E+00  0.00000000000E+00  0.10001961075E+04  0.10001961075E+04  0.51100000000E-03 0.  1.
          2   -1    0    0  501    0 -0.00000000000E+00 -0.00000000000E+00 -0.25988273492E+03  0.25988273493E+03  0.25500000000E-02 0.  1.
         11    1    1    2    0    0 -0.22115591622E+03 -0.27224289078E+02  0.84314703744E+03  0.87209404765E+03  0.51100000000E-03 0.  1.
         22    1    1    2    0    0 -0.13312529912E+02 -0.78130864742E+01  0.84457976278E+02  0.85856959705E+02  0.00000000000E+00 0. -1.
          2    1    1    2  501    0  0.23446844613E+03  0.35037375552E+02 -0.18729164110E+03  0.30212783511E+03  0.25500000000E-02 0.  1.
<mgrwt>
<rscale>  0 0.23707187E+03</rscale>
<asrwt>0</asrwt>
<pdfrwt beam="1">  1       11 0.10000000E+01 0.23920508E+03</pdfrwt>
<pdfrwt beam="2">  1        2 0.39989799E-01 0.23707187E+03</pdfrwt>
<totfact> 0.15837581E+02</totfact>
</mgrwt>
</event>
<event>
 5    1  0.6729100E-004  0.1148833E+03  0.7818608E-02  0.1259737E+00
         11   -1    0    0    0    0  0.00000000000E+00  0.00000000000E+00  0.10002723161E+04  0.10002723161E+04  0.51100000000E-03 0. -1.
          2   -1    0    0  501    0 -0.00000000000E+00 -0.00000000000E+00 -0.48006621396E+02  0.48006621464E+02  0.25500000000E-02 0. -1.
         11    1    1    2    0    0 -0.13907453512E+03  0.49628721176E-03  0.36098376260E+03  0.38684751929E+03  0.51100000000E-03 0. -1.
         22    1    1    2    0    0  0.76619560571E+02 -0.91098481995E+02  0.51152847416E+03  0.52519603041E+03  0.00000000000E+00 0. -1.
          2    1    1    2  501    0  0.62454974547E+02  0.91097985708E+02  0.79753457942E+02  0.13623538786E+03  0.25500000000E-02 0. -1.
<mgrwt>
<rscale>  0 0.11045120E+03</rscale>
<asrwt>0</asrwt>
<pdfrwt beam="1">  1       11 0.10000000E+01 0.11488330E+03</pdfrwt>
<pdfrwt beam="2">  1        2 0.73876451E-02 0.11045120E+03</pdfrwt>
<totfact> 0.10936071E+03</totfact>
</mgrwt>
</event>
<event>
 5    1  0.6729100E-004  0.1426653E+03  0.7818608E-02  0.1209787E+00
         11   -1    0    0    0    0  0.00000000000E+00  0.00000000000E+00  0.99999168967E+03  0.99999168967E+03  0.51100000000E-03 0.  1.
          2   -1    0    0  501    0 -0.00000000000E+00 -0.00000000000E+00 -0.52107709867E+03  0.52107709868E+03  0.25500000000E-02 0.  1.
         11    1    1    2    0    0  0.21028070000E+03 -0.17614911627E+02  0.52017202480E+03  0.56134409526E+03  0.51100000000E-03 0.  1.
         22    1    1    2    0    0 -0.74363894184E+02 -0.21623945904E+02  0.44583164182E+03  0.45250794097E+03  0.00000000000E+00 0.  1.
          2    1    1    2  501    0 -0.13591680581E+03  0.39238857531E+02 -0.48708907561E+03  0.50721675212E+03  0.25500000000E-02 0.  1.
<mgrwt>
<rscale>  0 0.14266533E+03</rscale>
<asrwt>0</asrwt>
<pdfrwt beam="1">  1       11 0.10000000E+01 0.77444069E+02</pdfrwt>
<pdfrwt beam="2">  1        2 0.80165039E-01 0.14266533E+03</pdfrwt>
<totfact> 0.74821783E+01</totfact>
</mgrwt>
</event>
<event>
 5    1  0.6729100E-004  0.2092689E+03  0.7818608E-02  0.1142146E+00
         11   -1    0    0    0    0  0.00000000000E+00  0.00000000000E+00  0.99999537608E+03  0.99999537608E+03  0.51100000000E-03 0.  1.
          2   -1    0    0  501    0 -0.00000000000E+00 -0.00000000000E+00 -0.52513038723E+02  0.52513038785E+02  0.25500000000E-02 0.  1.
         11    1    1    2    0    0  0.77214032136E+02  0.18983654198E+03  0.61282582680E+03  0.64618527793E+03  0.51100000000E-03 0.  1.
         22    1    1    2    0    0 -0.60590463395E+01  0.93519904608E+01  0.52604607275E+02  0.53771892980E+02  0.00000000000E+00 0.  1.
          2    1    1    2  501    0 -0.71154985797E+02 -0.19918853244E+03  0.28205190329E+03  0.35255124395E+03  0.25500000000E-02 0.  1.
<mgrwt>
<rscale>  0 0.20926887E+03</rscale>
<asrwt>0</asrwt>
<pdfrwt beam="1">  1       11 0.10000000E+01 0.11143239E+02</pdfrwt>
<pdfrwt beam="2">  1        2 0.80788915E-02 0.20926887E+03</pdfrwt>
<totfact> 0.10175966E+03</totfact>
</mgrwt>
</event>
<event>
 5    1  0.6729100E-004  0.2580505E+03  0.7818608E-02  0.1108320E+00
         11   -1    0    0    0    0  0.00000000000E+00  0.00000000000E+00  0.99980830613E+03  0.99980830613E+03  0.51100000000E-03 0. -1.
          2   -1    0    0  501    0 -0.00000000000E+00 -0.00000000000E+00 -0.13079124984E+04  0.13079124984E+04  0.25500000000E-02 0. -1.
         11    1    1    2    0    0 -0.11774753794E+03 -0.19481525643E+03  0.86279946702E+03  0.89232302846E+03  0.51100000000E-03 0. -1.
         22    1    1    2    0    0 -0.51076600694E+02 -0.10036810109E+01  0.10329250986E+03  0.11523527719E+03  0.00000000000E+00 0.  1.
          2    1    1    2  501    0  0.16882413863E+03  0.19581893744E+03 -0.12741961692E+04  0.13001624989E+04  0.25500000000E-02 0. -1.
<mgrwt>
<rscale>  0 0.25805047E+03</rscale>
<asrwt>0</asrwt>
<pdfrwt beam="1">  1       11 0.10000000E+01 0.51086461E+02</pdfrwt>
<pdfrwt beam="2">  1        2 0.20117873E+00 0.25805047E+03</pdfrwt>
<totfact> 0.21841722E+01</totfact>
</mgrwt>
</event>
<event>
 5    1  0.6729100E-004  0.3865216E+03  0.7818608E-02  0.1048549E+00
         11   -1    0    0    0    0  0.00000000000E+00  0.00000000000E+00  0.10001084486E+04  0.10001084486E+04  0.51100000000E-03 0. -1.
          2   -1    0    0  501    0 -0.00000000000E+00 -0.00000000000E+00 -0.97024135396E+03  0.97024135396E+03  0.25500000000E-02 0.  1.
         11    1    1    2    0    0  0.35731190323E+03  0.66759758515E+02  0.83633390267E+03  0.91191176015E+03  0.51100000000E-03 0. -1.
         22    1    1    2    0    0 -0.53991003792E+01  0.96971442504E+02  0.56388162390E+02  0.11230421098E+03  0.00000000000E+00 0. -1.
          2    1    1    2  501    0 -0.35191280285E+03 -0.16373120102E+03 -0.86285497042E+03  0.94613383143E+03  0.25500000000E-02 0.  1.
<mgrwt>
<rscale>  0 0.38652160E+03</rscale>
<asrwt>0</asrwt>
<pdfrwt beam="1">  1       11 0.10000000E+01 0.97121630E+02</pdfrwt>
<pdfrwt beam="2">  1        2 0.14928408E+00 0.38652160E+03</pdfrwt>
<totfact> 0.33712719E+01</totfact>
</mgrwt>
</event>
<event>
 5    1  0.6729100E-004  0.1015307E+03  0.7818608E-02  0.1277110E+00
         11   -1    0    0    0    0  0.00000000000E+00  0.00000000000E+00  0.10002625996E+04  0.10002625996E+04  0.51100000000E-03 0. -1.
          2   -1    0    0  501    0 -0.00000000000E+00 -0.00000000000E+00 -0.39839572148E+02  0.39839572230E+02  0.25500000000E-02 0. -1.
         11    1    1    2    0    0  0.46720842150E+02 -0.89129300133E+02  0.47083205070E+02  0.11110219365E+03  0.51100000000E-03 0. -1.
         22    1    1    2    0    0 -0.36663899755E+02 -0.28733894789E+02  0.16828320841E+03  0.17461132978E+03  0.00000000000E+00 0. -1.
          2    1    1    2  501    0 -0.10056942395E+02  0.11786319492E+03  0.74505661395E+03  0.75438864838E+03  0.25500000000E-02 0. -1.
<mgrwt>
<rscale>  0 0.10153073E+03</rscale>
<asrwt>0</asrwt>
<pdfrwt beam="1">  1       11 0.10000000E+01 0.46581952E+02</pdfrwt>
<pdfrwt beam="2">  1        2 0.61307743E-02 0.10153073E+03</pdfrwt>
<totfact> 0.13758826E+03</totfact>
</mgrwt>
</event>
<event>
 5    1  0.6729100E-004  0.3738636E+03  0.7818608E-02  0.1053225E+00
         11   -1    0    0    0    0  0.00000000000E+00  0.00000000000E+00  0.10002244359E+04  0.10002244359E+04  0.51100000000E-03 0. -1.
          2   -1    0    0  501    0 -0.00000000000E+00 -0.00000000000E+00 -0.47044195179E+03  0.47044195180E+03  0.25500000000E-02 0. -1.
         11    1    1    2    0    0  0.10909636614E+03  0.38011384625E+03  0.55721595548E+03  0.68328484123E+03  0.51100000000E-03 0. -1.
         22    1    1    2    0    0  0.86806513953E+02 -0.63129887506E+02  0.28281572717E+03  0.30249874230E+03  0.00000000000E+00 0. -1.
          2    1    1    2  501    0 -0.19590288010E+03 -0.31698395874E+03 -0.31024919857E+03  0.48488280414E+03  0.25500000000E-02 0. -1.
<mgrwt>
<rscale>  0 0.37386361E+03</rscale>
<asrwt>0</asrwt>
<pdfrwt beam="1">  1       11 0.10000000E+01 0.10733477E+03</pdfrwt>
<pdfrwt beam="2">  1        2 0.72391927E-01 0.37386361E+03</pdfrwt>
<totfact> 0.82615415E+01</totfact>
</mgrwt>
</event>
<event>
 5    1  0.6729100E-004  0.2984509E+03  0.7818608E-02  0.1087843E+00
         11   -1    0    0    0    0  0.00000000000E+00  0.00000000000E+00  0.10003650162E+04  0.10003650162E+04  0.51100000000E-03 0.  1.
          2   -1    0    0  501    0 -0.00000000000E+00 -0.00000000000E+00 -0.59143665565E+03  0.59143665565E+03  0.25500000000E-02 0.  1.
         11    1    1    2    0    0  0.20040613187E+02 -0.42220577584E+01  0.10780312699E+03  0.10973133617E+03  0.51100000000E-03 0.  1.
         22    1    1    2    0    0  0.27426557666E+03  0.22153562677E+02  0.83117174192E+03  0.87553346678E+03  0.00000000000E+00 0.  1.
          2    1    1    2  501    0 -0.29430618984E+03 -0.17931504919E+02 -0.53004650839E+03  0.60653686888E+03  0.25500000000E-02 0.  1.
<mgrwt>
<rscale>  0 0.29485195E+03</rscale>
<asrwt>0</asrwt>
<pdfrwt beam="1">  1       11 0.10000000E+01 0.29845088E+03</pdfrwt>
<pdfrwt beam="2">  1        2 0.91023465E-01 0.29485195E+03</pdfrwt>
<totfact> 0.63839669E+01</totfact>
</mgrwt>
</event>
<event>
 5    1  0.6729100E-004  0.3202568E+03  0.7818608E-02  0.1075531E+00
         11   -1    0    0    0    0  0.00000000000E+00  0.00000000000E+00  0.99998643839E+03  0.99998643839E+03  0.51100000000E-03 0. -1.
         -2   -1    0    0    0  501 -0.00000000000E+00 -0.00000000000E+00 -0.98405745087E+03  0.98405745088E+03  0.25500000000E-02 0.  1.
         11    1    1    2    0    0  0.13219157840E+03 -0.30350591033E+03  0.91205776489E+03  0.97027821654E+03  0.51100000000E-03 0. -1.
         22    1    1    2    0    0  0.28794963618E+00  0.12271583596E+02  0.30808237976E+02  0.33163567452E+02  0.00000000000E+00 0. -1.
         -2    1    1    2    0  501 -0.13247952804E+03  0.29123432673E+03 -0.92693701535E+03  0.98060210527E+03  0.25500000000E-02 0.  1.
<mgrwt>
<rscale>  0 0.32025676E+03</rscale>
<asrwt>0</asrwt>
<pdfrwt beam="1">  1       11 0.10000000E+01 0.12274961E+02</pdfrwt>
<pdfrwt beam="2">  1       -2 0.15139140E+00 0.32025676E+03</pdfrwt>
<totfact> 0.24974915E+00</totfact>
</mgrwt>
</event>
<event>
 5    1  0.6729100E-004  0.1447214E+03  0.7818608E-02  0.1207113E+00
         11   -1    0    0    0    0  0.00000000000E+00  0.00000000000E+00  0.10002221434E+04  0.10002221434E+04  0.51100000000E-03 0.  1.
          2   -1    0    0  501    0 -0.00000000000E+00 -0.00000000000E+00 -0.24643255656E+02  0.24643255788E+02  0.25500000000E-02 0.  1.
         11    1    1    2    0    0  0.74937503986E+02  0.12235089859E+03  0.52421706653E+03  0.54349692247E+03  0.51100000000E-03 0.  1.
         22    1    1    2    0    0  0.16667278606E+02 -0.85260154845E+01  0.83067636662E+02  0.85151179539E+02  0.00000000000E+00 0. -1.
          2    1    1    2  501    0 -0.91604782592E+02 -0.11382488310E+03  0.36829418456E+03  0.39621729719E+03  0.25500000000E-02 0.  1.
<mgrwt>
<rscale>  0 0.14472144E+03</rscale>
<asrwt>0</asrwt>
<pdfrwt beam="1">  1       11 0.10000000E+01 0.18721408E+02</pdfrwt>
<pdfrwt beam="2">  1        2 0.37921122E-02 0.14472144E+03</pdfrwt>
<totfact> 0.26534331E+03</totfact>
</mgrwt>
</event>
<event>
 5    1  0.6729100E-004  0.1176907E+03  0.7818608E-02  0.1246956E+00
         11   -1    0    0    0    0  0.00000000000E+00  0.00000000000E+00  0.10003836589E+04  0.10003836589E+04  0.51100000000E-03 0. -1.
          2   -1    0    0  501    0 -0.00000000000E+00 -0.00000000000E+00 -0.19996949183E+02  0.19996949346E+02  0.25500000000E-02 0. -1.
         11    1    1    2    0    0 -0.11271135519E+03 -0.37067887812E+02  0.70650449896E+03  0.71639827258E+03  0.51100000000E-03 0. -1.
         22    1    1    2    0    0 -0.19231618479E+01  0.11252775180E+02  0.48297533745E+02  0.49628371589E+02  0.00000000000E+00 0. -1.
          2    1    1    2  501    0  0.11463451704E+03  0.25815112632E+02  0.22558467705E+03  0.25435396412E+03  0.25500000000E-02 0. -1.
<mgrwt>
<rscale>  0 0.11769074E+03</rscale>
<asrwt>0</asrwt>
<pdfrwt beam="1">  1       11 0.10000000E+01 0.11415932E+02</pdfrwt>
<pdfrwt beam="2">  1        2 0.30776340E-02 0.11769074E+03</pdfrwt>
<totfact> 0.34354459E+03</totfact>
</mgrwt>
</event>
<event>
 5    1  0.6729100E-004  0.9401466E+02  0.7818608E-02  0.1400341E+00
         11   -1    0    0    0    0  0.00000000000E+00  0.00000000000E+00  0.10000879315E+04  0.10000879315E+04  0.51100000000E-03 0. -1.
         -2   -1    0    0    0  501 -0.00000000000E+00 -0.00000000000E+00 -0.52172522609E+02  0.52172522671E+02  0.25500000000E-02 0.  1.
         11    1    1    2    0    0  0.72571772625E+02 -0.67113538693E+02  0.38025570897E+03  0.39289348870E+03  0.51100000000E-03 0. -1.
         22    1    1    2    0    0 -0.20603271460E+02  0.95894992896E+02  0.58834325567E+03  0.59646301725E+03  0.00000000000E+00 0. -1.
         -2    1    1    2    0  501 -0.51968501164E+02 -0.28781454203E+02 -0.20683555733E+02  0.62903948235E+02  0.25500000000E-02 0.  1.
<mgrwt>
<rscale>  0 0.59406205E+02</rscale>
<asrwt>0</asrwt>
<pdfrwt beam="1">  1       11 0.10000000E+01 0.94014660E+02</pdfrwt>
<pdfrwt beam="2">  1       -2 0.80272475E-02 0.59406205E+02</pdfrwt>
<totfact> 0.67393871E+02</totfact>
</mgrwt>
</event>
<event>
 5    1  0.6729100E-004  0.2014383E+03  0.7818608E-02  0.1148531E+00
         11   -1    0    0    0    0  0.00000000000E+00  0.00000000000E+00  0.10000081609E+04  0.10000081609E+04  0.51100000000E-03 0. -1.
          2   -1    0    0  501    0 -0.00000000000E+00 -0.00000000000E+00 -0.40745489631E+02  0.40745489711E+02  0.25500000000E-02 0. -1.
         11    1    1    2    0    0 -0.16702805452E+03  0.10365366544E+03  0.38683265597E+03  0.43391468871E+03  0.51100000000E-03 0. -1.
         22    1    1    2    0    0  0.62853458605E+00 -0.10618040803E+02  0.25235795216E+02  0.27385821266E+02  0.00000000000E+00 0. -1.
          2    1    1    2  501    0  0.16639951994E+03 -0.93035624632E+02  0.54719422006E+03  0.57945314060E+03  0.25500000000E-02 0. -1.
<mgrwt>
<rscale>  0 0.20143834E+03</rscale>
<asrwt>0</asrwt>
<pdfrwt beam="1">  1       11 0.10000000E+01 0.19657694E+03</pdfrwt>
<pdfrwt beam="2">  1        2 0.62685878E-02 0.20143834E+03</pdfrwt>
<totfact> 0.14059717E+03</totfact>
</mgrwt>
</event>
<event>
 5    1  0.6729100E-004  0.2833692E+03  0.7818608E-02  0.1093863E+00
         11   -1    0    0    0    0  0.00000000000E+00  0.00000000000E+00  0.10001027292E+04  0.10001027292E+04  0.51100000000E-03 0. -1.
          2   -1    0    0  501    0 -0.00000000000E+00 -0.00000000000E+00 -0.62993023990E+03  0.62993023991E+03  0.25500000000E-02 0. -1.
         11    1    1    2    0    0 -0.21332372290E+03 -0.18836122571E+03  0.88326883977E+03  0.92798211481E+03  0.51100000000E-03 0. -1.
         22    1    1    2    0    0 -0.69326408670E+01  0.10132717559E+02  0.60797914991E+02  0.62025155717E+02  0.00000000000E+00 0. -1.
          2    1    1    2  501    0  0.22025636377E+03  0.17822850815E+03 -0.57389426547E+03  0.64002569858E+03  0.25500000000E-02 0. -1.
<mgrwt>
<rscale>  0 0.28336921E+03</rscale>
<asrwt>0</asrwt>
<pdfrwt beam="1">  1       11 0.10000000E+01 0.12277356E+02</pdfrwt>
<pdfrwt beam="2">  1        2 0.96922298E-01 0.28336921E+03</pdfrwt>
<totfact> 0.59352615E+01</totfact>
</mgrwt>
</event>
<event>
 5    1  0.6729100E-004  0.8018263E+02  0.7818608E-02  0.1328534E+00
         11   -1    0    0    0    0  0.00000000000E+00  0.00000000000E+00  0.10002550352E+04  0.10002550352E+04  0.51100000000E-03 0. -1.
         -2   -1    0    0    0  501 -0.00000000000E+00 -0.00000000000E+00 -0.23266497915E+03  0.23266497917E+03  0.25500000000E-02 0.  1.
         11    1    1    2    0    0 -0.38478252049E+02  0.13521937051E+03  0.69712836233E+03  0.71116299651E+03  0.51100000000E-03 0. -1.
         22    1    1    2    0    0  0.52184109256E+02 -0.56701088040E+02  0.28376823496E+03  0.29404524450E+03  0.00000000000E+00 0.  1.
         -2    1    1    2    0  501 -0.13705857208E+02 -0.78518282475E+02 -0.21330654121E+03  0.22771177338E+03  0.25500000000E-02 0.  1.
<mgrwt>
<rscale>  0 0.80182625E+02</rscale>
<asrwt>0</asrwt>
<pdfrwt beam="1">  1       11 0.10000000E+01 0.77059682E+02</pdfrwt>
<pdfrwt beam="2">  1       -2 0.35803740E-01 0.80182625E+02</pdfrwt>
<totfact> 0.58640996E+01</totfact>
</mgrwt>
</event>
<event>
 5    1  0.6729100E-004  0.5385805E+03  0.7818608E-02  0.1004172E+00
         11   -1    0    0    0    0  0.00000000000E+00  0.00000000000E+00  0.10000756364E+04  0.10000756364E+04  0.51100000000E-03 0.  1.
          2   -1    0    0  501    0 -0.00000000000E+00 -0.00000000000E+00 -0.45952689458E+03  0.45952689458E+03  0.25500000000E-02 0.  1.
         11    1    1    2    0    0  0.37020697600E+03  0.34623811160E+03  0.37048083930E+02  0.50823871904E+03  0.51100000000E-03 0.  1.
         22    1    1    2    0    0  0.12502578891E+03 -0.22250721187E+02  0.29963883598E+03  0.32543812701E+03  0.00000000000E+00 0.  1.
          2    1    1    2  501    0 -0.49523276491E+03 -0.32398739041E+03  0.20386182187E+03  0.62592568489E+03  0.25500000000E-02 0.  1.
<mgrwt>
<rscale>  0 0.53858047E+03</rscale>
<asrwt>0</asrwt>
<pdfrwt beam="1">  1       11 0.10000000E+01 0.12699032E+03</pdfrwt>
<pdfrwt beam="2">  1        2 0.70701791E-01 0.53858047E+03</pdfrwt>
<totfact> 0.84411481E+01</totfact>
</mgrwt>
</event>
<event>
 5    1  0.6729100E-004  0.2287053E+03  0.7818608E-02  0.1127554E+00
         11   -1    0    0    0    0  0.00000000000E+00  0.00000000000E+00  0.10004452225E+04  0.10004452225E+04  0.51100000000E-03 0.  1.
          2   -1    0    0  501    0 -0.00000000000E+00 -0.00000000000E+00 -0.10900021563E+03  0.10900021566E+03  0.25500000000E-02 0.  1.
         11    1    1    2    0    0  0.15015753044E+03 -0.12560676536E+03  0.67061636601E+03  0.69860622228E+03  0.51100000000E-03 0.  1.
         22    1    1    2    0    0  0.68936382834E+02  0.31651582408E+02  0.13980204362E+03  0.15905552159E+03  0.00000000000E+00 0. -1.
          2    1    1    2  501    0 -0.21909391328E+03  0.93955182950E+02  0.81026597228E+02  0.25178369427E+03  0.25500000000E-02 0.  1.
<mgrwt>
<rscale>  0 0.22870529E+03</rscale>
<asrwt>0</asrwt>
<pdfrwt beam="1">  1       11 0.10000000E+01 0.75855438E+02</pdfrwt>
<pdfrwt beam="2">  1        2 0.16776730E-01 0.22870529E+03</pdfrwt>
<totfact> 0.41845228E+02</totfact>
</mgrwt>
</event>
<event>
 5    1  0.1682926E-003  0.1784649E+03  0.7818608E-02  0.1173755E+00
         11   -1    0    0    0    0  0.00000000000E+00  0.00000000000E+00  0.10010235048E+04  0.10010235048E+04  0.51100000000E-03 0. -1.
          2   -1    0    0  501    0 -0.00000000000E+00 -0.00000000000E+00 -0.13302398681E+04  0.13302398681E+04  0.25500000000E-02 0. -1.
         11    1    1    2    0    0  0.11851520435E+03 -0.11647817017E+03  0.91904518844E+03  0.93394704142E+03  0.51100000000E-03 0. -1.
         22    1    1    2    0    0 -0.14252803729E+01 -0.12210273819E+02  0.68254897969E+02  0.69353105970E+02  0.00000000000E+00 0.  1.
          2    1    1    2  501    0 -0.11708992398E+03  0.12868844398E+03 -0.13165164498E+04  0.13279632255E+04  0.25500000000E-02 0. -1.
<mgrwt>
<rscale>  0 0.17398496E+03</rscale>
<asrwt>0</asrwt>
<pdfrwt beam="1">  1       11 0.10000000E+01 0.17846491E+03</pdfrwt>
<pdfrwt beam="2">  1        2 0.20486174E+00 0.17398496E+03</pdfrwt>
<totfact> 0.21751605E+01</totfact>
</mgrwt>
</event>
<event>
 5    1  0.6729100E-004  0.1808705E+03  0.7818608E-02  0.1166963E+00
         11   -1    0    0    0    0  0.00000000000E+00  0.00000000000E+00  0.10002250326E+04  0.10002250326E+04  0.51100000000E-03 0.  1.
         -2   -1    0    0    0  501 -0.00000000000E+00 -0.00000000000E+00 -0.39740508343E+02  0.39740508425E+02  0.25500000000E-02 0.  1.
         11    1    1    2    0    0  0.13210697215E+03 -0.11083634054E+03  0.71223890919E+03  0.73281731028E+03  0.51100000000E-03 0.  1.
         22    1    1    2    0    0 -0.95449705167E+02  0.91496790887E+02  0.22105091720E+03  0.25757681758E+03  0.00000000000E+00 0.  1.
         -2    1    1    2    0  501 -0.36657266979E+02  0.19339549657E+02  0.27194697825E+02  0.49571413129E+02  0.25500000000E-02 0.  1.
<mgrwt>
<rscale>  0 0.18087053E+03</rscale>
<asrwt>0</asrwt>
<pdfrwt beam="1">  1       11 0.10000000E+01 0.17244404E+03</pdfrwt>
<pdfrwt beam="2">  1       -2 0.61153000E-02 0.18087053E+03</pdfrwt>
<totfact> 0.11143529E+03</totfact>
</mgrwt>
</event>
<event>
 5    1  0.6729100E-004  0.2904725E+03  0.7818608E-02  0.1090103E+00
         11   -1    0    0    0    0  0.00000000000E+00  0.00000000000E+00  0.10001625782E+04  0.10001625782E+04  0.51100000000E-03 0.  1.
          2   -1    0    0  501    0 -0.00000000000E+00 -0.00000000000E+00 -0.83384442056E+02  0.83384442095E+02  0.25500000000E-02 0.  1.
         11    1    1    2    0    0 -0.24753083791E+03 -0.14116731606E+03  0.50068558450E+03  0.57609528844E+03  0.51100000000E-03 0.  1.
         22    1    1    2    0    0  0.75986288542E+01  0.19827705972E+02  0.37590736417E+02  0.43173377780E+02  0.00000000000E+00 0. -1.
          2    1    1    2  501    0  0.23993220905E+03  0.12133961009E+03  0.37850181520E+03  0.46427835405E+03  0.25500000000E-02 0.  1.
<mgrwt>
<rscale>  0 0.29047246E+03</rscale>
<asrwt>0</asrwt>
<pdfrwt beam="1">  1       11 0.10000000E+01 0.28495566E+03</pdfrwt>
<pdfrwt beam="2">  1        2 0.12830461E-01 0.29047246E+03</pdfrwt>
<totfact> 0.58140907E+02</totfact>
</mgrwt>
</event>
<event>
 5    1  0.6729100E-004  0.1387748E+03  0.7818608E-02  0.1214987E+00
         11   -1    0    0    0    0  0.00000000000E+00  0.00000000000E+00  0.99993888618E+03  0.99993888618E+03  0.51100000000E-03 0. -1.
          2   -1    0    0  501    0 -0.00000000000E+00 -0.00000000000E+00 -0.24031427406E+02  0.24031427542E+02  0.25500000000E-02 0. -1.
         11    1    1    2    0    0 -0.10190866216E+03 -0.96181576158E+02  0.28760641139E+03  0.31992767759E+03  0.51100000000E-03 0. -1.
         22    1    1    2    0    0  0.10663964563E+02 -0.49164436686E+01  0.47476879129E+02  0.48907521000E+02  0.00000000000E+00 0.  1.
          2    1    1    2  501    0  0.91244697596E+02  0.10109801983E+03  0.64082416826E+03  0.65513511513E+03  0.25500000000E-02 0. -1.
<mgrwt>
<rscale>  0 0.13877484E+03</rscale>
<asrwt>0</asrwt>
<pdfrwt beam="1">  1       11 0.10000000E+01 0.11742724E+02</pdfrwt>
<pdfrwt beam="2">  1        2 0.36969166E-02 0.13877484E+03</pdfrwt>
<totfact> 0.27341816E+03</totfact>
</mgrwt>
</event>
<event>
 5    1  0.6729100E-004  0.1426954E+03  0.7818608E-02  0.1582229E+00
         11   -1    0    0    0    0  0.00000000000E+00  0.00000000000E+00  0.10002015964E+04  0.10002015964E+04  0.51100000000E-03 0. -1.
          2   -1    0    0  501    0 -0.00000000000E+00 -0.00000000000E+00 -0.58105004580E+02  0.58105004636E+02  0.25500000000E-02 0. -1.
         11    1    1    2    0    0  0.14381531068E+03  0.78132312247E+02  0.41293252514E+03  0.44418551543E+03  0.51100000000E-03 0. -1.
         22    1    1    2    0    0 -0.11739182127E+03 -0.61011651043E+02  0.55675447205E+03  0.57225763726E+03  0.00000000000E+00 0.  1.
          2    1    1    2  501    0 -0.26423489416E+02 -0.17120661205E+02 -0.27590405358E+02  0.41863448345E+02  0.25500000000E-02 0. -1.
<mgrwt>
<rscale>  0 0.31485200E+02</rscale>
<asrwt>0</asrwt>
<pdfrwt beam="1">  1       11 0.10000000E+01 0.14269539E+03</pdfrwt>
<pdfrwt beam="2">  1        2 0.89410333E-02 0.31485200E+02</pdfrwt>
<totfact> 0.78279567E+02</totfact>
</mgrwt>
</event>
<event>
 5    1  0.6729100E-004  0.7505757E+02  0.7818608E-02  0.1402470E+00
         11   -1    0    0    0    0  0.00000000000E+00  0.00000000000E+00  0.10003407828E+04  0.10003407828E+04  0.51100000000E-03 0. -1.
          2   -1    0    0  501    0 -0.00000000000E+00 -0.00000000000E+00 -0.18966499243E+02  0.18966499415E+02  0.25500000000E-02 0. -1.
         11    1    1    2    0    0  0.11364221804E+03 -0.11891035114E+02  0.23895564727E+03  0.26486931079E+03  0.51100000000E-03 0. -1.
         22    1    1    2    0    0 -0.56954615881E+02  0.27913644960E+02  0.22801999068E+03  0.23667724013E+03  0.00000000000E+00 0. -1.
          2    1    1    2  501    0 -0.56687602155E+02 -0.16022609845E+02  0.51439864556E+03  0.51776073125E+03  0.25500000000E-02 0. -1.
<mgrwt>
<rscale>  0 0.58908474E+02</rscale>
<asrwt>0</asrwt>
<pdfrwt beam="1">  1       11 0.10000000E+01 0.75057574E+02</pdfrwt>
<pdfrwt beam="2">  1        2 0.29189173E-02 0.58908474E+02</pdfrwt>
<totfact> 0.34028700E+03</totfact>
</mgrwt>
</event>
<event>
 5    1  0.6729100E-004  0.1588801E+03  0.7818608E-02  0.1189967E+00
         11   -1    0    0    0    0  0.00000000000E+00  0.00000000000E+00  0.10004843359E+04  0.10004843359E+04  0.51100000000E-03 0. -1.
          2   -1    0    0  501    0 -0.00000000000E+00 -0.00000000000E+00 -0.45454696991E+03  0.45454696992E+03  0.25500000000E-02 0. -1.
         11    1    1    2    0    0  0.28479275450E+02 -0.19567447219E+03  0.86824785008E+03  0.89047958840E+03  0.51100000000E-03 0. -1.
         22    1    1    2    0    0 -0.94676970424E+02  0.51387964295E+02  0.78603329510E+02  0.13335267156E+03  0.00000000000E+00 0.  1.
          2    1    1    2  501    0  0.66197694974E+02  0.14428650790E+03 -0.40091381361E+03  0.43119904584E+03  0.25500000000E-02 0. -1.
<mgrwt>
<rscale>  0 0.15888013E+03</rscale>
<asrwt>0</asrwt>
<pdfrwt beam="1">  1       11 0.10000000E+01 0.10772396E+03</pdfrwt>
<pdfrwt beam="2">  1        2 0.69964171E-01 0.15888013E+03</pdfrwt>
<totfact> 0.86753013E+01</totfact>
</mgrwt>
</event>
<event>
 5    1  0.6729100E-004  0.1299342E+03  0.7818608E-02  0.1311746E+00
         11   -1    0    0    0    0  0.00000000000E+00  0.00000000000E+00  0.10002596748E+04  0.10002596748E+04  0.51100000000E-03 0. -1.
         -2   -1    0    0    0  501 -0.00000000000E+00 -0.00000000000E+00 -0.81597952186E+02  0.81597952226E+02  0.25500000000E-02 0.  1.
         11    1    1    2    0    0 -0.81502789961E+02  0.13976279214E+03  0.43698282718E+03  0.46597246065E+03  0.51100000000E-03 0. -1.
         22    1    1    2    0    0  0.10721381819E+03 -0.57250182740E+02  0.51050889221E+03  0.52477777702E+03  0.00000000000E+00 0. -1.
         -2    1    1    2    0  501 -0.25711028232E+02 -0.82512609395E+02 -0.28829996738E+02  0.91107389384E+02  0.25500000000E-02 0.  1.
<mgrwt>
<rscale>  0 0.86425619E+02</rscale>
<asrwt>0</asrwt>
<pdfrwt beam="1">  1       11 0.10000000E+01 0.12993419E+03</pdfrwt>
<pdfrwt beam="2">  1       -2 0.12556791E-01 0.86425619E+02</pdfrwt>
<totfact> 0.34681672E+02</totfact>
</mgrwt>
</event>
<event>
 5    1  0.6729100E-004  0.3766591E+03  0.7818608E-02  0.1138050E+00
         11   -1    0    0    0    0  0.00000000000E+00  0.00000000000E+00  0.10005861581E+04  0.10005861581E+04  0.51100000000E-03 0.  1.
          2   -1    0    0  501    0 -0.00000000000E+00 -0.00000000000E+00 -0.16599850729E+04  0.16599850729E+04  0.25500000000E-02 0.  1.
         11    1    1    2    0    0  0.16401498839E+03  0.49446701071E+03  0.45452528087E+03  0.69136949025E+03  0.51100000000E-03 0.  1.
         22    1    1    2    0    0 -0.11607368535E+03 -0.28539185412E+03  0.36337775304E+03  0.47640844055E+03  0.00000000000E+00 0. -1.
          2    1    1    2  501    0 -0.47941303045E+02 -0.20907515659E+03 -0.14773019487E+04  0.14927933002E+04  0.25500000000E-02 0.  1.
<mgrwt>
<rscale>  0 0.21450126E+03</rscale>
<asrwt>0</asrwt>
<pdfrwt beam="1">  1       11 0.10000000E+01 0.37665912E+03</pdfrwt>
<pdfrwt beam="2">  1        2 0.25553201E+00 0.21450126E+03</pdfrwt>
<totfact> 0.14320563E+01</totfact>
</mgrwt>
</event>
<event>
 5    1  0.6729100E-004  0.1837996E+03  0.7818608E-02  0.1164176E+00
         11   -1    0    0    0    0  0.00000000000E+00  0.00000000000E+00  0.99980836059E+03  0.99980836059E+03  0.51100000000E-03 0. -1.
          2   -1    0    0  501    0 -0.00000000000E+00 -0.00000000000E+00 -0.32513473002E+03  0.32513473003E+03  0.25500000000E-02 0. -1.
         11    1    1    2    0    0  0.89986546259E+02  0.15908336787E+03  0.92171121603E+03  0.93965773673E+03  0.51100000000E-03 0. -1.
         22    1    1    2    0    0 -0.91467714784E+01  0.60269856879E+01  0.41631301206E+02  0.43048266226E+02  0.00000000000E+00 0.  1.
          2    1    1    2  501    0 -0.80839774781E+02 -0.16511035355E+03 -0.28866888667E+03  0.34223708767E+03  0.25500000000E-02 0. -1.
<mgrwt>
<rscale>  0 0.18379958E+03</rscale>
<asrwt>0</asrwt>
<pdfrwt beam="1">  1       11 0.10000000E+01 0.10953903E+02</pdfrwt>
<pdfrwt beam="2">  1        2 0.50011140E-01 0.18379958E+03</pdfrwt>
<totfact> 0.12443201E+02</totfact>
</mgrwt>
</event>
<event>
 5    1  0.6729100E-004  0.1344889E+03  0.7818608E-02  0.1371547E+00
         11   -1    0    0    0    0  0.00000000000E+00  0.00000000000E+00  0.10001327844E+04  0.10001327844E+04  0.51100000000E-03 0. -1.
          2   -1    0    0  501    0 -0.00000000000E+00 -0.00000000000E+00 -0.83100463873E+03  0.83100463873E+03  0.25500000000E-02 0. -1.
         11    1    1    2    0    0 -0.17060793999E+03  0.19000816392E+02  0.66104780866E+03  0.68297313676E+03  0.51100000000E-03 0. -1.
         22    1    1    2    0    0  0.10560675933E+03 -0.38694999537E+01  0.31820555034E+03  0.33529469562E+03  0.00000000000E+00 0. -1.
          2    1    1    2  501    0  0.65001180660E+02 -0.15131316439E+02 -0.81012521335E+03  0.81286959073E+03  0.25500000000E-02 0. -1.
<mgrwt>
<rscale>  0 0.66739121E+02</rscale>
<asrwt>0</asrwt>
<pdfrwt beam="1">  1       11 0.10000000E+01 0.13448892E+03</pdfrwt>
<pdfrwt beam="2">  1        2 0.12786384E+00 0.66739121E+02</pdfrwt>
<totfact> 0.44567664E+01</totfact>
</mgrwt>
</event>
<event>
 5    1  0.6729100E-004  0.1952350E+03  0.7818608E-02  0.1153823E+00
         11   -1    0    0    0    0  0.00000000000E+00  0.00000000000E+00  0.99981625601E+03  0.99981625601E+03  0.51100000000E-03 0.  1.
          2   -1    0    0  501    0 -0.00000000000E+00 -0.00000000000E+00 -0.80111460242E+02  0.80111460282E+02  0.25500000000E-02 0.  1.
         11    1    1    2    0    0 -0.12345531569E+03 -0.13473979516E+03  0.11486049147E+03  0.21584475874E+03  0.51100000000E-03 0.  1.
         22    1    1    2    0    0 -0.67006279326E+02 -0.16266959930E+02  0.22579799796E+03  0.23609148933E+03  0.00000000000E+00 0. -1.
          2    1    1    2  501    0  0.19046159502E+03  0.15100675509E+03  0.57904630634E+03  0.62799146822E+03  0.25500000000E-02 0.  1.
<mgrwt>
<rscale>  0 0.19523502E+03</rscale>
<asrwt>0</asrwt>
<pdfrwt beam="1">  1       11 0.10000000E+01 0.68952559E+02</pdfrwt>
<pdfrwt beam="2">  1        2 0.12322575E-01 0.19523502E+03</pdfrwt>
<totfact> 0.60063176E+02</totfact>
</mgrwt>
</event>
<event>
 5    1  0.6729100E-004  0.8427620E+02  0.7818608E-02  0.1529484E+00
         11   -1    0    0    0    0  0.00000000000E+00  0.00000000000E+00  0.99999305150E+03  0.99999305150E+03  0.51100000000E-03 0. -1.
          2   -1    0    0  501    0 -0.00000000000E+00 -0.00000000000E+00 -0.31564137061E+02  0.31564137164E+02  0.25500000000E-02 0.  1.
         11    1    1    2    0    0  0.52090770013E+02  0.66643696520E+02  0.48800992245E+03  0.49528629601E+03  0.51100000000E-03 0. -1.
         22    1    1    2    0    0 -0.78391539586E+02 -0.40265370465E+02  0.48995677367E+03  0.49781941867E+03  0.00000000000E+00 0. -1.
          2    1    1    2  501    0  0.26300769573E+02 -0.26378326055E+02 -0.95377816829E+01  0.38451473983E+02  0.25500000000E-02 0.  1.
<mgrwt>
<rscale>  0 0.37249786E+02</rscale>
<asrwt>0</asrwt>
<pdfrwt beam="1">  1       11 0.10000000E+01 0.84276203E+02</pdfrwt>
<pdfrwt beam="2">  1        2 0.48559872E-02 0.37249786E+02</pdfrwt>
<totfact> 0.16751884E+03</totfact>
</mgrwt>
</event>
<event>
 5    1  0.6729100E-004  0.3541149E+03  0.7818608E-02  0.1069592E+00
         11   -1    0    0    0    0  0.00000000000E+00  0.00000000000E+00  0.10003136810E+04  0.10003136810E+04  0.51100000000E-03 0.  1.
          2   -1    0    0  501    0 -0.00000000000E+00 -0.00000000000E+00 -0.70946364753E+03  0.70946364754E+03  0.25500000000E-02 0.  1.
         11    1    1    2    0    0  0.81784345505E+02  0.24468704759E+03  0.69173383229E+03  0.73827916479E+03  0.51100000000E-03 0.  1.
         22    1    1    2    0    0  0.85161198692E+02  0.44036845473E+02  0.23480921757E+03  0.25362776302E+03  0.00000000000E+00 0.  1.
          2    1    1    2  501    0 -0.16694554420E+03 -0.28872389306E+03 -0.63569301638E+03  0.71787040073E+03  0.25500000000E-02 0.  1.
<mgrwt>
<rscale>  0 0.33351507E+03</rscale>
<asrwt>0</asrwt>
<pdfrwt beam="1">  1       11 0.10000000E+01 0.35411485E+03</pdfrwt>
<pdfrwt beam="2">  1        2 0.10918249E+00 0.33351507E+03</pdfrwt>
<totfact> 0.51161262E+01</totfact>
</mgrwt>
</event>
<event>
 5    1  0.6729100E-004  0.2559666E+03  0.7818608E-02  0.1109591E+00
         11   -1    0    0    0    0  0.00000000000E+00  0.00000000000E+00  0.99991747087E+03  0.99991747087E+03  0.51100000000E-03 0. -1.
          2   -1    0    0  501    0 -0.00000000000E+00 -0.00000000000E+00 -0.74180375732E+02  0.74180375776E+02  0.25500000000E-02 0. -1.
         11    1    1    2    0    0  0.10012501999E+03  0.23013608882E+03  0.44831220188E+03  0.51378153855E+03  0.51100000000E-03 0. -1.
         22    1    1    2    0    0 -0.19786844011E+02  0.18231429339E+02  0.83701058829E+02  0.87919118858E+02  0.00000000000E+00 0.  1.
          2    1    1    2  501    0 -0.80338175975E+02 -0.24836751816E+03  0.39372383442E+03  0.47239718923E+03  0.25500000000E-02 0. -1.
<mgrwt>
<rscale>  0 0.25596664E+03</rscale>
<asrwt>0</asrwt>
<pdfrwt beam="1">  1       11 0.10000000E+01 0.26905468E+02</pdfrwt>
<pdfrwt beam="2">  1        2 0.11411423E-01 0.25596664E+03</pdfrwt>
<totfact> 0.66757670E+02</totfact>
</mgrwt>
</event>
<event>
 5    1  0.6729100E-004  0.1214478E+03  0.7818608E-02  0.1481868E+00
         11   -1    0    0    0    0  0.00000000000E+00  0.00000000000E+00  0.10002202303E+04  0.10002202303E+04  0.51100000000E-03 0. -1.
         -2   -1    0    0    0  501 -0.00000000000E+00 -0.00000000000E+00 -0.33685637349E+03  0.33685637350E+03  0.25500000000E-02 0.  1.
         11    1    1    2    0    0  0.49452327785E+02 -0.11691019478E+03  0.44685996152E+03  0.46453993540E+03  0.51100000000E-03 0. -1.
         22    1    1    2    0    0 -0.82415488510E+02  0.88043032507E+02  0.53633078398E+03  0.54972229186E+03  0.00000000000E+00 0. -1.
         -2    1    1    2    0  501  0.32963160725E+02  0.28867162274E+02 -0.31982688865E+03  0.32281437659E+03  0.25500000000E-02 0.  1.
<mgrwt>
<rscale>  0 0.43816470E+02</rscale>
<asrwt>0</asrwt>
<pdfrwt beam="1">  1       11 0.10000000E+01 0.12144776E+03</pdfrwt>
<pdfrwt beam="2">  1       -2 0.51835469E-01 0.43816470E+02</pdfrwt>
<totfact> 0.28957615E+01</totfact>
</mgrwt>
</event>
<event>
 5    1  0.6729100E-004  0.1614471E+03  0.7818608E-02  0.1710330E+00
         11   -1    0    0    0    0  0.00000000000E+00  0.00000000000E+00  0.10003663363E+04  0.10003663363E+04  0.51100000000E-03 0.  1.
          2   -1    0    0  501    0 -0.00000000000E+00 -0.00000000000E+00 -0.12741084324E+04  0.12741084324E+04  0.25500000000E-02 0.  1.
         11    1    1    2    0    0 -0.37850794831E+01 -0.15798914588E+03  0.29779625903E+03  0.33713129332E+03  0.51100000000E-03 0.  1.
         22    1    1    2    0    0  0.25360175025E+02  0.16163095338E+03  0.67300577854E+03  0.69260701810E+03  0.00000000000E+00 0.  1.
          2    1    1    2  501    0 -0.21575095542E+02 -0.36418074976E+01 -0.12445441336E+04  0.12447364573E+04  0.25500000000E-02 0.  1.
<mgrwt>
<rscale>  0 0.21880300E+02</rscale>
<asrwt>0</asrwt>
<pdfrwt beam="1">  1       11 0.10000000E+01 0.16144713E+03</pdfrwt>
<pdfrwt beam="2">  1        2 0.19608848E+00 0.21880300E+02</pdfrwt>
<totfact> 0.27071327E+01</totfact>
</mgrwt>
</event>
<event>
 5    1  0.6729100E-004  0.1664621E+03  0.7818608E-02  0.1481725E+00
         11   -1    0    0    0    0  0.00000000000E+00  0.00000000000E+00  0.10002826995E+04  0.10002826995E+04  0.51100000000E-03 0.  1.
          2   -1    0    0  501    0 -0.00000000000E+00 -0.00000000000E+00 -0.74749883535E+02  0.74749883579E+02  0.25500000000E-02 0.  1.
         11    1    1    2    0    0 -0.29258251507E+02 -0.16447944120E+03  0.87146119243E+03  0.88732978186E+03  0.51100000000E-03 0.  1.
         22    1    1    2    0    0  0.10936627098E+02  0.36986685837E+01  0.18831454291E+02  0.22088767106E+02  0.00000000000E+00 0.  1.
          2    1    1    2  501    0  0.18321624410E+02  0.16078077262E+03  0.35240169261E+02  0.16561403413E+03  0.25500000000E-02 0.  1.
<mgrwt>
<rscale>  0 0.43838639E+02</rscale>
<asrwt>0</asrwt>
<pdfrwt beam="1">  1       11 0.10000000E+01 0.16646211E+03</pdfrwt>
<pdfrwt beam="2">  1        2 0.11503233E-01 0.43838639E+02</pdfrwt>
<totfact> 0.59868747E+02</totfact>
</mgrwt>
</event>
<event>
 5    1  0.6729100E-004  0.3018906E+03  0.7818608E-02  0.1233115E+00
         11   -1    0    0    0    0  0.00000000000E+00  0.00000000000E+00  0.10001758223E+04  0.10001758223E+04  0.51100000000E-03 0. -1.
          2   -1    0    0  501    0 -0.00000000000E+00 -0.00000000000E+00 -0.19534376032E+03  0.19534376034E+03  0.25500000000E-02 0. -1.
         11    1    1    2    0    0  0.46842543937E+02 -0.23921354376E+03  0.27394447838E+03  0.36669186066E+03  0.51100000000E-03 0. -1.
         22    1    1    2    0    0 -0.90287328284E+02  0.35776223038E+03  0.58485345523E+03  0.69151947133E+03  0.00000000000E+00 0. -1.
          2    1    1    2  501    0  0.43444784347E+02 -0.11854868662E+03 -0.53965871635E+02  0.13730825064E+03  0.25500000000E-02 0. -1.
<mgrwt>
<rscale>  0 0.12625863E+03</rscale>
<asrwt>0</asrwt>
<pdfrwt beam="1">  1       11 0.10000000E+01 0.30189061E+03</pdfrwt>
<pdfrwt beam="2">  1        2 0.30058169E-01 0.12625863E+03</pdfrwt>
<totfact> 0.21382761E+02</totfact>
</mgrwt>
</event>
<event>
 5    1  0.6729100E-004  0.1970479E+03  0.7818608E-02  0.1152254E+00
         11   -1    0    0    0    0  0.00000000000E+00  0.00000000000E+00  0.10002913474E+04  0.10002913474E+04  0.51100000000E-03 0. -1.
         -2   -1    0    0    0  501 -0.00000000000E+00 -0.00000000000E+00 -0.57634470787E+02  0.57634470843E+02  0.25500000000E-02 0.  1.
         11    1    1    2    0    0  0.73323603568E+02  0.19069967999E+03  0.71524398963E+03  0.74385259527E+03  0.51100000000E-03 0. -1.
         22    1    1    2    0    0  0.70871143155E+01 -0.13179075325E+02  0.43922277280E+02  0.46401310943E+02  0.00000000000E+00 0. -1.
         -2    1    1    2    0  501 -0.80410717884E+02 -0.17752060466E+03  0.18349060967E+03  0.26767191200E+03  0.25500000000E-02 0.  1.
<mgrwt>
<rscale>  0 0.19704786E+03</rscale>
<asrwt>0</asrwt>
<pdfrwt beam="1">  1       11 0.10000000E+01 0.14963797E+02</pdfrwt>
<pdfrwt beam="2">  1       -2 0.88694247E-02 0.19704786E+03</pdfrwt>
<totfact> 0.63021072E+02</totfact>
</mgrwt>
</event>
<event>
 5    1  0.6729100E-004  0.2197401E+03  0.7818608E-02  0.1134077E+00
         11   -1    0    0    0    0  0.00000000000E+00  0.00000000000E+00  0.10003609919E+04  0.10003609919E+04  0.51100000000E-03 0. -1.
         -2   -1    0    0    0  501 -0.00000000000E+00 -0.00000000000E+00 -0.45503785191E+03  0.45503785191E+03  0.25500000000E-02 0.  1.
         11    1    1    2    0    0  0.22499565094E+03  0.13009208481E+03  0.85773192875E+03  0.89624274339E+03  0.51100000000E-03 0. -1.
         22    1    1    2    0    0 -0.12598109865E+02 -0.77729424612E+02  0.78507745271E+02  0.11119371336E+03  0.00000000000E+00 0. -1.
         -2    1    1    2    0  501 -0.21239754108E+03 -0.52362660202E+02 -0.39091653403E+03  0.44796238707E+03  0.25500000000E-02 0.  1.
<mgrwt>
<rscale>  0 0.21974007E+03</rscale>
<asrwt>0</asrwt>
<pdfrwt beam="1">  1       11 0.10000000E+01 0.78743735E+02</pdfrwt>
<pdfrwt beam="2">  1       -2 0.70031093E-01 0.21974007E+03</pdfrwt>
<totfact> 0.15518062E+01</totfact>
</mgrwt>
</event>
<event>
 5    1  0.6729100E-004  0.9900723E+02  0.7818608E-02  0.1282398E+00
         11   -1    0    0    0    0  0.00000000000E+00  0.00000000000E+00  0.10002295796E+04  0.10002295796E+04  0.51100000000E-03 0.  1.
          2   -1    0    0  501    0 -0.00000000000E+00 -0.00000000000E+00 -0.99689544625E+01  0.99689547886E+01  0.25500000000E-02 0.  1.
         11    1    1    2    0    0 -0.89461967823E+02 -0.30049866383E+02  0.35787073514E+03  0.37010525696E+03  0.51100000000E-03 0.  1.
         22    1    1    2    0    0  0.11699459450E+02  0.16146769606E+02  0.11794432752E+03  0.11961797488E+03  0.00000000000E+00 0. -1.
          2    1    1    2  501    0  0.77762508373E+02  0.13903096778E+02  0.51444556243E+03  0.52047530251E+03  0.25500000000E-02 0.  1.
<mgrwt>
<rscale>  0 0.99007226E+02</rscale>
<asrwt>0</asrwt>
<pdfrwt beam="1">  1       11 0.10000000E+01 0.94373975E+02</pdfrwt>
<pdfrwt beam="2">  1        2 0.15340374E-02 0.99007226E+02</pdfrwt>
<totfact> 0.86186922E+03</totfact>
</mgrwt>
</event>
<event>
 5    1  0.6729100E-004  0.3299845E+03  0.7818608E-02  0.1071144E+00
         11   -1    0    0    0    0  0.00000000000E+00  0.00000000000E+00  0.10001496960E+04  0.10001496960E+04  0.51100000000E-03 0. -1.
          2   -1    0    0  501    0 -0.00000000000E+00 -0.00000000000E+00 -0.17723696508E+03  0.17723696510E+03  0.25500000000E-02 0. -1.
         11    1    1    2    0    0 -0.19689284310E+03  0.26117403080E+03  0.73332616980E+03  0.80296073213E+03  0.51100000000E-03 0. -1.
         22    1    1    2    0    0  0.15134158109E+02  0.15299033637E+02  0.32031957510E+02  0.38589499528E+02  0.00000000000E+00 0.  1.
          2    1    1    2  501    0  0.18175868499E+03 -0.27647306443E+03  0.57554603597E+02  0.33583642942E+03  0.25500000000E-02 0. -1.
<mgrwt>
<rscale>  0 0.32998453E+03</rscale>
<asrwt>0</asrwt>
<pdfrwt beam="1">  1       11 0.10000000E+01 0.21519832E+02</pdfrwt>
<pdfrwt beam="2">  1        2 0.27271306E-01 0.32998453E+03</pdfrwt>
<totfact> 0.24209557E+02</totfact>
</mgrwt>
</event>
<event>
 5    1  0.6729100E-004  0.1487789E+03  0.7818608E-02  0.1249120E+00
         11   -1    0    0    0    0  0.00000000000E+00  0.00000000000E+00  0.10001591115E+04  0.10001591115E+04  0.51100000000E-03 0. -1.
          2   -1    0    0  501    0 -0.00000000000E+00 -0.00000000000E+00 -0.23868299893E+03  0.23868299895E+03  0.25500000000E-02 0. -1.
         11    1    1    2    0    0  0.44902722948E+02  0.21066289974E+03  0.13718568495E+03  0.25537232428E+03  0.51100000000E-03 0. -1.
         22    1    1    2    0    0  0.45169406608E+02 -0.13689991991E+03  0.77766509334E+03  0.79091394018E+03  0.00000000000E+00 0. -1.
          2    1    1    2  501    0 -0.90072129556E+02 -0.73762979830E+02 -0.15337466575E+03  0.19255584597E+03  0.25500000000E-02 0. -1.
<mgrwt>
<rscale>  0 0.11642150E+03</rscale>
<asrwt>0</asrwt>
<pdfrwt beam="1">  1       11 0.10000000E+01 0.14877894E+03</pdfrwt>
<pdfrwt beam="2">  1        2 0.36726303E-01 0.11642150E+03</pdfrwt>
<totfact> 0.17229256E+02</totfact>
</mgrwt>
</event>
<event>
 5    1  0.6729100E-004  0.3439278E+03  0.7818608E-02  0.1066887E+00
         11   -1    0    0    0    0  0.00000000000E+00  0.00000000000E+00  0.10002967852E+04  0.10002967852E+04  0.51100000000E-03 0. -1.
          2   -1    0    0  501    0 -0.00000000000E+00 -0.00000000000E+00 -0.93810216642E+03  0.93810216642E+03  0.25500000000E-02 0.  1.
         11    1    1    2    0    0  0.22525959584E+03 -0.22350741191E+03  0.84103877309E+03  0.89891249104E+03  0.51100000000E-03 0. -1.
         22    1    1    2    0    0  0.23945915771E+02 -0.74712744024E+01  0.96921165519E+02  0.10011463004E+03  0.00000000000E+00 0. -1.
          2    1    1    2  501    0 -0.24920551161E+03  0.23097868631E+03 -0.87576531984E+03  0.93937183053E+03  0.25500000000E-02 0.  1.
<mgrwt>
<rscale>  0 0.33978602E+03</rscale>
<asrwt>0</asrwt>
<pdfrwt beam="1">  1       11 0.10000000E+01 0.34392782E+03</pdfrwt>
<pdfrwt beam="2">  1        2 0.14436624E+00 0.33978602E+03</pdfrwt>
<totfact> 0.35532067E+01</totfact>
</mgrwt>
</event>
<event>
 5    1  0.6729100E-004  0.1414176E+03  0.7818608E-02  0.1211434E+00
         11   -1    0    0    0    0  0.00000000000E+00  0.00000000000E+00  0.10001492782E+04  0.10001492782E+04  0.51100000000E-03 0. -1.
          2   -1    0    0  501    0 -0.00000000000E+00 -0.00000000000E+00 -0.62765551878E+03  0.62765551878E+03  0.25500000000E-02 0. -1.
         11    1    1    2    0    0 -0.16521944092E+03  0.48979820769E+02  0.78799494925E+03  0.80661795576E+03  0.51100000000E-03 0. -1.
         22    1    1    2    0    0  0.34615976463E+02  0.44589344176E+01  0.19320793087E+03  0.19633505156E+03  0.00000000000E+00 0.  1.
          2    1    1    2  501    0  0.13060346446E+03 -0.53438755187E+02 -0.60870912067E+03  0.62485178969E+03  0.25500000000E-02 0. -1.
<mgrwt>
<rscale>  0 0.14141757E+03</rscale>
<asrwt>0</asrwt>
<pdfrwt beam="1">  1       11 0.10000000E+01 0.34901976E+02</pdfrwt>
<pdfrwt beam="2">  1        2 0.96576799E-01 0.14141757E+03</pdfrwt>
<totfact> 0.60650291E+01</totfact>
</mgrwt>
</event>
<event>
 5    1  0.1075035E-003  0.1720031E+03  0.7818608E-02  0.1175775E+00
         11   -1    0    0    0    0  0.00000000000E+00  0.00000000000E+00  0.10000475617E+04  0.10000475617E+04  0.51100000000E-03 0.  1.
          2   -1    0    0  501    0 -0.00000000000E+00 -0.00000000000E+00 -0.12555487352E+04  0.12555487352E+04  0.25500000000E-02 0. -1.
         11    1    1    2    0    0  0.14588961495E+03 -0.11202141242E+03  0.92824639484E+03  0.94629485158E+03  0.51100000000E-03 0.  1.
         22    1    1    2    0    0 -0.12769743103E+02  0.32170602956E+01  0.56082298520E+02  0.57607638584E+02  0.00000000000E+00 0.  1.
          2    1    1    2  501    0 -0.13311987185E+03  0.10880435212E+03 -0.12398298668E+04  0.12516938068E+04  0.25500000000E-02 0. -1.
<mgrwt>
<rscale>  0 0.17200314E+03</rscale>
<asrwt>0</asrwt>
<pdfrwt beam="1">  1       11 0.10000000E+01 0.13168744E+02</pdfrwt>
<pdfrwt beam="2">  1        2 0.19317053E+00 0.17200314E+03</pdfrwt>
<totfact> 0.23949606E+01</totfact>
</mgrwt>
</event>
<event>
 5    1  0.6729100E-004  0.1161669E+03  0.7818608E-02  0.1249558E+00
         11   -1    0    0    0    0  0.00000000000E+00  0.00000000000E+00  0.99983375342E+03  0.99983375342E+03  0.51100000000E-03 0. -1.
          2   -1    0    0  501    0 -0.00000000000E+00 -0.00000000000E+00 -0.55857379024E+03  0.55857379025E+03  0.25500000000E-02 0. -1.
         11    1    1    2    0    0  0.98208719659E+02 -0.23113197223E+02  0.53678959280E+03  0.54618883131E+03  0.51100000000E-03 0. -1.
         22    1    1    2    0    0 -0.16853909283E+03 -0.68626762175E+02  0.43379538452E+03  0.47041842431E+03  0.00000000000E+00 0.  1.
          2    1    1    2  501    0  0.70330373167E+02  0.91739959398E+02 -0.52932501414E+03  0.54180028806E+03  0.25500000000E-02 0. -1.
<mgrwt>
<rscale>  0 0.11616694E+03</rscale>
<asrwt>0</asrwt>
<pdfrwt beam="1">  1       11 0.10000000E+01 0.10089189E+03</pdfrwt>
<pdfrwt beam="2">  1        2 0.85920141E-01 0.11616694E+03</pdfrwt>
<totfact> 0.69534678E+01</totfact>
</mgrwt>
</event>
<event>
 5    1  0.6729100E-004  0.2148729E+03  0.7818608E-02  0.1363147E+00
         11   -1    0    0    0    0  0.00000000000E+00  0.00000000000E+00  0.10001237090E+04  0.10001237090E+04  0.51100000000E-03 0.  1.
          2   -1    0    0  501    0 -0.00000000000E+00 -0.00000000000E+00 -0.80813595831E+02  0.80813595872E+02  0.25500000000E-02 0.  1.
         11    1    1    2    0    0 -0.17520122990E+03 -0.11982642685E+03  0.74427513728E+03  0.77395046580E+03  0.51100000000E-03 0.  1.
         22    1    1    2    0    0 -0.21109793260E+02  0.69605697029E+01  0.32650350057E+02  0.39498332381E+02  0.00000000000E+00 0.  1.
          2    1    1    2  501    0  0.19631102316E+03  0.11286585715E+03  0.14238462578E+03  0.26748850664E+03  0.25500000000E-02 0.  1.
<mgrwt>
<rscale>  0 0.69109635E+02</rscale>
<asrwt>0</asrwt>
<pdfrwt beam="1">  1       11 0.10000000E+01 0.21487292E+03</pdfrwt>
<pdfrwt beam="2">  1        2 0.12434399E-01 0.69109635E+02</pdfrwt>
<totfact> 0.56320233E+02</totfact>
</mgrwt>
</event>
<event>
 5    1  0.6729100E-004  0.2118660E+03  0.7818608E-02  0.1273308E+00
         11   -1    0    0    0    0  0.00000000000E+00  0.00000000000E+00  0.10014083264E+04  0.10014083264E+04  0.51100000000E-03 0. -1.
          2   -1    0    0  501    0 -0.00000000000E+00 -0.00000000000E+00 -0.19529953431E+04  0.19529953431E+04  0.25500000000E-02 0. -1.
         11    1    1    2    0    0 -0.12445240096E+02  0.28754923746E+03  0.11198154916E+03  0.30883541785E+03  0.51100000000E-03 0. -1.
         22    1    1    2    0    0  0.57454381099E+02 -0.19446124552E+03  0.77652956568E+03  0.80256734813E+03  0.00000000000E+00 0. -1.
          2    1    1    2  501    0 -0.45009141003E+02 -0.93087991942E+02 -0.18400981315E+04  0.18430009036E+04  0.25500000000E-02 0. -1.
<mgrwt>
<rscale>  0 0.10339824E+03</rscale>
<asrwt>0</asrwt>
<pdfrwt beam="1">  1       11 0.10000000E+01 0.21186596E+03</pdfrwt>
<pdfrwt beam="2">  1        2 0.30088396E+00 0.10339824E+03</pdfrwt>
<totfact> 0.10827171E+01</totfact>
</mgrwt>
</event>
<event>
 5    1  0.6729100E-004  0.2248973E+03  0.7818608E-02  0.1130284E+00
         11   -1    0    0    0    0  0.00000000000E+00  0.00000000000E+00  0.10002020470E+04  0.10002020470E+04  0.51100000000E-03 0.  1.
          2   -1    0    0  501    0 -0.00000000000E+00 -0.00000000000E+00 -0.49027575872E+02  0.49027575938E+02  0.25500000000E-02 0.  1.
         11    1    1    2    0    0 -0.51979219643E+02 -0.21141077861E+03  0.44909483323E+03  0.49908168251E+03  0.51100000000E-03 0.  1.
         22    1    1    2    0    0 -0.10842237167E+02  0.18579547637E+02  0.37517375493E+02  0.43247048004E+02  0.00000000000E+00 0. -1.
          2    1    1    2  501    0  0.62821456811E+02  0.19283123098E+03  0.46456226239E+03  0.50690089240E+03  0.25500000000E-02 0.  1.
<mgrwt>
<rscale>  0 0.22489730E+03</rscale>
<asrwt>0</asrwt>
<pdfrwt beam="1">  1       11 0.10000000E+01 0.21770715E+03</pdfrwt>
<pdfrwt beam="2">  1        2 0.75442278E-02 0.22489730E+03</pdfrwt>
<totfact> 0.11150799E+03</totfact>
</mgrwt>
</event>
<event>
 5    1  0.6729100E-004  0.1272906E+03  0.7818608E-02  0.1241625E+00
         11   -1    0    0    0    0  0.00000000000E+00  0.00000000000E+00  0.10000649935E+04  0.10000649935E+04  0.51100000000E-03 0. -1.
          2   -1    0    0  501    0 -0.00000000000E+00 -0.00000000000E+00 -0.16936239360E+02  0.16936239552E+02  0.25500000000E-02 0. -1.
         11    1    1    2    0    0 -0.83888871715E+02 -0.60942772540E+02  0.56341444763E+03  0.57287625550E+03  0.51100000000E-03 0. -1.
         22    1    1    2    0    0 -0.35270934793E+01 -0.22570736352E+02  0.92852411223E+02  0.95621382534E+02  0.00000000000E+00 0. -1.
          2    1    1    2  501    0  0.87415965194E+02  0.83513508892E+02  0.32686189525E+03  0.34850359498E+03  0.25500000000E-02 0. -1.
<mgrwt>
<rscale>  0 0.12089689E+03</rscale>
<asrwt>0</asrwt>
<pdfrwt beam="1">  1       11 0.10000000E+01 0.12729062E+03</pdfrwt>
<pdfrwt beam="2">  1        2 0.26057446E-02 0.12089689E+03</pdfrwt>
<totfact> 0.43078853E+03</totfact>
</mgrwt>
</event>
<event>
 5    1  0.6729100E-004  0.1728866E+03  0.7818608E-02  0.1174871E+00
         11   -1    0    0    0    0  0.00000000000E+00  0.00000000000E+00  0.99999580711E+03  0.99999580711E+03  0.51100000000E-03 0. -1.
          2   -1    0    0  501    0 -0.00000000000E+00 -0.00000000000E+00 -0.72267194573E+02  0.72267194618E+02  0.25500000000E-02 0. -1.
         11    1    1    2    0    0  0.16768031911E+03 -0.27624248172E+02  0.80737455573E+03  0.82506573178E+03  0.51100000000E-03 0. -1.
         22    1    1    2    0    0 -0.36581576581E+00 -0.18066225978E+02  0.61410770794E+02  0.64014100882E+02  0.00000000000E+00 0.  1.
          2    1    1    2  501    0 -0.16731450335E+03  0.45690474150E+02  0.58943286012E+02  0.18318316907E+03  0.25500000000E-02 0. -1.
<mgrwt>
<rscale>  0 0.17288662E+03</rscale>
<asrwt>0</asrwt>
<pdfrwt beam="1">  1       11 0.10000000E+01 0.18069929E+02</pdfrwt>
<pdfrwt beam="2">  1        2 0.11117983E-01 0.17288662E+03</pdfrwt>
<totfact> 0.67675384E+02</totfact>
</mgrwt>
</event>
<event>
 5    1  0.6729100E-004  0.3787160E+03  0.7818608E-02  0.1052894E+00
         11   -1    0    0    0    0  0.00000000000E+00  0.00000000000E+00  0.10003098165E+04  0.10003098165E+04  0.51100000000E-03 0. -1.
          2   -1    0    0  501    0 -0.00000000000E+00 -0.00000000000E+00 -0.14952907084E+03  0.14952907086E+03  0.25500000000E-02 0. -1.
         11    1    1    2    0    0 -0.13082379855E+03 -0.33371487669E+03  0.50817264079E+03  0.62186808733E+03  0.51100000000E-03 0. -1.
         22    1    1    2    0    0 -0.22607622306E+01 -0.16601723699E+02  0.49361390487E+02  0.52127489355E+02  0.00000000000E+00 0. -1.
          2    1    1    2  501    0  0.13308456078E+03  0.35031660038E+03  0.29324671441E+03  0.47584331070E+03  0.25500000000E-02 0. -1.
<mgrwt>
<rscale>  0 0.37474421E+03</rscale>
<asrwt>0</asrwt>
<pdfrwt beam="1">  1       11 0.10000000E+01 0.37871604E+03</pdfrwt>
<pdfrwt beam="2">  1        2 0.23011599E-01 0.37474421E+03</pdfrwt>
<totfact> 0.29407451E+02</totfact>
</mgrwt>
</event>
<event>
 5    1  0.6729100E-004  0.2266771E+03  0.7818608E-02  0.1324515E+00
         11   -1    0    0    0    0  0.00000000000E+00  0.00000000000E+00  0.99992593974E+03  0.99992593974E+03  0.51100000000E-03 0. -1.
          2   -1    0    0  501    0 -0.00000000000E+00 -0.00000000000E+00 -0.29338565969E+03  0.29338565970E+03  0.25500000000E-02 0. -1.
         11    1    1    2    0    0  0.17745884016E+03 -0.11659575174E+03  0.21554943395E+03  0.30256861660E+03  0.51100000000E-03 0. -1.
         22    1    1    2    0    0 -0.14174926928E+03  0.18999008569E+03  0.71450145411E+03  0.75279573321E+03  0.00000000000E+00 0. -1.
          2    1    1    2  501    0 -0.35709570879E+02 -0.73394333949E+02 -0.22351060802E+03  0.23794724964E+03  0.25500000000E-02 0. -1.
<mgrwt>
<rscale>  0 0.81620474E+02</rscale>
<asrwt>0</asrwt>
<pdfrwt beam="1">  1       11 0.10000000E+01 0.22667708E+03</pdfrwt>
<pdfrwt beam="2">  1        2 0.45132911E-01 0.81620474E+02</pdfrwt>
<totfact> 0.13818680E+02</totfact>
</mgrwt>
</event>
<event>
 5    1  0.6729100E-004  0.3597974E+03  0.7818608E-02  0.1066013E+00
         11   -1    0    0    0    0  0.00000000000E+00  0.00000000000E+00  0.10004429976E+04  0.10004429976E+04  0.51100000000E-03 0.  1.
          2   -1    0    0  501    0 -0.00000000000E+00 -0.00000000000E+00 -0.28947558904E+03  0.28947558906E+03  0.25500000000E-02 0.  1.
         11    1    1    2    0    0  0.12988387920E+03  0.24519289932E+03  0.68164823093E+03  0.73595766908E+03  0.51100000000E-03 0.  1.
         22    1    1    2    0    0  0.76819340079E+02  0.27077932048E+02  0.16670681320E+03  0.18554133496E+03  0.00000000000E+00 0.  1.
          2    1    1    2  501    0 -0.20670321928E+03 -0.27227083137E+03 -0.13738763553E+03  0.36841958265E+03  0.25500000000E-02 0.  1.
<mgrwt>
<rscale>  0 0.34184445E+03</rscale>
<asrwt>0</asrwt>
<pdfrwt beam="1">  1       11 0.10000000E+01 0.35979735E+03</pdfrwt>
<pdfrwt beam="2">  1        2 0.44554434E-01 0.34184445E+03</pdfrwt>
<totfact> 0.14105932E+02</totfact>
</mgrwt>
</event>
<event>
 5    1  0.6729100E-004  0.2324069E+03  0.7818608E-02  0.1124957E+00
         11   -1    0    0    0    0  0.00000000000E+00  0.00000000000E+00  0.10002079167E+04  0.10002079167E+04  0.51100000000E-03 0. -1.
         -2   -1    0    0    0  501 -0.00000000000E+00 -0.00000000000E+00 -0.17165955192E+03  0.17165955194E+03  0.25500000000E-02 0. -1.
         11    1    1    2    0    0 -0.14762635008E+03  0.49014268605E+02  0.55073748353E+03  0.57228289642E+03  0.51100000000E-03 0. -1.
         22    1    1    2    0    0 -0.97942949840E+02 -0.99508075399E+02  0.31648218949E+03  0.34591278490E+03  0.00000000000E+00 0. -1.
         -2    1    1    2    0  501  0.24556929992E+03  0.50493806794E+02 -0.38671308262E+02  0.25367178731E+03  0.25500000000E-02 0. -1.
<mgrwt>
<rscale>  0 0.23240691E+03</rscale>
<asrwt>0</asrwt>
<pdfrwt beam="1">  1       11 0.10000000E+01 0.13962335E+03</pdfrwt>
<pdfrwt beam="2">  1       -2 0.26414652E-01 0.23240691E+03</pdfrwt>
<totfact> 0.10345783E+02</totfact>
</mgrwt>
</event>
<event>
 5    1  0.6729100E-004  0.2468900E+03  0.7818608E-02  0.1115286E+00
         11   -1    0    0    0    0  0.00000000000E+00  0.00000000000E+00  0.10002300627E+04  0.10002300627E+04  0.51100000000E-03 0. -1.
          2   -1    0    0  501    0 -0.00000000000E+00 -0.00000000000E+00 -0.13017794734E+03  0.13017794736E+03  0.25500000000E-02 0. -1.
         11    1    1    2    0    0 -0.39038458864E+02  0.24643778029E+03  0.77234525905E+03  0.81164818733E+03  0.51100000000E-03 0. -1.
         22    1    1    2    0    0 -0.13015339483E+02 -0.55071029199E+01  0.69198568656E+02  0.70626971821E+02  0.00000000000E+00 0. -1.
          2    1    1    2  501    0  0.52053798347E+02 -0.24093067737E+03  0.28508287646E+02  0.24813285090E+03  0.25500000000E-02 0. -1.
<mgrwt>
<rscale>  0 0.24689004E+03</rscale>
<asrwt>0</asrwt>
<pdfrwt beam="1">  1       11 0.10000000E+01 0.14132489E+02</pdfrwt>
<pdfrwt beam="2">  1        2 0.20031983E-01 0.24689004E+03</pdfrwt>
<totfact> 0.34139606E+02</totfact>
</mgrwt>
</event>
<event>
 5    1  0.6729100E-004  0.2430078E+03  0.7818608E-02  0.1117805E+00
         11   -1    0    0    0    0  0.00000000000E+00  0.00000000000E+00  0.10001021597E+04  0.10001021597E+04  0.51100000000E-03 0.  1.
          2   -1    0    0  501    0 -0.00000000000E+00 -0.00000000000E+00 -0.21835563818E+03  0.21835563820E+03  0.25500000000E-02 0.  1.
         11    1    1    2    0    0  0.12755366290E+03 -0.20439384360E+03  0.81369479392E+03  0.84861416314E+03  0.51100000000E-03 0.  1.
         22    1    1    2    0    0  0.18378423837E+02  0.97616388471E+01  0.93743590384E+02  0.96025604886E+02  0.00000000000E+00 0.  1.
          2    1    1    2  501    0 -0.14593208674E+03  0.19463220475E+03 -0.12569186284E+03  0.27381802983E+03  0.25500000000E-02 0.  1.
<mgrwt>
<rscale>  0 0.24300780E+03</rscale>
<asrwt>0</asrwt>
<pdfrwt beam="1">  1       11 0.10000000E+01 0.20809999E+02</pdfrwt>
<pdfrwt beam="2">  1        2 0.33596606E-01 0.24300780E+03</pdfrwt>
<totfact> 0.19142596E+02</totfact>
</mgrwt>
</event>
<event>
 5    1  0.6729100E-004  0.9897489E+02  0.7818608E-02  0.1345580E+00
         11   -1    0    0    0    0  0.00000000000E+00  0.00000000000E+00  0.99999711364E+03  0.99999711364E+03  0.51100000000E-03 0. -1.
          2   -1    0    0  501    0 -0.00000000000E+00 -0.00000000000E+00 -0.50289796826E+02  0.50289796891E+02  0.25500000000E-02 0. -1.
         11    1    1    2    0    0  0.16893564326E+02 -0.11893484566E+03  0.49465101852E+03  0.50902899735E+03  0.51100000000E-03 0. -1.
         22    1    1    2    0    0 -0.68345213431E+02  0.65123376570E+02  0.45713192480E+03  0.46677801903E+03  0.00000000000E+00 0. -1.
          2    1    1    2  501    0  0.51451649105E+02  0.53811469087E+02 -0.20756265023E+01  0.74479894151E+02  0.25500000000E-02 0. -1.
<mgrwt>
<rscale>  0 0.74450966E+02</rscale>
<asrwt>0</asrwt>
<pdfrwt beam="1">  1       11 0.10000000E+01 0.98974891E+02</pdfrwt>
<pdfrwt beam="2">  1        2 0.77368693E-02 0.74450966E+02</pdfrwt>
<totfact> 0.10026009E+03</totfact>
</mgrwt>
</event>
<event>
 5    1  0.6729100E-004  0.4089695E+03  0.7818608E-02  0.1040717E+00
         11   -1    0    0    0    0  0.00000000000E+00  0.00000000000E+00  0.10002187650E+04  0.10002187650E+04  0.51100000000E-03 0. -1.
          2   -1    0    0  501    0 -0.00000000000E+00 -0.00000000000E+00 -0.15003281475E+04  0.15003281475E+04  0.25500000000E-02 0. -1.
         11    1    1    2    0    0  0.36183663648E+03 -0.15373277967E+03  0.81436081606E+03  0.90429146727E+03  0.51100000000E-03 0. -1.
         22    1    1    2    0    0  0.20385757905E+02  0.67533505732E+01  0.11103669270E+03  0.11309435881E+03  0.00000000000E+00 0.  1.
          2    1    1    2  501    0 -0.38222239438E+03  0.14697942910E+03 -0.14255068913E+04  0.14831610865E+04  0.25500000000E-02 0. -1.
<mgrwt>
<rscale>  0 0.40896947E+03</rscale>
<asrwt>0</asrwt>
<pdfrwt beam="1">  1       11 0.10000000E+01 0.21475262E+02</pdfrwt>
<pdfrwt beam="2">  1        2 0.23087020E+00 0.40896947E+03</pdfrwt>
<totfact> 0.16589002E+01</totfact>
</mgrwt>
</event>
<event>
 5    1  0.6729100E-004  0.4562563E+03  0.7818608E-02  0.1025873E+00
         11   -1    0    0    0    0  0.00000000000E+00  0.00000000000E+00  0.99988101981E+03  0.99988101981E+03  0.51100000000E-03 0. -1.
         -2   -1    0    0    0  501 -0.00000000000E+00 -0.00000000000E+00 -0.58653765323E+03  0.58653765324E+03  0.25500000000E-02 0.  1.
         11    1    1    2    0    0 -0.19395358627E+03 -0.42219118536E+03  0.76849534673E+03  0.89802477058E+03  0.51100000000E-03 0. -1.
         22    1    1    2    0    0 -0.16583493538E+01  0.11093296615E+02  0.66755660416E+02  0.67691428925E+02  0.00000000000E+00 0. -1.
         -2    1    1    2    0  501  0.19561193563E+03  0.41109788875E+03 -0.42190764057E+03  0.62070247355E+03  0.25500000000E-02 0.  1.
<mgrwt>
<rscale>  0 0.45625633E+03</rscale>
<asrwt>0</asrwt>
<pdfrwt beam="1">  1       11 0.10000000E+01 0.11216566E+02</pdfrwt>
<pdfrwt beam="2">  1       -2 0.90225823E-01 0.45625633E+03</pdfrwt>
<totfact> 0.87076935E+00</totfact>
</mgrwt>
</event>
<event>
 5    1  0.6729100E-004  0.2108492E+03  0.7818608E-02  0.1146202E+00
         11   -1    0    0    0    0  0.00000000000E+00  0.00000000000E+00  0.10004874497E+04  0.10004874497E+04  0.51100000000E-03 0. -1.
          2   -1    0    0  501    0 -0.00000000000E+00 -0.00000000000E+00 -0.78499015275E+02  0.78499015316E+02  0.25500000000E-02 0. -1.
         11    1    1    2    0    0 -0.92619599108E+01  0.16832369003E+03  0.61706877309E+03  0.63968157645E+03  0.51100000000E-03 0. -1.
         22    1    1    2    0    0 -0.22523248371E+02  0.33438135885E+02  0.21042994946E+03  0.21425725024E+03  0.00000000000E+00 0. -1.
          2    1    1    2  501    0  0.31785208282E+02 -0.20176182592E+03  0.94489711877E+02  0.22504763833E+03  0.25500000000E-02 0. -1.
<mgrwt>
<rscale>  0 0.20425017E+03</rscale>
<asrwt>0</asrwt>
<pdfrwt beam="1">  1       11 0.10000000E+01 0.21084920E+03</pdfrwt>
<pdfrwt beam="2">  1        2 0.12082658E-01 0.20425017E+03</pdfrwt>
<totfact> 0.61634892E+02</totfact>
</mgrwt>
</event>
<event>
 5    1  0.6729100E-004  0.8053268E+02  0.7818608E-02  0.1327547E+00
         11   -1    0    0    0    0  0.00000000000E+00  0.00000000000E+00  0.10000072850E+04  0.10000072850E+04  0.51100000000E-03 0. -1.
          2   -1    0    0  501    0 -0.00000000000E+00 -0.00000000000E+00 -0.17562645392E+02  0.17562645577E+02  0.25500000000E-02 0. -1.
         11    1    1    2    0    0 -0.61401532739E+01 -0.83618541433E+02  0.12769905635E+03  0.15276390590E+03  0.51100000000E-03 0. -1.
         22    1    1    2    0    0 -0.42676118989E+02  0.23772273175E+02  0.21873742185E+03  0.22412592849E+03  0.00000000000E+00 0.  1.
          2    1    1    2  501    0  0.48816272263E+02  0.59846268258E+02  0.63600816137E+03  0.64068009614E+03  0.25500000000E-02 0. -1.
<mgrwt>
<rscale>  0 0.80532680E+02</rscale>
<asrwt>0</asrwt>
<pdfrwt beam="1">  1       11 0.10000000E+01 0.48850508E+02</pdfrwt>
<pdfrwt beam="2">  1        2 0.27019651E-02 0.80532680E+02</pdfrwt>
<totfact> 0.39162254E+03</totfact>
</mgrwt>
</event>
<event>
 5    1  0.6729100E-004  0.2061138E+03  0.7818608E-02  0.1152281E+00
         11   -1    0    0    0    0  0.00000000000E+00  0.00000000000E+00  0.99996925689E+03  0.99996925689E+03  0.51100000000E-03 0.  1.
          2   -1    0    0  501    0 -0.00000000000E+00 -0.00000000000E+00 -0.41147276642E+02  0.41147276721E+02  0.25500000000E-02 0.  1.
         11    1    1    2    0    0  0.75110433646E+02 -0.15914709633E+03  0.42658824637E+03  0.46146170746E+03  0.51100000000E-03 0.  1.
         22    1    1    2    0    0 -0.45175883215E+01 -0.24788440952E+02  0.12186594914E+03  0.12444350111E+03  0.00000000000E+00 0. -1.
          2    1    1    2  501    0 -0.70592845324E+02  0.18393553728E+03  0.41036778474E+03  0.45521132504E+03  0.25500000000E-02 0.  1.
<mgrwt>
<rscale>  0 0.19701683E+03</rscale>
<asrwt>0</asrwt>
<pdfrwt beam="1">  1       11 0.10000000E+01 0.20611383E+03</pdfrwt>
<pdfrwt beam="2">  1        2 0.63301555E-02 0.19701683E+03</pdfrwt>
<totfact> 0.13862361E+03</totfact>
</mgrwt>
</event>
<event>
 5    1  0.6729100E-004  0.2174646E+03  0.7818608E-02  0.1188562E+00
         11   -1    0    0    0    0  0.00000000000E+00  0.00000000000E+00  0.10005156046E+04  0.10005156046E+04  0.51100000000E-03 0. -1.
          2   -1    0    0  501    0 -0.00000000000E+00 -0.00000000000E+00 -0.88577635806E+02  0.88577635843E+02  0.25500000000E-02 0. -1.
         11    1    1    2    0    0  0.18703587624E+03 -0.16366984635E+03  0.65783488984E+03  0.70321901275E+03  0.51100000000E-03 0. -1.
         22    1    1    2    0    0 -0.11752332320E+03  0.93754537358E+01  0.13326617536E+03  0.17793117806E+03  0.00000000000E+00 0. -1.
          2    1    1    2  501    0 -0.69512553038E+02  0.15429439261E+03  0.12083690363E+03  0.20794304967E+03  0.25500000000E-02 0. -1.
<mgrwt>
<rscale>  0 0.16011981E+03</rscale>
<asrwt>0</asrwt>
<pdfrwt beam="1">  1       11 0.10000000E+01 0.21746457E+03</pdfrwt>
<pdfrwt beam="2">  1        2 0.13634355E-01 0.16011981E+03</pdfrwt>
<totfact> 0.52733786E+02</totfact>
</mgrwt>
</event>
<event>
 5    1  0.6729100E-004  0.9090414E+02  0.7818608E-02  0.1300677E+00
         11   -1    0    0    0    0  0.00000000000E+00  0.00000000000E+00  0.10001079282E+04  0.10001079282E+04  0.51100000000E-03 0. -1.
         -2   -1    0    0    0  501 -0.00000000000E+00 -0.00000000000E+00 -0.37840983822E+02  0.37840983907E+02  0.25500000000E-02 0.  1.
         11    1    1    2    0    0 -0.97630481440E+01 -0.10674973050E+03  0.58618612306E+03  0.59590686600E+03  0.51100000000E-03 0. -1.
         22    1    1    2    0    0  0.60410778939E+02  0.30578081574E+02  0.33498890103E+03  0.34176314180E+03  0.00000000000E+00 0.  1.
         -2    1    1    2    0  501 -0.50647730795E+02  0.76171648922E+02  0.41091920329E+02  0.10027890435E+03  0.25500000000E-02 0.  1.
<mgrwt>
<rscale>  0 0.90904145E+02</rscale>
<asrwt>0</asrwt>
<pdfrwt beam="1">  1       11 0.10000000E+01 0.67708798E+02</pdfrwt>
<pdfrwt beam="2">  1       -2 0.58223180E-02 0.90904145E+02</pdfrwt>
<totfact> 0.11345560E+03</totfact>
</mgrwt>
</event>
<event>
 5    1  0.6729100E-004  0.5576010E+02  0.7818608E-02  0.1416538E+00
         11   -1    0    0    0    0  0.00000000000E+00  0.00000000000E+00  0.99995673769E+03  0.99995673769E+03  0.51100000000E-03 0. -1.
          2   -1    0    0  501    0 -0.00000000000E+00 -0.00000000000E+00 -0.27651989649E+02  0.27651989767E+02  0.25500000000E-02 0. -1.
         11    1    1    2    0    0  0.56494337816E+02 -0.51949879882E+00  0.63999311751E+01  0.56858061905E+02  0.51100000000E-03 0. -1.
         22    1    1    2    0    0 -0.19160897142E+02  0.29310570550E+02  0.17655797104E+03  0.17999712959E+03  0.00000000000E+00 0. -1.
          2    1    1    2  501    0 -0.37333440674E+02 -0.28791071751E+02  0.78934684583E+03  0.79075353596E+03  0.25500000000E-02 0. -1.
<mgrwt>
<rscale>  0 0.55760098E+02</rscale>
<asrwt>0</asrwt>
<pdfrwt beam="1">  1       11 0.10000000E+01 0.35017846E+02</pdfrwt>
<pdfrwt beam="2">  1        2 0.42539681E-02 0.55760098E+02</pdfrwt>
<totfact> 0.20743575E+03</totfact>
</mgrwt>
</event>
<event>
 5    1  0.6729100E-004  0.3265028E+03  0.7818608E-02  0.1072695E+00
         11   -1    0    0    0    0  0.00000000000E+00  0.00000000000E+00  0.10002665489E+04  0.10002665489E+04  0.51100000000E-03 0. -1.
          2   -1    0    0  501    0 -0.00000000000E+00 -0.00000000000E+00 -0.16580307900E+03  0.16580307902E+03  0.25500000000E-02 0. -1.
         11    1    1    2    0    0  0.32035507708E+03 -0.47726106060E+02  0.64553489508E+03  0.72223296614E+03  0.51100000000E-03 0. -1.
         22    1    1    2    0    0  0.69394673002E+01  0.31461064614E+02  0.98872544496E+02  0.10398910928E+03  0.00000000000E+00 0.  1.
          2    1    1    2  501    0 -0.32729454438E+03  0.16265041445E+02  0.90056030350E+02  0.33984755253E+03  0.25500000000E-02 0. -1.
<mgrwt>
<rscale>  0 0.32650278E+03</rscale>
<asrwt>0</asrwt>
<pdfrwt beam="1">  1       11 0.10000000E+01 0.32217306E+02</pdfrwt>
<pdfrwt beam="2">  1        2 0.25514964E-01 0.32650278E+03</pdfrwt>
<totfact> 0.26085922E+02</totfact>
</mgrwt>
</event>
<event>
 5    1  0.6729100E-004  0.4332882E+03  0.7818608E-02  0.1032826E+00
         11   -1    0    0    0    0  0.00000000000E+00  0.00000000000E+00  0.10005137849E+04  0.10005137849E+04  0.51100000000E-03 0.  1.
          2   -1    0    0  501    0 -0.00000000000E+00 -0.00000000000E+00 -0.28143148575E+03  0.28143148576E+03  0.25500000000E-02 0.  1.
         11    1    1    2    0    0 -0.42146070382E+03  0.33609793175E+02  0.56205592530E+03  0.70332468052E+03  0.51100000000E-03 0.  1.
         22    1    1    2    0    0 -0.12477684730E+02  0.19382737668E+02  0.13919931625E+03  0.14109511961E+03  0.00000000000E+00 0.  1.
          2    1    1    2  501    0  0.43393838855E+03 -0.52992530843E+02  0.17827057629E+02  0.43752547054E+03  0.25500000000E-02 0.  1.
<mgrwt>
<rscale>  0 0.43328819E+03</rscale>
<asrwt>0</asrwt>
<pdfrwt beam="1">  1       11 0.10000000E+01 0.23051749E+02</pdfrwt>
<pdfrwt beam="2">  1        2 0.43319396E-01 0.43328819E+03</pdfrwt>
<totfact> 0.14551196E+02</totfact>
</mgrwt>
</event>
<event>
 5    1  0.6729100E-004  0.3057233E+03  0.7818608E-02  0.1085576E+00
         11   -1    0    0    0    0  0.00000000000E+00  0.00000000000E+00  0.10006718955E+04  0.10006718955E+04  0.51100000000E-03 0.  1.
          2   -1    0    0  501    0 -0.00000000000E+00 -0.00000000000E+00 -0.59626955290E+03  0.59626955291E+03  0.25500000000E-02 0.  1.
         11    1    1    2    0    0  0.26642166976E+03  0.61371043800E+02  0.81006268414E+03  0.85495524057E+03  0.51100000000E-03 0.  1.
         22    1    1    2    0    0  0.28726426567E+02 -0.11506213669E+02  0.12714453722E+03  0.13085615721E+03  0.00000000000E+00 0. -1.
          2    1    1    2  501    0 -0.29514809632E+03 -0.49864830131E+02 -0.53280487872E+03  0.61113005068E+03  0.25500000000E-02 0.  1.
<mgrwt>
<rscale>  0 0.29933075E+03</rscale>
<asrwt>0</asrwt>
<pdfrwt beam="1">  1       11 0.10000000E+01 0.30572330E+03</pdfrwt>
<pdfrwt beam="2">  1        2 0.91795410E-01 0.29933075E+03</pdfrwt>
<totfact> 0.63190705E+01</totfact>
</mgrwt>
</event>
<event>
 5    1  0.6729100E-004  0.1374440E+03  0.7818608E-02  0.1482445E+00
         11   -1    0    0    0    0  0.00000000000E+00  0.00000000000E+00  0.10002507125E+04  0.10002507125E+04  0.51100000000E-03 0.  1.
          2   -1    0    0  501    0 -0.00000000000E+00 -0.00000000000E+00 -0.72795823516E+02  0.72795823561E+02  0.25500000000E-02 0.  1.
         11    1    1    2    0    0 -0.48069036797E+02  0.12712412917E+03  0.70210623556E+03  0.71513938678E+03  0.51100000000E-03 0.  1.
         22    1    1    2    0    0  0.88832122055E+01 -0.14652946395E+03  0.26234817164E+03  0.30062660964E+03  0.00000000000E+00 0.  1.
          2    1    1    2  501    0  0.39185824592E+02  0.19405334782E+02 -0.36999518208E+02  0.57280539636E+02  0.25500000000E-02 0.  1.
<mgrwt>
<rscale>  0 0.43727518E+02</rscale>
<asrwt>0</asrwt>
<pdfrwt beam="1">  1       11 0.10000000E+01 0.13744400E+03</pdfrwt>
<pdfrwt beam="2">  1        2 0.11202165E-01 0.43727518E+02</pdfrwt>
<totfact> 0.61736121E+02</totfact>
</mgrwt>
</event>
<event>
 5    1  0.6729100E-004  0.1693210E+03  0.7818608E-02  0.1538337E+00
         11   -1    0    0    0    0  0.00000000000E+00  0.00000000000E+00  0.10007482949E+04  0.10007482949E+04  0.51100000000E-03 0. -1.
          2   -1    0    0  501    0 -0.00000000000E+00 -0.00000000000E+00 -0.44923010727E+03  0.44923010728E+03  0.25500000000E-02 0.  1.
         11    1    1    2    0    0 -0.18609631405E+03 -0.59230281820E+02  0.20057265592E+03  0.27994544949E+03  0.51100000000E-03 0. -1.
         22    1    1    2    0    0  0.16014220844E+03  0.34018850689E+02  0.75085193396E+03  0.76849296409E+03  0.00000000000E+00 0. -1.
          2    1    1    2  501    0  0.25954105610E+02  0.25211431131E+02 -0.39990640226E+03  0.40153998859E+03  0.25500000000E-02 0.  1.
<mgrwt>
<rscale>  0 0.36183309E+02</rscale>
<asrwt>0</asrwt>
<pdfrwt beam="1">  1       11 0.10000000E+01 0.16932100E+03</pdfrwt>
<pdfrwt beam="2">  1        2 0.69164039E-01 0.36183309E+02</pdfrwt>
<totfact> 0.88921716E+01</totfact>
</mgrwt>
</event>
<event>
 5    1  0.6729100E-004  0.1083330E+03  0.7818608E-02  0.1739072E+00
         11   -1    0    0    0    0  0.00000000000E+00  0.00000000000E+00  0.10004110778E+04  0.10004110778E+04  0.51100000000E-03 0. -1.
         -2   -1    0    0    0  501 -0.00000000000E+00 -0.00000000000E+00 -0.52682855602E+02  0.52682855664E+02  0.25500000000E-02 0. -1.
         11    1    1    2    0    0  0.10291287063E+03 -0.59138458384E+02  0.49308153356E+03  0.50716645683E+03  0.51100000000E-03 0. -1.
         22    1    1    2    0    0 -0.82622627803E+02  0.58071596652E+02  0.49261729774E+03  0.50286241757E+03  0.00000000000E+00 0. -1.
         -2    1    1    2    0  501 -0.20290242831E+02  0.10668617318E+01 -0.37970609116E+02  0.43065059053E+02  0.25500000000E-02 0. -1.
<mgrwt>
<rscale>  0 0.20318271E+02</rscale>
<asrwt>0</asrwt>
<pdfrwt beam="1">  1       11 0.10000000E+01 0.10833302E+03</pdfrwt>
<pdfrwt beam="2">  1       -2 0.81083863E-02 0.20318271E+02</pdfrwt>
<totfact> 0.59415498E+02</totfact>
</mgrwt>
</event>
<event>
 5    1  0.6729100E-004  0.8589290E+02  0.7818608E-02  0.1696129E+00
         11   -1    0    0    0    0  0.00000000000E+00  0.00000000000E+00  0.10001805553E+04  0.10001805553E+04  0.51100000000E-03 0.  1.
          2   -1    0    0  501    0 -0.00000000000E+00 -0.00000000000E+00 -0.55036390346E+03  0.55036390346E+03  0.25500000000E-02 0. -1.
         11    1    1    2    0    0  0.78666995562E+02 -0.24331660059E+02  0.45516312852E+03  0.46255161813E+03  0.51100000000E-03 0.  1.
         22    1    1    2    0    0 -0.77745843592E+02  0.47030552938E+02  0.53727082105E+03  0.54490019660E+03  0.00000000000E+00 0. -1.
          2    1    1    2  501    0 -0.92115196929E+00 -0.22698892878E+02 -0.54261729770E+03  0.54309264406E+03  0.25500000000E-02 0. -1.
<mgrwt>
<rscale>  0 0.22717576E+02</rscale>
<asrwt>0</asrwt>
<pdfrwt beam="1">  1       11 0.10000000E+01 0.85892901E+02</pdfrwt>
<pdfrwt beam="2">  1        2 0.84686655E-01 0.22717576E+02</pdfrwt>
<totfact> 0.72577300E+01</totfact>
</mgrwt>
</event>
<event>
 5    1  0.6729100E-004  0.8505672E+02  0.7818608E-02  0.1372366E+00
         11   -1    0    0    0    0  0.00000000000E+00  0.00000000000E+00  0.10003456004E+04  0.10003456004E+04  0.51100000000E-03 0.  1.
         -2   -1    0    0    0  501 -0.00000000000E+00 -0.00000000000E+00 -0.29953240644E+02  0.29953240752E+02  0.25500000000E-02 0. -1.
         11    1    1    2    0    0  0.11559232924E+02  0.81216209933E+02  0.35465682277E+03  0.36402081061E+03  0.51100000000E-03 0.  1.
         22    1    1    2    0    0  0.54948624230E+02 -0.82095430707E+02  0.58451035033E+03  0.59279959573E+03  0.00000000000E+00 0. -1.
         -2    1    1    2    0  501 -0.66507857154E+02  0.87922077411E+00  0.31225186628E+02  0.73478434788E+02  0.25500000000E-02 0. -1.
<mgrwt>
<rscale>  0 0.66513669E+02</rscale>
<asrwt>0</asrwt>
<pdfrwt beam="1">  1       11 0.10000000E+01 0.85056722E+02</pdfrwt>
<pdfrwt beam="2">  1       -2 0.46097833E-02 0.66513669E+02</pdfrwt>
<totfact> 0.15543923E+03</totfact>
</mgrwt>
</event>
<event>
 5    1  0.6729100E-004  0.2388754E+03  0.7818608E-02  0.1124723E+00
         11   -1    0    0    0    0  0.00000000000E+00  0.00000000000E+00  0.10000798213E+04  0.10000798213E+04  0.51100000000E-03 0.  1.
          2   -1    0    0  501    0 -0.00000000000E+00 -0.00000000000E+00 -0.51410752962E+03  0.51410752963E+03  0.25500000000E-02 0.  1.
         11    1    1    2    0    0 -0.11530403800E+03  0.15744741879E+03  0.78241443895E+03  0.80638518411E+03  0.51100000000E-03 0.  1.
         22    1    1    2    0    0 -0.41101429571E+02  0.14909593955E+02  0.17588878305E+03  0.18124151707E+03  0.00000000000E+00 0. -1.
          2    1    1    2  501    0  0.15640546757E+03 -0.17235701274E+03 -0.47233093032E+03  0.52656064976E+03  0.25500000000E-02 0.  1.
<mgrwt>
<rscale>  0 0.23274366E+03</rscale>
<asrwt>0</asrwt>
<pdfrwt beam="1">  1       11 0.10000000E+01 0.23887536E+03</pdfrwt>
<pdfrwt beam="2">  1        2 0.79099777E-01 0.23274366E+03</pdfrwt>
<totfact> 0.75328160E+01</totfact>
</mgrwt>
</event>
<event>
 5    1  0.6729100E-004  0.4771741E+03  0.7818608E-02  0.1019915E+00
         11   -1    0    0    0    0  0.00000000000E+00  0.00000000000E+00  0.10001942805E+04  0.10001942805E+04  0.51100000000E-03 0. -1.
          2   -1    0    0  501    0 -0.00000000000E+00 -0.00000000000E+00 -0.95233809486E+03  0.95233809487E+03  0.25500000000E-02 0. -1.
         11    1    1    2    0    0 -0.92402643911E+01  0.42203332369E+03  0.57000092105E+03  0.70929440910E+03  0.51100000000E-03 0. -1.
         22    1    1    2    0    0  0.41687935323E+02  0.59925108733E+02  0.28958945267E+03  0.29864854546E+03  0.00000000000E+00 0.  1.
          2    1    1    2  501    0 -0.32447670932E+02 -0.48195843242E+03 -0.81173418804E+03  0.94458942085E+03  0.25500000000E-02 0. -1.
<mgrwt>
<rscale>  0 0.47717407E+03</rscale>
<asrwt>0</asrwt>
<pdfrwt beam="1">  1       11 0.10000000E+01 0.72999333E+02</pdfrwt>
<pdfrwt beam="2">  1        2 0.14654201E+00 0.47717407E+03</pdfrwt>
<totfact> 0.34283154E+01</totfact>
</mgrwt>
</event>
<event>
 5    1  0.6729100E-004  0.1691598E+03  0.7818608E-02  0.1178727E+00
         11   -1    0    0    0    0  0.00000000000E+00  0.00000000000E+00  0.10003426429E+04  0.10003426429E+04  0.51100000000E-03 0. -1.
          2   -1    0    0  501    0 -0.00000000000E+00 -0.00000000000E+00 -0.28018031087E+02  0.28018031203E+02  0.25500000000E-02 0. -1.
         11    1    1    2    0    0 -0.14962115514E+03  0.40475612600E+02  0.59491145476E+03  0.61477183108E+03  0.51100000000E-03 0. -1.
         22    1    1    2    0    0  0.32596094764E+02 -0.21747734042E+02  0.17229021801E+03  0.17669009183E+03  0.00000000000E+00 0. -1.
          2    1    1    2  501    0  0.11702506037E+03 -0.18727878558E+02  0.20512293906E+03  0.23689875121E+03  0.25500000000E-02 0. -1.
<mgrwt>
<rscale>  0 0.16915981E+03</rscale>
<asrwt>0</asrwt>
<pdfrwt beam="1">  1       11 0.10000000E+01 0.15499924E+03</pdfrwt>
<pdfrwt beam="2">  1        2 0.43119432E-02 0.16915981E+03</pdfrwt>
<totfact> 0.22677670E+03</totfact>
</mgrwt>
</event>
<event>
 5    1  0.6729100E-004  0.2031514E+03  0.7818608E-02  0.1310203E+00
         11   -1    0    0    0    0  0.00000000000E+00  0.00000000000E+00  0.10002788407E+04  0.10002788407E+04  0.51100000000E-03 0. -1.
          2   -1    0    0  501    0 -0.00000000000E+00 -0.00000000000E+00 -0.81657881998E+03  0.81657881999E+03  0.25500000000E-02 0. -1.
         11    1    1    2    0    0 -0.81606117794E+00  0.18728020586E+03  0.45998742038E+03  0.49665175765E+03  0.51100000000E-03 0. -1.
         22    1    1    2    0    0 -0.80000089157E+02 -0.21958025177E+03  0.49322383337E+03  0.54578865052E+03  0.00000000000E+00 0. -1.
          2    1    1    2  501    0  0.80816150335E+02  0.32300045912E+02 -0.76951123307E+03  0.77441725249E+03  0.25500000000E-02 0. -1.
<mgrwt>
<rscale>  0 0.87031851E+02</rscale>
<asrwt>0</asrwt>
<pdfrwt beam="1">  1       11 0.10000000E+01 0.20315136E+03</pdfrwt>
<pdfrwt beam="2">  1        2 0.12566254E+00 0.87031851E+02</pdfrwt>
<totfact> 0.45052537E+01</totfact>
</mgrwt>
</event>
<event>
 5    1  0.6729100E-004  0.8604817E+02  0.7818608E-02  0.1360879E+00
         11   -1    0    0    0    0  0.00000000000E+00  0.00000000000E+00  0.10000907564E+04  0.10000907564E+04  0.51100000000E-03 0.  1.
          2   -1    0    0  501    0 -0.00000000000E+00 -0.00000000000E+00 -0.18616526451E+02  0.18616526625E+02  0.25500000000E-02 0.  1.
         11    1    1    2    0    0  0.96077477081E+00  0.73181394549E+02  0.12123490602E+03  0.14161335401E+03  0.51100000000E-03 0.  1.
         22    1    1    2    0    0 -0.70547981928E+02 -0.68141494660E+02  0.58404451588E+03  0.59222316535E+03  0.00000000000E+00 0.  1.
          2    1    1    2  501    0  0.69587207157E+02 -0.50398998896E+01  0.27619480808E+03  0.28487076369E+03  0.25500000000E-02 0.  1.
<mgrwt>
<rscale>  0 0.69769478E+02</rscale>
<asrwt>0</asrwt>
<pdfrwt beam="1">  1       11 0.10000000E+01 0.86048167E+02</pdfrwt>
<pdfrwt beam="2">  1        2 0.28643409E-02 0.69769478E+02</pdfrwt>
<totfact> 0.35625409E+03</totfact>
</mgrwt>
</event>
<event>
 5    1  0.6729100E-004  0.2522817E+03  0.7818608E-02  0.1113256E+00
         11   -1    0    0    0    0  0.00000000000E+00  0.00000000000E+00  0.10000315281E+04  0.10000315281E+04  0.51100000000E-03 0.  1.
          2   -1    0    0  501    0 -0.00000000000E+00 -0.00000000000E+00 -0.79665234976E+02  0.79665235016E+02  0.25500000000E-02 0.  1.
         11    1    1    2    0    0  0.22769788115E+02 -0.23765701038E+03  0.65139430187E+03  0.69376786776E+03  0.51100000000E-03 0.  1.
         22    1    1    2    0    0  0.46629633169E+01 -0.10910957499E+02  0.56637637062E+02  0.57867211376E+02  0.00000000000E+00 0. -1.
          2    1    1    2  501    0 -0.27432751432E+02  0.24856796788E+03  0.21233435416E+03  0.32806168394E+03  0.25500000000E-02 0.  1.
<mgrwt>
<rscale>  0 0.25007717E+03</rscale>
<asrwt>0</asrwt>
<pdfrwt beam="1">  1       11 0.10000000E+01 0.25228172E+03</pdfrwt>
<pdfrwt beam="2">  1        2 0.12256576E-01 0.25007717E+03</pdfrwt>
<totfact> 0.61103879E+02</totfact>
</mgrwt>
</event>
<event>
 5    1  0.6729100E-004  0.1269432E+03  0.7818608E-02  0.1232063E+00
         11   -1    0    0    0    0  0.00000000000E+00  0.00000000000E+00  0.99990021453E+03  0.99990021453E+03  0.51100000000E-03 0.  1.
          2   -1    0    0  501    0 -0.00000000000E+00 -0.00000000000E+00 -0.10043680439E+04  0.10043680439E+04  0.25500000000E-02 0.  1.
         11    1    1    2    0    0 -0.11917673852E+02 -0.17196381787E+03  0.75213259265E+03  0.77163269923E+03  0.51100000000E-03 0.  1.
         22    1    1    2    0    0  0.68712992374E+00  0.45760348985E+02  0.23173544338E+03  0.23621134056E+03  0.00000000000E+00 0.  1.
          2    1    1    2  501    0  0.11230543928E+02  0.12620346888E+03 -0.98833586541E+03  0.99642421866E+03  0.25500000000E-02 0.  1.
<mgrwt>
<rscale>  0 0.12694316E+03</rscale>
<asrwt>0</asrwt>
<pdfrwt beam="1">  1       11 0.10000000E+01 0.45765508E+02</pdfrwt>
<pdfrwt beam="2">  1        2 0.15450274E+00 0.12694316E+03</pdfrwt>
<totfact> 0.33885489E+01</totfact>
</mgrwt>
</event>
<event>
 5    1  0.6729100E-004  0.3009850E+03  0.7818608E-02  0.1084749E+00
         11   -1    0    0    0    0  0.00000000000E+00  0.00000000000E+00  0.10006034439E+04  0.10006034439E+04  0.51100000000E-03 0. -1.
          2   -1    0    0  501    0 -0.00000000000E+00 -0.00000000000E+00 -0.13042488882E+04  0.13042488882E+04  0.25500000000E-02 0. -1.
         11    1    1    2    0    0 -0.18191903503E+03  0.67730609566E+02 -0.45485928376E+02  0.19937637889E+03  0.51100000000E-03 0. -1.
         22    1    1    2    0    0 -0.15719957527E+03 -0.92676991726E+02  0.88974574211E+03  0.90826660010E+03  0.00000000000E+00 0. -1.
          2    1    1    2  501    0  0.33911861030E+03  0.24946382159E+02 -0.11479052580E+04  0.11972093531E+04  0.25500000000E-02 0. -1.
<mgrwt>
<rscale>  0 0.30098500E+03</rscale>
<asrwt>0</asrwt>
<pdfrwt beam="1">  1       11 0.10000000E+01 0.18248488E+03</pdfrwt>
<pdfrwt beam="2">  1        2 0.20077475E+00 0.30098500E+03</pdfrwt>
<totfact> 0.21700158E+01</totfact>
</mgrwt>
</event>
<event>
 5    1  0.6729100E-004  0.3764920E+03  0.7818608E-02  0.1052238E+00
         11   -1    0    0    0    0  0.00000000000E+00  0.00000000000E+00  0.10000895049E+04  0.10000895049E+04  0.51100000000E-03 0. -1.
          2   -1    0    0  501    0 -0.00000000000E+00 -0.00000000000E+00 -0.20250658447E+03  0.20250658449E+03  0.25500000000E-02 0. -1.
         11    1    1    2    0    0 -0.25154919282E+03 -0.27436326750E+03  0.73092871611E+03  0.82024934441E+03  0.51100000000E-03 0. -1.
         22    1    1    2    0    0  0.37170163477E+00  0.14734479170E+02  0.65818287795E+01  0.16141979699E+02  0.00000000000E+00 0. -1.
          2    1    1    2  501    0  0.25117749118E+03  0.25962878833E+03  0.60072375543E+02  0.36620476529E+03  0.25500000000E-02 0. -1.
<mgrwt>
<rscale>  0 0.37649203E+03</rscale>
<asrwt>0</asrwt>
<pdfrwt beam="1">  1       11 0.10000000E+01 0.37222601E+03</pdfrwt>
<pdfrwt beam="2">  1        2 0.31157647E-01 0.37649203E+03</pdfrwt>
<totfact> 0.20905278E+02</totfact>
</mgrwt>
</event>
<event>
 5    1  0.6729100E-004  0.2887658E+03  0.7818608E-02  0.1090995E+00
         11   -1    0    0    0    0  0.00000000000E+00  0.00000000000E+00  0.10000671082E+04  0.10000671082E+04  0.51100000000E-03 0. -1.
          2   -1    0    0  501    0 -0.00000000000E+00 -0.00000000000E+00 -0.18147642615E+03  0.18147642616E+03  0.25500000000E-02 0. -1.
         11    1    1    2    0    0  0.17207180391E+03  0.23079870155E+03  0.81747614980E+03  0.86668564187E+03  0.51100000000E-03 0. -1.
         22    1    1    2    0    0  0.88788217775E+01 -0.55463239993E+01  0.22824998456E+02  0.25111267204E+02  0.00000000000E+00 0. -1.
          2    1    1    2  501    0 -0.18095062569E+03 -0.22525237755E+03 -0.21710466177E+02  0.28974662531E+03  0.25500000000E-02 0. -1.
<mgrwt>
<rscale>  0 0.28876584E+03</rscale>
<asrwt>0</asrwt>
<pdfrwt beam="1">  1       11 0.10000000E+01 0.10468772E+02</pdfrwt>
<pdfrwt beam="2">  1        2 0.27921323E-01 0.28876584E+03</pdfrwt>
<totfact> 0.23530794E+02</totfact>
</mgrwt>
</event>
<event>
 5    1  0.6729100E-004  0.4766414E+03  0.7818608E-02  0.1020062E+00
         11   -1    0    0    0    0  0.00000000000E+00  0.00000000000E+00  0.10005727920E+04  0.10005727920E+04  0.51100000000E-03 0.  1.
          2   -1    0    0  501    0 -0.00000000000E+00 -0.00000000000E+00 -0.28656022681E+03  0.28656022683E+03  0.25500000000E-02 0.  1.
         11    1    1    2    0    0 -0.11428473690E+03  0.46505698991E+03  0.33308600563E+03  0.58333977415E+03  0.51100000000E-03 0.  1.
         22    1    1    2    0    0  0.32992665374E+02  0.33430028316E+01  0.18772689595E+03  0.19063336303E+03  0.00000000000E+00 0. -1.
          2    1    1    2  501    0  0.81292071528E+02 -0.46839999274E+03  0.19319966357E+03  0.51315988162E+03  0.25500000000E-02 0.  1.
<mgrwt>
<rscale>  0 0.47664137E+03</rscale>
<asrwt>0</asrwt>
<pdfrwt beam="1">  1       11 0.10000000E+01 0.33161599E+02</pdfrwt>
<pdfrwt beam="2">  1        2 0.44111440E-01 0.47664137E+03</pdfrwt>
<totfact> 0.14266022E+02</totfact>
</mgrwt>
</event>
<event>
 5    1  0.6729100E-004  0.2477169E+03  0.7818608E-02  0.1114756E+00
         11   -1    0    0    0    0  0.00000000000E+00  0.00000000000E+00  0.10004504793E+04  0.10004504793E+04  0.51100000000E-03 0.  1.
          2   -1    0    0  501    0 -0.00000000000E+00 -0.00000000000E+00 -0.44769562021E+03  0.44769562022E+03  0.25500000000E-02 0.  1.
         11    1    1    2    0    0 -0.18750307846E+03 -0.15631456512E+03  0.81588254521E+03  0.85161961889E+03  0.51100000000E-03 0.  1.
         22    1    1    2    0    0  0.21155907673E+02 -0.27584020278E+02  0.12843090407E+03  0.13305242473E+03  0.00000000000E+00 0.  1.
          2    1    1    2  501    0  0.16634717079E+03  0.18389858539E+03 -0.39155859019E+03  0.46347405591E+03  0.25500000000E-02 0.  1.
<mgrwt>
<rscale>  0 0.24771694E+03</rscale>
<asrwt>0</asrwt>
<pdfrwt beam="1">  1       11 0.10000000E+01 0.34762776E+02</pdfrwt>
<pdfrwt beam="2">  1        2 0.68907275E-01 0.24771694E+03</pdfrwt>
<totfact> 0.87760678E+01</totfact>
</mgrwt>
</event>
<event>
 5    1  0.6729100E-004  0.5601599E+03  0.7818608E-02  0.1002137E+00
         11   -1    0    0    0    0  0.00000000000E+00  0.00000000000E+00  0.10004463696E+04  0.10004463696E+04  0.51100000000E-03 0. -1.
          2   -1    0    0  501    0 -0.00000000000E+00 -0.00000000000E+00 -0.24688886600E+04  0.24688886600E+04  0.25500000000E-02 0. -1.
         11    1    1    2    0    0 -0.38034940039E+02  0.43929029884E+03  0.71294545789E+03  0.83828029277E+03  0.51100000000E-03 0. -1.
         22    1    1    2    0    0  0.50252720222E+02  0.10780216618E+03  0.17520330312E+03  0.21176128151E+03  0.00000000000E+00 0. -1.
          2    1    1    2  501    0 -0.12217780183E+02 -0.54709246502E+03 -0.23565910514E+04  0.24192934553E+04  0.25500000000E-02 0. -1.
<mgrwt>
<rscale>  0 0.54722887E+03</rscale>
<asrwt>0</asrwt>
<pdfrwt beam="1">  1       11 0.10000000E+01 0.56015988E+03</pdfrwt>
<pdfrwt beam="2">  1        2 0.37999856E+00 0.54722887E+03</pdfrwt>
<totfact> 0.48165902E+00</totfact>
</mgrwt>
</event>
<event>
 5    1  0.6729100E-004  0.1094782E+03  0.7818608E-02  0.1388488E+00
         11   -1    0    0    0    0  0.00000000000E+00  0.00000000000E+00  0.10000792771E+04  0.10000792771E+04  0.51100000000E-03 0.  1.
         -2   -1    0    0    0  501 -0.00000000000E+00 -0.00000000000E+00 -0.55792538429E+02  0.55792538487E+02  0.25500000000E-02 0. -1.
         11    1    1    2    0    0 -0.14619836611E+02 -0.11021618498E+03  0.28940513835E+03  0.31002690393E+03  0.51100000000E-03 0.  1.
         22    1    1    2    0    0  0.72808461729E+02  0.88003318264E+02  0.67169051710E+03  0.68133237622E+03  0.00000000000E+00 0.  1.
         -2    1    1    2    0  501 -0.58188625118E+02  0.22212866714E+02 -0.16808916770E+02  0.64512535451E+02  0.25500000000E-02 0. -1.
<mgrwt>
<rscale>  0 0.62284248E+02</rscale>
<asrwt>0</asrwt>
<pdfrwt beam="1">  1       11 0.10000000E+01 0.10947815E+03</pdfrwt>
<pdfrwt beam="2">  1       -2 0.85841477E-02 0.62284248E+02</pdfrwt>
<totfact> 0.61131915E+02</totfact>
</mgrwt>
</event>
<event>
 5    1  0.6729100E-004  0.1871509E+03  0.7818608E-02  0.1161056E+00
         11   -1    0    0    0    0  0.00000000000E+00  0.00000000000E+00  0.10000362785E+04  0.10000362785E+04  0.51100000000E-03 0. -1.
          2   -1    0    0  501    0 -0.00000000000E+00 -0.00000000000E+00 -0.71625239871E+03  0.71625239872E+03  0.25500000000E-02 0. -1.
         11    1    1    2    0    0 -0.54231670546E+02  0.23510722998E+03  0.79445984761E+03  0.83029087261E+03  0.51100000000E-03 0. -1.
         22    1    1    2    0    0 -0.18675544604E+02 -0.63588620223E+02  0.16884305015E+03  0.18138429969E+03  0.00000000000E+00 0. -1.
          2    1    1    2  501    0  0.72907215150E+02 -0.17151860975E+03 -0.67951901798E+03  0.70461350492E+03  0.25500000000E-02 0. -1.
<mgrwt>
<rscale>  0 0.18715094E+03</rscale>
<asrwt>0</asrwt>
<pdfrwt beam="1">  1       11 0.10000000E+01 0.66274343E+02</pdfrwt>
<pdfrwt beam="2">  1        2 0.11019667E+00 0.18715094E+03</pdfrwt>
<totfact> 0.51493900E+01</totfact>
</mgrwt>
</event>
<event>
 5    1  0.6729100E-004  0.4607263E+03  0.7818608E-02  0.1025582E+00
         11   -1    0    0    0    0  0.00000000000E+00  0.00000000000E+00  0.10001038666E+04  0.10001038666E+04  0.51100000000E-03 0. -1.
         -2   -1    0    0    0  501 -0.00000000000E+00 -0.00000000000E+00 -0.21137906650E+03  0.21137906652E+03  0.25500000000E-02 0.  1.
         11    1    1    2    0    0  0.42678233779E+03  0.65742311983E+02  0.33773444714E+03  0.54820595785E+03  0.51100000000E-03 0. -1.
         22    1    1    2    0    0  0.22767302511E+02  0.17816761009E+02  0.22492451569E+02  0.36629188007E+02  0.00000000000E+00 0.  1.
         -2    1    1    2    0  501 -0.44954964030E+03 -0.83559072993E+02  0.42849790135E+03  0.62664778723E+03  0.25500000000E-02 0.  1.
<mgrwt>
<rscale>  0 0.45724938E+03</rscale>
<asrwt>0</asrwt>
<pdfrwt beam="1">  1       11 0.10000000E+01 0.46072631E+03</pdfrwt>
<pdfrwt beam="2">  1       -2 0.32523233E-01 0.45724938E+03</pdfrwt>
<totfact> 0.71352081E+01</totfact>
</mgrwt>
</event>
<event>
 5    1  0.6729100E-004  0.4042427E+03  0.7818608E-02  0.1042627E+00
         11   -1    0    0    0    0  0.00000000000E+00  0.00000000000E+00  0.10003117033E+04  0.10003117033E+04  0.51100000000E-03 0. -1.
          2   -1    0    0  501    0 -0.00000000000E+00 -0.00000000000E+00 -0.32295922705E+03  0.32295922706E+03  0.25500000000E-02 0. -1.
         11    1    1    2    0    0  0.36280474915E+03 -0.15232100264E+03  0.78473786399E+03  0.87786245451E+03  0.51100000000E-03 0. -1.
         22    1    1    2    0    0  0.10732600403E+02  0.14145342206E+00  0.19767855593E+02  0.22493928853E+02  0.00000000000E+00 0. -1.
          2    1    1    2  501    0 -0.37353734956E+03  0.15217954921E+03 -0.12715324338E+03  0.42291454695E+03  0.25500000000E-02 0. -1.
<mgrwt>
<rscale>  0 0.40334696E+03</rscale>
<asrwt>0</asrwt>
<pdfrwt beam="1">  1       11 0.10000000E+01 0.40424270E+03</pdfrwt>
<pdfrwt beam="2">  1        2 0.49701521E-01 0.40334696E+03</pdfrwt>
<totfact> 0.12517164E+02</totfact>
</mgrwt>
</event>
<event>
 5    1  0.6729100E-004  0.3360195E+03  0.7818608E-02  0.1075843E+00
         11   -1    0    0    0    0  0.00000000000E+00  0.00000000000E+00  0.99979996108E+03  0.99979996108E+03  0.51100000000E-03 0. -1.
          2   -1    0    0  501    0 -0.00000000000E+00 -0.00000000000E+00 -0.14609145983E+04  0.14609145983E+04  0.25500000000E-02 0. -1.
         11    1    1    2    0    0  0.13177037933E+03 -0.24872205126E+03  0.72003995914E+03  0.77310001579E+03  0.51100000000E-03 0. -1.
         22    1    1    2    0    0  0.40998028270E+02 -0.20131209807E+02  0.23318647628E+03  0.23761741655E+03  0.00000000000E+00 0. -1.
          2    1    1    2  501    0 -0.17276840760E+03  0.26885326107E+03 -0.14143410726E+04  0.14499971270E+04  0.25500000000E-02 0. -1.
<mgrwt>
<rscale>  0 0.31957941E+03</rscale>
<asrwt>0</asrwt>
<pdfrwt beam="1">  1       11 0.10000000E+01 0.33601948E+03</pdfrwt>
<pdfrwt beam="2">  1        2 0.22471113E+00 0.31957941E+03</pdfrwt>
<totfact> 0.17752188E+01</totfact>
</mgrwt>
</event>
<event>
 5    1  0.6729100E-004  0.1886166E+03  0.7818608E-02  0.1159715E+00
         11   -1    0    0    0    0  0.00000000000E+00  0.00000000000E+00  0.10002835672E+04  0.10002835672E+04  0.51100000000E-03 0. -1.
          2   -1    0    0  501    0 -0.00000000000E+00 -0.00000000000E+00 -0.36863957079E+03  0.36863957080E+03  0.25500000000E-02 0. -1.
         11    1    1    2    0    0  0.11905529978E+03  0.10376295144E+03  0.46930806143E+03  0.49516761912E+03  0.51100000000E-03 0. -1.
         22    1    1    2    0    0  0.64904473733E+02 -0.52186390925E+02  0.48861177089E+03  0.49565862523E+03  0.00000000000E+00 0. -1.
          2    1    1    2  501    0 -0.18395977352E+03 -0.51576560517E+02 -0.32627583592E+03  0.37809689364E+03  0.25500000000E-02 0. -1.
<mgrwt>
<rscale>  0 0.18861664E+03</rscale>
<asrwt>0</asrwt>
<pdfrwt beam="1">  1       11 0.10000000E+01 0.83282712E+02</pdfrwt>
<pdfrwt beam="2">  1        2 0.56729861E-01 0.18861664E+03</pdfrwt>
<totfact> 0.10867971E+02</totfact>
</mgrwt>
</event>
<event>
 5    1  0.6729100E-004  0.1162152E+03  0.7818608E-02  0.1334705E+00
         11   -1    0    0    0    0  0.00000000000E+00  0.00000000000E+00  0.10003772569E+04  0.10003772569E+04  0.51100000000E-03 0.  1.
          2   -1    0    0  501    0 -0.00000000000E+00 -0.00000000000E+00 -0.25431812869E+02  0.25431812997E+02  0.25500000000E-02 0.  1.
         11    1    1    2    0    0  0.90512229872E+02 -0.66312688235E+02  0.56044611293E+03  0.57156774041E+03  0.51100000000E-03 0.  1.
         22    1    1    2    0    0 -0.21596964306E+02 -0.47749009896E+02  0.10919479005E+03  0.12111935844E+03  0.00000000000E+00 0.  1.
          2    1    1    2  501    0 -0.68915265566E+02  0.11406169813E+03  0.30530454107E+03  0.33312197108E+03  0.25500000000E-02 0.  1.
<mgrwt>
<rscale>  0 0.78040899E+02</rscale>
<asrwt>0</asrwt>
<pdfrwt beam="1">  1       11 0.10000000E+01 0.11621519E+03</pdfrwt>
<pdfrwt beam="2">  1        2 0.39140625E-02 0.78040899E+02</pdfrwt>
<totfact> 0.23956373E+03</totfact>
</mgrwt>
</event>
<event>
 5    1  0.6729100E-004  0.1841401E+03  0.7818608E-02  0.1163855E+00
         11   -1    0    0    0    0  0.00000000000E+00  0.00000000000E+00  0.10001951553E+04  0.10001951553E+04  0.51100000000E-03 0.  1.
         -2   -1    0    0    0  501 -0.00000000000E+00 -0.00000000000E+00 -0.11913681904E+03  0.11913681906E+03  0.25500000000E-02 0. -1.
         11    1    1    2    0    0 -0.22505161564E+01  0.21081680613E+03  0.83835823943E+03  0.86446129364E+03  0.51100000000E-03 0.  1.
         22    1    1    2    0    0  0.24919105557E+02 -0.30509000656E+02  0.60585031806E+02  0.72265531353E+02  0.00000000000E+00 0. -1.
         -2    1    1    2    0  501 -0.22668589400E+02 -0.18030780547E+03 -0.17884935010E+02  0.18260514934E+03  0.25500000000E-02 0. -1.
<mgrwt>
<rscale>  0 0.18414014E+03</rscale>
<asrwt>0</asrwt>
<pdfrwt beam="1">  1       11 0.10000000E+01 0.39392397E+02</pdfrwt>
<pdfrwt beam="2">  1       -2 0.18332318E-01 0.18414014E+03</pdfrwt>
<totfact> 0.19352897E+02</totfact>
</mgrwt>
</event>
<event>
 5    1  0.6729100E-004  0.2423633E+03  0.7818608E-02  0.1118228E+00
         11   -1    0    0    0    0  0.00000000000E+00  0.00000000000E+00  0.10002576325E+04  0.10002576325E+04  0.51100000000E-03 0. -1.
          2   -1    0    0  501    0 -0.00000000000E+00 -0.00000000000E+00 -0.13112838190E+03  0.13112838193E+03  0.25500000000E-02 0. -1.
         11    1    1    2    0    0  0.59548634275E+02 -0.24507440165E+03  0.71225335390E+03  0.75558741541E+03  0.51100000000E-03 0. -1.
         22    1    1    2    0    0  0.34389465076E+02  0.23088621987E+02  0.12618424722E+03  0.13280882508E+03  0.00000000000E+00 0. -1.
          2    1    1    2  501    0 -0.93938099351E+02  0.22198577966E+03  0.30691649473E+02  0.24298977393E+03  0.25500000000E-02 0. -1.
<mgrwt>
<rscale>  0 0.24236333E+03</rscale>
<asrwt>0</asrwt>
<pdfrwt beam="1">  1       11 0.10000000E+01 0.41421248E+02</pdfrwt>
<pdfrwt beam="2">  1        2 0.20178794E-01 0.24236333E+03</pdfrwt>
<totfact> 0.33837834E+02</totfact>
</mgrwt>
</event>
<event>
 5    1  0.6729100E-004  0.3235656E+03  0.7818608E-02  0.1178710E+00
         11   -1    0    0    0    0  0.00000000000E+00  0.00000000000E+00  0.10007336778E+04  0.10007336778E+04  0.51100000000E-03 0. -1.
          2   -1    0    0  501    0 -0.00000000000E+00 -0.00000000000E+00 -0.41630520998E+04  0.41630520998E+04  0.25500000000E-02 0. -1.
         11    1    1    2    0    0  0.17997240844E+03  0.31629867988E+03  0.83476714095E+03  0.91064323546E+03  0.51100000000E-03 0. -1.
         22    1    1    2    0    0 -0.17198810282E+03 -0.14731129197E+03  0.24704745292E+02  0.22779562923E+03  0.00000000000E+00 0. -1.
          2    1    1    2  501    0 -0.79843056136E+01 -0.16898738790E+03 -0.40217903082E+04  0.40253469129E+04  0.25500000000E-02 0. -1.
<mgrwt>
<rscale>  0 0.16917590E+03</rscale>
<asrwt>0</asrwt>
<pdfrwt beam="1">  1       11 0.10000000E+01 0.32356561E+03</pdfrwt>
<pdfrwt beam="2">  1        2 0.64093943E+00 0.16917590E+03</pdfrwt>
<totfact> 0.45748470E-01</totfact>
</mgrwt>
</event>
<event>
 5    1  0.6729100E-004  0.1568812E+03  0.7818608E-02  0.1192264E+00
         11   -1    0    0    0    0  0.00000000000E+00  0.00000000000E+00  0.10000581911E+04  0.10000581911E+04  0.51100000000E-03 0. -1.
          2   -1    0    0  501    0 -0.00000000000E+00 -0.00000000000E+00 -0.37793374774E+03  0.37793374774E+03  0.25500000000E-02 0. -1.
         11    1    1    2    0    0 -0.14130550868E+03  0.17350508294E+01  0.73920975595E+03  0.75259638617E+03  0.51100000000E-03 0. -1.
         22    1    1    2    0    0  0.44821204869E+01 -0.80099932497E+02  0.23031483160E+03  0.24388729004E+03  0.00000000000E+00 0. -1.
          2    1    1    2  501    0  0.13682338819E+03  0.78364881667E+02 -0.34740014421E+03  0.38150826261E+03  0.25500000000E-02 0. -1.
<mgrwt>
<rscale>  0 0.15688120E+03</rscale>
<asrwt>0</asrwt>
<pdfrwt beam="1">  1       11 0.10000000E+01 0.80225237E+02</pdfrwt>
<pdfrwt beam="2">  1        2 0.58147035E-01 0.15688120E+03</pdfrwt>
<totfact> 0.10592082E+02</totfact>
</mgrwt>
</event>
<event>
 5    1  0.6729100E-004  0.2136475E+03  0.7818608E-02  0.1138710E+00
         11   -1    0    0    0    0  0.00000000000E+00  0.00000000000E+00  0.10005876178E+04  0.10005876178E+04  0.51100000000E-03 0. -1.
         -2   -1    0    0    0  501 -0.00000000000E+00 -0.00000000000E+00 -0.61774190002E+03  0.61774190002E+03  0.25500000000E-02 0.  1.
         11    1    1    2    0    0  0.28257755836E+03  0.38561425847E+02  0.89089416453E+03  0.93543010024E+03  0.51100000000E-03 0. -1.
         22    1    1    2    0    0 -0.74816269652E+02  0.42561234860E+01  0.47163691007E+02  0.88543788834E+02  0.00000000000E+00 0. -1.
         -2    1    1    2    0  501 -0.20776128871E+03 -0.42817549333E+02 -0.55521213770E+03  0.59435562879E+03  0.25500000000E-02 0.  1.
<mgrwt>
<rscale>  0 0.21364747E+03</rscale>
<asrwt>0</asrwt>
<pdfrwt beam="1">  1       11 0.10000000E+01 0.74937232E+02</pdfrwt>
<pdfrwt beam="2">  1       -2 0.95093058E-01 0.21364747E+03</pdfrwt>
<totfact> 0.78847992E+00</totfact>
</mgrwt>
</event>
<event>
 5    1  0.6729100E-004  0.2032170E+03  0.7818608E-02  0.1147053E+00
         11   -1    0    0    0    0  0.00000000000E+00  0.00000000000E+00  0.10000294683E+04  0.10000294683E+04  0.51100000000E-03 0.  1.
          2   -1    0    0  501    0 -0.00000000000E+00 -0.00000000000E+00 -0.15085307704E+03  0.15085307706E+03  0.25500000000E-02 0.  1.
         11    1    1    2    0    0  0.14974395765E+03  0.14145698817E+03 -0.59780984083E+02  0.21449265352E+03  0.51100000000E-03 0.  1.
         22    1    1    2    0    0  0.15424555418E+01 -0.45504223364E+02  0.16503495106E+03  0.17120031713E+03  0.00000000000E+00 0.  1.
          2    1    1    2  501    0 -0.15128641320E+03 -0.95952764806E+02  0.74392242428E+03  0.76518957471E+03  0.25500000000E-02 0.  1.
<mgrwt>
<rscale>  0 0.20321696E+03</rscale>
<asrwt>0</asrwt>
<pdfrwt beam="1">  1       11 0.10000000E+01 0.45530358E+02</pdfrwt>
<pdfrwt beam="2">  1        2 0.23208849E-01 0.20321696E+03</pdfrwt>
<totfact> 0.28735433E+02</totfact>
</mgrwt>
</event>
<event>
 5    1  0.6729100E-004  0.2706463E+03  0.7818608E-02  0.1100910E+00
         11   -1    0    0    0    0  0.00000000000E+00  0.00000000000E+00  0.99997109452E+03  0.99997109452E+03  0.51100000000E-03 0.  1.
         -2   -1    0    0    0  501 -0.00000000000E+00 -0.00000000000E+00 -0.40980550563E+03  0.40980550563E+03  0.25500000000E-02 0.  1.
         11    1    1    2    0    0 -0.31515639478E+03 -0.70601664531E+02  0.57788828206E+03  0.66201436144E+03  0.51100000000E-03 0.  1.
         22    1    1    2    0    0  0.48374589713E+02  0.62051818596E+02  0.32628532295E+03  0.33563766340E+03  0.00000000000E+00 0.  1.
         -2    1    1    2    0  501  0.26678180507E+03  0.85498459349E+01 -0.31400801612E+03  0.41212457531E+03  0.25500000000E-02 0.  1.
<mgrwt>
<rscale>  0 0.27064633E+03</rscale>
<asrwt>0</asrwt>
<pdfrwt beam="1">  1       11 0.10000000E+01 0.78679916E+02</pdfrwt>
<pdfrwt beam="2">  1       -2 0.63045177E-01 0.27064633E+03</pdfrwt>
<totfact> 0.19332560E+01</totfact>
</mgrwt>
</event>
<event>
 5    1  0.6729100E-004  0.2303481E+03  0.7818608E-02  0.1175151E+00
         11   -1    0    0    0    0  0.00000000000E+00  0.00000000000E+00  0.10006200208E+04  0.10006200208E+04  0.51100000000E-03 0. -1.
          2   -1    0    0  501    0 -0.00000000000E+00 -0.00000000000E+00 -0.36592253187E+03  0.36592253188E+03  0.25500000000E-02 0. -1.
         11    1    1    2    0    0  0.94440801517E+02 -0.27521270651E+03  0.45348676201E+03  0.53880547709E+03  0.51100000000E-03 0. -1.
         22    1    1    2    0    0 -0.17577070026E+03  0.12296197649E+03  0.45559794234E+03  0.50357171465E+03  0.00000000000E+00 0. -1.
          2    1    1    2  501    0  0.81329898741E+02  0.15225073003E+03 -0.27438721544E+03  0.32416536093E+03  0.25500000000E-02 0. -1.
<mgrwt>
<rscale>  0 0.17261181E+03</rscale>
<asrwt>0</asrwt>
<pdfrwt beam="1">  1       11 0.10000000E+01 0.23034808E+03</pdfrwt>
<pdfrwt beam="2">  1        2 0.56330677E-01 0.17261181E+03</pdfrwt>
<totfact> 0.10954347E+02</totfact>
</mgrwt>
</event>
<event>
 5    1  0.6729100E-004  0.1786360E+03  0.7818608E-02  0.1169130E+00
         11   -1    0    0    0    0  0.00000000000E+00  0.00000000000E+00  0.99994016176E+03  0.99994016176E+03  0.51100000000E-03 0. -1.
          2   -1    0    0  501    0 -0.00000000000E+00 -0.00000000000E+00 -0.24098280907E+04  0.24098280907E+04  0.25500000000E-02 0.  1.
         11    1    1    2    0    0  0.62862991900E+02 -0.18284522655E+03  0.50790201999E+03  0.54345983709E+03  0.51100000000E-03 0. -1.
         22    1    1    2    0    0 -0.10898774409E+03  0.10148067609E+02  0.46455024455E+03  0.47727166410E+03  0.00000000000E+00 0.  1.
          2    1    1    2  501    0  0.46124752195E+02  0.17269715894E+03 -0.23823401935E+04  0.23890367512E+04  0.25500000000E-02 0.  1.
<mgrwt>
<rscale>  0 0.17863603E+03</rscale>
<asrwt>0</asrwt>
<pdfrwt beam="1">  1       11 0.10000000E+01 0.10945918E+03</pdfrwt>
<pdfrwt beam="2">  1        2 0.37072059E+00 0.17863603E+03</pdfrwt>
<totfact> 0.59204077E+00</totfact>
</mgrwt>
</event>
<event>
 5    1  0.6729100E-004  0.4156159E+03  0.7818608E-02  0.1038503E+00
         11   -1    0    0    0    0  0.00000000000E+00  0.00000000000E+00  0.10003537933E+04  0.10003537933E+04  0.51100000000E-03 0.  1.
          2   -1    0    0  501    0 -0.00000000000E+00 -0.00000000000E+00 -0.83784734034E+03  0.83784734034E+03  0.25500000000E-02 0.  1.
         11    1    1    2    0    0  0.11928428236E+03  0.30715861918E+03  0.22826113551E+03  0.40084698245E+03  0.51100000000E-03 0.  1.
         22    1    1    2    0    0  0.17574698885E+03  0.15641482562E+02  0.60857438292E+03  0.63363588883E+03  0.00000000000E+00 0.  1.
          2    1    1    2  501    0 -0.29503127121E+03 -0.32280010174E+03 -0.67432906549E+03  0.80371826235E+03  0.25500000000E-02 0.  1.
<mgrwt>
<rscale>  0 0.41561591E+03</rscale>
<asrwt>0</asrwt>
<pdfrwt beam="1">  1       11 0.10000000E+01 0.17644166E+03</pdfrwt>
<pdfrwt beam="2">  1        2 0.12894519E+00 0.41561591E+03</pdfrwt>
<totfact> 0.41059263E+01</totfact>
</mgrwt>
</event>
<event>
 5    1  0.6729100E-004  0.4779809E+02  0.7818608E-02  0.1457593E+00
         11   -1    0    0    0    0  0.00000000000E+00  0.00000000000E+00  0.10000704597E+04  0.10000704597E+04  0.51100000000E-03 0.  1.
          2   -1    0    0  501    0 -0.00000000000E+00 -0.00000000000E+00 -0.12813570223E+02  0.12813570477E+02  0.25500000000E-02 0.  1.
         11    1    1    2    0    0 -0.40435176252E+02 -0.26401321293E+02  0.36904849318E+02  0.60778295040E+02  0.51100000000E-03 0.  1.
         22    1    1    2    0    0  0.98963303092E+01  0.22714042553E+01  0.56392171487E+02  0.57298984597E+02  0.00000000000E+00 0. -1.
          2    1    1    2  501    0  0.30538845942E+02  0.24129917038E+02  0.89395986872E+03  0.89480675059E+03  0.25500000000E-02 0.  1.
<mgrwt>
<rscale>  0 0.47798091E+02</rscale>
<asrwt>0</asrwt>
<pdfrwt beam="1">  1       11 0.10000000E+01 0.10153651E+02</pdfrwt>
<pdfrwt beam="2">  1        2 0.19714574E-02 0.47798091E+02</pdfrwt>
<totfact> 0.55388656E+03</totfact>
</mgrwt>
</event>
<event>
 5    1  0.6729100E-004  0.2230890E+03  0.7818608E-02  0.1354419E+00
         11   -1    0    0    0    0  0.00000000000E+00  0.00000000000E+00  0.10000564398E+04  0.10000564398E+04  0.51100000000E-03 0. -1.
          2   -1    0    0  501    0 -0.00000000000E+00 -0.00000000000E+00 -0.28583257958E+03  0.28583257959E+03  0.25500000000E-02 0. -1.
         11    1    1    2    0    0  0.26505669338E+03 -0.32368637593E+01  0.18453888895E+03  0.32298626833E+03  0.51100000000E-03 0. -1.
         22    1    1    2    0    0 -0.20922651117E+03  0.48218052225E+02  0.72432481863E+03  0.75547809791E+03  0.00000000000E+00 0. -1.
          2    1    1    2  501    0 -0.55830182213E+02 -0.44981188466E+02 -0.19463984734E+03  0.20742465317E+03  0.25500000000E-02 0. -1.
<mgrwt>
<rscale>  0 0.71696001E+02</rscale>
<asrwt>0</asrwt>
<pdfrwt beam="1">  1       11 0.10000000E+01 0.22308896E+03</pdfrwt>
<pdfrwt beam="2">  1        2 0.43976724E-01 0.71696001E+02</pdfrwt>
<totfact> 0.14178483E+02</totfact>
</mgrwt>
</event>
<event>
 5    1  0.6729100E-004  0.2116815E+03  0.7818608E-02  0.1205141E+00
         11   -1    0    0    0    0  0.00000000000E+00  0.00000000000E+00  0.10005475751E+04  0.10005475751E+04  0.51100000000E-03 0. -1.
          2   -1    0    0  501    0 -0.00000000000E+00 -0.00000000000E+00 -0.16006505176E+04  0.16006505176E+04  0.25500000000E-02 0. -1.
         11    1    1    2    0    0  0.18740697708E+03  0.21985577515E+03  0.18270573902E+03  0.34181767655E+03  0.51100000000E-03 0. -1.
         22    1    1    2    0    0 -0.18917187780E+03 -0.73602631862E+02  0.72071733043E+03  0.74875684781E+03  0.00000000000E+00 0. -1.
          2    1    1    2  501    0  0.17649007216E+01 -0.14625314329E+03 -0.15035260119E+04  0.15106235684E+04  0.25500000000E-02 0. -1.
<mgrwt>
<rscale>  0 0.14626379E+03</rscale>
<asrwt>0</asrwt>
<pdfrwt beam="1">  1       11 0.10000000E+01 0.21168155E+03</pdfrwt>
<pdfrwt beam="2">  1        2 0.24638876E+00 0.14626379E+03</pdfrwt>
<totfact> 0.15876437E+01</totfact>
</mgrwt>
</event>
<event>
 5    1  0.6729100E-004  0.1475219E+03  0.7818608E-02  0.1394576E+00
         11   -1    0    0    0    0  0.00000000000E+00  0.00000000000E+00  0.10004019593E+04  0.10004019593E+04  0.51100000000E-03 0. -1.
          2   -1    0    0  501    0 -0.00000000000E+00 -0.00000000000E+00 -0.79443685001E+03  0.79443685001E+03  0.25500000000E-02 0. -1.
         11    1    1    2    0    0  0.12656707468E+03 -0.14078605102E+03  0.20184517751E+03  0.27673346787E+03  0.51100000000E-03 0. -1.
         22    1    1    2    0    0 -0.68382450588E+02  0.12320495403E+03  0.75334940734E+03  0.76641434602E+03  0.00000000000E+00 0. -1.
          2    1    1    2  501    0 -0.58184624093E+02  0.17581096994E+02 -0.74922947559E+03  0.75169099539E+03  0.25500000000E-02 0. -1.
<mgrwt>
<rscale>  0 0.60782773E+02</rscale>
<asrwt>0</asrwt>
<pdfrwt beam="1">  1       11 0.10000000E+01 0.14752192E+03</pdfrwt>
<pdfrwt beam="2">  1        2 0.12227018E+00 0.60782773E+02</pdfrwt>
<totfact> 0.47212829E+01</totfact>
</mgrwt>
</event>
<event>
 5    1  0.6729100E-004  0.1444070E+03  0.7818608E-02  0.1207519E+00
         11   -1    0    0    0    0  0.00000000000E+00  0.00000000000E+00  0.10001711047E+04  0.10001711047E+04  0.51100000000E-03 0.  1.
         -2   -1    0    0    0  501 -0.00000000000E+00 -0.00000000000E+00 -0.21134027675E+02  0.21134027829E+02  0.25500000000E-02 0.  1.
         11    1    1    2    0    0 -0.10937675656E+03 -0.91160159092E+02  0.57040036761E+03  0.58790307777E+03  0.51100000000E-03 0.  1.
         22    1    1    2    0    0  0.22479620070E+02  0.13585975585E+02  0.10367856790E+03  0.10695399709E+03  0.00000000000E+00 0.  1.
         -2    1    1    2    0  501  0.86897136485E+02  0.77574183507E+02  0.30495814152E+03  0.32644805768E+03  0.25500000000E-02 0.  1.
<mgrwt>
<rscale>  0 0.14440700E+03</rscale>
<asrwt>0</asrwt>
<pdfrwt beam="1">  1       11 0.10000000E+01 0.14238486E+03</pdfrwt>
<pdfrwt beam="2">  1       -2 0.32519451E-02 0.14440700E+03</pdfrwt>
<totfact> 0.28184448E+03</totfact>
</mgrwt>
</event>
<event>
 5    1  0.6729100E-004  0.1966939E+03  0.7818608E-02  0.1177681E+00
         11   -1    0    0    0    0  0.00000000000E+00  0.00000000000E+00  0.10001200470E+04  0.10001200470E+04  0.51100000000E-03 0. -1.
          2   -1    0    0  501    0 -0.00000000000E+00 -0.00000000000E+00 -0.12822870792E+03  0.12822870794E+03  0.25500000000E-02 0. -1.
         11    1    1    2    0    0  0.15348645663E+03  0.13982371874E+03  0.70482662093E+03  0.73477161776E+03  0.51100000000E-03 0. -1.
         22    1    1    2    0    0  0.26267426307E+02 -0.14484367376E+03  0.15436831285E+03  0.21330551686E+03  0.00000000000E+00 0. -1.
          2    1    1    2  501    0 -0.17975388294E+03  0.50199550245E+01  0.12696405312E+02  0.18027162033E+03  0.25500000000E-02 0. -1.
<mgrwt>
<rscale>  0 0.17016041E+03</rscale>
<asrwt>0</asrwt>
<pdfrwt beam="1">  1       11 0.10000000E+01 0.19669391E+03</pdfrwt>
<pdfrwt beam="2">  1        2 0.19729861E-01 0.17016041E+03</pdfrwt>
<totfact> 0.34366419E+02</totfact>
</mgrwt>
</event>
<event>
 5    1  0.6729100E-004  0.1922751E+03  0.7818608E-02  0.1156425E+00
         11   -1    0    0    0    0  0.00000000000E+00  0.00000000000E+00  0.10000638433E+04  0.10000638433E+04  0.51100000000E-03 0.  1.
         -2   -1    0    0    0  501 -0.00000000000E+00 -0.00000000000E+00 -0.10393074006E+03  0.10393074009E+03  0.25500000000E-02 0. -1.
         11    1    1    2    0    0 -0.16081389307E+03 -0.91370085335E+02  0.80697462488E+03  0.82789953853E+03  0.51100000000E-03 0.  1.
         22    1    1    2    0    0 -0.18129910251E+02  0.18110206408E+02  0.78349448182E+02  0.82433665770E+02  0.00000000000E+00 0.  1.
         -2    1    1    2    0  501  0.17894380332E+03  0.73259878927E+02  0.10809030164E+02  0.19366137908E+03  0.25500000000E-02 0. -1.
<mgrwt>
<rscale>  0 0.19227505E+03</rscale>
<asrwt>0</asrwt>
<pdfrwt beam="1">  1       11 0.10000000E+01 0.25625636E+02</pdfrwt>
<pdfrwt beam="2">  1       -2 0.15990365E-01 0.19227505E+03</pdfrwt>
<totfact> 0.24357228E+02</totfact>
</mgrwt>
</event>
<event>
 5    1  0.6729100E-004  0.1186597E+03  0.7818608E-02  0.1349984E+00
         11   -1    0    0    0    0  0.00000000000E+00  0.00000000000E+00  0.10002128603E+04  0.10002128603E+04  0.51100000000E-03 0. -1.
          2   -1    0    0  501    0 -0.00000000000E+00 -0.00000000000E+00 -0.62542930078E+02  0.62542930130E+02  0.25500000000E-02 0. -1.
         11    1    1    2    0    0 -0.43806715742E+02 -0.13354574936E+03  0.66319864475E+03  0.67792767897E+03  0.51100000000E-03 0. -1.
         22    1    1    2    0    0  0.75743319221E+02  0.67834957158E+02  0.29242138736E+03  0.30959473446E+03  0.00000000000E+00 0. -1.
          2    1    1    2  501    0 -0.31936603479E+02  0.65710792201E+02 -0.17950101872E+02  0.75233377016E+02  0.25500000000E-02 0. -1.
<mgrwt>
<rscale>  0 0.73060625E+02</rscale>
<asrwt>0</asrwt>
<pdfrwt beam="1">  1       11 0.10000000E+01 0.11865970E+03</pdfrwt>
<pdfrwt beam="2">  1        2 0.96240371E-02 0.73060625E+02</pdfrwt>
<totfact> 0.76676754E+02</totfact>
</mgrwt>
</event>
<event>
 5    1  0.6729100E-004  0.4012127E+03  0.7818608E-02  0.1043361E+00
         11   -1    0    0    0    0  0.00000000000E+00  0.00000000000E+00  0.99996327395E+03  0.99996327395E+03  0.51100000000E-03 0.  1.
          2   -1    0    0  501    0 -0.00000000000E+00 -0.00000000000E+00 -0.58658590412E+03  0.58658590413E+03  0.25500000000E-02 0.  1.
         11    1    1    2    0    0  0.17197502024E+03  0.52486340783E+03  0.61355837375E+03  0.82553672387E+03  0.51100000000E-03 0.  1.
         22    1    1    2    0    0 -0.21383884025E+03 -0.14043213348E+03  0.96695366064E+02  0.27349264621E+03  0.00000000000E+00 0.  1.
          2    1    1    2  501    0  0.41863820009E+02 -0.38443127435E+03 -0.29687636999E+03  0.48751980800E+03  0.25500000000E-02 0.  1.
<mgrwt>
<rscale>  0 0.40121270E+03</rscale>
<asrwt>0</asrwt>
<pdfrwt beam="1">  1       11 0.10000000E+01 0.25582852E+03</pdfrwt>
<pdfrwt beam="2">  1        2 0.90240668E-01 0.40121270E+03</pdfrwt>
<totfact> 0.64040346E+01</totfact>
</mgrwt>
</event>
<event>
 5    1  0.6729100E-004  0.1679482E+03  0.7818608E-02  0.1189310E+00
         11   -1    0    0    0    0  0.00000000000E+00  0.00000000000E+00  0.10003274122E+04  0.10003274122E+04  0.51100000000E-03 0. -1.
          2   -1    0    0  501    0 -0.00000000000E+00 -0.00000000000E+00 -0.43577513593E+02  0.43577513667E+02  0.25500000000E-02 0. -1.
         11    1    1    2    0    0  0.49320484890E+02  0.10719920469E+03  0.56125272974E+03  0.57352315242E+03  0.51100000000E-03 0. -1.
         22    1    1    2    0    0  0.45159356657E+02  0.21255006986E+02  0.24864271433E+03  0.25360272516E+03  0.00000000000E+00 0. -1.
          2    1    1    2  501    0 -0.94479841547E+02 -0.12845421168E+03  0.14685445453E+03  0.21677904829E+03  0.25500000000E-02 0. -1.
<mgrwt>
<rscale>  0 0.15945822E+03</rscale>
<asrwt>0</asrwt>
<pdfrwt beam="1">  1       11 0.10000000E+01 0.16794817E+03</pdfrwt>
<pdfrwt beam="2">  1        2 0.67064277E-02 0.15945822E+03</pdfrwt>
<totfact> 0.12685987E+03</totfact>
</mgrwt>
</event>
<event>
 5    1  0.6729100E-004  0.9935195E+02  0.7818608E-02  0.1385384E+00
         11   -1    0    0    0    0  0.00000000000E+00  0.00000000000E+00  0.10001925429E+04  0.10001925429E+04  0.51100000000E-03 0. -1.
         -2   -1    0    0    0  501 -0.00000000000E+00 -0.00000000000E+00 -0.32879540136E+03  0.32879540137E+03  0.25500000000E-02 0.  1.
         11    1    1    2    0    0 -0.86104429194E+02 -0.72774084906E+02  0.38693808553E+03  0.40302744596E+03  0.51100000000E-03 0. -1.
         22    1    1    2    0    0  0.27106103369E+02  0.95066406878E+02  0.59801188803E+03  0.60612752848E+03  0.00000000000E+00 0. -1.
         -2    1    1    2    0  501  0.58998325824E+02 -0.22292321973E+02 -0.31355283205E+03  0.31983296979E+03  0.25500000000E-02 0.  1.
<mgrwt>
<rscale>  0 0.63069407E+02</rscale>
<asrwt>0</asrwt>
<pdfrwt beam="1">  1       11 0.10000000E+01 0.99351946E+02</pdfrwt>
<pdfrwt beam="2">  1       -2 0.50593646E-01 0.63069407E+02</pdfrwt>
<totfact> 0.30427520E+01</totfact>
</mgrwt>
</event>
<event>
 5    1  0.6729100E-004  0.2988556E+03  0.7818608E-02  0.1085814E+00
         11   -1    0    0    0    0  0.00000000000E+00  0.00000000000E+00  0.10005031975E+04  0.10005031975E+04  0.51100000000E-03 0. -1.
          2   -1    0    0  501    0 -0.00000000000E+00 -0.00000000000E+00 -0.19705080789E+03  0.19705080791E+03  0.25500000000E-02 0. -1.
         11    1    1    2    0    0 -0.29968116545E+03  0.12612291141E+03  0.72317714032E+03  0.79290665655E+03  0.51100000000E-03 0. -1.
         22    1    1    2    0    0  0.20890160497E+02 -0.31982468127E+02  0.10266367599E+03  0.10954043747E+03  0.00000000000E+00 0. -1.
          2    1    1    2  501    0  0.27879100495E+03 -0.94140443286E+02 -0.22388426700E+02  0.29510691141E+03  0.25500000000E-02 0. -1.
<mgrwt>
<rscale>  0 0.29885559E+03</rscale>
<asrwt>0</asrwt>
<pdfrwt beam="1">  1       11 0.10000000E+01 0.38200485E+02</pdfrwt>
<pdfrwt beam="2">  1        2 0.30330763E-01 0.29885559E+03</pdfrwt>
<totfact> 0.21476217E+02</totfact>
</mgrwt>
</event>
<event>
 5    1  0.6729100E-004  0.2092936E+03  0.7818608E-02  0.1147668E+00
         11   -1    0    0    0    0  0.00000000000E+00  0.00000000000E+00  0.10003743021E+04  0.10003743021E+04  0.51100000000E-03 0. -1.
          2   -1    0    0  501    0 -0.00000000000E+00 -0.00000000000E+00 -0.11983489632E+03  0.11983489635E+03  0.25500000000E-02 0. -1.
         11    1    1    2    0    0 -0.15807758278E+03 -0.11173673947E+03  0.81183215788E+03  0.83459275919E+03  0.51100000000E-03 0. -1.
         22    1    1    2    0    0 -0.14305930361E+02  0.55304692504E+01  0.81316059414E+02  0.82749907868E+02  0.00000000000E+00 0.  1.
          2    1    1    2  501    0  0.17238351314E+03  0.10620627022E+03 -0.12608811488E+02  0.20286653142E+03  0.25500000000E-02 0. -1.
<mgrwt>
<rscale>  0 0.20247431E+03</rscale>
<asrwt>0</asrwt>
<pdfrwt beam="1">  1       11 0.10000000E+01 0.20929365E+03</pdfrwt>
<pdfrwt beam="2">  1        2 0.18443038E-01 0.20247431E+03</pdfrwt>
<totfact> 0.37332669E+02</totfact>
</mgrwt>
</event>
<event>
 5    1  0.6729100E-004  0.8753643E+02  0.7818608E-02  0.1406296E+00
         11   -1    0    0    0    0  0.00000000000E+00  0.00000000000E+00  0.10006072773E+04  0.10006072773E+04  0.51100000000E-03 0.  1.
          2   -1    0    0  501    0 -0.00000000000E+00 -0.00000000000E+00 -0.30715626256E+03  0.30715626257E+03  0.25500000000E-02 0. -1.
         11    1    1    2    0    0  0.75989474369E+02 -0.62333295060E+02  0.47092438182E+03  0.48107131829E+03  0.51100000000E-03 0.  1.
         22    1    1    2    0    0 -0.22346365986E+02  0.84463590465E+02  0.51813115810E+03  0.52544586323E+03  0.00000000000E+00 0.  1.
          2    1    1    2  501    0 -0.53643108383E+02 -0.22130295405E+02 -0.29560452523E+03  0.30124635831E+03  0.25500000000E-02 0. -1.
<mgrwt>
<rscale>  0 0.58028726E+02</rscale>
<asrwt>0</asrwt>
<pdfrwt beam="1">  1       11 0.10000000E+01 0.87536426E+02</pdfrwt>
<pdfrwt beam="2">  1        2 0.47283505E-01 0.58028726E+02</pdfrwt>
<totfact> 0.13129122E+02</totfact>
</mgrwt>
</event>
<event>
 5    1  0.6729100E-004  0.2901692E+03  0.7818608E-02  0.1090261E+00
         11   -1    0    0    0    0  0.00000000000E+00  0.00000000000E+00  0.10001788429E+04  0.10001788429E+04  0.51100000000E-03 0. -1.
          2   -1    0    0  501    0 -0.00000000000E+00 -0.00000000000E+00 -0.29861542349E+03  0.29861542350E+03  0.25500000000E-02 0. -1.
         11    1    1    2    0    0 -0.24976432214E+03 -0.17245786171E+03  0.75387204799E+03  0.81267890056E+03  0.51100000000E-03 0. -1.
         22    1    1    2    0    0  0.12794981259E+01  0.25071315448E+02  0.13793191598E+03  0.14019779392E+03  0.00000000000E+00 0.  1.
          2    1    1    2  501    0  0.24848482401E+03  0.14738654627E+03 -0.19024054453E+03  0.34591757194E+03  0.25500000000E-02 0. -1.
<mgrwt>
<rscale>  0 0.29016920E+03</rscale>
<asrwt>0</asrwt>
<pdfrwt beam="1">  1       11 0.10000000E+01 0.25103943E+02</pdfrwt>
<pdfrwt beam="2">  1        2 0.45949049E-01 0.29016920E+03</pdfrwt>
<totfact> 0.13637924E+02</totfact>
</mgrwt>
</event>
<event>
 5    1  0.6729100E-004  0.3236895E+03  0.7818608E-02  0.1255220E+00
         11   -1    0    0    0    0  0.00000000000E+00  0.00000000000E+00  0.10002900143E+04  0.10002900143E+04  0.51100000000E-03 0.  1.
          2   -1    0    0  501    0 -0.00000000000E+00 -0.00000000000E+00 -0.73625018647E+03  0.73625018647E+03  0.25500000000E-02 0.  1.
         11    1    1    2    0    0 -0.19294227496E+02 -0.39168364330E+03 -0.12802440848E+03  0.41252708131E+03  0.51100000000E-03 0.  1.
         22    1    1    2    0    0  0.90576075305E+02  0.30407986051E+03  0.82114833512E+03  0.88031424802E+03  0.00000000000E+00 0.  1.
          2    1    1    2  501    0 -0.71281847809E+02  0.87603782797E+02 -0.42908409886E+03  0.44369887141E+03  0.25500000000E-02 0.  1.
<mgrwt>
<rscale>  0 0.11294036E+03</rscale>
<asrwt>0</asrwt>
<pdfrwt beam="1">  1       11 0.10000000E+01 0.32368955E+03</pdfrwt>
<pdfrwt beam="2">  1        2 0.11330211E+00 0.11294036E+03</pdfrwt>
<totfact> 0.50607201E+01</totfact>
</mgrwt>
</event>
<event>
 5    1  0.6729100E-004  0.2421292E+03  0.7818608E-02  0.1326441E+00
         11   -1    0    0    0    0  0.00000000000E+00  0.00000000000E+00  0.10002643666E+04  0.10002643666E+04  0.51100000000E-03 0. -1.
          2   -1    0    0  501    0 -0.00000000000E+00 -0.00000000000E+00 -0.17425040892E+03  0.17425040894E+03  0.25500000000E-02 0. -1.
         11    1    1    2    0    0 -0.44622643866E+01  0.20849717376E+03  0.28506504626E+03  0.35320399753E+03  0.51100000000E-03 0. -1.
         22    1    1    2    0    0 -0.51610790240E+02 -0.26684976322E+03  0.63886670859E+03  0.69427886411E+03  0.00000000000E+00 0. -1.
          2    1    1    2  501    0  0.56073054626E+02  0.58352589464E+02 -0.97917797144E+02  0.12703191393E+03  0.25500000000E-02 0. -1.
<mgrwt>
<rscale>  0 0.80927203E+02</rscale>
<asrwt>0</asrwt>
<pdfrwt beam="1">  1       11 0.10000000E+01 0.24212924E+03</pdfrwt>
<pdfrwt beam="2">  1        2 0.26814842E-01 0.80927203E+02</pdfrwt>
<totfact> 0.23929026E+02</totfact>
</mgrwt>
</event>
<event>
 5    1  0.6729100E-004  0.3150878E+03  0.7818608E-02  0.1077933E+00
         11   -1    0    0    0    0  0.00000000000E+00  0.00000000000E+00  0.10001273299E+04  0.10001273299E+04  0.51100000000E-03 0.  1.
         -2   -1    0    0    0  501 -0.00000000000E+00 -0.00000000000E+00 -0.39300699435E+03  0.39300699436E+03  0.25500000000E-02 0. -1.
         11    1    1    2    0    0 -0.31268903935E+03 -0.14500975097E+03  0.73141858733E+03  0.80856379656E+03  0.51100000000E-03 0.  1.
         22    1    1    2    0    0  0.32161923490E+02  0.74573899436E+01  0.15925916519E+03  0.16264526948E+03  0.00000000000E+00 0. -1.
         -2    1    1    2    0  501  0.28052711586E+03  0.13755236102E+03 -0.28355741700E+03  0.42192525819E+03  0.25500000000E-02 0. -1.
<mgrwt>
<rscale>  0 0.31508777E+03</rscale>
<asrwt>0</asrwt>
<pdfrwt beam="1">  1       11 0.10000000E+01 0.33015178E+02</pdfrwt>
<pdfrwt beam="2">  1       -2 0.60470311E-01 0.31508777E+03</pdfrwt>
<totfact> 0.21053742E+01</totfact>
</mgrwt>
</event>
<event>
 5    1  0.6729100E-004  0.1742546E+03  0.7818608E-02  0.1173482E+00
         11   -1    0    0    0    0  0.00000000000E+00  0.00000000000E+00  0.10002463111E+04  0.10002463111E+04  0.51100000000E-03 0.  1.
          2   -1    0    0  501    0 -0.00000000000E+00 -0.00000000000E+00 -0.96090095798E+03  0.96090095799E+03  0.25500000000E-02 0.  1.
         11    1    1    2    0    0  0.32016113434E+01  0.15937640866E+03  0.86172641946E+03  0.87634668479E+03  0.51100000000E-03 0.  1.
         22    1    1    2    0    0  0.98716674018E+02 -0.17540049089E+02  0.10261134534E+03  0.14346331672E+03  0.00000000000E+00 0. -1.
          2    1    1    2  501    0 -0.10191828536E+03 -0.14183635957E+03 -0.92499241165E+03  0.94133726761E+03  0.25500000000E-02 0.  1.
<mgrwt>
<rscale>  0 0.17425456E+03</rscale>
<asrwt>0</asrwt>
<pdfrwt beam="1">  1       11 0.10000000E+01 0.10026283E+03</pdfrwt>
<pdfrwt beam="2">  1        2 0.14786732E+00 0.17425456E+03</pdfrwt>
<totfact> 0.35436173E+01</totfact>
</mgrwt>
</event>
<event>
 5    1  0.6729100E-004  0.1709751E+03  0.7818608E-02  0.1180677E+00
         11   -1    0    0    0    0  0.00000000000E+00  0.00000000000E+00  0.99994699259E+03  0.99994699259E+03  0.51100000000E-03 0. -1.
          2   -1    0    0  501    0 -0.00000000000E+00 -0.00000000000E+00 -0.47718545582E+02  0.47718545650E+02  0.25500000000E-02 0. -1.
         11    1    1    2    0    0 -0.13953664450E+03  0.29365956154E+02  0.67181904457E+03  0.68678501962E+03  0.51100000000E-03 0. -1.
         22    1    1    2    0    0 -0.26627645723E+02 -0.97755900913E+01  0.13884253686E+03  0.14171042205E+03  0.00000000000E+00 0.  1.
          2    1    1    2  501    0  0.16616429023E+03 -0.19590366062E+02  0.14156686559E+03  0.21917009657E+03  0.25500000000E-02 0. -1.
<mgrwt>
<rscale>  0 0.16731513E+03</rscale>
<asrwt>0</asrwt>
<pdfrwt beam="1">  1       11 0.10000000E+01 0.17097514E+03</pdfrwt>
<pdfrwt beam="2">  1        2 0.73409254E-02 0.16731513E+03</pdfrwt>
<totfact> 0.11338257E+03</totfact>
</mgrwt>
</event>
<event>
 5    1  0.6729100E-004  0.2765234E+03  0.7818608E-02  0.1102103E+00
         11   -1    0    0    0    0  0.00000000000E+00  0.00000000000E+00  0.10001294888E+04  0.10001294888E+04  0.51100000000E-03 0.  1.
          2   -1    0    0  501    0 -0.00000000000E+00 -0.00000000000E+00 -0.51755176948E+03  0.51755176948E+03  0.25500000000E-02 0.  1.
         11    1    1    2    0    0  0.79819322664E+02  0.32902229787E+03  0.21859528292E+03  0.40300210233E+03  0.51100000000E-03 0.  1.
         22    1    1    2    0    0  0.16986405697E+03 -0.23010019751E+03  0.61173610269E+03  0.67529323858E+03  0.00000000000E+00 0. -1.
          2    1    1    2  501    0 -0.24968337963E+03 -0.98922100362E+02 -0.34775366626E+03  0.43938591740E+03  0.25500000000E-02 0.  1.
<mgrwt>
<rscale>  0 0.26856540E+03</rscale>
<asrwt>0</asrwt>
<pdfrwt beam="1">  1       11 0.10000000E+01 0.27652337E+03</pdfrwt>
<pdfrwt beam="2">  1        2 0.79633657E-01 0.26856540E+03</pdfrwt>
<totfact> 0.74574970E+01</totfact>
</mgrwt>
</event>
<event>
 5    1  0.2971563E-003  0.1852386E+03  0.7818608E-02  0.1162827E+00
         11   -1    0    0    0    0  0.00000000000E+00  0.00000000000E+00  0.99898708040E+03  0.99898708040E+03  0.51100000000E-03 0. -1.
          2   -1    0    0  501    0 -0.00000000000E+00 -0.00000000000E+00 -0.32178910763E+04  0.32178910763E+04  0.25500000000E-02 0. -1.
         11    1    1    2    0    0 -0.20339207068E+02  0.19089356411E+03  0.89993089872E+03  0.92017914486E+03  0.51100000000E-03 0. -1.
         22    1    1    2    0    0 -0.14988882906E+02 -0.90730642555E+01  0.85367850726E+02  0.87147329525E+02  0.00000000000E+00 0. -1.
          2    1    1    2  501    0  0.35328089974E+02 -0.18182049985E+03 -0.32042027453E+04  0.32095516823E+04  0.25500000000E-02 0. -1.
<mgrwt>
<rscale>  0 0.18523859E+03</rscale>
<asrwt>0</asrwt>
<pdfrwt beam="1">  1       11 0.10000000E+01 0.17521048E+02</pdfrwt>
<pdfrwt beam="2">  1        2 0.49455870E+00 0.18523859E+03</pdfrwt>
<totfact> 0.20564063E+00</totfact>
</mgrwt>
</event>
<event>
 5    1  0.6729100E-004  0.1431671E+03  0.7818608E-02  0.1220454E+00
         11   -1    0    0    0    0  0.00000000000E+00  0.00000000000E+00  0.99984695646E+03  0.99984695646E+03  0.51100000000E-03 0.  1.
          2   -1    0    0  501    0 -0.00000000000E+00 -0.00000000000E+00 -0.21114860831E+02  0.21114860985E+02  0.25500000000E-02 0. -1.
         11    1    1    2    0    0  0.67131851758E+02  0.42331317790E+02  0.32503368886E+03  0.33458261294E+03  0.51100000000E-03 0.  1.
         22    1    1    2    0    0  0.21913471613E+02  0.58916782162E+02  0.32635779638E+03  0.33235643324E+03  0.00000000000E+00 0.  1.
          2    1    1    2  501    0 -0.89045323372E+02 -0.10124809995E+03  0.32734061039E+03  0.35402277126E+03  0.25500000000E-02 0. -1.
<mgrwt>
<rscale>  0 0.13483415E+03</rscale>
<asrwt>0</asrwt>
<pdfrwt beam="1">  1       11 0.10000000E+01 0.14316712E+03</pdfrwt>
<pdfrwt beam="2">  1        2 0.32479429E-02 0.13483415E+03</pdfrwt>
<totfact> 0.32411985E+03</totfact>
</mgrwt>
</event>
<event>
 5    1  0.6729100E-004  0.3580255E+03  0.7818608E-02  0.1059368E+00
         11   -1    0    0    0    0  0.00000000000E+00  0.00000000000E+00  0.10002540002E+04  0.10002540002E+04  0.51100000000E-03 0. -1.
          2   -1    0    0  501    0 -0.00000000000E+00 -0.00000000000E+00 -0.14136028870E+03  0.14136028872E+03  0.25500000000E-02 0. -1.
         11    1    1    2    0    0 -0.26628135928E+03  0.23306120691E+03  0.28722391282E+03  0.45576404483E+03  0.51100000000E-03 0. -1.
         22    1    1    2    0    0 -0.53930727849E+01  0.10184659635E+02  0.36317314736E+02  0.38101966821E+02  0.00000000000E+00 0.  1.
          2    1    1    2  501    0  0.27167443207E+03 -0.24324586654E+03  0.53535248393E+03  0.64774827725E+03  0.25500000000E-02 0. -1.
<mgrwt>
<rscale>  0 0.35802549E+03</rscale>
<asrwt>0</asrwt>
<pdfrwt beam="1">  1       11 0.10000000E+01 0.11524432E+02</pdfrwt>
<pdfrwt beam="2">  1        2 0.21753260E-01 0.35802549E+03</pdfrwt>
<totfact> 0.31336000E+02</totfact>
</mgrwt>
</event>
<event>
 5    1  0.6729100E-004  0.3848221E+03  0.7818608E-02  0.1052548E+00
         11   -1    0    0    0    0  0.00000000000E+00  0.00000000000E+00  0.10008833044E+04  0.10008833044E+04  0.51100000000E-03 0.  1.
          2   -1    0    0  501    0 -0.00000000000E+00 -0.00000000000E+00 -0.17939459703E+04  0.17939459703E+04  0.25500000000E-02 0.  1.
         11    1    1    2    0    0 -0.25427140354E+03 -0.19338107294E+03  0.76555687442E+03  0.82953451646E+03  0.51100000000E-03 0.  1.
         22    1    1    2    0    0 -0.22063371228E+02 -0.61105621703E+02  0.17748998381E+03  0.18900630600E+03  0.00000000000E+00 0.  1.
          2    1    1    2  501    0  0.27633477477E+03  0.25448669464E+03 -0.17361095242E+04  0.17762884522E+04  0.25500000000E-02 0.  1.
<mgrwt>
<rscale>  0 0.37566526E+03</rscale>
<asrwt>0</asrwt>
<pdfrwt beam="1">  1       11 0.10000000E+01 0.38482208E+03</pdfrwt>
<pdfrwt beam="2">  1        2 0.27623546E+00 0.37566526E+03</pdfrwt>
<totfact> 0.11596522E+01</totfact>
</mgrwt>
</event>
<event>
 5    1  0.6729100E-004  0.1460876E+03  0.7818608E-02  0.1660638E+00
         11   -1    0    0    0    0  0.00000000000E+00  0.00000000000E+00  0.10004603607E+04  0.10004603607E+04  0.51100000000E-03 0. -1.
          2   -1    0    0  501    0 -0.00000000000E+00 -0.00000000000E+00 -0.67860825788E+03  0.67860825788E+03  0.25500000000E-02 0.  1.
         11    1    1    2    0    0 -0.10383455933E+03  0.10663507615E+03  0.67460331648E+03  0.69082725032E+03  0.51100000000E-03 0. -1.
         22    1    1    2    0    0  0.80923795830E+02 -0.11670313892E+03  0.30162566031E+03  0.33338614596E+03  0.00000000000E+00 0. -1.
          2    1    1    2  501    0  0.22910763503E+02  0.10068062769E+02 -0.65437687397E+03  0.65485522230E+03  0.25500000000E-02 0.  1.
<mgrwt>
<rscale>  0 0.25025367E+02</rscale>
<asrwt>0</asrwt>
<pdfrwt beam="1">  1       11 0.10000000E+01 0.14608761E+03</pdfrwt>
<pdfrwt beam="2">  1        2 0.10444933E+00 0.25025367E+02</pdfrwt>
<totfact> 0.58115630E+01</totfact>
</mgrwt>
</event>
<event>
 5    1  0.6729100E-004  0.2157544E+03  0.7818608E-02  0.1648999E+00
         11   -1    0    0    0    0  0.00000000000E+00  0.00000000000E+00  0.99996523175E+03  0.99996523175E+03  0.51100000000E-03 0. -1.
          2   -1    0    0  501    0 -0.00000000000E+00 -0.00000000000E+00 -0.20471252727E+03  0.20471252728E+03  0.25500000000E-02 0. -1.
         11    1    1    2    0    0  0.17372707326E+03 -0.14172599505E+03  0.60822495864E+03  0.64823217597E+03  0.51100000000E-03 0. -1.
         22    1    1    2    0    0 -0.16769193338E+03  0.11658394768E+03  0.34253604645E+03  0.39880238777E+03  0.00000000000E+00 0. -1.
          2    1    1    2  501    0 -0.60351398798E+01  0.25142047362E+02 -0.15550830060E+03  0.15764319529E+03  0.25500000000E-02 0. -1.
<mgrwt>
<rscale>  0 0.25856246E+02</rscale>
<asrwt>0</asrwt>
<pdfrwt beam="1">  1       11 0.10000000E+01 0.21575439E+03</pdfrwt>
<pdfrwt beam="2">  1        2 0.31493139E-01 0.25856246E+02</pdfrwt>
<totfact> 0.19498663E+02</totfact>
</mgrwt>
</event>
<event>
 5    1  0.6729100E-004  0.1370789E+03  0.7818608E-02  0.1217314E+00
         11   -1    0    0    0    0  0.00000000000E+00  0.00000000000E+00  0.10000574827E+04  0.10000574827E+04  0.51100000000E-03 0. -1.
          2   -1    0    0  501    0 -0.00000000000E+00 -0.00000000000E+00 -0.41020936958E+02  0.41020937037E+02  0.25500000000E-02 0. -1.
         11    1    1    2    0    0 -0.84422601913E+02  0.93970101385E+02  0.75910367461E+02  0.14737686235E+03  0.51100000000E-03 0. -1.
         22    1    1    2    0    0  0.68852880080E+02 -0.63904842362E+02  0.47671055257E+03  0.48587806999E+03  0.00000000000E+00 0. -1.
          2    1    1    2  501    0  0.15569721833E+02 -0.30065259023E+02  0.40641562575E+03  0.40782348742E+03  0.25500000000E-02 0. -1.
<mgrwt>
<rscale>  0 0.13707891E+03</rscale>
<asrwt>0</asrwt>
<pdfrwt beam="1">  1       11 0.10000000E+01 0.12632328E+03</pdfrwt>
<pdfrwt beam="2">  1        2 0.63112760E-02 0.13707891E+03</pdfrwt>
<totfact> 0.13566900E+03</totfact>
</mgrwt>
</event>
<event>
 5    1  0.6729100E-004  0.4645899E+02  0.7818608E-02  0.1553155E+00
         11   -1    0    0    0    0  0.00000000000E+00  0.00000000000E+00  0.10000829291E+04  0.10000829291E+04  0.51100000000E-03 0. -1.
          2   -1    0    0  501    0 -0.00000000000E+00 -0.00000000000E+00 -0.81526036144E+01  0.81526040132E+01  0.25500000000E-02 0. -1.
         11    1    1    2    0    0 -0.62174090575E+02 -0.11804621483E+02  0.35013696519E+03  0.35581014744E+03  0.51100000000E-03 0. -1.
         22    1    1    2    0    0  0.19835118766E+02  0.16196847632E+02  0.31259525932E+02  0.40409501001E+02  0.00000000000E+00 0. -1.
          2    1    1    2  501    0  0.42338971809E+02 -0.43922261490E+01  0.61053383440E+03  0.61201588471E+03  0.25500000000E-02 0. -1.
<mgrwt>
<rscale>  0 0.34492338E+02</rscale>
<asrwt>0</asrwt>
<pdfrwt beam="1">  1       11 0.10000000E+01 0.46458991E+02</pdfrwt>
<pdfrwt beam="2">  1        2 0.12543507E-02 0.34492338E+02</pdfrwt>
<totfact> 0.95147251E+03</totfact>
</mgrwt>
</event>
<event>
 5    1  0.6729100E-004  0.7548866E+02  0.7818608E-02  0.1342364E+00
         11   -1    0    0    0    0  0.00000000000E+00  0.00000000000E+00  0.10001263479E+04  0.10001263479E+04  0.51100000000E-03 0. -1.
          2   -1    0    0  501    0 -0.00000000000E+00 -0.00000000000E+00 -0.41980273723E+02  0.41980273800E+02  0.25500000000E-02 0. -1.
         11    1    1    2    0    0 -0.38593422995E+02  0.40320832166E+02 -0.13204062922E+02  0.57354765128E+02  0.51100000000E-03 0. -1.
         22    1    1    2    0    0  0.69969365911E+02  0.36018999030E+02  0.42918575411E+03  0.43634102717E+03  0.00000000000E+00 0. -1.
          2    1    1    2  501    0 -0.31375942917E+02 -0.76339831196E+02  0.54216438296E+03  0.54841082938E+03  0.25500000000E-02 0. -1.
<mgrwt>
<rscale>  0 0.75488657E+02</rscale>
<asrwt>0</asrwt>
<pdfrwt beam="1">  1       11 0.10000000E+01 0.55814200E+02</pdfrwt>
<pdfrwt beam="2">  1        2 0.64593195E-02 0.75488657E+02</pdfrwt>
<totfact> 0.12569312E+03</totfact>
</mgrwt>
</event>
<event>
 5    1  0.6729100E-004  0.1846929E+03  0.7818608E-02  0.1163337E+00
         11   -1    0    0    0    0  0.00000000000E+00  0.00000000000E+00  0.99998834150E+03  0.99998834150E+03  0.51100000000E-03 0. -1.
          2   -1    0    0  501    0 -0.00000000000E+00 -0.00000000000E+00 -0.32842793910E+02  0.32842794009E+02  0.25500000000E-02 0. -1.
         11    1    1    2    0    0 -0.16506678111E+03 -0.44977952220E+02  0.36719309123E+03  0.40509359987E+03  0.51100000000E-03 0. -1.
         22    1    1    2    0    0  0.37935817331E+02 -0.18929073988E+02  0.14001820253E+03  0.14629604615E+03  0.00000000000E+00 0.  1.
          2    1    1    2  501    0  0.12713096377E+03  0.63907026208E+02  0.45993425384E+03  0.48144148950E+03  0.25500000000E-02 0. -1.
<mgrwt>
<rscale>  0 0.18469289E+03</rscale>
<asrwt>0</asrwt>
<pdfrwt beam="1">  1       11 0.10000000E+01 0.17108503E+03</pdfrwt>
<pdfrwt beam="2">  1        2 0.50526785E-02 0.18469289E+03</pdfrwt>
<totfact> 0.18520991E+03</totfact>
</mgrwt>
</event>
<event>
 5    1  0.6729100E-004  0.2206371E+03  0.7818608E-02  0.1133409E+00
         11   -1    0    0    0    0  0.00000000000E+00  0.00000000000E+00  0.10002637451E+04  0.10002637451E+04  0.51100000000E-03 0. -1.
          2   -1    0    0  501    0 -0.00000000000E+00 -0.00000000000E+00 -0.99288561407E+02  0.99288561440E+02  0.25500000000E-02 0. -1.
         11    1    1    2    0    0 -0.21554598691E+03 -0.17615154199E+02  0.79702620982E+03  0.82584571517E+03  0.51100000000E-03 0. -1.
         22    1    1    2    0    0 -0.57867079368E+01  0.10098956414E+02  0.42233168850E+02  0.43807710058E+02  0.00000000000E+00 0. -1.
          2    1    1    2  501    0  0.22133269484E+03  0.75161977847E+01  0.61715805036E+02  0.22989888132E+03  0.25500000000E-02 0. -1.
<mgrwt>
<rscale>  0 0.22063713E+03</rscale>
<asrwt>0</asrwt>
<pdfrwt beam="1">  1       11 0.10000000E+01 0.11639369E+02</pdfrwt>
<pdfrwt beam="2">  1        2 0.15279192E-01 0.22063713E+03</pdfrwt>
<totfact> 0.46657906E+02</totfact>
</mgrwt>
</event>
<event>
 5    1  0.6729100E-004  0.4386219E+03  0.7818608E-02  0.1031170E+00
         11   -1    0    0    0    0  0.00000000000E+00  0.00000000000E+00  0.10002865548E+04  0.10002865548E+04  0.51100000000E-03 0. -1.
          2   -1    0    0  501    0 -0.00000000000E+00 -0.00000000000E+00 -0.48187178923E+03  0.48187178924E+03  0.25500000000E-02 0. -1.
         11    1    1    2    0    0 -0.40093771798E+03 -0.20896952884E+03  0.75657172024E+03  0.88137397599E+03  0.51100000000E-03 0. -1.
         22    1    1    2    0    0  0.72640041129E+01  0.19792868446E+02  0.65514017907E+02  0.68823033494E+02  0.00000000000E+00 0.  1.
          2    1    1    2  501    0  0.39367371387E+03  0.18917666040E+03 -0.30367097260E+03  0.53196133453E+03  0.25500000000E-02 0. -1.
<mgrwt>
<rscale>  0 0.43862187E+03</rscale>
<asrwt>0</asrwt>
<pdfrwt beam="1">  1       11 0.10000000E+01 0.21083724E+02</pdfrwt>
<pdfrwt beam="2">  1        2 0.74155363E-01 0.43862187E+03</pdfrwt>
<totfact> 0.80205136E+01</totfact>
</mgrwt>
</event>
<event>
 5    1  0.6729100E-004  0.1818304E+03  0.7818608E-02  0.1167354E+00
         11   -1    0    0    0    0  0.00000000000E+00  0.00000000000E+00  0.10002649872E+04  0.10002649872E+04  0.51100000000E-03 0. -1.
          2   -1    0    0  501    0 -0.00000000000E+00 -0.00000000000E+00 -0.34301053770E+02  0.34301053865E+02  0.25500000000E-02 0. -1.
         11    1    1    2    0    0 -0.84440044061E+02 -0.14899582780E+03  0.54982889570E+03  0.57588340165E+03  0.51100000000E-03 0. -1.
         22    1    1    2    0    0 -0.47428899952E+00 -0.10242740532E+02  0.42901038923E+02  0.44109384765E+02  0.00000000000E+00 0.  1.
          2    1    1    2  501    0  0.84914333061E+02  0.15923856833E+03  0.37323399877E+03  0.41457325462E+03  0.25500000000E-02 0. -1.
<mgrwt>
<rscale>  0 0.18046431E+03</rscale>
<asrwt>0</asrwt>
<pdfrwt beam="1">  1       11 0.10000000E+01 0.18183036E+03</pdfrwt>
<pdfrwt beam="2">  1        2 0.52784834E-02 0.18046431E+03</pdfrwt>
<totfact> 0.17456796E+03</totfact>
</mgrwt>
</event>
<event>
 5    1  0.6729100E-004  0.4982468E+03  0.7818608E-02  0.1014238E+00
         11   -1    0    0    0    0  0.00000000000E+00  0.00000000000E+00  0.10002618959E+04  0.10002618959E+04  0.51100000000E-03 0.  1.
          2   -1    0    0  501    0 -0.00000000000E+00 -0.00000000000E+00 -0.31986046271E+04  0.31986046271E+04  0.25500000000E-02 0.  1.
         11    1    1    2    0    0  0.19879704568E+03 -0.44132040841E+03  0.59952352675E+03  0.77052736965E+03  0.51100000000E-03 0.  1.
         22    1    1    2    0    0 -0.56476892444E+02 -0.36729232680E+02  0.29138946754E+03  0.29907607344E+03  0.00000000000E+00 0.  1.
          2    1    1    2  501    0 -0.14232015323E+03  0.47804964109E+03 -0.30892557256E+04  0.31292630799E+04  0.25500000000E-02 0.  1.
<mgrwt>
<rscale>  0 0.49824681E+03</rscale>
<asrwt>0</asrwt>
<pdfrwt beam="1">  1       11 0.10000000E+01 0.67369696E+02</pdfrwt>
<pdfrwt beam="2">  1        2 0.49222188E+00 0.49824681E+03</pdfrwt>
<totfact> 0.18092084E+00</totfact>
</mgrwt>
</event>
<event>
 5    1  0.6729100E-004  0.9217378E+02  0.7818608E-02  0.1297671E+00
         11   -1    0    0    0    0  0.00000000000E+00  0.00000000000E+00  0.99997904478E+03  0.99997904478E+03  0.51100000000E-03 0. -1.
          2   -1    0    0  501    0 -0.00000000000E+00 -0.00000000000E+00 -0.64750976195E+03  0.64750976195E+03  0.25500000000E-02 0. -1.
         11    1    1    2    0    0 -0.62958496736E+02  0.13226450066E+03  0.64530400956E+03  0.66172119144E+03  0.51100000000E-03 0. -1.
         22    1    1    2    0    0 -0.26795977038E+01 -0.67882169674E+02  0.33978080772E+03  0.34650565146E+03  0.00000000000E+00 0. -1.
          2    1    1    2  501    0  0.65638094440E+02 -0.64382330991E+02 -0.63261553444E+03  0.63926196383E+03  0.25500000000E-02 0. -1.
<mgrwt>
<rscale>  0 0.92173781E+02</rscale>
<asrwt>0</asrwt>
<pdfrwt beam="1">  1       11 0.10000000E+01 0.67935037E+02</pdfrwt>
<pdfrwt beam="2">  1        2 0.99614796E-01 0.92173781E+02</pdfrwt>
<totfact> 0.59174941E+01</totfact>
</mgrwt>
</event>
<event>
 5    1  0.6729100E-004  0.4636766E+03  0.7818608E-02  0.1023720E+00
         11   -1    0    0    0    0  0.00000000000E+00  0.00000000000E+00  0.10001784009E+04  0.10001784009E+04  0.51100000000E-03 0. -1.
          2   -1    0    0  501    0 -0.00000000000E+00 -0.00000000000E+00 -0.38307053543E+03  0.38307053544E+03  0.25500000000E-02 0. -1.
         11    1    1    2    0    0 -0.22349791575E+03  0.41842469675E+03  0.71148805026E+03  0.85512910772E+03  0.51100000000E-03 0. -1.
         22    1    1    2    0    0  0.73425420527E+01 -0.10862257157E+02  0.44453734662E+02  0.46346910142E+02  0.00000000000E+00 0. -1.
          2    1    1    2  501    0  0.21615537369E+03 -0.40756243960E+03 -0.13883391949E+03  0.48177291845E+03  0.25500000000E-02 0. -1.
<mgrwt>
<rscale>  0 0.46367663E+03</rscale>
<asrwt>0</asrwt>
<pdfrwt beam="1">  1       11 0.10000000E+01 0.13111123E+02</pdfrwt>
<pdfrwt beam="2">  1        2 0.58944441E-01 0.46367663E+03</pdfrwt>
<totfact> 0.10365593E+02</totfact>
</mgrwt>
</event>
<event>
 5    1  0.6729100E-004  0.1233422E+03  0.7818608E-02  0.1571430E+00
         11   -1    0    0    0    0  0.00000000000E+00  0.00000000000E+00  0.10002290685E+04  0.10002290685E+04  0.51100000000E-03 0.  1.
          2   -1    0    0  501    0 -0.00000000000E+00 -0.00000000000E+00 -0.59457502428E+02  0.59457502483E+02  0.25500000000E-02 0.  1.
         11    1    1    2    0    0 -0.90539623140E+02  0.10108030805E+03  0.67501194818E+03  0.68851708928E+03  0.51100000000E-03 0.  1.
         22    1    1    2    0    0  0.81143020531E+02 -0.69908795657E+02  0.30319542942E+03  0.32155699015E+03  0.00000000000E+00 0. -1.
          2    1    1    2  501    0  0.93966026089E+01 -0.31171512396E+02 -0.37435811541E+02  0.49612491551E+02  0.25500000000E-02 0.  1.
<mgrwt>
<rscale>  0 0.32557017E+02</rscale>
<asrwt>0</asrwt>
<pdfrwt beam="1">  1       11 0.10000000E+01 0.12334215E+03</pdfrwt>
<pdfrwt beam="2">  1        2 0.91494032E-02 0.32557017E+02</pdfrwt>
<totfact> 0.76414330E+02</totfact>
</mgrwt>
</event>
<event>
 5    1  0.6729100E-004  0.2954862E+03  0.7818608E-02  0.1092232E+00
         11   -1    0    0    0    0  0.00000000000E+00  0.00000000000E+00  0.10003926112E+04  0.10003926112E+04  0.51100000000E-03 0. -1.
          2   -1    0    0  501    0 -0.00000000000E+00 -0.00000000000E+00 -0.96792372823E+03  0.96792372824E+03  0.25500000000E-02 0. -1.
         11    1    1    2    0    0 -0.14560188682E+03  0.17742316987E+03  0.65203676835E+03  0.69125309253E+03  0.51100000000E-03 0. -1.
         22    1    1    2    0    0 -0.43322470289E+02  0.37855595593E+02  0.30436409536E+03  0.30975374912E+03  0.00000000000E+00 0. -1.
          2    1    1    2  501    0  0.18892435711E+03 -0.21527876546E+03 -0.92393198071E+03  0.96730949781E+03  0.25500000000E-02 0. -1.
<mgrwt>
<rscale>  0 0.28642165E+03</rscale>
<asrwt>0</asrwt>
<pdfrwt beam="1">  1       11 0.10000000E+01 0.29548618E+03</pdfrwt>
<pdfrwt beam="2">  1        2 0.14896980E+00 0.28642165E+03</pdfrwt>
<totfact> 0.34277551E+01</totfact>
</mgrwt>
</event>
<event>
 5    1  0.6729100E-004  0.1191087E+03  0.7818608E-02  0.1244575E+00
         11   -1    0    0    0    0  0.00000000000E+00  0.00000000000E+00  0.10003249138E+04  0.10003249138E+04  0.51100000000E-03 0. -1.
          2   -1    0    0  501    0 -0.00000000000E+00 -0.00000000000E+00 -0.69016208741E+02  0.69016208788E+02  0.25500000000E-02 0. -1.
         11    1    1    2    0    0  0.10407888570E+03 -0.15513254604E+03  0.60689028030E+03  0.63499160121E+03  0.51100000000E-03 0. -1.
         22    1    1    2    0    0 -0.18916299855E+02  0.81336974740E+02  0.30963295169E+03  0.32069626539E+03  0.00000000000E+00 0.  1.
          2    1    1    2  501    0 -0.85162585842E+02  0.73795571297E+02  0.14785473037E+02  0.11365325596E+03  0.25500000000E-02 0. -1.
<mgrwt>
<rscale>  0 0.11910870E+03</rscale>
<asrwt>0</asrwt>
<pdfrwt beam="1">  1       11 0.10000000E+01 0.83507663E+02</pdfrwt>
<pdfrwt beam="2">  1        2 0.10621328E-01 0.11910870E+03</pdfrwt>
<totfact> 0.70151511E+02</totfact>
</mgrwt>
</event>
<event>
 5    1  0.6729100E-004  0.3556029E+03  0.7818608E-02  0.1060339E+00
         11   -1    0    0    0    0  0.00000000000E+00  0.00000000000E+00  0.10002994074E+04  0.10002994074E+04  0.51100000000E-03 0.  1.
          2   -1    0    0  501    0 -0.00000000000E+00 -0.00000000000E+00 -0.19890622537E+03  0.19890622539E+03  0.25500000000E-02 0.  1.
         11    1    1    2    0    0  0.21838163667E+03 -0.21104610862E+03  0.28803011979E+03  0.41855985128E+03  0.51100000000E-03 0.  1.
         22    1    1    2    0    0  0.64080258932E+02 -0.76413423098E+02  0.31704958949E+03  0.33236385635E+03  0.00000000000E+00 0.  1.
          2    1    1    2  501    0 -0.28246189560E+03  0.28745953172E+03  0.19631347277E+03  0.44828192518E+03  0.25500000000E-02 0.  1.
<mgrwt>
<rscale>  0 0.35560287E+03</rscale>
<asrwt>0</asrwt>
<pdfrwt beam="1">  1       11 0.10000000E+01 0.99726079E+02</pdfrwt>
<pdfrwt beam="2">  1        2 0.30610119E-01 0.35560287E+03</pdfrwt>
<totfact> 0.21306755E+02</totfact>
</mgrwt>
</event>
<event>
 5    1  0.6729100E-004  0.4217277E+03  0.7818608E-02  0.1040132E+00
         11   -1    0    0    0    0  0.00000000000E+00  0.00000000000E+00  0.10000725822E+04  0.10000725822E+04  0.51100000000E-03 0.  1.
          2   -1    0    0  501    0 -0.00000000000E+00 -0.00000000000E+00 -0.60951169213E+03  0.60951169213E+03  0.25500000000E-02 0.  1.
         11    1    1    2    0    0  0.31226722763E+03  0.13765413210E+03  0.64322253304E+03  0.72814470303E+03  0.51100000000E-03 0.  1.
         22    1    1    2    0    0  0.73150303666E+02  0.42569810325E+01  0.23366651352E+03  0.24488594969E+03  0.00000000000E+00 0. -1.
          2    1    1    2  501    0 -0.38541753129E+03 -0.14191111313E+03 -0.48632815646E+03  0.63655362165E+03  0.25500000000E-02 0.  1.
<mgrwt>
<rscale>  0 0.41071333E+03</rscale>
<asrwt>0</asrwt>
<pdfrwt beam="1">  1       11 0.10000000E+01 0.42172770E+03</pdfrwt>
<pdfrwt beam="2">  1        2 0.93777833E-01 0.41071333E+03</pdfrwt>
<totfact> 0.61158571E+01</totfact>
</mgrwt>
</event>
<event>
 5    1  0.6729100E-004  0.6250489E+03  0.7818608E-02  0.9858267E-01
         11   -1    0    0    0    0  0.00000000000E+00  0.00000000000E+00  0.10007443753E+04  0.10007443753E+04  0.51100000000E-03 0. -1.
          2   -1    0    0  501    0 -0.00000000000E+00 -0.00000000000E+00 -0.17732905083E+04  0.17732905083E+04  0.25500000000E-02 0. -1.
         11    1    1    2    0    0  0.43385350039E+03 -0.43323343373E+03  0.83003441297E+03  0.10319288709E+04  0.51100000000E-03 0. -1.
         22    1    1    2    0    0  0.38989035733E+01 -0.10433605829E+02  0.89230211313E+01  0.14271716287E+02  0.00000000000E+00 0. -1.
          2    1    1    2  501    0 -0.43775240397E+03  0.44366703956E+03 -0.16115035671E+04  0.17278342964E+04  0.25500000000E-02 0. -1.
<mgrwt>
<rscale>  0 0.62327170E+03</rscale>
<asrwt>0</asrwt>
<pdfrwt beam="1">  1       11 0.10000000E+01 0.62504887E+03</pdfrwt>
<pdfrwt beam="2">  1        2 0.27301699E+00 0.62327170E+03</pdfrwt>
<totfact> 0.11407484E+01</totfact>
</mgrwt>
</event>
<event>
 5    1  0.6729100E-004  0.1359270E+03  0.7818608E-02  0.1218917E+00
         11   -1    0    0    0    0  0.00000000000E+00  0.00000000000E+00  0.10007710265E+04  0.10007710265E+04  0.51100000000E-03 0.  1.
          2   -1    0    0  501    0 -0.00000000000E+00 -0.00000000000E+00 -0.74903387018E+03  0.74903387018E+03  0.25500000000E-02 0. -1.
         11    1    1    2    0    0 -0.11086472512E+03  0.17168358473E+03  0.93465252450E+03  0.95673485465E+03  0.51100000000E-03 0.  1.
         22    1    1    2    0    0  0.43226864252E+02 -0.54314930113E+02  0.23880842521E+02  0.73409591102E+02  0.00000000000E+00 0. -1.
          2    1    1    2  501    0  0.67637860863E+02 -0.11736865461E+03 -0.70679621065E+03  0.71966045098E+03  0.25500000000E-02 0. -1.
<mgrwt>
<rscale>  0 0.13592695E+03</rscale>
<asrwt>0</asrwt>
<pdfrwt beam="1">  1       11 0.10000000E+01 0.69416665E+02</pdfrwt>
<pdfrwt beam="2">  1        2 0.11532483E+00 0.13592695E+03</pdfrwt>
<totfact> 0.49235520E+01</totfact>
</mgrwt>
</event>
<event>
 5    1  0.6729100E-004  0.1444190E+03  0.7818608E-02  0.1668164E+00
         11   -1    0    0    0    0  0.00000000000E+00  0.00000000000E+00  0.10001517504E+04  0.10001517504E+04  0.51100000000E-03 0. -1.
         -2   -1    0    0    0  501 -0.00000000000E+00 -0.00000000000E+00 -0.76564574787E+02  0.76564574829E+02  0.25500000000E-02 0. -1.
         11    1    1    2    0    0 -0.95860160618E+02 -0.12467870348E+03  0.49653941608E+03  0.52085059395E+03  0.51100000000E-03 0. -1.
         22    1    1    2    0    0  0.74872444885E+02  0.11202250980E+03  0.47944577268E+03  0.49801925128E+03  0.00000000000E+00 0.  1.
         -2    1    1    2    0  501  0.20987715734E+02  0.12656193679E+02 -0.52398013192E+02  0.57846479955E+02  0.25500000000E-02 0. -1.
<mgrwt>
<rscale>  0 0.24508436E+02</rscale>
<asrwt>0</asrwt>
<pdfrwt beam="1">  1       11 0.10000000E+01 0.14441899E+03</pdfrwt>
<pdfrwt beam="2">  1       -2 0.11780953E-01 0.24508436E+02</pdfrwt>
<totfact> 0.34809489E+02</totfact>
</mgrwt>
</event>
<event>
 5    1  0.6729100E-004  0.4890841E+03  0.7818608E-02  0.1016668E+00
         11   -1    0    0    0    0  0.00000000000E+00  0.00000000000E+00  0.10005716412E+04  0.10005716412E+04  0.51100000000E-03 0. -1.
          2   -1    0    0  501    0 -0.00000000000E+00 -0.00000000000E+00 -0.46705537913E+03  0.46705537914E+03  0.25500000000E-02 0. -1.
         11    1    1    2    0    0  0.47444908916E+02 -0.48638145687E+03  0.76359775676E+03  0.90658671681E+03  0.51100000000E-03 0. -1.
         22    1    1    2    0    0 -0.10284636315E+02 -0.13777634831E+01  0.11480053288E+02  0.15474611460E+02  0.00000000000E+00 0.  1.
          2    1    1    2  501    0 -0.37160272601E+02  0.48775922036E+03 -0.24156154798E+03  0.54556569208E+03  0.25500000000E-02 0. -1.
<mgrwt>
<rscale>  0 0.48908408E+03</rscale>
<asrwt>0</asrwt>
<pdfrwt beam="1">  1       11 0.10000000E+01 0.10376511E+02</pdfrwt>
<pdfrwt beam="2">  1        2 0.71895747E-01 0.48908408E+03</pdfrwt>
<totfact> 0.82937571E+01</totfact>
</mgrwt>
</event>
<event>
 5    1  0.6729100E-004  0.1990597E+03  0.7818608E-02  0.1150535E+00
         11   -1    0    0    0    0  0.00000000000E+00  0.00000000000E+00  0.10003336030E+04  0.10003336030E+04  0.51100000000E-03 0.  1.
          2   -1    0    0  501    0 -0.00000000000E+00 -0.00000000000E+00 -0.89978512393E+02  0.89978512430E+02  0.25500000000E-02 0.  1.
         11    1    1    2    0    0 -0.21027288109E+03 -0.75713527585E+02  0.62709582302E+03  0.66572997080E+03  0.51100000000E-03 0.  1.
         22    1    1    2    0    0  0.57505377523E+02 -0.46457775174E+02  0.19771473632E+03  0.21108365705E+03  0.00000000000E+00 0. -1.
          2    1    1    2  501    0  0.15276750357E+03  0.12217130276E+03  0.85544531293E+02  0.21349848759E+03  0.25500000000E-02 0.  1.
<mgrwt>
<rscale>  0 0.19905967E+03</rscale>
<asrwt>0</asrwt>
<pdfrwt beam="1">  1       11 0.10000000E+01 0.73926946E+02</pdfrwt>
<pdfrwt beam="2">  1        2 0.13847466E-01 0.19905967E+03</pdfrwt>
<totfact> 0.52242866E+02</totfact>
</mgrwt>
</event>
<event>
 5    1  0.6729100E-004  0.1501380E+03  0.7818608E-02  0.1622272E+00
         11   -1    0    0    0    0  0.00000000000E+00  0.00000000000E+00  0.99968805117E+03  0.99968805117E+03  0.51100000000E-03 0. -1.
          2   -1    0    0  501    0 -0.00000000000E+00 -0.00000000000E+00 -0.12183390338E+04  0.12183390338E+04  0.25500000000E-02 0.  1.
         11    1    1    2    0    0  0.10602655846E+03 -0.10877044710E+03  0.89100514982E+02  0.17610094557E+03  0.51100000000E-03 0. -1.
         22    1    1    2    0    0 -0.12282696923E+03  0.86469248116E+02  0.86041373651E+03  0.87342726842E+03  0.00000000000E+00 0. -1.
          2    1    1    2  501    0  0.16800410771E+02  0.22301198987E+02 -0.11681652341E+04  0.11684988710E+04  0.25500000000E-02 0.  1.
<mgrwt>
<rscale>  0 0.27921269E+02</rscale>
<asrwt>0</asrwt>
<pdfrwt beam="1">  1       11 0.10000000E+01 0.15013799E+03</pdfrwt>
<pdfrwt beam="2">  1        2 0.18737830E+00 0.27921269E+02</pdfrwt>
<totfact> 0.28359412E+01</totfact>
</mgrwt>
</event>
<event>
 5    1  0.6729100E-004  0.1525595E+03  0.7818608E-02  0.1511966E+00
         11   -1    0    0    0    0  0.00000000000E+00  0.00000000000E+00  0.10004509148E+04  0.10004509148E+04  0.51100000000E-03 0. -1.
          2   -1    0    0  501    0 -0.00000000000E+00 -0.00000000000E+00 -0.68642459367E+03  0.68642459367E+03  0.25500000000E-02 0.  1.
         11    1    1    2    0    0 -0.56966704951E+02 -0.15377879685E+03  0.78015881400E+03  0.79720819043E+03  0.51100000000E-03 0. -1.
         22    1    1    2    0    0  0.56085427762E+02  0.11429428116E+03  0.19198668555E+03  0.23036415811E+03  0.00000000000E+00 0. -1.
          2    1    1    2  501    0  0.88127718985E+00  0.39484515690E+02 -0.65811917844E+03  0.65930315991E+03  0.25500000000E-02 0.  1.
<mgrwt>
<rscale>  0 0.39494349E+02</rscale>
<asrwt>0</asrwt>
<pdfrwt beam="1">  1       11 0.10000000E+01 0.15255953E+03</pdfrwt>
<pdfrwt beam="2">  1        2 0.10565140E+00 0.39494349E+02</pdfrwt>
<totfact> 0.56670805E+01</totfact>
</mgrwt>
</event>
<event>
 5    1  0.6729100E-004  0.2487451E+03  0.7818608E-02  0.1114100E+00
         11   -1    0    0    0    0  0.00000000000E+00  0.00000000000E+00  0.10001616803E+04  0.10001616803E+04  0.51100000000E-03 0. -1.
          2   -1    0    0  501    0 -0.00000000000E+00 -0.00000000000E+00 -0.65059060755E+03  0.65059060756E+03  0.25500000000E-02 0. -1.
         11    1    1    2    0    0  0.18810742374E+03  0.12437232239E+03  0.64714867751E+03  0.68531327745E+03  0.51100000000E-03 0. -1.
         22    1    1    2    0    0 -0.11259348881E+02  0.52009431228E+02  0.30685369370E+03  0.31143368991E+03  0.00000000000E+00 0. -1.
          2    1    1    2  501    0 -0.17684807486E+03 -0.17638175361E+03 -0.60443129850E+03  0.65400532046E+03  0.25500000000E-02 0. -1.
<mgrwt>
<rscale>  0 0.24874514E+03</rscale>
<asrwt>0</asrwt>
<pdfrwt beam="1">  1       11 0.10000000E+01 0.53214226E+02</pdfrwt>
<pdfrwt beam="2">  1        2 0.10010704E+00 0.24874514E+03</pdfrwt>
<totfact> 0.57311983E+01</totfact>
</mgrwt>
</event>
<event>
 5    1  0.6729100E-004  0.8199473E+02  0.7818608E-02  0.1467238E+00
         11   -1    0    0    0    0  0.00000000000E+00  0.00000000000E+00  0.10001583596E+04  0.10001583596E+04  0.51100000000E-03 0. -1.
          2   -1    0    0  501    0 -0.00000000000E+00 -0.00000000000E+00 -0.95482459902E+01  0.95482463307E+01  0.25500000000E-02 0. -1.
         11    1    1    2    0    0 -0.35866954819E+02 -0.84257445211E+02  0.42056183004E+03  0.43041608754E+03  0.51100000000E-03 0. -1.
         22    1    1    2    0    0 -0.11025984859E+02  0.23528984042E+02  0.12427884641E+03  0.12696620454E+03  0.00000000000E+00 0. -1.
          2    1    1    2  501    0  0.46892939677E+02  0.60728461169E+02  0.44576943720E+03  0.45232431389E+03  0.25500000000E-02 0. -1.
<mgrwt>
<rscale>  0 0.46158176E+02</rscale>
<asrwt>0</asrwt>
<pdfrwt beam="1">  1       11 0.10000000E+01 0.81994735E+02</pdfrwt>
<pdfrwt beam="2">  1        2 0.14691935E-02 0.46158176E+02</pdfrwt>
<totfact> 0.81312613E+03</totfact>
</mgrwt>
</event>
<event>
 5    1  0.6729100E-004  0.8242237E+02  0.7818608E-02  0.1322314E+00
         11   -1    0    0    0    0  0.00000000000E+00  0.00000000000E+00  0.10003672806E+04  0.10003672806E+04  0.51100000000E-03 0. -1.
          2   -1    0    0  501    0 -0.00000000000E+00 -0.00000000000E+00 -0.74516160605E+02  0.74516160649E+02  0.25500000000E-02 0. -1.
         11    1    1    2    0    0  0.10193136964E+03  0.68969712326E+02  0.63304960196E+03  0.64490202657E+03  0.51100000000E-03 0. -1.
         22    1    1    2    0    0 -0.20520383760E+02 -0.65410835610E+02  0.33238956640E+03  0.33938545552E+03  0.00000000000E+00 0.  1.
          2    1    1    2  501    0 -0.81410985878E+02 -0.35588767161E+01 -0.39588048408E+02  0.90595959117E+02  0.25500000000E-02 0. -1.
<mgrwt>
<rscale>  0 0.82422373E+02</rscale>
<asrwt>0</asrwt>
<pdfrwt beam="1">  1       11 0.10000000E+01 0.68554092E+02</pdfrwt>
<pdfrwt beam="2">  1        2 0.11468235E-01 0.82422373E+02</pdfrwt>
<totfact> 0.62619647E+02</totfact>
</mgrwt>
</event>
<event>
 5    1  0.6729100E-004  0.1893379E+03  0.7818608E-02  0.1159060E+00
         11   -1    0    0    0    0  0.00000000000E+00  0.00000000000E+00  0.10001133266E+04  0.10001133266E+04  0.51100000000E-03 0.  1.
         -2   -1    0    0    0  501 -0.00000000000E+00 -0.00000000000E+00 -0.58184083707E+03  0.58184083708E+03  0.25500000000E-02 0. -1.
         11    1    1    2    0    0  0.17153546554E+03  0.14667685142E+03  0.81116227260E+03  0.84197550271E+03  0.51100000000E-03 0.  1.
         22    1    1    2    0    0 -0.37092381673E+02 -0.14330857039E+02  0.15526092287E+03  0.16027218228E+03  0.00000000000E+00 0. -1.
         -2    1    1    2    0  501 -0.13444308387E+03 -0.13234599438E+03 -0.54815070593E+03  0.57970647870E+03  0.25500000000E-02 0. -1.
<mgrwt>
<rscale>  0 0.18933786E+03</rscale>
<asrwt>0</asrwt>
<pdfrwt beam="1">  1       11 0.10000000E+01 0.39764535E+02</pdfrwt>
<pdfrwt beam="2">  1       -2 0.89524117E-01 0.18933786E+03</pdfrwt>
<totfact> 0.90729486E+00</totfact>
</mgrwt>
</event>
<event>
 5    1  0.6729100E-004  0.2894364E+03  0.7818608E-02  0.1532105E+00
         11   -1    0    0    0    0  0.00000000000E+00  0.00000000000E+00  0.10003708233E+04  0.10003708233E+04  0.51100000000E-03 0.  1.
          2   -1    0    0  501    0 -0.00000000000E+00 -0.00000000000E+00 -0.74603925805E+03  0.74603925805E+03  0.25500000000E-02 0. -1.
         11    1    1    2    0    0 -0.25370935416E+03  0.10789399181E+03  0.25672253010E+03  0.37671741043E+03  0.51100000000E-03 0.  1.
         22    1    1    2    0    0  0.28430986337E+03 -0.87220438388E+02  0.65076368835E+03  0.71549485069E+03  0.00000000000E+00 0.  1.
          2    1    1    2  501    0 -0.30600509206E+02 -0.20673553422E+02 -0.65315465321E+03  0.65419782022E+03  0.25500000000E-02 0. -1.
<mgrwt>
<rscale>  0 0.36929487E+02</rscale>
<asrwt>0</asrwt>
<pdfrwt beam="1">  1       11 0.10000000E+01 0.28943635E+03</pdfrwt>
<pdfrwt beam="2">  1        2 0.11481783E+00 0.36929487E+02</pdfrwt>
<totfact> 0.51714176E+01</totfact>
</mgrwt>
</event>
<event>
 5    1  0.6729100E-004  0.1132554E+03  0.7818608E-02  0.1254657E+00
         11   -1    0    0    0    0  0.00000000000E+00  0.00000000000E+00  0.10001634963E+04  0.10001634963E+04  0.51100000000E-03 0. -1.
          2   -1    0    0  501    0 -0.00000000000E+00 -0.00000000000E+00 -0.10919716379E+03  0.10919716382E+03  0.25500000000E-02 0. -1.
         11    1    1    2    0    0 -0.12448675441E+03  0.85837270449E+02  0.70311345787E+03  0.71918949079E+03  0.51100000000E-03 0. -1.
         22    1    1    2    0    0  0.17299949743E+02 -0.53826838090E+02  0.25399766847E+03  0.26021420474E+03  0.00000000000E+00 0. -1.
          2    1    1    2  501    0  0.10718680467E+03 -0.32010432358E+02 -0.66144793865E+02  0.12995696456E+03  0.25500000000E-02 0. -1.
<mgrwt>
<rscale>  0 0.11325541E+03</rscale>
<asrwt>0</asrwt>
<pdfrwt beam="1">  1       11 0.10000000E+01 0.56538631E+02</pdfrwt>
<pdfrwt beam="2">  1        2 0.16802310E-01 0.11325541E+03</pdfrwt>
<totfact> 0.40705094E+02</totfact>
</mgrwt>
</event>
<event>
 5    1  0.6729100E-004  0.1757421E+03  0.7818608E-02  0.1177189E+00
         11   -1    0    0    0    0  0.00000000000E+00  0.00000000000E+00  0.99989742043E+03  0.99989742043E+03  0.51100000000E-03 0. -1.
          2   -1    0    0  501    0 -0.00000000000E+00 -0.00000000000E+00 -0.13493538722E+03  0.13493538725E+03  0.25500000000E-02 0.  1.
         11    1    1    2    0    0 -0.84806735264E+02 -0.10546299221E+03  0.79970775521E+03  0.81107775140E+03  0.51100000000E-03 0. -1.
         22    1    1    2    0    0 -0.31745677873E+02 -0.19161415208E+02  0.13456625804E+03  0.13958160946E+03  0.00000000000E+00 0.  1.
          2    1    1    2  501    0  0.11655241314E+03  0.12462440741E+03 -0.69311980036E+02  0.18417344682E+03  0.25500000000E-02 0.  1.
<mgrwt>
<rscale>  0 0.17063326E+03</rscale>
<asrwt>0</asrwt>
<pdfrwt beam="1">  1       11 0.10000000E+01 0.17574211E+03</pdfrwt>
<pdfrwt beam="2">  1        2 0.20757160E-01 0.17063326E+03</pdfrwt>
<totfact> 0.32442921E+02</totfact>
</mgrwt>
</event>
<event>
 5    1  0.6729100E-004  0.1271912E+03  0.7818608E-02  0.1231684E+00
         11   -1    0    0    0    0  0.00000000000E+00  0.00000000000E+00  0.10005588610E+04  0.10005588610E+04  0.51100000000E-03 0.  1.
          2   -1    0    0  501    0 -0.00000000000E+00 -0.00000000000E+00 -0.43275345101E+03  0.43275345102E+03  0.25500000000E-02 0. -1.
         11    1    1    2    0    0  0.13930913431E+03  0.11972920490E+03  0.56261735909E+03  0.59184492070E+03  0.51100000000E-03 0.  1.
         22    1    1    2    0    0 -0.21847629289E+02 -0.73011278698E+02  0.41018292939E+03  0.41720259022E+03  0.00000000000E+00 0.  1.
          2    1    1    2  501    0 -0.11746150502E+03 -0.46717926203E+02 -0.40499487852E+03  0.42426480107E+03  0.25500000000E-02 0. -1.
<mgrwt>
<rscale>  0 0.12719119E+03</rscale>
<asrwt>0</asrwt>
<pdfrwt beam="1">  1       11 0.10000000E+01 0.76210011E+02</pdfrwt>
<pdfrwt beam="2">  1        2 0.66614660E-01 0.12719119E+03</pdfrwt>
<totfact> 0.91685463E+01</totfact>
</mgrwt>
</event>
<event>
 5    1  0.6729100E-004  0.2520542E+03  0.7818608E-02  0.1112013E+00
         11   -1    0    0    0    0  0.00000000000E+00  0.00000000000E+00  0.99976868745E+03  0.99976868745E+03  0.51100000000E-03 0. -1.
          2   -1    0    0  501    0 -0.00000000000E+00 -0.00000000000E+00 -0.44124862094E+03  0.44124862095E+03  0.25500000000E-02 0. -1.
         11    1    1    2    0    0 -0.14915343501E+03  0.18514703837E+03  0.82284398179E+03  0.85650358514E+03  0.51100000000E-03 0. -1.
         22    1    1    2    0    0 -0.32442497998E+02 -0.93087278232E+01  0.11992011756E+03  0.12457930279E+03  0.00000000000E+00 0. -1.
          2    1    1    2  501    0  0.18159593301E+03 -0.17583831054E+03 -0.38424403284E+03  0.45993442046E+03  0.25500000000E-02 0. -1.
<mgrwt>
<rscale>  0 0.25205423E+03</rscale>
<asrwt>0</asrwt>
<pdfrwt beam="1">  1       11 0.10000000E+01 0.33751564E+02</pdfrwt>
<pdfrwt beam="2">  1        2 0.67868699E-01 0.25205423E+03</pdfrwt>
<totfact> 0.89225529E+01</totfact>
</mgrwt>
</event>
<event>
 5    1  0.6729100E-004  0.2306221E+03  0.7818608E-02  0.1126203E+00
         11   -1    0    0    0    0  0.00000000000E+00  0.00000000000E+00  0.10001836194E+04  0.10001836194E+04  0.51100000000E-03 0. -1.
          2   -1    0    0  501    0 -0.00000000000E+00 -0.00000000000E+00 -0.23306399053E+03  0.23306399054E+03  0.25500000000E-02 0. -1.
         11    1    1    2    0    0 -0.19800982395E+03 -0.99361315815E+02  0.90064680280E+03  0.92749405650E+03  0.51100000000E-03 0. -1.
         22    1    1    2    0    0 -0.16396305027E+02  0.12626112332E+02  0.19493716494E+02  0.28429958036E+02  0.00000000000E+00 0.  1.
          2    1    1    2  501    0  0.21440612898E+03  0.86735203483E+02 -0.15302089040E+03  0.27732359541E+03  0.25500000000E-02 0. -1.
<mgrwt>
<rscale>  0 0.23062206E+03</rscale>
<asrwt>0</asrwt>
<pdfrwt beam="1">  1       11 0.10000000E+01 0.20694384E+02</pdfrwt>
<pdfrwt beam="2">  1        2 0.35862581E-01 0.23062206E+03</pdfrwt>
<totfact> 0.17818712E+02</totfact>
</mgrwt>
</event>
<event>
 5    1  0.6729100E-004  0.1669542E+03  0.7818608E-02  0.1181062E+00
         11   -1    0    0    0    0  0.00000000000E+00  0.00000000000E+00  0.99996972372E+03  0.99996972372E+03  0.51100000000E-03 0. -1.
          2   -1    0    0  501    0 -0.00000000000E+00 -0.00000000000E+00 -0.76106645120E+03  0.76106645121E+03  0.25500000000E-02 0. -1.
         11    1    1    2    0    0 -0.13736155317E+03 -0.25782744808E+03  0.32292192040E+03  0.43545580252E+03  0.51100000000E-03 0. -1.
         22    1    1    2    0    0  0.49021432478E+02  0.11988618330E+03  0.60430759916E+03  0.61803193461E+03  0.00000000000E+00 0. -1.
          2    1    1    2  501    0  0.88340120691E+02  0.13794126478E+03 -0.68832624705E+03  0.70754843780E+03  0.25500000000E-02 0. -1.
<mgrwt>
<rscale>  0 0.16695425E+03</rscale>
<asrwt>0</asrwt>
<pdfrwt beam="1">  1       11 0.10000000E+01 0.12952142E+03</pdfrwt>
<pdfrwt beam="2">  1        2 0.11708360E+00 0.16695425E+03</pdfrwt>
<totfact> 0.47997696E+01</totfact>
</mgrwt>
</event>
<event>
 5    1  0.6729100E-004  0.1498266E+03  0.7818608E-02  0.1200686E+00
         11   -1    0    0    0    0  0.00000000000E+00  0.00000000000E+00  0.10001311556E+04  0.10001311556E+04  0.51100000000E-03 0. -1.
          2   -1    0    0  501    0 -0.00000000000E+00 -0.00000000000E+00 -0.17127176829E+03  0.17127176831E+03  0.25500000000E-02 0. -1.
         11    1    1    2    0    0 -0.11254133169E+03  0.89426246324E+02  0.77947502098E+03  0.79261839065E+03  0.51100000000E-03 0. -1.
         22    1    1    2    0    0 -0.24208285500E+02 -0.27119572418E+02  0.17757715923E+03  0.18125992324E+03  0.00000000000E+00 0. -1.
          2    1    1    2  501    0  0.13674961719E+03 -0.62306673906E+02 -0.12819279288E+03  0.19752461003E+03  0.25500000000E-02 0. -1.
<mgrwt>
<rscale>  0 0.14982664E+03</rscale>
<asrwt>0</asrwt>
<pdfrwt beam="1">  1       11 0.10000000E+01 0.36352611E+02</pdfrwt>
<pdfrwt beam="2">  1        2 0.26352958E-01 0.14982664E+03</pdfrwt>
<totfact> 0.24769604E+02</totfact>
</mgrwt>
</event>
<event>
 5    1  0.6729100E-004  0.4654822E+03  0.7818608E-02  0.1023203E+00
         11   -1    0    0    0    0  0.00000000000E+00  0.00000000000E+00  0.10002028288E+04  0.10002028288E+04  0.51100000000E-03 0. -1.
          2   -1    0    0  501    0 -0.00000000000E+00 -0.00000000000E+00 -0.22605120234E+04  0.22605120234E+04  0.25500000000E-02 0. -1.
         11    1    1    2    0    0  0.88481658053E+02  0.43075625610E+03  0.90949363513E+03  0.10102270182E+04  0.51100000000E-03 0. -1.
         22    1    1    2    0    0 -0.20912877967E+02  0.30486797954E+02 -0.65110780532E+01  0.37539145591E+02  0.00000000000E+00 0. -1.
          2    1    1    2  501    0 -0.67568780086E+02 -0.46124305406E+03 -0.21632917516E+04  0.22129486884E+04  0.25500000000E-02 0. -1.
<mgrwt>
<rscale>  0 0.46548222E+03</rscale>
<asrwt>0</asrwt>
<pdfrwt beam="1">  1       11 0.10000000E+01 0.36970168E+02</pdfrwt>
<pdfrwt beam="2">  1        2 0.34784161E+00 0.46548222E+03</pdfrwt>
<totfact> 0.63928937E+00</totfact>
</mgrwt>
</event>
<event>
 5    1  0.6729100E-004  0.3841479E+03  0.7818608E-02  0.1194325E+00
         11   -1    0    0    0    0  0.00000000000E+00  0.00000000000E+00  0.10002952701E+04  0.10002952701E+04  0.51100000000E-03 0.  1.
          2   -1    0    0  501    0 -0.00000000000E+00 -0.00000000000E+00 -0.35141221621E+03  0.35141221622E+03  0.25500000000E-02 0.  1.
         11    1    1    2    0    0 -0.25151331330E+03 -0.19507167681E+03  0.29892305027E+03  0.43665420626E+03  0.51100000000E-03 0.  1.
         22    1    1    2    0    0  0.37787966715E+03  0.28502785490E+03  0.50749957977E+03  0.69396667383E+03  0.00000000000E+00 0.  1.
          2    1    1    2  501    0 -0.12636635385E+03 -0.89956178092E+02 -0.15753957619E+03  0.22108660619E+03  0.25500000000E-02 0.  1.
<mgrwt>
<rscale>  0 0.15511470E+03</rscale>
<asrwt>0</asrwt>
<pdfrwt beam="1">  1       11 0.10000000E+01 0.38414789E+03</pdfrwt>
<pdfrwt beam="2">  1        2 0.54079380E-01 0.15511470E+03</pdfrwt>
<totfact> 0.11446347E+02</totfact>
</mgrwt>
</event>
<event>
 5    1  0.7343481E-004  0.8813917E+02  0.7818608E-02  0.1521923E+00
         11   -1    0    0    0    0  0.00000000000E+00  0.00000000000E+00  0.10009681321E+04  0.10009681321E+04  0.51100000000E-03 0. -1.
          2   -1    0    0  501    0 -0.00000000000E+00 -0.00000000000E+00 -0.16431417510E+04  0.16431417510E+04  0.25500000000E-02 0.  1.
         11    1    1    2    0    0  0.44733837483E+02  0.10359489057E+03  0.54788626398E+03  0.55938571293E+03  0.51100000000E-03 0. -1.
         22    1    1    2    0    0 -0.31586295682E+02 -0.67732992743E+02  0.44398587180E+03  0.45023205877E+03  0.00000000000E+00 0. -1.
          2    1    1    2  501    0 -0.13147541801E+02 -0.35861897827E+02 -0.16340457548E+04  0.16344921114E+04  0.25500000000E-02 0.  1.
<mgrwt>
<rscale>  0 0.38195989E+02</rscale>
<asrwt>0</asrwt>
<pdfrwt beam="1">  1       11 0.10000000E+01 0.88139172E+02</pdfrwt>
<pdfrwt beam="2">  1        2 0.25303577E+00 0.38195989E+02</pdfrwt>
<totfact> 0.17068445E+01</totfact>
</mgrwt>
</event>
<event>
 5    1  0.6729100E-004  0.2727390E+03  0.7818608E-02  0.1099722E+00
         11   -1    0    0    0    0  0.00000000000E+00  0.00000000000E+00  0.10001546339E+04  0.10001546339E+04  0.51100000000E-03 0. -1.
          2   -1    0    0  501    0 -0.00000000000E+00 -0.00000000000E+00 -0.82492262306E+02  0.82492262345E+02  0.25500000000E-02 0. -1.
         11    1    1    2    0    0 -0.22664671336E+03 -0.14787100106E+03  0.45497037569E+03  0.52937001085E+03  0.51100000000E-03 0. -1.
         22    1    1    2    0    0 -0.11756535078E+02  0.11248474232E+02  0.83056772607E+02  0.84635523071E+02  0.00000000000E+00 0. -1.
          2    1    1    2  501    0  0.23840324844E+03  0.13662252683E+03  0.37963522329E+03  0.46864136232E+03  0.25500000000E-02 0. -1.
<mgrwt>
<rscale>  0 0.27273896E+03</rscale>
<asrwt>0</asrwt>
<pdfrwt beam="1">  1       11 0.10000000E+01 0.16270965E+02</pdfrwt>
<pdfrwt beam="2">  1        2 0.12693079E-01 0.27273896E+03</pdfrwt>
<totfact> 0.58762260E+02</totfact>
</mgrwt>
</event>
<event>
 5    1  0.6729100E-004  0.1567818E+03  0.7818608E-02  0.1192379E+00
         11   -1    0    0    0    0  0.00000000000E+00  0.00000000000E+00  0.10001700745E+04  0.10001700745E+04  0.51100000000E-03 0. -1.
          2   -1    0    0  501    0 -0.00000000000E+00 -0.00000000000E+00 -0.52339819232E+02  0.52339819294E+02  0.25500000000E-02 0. -1.
         11    1    1    2    0    0  0.13415603346E+03  0.40994221376E+02  0.52372524057E+03  0.54218677143E+03  0.51100000000E-03 0. -1.
         22    1    1    2    0    0  0.29657871393E+02 -0.49449251190E+02  0.29771109634E+03  0.30324365560E+03  0.00000000000E+00 0.  1.
          2    1    1    2  501    0 -0.16381390486E+03  0.84550298136E+01  0.12639391837E+03  0.20707946678E+03  0.25500000000E-02 0. -1.
<mgrwt>
<rscale>  0 0.15678178E+03</rscale>
<asrwt>0</asrwt>
<pdfrwt beam="1">  1       11 0.10000000E+01 0.57661233E+02</pdfrwt>
<pdfrwt beam="2">  1        2 0.80536491E-02 0.15678178E+03</pdfrwt>
<totfact> 0.10041747E+03</totfact>
</mgrwt>
</event>
<event>
 5    1  0.6729100E-004  0.2413821E+03  0.7818608E-02  0.1118876E+00
         11   -1    0    0    0    0  0.00000000000E+00  0.00000000000E+00  0.10001813848E+04  0.10001813848E+04  0.51100000000E-03 0.  1.
         -2   -1    0    0    0  501 -0.00000000000E+00 -0.00000000000E+00 -0.78805204527E+02  0.78805204568E+02  0.25500000000E-02 0. -1.
         11    1    1    2    0    0 -0.19363780636E+03  0.14315580246E+03  0.67695428146E+03  0.71850976543E+03  0.51100000000E-03 0.  1.
         22    1    1    2    0    0 -0.71543352830E+01 -0.86849955884E+01  0.47289452544E+02  0.48609731367E+02  0.00000000000E+00 0. -1.
         -2    1    1    2    0  501  0.20079214165E+03 -0.13447080687E+03  0.19713244626E+03  0.31186709256E+03  0.25500000000E-02 0. -1.
<mgrwt>
<rscale>  0 0.24138211E+03</rscale>
<asrwt>0</asrwt>
<pdfrwt beam="1">  1       11 0.10000000E+01 0.11252274E+02</pdfrwt>
<pdfrwt beam="2">  1       -2 0.12126076E-01 0.24138211E+03</pdfrwt>
<totfact> 0.38685336E+02</totfact>
</mgrwt>
</event>
<event>
 5    1  0.6729100E-004  0.2422273E+03  0.7818608E-02  0.1118318E+00
         11   -1    0    0    0    0  0.00000000000E+00  0.00000000000E+00  0.10005413103E+04  0.10005413103E+04  0.51100000000E-03 0. -1.
          2   -1    0    0  501    0 -0.00000000000E+00 -0.00000000000E+00 -0.11075410377E+04  0.11075410377E+04  0.25500000000E-02 0. -1.
         11    1    1    2    0    0 -0.13061553833E+03  0.24331780187E+03  0.73527743694E+03  0.78542783299E+03  0.51100000000E-03 0. -1.
         22    1    1    2    0    0  0.44487305143E+02 -0.17523301766E+02  0.22414767437E+03  0.22919067684E+03  0.00000000000E+00 0. -1.
          2    1    1    2  501    0  0.86128233182E+02 -0.22579450011E+03 -0.10664248387E+04  0.10934638382E+04  0.25500000000E-02 0. -1.
<mgrwt>
<rscale>  0 0.24222727E+03</rscale>
<asrwt>0</asrwt>
<pdfrwt beam="1">  1       11 0.10000000E+01 0.47814082E+02</pdfrwt>
<pdfrwt beam="2">  1        2 0.17048316E+00 0.24222727E+03</pdfrwt>
<totfact> 0.28454837E+01</totfact>
</mgrwt>
</event>
<event>
 5    1  0.6729100E-004  0.9700674E+02  0.7818608E-02  0.1286719E+00
         11   -1    0    0    0    0  0.00000000000E+00  0.00000000000E+00  0.10004038664E+04  0.10004038664E+04  0.51100000000E-03 0. -1.
          2   -1    0    0  501    0 -0.00000000000E+00 -0.00000000000E+00 -0.66041153790E+03  0.66041153790E+03  0.25500000000E-02 0. -1.
         11    1    1    2    0    0 -0.46787557899E+02 -0.67580061852E+02  0.17432797858E+03  0.19273397327E+03  0.51100000000E-03 0. -1.
         22    1    1    2    0    0  0.24186155700E+02  0.16166565737E+03  0.80501816501E+03  0.82144689475E+03  0.00000000000E+00 0. -1.
          2    1    1    2  501    0  0.22601402199E+02 -0.94085595519E+02 -0.63935381508E+03  0.64663453629E+03  0.25500000000E-02 0. -1.
<mgrwt>
<rscale>  0 0.97006740E+02</rscale>
<asrwt>0</asrwt>
<pdfrwt beam="1">  1       11 0.10000000E+01 0.82195744E+02</pdfrwt>
<pdfrwt beam="2">  1        2 0.10164281E+00 0.97006740E+02</pdfrwt>
<totfact> 0.57745373E+01</totfact>
</mgrwt>
</event>
<event>
 5    1  0.6729100E-004  0.1497164E+03  0.7818608E-02  0.1200822E+00
         11   -1    0    0    0    0  0.00000000000E+00  0.00000000000E+00  0.10002598449E+04  0.10002598449E+04  0.51100000000E-03 0.  1.
          2   -1    0    0  501    0 -0.00000000000E+00 -0.00000000000E+00 -0.26951445819E+03  0.26951445821E+03  0.25500000000E-02 0.  1.
         11    1    1    2    0    0 -0.53850635630E+02 -0.20376556800E+03  0.72960263531E+03  0.75943419933E+03  0.51100000000E-03 0.  1.
         22    1    1    2    0    0  0.24591474510E+02  0.58753637923E+02  0.22954346826E+03  0.23821615061E+03  0.00000000000E+00 0. -1.
          2    1    1    2  501    0  0.29259161120E+02  0.14501193008E+03 -0.22840071691E+03  0.27212395313E+03  0.25500000000E-02 0.  1.
<mgrwt>
<rscale>  0 0.14971636E+03</rscale>
<asrwt>0</asrwt>
<pdfrwt beam="1">  1       11 0.10000000E+01 0.63692469E+02</pdfrwt>
<pdfrwt beam="2">  1        2 0.41474536E-01 0.14971636E+03</pdfrwt>
<totfact> 0.15180045E+02</totfact>
</mgrwt>
</event>
<event>
 5    1  0.6729100E-004  0.3395657E+03  0.7818608E-02  0.1066981E+00
         11   -1    0    0    0    0  0.00000000000E+00  0.00000000000E+00  0.10009241116E+04  0.10009241116E+04  0.51100000000E-03 0.  1.
          2   -1    0    0  501    0 -0.00000000000E+00 -0.00000000000E+00 -0.11480064716E+04  0.11480064716E+04  0.25500000000E-02 0.  1.
         11    1    1    2    0    0 -0.32884884724E+01 -0.35285647685E+03  0.84101194708E+03  0.91204144782E+03  0.51100000000E-03 0.  1.
         22    1    1    2    0    0  0.92545414996E+01  0.13732243859E+02  0.97833382546E+02  0.99224955531E+02  0.00000000000E+00 0.  1.
          2    1    1    2  501    0 -0.59660530272E+01  0.33912423299E+03 -0.10859276895E+04  0.11376641798E+04  0.25500000000E-02 0.  1.
<mgrwt>
<rscale>  0 0.33956574E+03</rscale>
<asrwt>0</asrwt>
<pdfrwt beam="1">  1       11 0.10000000E+01 0.16559621E+02</pdfrwt>
<pdfrwt beam="2">  1        2 0.17677959E+00 0.33956574E+03</pdfrwt>
<totfact> 0.26436687E+01</totfact>
</mgrwt>
</event>
<event>
 5    1  0.6729100E-004  0.3347939E+03  0.7818608E-02  0.1069035E+00
         11   -1    0    0    0    0  0.00000000000E+00  0.00000000000E+00  0.10003809474E+04  0.10003809474E+04  0.51100000000E-03 0.  1.
          2   -1    0    0  501    0 -0.00000000000E+00 -0.00000000000E+00 -0.50942377972E+03  0.50942377973E+03  0.25500000000E-02 0.  1.
         11    1    1    2    0    0  0.31451506145E+03 -0.87162782769E+02  0.83920643456E+03  0.90043573584E+03  0.51100000000E-03 0.  1.
         22    1    1    2    0    0  0.55488231027E+01 -0.13013680589E+02  0.71049739459E+02  0.72444536008E+02  0.00000000000E+00 0. -1.
          2    1    1    2  501    0 -0.32006388455E+03  0.10017646336E+03 -0.41929900631E+03  0.53692445530E+03  0.25500000000E-02 0.  1.
<mgrwt>
<rscale>  0 0.33479387E+03</rscale>
<asrwt>0</asrwt>
<pdfrwt beam="1">  1       11 0.10000000E+01 0.14147273E+02</pdfrwt>
<pdfrwt beam="2">  1        2 0.78402743E-01 0.33479387E+03</pdfrwt>
<totfact> 0.75617080E+01</totfact>
</mgrwt>
</event>
<event>
 5    1  0.6729100E-004  0.1572623E+03  0.7818608E-02  0.1191823E+00
         11   -1    0    0    0    0  0.00000000000E+00  0.00000000000E+00  0.10003126509E+04  0.10003126509E+04  0.51100000000E-03 0. -1.
          2   -1    0    0  501    0 -0.00000000000E+00 -0.00000000000E+00 -0.25111188992E+03  0.25111188993E+03  0.25500000000E-02 0. -1.
         11    1    1    2    0    0  0.18547073992E+03  0.10306281767E+03  0.22456328075E+03  0.30894984514E+03  0.51100000000E-03 0. -1.
         22    1    1    2    0    0 -0.13325043877E+03  0.44285825827E+02  0.69628806936E+03  0.71030556055E+03  0.00000000000E+00 0. -1.
          2    1    1    2  501    0 -0.52220301148E+02 -0.14734864349E+03 -0.17165058909E+03  0.23216913518E+03  0.25500000000E-02 0. -1.
<mgrwt>
<rscale>  0 0.15726231E+03</rscale>
<asrwt>0</asrwt>
<pdfrwt beam="1">  1       11 0.10000000E+01 0.14041693E+03</pdfrwt>
<pdfrwt beam="2">  1        2 0.38644676E-01 0.15726231E+03</pdfrwt>
<totfact> 0.16376323E+02</totfact>
</mgrwt>
</event>
<event>
 5    1  0.6729100E-004  0.8019658E+02  0.7818608E-02  0.1616301E+00
         11   -1    0    0    0    0  0.00000000000E+00  0.00000000000E+00  0.10002347831E+04  0.10002347831E+04  0.51100000000E-03 0.  1.
          2   -1    0    0  501    0 -0.00000000000E+00 -0.00000000000E+00 -0.25102587788E+02  0.25102587918E+02  0.25500000000E-02 0.  1.
         11    1    1    2    0    0 -0.77861019832E+02  0.43896665528E+02  0.67269922056E+02  0.11186821741E+03  0.51100000000E-03 0.  1.
         22    1    1    2    0    0  0.78556244078E+01 -0.62969031845E+01  0.23787924377E+02  0.25830740809E+02  0.00000000000E+00 0.  1.
          2    1    1    2  501    0  0.70005395424E+02 -0.37599762343E+02  0.88407434884E+03  0.88763841276E+03  0.25500000000E-02 0.  1.
<mgrwt>
<rscale>  0 0.28414919E+02</rscale>
<asrwt>0</asrwt>
<pdfrwt beam="1">  1       11 0.10000000E+01 0.80196583E+02</pdfrwt>
<pdfrwt beam="2">  1        2 0.38628432E-02 0.28414919E+02</pdfrwt>
<totfact> 0.21558491E+03</totfact>
</mgrwt>
</event>
<event>
 5    1  0.6729100E-004  0.1891005E+03  0.7818608E-02  0.1159275E+00
         11   -1    0    0    0    0  0.00000000000E+00  0.00000000000E+00  0.10000342504E+04  0.10000342504E+04  0.51100000000E-03 0. -1.
          2   -1    0    0  501    0 -0.00000000000E+00 -0.00000000000E+00 -0.11544100874E+03  0.11544100877E+03  0.25500000000E-02 0. -1.
         11    1    1    2    0    0 -0.64490547142E+02  0.18126404768E+03  0.85690776468E+03  0.87824062922E+03  0.51100000000E-03 0. -1.
         22    1    1    2    0    0  0.16345005933E+02  0.13293735982E+01  0.44721645501E+02  0.47633517920E+02  0.00000000000E+00 0.  1.
          2    1    1    2  501    0  0.48145541209E+02 -0.18259342127E+03 -0.17036168539E+02  0.18960111201E+03  0.25500000000E-02 0. -1.
<mgrwt>
<rscale>  0 0.18910051E+03</rscale>
<asrwt>0</asrwt>
<pdfrwt beam="1">  1       11 0.10000000E+01 0.16398977E+02</pdfrwt>
<pdfrwt beam="2">  1        2 0.17760763E-01 0.18910051E+03</pdfrwt>
<totfact> 0.38910838E+02</totfact>
</mgrwt>
</event>
<event>
 5    1  0.6729100E-004  0.2678464E+03  0.7818608E-02  0.1102519E+00
         11   -1    0    0    0    0  0.00000000000E+00  0.00000000000E+00  0.99984605069E+03  0.99984605069E+03  0.51100000000E-03 0. -1.
          2   -1    0    0  501    0 -0.00000000000E+00 -0.00000000000E+00 -0.82260555325E+02  0.82260555365E+02  0.25500000000E-02 0. -1.
         11    1    1    2    0    0  0.26032396377E+03  0.26038890681E+02  0.38687341391E+03  0.46703065032E+03  0.51100000000E-03 0. -1.
         22    1    1    2    0    0  0.14296295529E+02 -0.15961533279E+02  0.11341436349E+03  0.11542084932E+03  0.00000000000E+00 0.  1.
          2    1    1    2  501    0 -0.27462025930E+03 -0.10077357402E+02  0.41729771796E+03  0.49965510642E+03  0.25500000000E-02 0. -1.
<mgrwt>
<rscale>  0 0.26784639E+03</rscale>
<asrwt>0</asrwt>
<pdfrwt beam="1">  1       11 0.10000000E+01 0.21427893E+02</pdfrwt>
<pdfrwt beam="2">  1        2 0.12653521E-01 0.26784639E+03</pdfrwt>
<totfact> 0.58942758E+02</totfact>
</mgrwt>
</event>
<event>
 5    1  0.6729100E-004  0.2412061E+03  0.7818608E-02  0.1118992E+00
         11   -1    0    0    0    0  0.00000000000E+00  0.00000000000E+00  0.10002438439E+04  0.10002438439E+04  0.51100000000E-03 0.  1.
          2   -1    0    0  501    0 -0.00000000000E+00 -0.00000000000E+00 -0.15926316318E+03  0.15926316320E+03  0.25500000000E-02 0.  1.
         11    1    1    2    0    0  0.35240994240E+02  0.24281941623E+03  0.86397481501E+03  0.89814012134E+03  0.51100000000E-03 0.  1.
         22    1    1    2    0    0  0.93324440146E+01 -0.62405649217E+01  0.13843419550E+02  0.17823563804E+02  0.00000000000E+00 0. -1.
          2    1    1    2  501    0 -0.44573438254E+02 -0.23657885131E+03 -0.36837553855E+02  0.24354332195E+03  0.25500000000E-02 0.  1.
<mgrwt>
<rscale>  0 0.24120613E+03</rscale>
<asrwt>0</asrwt>
<pdfrwt beam="1">  1       11 0.10000000E+01 0.11226716E+02</pdfrwt>
<pdfrwt beam="2">  1        2 0.24507999E-01 0.24120613E+03</pdfrwt>
<totfact> 0.27134515E+02</totfact>
</mgrwt>
</event>
<event>
 5    1  0.6729100E-004  0.1298523E+03  0.7818608E-02  0.1227675E+00
         11   -1    0    0    0    0  0.00000000000E+00  0.00000000000E+00  0.10003377453E+04  0.10003377453E+04  0.51100000000E-03 0. -1.
          2   -1    0    0  501    0 -0.00000000000E+00 -0.00000000000E+00 -0.26774152850E+03  0.26774152851E+03  0.25500000000E-02 0.  1.
         11    1    1    2    0    0 -0.70620423745E+02 -0.12911535106E+03  0.24380401509E+03  0.28477783605E+03  0.51100000000E-03 0. -1.
         22    1    1    2    0    0  0.12290888677E+03  0.75813453373E+01  0.71268139059E+03  0.72324189297E+03  0.00000000000E+00 0. -1.
          2    1    1    2  501    0 -0.52288463030E+02  0.12153400572E+03 -0.22388918890E+03  0.26005954477E+03  0.25500000000E-02 0.  1.
<mgrwt>
<rscale>  0 0.12985225E+03</rscale>
<asrwt>0</asrwt>
<pdfrwt beam="1">  1       11 0.10000000E+01 0.12314248E+03</pdfrwt>
<pdfrwt beam="2">  1        2 0.41204915E-01 0.12985225E+03</pdfrwt>
<totfact> 0.15267590E+02</totfact>
</mgrwt>
</event>
<event>
 5    1  0.6729100E-004  0.2449997E+03  0.7818608E-02  0.1122666E+00
         11   -1    0    0    0    0  0.00000000000E+00  0.00000000000E+00  0.99955086056E+03  0.99955086056E+03  0.51100000000E-03 0. -1.
          2   -1    0    0  501    0 -0.00000000000E+00 -0.00000000000E+00 -0.36420663756E+03  0.36420663757E+03  0.25500000000E-02 0.  1.
         11    1    1    2    0    0  0.20622033811E+03 -0.21423091203E+02  0.89258408403E+03  0.91634716334E+03  0.51100000000E-03 0. -1.
         22    1    1    2    0    0  0.28723993866E+02  0.21076697095E+01  0.51473258195E+02  0.58983102702E+02  0.00000000000E+00 0.  1.
          2    1    1    2  501    0 -0.23494433198E+03  0.19315421493E+02 -0.30871311923E+03  0.38842723209E+03  0.25500000000E-02 0.  1.
<mgrwt>
<rscale>  0 0.23573698E+03</rscale>
<asrwt>0</asrwt>
<pdfrwt beam="1">  1       11 0.10000000E+01 0.24499972E+03</pdfrwt>
<pdfrwt beam="2">  1        2 0.56006623E-01 0.23573698E+03</pdfrwt>
<totfact> 0.11009361E+02</totfact>
</mgrwt>
</event>
<event>
 5    1  0.6729100E-004  0.1999161E+03  0.7818608E-02  0.1390234E+00
         11   -1    0    0    0    0  0.00000000000E+00  0.00000000000E+00  0.10003481874E+04  0.10003481874E+04  0.51100000000E-03 0. -1.
         -2   -1    0    0    0  501 -0.00000000000E+00 -0.00000000000E+00 -0.89714031079E+02  0.89714031116E+02  0.25500000000E-02 0.  1.
         11    1    1    2    0    0 -0.17657291154E+03  0.12433067849E+03  0.79746475078E+03  0.82618771441E+03  0.51100000000E-03 0. -1.
         22    1    1    2    0    0  0.13881289481E+03 -0.75346682215E+02  0.12435424065E+03  0.20102268393E+03  0.00000000000E+00 0.  1.
         -2    1    1    2    0  501  0.37760016726E+02 -0.48983996277E+02 -0.11184835126E+02  0.62851820162E+02  0.25500000000E-02 0.  1.
<mgrwt>
<rscale>  0 0.61848612E+02</rscale>
<asrwt>0</asrwt>
<pdfrwt beam="1">  1       11 0.10000000E+01 0.19991612E+03</pdfrwt>
<pdfrwt beam="2">  1       -2 0.13806964E-01 0.61848612E+02</pdfrwt>
<totfact> 0.29232677E+02</totfact>
</mgrwt>
</event>
<event>
 5    1  0.6729100E-004  0.2573497E+03  0.7818608E-02  0.1110940E+00
         11   -1    0    0    0    0  0.00000000000E+00  0.00000000000E+00  0.10002713042E+04  0.10002713042E+04  0.51100000000E-03 0. -1.
          2   -1    0    0  501    0 -0.00000000000E+00 -0.00000000000E+00 -0.98030218543E+02  0.98030218576E+02  0.25500000000E-02 0. -1.
         11    1    1    2    0    0  0.17892143105E+03 -0.15136095444E+03  0.66798954410E+03  0.70790751377E+03  0.51100000000E-03 0. -1.
         22    1    1    2    0    0  0.17841941829E+02 -0.89129779138E+01  0.10255963293E+03  0.10448088040E+03  0.00000000000E+00 0.  1.
          2    1    1    2  501    0 -0.19676337287E+03  0.16027393235E+03  0.13169190859E+03  0.28591312857E+03  0.25500000000E-02 0. -1.
<mgrwt>
<rscale>  0 0.25377856E+03</rscale>
<asrwt>0</asrwt>
<pdfrwt beam="1">  1       11 0.10000000E+01 0.25734970E+03</pdfrwt>
<pdfrwt beam="2">  1        2 0.15085663E-01 0.25377856E+03</pdfrwt>
<totfact> 0.47606815E+02</totfact>
</mgrwt>
</event>
<event>
 5    1  0.6729100E-004  0.2852864E+03  0.7818608E-02  0.1092836E+00
         11   -1    0    0    0    0  0.00000000000E+00  0.00000000000E+00  0.10004324356E+04  0.10004324356E+04  0.51100000000E-03 0. -1.
          2   -1    0    0  501    0 -0.00000000000E+00 -0.00000000000E+00 -0.88150283673E+03  0.88150283673E+03  0.25500000000E-02 0. -1.
         11    1    1    2    0    0 -0.77602294089E+02 -0.27974141573E+03  0.33492937407E+03  0.44323251386E+03  0.51100000000E-03 0. -1.
         22    1    1    2    0    0 -0.20489278990E+03  0.23993130052E+03  0.54291543950E+03  0.62793730481E+03  0.00000000000E+00 0. -1.
          2    1    1    2  501    0  0.28249508399E+03  0.39810115213E+02 -0.75891521470E+03  0.81076545367E+03  0.25500000000E-02 0. -1.
<mgrwt>
<rscale>  0 0.28528638E+03</rscale>
<asrwt>0</asrwt>
<pdfrwt beam="1">  1       11 0.10000000E+01 0.26977810E+03</pdfrwt>
<pdfrwt beam="2">  1        2 0.13567446E+00 0.28528638E+03</pdfrwt>
<totfact> 0.38947478E+01</totfact>
</mgrwt>
</event>
<event>
 5    1  0.6729100E-004  0.2587183E+03  0.7818608E-02  0.1107916E+00
         11   -1    0    0    0    0  0.00000000000E+00  0.00000000000E+00  0.10001747909E+04  0.10001747909E+04  0.51100000000E-03 0. -1.
          2   -1    0    0  501    0 -0.00000000000E+00 -0.00000000000E+00 -0.10731551878E+03  0.10731551881E+03  0.25500000000E-02 0. -1.
         11    1    1    2    0    0 -0.17642527622E+03  0.17637617928E+03  0.79106126971E+03  0.82946510905E+03  0.51100000000E-03 0. -1.
         22    1    1    2    0    0  0.29096655615E+02 -0.11038847625E+01  0.55046018308E+01  0.29633335466E+02  0.00000000000E+00 0. -1.
          2    1    1    2  501    0  0.14732862061E+03 -0.17527229452E+03  0.96293400540E+02  0.24839186514E+03  0.25500000000E-02 0. -1.
<mgrwt>
<rscale>  0 0.25871834E+03</rscale>
<asrwt>0</asrwt>
<pdfrwt beam="1">  1       11 0.10000000E+01 0.24946830E+03</pdfrwt>
<pdfrwt beam="2">  1        2 0.16512965E-01 0.25871834E+03</pdfrwt>
<totfact> 0.42802919E+02</totfact>
</mgrwt>
</event>
<event>
 5    1  0.6729100E-004  0.3146359E+03  0.7818608E-02  0.1078145E+00
         11   -1    0    0    0    0  0.00000000000E+00  0.00000000000E+00  0.99979914108E+03  0.99979914108E+03  0.51100000000E-03 0. -1.
          2   -1    0    0  501    0 -0.00000000000E+00 -0.00000000000E+00 -0.17704190380E+03  0.17704190381E+03  0.25500000000E-02 0. -1.
         11    1    1    2    0    0  0.28812789498E+03  0.87344178315E+02  0.71760806499E+02  0.30950977803E+03  0.51100000000E-03 0. -1.
         22    1    1    2    0    0  0.45950698739E+02  0.52730706451E+02  0.15185783338E+03  0.16719089592E+03  0.00000000000E+00 0. -1.
          2    1    1    2  501    0 -0.33407859372E+03 -0.14007488477E+03  0.59913859740E+03  0.70014037094E+03  0.25500000000E-02 0. -1.
<mgrwt>
<rscale>  0 0.31463590E+03</rscale>
<asrwt>0</asrwt>
<pdfrwt beam="1">  1       11 0.10000000E+01 0.69942792E+02</pdfrwt>
<pdfrwt beam="2">  1        2 0.27231744E-01 0.31463590E+03</pdfrwt>
<totfact> 0.24230004E+02</totfact>
</mgrwt>
</event>
<event>
 5    1  0.6729100E-004  0.9019903E+02  0.7818608E-02  0.1382312E+00
         11   -1    0    0    0    0  0.00000000000E+00  0.00000000000E+00  0.10000503619E+04  0.10000503619E+04  0.51100000000E-03 0. -1.
         -2   -1    0    0    0  501 -0.00000000000E+00 -0.00000000000E+00 -0.10217100447E+03  0.10217100451E+03  0.25500000000E-02 0. -1.
         11    1    1    2    0    0  0.78052145748E+02 -0.96919766581E+02  0.62948715800E+03  0.64166943257E+03  0.51100000000E-03 0. -1.
         22    1    1    2    0    0 -0.20481394793E+02  0.69284514185E+02  0.34974458181E+03  0.35712897383E+03  0.00000000000E+00 0. -1.
         -2    1    1    2    0  501 -0.57570750955E+02  0.27635252396E+02 -0.81352382360E+02  0.10342296004E+03  0.25500000000E-02 0. -1.
<mgrwt>
<rscale>  0 0.63859992E+02</rscale>
<asrwt>0</asrwt>
<pdfrwt beam="1">  1       11 0.10000000E+01 0.90199027E+02</pdfrwt>
<pdfrwt beam="2">  1       -2 0.15719407E-01 0.63859992E+02</pdfrwt>
<totfact> 0.23801923E+02</totfact>
</mgrwt>
</event>
<event>
 5    1  0.6729100E-004  0.2454941E+03  0.7818608E-02  0.1116186E+00
         11   -1    0    0    0    0  0.00000000000E+00  0.00000000000E+00  0.10002116013E+04  0.10002116013E+04  0.51100000000E-03 0. -1.
          2   -1    0    0  501    0 -0.00000000000E+00 -0.00000000000E+00 -0.18940755197E+03  0.18940755198E+03  0.25500000000E-02 0. -1.
         11    1    1    2    0    0 -0.16638029337E+03  0.25075512477E+03  0.15621896486E+03  0.33906474250E+03  0.51100000000E-03 0. -1.
         22    1    1    2    0    0 -0.60097198366E+02 -0.18762690630E+03  0.56599868012E+03  0.59930796350E+03  0.00000000000E+00 0.  1.
          2    1    1    2  501    0  0.22647749174E+03 -0.63128218473E+02  0.88586404350E+02  0.25124644729E+03  0.25500000000E-02 0. -1.
<mgrwt>
<rscale>  0 0.24549412E+03</rscale>
<asrwt>0</asrwt>
<pdfrwt beam="1">  1       11 0.10000000E+01 0.19701657E+03</pdfrwt>
<pdfrwt beam="2">  1        2 0.29145789E-01 0.24549412E+03</pdfrwt>
<totfact> 0.22378679E+02</totfact>
</mgrwt>
</event>
<event>
 5    1  0.6729100E-004  0.1162778E+03  0.7818608E-02  0.1570515E+00
         11   -1    0    0    0    0  0.00000000000E+00  0.00000000000E+00  0.10001831457E+04  0.10001831457E+04  0.51100000000E-03 0. -1.
          2   -1    0    0  501    0 -0.00000000000E+00 -0.00000000000E+00 -0.20942020235E+02  0.20942020390E+02  0.25500000000E-02 0. -1.
         11    1    1    2    0    0  0.61922447817E+02 -0.10786522329E+03  0.50622501243E+03  0.52128021173E+03  0.51100000000E-03 0. -1.
         22    1    1    2    0    0 -0.77400647059E+02  0.79116918545E+02  0.43882695361E+03  0.45256982023E+03  0.00000000000E+00 0. -1.
          2    1    1    2  501    0  0.15478199241E+02  0.28748304744E+02  0.34189159407E+02  0.47275134107E+02  0.25500000000E-02 0. -1.
<mgrwt>
<rscale>  0 0.32650263E+02</rscale>
<asrwt>0</asrwt>
<pdfrwt beam="1">  1       11 0.10000000E+01 0.11627777E+03</pdfrwt>
<pdfrwt beam="2">  1        2 0.32224393E-02 0.32650263E+02</pdfrwt>
<totfact> 0.27653985E+03</totfact>
</mgrwt>
</event>
