<event>
 5    1  0.1827710E-018  0.2000626E+01  0.7818608E-02  0.3998306E+00
         11   -1    0    0    0    0  0.00000000000E+00  0.00000000000E+00  0.39999999628E+01  0.39999999954E+01  0.51100000000E-03 0. -1.
          4   -1    0    0  501    0 -0.00000000000E+00 -0.00000000000E+00  0.23725648151E+00  0.14396842147E+01  0.14200000000E+01 0. -1.
         11    1    1    2    0    0  0.14731735599E+00 -0.15507711667E+00  0.27356753037E+00  0.34726181806E+00  0.51100000000E-03 0. -1.
         22    1    1    2    0    0  0.82006519250E+00 -0.86975202359E+00  0.15490501460E+01  0.19566634502E+01  0.00000000000E+00 0. -1.
          4    1    1    2  501    0 -0.96738254849E+00  0.10248291403E+01  0.24146387679E+01  0.31357589418E+01  0.14200000000E+01 0. -1.
<mgrwt>
<rscale>  0 0.20006258E+01</rscale>
<asrwt>0</asrwt>
<pdfrwt beam="1">  1       11 0.10000000E+01 0.14093035E+01</pdfrwt>
<pdfrwt beam="2">  1        4 0.99853220E+00 0.20006258E+01</pdfrwt>
<totfact> 0.36966885E-10</totfact>
</mgrwt>
</event>
<event>
 5    1  0.1827710E-018  0.2001469E+01  0.7818608E-02  0.3997237E+00
         11   -1    0    0    0    0  0.00000000000E+00  0.00000000000E+00  0.39999999587E+01  0.39999999914E+01  0.51100000000E-03 0.  1.
          4   -1    0    0  501    0 -0.00000000000E+00 -0.00000000000E+00  0.23639854058E+00  0.14395430768E+01  0.14200000000E+01 0. -1.
         11    1    1    2    0    0 -0.94998477728E+00  0.99941870276E+00  0.17047001255E+01  0.21925582317E+01  0.51100000000E-03 0.  1.
         22    1    1    2    0    0 -0.21947613619E-01  0.22748616652E-01  0.39697965475E-01  0.50745697020E-01  0.00000000000E+00 0. -1.
          4    1    1    2  501    0  0.97193239090E+00 -0.10221673194E+01  0.24920004083E+01  0.31962391394E+01  0.14200000000E+01 0. -1.
<mgrwt>
<rscale>  0 0.20014691E+01</rscale>
<asrwt>0</asrwt>
<pdfrwt beam="1">  1       11 0.10000000E+01 0.14104928E+01</pdfrwt>
<pdfrwt beam="2">  1        4 0.99902430E+00 0.20014691E+01</pdfrwt>
<totfact> 0.25190422E-10</totfact>
</mgrwt>
</event>
<event>
 5    1  0.1827710E-018  0.2000079E+01  0.7818608E-02  0.3998999E+00
         11   -1    0    0    0    0  0.00000000000E+00  0.00000000000E+00  0.39999999478E+01  0.39999999805E+01  0.51100000000E-03 0.  1.
          4   -1    0    0  501    0 -0.00000000000E+00 -0.00000000000E+00  0.23974404726E+00  0.14400962496E+01  0.14200000000E+01 0.  1.
         11    1    1    2    0    0 -0.10188018084E+01 -0.69186020683E+00  0.15126840015E+01  0.19506001180E+01  0.51100000000E-03 0.  1.
         22    1    1    2    0    0 -0.14703655558E+00 -0.98543035556E-01  0.21912324478E+00  0.28168328835E+00  0.00000000000E+00 0. -1.
          4    1    1    2  501    0  0.11658383640E+01  0.79040324238E+00  0.25079367488E+01  0.32078128238E+01  0.14200000000E+01 0.  1.
<mgrwt>
<rscale>  0 0.20000791E+01</rscale>
<asrwt>0</asrwt>
<pdfrwt beam="1">  1       11 0.10000000E+01 0.14085222E+01</pdfrwt>
<pdfrwt beam="2">  1        4 0.99710730E+00 0.20000791E+01</pdfrwt>
<totfact> 0.67947505E-10</totfact>
</mgrwt>
</event>
<event>
 5    1  0.1827710E-018  0.2000025E+01  0.7818608E-02  0.3999068E+00
         11   -1    0    0    0    0  0.00000000000E+00  0.00000000000E+00  0.39999999500E+01  0.39999999827E+01  0.51100000000E-03 0. -1.
         -4   -1    0    0    0  501 -0.00000000000E+00 -0.00000000000E+00  0.23932325400E+00  0.14400262567E+01  0.14200000000E+01 0. -1.
         11    1    1    2    0    0 -0.89583379543E+00  0.10242926333E+01  0.16897299077E+01  0.21695347450E+01  0.51100000000E-03 0. -1.
         22    1    1    2    0    0 -0.26648844531E-01  0.40002757808E-01  0.52433208690E-01  0.71131026427E-01  0.00000000000E+00 0.  1.
         -4    1    1    2    0  501  0.92248263996E+00 -0.10642953911E+01  0.24971600876E+01  0.31993604679E+01  0.14200000000E+01 0. -1.
<mgrwt>
<rscale>  0 0.20000247E+01</rscale>
<asrwt>0</asrwt>
<pdfrwt beam="1">  1       11 0.10000000E+01 0.14090609E+01</pdfrwt>
<pdfrwt beam="2">  1       -4 0.99734813E+00 0.20000247E+01</pdfrwt>
<totfact> 0.63018808E-10</totfact>
</mgrwt>
</event>
<event>
 5    1  0.1827710E-018  0.2000542E+01  0.7818608E-02  0.3998412E+00
         11   -1    0    0    0    0  0.00000000000E+00  0.00000000000E+00  0.39999999595E+01  0.39999999921E+01  0.51100000000E-03 0.  1.
         -4   -1    0    0    0  501 -0.00000000000E+00 -0.00000000000E+00  0.23861157428E+00  0.14399081510E+01  0.14200000000E+01 0.  1.
         11    1    1    2    0    0 -0.68069759545E+00  0.12087566626E+01  0.17436117695E+01  0.22281436556E+01  0.51100000000E-03 0.  1.
         22    1    1    2    0    0 -0.10550438155E-01  0.19226819942E-01  0.27579407938E-01  0.35236431325E-01  0.00000000000E+00 0. -1.
         -4    1    1    2    0  501  0.69124803360E+00 -0.12279834826E+01  0.24674203563E+01  0.31765280563E+01  0.14200000000E+01 0.  1.
<mgrwt>
<rscale>  0 0.20005417E+01</rscale>
<asrwt>0</asrwt>
<pdfrwt beam="1">  1       11 0.10000000E+01 0.14091740E+01</pdfrwt>
<pdfrwt beam="2">  1       -4 0.99775564E+00 0.20005417E+01</pdfrwt>
<totfact> 0.54431919E-10</totfact>
</mgrwt>
</event>
<event>
 5    1  0.1827710E-018  0.2001081E+01  0.7818608E-02  0.3997729E+00
         11   -1    0    0    0    0  0.00000000000E+00  0.00000000000E+00  0.39999999663E+01  0.39999999990E+01  0.51100000000E-03 0. -1.
          4   -1    0    0  501    0 -0.00000000000E+00 -0.00000000000E+00  0.23732401653E+00  0.14396953458E+01  0.14200000000E+01 0. -1.
         11    1    1    2    0    0 -0.11172248693E+01 -0.73591594873E+00  0.16497160063E+01  0.21239884309E+01  0.51100000000E-03 0. -1.
         22    1    1    2    0    0 -0.60187898601E-01 -0.39727559056E-01  0.92073687858E-01  0.11695480359E+00  0.00000000000E+00 0. -1.
          4    1    1    2  501    0  0.11774127679E+01  0.77564350778E+00  0.24955342887E+01  0.31987521103E+01  0.14200000000E+01 0. -1.
<mgrwt>
<rscale>  0 0.20010806E+01</rscale>
<asrwt>0</asrwt>
<pdfrwt beam="1">  1       11 0.10000000E+01 0.14099636E+01</pdfrwt>
<pdfrwt beam="2">  1        4 0.99849348E+00 0.20010806E+01</pdfrwt>
<totfact> 0.37891375E-10</totfact>
</mgrwt>
</event>
<event>
 5    1  0.1827710E-018  0.2000208E+01  0.7818608E-02  0.3998835E+00
         11   -1    0    0    0    0  0.00000000000E+00  0.00000000000E+00  0.39999999636E+01  0.39999999962E+01  0.51100000000E-03 0.  1.
          4   -1    0    0  501    0 -0.00000000000E+00 -0.00000000000E+00  0.23892051801E+00  0.14399593793E+01  0.14200000000E+01 0.  1.
         11    1    1    2    0    0  0.70171920632E+00 -0.63321479165E+00  0.11346765424E+01  0.14767741649E+01  0.51100000000E-03 0.  1.
         22    1    1    2    0    0  0.34974091512E+00 -0.30426214909E+00  0.57285724010E+00  0.73692576330E+00  0.00000000000E+00 0. -1.
          4    1    1    2  501    0 -0.10514601214E+01  0.93747694074E+00  0.25313866990E+01  0.32262594473E+01  0.14200000000E+01 0.  1.
<mgrwt>
<rscale>  0 0.20002078E+01</rscale>
<asrwt>0</asrwt>
<pdfrwt beam="1">  1       11 0.10000000E+01 0.14088285E+01</pdfrwt>
<pdfrwt beam="2">  1        4 0.99757871E+00 0.20002078E+01</pdfrwt>
<totfact> 0.58198757E-10</totfact>
</mgrwt>
</event>
<event>
 5    1  0.1827710E-018  0.2001344E+01  0.7818608E-02  0.3997395E+00
         11   -1    0    0    0    0  0.00000000000E+00  0.00000000000E+00  0.39999999530E+01  0.39999999856E+01  0.51100000000E-03 0.  1.
          4   -1    0    0  501    0 -0.00000000000E+00 -0.00000000000E+00  0.23640896254E+00  0.14395447883E+01  0.14200000000E+01 0. -1.
         11    1    1    2    0    0 -0.75529497074E+00  0.89746854463E+00  0.14676922358E+01  0.18788403449E+01  0.51100000000E-03 0.  1.
         22    1    1    2    0    0 -0.14870339888E+00  0.18501277267E+00  0.27827661274E+00  0.36575989404E+00  0.00000000000E+00 0.  1.
          4    1    1    2  501    0  0.90399836962E+00 -0.10824813173E+01  0.24904400670E+01  0.31949445351E+01  0.14200000000E+01 0.  1.
<mgrwt>
<rscale>  0 0.20013443E+01</rscale>
<asrwt>0</asrwt>
<pdfrwt beam="1">  1       11 0.10000000E+01 0.14106116E+01</pdfrwt>
<pdfrwt beam="2">  1        4 0.99901832E+00 0.20013443E+01</pdfrwt>
<totfact> 0.25333724E-10</totfact>
</mgrwt>
</event>
<event>
 5    1  0.1827710E-018  0.2001531E+01  0.7818608E-02  0.3997158E+00
         11   -1    0    0    0    0  0.00000000000E+00  0.00000000000E+00  0.39999999604E+01  0.39999999931E+01  0.51100000000E-03 0.  1.
         -4   -1    0    0    0  501 -0.00000000000E+00 -0.00000000000E+00  0.23611203735E+00  0.14394960556E+01  0.14200000000E+01 0.  1.
         11    1    1    2    0    0  0.13123729745E+01 -0.23136580070E+00  0.16430420738E+01  0.21155236882E+01  0.51100000000E-03 0.  1.
         22    1    1    2    0    0  0.76634559959E-01 -0.14368875034E-01  0.90872832000E-01  0.11973801379E+00  0.00000000000E+00 0. -1.
         -4    1    1    2    0  501 -0.13890075344E+01  0.24573467573E+00  0.25021970919E+01  0.32042343467E+01  0.14200000000E+01 0.  1.
<mgrwt>
<rscale>  0 0.20015313E+01</rscale>
<asrwt>0</asrwt>
<pdfrwt beam="1">  1       11 0.10000000E+01 0.14106509E+01</pdfrwt>
<pdfrwt beam="2">  1       -4 0.99918871E+00 0.20015313E+01</pdfrwt>
<totfact> 0.21114338E-10</totfact>
</mgrwt>
</event>
<event>
 5    1  0.1827710E-018  0.2000071E+01  0.7818608E-02  0.3999009E+00
         11   -1    0    0    0    0  0.00000000000E+00  0.00000000000E+00  0.39999999521E+01  0.39999999847E+01  0.51100000000E-03 0. -1.
          4   -1    0    0  501    0 -0.00000000000E+00 -0.00000000000E+00  0.23959861882E+00  0.14400720462E+01  0.14200000000E+01 0. -1.
         11    1    1    2    0    0  0.18065248281E+00  0.59900226139E+00  0.77232822269E+00  0.99394676586E+00  0.51100000000E-03 0. -1.
         22    1    1    2    0    0  0.23822371901E+00  0.74577507779E+00  0.99981798430E+00  0.12698688943E+01  0.00000000000E+00 0. -1.
          4    1    1    2  501    0 -0.41887620182E+00 -0.13447773392E+01  0.24674523639E+01  0.31762563707E+01  0.14200000000E+01 0. -1.
<mgrwt>
<rscale>  0 0.20000708E+01</rscale>
<asrwt>0</asrwt>
<pdfrwt beam="1">  1       11 0.10000000E+01 0.14086728E+01</pdfrwt>
<pdfrwt beam="2">  1        4 0.99719052E+00 0.20000708E+01</pdfrwt>
<totfact> 0.66259051E-10</totfact>
</mgrwt>
</event>
