<event>
 5    1  0.3454171E+002  0.1599378E+01  0.7818608E-02  0.3354039E+00
         11   -1    0    0    0    0  0.00000000000E+00  0.00000000000E+00  0.39999999674E+01  0.40000000000E+01  0.51100000000E-03 0.  1.
    9000002   -1    0    0    0    0 -0.00000000000E+00 -0.00000000000E+00  0.00000000000E+00  0.93800000000E+00  0.93800000000E+00 0. -1.
         11    1    1    2    0    0  0.41170291174E-01 -0.38332416644E-01  0.10051805111E+01  0.10067534395E+01  0.51100000000E-03 0.  1.
    9000002    1    1    2    0    0 -0.23301789366E+00  0.15118947070E+00  0.51600744790E-01  0.97962351527E+00  0.93800000000E+00 0. -1.
         22    1    1    2    0    0  0.19184760249E+00 -0.11285705406E+00  0.29432187115E+01  0.29516230452E+01  0.00000000000E+00 0.  1.
</event>
<event>
 5    1  0.3454171E+002  0.1599660E+01  0.7818608E-02  0.3353733E+00
         11   -1    0    0    0    0  0.00000000000E+00  0.00000000000E+00  0.39999999674E+01  0.40000000000E+01  0.51100000000E-03 0.  1.
    9000002   -1    0    0    0    0 -0.00000000000E+00 -0.00000000000E+00  0.00000000000E+00  0.93800000000E+00  0.93800000000E+00 0. -1.
         11    1    1    2    0    0  0.55970229583E-02 -0.50896822473E-02  0.12565262604E+00  0.12588119432E+00  0.51100000000E-03 0.  1.
    9000002    1    1    2    0    0 -0.22652193465E+00  0.17402024628E+00  0.54375595744E-01  0.98203662783E+00  0.93800000000E+00 0. -1.
         22    1    1    2    0    0  0.22092491169E+00 -0.16893056403E+00  0.38199717456E+01  0.38300821778E+01  0.00000000000E+00 0.  1.
</event>
<event>
 5    1  0.3454171E+002  0.1597711E+01  0.7818608E-02  0.3355851E+00
         11   -1    0    0    0    0  0.00000000000E+00  0.00000000000E+00  0.39999999674E+01  0.40000000000E+01  0.51100000000E-03 0.  1.
    9000002   -1    0    0    0    0 -0.00000000000E+00 -0.00000000000E+00  0.00000000000E+00  0.93800000000E+00  0.93800000000E+00 0.  1.
         11    1    1    2    0    0  0.54022487521E-02  0.15524601126E-01  0.78059763960E+00  0.78077085858E+00  0.51100000000E-03 0.  1.
    9000002    1    1    2    0    0 -0.12301997263E+00 -0.27079360348E+00  0.60538855820E-01  0.98588642470E+00  0.93800000000E+00 0.  1.
         22    1    1    2    0    0  0.11761772388E+00  0.25526900235E+00  0.31588634719E+01  0.31713427167E+01  0.00000000000E+00 0.  1.
</event>
<event>
 5    1  0.4183976E+002  0.1556721E+01  0.7818608E-02  0.3401719E+00
         11   -1    0    0    0    0  0.00000000000E+00  0.00000000000E+00  0.39999999674E+01  0.40000000000E+01  0.51100000000E-03 0.  1.
    9000002   -1    0    0    0    0 -0.00000000000E+00 -0.00000000000E+00  0.00000000000E+00  0.93800000000E+00  0.93800000000E+00 0.  1.
         11    1    1    2    0    0  0.24062566760E+00 -0.13601504679E+00  0.28338700478E+01  0.28473181266E+01  0.51100000000E-03 0.  1.
    9000002    1    1    2    0    0 -0.48048669958E-01  0.63287829611E-01  0.36095986665E-01  0.94205145524E+00  0.93800000000E+00 0.  1.
         22    1    1    2    0    0 -0.19257699764E+00  0.72727217181E-01  0.11300339328E+01  0.11486304182E+01  0.00000000000E+00 0. -1.
</event>
<event>
 5    1  0.3454171E+002  0.1599089E+01  0.7818608E-02  0.3354353E+00
         11   -1    0    0    0    0  0.00000000000E+00  0.00000000000E+00  0.39999999674E+01  0.40000000000E+01  0.51100000000E-03 0. -1.
    9000002   -1    0    0    0    0 -0.00000000000E+00 -0.00000000000E+00  0.00000000000E+00  0.93800000000E+00  0.93800000000E+00 0.  1.
         11    1    1    2    0    0 -0.83986931801E-01  0.92644153599E-01  0.11791642163E+01  0.11857762242E+01  0.51100000000E-03 0. -1.
    9000002    1    1    2    0    0  0.23038886582E+00 -0.23394916342E+00  0.72589857770E-01  0.99645598398E+00  0.93800000000E+00 0.  1.
         22    1    1    2    0    0 -0.14640193402E+00  0.14130500982E+00  0.27482458933E+01  0.27557677918E+01  0.00000000000E+00 0. -1.
</event>
<event>
 5    1  0.3454171E+002  0.1599676E+01  0.7818608E-02  0.3353715E+00
         11   -1    0    0    0    0  0.00000000000E+00  0.00000000000E+00  0.39999999674E+01  0.40000000000E+01  0.51100000000E-03 0.  1.
    9000002   -1    0    0    0    0 -0.00000000000E+00 -0.00000000000E+00  0.00000000000E+00  0.93800000000E+00  0.93800000000E+00 0. -1.
         11    1    1    2    0    0 -0.18366164460E-01 -0.10393983911E-02  0.33279383333E+00  0.33330225467E+00  0.51100000000E-03 0. -1.
    9000002    1    1    2    0    0  0.22218031890E+00  0.77086085912E-02  0.32766767445E-01  0.96454195233E+00  0.93800000000E+00 0. -1.
         22    1    1    2    0    0 -0.20381415444E+00 -0.66692102001E-02  0.36344393666E+01  0.36401557930E+01  0.00000000000E+00 0.  1.
</event>
<event>
 5    1  0.3454171E+002  0.1598299E+01  0.7818608E-02  0.3355211E+00
         11   -1    0    0    0    0  0.00000000000E+00  0.00000000000E+00  0.39999999674E+01  0.40000000000E+01  0.51100000000E-03 0. -1.
    9000002   -1    0    0    0    0 -0.00000000000E+00 -0.00000000000E+00  0.00000000000E+00  0.93800000000E+00  0.93800000000E+00 0.  1.
         11    1    1    2    0    0  0.89617047829E-01  0.35921521013E-01  0.62796872468E+00  0.63534758301E+00  0.51100000000E-03 0. -1.
    9000002    1    1    2    0    0 -0.37253140505E+00 -0.13024071295E+00  0.10612250900E+00  0.10231560379E+01  0.93800000000E+00 0.  1.
         22    1    1    2    0    0  0.28291435722E+00  0.94319191936E-01  0.32659087337E+01  0.32794963791E+01  0.00000000000E+00 0. -1.
</event>
<event>
 5    1  0.3454171E+002  0.1599647E+01  0.7818608E-02  0.3353747E+00
         11   -1    0    0    0    0  0.00000000000E+00  0.00000000000E+00  0.39999999674E+01  0.40000000000E+01  0.51100000000E-03 0. -1.
    9000002   -1    0    0    0    0 -0.00000000000E+00 -0.00000000000E+00  0.00000000000E+00  0.93800000000E+00  0.93800000000E+00 0. -1.
         11    1    1    2    0    0 -0.20475740200E-01 -0.39358471024E-02  0.27102643922E+00  0.27182777398E+00  0.51100000000E-03 0. -1.
    9000002    1    1    2    0    0  0.28532202839E+00  0.10921839938E-01  0.54340269353E-01  0.98200041311E+00  0.93800000000E+00 0. -1.
         22    1    1    2    0    0 -0.26484628819E+00 -0.69859928352E-02  0.36746332588E+01  0.36841718129E+01  0.00000000000E+00 0. -1.
</event>
<event>
 5    1  0.3454171E+002  0.1578813E+01  0.7818608E-02  0.3376685E+00
         11   -1    0    0    0    0  0.00000000000E+00  0.00000000000E+00  0.39999999674E+01  0.40000000000E+01  0.51100000000E-03 0. -1.
    9000002   -1    0    0    0    0 -0.00000000000E+00 -0.00000000000E+00  0.00000000000E+00  0.93800000000E+00  0.93800000000E+00 0.  1.
         11    1    1    2    0    0  0.99108524606E-01  0.50144201879E-01  0.19550306356E+01  0.19581833387E+01  0.51100000000E-03 0. -1.
    9000002    1    1    2    0    0  0.43747388959E-01  0.15232536330E+00  0.32186927425E-01  0.95183866734E+00  0.93800000000E+00 0.  1.
         22    1    1    2    0    0 -0.14285591356E+00 -0.20246956518E+00  0.20127824043E+01  0.20279779940E+01  0.00000000000E+00 0. -1.
</event>
<event>
 5    1  0.3454171E+002  0.1599014E+01  0.7818608E-02  0.3354434E+00
         11   -1    0    0    0    0  0.00000000000E+00  0.00000000000E+00  0.39999999674E+01  0.40000000000E+01  0.51100000000E-03 0.  1.
    9000002   -1    0    0    0    0 -0.00000000000E+00 -0.00000000000E+00  0.00000000000E+00  0.93800000000E+00  0.93800000000E+00 0. -1.
         11    1    1    2    0    0  0.11477180444E-01 -0.11897960772E-01  0.17553824289E+00  0.17631569125E+00  0.51100000000E-03 0.  1.
    9000002    1    1    2    0    0  0.28979314199E-01  0.27221252016E+00  0.50389209970E-01  0.97842860203E+00  0.93800000000E+00 0. -1.
         22    1    1    2    0    0 -0.40456494643E-01 -0.26031455938E+00  0.37740725145E+01  0.37832557067E+01  0.00000000000E+00 0.  1.
</event>
<event>
 5    1  0.3454171E+002  0.1557248E+01  0.7818608E-02  0.3401113E+00
         11   -1    0    0    0    0  0.00000000000E+00  0.00000000000E+00  0.39999999674E+01  0.40000000000E+01  0.51100000000E-03 0.  1.
    9000002   -1    0    0    0    0 -0.00000000000E+00 -0.00000000000E+00  0.00000000000E+00  0.93800000000E+00  0.93800000000E+00 0. -1.
         11    1    1    2    0    0 -0.12130083570E-01 -0.19835294084E+00  0.24548284749E+01  0.24628589343E+01  0.51100000000E-03 0.  1.
    9000002    1    1    2    0    0 -0.11348841309E+00 -0.45100663636E-01  0.41615358515E-01  0.94683130907E+00  0.93800000000E+00 0. -1.
         22    1    1    2    0    0  0.12561849666E+00  0.24345360447E+00  0.15035561339E+01  0.15283097566E+01  0.00000000000E+00 0.  1.
</event>
<event>
 5    1  0.3454171E+002  0.1590714E+01  0.7818608E-02  0.3363505E+00
         11   -1    0    0    0    0  0.00000000000E+00  0.00000000000E+00  0.39999999674E+01  0.40000000000E+01  0.51100000000E-03 0.  1.
    9000002   -1    0    0    0    0 -0.00000000000E+00 -0.00000000000E+00  0.00000000000E+00  0.93800000000E+00  0.93800000000E+00 0. -1.
         11    1    1    2    0    0 -0.40306686147E-01 -0.40236823163E-01  0.45935460976E+00  0.46287206603E+00  0.51100000000E-03 0.  1.
    9000002    1    1    2    0    0  0.54322063937E-01 -0.20978414241E+00  0.37910026044E-01  0.96345287540E+00  0.93800000000E+00 0. -1.
         22    1    1    2    0    0 -0.14015377790E-01  0.25002096557E+00  0.35027353316E+01  0.35116750586E+01  0.00000000000E+00 0.  1.
</event>
<event>
 5    1  0.3454171E+002  0.1599676E+01  0.7818608E-02  0.3353715E+00
         11   -1    0    0    0    0  0.00000000000E+00  0.00000000000E+00  0.39999999674E+01  0.40000000000E+01  0.51100000000E-03 0.  1.
    9000002   -1    0    0    0    0 -0.00000000000E+00 -0.00000000000E+00  0.00000000000E+00  0.93800000000E+00  0.93800000000E+00 0.  1.
         11    1    1    2    0    0  0.43592724309E-01 -0.18140719277E+00  0.17734142049E+01  0.17832013623E+01  0.51100000000E-03 0.  1.
    9000002    1    1    2    0    0 -0.95462807584E-01  0.39570812174E+00  0.11186950149E+00  0.10286189045E+01  0.93800000000E+00 0.  1.
         22    1    1    2    0    0  0.51870083276E-01 -0.21430092897E+00  0.21147162610E+01  0.21261797333E+01  0.00000000000E+00 0.  1.
</event>
<event>
 5    1  0.3454171E+002  0.1599668E+01  0.7818608E-02  0.3353724E+00
         11   -1    0    0    0    0  0.00000000000E+00  0.00000000000E+00  0.39999999674E+01  0.40000000000E+01  0.51100000000E-03 0.  1.
    9000002   -1    0    0    0    0 -0.00000000000E+00 -0.00000000000E+00  0.00000000000E+00  0.93800000000E+00  0.93800000000E+00 0.  1.
         11    1    1    2    0    0  0.12033919713E-01  0.39675179608E-01  0.50375936352E+00  0.50546284983E+00  0.51100000000E-03 0.  1.
    9000002    1    1    2    0    0 -0.82984063817E-01 -0.32445218072E+00  0.75086595742E-01  0.99881808618E+00  0.93800000000E+00 0.  1.
         22    1    1    2    0    0  0.70950144104E-01  0.28477700111E+00  0.34211540081E+01  0.34337190640E+01  0.00000000000E+00 0.  1.
</event>
<event>
 5    1  0.3454171E+002  0.1599676E+01  0.7818608E-02  0.3353715E+00
         11   -1    0    0    0    0  0.00000000000E+00  0.00000000000E+00  0.39999999674E+01  0.40000000000E+01  0.51100000000E-03 0. -1.
    9000002   -1    0    0    0    0 -0.00000000000E+00 -0.00000000000E+00  0.00000000000E+00  0.93800000000E+00  0.93800000000E+00 0. -1.
         11    1    1    2    0    0  0.35924479108E-01 -0.57082819660E-01  0.62535459420E+00  0.62898143542E+00  0.51100000000E-03 0. -1.
    9000002    1    1    2    0    0 -0.22251999206E+00  0.34880938667E+00  0.11567544407E+00  0.10317014798E+01  0.93800000000E+00 0. -1.
         22    1    1    2    0    0  0.18659551295E+00 -0.29172656701E+00  0.32589699291E+01  0.32773170848E+01  0.00000000000E+00 0. -1.
</event>
<event>
 5    1  0.3454171E+002  0.1487792E+01  0.7818608E-02  0.3484944E+00
         11   -1    0    0    0    0  0.00000000000E+00  0.00000000000E+00  0.39999999674E+01  0.40000000000E+01  0.51100000000E-03 0. -1.
    9000002   -1    0    0    0    0 -0.00000000000E+00 -0.00000000000E+00  0.00000000000E+00  0.93800000000E+00  0.93800000000E+00 0. -1.
         11    1    1    2    0    0  0.15730669713E+00  0.63637551773E-01  0.15730981418E+00  0.23139095426E+00  0.51100000000E-03 0. -1.
    9000002    1    1    2    0    0 -0.64422063314E-03  0.26236339321E+00  0.13732693054E+00  0.98363491752E+00  0.93800000000E+00 0. -1.
         22    1    1    2    0    0 -0.15666247650E+00 -0.32600094498E+00  0.37053632226E+01  0.37229741282E+01  0.00000000000E+00 0. -1.
</event>
<event>
 5    1  0.3454171E+002  0.1598340E+01  0.7818608E-02  0.3355167E+00
         11   -1    0    0    0    0  0.00000000000E+00  0.00000000000E+00  0.39999999674E+01  0.40000000000E+01  0.51100000000E-03 0.  1.
    9000002   -1    0    0    0    0 -0.00000000000E+00 -0.00000000000E+00  0.00000000000E+00  0.93800000000E+00  0.93800000000E+00 0. -1.
         11    1    1    2    0    0 -0.13916204838E+00 -0.34782678323E-02  0.99446157308E+00  0.10041574854E+01  0.51100000000E-03 0.  1.
    9000002    1    1    2    0    0  0.45070716453E+00 -0.10697424530E+00  0.14719720570E+00  0.10564522965E+01  0.93800000000E+00 0. -1.
         22    1    1    2    0    0 -0.31154511615E+00  0.11045251314E+00  0.28583411886E+01  0.28773902181E+01  0.00000000000E+00 0.  1.
</event>
<event>
 5    1  0.3454171E+002  0.1599655E+01  0.7818608E-02  0.3353738E+00
         11   -1    0    0    0    0  0.00000000000E+00  0.00000000000E+00  0.39999999674E+01  0.40000000000E+01  0.51100000000E-03 0.  1.
    9000002   -1    0    0    0    0 -0.00000000000E+00 -0.00000000000E+00  0.00000000000E+00  0.93800000000E+00  0.93800000000E+00 0.  1.
         11    1    1    2    0    0 -0.76226032725E-01 -0.12250394479E-01  0.71456453425E+00  0.71872332296E+00  0.51100000000E-03 0.  1.
    9000002    1    1    2    0    0  0.42832454233E+00  0.48155876967E-01  0.12585433157E+00  0.10399347166E+01  0.93800000000E+00 0.  1.
         22    1    1    2    0    0 -0.35209850960E+00 -0.35905482488E-01  0.31595811015E+01  0.31793419604E+01  0.00000000000E+00 0.  1.
</event>
<event>
 5    1  0.3454171E+002  0.1599597E+01  0.7818608E-02  0.3353801E+00
         11   -1    0    0    0    0  0.00000000000E+00  0.00000000000E+00  0.39999999674E+01  0.40000000000E+01  0.51100000000E-03 0. -1.
    9000002   -1    0    0    0    0 -0.00000000000E+00 -0.00000000000E+00  0.00000000000E+00  0.93800000000E+00  0.93800000000E+00 0. -1.
         11    1    1    2    0    0  0.18579453236E-01  0.79524914761E-01  0.77639000510E+00  0.78067349724E+00  0.51100000000E-03 0. -1.
    9000002    1    1    2    0    0 -0.13079324616E+00 -0.37780767331E+00  0.10788270143E+00  0.10253429614E+01  0.93800000000E+00 0. -1.
         22    1    1    2    0    0  0.11221379292E+00  0.29828275855E+00  0.31157272608E+01  0.31319835413E+01  0.00000000000E+00 0.  1.
</event>
<event>
 5    1  0.3454171E+002  0.1545102E+01  0.7818608E-02  0.3415191E+00
         11   -1    0    0    0    0  0.00000000000E+00  0.00000000000E+00  0.39999999674E+01  0.40000000000E+01  0.51100000000E-03 0. -1.
    9000002   -1    0    0    0    0 -0.00000000000E+00 -0.00000000000E+00  0.00000000000E+00  0.93800000000E+00  0.93800000000E+00 0.  1.
         11    1    1    2    0    0  0.14109911562E+00 -0.28602352813E-01  0.24030816794E+00  0.28013448862E+00  0.51100000000E-03 0. -1.
    9000002    1    1    2    0    0 -0.38279755173E-01  0.20236717834E+00  0.70258075592E-01  0.96291121694E+00  0.93800000000E+00 0.  1.
         22    1    1    2    0    0 -0.10281936045E+00 -0.17376482552E+00  0.36894337238E+01  0.36949542944E+01  0.00000000000E+00 0. -1.
</event>
<event>
 5    1  0.3454171E+002  0.1572664E+01  0.7818608E-02  0.3383578E+00
         11   -1    0    0    0    0  0.00000000000E+00  0.00000000000E+00  0.39999999674E+01  0.40000000000E+01  0.51100000000E-03 0. -1.
    9000002   -1    0    0    0    0 -0.00000000000E+00 -0.00000000000E+00  0.00000000000E+00  0.93800000000E+00  0.93800000000E+00 0.  1.
         11    1    1    2    0    0  0.86849684805E-01 -0.77196799261E-02  0.19403940279E+00  0.21272990425E+00  0.51100000000E-03 0. -1.
    9000002    1    1    2    0    0 -0.34778788985E-01 -0.23669293454E+00  0.58827380547E-01  0.96981326560E+00  0.93800000000E+00 0.  1.
         22    1    1    2    0    0 -0.52070895820E-01  0.24441261446E+00  0.37471331840E+01  0.37554568302E+01  0.00000000000E+00 0. -1.
</event>
<event>
 5    1  0.3454171E+002  0.1599675E+01  0.7818608E-02  0.3353717E+00
         11   -1    0    0    0    0  0.00000000000E+00  0.00000000000E+00  0.39999999674E+01  0.40000000000E+01  0.51100000000E-03 0. -1.
    9000002   -1    0    0    0    0 -0.00000000000E+00 -0.00000000000E+00  0.00000000000E+00  0.93800000000E+00  0.93800000000E+00 0. -1.
         11    1    1    2    0    0  0.20537552209E+00  0.45789005726E-01  0.18177507788E+01  0.18298890385E+01  0.51100000000E-03 0. -1.
    9000002    1    1    2    0    0 -0.43404842597E+00 -0.94425432645E-01  0.13390112028E+00  0.10464643847E+01  0.93800000000E+00 0. -1.
         22    1    1    2    0    0  0.22867290389E+00  0.48636426919E-01  0.20483480683E+01  0.20616465768E+01  0.00000000000E+00 0. -1.
</event>
<event>
 5    1  0.3454171E+002  0.1599630E+01  0.7818608E-02  0.3353766E+00
         11   -1    0    0    0    0  0.00000000000E+00  0.00000000000E+00  0.39999999674E+01  0.40000000000E+01  0.51100000000E-03 0. -1.
    9000002   -1    0    0    0    0 -0.00000000000E+00 -0.00000000000E+00  0.00000000000E+00  0.93800000000E+00  0.93800000000E+00 0. -1.
         11    1    1    2    0    0  0.23592512387E+00 -0.84911520468E-01  0.18143002196E+01  0.18315447520E+01  0.51100000000E-03 0. -1.
    9000002    1    1    2    0    0 -0.48083681942E+00  0.18665547768E+00  0.18265889268E+00  0.10859339691E+01  0.93800000000E+00 0. -1.
         22    1    1    2    0    0  0.24491169555E+00 -0.10174395721E+00  0.20030408551E+01  0.20205212789E+01  0.00000000000E+00 0. -1.
</event>
<event>
 5    1  0.3454171E+002  0.1595266E+01  0.7818608E-02  0.3358517E+00
         11   -1    0    0    0    0  0.00000000000E+00  0.00000000000E+00  0.39999999674E+01  0.40000000000E+01  0.51100000000E-03 0. -1.
    9000002   -1    0    0    0    0 -0.00000000000E+00 -0.00000000000E+00  0.00000000000E+00  0.93800000000E+00  0.93800000000E+00 0.  1.
         11    1    1    2    0    0  0.62309125403E-01  0.20262438356E-01  0.75487958672E+00  0.75771791921E+00  0.51100000000E-03 0. -1.
    9000002    1    1    2    0    0 -0.35381256677E-01 -0.25974136966E+00  0.49088412518E-01  0.97517746317E+00  0.93800000000E+00 0.  1.
         22    1    1    2    0    0 -0.26927868726E-01  0.23947893130E+00  0.31960319681E+01  0.32051046176E+01  0.00000000000E+00 0. -1.
</event>
<event>
 5    1  0.3454171E+002  0.1599677E+01  0.7818608E-02  0.3353714E+00
         11   -1    0    0    0    0  0.00000000000E+00  0.00000000000E+00  0.39999999674E+01  0.40000000000E+01  0.51100000000E-03 0.  1.
    9000002   -1    0    0    0    0 -0.00000000000E+00 -0.00000000000E+00  0.00000000000E+00  0.93800000000E+00  0.93800000000E+00 0.  1.
         11    1    1    2    0    0  0.21080161614E+00 -0.23038728136E+00  0.19415995436E+01  0.19665514663E+01  0.51100000000E-03 0.  1.
    9000002    1    1    2    0    0 -0.40663490036E+00  0.44429013645E+00  0.25321106256E+00  0.11431122035E+01  0.93800000000E+00 0.  1.
         22    1    1    2    0    0  0.19583328422E+00 -0.21390285508E+00  0.18051893612E+01  0.18283363302E+01  0.00000000000E+00 0.  1.
</event>
<event>
 5    1  0.3454171E+002  0.1559832E+01  0.7818608E-02  0.3398148E+00
         11   -1    0    0    0    0  0.00000000000E+00  0.00000000000E+00  0.39999999674E+01  0.40000000000E+01  0.51100000000E-03 0. -1.
    9000002   -1    0    0    0    0 -0.00000000000E+00 -0.00000000000E+00  0.00000000000E+00  0.93800000000E+00  0.93800000000E+00 0.  1.
         11    1    1    2    0    0  0.49723486345E-01  0.17198416527E+00  0.55340075748E+00  0.58163875188E+00  0.51100000000E-03 0. -1.
    9000002    1    1    2    0    0  0.16543263010E+00 -0.14257712415E+00  0.62299591802E-01  0.96510177213E+00  0.93800000000E+00 0.  1.
         22    1    1    2    0    0 -0.21515611644E+00 -0.29407041114E-01  0.33842996181E+01  0.33912594760E+01  0.00000000000E+00 0. -1.
</event>
<event>
 5    1  0.3454171E+002  0.1599121E+01  0.7818608E-02  0.3354318E+00
         11   -1    0    0    0    0  0.00000000000E+00  0.00000000000E+00  0.39999999674E+01  0.40000000000E+01  0.51100000000E-03 0.  1.
    9000002   -1    0    0    0    0 -0.00000000000E+00 -0.00000000000E+00  0.00000000000E+00  0.93800000000E+00  0.93800000000E+00 0.  1.
         11    1    1    2    0    0  0.52755406624E-01 -0.28748671828E+00  0.16501560119E+01  0.16758421378E+01  0.51100000000E-03 0.  1.
    9000002    1    1    2    0    0 -0.11715798397E+00  0.58828040795E+00  0.25157594252E+00  0.11414614695E+01  0.93800000000E+00 0.  1.
         22    1    1    2    0    0  0.64402577350E-01 -0.30079368967E+00  0.20982680130E+01  0.21206963927E+01  0.00000000000E+00 0.  1.
</event>
<event>
 5    1  0.3454171E+002  0.1599587E+01  0.7818608E-02  0.3353811E+00
         11   -1    0    0    0    0  0.00000000000E+00  0.00000000000E+00  0.39999999674E+01  0.40000000000E+01  0.51100000000E-03 0.  1.
    9000002   -1    0    0    0    0 -0.00000000000E+00 -0.00000000000E+00  0.00000000000E+00  0.93800000000E+00  0.93800000000E+00 0. -1.
         11    1    1    2    0    0 -0.98014028716E-02  0.15364598967E+00  0.14551380733E+01  0.14632601379E+01  0.51100000000E-03 0.  1.
    9000002    1    1    2    0    0  0.39933208233E-02 -0.39193005047E+00  0.10359159765E+00  0.10218612089E+01  0.93800000000E+00 0. -1.
         22    1    1    2    0    0  0.58080820484E-02  0.23828406081E+00  0.24412702964E+01  0.24528786532E+01  0.00000000000E+00 0.  1.
</event>
<event>
 5    1  0.3454171E+002  0.1599210E+01  0.7818608E-02  0.3354222E+00
         11   -1    0    0    0    0  0.00000000000E+00  0.00000000000E+00  0.39999999674E+01  0.40000000000E+01  0.51100000000E-03 0.  1.
    9000002   -1    0    0    0    0 -0.00000000000E+00 -0.00000000000E+00  0.00000000000E+00  0.93800000000E+00  0.93800000000E+00 0. -1.
         11    1    1    2    0    0  0.64634001291E-01  0.45890481938E-01  0.12156914094E+01  0.12182731034E+01  0.51100000000E-03 0.  1.
    9000002    1    1    2    0    0 -0.27733317280E+00 -0.18503256147E+00  0.74767669648E-01  0.99829101066E+00  0.93800000000E+00 0. -1.
         22    1    1    2    0    0  0.21269917151E+00  0.13914207954E+00  0.27095408883E+01  0.27214358859E+01  0.00000000000E+00 0. -1.
</event>
<event>
 5    1  0.3454171E+002  0.1597971E+01  0.7818608E-02  0.3355568E+00
         11   -1    0    0    0    0  0.00000000000E+00  0.00000000000E+00  0.39999999674E+01  0.40000000000E+01  0.51100000000E-03 0. -1.
    9000002   -1    0    0    0    0 -0.00000000000E+00 -0.00000000000E+00  0.00000000000E+00  0.93800000000E+00  0.93800000000E+00 0.  1.
         11    1    1    2    0    0  0.21310984587E+00  0.97674566433E-01  0.14214928178E+01  0.14406936591E+01  0.51100000000E-03 0. -1.
    9000002    1    1    2    0    0 -0.44351438620E+00 -0.28566705730E+00  0.19301083995E+00  0.10933470916E+01  0.93800000000E+00 0.  1.
         22    1    1    2    0    0  0.23040454033E+00  0.18799249087E+00  0.23854963096E+01  0.24039592493E+01  0.00000000000E+00 0. -1.
</event>
<event>
 5    1  0.3454171E+002  0.1536914E+01  0.7818608E-02  0.3424816E+00
         11   -1    0    0    0    0  0.00000000000E+00  0.00000000000E+00  0.39999999674E+01  0.40000000000E+01  0.51100000000E-03 0. -1.
    9000002   -1    0    0    0    0 -0.00000000000E+00 -0.00000000000E+00  0.00000000000E+00  0.93800000000E+00  0.93800000000E+00 0.  1.
         11    1    1    2    0    0  0.21814364063E+00 -0.19593244682E+00  0.21788220304E+01  0.21984635255E+01  0.51100000000E-03 0. -1.
    9000002    1    1    2    0    0 -0.68436929517E-01 -0.78994832843E-01  0.54542248073E-01  0.94537963473E+00  0.93800000000E+00 0.  1.
         22    1    1    2    0    0 -0.14970671111E+00  0.27492727967E+00  0.17666356889E+01  0.17941568398E+01  0.00000000000E+00 0. -1.
</event>
<event>
 5    1  0.3454171E+002  0.1565849E+01  0.7818608E-02  0.3391285E+00
         11   -1    0    0    0    0  0.00000000000E+00  0.00000000000E+00  0.39999999674E+01  0.40000000000E+01  0.51100000000E-03 0.  1.
    9000002   -1    0    0    0    0 -0.00000000000E+00 -0.00000000000E+00  0.00000000000E+00  0.93800000000E+00  0.93800000000E+00 0.  1.
         11    1    1    2    0    0 -0.18175205134E+00 -0.73576097760E-01  0.10729885732E+01  0.10907575302E+01  0.51100000000E-03 0.  1.
    9000002    1    1    2    0    0 -0.55871015721E-01  0.22948464337E+00  0.63176479661E-01  0.96934000202E+00  0.93800000000E+00 0.  1.
         22    1    1    2    0    0  0.23762306706E+00 -0.15590854561E+00  0.28638349145E+01  0.28779024678E+01  0.00000000000E+00 0.  1.
</event>
<event>
 5    1  0.3454171E+002  0.1579042E+01  0.7818608E-02  0.3376430E+00
         11   -1    0    0    0    0  0.00000000000E+00  0.00000000000E+00  0.39999999674E+01  0.40000000000E+01  0.51100000000E-03 0.  1.
    9000002   -1    0    0    0    0 -0.00000000000E+00 -0.00000000000E+00  0.00000000000E+00  0.93800000000E+00  0.93800000000E+00 0.  1.
         11    1    1    2    0    0 -0.85562916838E-01 -0.34211515836E-01  0.85925950246E+00  0.86418666632E+00  0.51100000000E-03 0.  1.
    9000002    1    1    2    0    0 -0.23647749189E+00  0.33359420709E+00  0.13040075622E+00  0.10315304438E+01  0.93800000000E+00 0.  1.
         22    1    1    2    0    0  0.32204040872E+00 -0.29938269125E+00  0.30103397087E+01  0.30422828899E+01  0.00000000000E+00 0.  1.
</event>
<event>
 5    1  0.3454171E+002  0.1593706E+01  0.7818608E-02  0.3360223E+00
         11   -1    0    0    0    0  0.00000000000E+00  0.00000000000E+00  0.39999999674E+01  0.40000000000E+01  0.51100000000E-03 0. -1.
    9000002   -1    0    0    0    0 -0.00000000000E+00 -0.00000000000E+00  0.00000000000E+00  0.93800000000E+00  0.93800000000E+00 0. -1.
         11    1    1    2    0    0  0.11613768906E-01 -0.17639684501E-01  0.15315736632E+01  0.15317193558E+01  0.51100000000E-03 0. -1.
    9000002    1    1    2    0    0 -0.79216418969E-01 -0.18384616263E+00  0.31018777398E-01  0.95962535247E+00  0.93800000000E+00 0. -1.
         22    1    1    2    0    0  0.67602650063E-01  0.20148584714E+00  0.24374075268E+01  0.24466552917E+01  0.00000000000E+00 0. -1.
</event>
<event>
 5    1  0.3454171E+002  0.1599673E+01  0.7818608E-02  0.3353718E+00
         11   -1    0    0    0    0  0.00000000000E+00  0.00000000000E+00  0.39999999674E+01  0.40000000000E+01  0.51100000000E-03 0.  1.
    9000002   -1    0    0    0    0 -0.00000000000E+00 -0.00000000000E+00  0.00000000000E+00  0.93800000000E+00  0.93800000000E+00 0. -1.
         11    1    1    2    0    0 -0.81429610389E-02  0.17774089283E-01  0.12828367632E+00  0.12976589997E+00  0.51100000000E-03 0. -1.
    9000002    1    1    2    0    0  0.22299572321E+00 -0.51335442329E+00  0.21677569710E+00  0.11135957791E+01  0.93800000000E+00 0. -1.
         22    1    1    2    0    0 -0.21485276218E+00  0.49558033401E+00  0.36549405939E+01  0.36946383209E+01  0.00000000000E+00 0.  1.
</event>
<event>
 5    1  0.3454171E+002  0.1591222E+01  0.7818608E-02  0.3362946E+00
         11   -1    0    0    0    0  0.00000000000E+00  0.00000000000E+00  0.39999999674E+01  0.40000000000E+01  0.51100000000E-03 0. -1.
    9000002   -1    0    0    0    0 -0.00000000000E+00 -0.00000000000E+00  0.00000000000E+00  0.93800000000E+00  0.93800000000E+00 0.  1.
         11    1    1    2    0    0 -0.22993491380E-02  0.12968670112E+00  0.92903284702E+00  0.93804382595E+00  0.51100000000E-03 0. -1.
    9000002    1    1    2    0    0  0.32065043804E+00 -0.29862884860E+00  0.13744783734E+00  0.10443810610E+01  0.93800000000E+00 0.  1.
         22    1    1    2    0    0 -0.31835108890E+00  0.16894214748E+00  0.29335192830E+01  0.29555751130E+01  0.00000000000E+00 0. -1.
</event>
<event>
 5    1  0.3454171E+002  0.1459357E+01  0.7818608E-02  0.3521750E+00
         11   -1    0    0    0    0  0.00000000000E+00  0.00000000000E+00  0.39999999674E+01  0.40000000000E+01  0.51100000000E-03 0.  1.
    9000002   -1    0    0    0    0 -0.00000000000E+00 -0.00000000000E+00  0.00000000000E+00  0.93800000000E+00  0.93800000000E+00 0.  1.
         11    1    1    2    0    0 -0.22794400191E-01 -0.62437703294E-01 -0.44253529471E-01  0.79854163726E-01  0.51100000000E-03 0.  1.
    9000002    1    1    2    0    0 -0.24380242663E+00  0.20848515991E+00  0.21186937450E+00  0.10137249711E+01  0.93800000000E+00 0.  1.
         22    1    1    2    0    0  0.26659682682E+00 -0.14604745662E+00  0.38323841223E+01  0.38444208652E+01  0.00000000000E+00 0.  1.
</event>
<event>
 5    1  0.3454171E+002  0.1592657E+01  0.7818608E-02  0.3361372E+00
         11   -1    0    0    0    0  0.00000000000E+00  0.00000000000E+00  0.39999999674E+01  0.40000000000E+01  0.51100000000E-03 0.  1.
    9000002   -1    0    0    0    0 -0.00000000000E+00 -0.00000000000E+00  0.00000000000E+00  0.93800000000E+00  0.93800000000E+00 0. -1.
         11    1    1    2    0    0  0.35205337805E-01  0.29435875101E-01  0.26505155513E+00  0.26899530582E+00  0.51100000000E-03 0.  1.
    9000002    1    1    2    0    0  0.18259428297E+00 -0.18005189316E+00  0.49104197201E-01  0.97366040208E+00  0.93800000000E+00 0. -1.
         22    1    1    2    0    0 -0.21779962077E+00  0.15061601806E+00  0.36858442150E+01  0.36953442921E+01  0.00000000000E+00 0.  1.
</event>
<event>
 5    1  0.4421660E+002  0.1556117E+01  0.7818608E-02  0.3402415E+00
         11   -1    0    0    0    0  0.00000000000E+00  0.00000000000E+00  0.39999999674E+01  0.40000000000E+01  0.51100000000E-03 0. -1.
    9000002   -1    0    0    0    0 -0.00000000000E+00 -0.00000000000E+00  0.00000000000E+00  0.93800000000E+00  0.93800000000E+00 0.  1.
         11    1    1    2    0    0  0.16946954599E+00 -0.22928217154E+00  0.25085533845E+01  0.25247040589E+01  0.51100000000E-03 0. -1.
    9000002    1    1    2    0    0 -0.35664446752E-01  0.58127434115E-01  0.35411288306E-01  0.94114223723E+00  0.93800000000E+00 0.  1.
         22    1    1    2    0    0 -0.13380509924E+00  0.17115473742E+00  0.14560352945E+01  0.14721537038E+01  0.00000000000E+00 0. -1.
</event>
<event>
 5    1  0.3454171E+002  0.1599434E+01  0.7818608E-02  0.3353978E+00
         11   -1    0    0    0    0  0.00000000000E+00  0.00000000000E+00  0.39999999674E+01  0.40000000000E+01  0.51100000000E-03 0.  1.
    9000002   -1    0    0    0    0 -0.00000000000E+00 -0.00000000000E+00  0.00000000000E+00  0.93800000000E+00  0.93800000000E+00 0. -1.
         11    1    1    2    0    0 -0.45759196537E-01 -0.80275485529E-02  0.70829769722E+00  0.70981986068E+00  0.51100000000E-03 0.  1.
    9000002    1    1    2    0    0  0.30060087678E+00  0.10975635917E+00  0.68641521364E-01  0.99346011694E+00  0.93800000000E+00 0. -1.
         22    1    1    2    0    0 -0.25484168024E+00 -0.10172881062E+00  0.32230607488E+01  0.32347200224E+01  0.00000000000E+00 0.  1.
</event>
<event>
 5    1  0.3454171E+002  0.1599676E+01  0.7818608E-02  0.3353715E+00
         11   -1    0    0    0    0  0.00000000000E+00  0.00000000000E+00  0.39999999674E+01  0.40000000000E+01  0.51100000000E-03 0.  1.
    9000002   -1    0    0    0    0 -0.00000000000E+00 -0.00000000000E+00  0.00000000000E+00  0.93800000000E+00  0.93800000000E+00 0.  1.
         11    1    1    2    0    0 -0.20252045072E-02 -0.14411057407E-01  0.20388580451E+00  0.20440514286E+00  0.51100000000E-03 0. -1.
    9000002    1    1    2    0    0  0.38644824011E-01  0.28189449641E+00  0.53933108144E-01  0.98168768439E+00  0.93800000000E+00 0.  1.
         22    1    1    2    0    0 -0.36619619504E-01 -0.26748343900E+00  0.37421810547E+01  0.37519071727E+01  0.00000000000E+00 0.  1.
</event>
<event>
 5    1  0.3803944E+002  0.1586970E+01  0.7818608E-02  0.3367628E+00
         11   -1    0    0    0    0  0.00000000000E+00  0.00000000000E+00  0.39999999674E+01  0.40000000000E+01  0.51100000000E-03 0. -1.
    9000002   -1    0    0    0    0 -0.00000000000E+00 -0.00000000000E+00  0.00000000000E+00  0.93800000000E+00  0.93800000000E+00 0.  1.
         11    1    1    2    0    0  0.24529604407E-01 -0.74434029221E-01  0.16334083384E+01  0.16352874937E+01  0.51100000000E-03 0. -1.
    9000002    1    1    2    0    0 -0.52860799625E-02 -0.13920053611E+00  0.22219071381E-01  0.94854753124E+00  0.93800000000E+00 0.  1.
         22    1    1    2    0    0 -0.19243524444E-01  0.21363456533E+00  0.23443725576E+01  0.23541649750E+01  0.00000000000E+00 0. -1.
</event>
<event>
 5    1  0.3454171E+002  0.1599589E+01  0.7818608E-02  0.3353810E+00
         11   -1    0    0    0    0  0.00000000000E+00  0.00000000000E+00  0.39999999674E+01  0.40000000000E+01  0.51100000000E-03 0.  1.
    9000002   -1    0    0    0    0 -0.00000000000E+00 -0.00000000000E+00  0.00000000000E+00  0.93800000000E+00  0.93800000000E+00 0.  1.
         11    1    1    2    0    0  0.44675823625E-01 -0.91010496528E-01  0.13160928199E+01  0.13199922013E+01  0.51100000000E-03 0.  1.
    9000002    1    1    2    0    0 -0.11088805870E+00  0.29442380587E+00  0.66193461264E-01  0.99156800742E+00  0.93800000000E+00 0.  1.
         22    1    1    2    0    0  0.66212235072E-01 -0.20341330934E+00  0.26177136862E+01  0.26264397913E+01  0.00000000000E+00 0.  1.
</event>
<event>
 5    1  0.3454171E+002  0.1460479E+01  0.7818608E-02  0.3520268E+00
         11   -1    0    0    0    0  0.00000000000E+00  0.00000000000E+00  0.39999999674E+01  0.40000000000E+01  0.51100000000E-03 0.  1.
    9000002   -1    0    0    0    0 -0.00000000000E+00 -0.00000000000E+00  0.00000000000E+00  0.93800000000E+00  0.93800000000E+00 0.  1.
         11    1    1    2    0    0 -0.16885947963E-01  0.37146543586E+00  0.93768209811E+00  0.10087218068E+01  0.51100000000E-03 0.  1.
    9000002    1    1    2    0    0 -0.59134649103E-01  0.20019021114E+00  0.16485654612E+00  0.97498446560E+00  0.93800000000E+00 0.  1.
         22    1    1    2    0    0  0.76020597066E-01 -0.57165564700E+00  0.28974613231E+01  0.29542937276E+01  0.00000000000E+00 0.  1.
</event>
<event>
 5    1  0.3454171E+002  0.1592429E+01  0.7818608E-02  0.3361622E+00
         11   -1    0    0    0    0  0.00000000000E+00  0.00000000000E+00  0.39999999674E+01  0.40000000000E+01  0.51100000000E-03 0.  1.
    9000002   -1    0    0    0    0 -0.00000000000E+00 -0.00000000000E+00  0.00000000000E+00  0.93800000000E+00  0.93800000000E+00 0. -1.
         11    1    1    2    0    0  0.16396567814E+00 -0.25513729310E+00  0.16827228516E+01  0.17098351495E+01  0.51100000000E-03 0.  1.
    9000002    1    1    2    0    0 -0.40201807960E+00  0.34769053913E+00  0.20120984644E+00  0.10967390982E+01  0.93800000000E+00 0. -1.
         22    1    1    2    0    0  0.23805240146E+00 -0.92553246026E-01  0.21160672693E+01  0.21314257523E+01  0.00000000000E+00 0.  1.
</event>
<event>
 5    1  0.5289234E+002  0.1588233E+01  0.7818608E-02  0.3366235E+00
         11   -1    0    0    0    0  0.00000000000E+00  0.00000000000E+00  0.39999999674E+01  0.40000000000E+01  0.51100000000E-03 0. -1.
    9000002   -1    0    0    0    0 -0.00000000000E+00 -0.00000000000E+00  0.00000000000E+00  0.93800000000E+00  0.93800000000E+00 0. -1.
         11    1    1    2    0    0 -0.48223184091E-01  0.36869648624E-01  0.19233955429E+01  0.19243532737E+01  0.51100000000E-03 0. -1.
    9000002    1    1    2    0    0 -0.97618606047E-01  0.10243716489E+00  0.21692356948E-01  0.94886106641E+00  0.93800000000E+00 0. -1.
         22    1    1    2    0    0  0.14584179014E+00 -0.13930681351E+00  0.20549120676E+01  0.20647856599E+01  0.00000000000E+00 0. -1.
</event>
<event>
 5    1  0.3454171E+002  0.1599642E+01  0.7818608E-02  0.3353752E+00
         11   -1    0    0    0    0  0.00000000000E+00  0.00000000000E+00  0.39999999674E+01  0.40000000000E+01  0.51100000000E-03 0.  1.
    9000002   -1    0    0    0    0 -0.00000000000E+00 -0.00000000000E+00  0.00000000000E+00  0.93800000000E+00  0.93800000000E+00 0.  1.
         11    1    1    2    0    0  0.13233024480E+00  0.12642685696E+00  0.13211466232E+01  0.13337629868E+01  0.51100000000E-03 0.  1.
    9000002    1    1    2    0    0 -0.36950665777E+00 -0.37971416993E+00  0.19320085718E+00  0.10944809693E+01  0.93800000000E+00 0.  1.
         22    1    1    2    0    0  0.23717641297E+00  0.25328731297E+00  0.24856524870E+01  0.25097560439E+01  0.00000000000E+00 0.  1.
</event>
<event>
 5    1  0.3454171E+002  0.1599676E+01  0.7818608E-02  0.3353715E+00
         11   -1    0    0    0    0  0.00000000000E+00  0.00000000000E+00  0.39999999674E+01  0.40000000000E+01  0.51100000000E-03 0.  1.
    9000002   -1    0    0    0    0 -0.00000000000E+00 -0.00000000000E+00  0.00000000000E+00  0.93800000000E+00  0.93800000000E+00 0.  1.
         11    1    1    2    0    0  0.74124137500E-02 -0.39401310981E-01  0.51630108733E+00  0.51785565661E+00  0.51100000000E-03 0.  1.
    9000002    1    1    2    0    0 -0.59615611692E-01  0.29846753794E+00  0.61824941597E-01  0.98808057149E+00  0.93800000000E+00 0.  1.
         22    1    1    2    0    0  0.52203197942E-01 -0.25906622696E+00  0.34218739384E+01  0.34320637719E+01  0.00000000000E+00 0.  1.
</event>
<event>
 5    1  0.3454171E+002  0.1482959E+01  0.7818608E-02  0.3491092E+00
         11   -1    0    0    0    0  0.00000000000E+00  0.00000000000E+00  0.39999999674E+01  0.40000000000E+01  0.51100000000E-03 0.  1.
    9000002   -1    0    0    0    0 -0.00000000000E+00 -0.00000000000E+00  0.00000000000E+00  0.93800000000E+00  0.93800000000E+00 0. -1.
         11    1    1    2    0    0  0.14669669801E+00  0.81610968027E-02  0.76984516379E-01  0.16587164192E+00  0.51100000000E-03 0.  1.
    9000002    1    1    2    0    0 -0.13251713711E+00  0.39217400443E+00  0.22141892359E+00  0.10489192443E+01  0.93800000000E+00 0. -1.
         22    1    1    2    0    0 -0.14179560908E-01 -0.40033510123E+00  0.37015965274E+01  0.37232091138E+01  0.00000000000E+00 0.  1.
</event>
<event>
 5    1  0.3454171E+002  0.1599091E+01  0.7818608E-02  0.3354350E+00
         11   -1    0    0    0    0  0.00000000000E+00  0.00000000000E+00  0.39999999674E+01  0.40000000000E+01  0.51100000000E-03 0. -1.
    9000002   -1    0    0    0    0 -0.00000000000E+00 -0.00000000000E+00  0.00000000000E+00  0.93800000000E+00  0.93800000000E+00 0.  1.
         11    1    1    2    0    0 -0.10651494754E+00 -0.65889131467E-01  0.59758006052E+00  0.61056449417E+00  0.51100000000E-03 0. -1.
    9000002    1    1    2    0    0  0.52315181222E+00  0.42079242356E+00  0.32038377267E+00  0.11971816254E+01  0.93800000000E+00 0.  1.
         22    1    1    2    0    0 -0.41663686468E+00 -0.35490329209E+00  0.30820361342E+01  0.31302538805E+01  0.00000000000E+00 0. -1.
</event>
<event>
 5    1  0.3454171E+002  0.1588464E+01  0.7818608E-02  0.3365981E+00
         11   -1    0    0    0    0  0.00000000000E+00  0.00000000000E+00  0.39999999674E+01  0.40000000000E+01  0.51100000000E-03 0. -1.
    9000002   -1    0    0    0    0 -0.00000000000E+00 -0.00000000000E+00  0.00000000000E+00  0.93800000000E+00  0.93800000000E+00 0.  1.
         11    1    1    2    0    0 -0.91987679403E-02 -0.26574312261E-01  0.33880652714E-01  0.44033750160E-01  0.51100000000E-03 0. -1.
    9000002    1    1    2    0    0  0.14290051255E+00  0.26325887060E+00  0.68681335745E-01  0.98705973240E+00  0.93800000000E+00 0.  1.
         22    1    1    2    0    0 -0.13370174461E+00 -0.23668455834E+00  0.38974379789E+01  0.39069065174E+01  0.00000000000E+00 0. -1.
</event>
<event>
 5    1  0.3454171E+002  0.1597408E+01  0.7818608E-02  0.3356181E+00
         11   -1    0    0    0    0  0.00000000000E+00  0.00000000000E+00  0.39999999674E+01  0.40000000000E+01  0.51100000000E-03 0.  1.
    9000002   -1    0    0    0    0 -0.00000000000E+00 -0.00000000000E+00  0.00000000000E+00  0.93800000000E+00  0.93800000000E+00 0.  1.
         11    1    1    2    0    0 -0.45638154377E-01  0.36322591313E-01  0.32637388916E+00  0.33154539420E+00  0.51100000000E-03 0.  1.
    9000002    1    1    2    0    0  0.30973856568E+00 -0.13665481895E+00  0.78569958008E-01  0.10003148289E+01  0.93800000000E+00 0.  1.
         22    1    1    2    0    0 -0.26410041131E+00  0.10033222764E+00  0.35950561202E+01  0.36061397769E+01  0.00000000000E+00 0.  1.
</event>
<event>
 5    1  0.3454171E+002  0.1599542E+01  0.7818608E-02  0.3353860E+00
         11   -1    0    0    0    0  0.00000000000E+00  0.00000000000E+00  0.39999999674E+01  0.40000000000E+01  0.51100000000E-03 0.  1.
    9000002   -1    0    0    0    0 -0.00000000000E+00 -0.00000000000E+00  0.00000000000E+00  0.93800000000E+00  0.93800000000E+00 0.  1.
         11    1    1    2    0    0  0.27451865796E-01 -0.13722099233E-01  0.32912904214E+00  0.33055723928E+00  0.51100000000E-03 0.  1.
    9000002    1    1    2    0    0 -0.37529258677E+00  0.23632827425E+00  0.13358144498E+00  0.10461278991E+01  0.93800000000E+00 0.  1.
         22    1    1    2    0    0  0.34784072097E+00 -0.22260617501E+00  0.35372894802E+01  0.35613148616E+01  0.00000000000E+00 0.  1.
</event>
<event>
 5    1  0.3454171E+002  0.1599675E+01  0.7818608E-02  0.3353716E+00
         11   -1    0    0    0    0  0.00000000000E+00  0.00000000000E+00  0.39999999674E+01  0.40000000000E+01  0.51100000000E-03 0. -1.
    9000002   -1    0    0    0    0 -0.00000000000E+00 -0.00000000000E+00  0.00000000000E+00  0.93800000000E+00  0.93800000000E+00 0. -1.
         11    1    1    2    0    0 -0.52240176156E-01 -0.39877176634E-02  0.82122023512E+00  0.82288995229E+00  0.51100000000E-03 0. -1.
    9000002    1    1    2    0    0  0.25439831116E+00  0.14225544733E-01  0.43143476900E-01  0.97294718584E+00  0.93800000000E+00 0. -1.
         22    1    1    2    0    0 -0.20215813500E+00 -0.10237827070E-01  0.31356362553E+01  0.31421628619E+01  0.00000000000E+00 0. -1.
</event>
<event>
 5    1  0.3454171E+002  0.1599666E+01  0.7818608E-02  0.3353726E+00
         11   -1    0    0    0    0  0.00000000000E+00  0.00000000000E+00  0.39999999674E+01  0.40000000000E+01  0.51100000000E-03 0.  1.
    9000002   -1    0    0    0    0 -0.00000000000E+00 -0.00000000000E+00  0.00000000000E+00  0.93800000000E+00  0.93800000000E+00 0. -1.
         11    1    1    2    0    0  0.12186646727E-01  0.60329920921E-02  0.15730408483E+00  0.15789156905E+00  0.51100000000E-03 0.  1.
    9000002    1    1    2    0    0 -0.33889339624E+00 -0.16049115524E+00  0.94557641017E-01  0.10145892235E+01  0.93800000000E+00 0. -1.
         22    1    1    2    0    0  0.32670674951E+00  0.15445816314E+00  0.37481382415E+01  0.37655192075E+01  0.00000000000E+00 0.  1.
</event>
<event>
 5    1  0.3454171E+002  0.1599147E+01  0.7818608E-02  0.3354290E+00
         11   -1    0    0    0    0  0.00000000000E+00  0.00000000000E+00  0.39999999674E+01  0.40000000000E+01  0.51100000000E-03 0. -1.
    9000002   -1    0    0    0    0 -0.00000000000E+00 -0.00000000000E+00  0.00000000000E+00  0.93800000000E+00  0.93800000000E+00 0.  1.
         11    1    1    2    0    0 -0.11603298380E+00 -0.11376455899E+00  0.13700102106E+01  0.13796138106E+01  0.51100000000E-03 0. -1.
    9000002    1    1    2    0    0  0.37679832246E+00  0.26500473325E+00  0.14481759968E+00  0.10549979249E+01  0.93800000000E+00 0.  1.
         22    1    1    2    0    0 -0.26076533866E+00 -0.15124017427E+00  0.24851721571E+01  0.25033882644E+01  0.00000000000E+00 0. -1.
</event>
<event>
 5    1  0.3454171E+002  0.1599064E+01  0.7818608E-02  0.3354380E+00
         11   -1    0    0    0    0  0.00000000000E+00  0.00000000000E+00  0.39999999674E+01  0.40000000000E+01  0.51100000000E-03 0. -1.
    9000002   -1    0    0    0    0 -0.00000000000E+00 -0.00000000000E+00  0.00000000000E+00  0.93800000000E+00  0.93800000000E+00 0. -1.
         11    1    1    2    0    0 -0.42712249726E+00 -0.10616690560E+00  0.26791529848E+01  0.27150628016E+01  0.51100000000E-03 0. -1.
    9000002    1    1    2    0    0  0.62803406763E+00  0.15028109238E+00  0.29460768628E+00  0.11762860560E+01  0.93800000000E+00 0. -1.
         22    1    1    2    0    0 -0.20091157037E+00 -0.44114186775E-01  0.10262392963E+01  0.10466511424E+01  0.00000000000E+00 0. -1.
</event>
<event>
 5    1  0.3454171E+002  0.1599659E+01  0.7818608E-02  0.3353734E+00
         11   -1    0    0    0    0  0.00000000000E+00  0.00000000000E+00  0.39999999674E+01  0.40000000000E+01  0.51100000000E-03 0.  1.
    9000002   -1    0    0    0    0 -0.00000000000E+00 -0.00000000000E+00  0.00000000000E+00  0.93800000000E+00  0.93800000000E+00 0. -1.
         11    1    1    2    0    0 -0.85131386546E-02  0.20828694318E-01  0.40640824971E+00  0.40703099955E+00  0.51100000000E-03 0.  1.
    9000002    1    1    2    0    0  0.10019647051E+00 -0.22741493699E+00  0.41033582903E-01  0.97122841865E+00  0.93800000000E+00 0. -1.
         22    1    1    2    0    0 -0.91683331860E-01  0.20658624267E+00  0.35525581347E+01  0.35597405818E+01  0.00000000000E+00 0.  1.
</event>
<event>
 5    1  0.3454171E+002  0.1599589E+01  0.7818608E-02  0.3353810E+00
         11   -1    0    0    0    0  0.00000000000E+00  0.00000000000E+00  0.39999999674E+01  0.40000000000E+01  0.51100000000E-03 0.  1.
    9000002   -1    0    0    0    0 -0.00000000000E+00 -0.00000000000E+00  0.00000000000E+00  0.93800000000E+00  0.93800000000E+00 0.  1.
         11    1    1    2    0    0 -0.79065376391E-02  0.72923284653E+00  0.25064124382E+01  0.26103537364E+01  0.51100000000E-03 0.  1.
    9000002    1    1    2    0    0 -0.18628819739E-02 -0.95725879122E+00  0.72058834686E+00  0.15216568041E+01  0.93800000000E+00 0.  1.
         22    1    1    2    0    0  0.97694196130E-02  0.22802594469E+00  0.77299918233E+00  0.80598945954E+00  0.00000000000E+00 0.  1.
</event>
<event>
 5    1  0.3454171E+002  0.1599666E+01  0.7818608E-02  0.3353726E+00
         11   -1    0    0    0    0  0.00000000000E+00  0.00000000000E+00  0.39999999674E+01  0.40000000000E+01  0.51100000000E-03 0. -1.
    9000002   -1    0    0    0    0 -0.00000000000E+00 -0.00000000000E+00  0.00000000000E+00  0.93800000000E+00  0.93800000000E+00 0. -1.
         11    1    1    2    0    0  0.39705958010E+00 -0.10313816700E+00  0.24733995802E+01  0.25071895692E+01  0.51100000000E-03 0. -1.
    9000002    1    1    2    0    0 -0.59613678624E+00  0.16033765445E+00  0.26690126745E+00  0.11541956151E+01  0.93800000000E+00 0. -1.
         22    1    1    2    0    0  0.19907720615E+00 -0.57199487452E-01  0.12596991198E+01  0.12766148157E+01  0.00000000000E+00 0.  1.
</event>
<event>
 5    1  0.3454171E+002  0.1599598E+01  0.7818608E-02  0.3353800E+00
         11   -1    0    0    0    0  0.00000000000E+00  0.00000000000E+00  0.39999999674E+01  0.40000000000E+01  0.51100000000E-03 0.  1.
    9000002   -1    0    0    0    0 -0.00000000000E+00 -0.00000000000E+00  0.00000000000E+00  0.93800000000E+00  0.93800000000E+00 0.  1.
         11    1    1    2    0    0  0.48132026913E-01 -0.82697086450E-01  0.10792483449E+01  0.10834817725E+01  0.51100000000E-03 0.  1.
    9000002    1    1    2    0    0 -0.20890195471E+00  0.30201426140E+00  0.90660919967E-01  0.10113931200E+01  0.93800000000E+00 0.  1.
         22    1    1    2    0    0  0.16076992779E+00 -0.21931717495E+00  0.28300907025E+01  0.28431251075E+01  0.00000000000E+00 0.  1.
</event>
<event>
 5    1  0.3454171E+002  0.1594985E+01  0.7818608E-02  0.3358824E+00
         11   -1    0    0    0    0  0.00000000000E+00  0.00000000000E+00  0.39999999674E+01  0.40000000000E+01  0.51100000000E-03 0. -1.
    9000002   -1    0    0    0    0 -0.00000000000E+00 -0.00000000000E+00  0.00000000000E+00  0.93800000000E+00  0.93800000000E+00 0. -1.
         11    1    1    2    0    0 -0.86920132721E+00 -0.35749809886E-01  0.21820741609E+01  0.23490927826E+01  0.51100000000E-03 0. -1.
    9000002    1    1    2    0    0  0.10919199683E+01  0.10320186078E+00  0.10452413187E+01  0.17819408675E+01  0.93800000000E+00 0. -1.
         22    1    1    2    0    0 -0.22271864106E+00 -0.67452050890E-01  0.77268448775E+00  0.80696634989E+00  0.00000000000E+00 0. -1.
</event>
<event>
 5    1  0.3454171E+002  0.1599581E+01  0.7818608E-02  0.3353818E+00
         11   -1    0    0    0    0  0.00000000000E+00  0.00000000000E+00  0.39999999674E+01  0.40000000000E+01  0.51100000000E-03 0. -1.
    9000002   -1    0    0    0    0 -0.00000000000E+00 -0.00000000000E+00  0.00000000000E+00  0.93800000000E+00  0.93800000000E+00 0.  1.
         11    1    1    2    0    0  0.57590391111E-01  0.14880134464E-01  0.56321013917E+00  0.56634264676E+00  0.51100000000E-03 0.  1.
    9000002    1    1    2    0    0 -0.35921434819E+00 -0.62672066125E-01  0.89378018994E-01  0.10103440830E+01  0.93800000000E+00 0.  1.
         22    1    1    2    0    0  0.30162395708E+00  0.47791931660E-01  0.33474118092E+01  0.33613132702E+01  0.00000000000E+00 0. -1.
</event>
<event>
 5    1  0.3454171E+002  0.1525289E+01  0.7818608E-02  0.3438670E+00
         11   -1    0    0    0    0  0.00000000000E+00  0.00000000000E+00  0.39999999674E+01  0.40000000000E+01  0.51100000000E-03 0.  1.
    9000002   -1    0    0    0    0 -0.00000000000E+00 -0.00000000000E+00  0.00000000000E+00  0.93800000000E+00  0.93800000000E+00 0.  1.
         11    1    1    2    0    0 -0.35110342936E+00 -0.12295166324E+00  0.31020965594E+01  0.31243229754E+01  0.51100000000E-03 0.  1.
    9000002    1    1    2    0    0  0.13632799075E+00  0.11988430868E-01  0.69223279622E-01  0.95045510466E+00  0.93800000000E+00 0.  1.
         22    1    1    2    0    0  0.21477543861E+00  0.11096323238E+00  0.82868012832E+00  0.86322191992E+00  0.00000000000E+00 0.  1.
</event>
<event>
 5    1  0.3454171E+002  0.1599670E+01  0.7818608E-02  0.3353722E+00
         11   -1    0    0    0    0  0.00000000000E+00  0.00000000000E+00  0.39999999674E+01  0.40000000000E+01  0.51100000000E-03 0. -1.
    9000002   -1    0    0    0    0 -0.00000000000E+00 -0.00000000000E+00  0.00000000000E+00  0.93800000000E+00  0.93800000000E+00 0. -1.
         11    1    1    2    0    0  0.12461628913E+00  0.15752847290E+00  0.18164483503E+01  0.18275199888E+01  0.51100000000E-03 0. -1.
    9000002    1    1    2    0    0 -0.26060432560E+00 -0.34064656242E+00  0.12456802785E+00  0.10389012891E+01  0.93800000000E+00 0. -1.
         22    1    1    2    0    0  0.13598803647E+00  0.18311808952E+00  0.20589835892E+01  0.20715787220E+01  0.00000000000E+00 0.  1.
</event>
<event>
 5    1  0.3454171E+002  0.1599405E+01  0.7818608E-02  0.3354009E+00
         11   -1    0    0    0    0  0.00000000000E+00  0.00000000000E+00  0.39999999674E+01  0.40000000000E+01  0.51100000000E-03 0. -1.
    9000002   -1    0    0    0    0 -0.00000000000E+00 -0.00000000000E+00  0.00000000000E+00  0.93800000000E+00  0.93800000000E+00 0.  1.
         11    1    1    2    0    0 -0.15609841018E-01 -0.13880012923E-01  0.17032851181E+00  0.17160531737E+00  0.51100000000E-03 0. -1.
    9000002    1    1    2    0    0  0.32248411345E+00  0.13666532622E+00  0.82474778319E-01  0.10046489456E+01  0.93800000000E+00 0.  1.
         22    1    1    2    0    0 -0.30687427243E+00 -0.12278531330E+00  0.37471966772E+01  0.37617457370E+01  0.00000000000E+00 0. -1.
</event>
<event>
 5    1  0.3454171E+002  0.1599627E+01  0.7818608E-02  0.3353769E+00
         11   -1    0    0    0    0  0.00000000000E+00  0.00000000000E+00  0.39999999674E+01  0.40000000000E+01  0.51100000000E-03 0. -1.
    9000002   -1    0    0    0    0 -0.00000000000E+00 -0.00000000000E+00  0.00000000000E+00  0.93800000000E+00  0.93800000000E+00 0.  1.
         11    1    1    2    0    0  0.15301178775E-02  0.11086358610E-01  0.20175094546E+00  0.20206175720E+00  0.51100000000E-03 0. -1.
    9000002    1    1    2    0    0 -0.46575939944E-01 -0.28778538868E+00  0.56692805222E-01  0.98389421295E+00  0.93800000000E+00 0.  1.
         22    1    1    2    0    0  0.45045822066E-01  0.27669903007E+00  0.37415562167E+01  0.37520440298E+01  0.00000000000E+00 0. -1.
</event>
<event>
 5    1  0.3454171E+002  0.1598449E+01  0.7818608E-02  0.3355048E+00
         11   -1    0    0    0    0  0.00000000000E+00  0.00000000000E+00  0.39999999674E+01  0.40000000000E+01  0.51100000000E-03 0. -1.
    9000002   -1    0    0    0    0 -0.00000000000E+00 -0.00000000000E+00  0.00000000000E+00  0.93800000000E+00  0.93800000000E+00 0.  1.
         11    1    1    2    0    0 -0.68460144665E-01  0.38884495040E-01  0.70159290341E+00  0.70599692534E+00  0.51100000000E-03 0. -1.
    9000002    1    1    2    0    0  0.26938779812E+00 -0.78435018756E-01  0.53376850183E-01  0.98051768270E+00  0.93800000000E+00 0.  1.
         22    1    1    2    0    0 -0.20092765346E+00  0.39550523716E-01  0.32450302138E+01  0.32514853920E+01  0.00000000000E+00 0. -1.
</event>
<event>
 5    1  0.3454171E+002  0.1599676E+01  0.7818608E-02  0.3353715E+00
         11   -1    0    0    0    0  0.00000000000E+00  0.00000000000E+00  0.39999999674E+01  0.40000000000E+01  0.51100000000E-03 0. -1.
    9000002   -1    0    0    0    0 -0.00000000000E+00 -0.00000000000E+00  0.00000000000E+00  0.93800000000E+00  0.93800000000E+00 0.  1.
         11    1    1    2    0    0  0.20295650592E-01  0.55963086800E-01  0.77909181681E+00  0.78136297625E+00  0.51100000000E-03 0.  1.
    9000002    1    1    2    0    0 -0.10379592393E+00 -0.28597456473E+00  0.61769525476E-01  0.98803568750E+00  0.93800000000E+00 0.  1.
         22    1    1    2    0    0  0.83500273338E-01  0.23001147793E+00  0.31591386251E+01  0.31686013362E+01  0.00000000000E+00 0. -1.
</event>
<event>
 5    1  0.3454171E+002  0.1599677E+01  0.7818608E-02  0.3353714E+00
         11   -1    0    0    0    0  0.00000000000E+00  0.00000000000E+00  0.39999999674E+01  0.40000000000E+01  0.51100000000E-03 0.  1.
    9000002   -1    0    0    0    0 -0.00000000000E+00 -0.00000000000E+00  0.00000000000E+00  0.93800000000E+00  0.93800000000E+00 0.  1.
         11    1    1    2    0    0  0.21347674032E+00  0.20693378987E+00  0.21962199343E+01  0.22162527322E+01  0.51100000000E-03 0.  1.
    9000002    1    1    2    0    0 -0.37080619041E+00 -0.35966584522E+00  0.18319837525E+00  0.10863988198E+01  0.93800000000E+00 0.  1.
         22    1    1    2    0    0  0.15732945008E+00  0.15273205535E+00  0.16205816579E+01  0.16353484480E+01  0.00000000000E+00 0.  1.
</event>
<event>
 5    1  0.3454171E+002  0.1599676E+01  0.7818608E-02  0.3353715E+00
         11   -1    0    0    0    0  0.00000000000E+00  0.00000000000E+00  0.39999999674E+01  0.40000000000E+01  0.51100000000E-03 0.  1.
    9000002   -1    0    0    0    0 -0.00000000000E+00 -0.00000000000E+00  0.00000000000E+00  0.93800000000E+00  0.93800000000E+00 0.  1.
         11    1    1    2    0    0 -0.13352803172E-01  0.20327586614E-02  0.18846689804E+00  0.18895095194E+00  0.51100000000E-03 0. -1.
    9000002    1    1    2    0    0  0.27863875639E+00 -0.39824760277E-01  0.52764974175E-01  0.98074140863E+00  0.93800000000E+00 0.  1.
         22    1    1    2    0    0 -0.26528595322E+00  0.37792001616E-01  0.37587680951E+01  0.37683076394E+01  0.00000000000E+00 0.  1.
</event>
<event>
 5    1  0.3454171E+002  0.1599677E+01  0.7818608E-02  0.3353714E+00
         11   -1    0    0    0    0  0.00000000000E+00  0.00000000000E+00  0.39999999674E+01  0.40000000000E+01  0.51100000000E-03 0. -1.
    9000002   -1    0    0    0    0 -0.00000000000E+00 -0.00000000000E+00  0.00000000000E+00  0.93800000000E+00  0.93800000000E+00 0.  1.
         11    1    1    2    0    0 -0.82610622141E-01 -0.56677985915E-02  0.71495308686E+00  0.71973246166E+00  0.51100000000E-03 0. -1.
    9000002    1    1    2    0    0  0.44545568113E+00  0.30111427830E-01  0.13531692482E+00  0.10476125868E+01  0.93800000000E+00 0.  1.
         22    1    1    2    0    0 -0.36284505899E+00 -0.24443629238E-01  0.31497299557E+01  0.31706549515E+01  0.00000000000E+00 0. -1.
</event>
<event>
 5    1  0.3454171E+002  0.1430803E+01  0.7818608E-02  0.3560314E+00
         11   -1    0    0    0    0  0.00000000000E+00  0.00000000000E+00  0.39999999674E+01  0.40000000000E+01  0.51100000000E-03 0.  1.
    9000002   -1    0    0    0    0 -0.00000000000E+00 -0.00000000000E+00  0.00000000000E+00  0.93800000000E+00  0.93800000000E+00 0. -1.
         11    1    1    2    0    0  0.40324137015E+00 -0.27925000559E+00  0.26101743077E+01  0.26558603777E+01  0.51100000000E-03 0.  1.
    9000002    1    1    2    0    0 -0.16722110575E-01  0.44055191838E-01  0.13575277021E+00  0.94894325622E+00  0.93800000000E+00 0. -1.
         22    1    1    2    0    0 -0.38651925958E+00  0.23519481376E+00  0.12540728895E+01  0.13331963661E+01  0.00000000000E+00 0.  1.
</event>
<event>
 5    1  0.3454171E+002  0.1599677E+01  0.7818608E-02  0.3353714E+00
         11   -1    0    0    0    0  0.00000000000E+00  0.00000000000E+00  0.39999999674E+01  0.40000000000E+01  0.51100000000E-03 0. -1.
    9000002   -1    0    0    0    0 -0.00000000000E+00 -0.00000000000E+00  0.00000000000E+00  0.93800000000E+00  0.93800000000E+00 0.  1.
         11    1    1    2    0    0  0.42397659641E-01  0.11939564502E+00  0.84971546115E+00  0.85910971804E+00  0.51100000000E-03 0.  1.
    9000002    1    1    2    0    0 -0.19077672345E+00 -0.53031403907E+00  0.21996271242E+00  0.11161793463E+01  0.93800000000E+00 0.  1.
         22    1    1    2    0    0  0.14837906381E+00  0.41091839405E+00  0.29303217938E+01  0.29627109357E+01  0.00000000000E+00 0. -1.
</event>
<event>
 5    1  0.3454171E+002  0.1599607E+01  0.7818608E-02  0.3353790E+00
         11   -1    0    0    0    0  0.00000000000E+00  0.00000000000E+00  0.39999999674E+01  0.40000000000E+01  0.51100000000E-03 0.  1.
    9000002   -1    0    0    0    0 -0.00000000000E+00 -0.00000000000E+00  0.00000000000E+00  0.93800000000E+00  0.93800000000E+00 0.  1.
         11    1    1    2    0    0 -0.15812847767E-01  0.38493569277E-01  0.59860245888E+00  0.60004746973E+00  0.51100000000E-03 0.  1.
    9000002    1    1    2    0    0  0.57712304095E-01 -0.24540991688E+00  0.42280611009E-01  0.97220799596E+00  0.93800000000E+00 0.  1.
         22    1    1    2    0    0 -0.41899456328E-01  0.20691634761E+00  0.33591168975E+01  0.33657445343E+01  0.00000000000E+00 0. -1.
</event>
<event>
 5    1  0.3454171E+002  0.1599214E+01  0.7818608E-02  0.3354217E+00
         11   -1    0    0    0    0  0.00000000000E+00  0.00000000000E+00  0.39999999674E+01  0.40000000000E+01  0.51100000000E-03 0.  1.
    9000002   -1    0    0    0    0 -0.00000000000E+00 -0.00000000000E+00  0.00000000000E+00  0.93800000000E+00  0.93800000000E+00 0. -1.
         11    1    1    2    0    0  0.16864862510E+00 -0.17046340852E+00  0.19336592996E+01  0.19484708570E+01  0.51100000000E-03 0.  1.
    9000002    1    1    2    0    0 -0.28606182586E+00  0.33297748779E+00  0.13106979190E+00  0.10439006974E+01  0.93800000000E+00 0. -1.
         22    1    1    2    0    0  0.11741320077E+00 -0.16251407928E+00  0.19352708758E+01  0.19456284457E+01  0.00000000000E+00 0.  1.
</event>
<event>
 5    1  0.3454171E+002  0.1598790E+01  0.7818608E-02  0.3354678E+00
         11   -1    0    0    0    0  0.00000000000E+00  0.00000000000E+00  0.39999999674E+01  0.40000000000E+01  0.51100000000E-03 0.  1.
    9000002   -1    0    0    0    0 -0.00000000000E+00 -0.00000000000E+00  0.00000000000E+00  0.93800000000E+00  0.93800000000E+00 0.  1.
         11    1    1    2    0    0 -0.14504028903E+00 -0.12701606317E+00  0.14406424574E+01  0.14534857127E+01  0.51100000000E-03 0.  1.
    9000002    1    1    2    0    0  0.33673886228E+00  0.41473382544E+00  0.19737079417E+00  0.10973588464E+01  0.93800000000E+00 0.  1.
         22    1    1    2    0    0 -0.19169857325E+00 -0.28771776227E+00  0.23619867158E+01  0.23871554410E+01  0.00000000000E+00 0.  1.
</event>
<event>
 5    1  0.3454171E+002  0.1599677E+01  0.7818608E-02  0.3353714E+00
         11   -1    0    0    0    0  0.00000000000E+00  0.00000000000E+00  0.39999999674E+01  0.40000000000E+01  0.51100000000E-03 0.  1.
    9000002   -1    0    0    0    0 -0.00000000000E+00 -0.00000000000E+00  0.00000000000E+00  0.93800000000E+00  0.93800000000E+00 0.  1.
         11    1    1    2    0    0 -0.59747412524E+00  0.17635532195E+00  0.25876984731E+01  0.26616273554E+01  0.51100000000E-03 0.  1.
    9000002    1    1    2    0    0  0.80270028370E+00 -0.23720585528E+00  0.52288598971E+00  0.13615609136E+01  0.93800000000E+00 0.  1.
         22    1    1    2    0    0 -0.20522615846E+00  0.60850533327E-01  0.88941550452E+00  0.91481173101E+00  0.00000000000E+00 0.  1.
</event>
<event>
 5    1  0.3454171E+002  0.1599176E+01  0.7818608E-02  0.3354258E+00
         11   -1    0    0    0    0  0.00000000000E+00  0.00000000000E+00  0.39999999674E+01  0.40000000000E+01  0.51100000000E-03 0.  1.
    9000002   -1    0    0    0    0 -0.00000000000E+00 -0.00000000000E+00  0.00000000000E+00  0.93800000000E+00  0.93800000000E+00 0.  1.
         11    1    1    2    0    0 -0.11372712261E-01 -0.34593731187E-02  0.13647709950E+00  0.13699476506E+00  0.51100000000E-03 0.  1.
    9000002    1    1    2    0    0  0.17646259209E+00 -0.13936347510E+00  0.33905085961E-01  0.96517085506E+00  0.93800000000E+00 0.  1.
         22    1    1    2    0    0 -0.16508987983E+00  0.14282284822E+00  0.38296177819E+01  0.38358343799E+01  0.00000000000E+00 0.  1.
</event>
<event>
 5    1  0.3454171E+002  0.1599676E+01  0.7818608E-02  0.3353715E+00
         11   -1    0    0    0    0  0.00000000000E+00  0.00000000000E+00  0.39999999674E+01  0.40000000000E+01  0.51100000000E-03 0. -1.
    9000002   -1    0    0    0    0 -0.00000000000E+00 -0.00000000000E+00  0.00000000000E+00  0.93800000000E+00  0.93800000000E+00 0.  1.
         11    1    1    2    0    0 -0.43012678303E-01  0.29928668659E-01  0.52491679408E+00  0.52752603494E+00  0.51100000000E-03 0. -1.
    9000002    1    1    2    0    0  0.31658505596E+00 -0.21735880898E+00  0.99273890539E-01  0.10184155610E+01  0.93800000000E+00 0.  1.
         22    1    1    2    0    0 -0.27357237766E+00  0.18743014032E+00  0.33758092827E+01  0.33920584041E+01  0.00000000000E+00 0. -1.
</event>
<event>
 5    1  0.3454171E+002  0.1599670E+01  0.7818608E-02  0.3353721E+00
         11   -1    0    0    0    0  0.00000000000E+00  0.00000000000E+00  0.39999999674E+01  0.40000000000E+01  0.51100000000E-03 0.  1.
    9000002   -1    0    0    0    0 -0.00000000000E+00 -0.00000000000E+00  0.00000000000E+00  0.93800000000E+00  0.93800000000E+00 0.  1.
         11    1    1    2    0    0  0.12217106865E+00  0.83975525713E-01  0.16879274731E+01  0.16944252933E+01  0.51100000000E-03 0.  1.
    9000002    1    1    2    0    0 -0.28839306932E+00 -0.20011116303E+00  0.82631567997E-01  0.10049313489E+01  0.93800000000E+00 0.  1.
         22    1    1    2    0    0  0.16622200067E+00  0.11613563731E+00  0.22294409262E+01  0.22386433578E+01  0.00000000000E+00 0. -1.
</event>
<event>
 5    1  0.3454171E+002  0.1599673E+01  0.7818608E-02  0.3353718E+00
         11   -1    0    0    0    0  0.00000000000E+00  0.00000000000E+00  0.39999999674E+01  0.40000000000E+01  0.51100000000E-03 0. -1.
    9000002   -1    0    0    0    0 -0.00000000000E+00 -0.00000000000E+00  0.00000000000E+00  0.93800000000E+00  0.93800000000E+00 0. -1.
         11    1    1    2    0    0 -0.56763363798E-01  0.36494365286E-01  0.56442878293E+00  0.56844879302E+00  0.51100000000E-03 0. -1.
    9000002    1    1    2    0    0  0.38210644324E+00 -0.24062797551E+00  0.13852568096E+00  0.10502097509E+01  0.93800000000E+00 0. -1.
         22    1    1    2    0    0 -0.32534307944E+00  0.20413361023E+00  0.32970455035E+01  0.33193414561E+01  0.00000000000E+00 0. -1.
</event>
<event>
 5    1  0.3454171E+002  0.1598666E+01  0.7818608E-02  0.3354813E+00
         11   -1    0    0    0    0  0.00000000000E+00  0.00000000000E+00  0.39999999674E+01  0.40000000000E+01  0.51100000000E-03 0. -1.
    9000002   -1    0    0    0    0 -0.00000000000E+00 -0.00000000000E+00  0.00000000000E+00  0.93800000000E+00  0.93800000000E+00 0. -1.
         11    1    1    2    0    0 -0.37524950808E-01 -0.39392590745E-01  0.87709737590E+00  0.87878323043E+00  0.51100000000E-03 0. -1.
    9000002    1    1    2    0    0  0.40123453593E-01  0.24002422885E+00  0.40091552142E-01  0.96988290763E+00  0.93800000000E+00 0. -1.
         22    1    1    2    0    0 -0.25985027845E-02 -0.20063163811E+00  0.30828110393E+01  0.30893338619E+01  0.00000000000E+00 0. -1.
</event>
<event>
 5    1  0.3454171E+002  0.1501632E+01  0.7818608E-02  0.3467575E+00
         11   -1    0    0    0    0  0.00000000000E+00  0.00000000000E+00  0.39999999674E+01  0.40000000000E+01  0.51100000000E-03 0. -1.
    9000002   -1    0    0    0    0 -0.00000000000E+00 -0.00000000000E+00  0.00000000000E+00  0.93800000000E+00  0.93800000000E+00 0. -1.
         11    1    1    2    0    0  0.16296890397E+00  0.31689406946E+00  0.56475392152E+00  0.66777838234E+00  0.51100000000E-03 0. -1.
    9000002    1    1    2    0    0  0.15037040576E+00  0.23114701938E+00  0.23130922418E+00  0.10046831146E+01  0.93800000000E+00 0. -1.
         22    1    1    2    0    0 -0.31333930972E+00 -0.54804108884E+00  0.32039368217E+01  0.32655385031E+01  0.00000000000E+00 0. -1.
</event>
<event>
 5    1  0.3454171E+002  0.1593558E+01  0.7818608E-02  0.3360386E+00
         11   -1    0    0    0    0  0.00000000000E+00  0.00000000000E+00  0.39999999674E+01  0.40000000000E+01  0.51100000000E-03 0.  1.
    9000002   -1    0    0    0    0 -0.00000000000E+00 -0.00000000000E+00  0.00000000000E+00  0.93800000000E+00  0.93800000000E+00 0. -1.
         11    1    1    2    0    0  0.72085729413E-01 -0.10090067609E+00  0.10334017135E+01  0.10408153829E+01  0.51100000000E-03 0.  1.
    9000002    1    1    2    0    0  0.34191975963E-01  0.31709752997E+00  0.72836992956E-01  0.99341288610E+00  0.93800000000E+00 0. -1.
         22    1    1    2    0    0 -0.10627770538E+00 -0.21619685387E+00  0.28937612609E+01  0.29037717310E+01  0.00000000000E+00 0.  1.
</event>
<event>
 5    1  0.3454171E+002  0.1594050E+01  0.7818608E-02  0.3359847E+00
         11   -1    0    0    0    0  0.00000000000E+00  0.00000000000E+00  0.39999999674E+01  0.40000000000E+01  0.51100000000E-03 0.  1.
    9000002   -1    0    0    0    0 -0.00000000000E+00 -0.00000000000E+00  0.00000000000E+00  0.93800000000E+00  0.93800000000E+00 0.  1.
         11    1    1    2    0    0  0.21985854644E-01 -0.30154858745E-01  0.84954159486E+00  0.85036102676E+00  0.51100000000E-03 0.  1.
    9000002    1    1    2    0    0 -0.40231540150E+00 -0.22880502775E-01  0.11427787368E+00  0.10272704766E+01  0.93800000000E+00 0.  1.
         22    1    1    2    0    0  0.38032954686E+00  0.53035361520E-01  0.30361804988E+01  0.30603684966E+01  0.00000000000E+00 0.  1.
</event>
<event>
 5    1  0.3454171E+002  0.1599677E+01  0.7818608E-02  0.3353715E+00
         11   -1    0    0    0    0  0.00000000000E+00  0.00000000000E+00  0.39999999674E+01  0.40000000000E+01  0.51100000000E-03 0.  1.
    9000002   -1    0    0    0    0 -0.00000000000E+00 -0.00000000000E+00  0.00000000000E+00  0.93800000000E+00  0.93800000000E+00 0.  1.
         11    1    1    2    0    0  0.38888011407E-01  0.21655756970E-01  0.67134006731E+00  0.67281423613E+00  0.51100000000E-03 0.  1.
    9000002    1    1    2    0    0 -0.22927121757E+00 -0.12459766170E+00  0.45270567917E-01  0.97467086384E+00  0.93800000000E+00 0.  1.
         22    1    1    2    0    0  0.19038320616E+00  0.10294190473E+00  0.32833893321E+01  0.32905149000E+01  0.00000000000E+00 0.  1.
</event>
<event>
 5    1  0.3454171E+002  0.1565244E+01  0.7818608E-02  0.3391972E+00
         11   -1    0    0    0    0  0.00000000000E+00  0.00000000000E+00  0.39999999674E+01  0.40000000000E+01  0.51100000000E-03 0. -1.
    9000002   -1    0    0    0    0 -0.00000000000E+00 -0.00000000000E+00  0.00000000000E+00  0.93800000000E+00  0.93800000000E+00 0. -1.
         11    1    1    2    0    0  0.14462921471E+00 -0.86450735344E-01  0.68800494263E+00  0.70833777366E+00  0.51100000000E-03 0. -1.
    9000002    1    1    2    0    0  0.11438561219E+00  0.24376494687E+00  0.75270953422E-01  0.97878247534E+00  0.93800000000E+00 0. -1.
         22    1    1    2    0    0 -0.25901482690E+00 -0.15731421152E+00  0.32367240713E+01  0.32508797510E+01  0.00000000000E+00 0. -1.
</event>
<event>
 5    1  0.3454171E+002  0.1593808E+01  0.7818608E-02  0.3360112E+00
         11   -1    0    0    0    0  0.00000000000E+00  0.00000000000E+00  0.39999999674E+01  0.40000000000E+01  0.51100000000E-03 0.  1.
    9000002   -1    0    0    0    0 -0.00000000000E+00 -0.00000000000E+00  0.00000000000E+00  0.93800000000E+00  0.93800000000E+00 0. -1.
         11    1    1    2    0    0 -0.90569042497E-01  0.89709712119E-01  0.89636870703E+00  0.90538815100E+00  0.51100000000E-03 0.  1.
    9000002    1    1    2    0    0  0.30097095399E+00 -0.67372745013E-01  0.68136638896E-01  0.98975209193E+00  0.93800000000E+00 0. -1.
         22    1    1    2    0    0 -0.21040191149E+00 -0.22336967106E-01  0.30354946214E+01  0.30428597571E+01  0.00000000000E+00 0.  1.
</event>
<event>
 5    1  0.3454171E+002  0.1581885E+01  0.7818608E-02  0.3373262E+00
         11   -1    0    0    0    0  0.00000000000E+00  0.00000000000E+00  0.39999999674E+01  0.40000000000E+01  0.51100000000E-03 0.  1.
    9000002   -1    0    0    0    0 -0.00000000000E+00 -0.00000000000E+00  0.00000000000E+00  0.93800000000E+00  0.93800000000E+00 0. -1.
         11    1    1    2    0    0  0.18036233816E+00 -0.11864529187E+00  0.17857585921E+01  0.17987610427E+01  0.51100000000E-03 0.  1.
    9000002    1    1    2    0    0 -0.93651665009E-01  0.43490050981E+00  0.14978334054E+00  0.10488985351E+01  0.93800000000E+00 0. -1.
         22    1    1    2    0    0 -0.86710673150E-01 -0.31625521794E+00  0.20644580347E+01  0.20903404222E+01  0.00000000000E+00 0.  1.
</event>
<event>
 5    1  0.3454171E+002  0.1597631E+01  0.7818608E-02  0.3355939E+00
         11   -1    0    0    0    0  0.00000000000E+00  0.00000000000E+00  0.39999999674E+01  0.40000000000E+01  0.51100000000E-03 0. -1.
    9000002   -1    0    0    0    0 -0.00000000000E+00 -0.00000000000E+00  0.00000000000E+00  0.93800000000E+00  0.93800000000E+00 0. -1.
         11    1    1    2    0    0  0.35293356798E-02  0.45002870054E-01  0.43764701877E+00  0.43996919061E+00  0.51100000000E-03 0. -1.
    9000002    1    1    2    0    0  0.21655031448E+00 -0.22266881417E+00  0.66037193689E-01  0.99029306291E+00  0.93800000000E+00 0. -1.
         22    1    1    2    0    0 -0.22007965016E+00  0.17766594411E+00  0.34963157549E+01  0.35077377465E+01  0.00000000000E+00 0. -1.
</event>
<event>
 5    1  0.3454171E+002  0.1591863E+01  0.7818608E-02  0.3362242E+00
         11   -1    0    0    0    0  0.00000000000E+00  0.00000000000E+00  0.39999999674E+01  0.40000000000E+01  0.51100000000E-03 0.  1.
    9000002   -1    0    0    0    0 -0.00000000000E+00 -0.00000000000E+00  0.00000000000E+00  0.93800000000E+00  0.93800000000E+00 0. -1.
         11    1    1    2    0    0  0.34665992242E-01  0.28393900474E+00  0.22467480549E+01  0.22648841411E+01  0.51100000000E-03 0.  1.
    9000002    1    1    2    0    0  0.11390928741E+00 -0.43897415131E+00  0.14656179577E+00  0.10521397204E+01  0.93800000000E+00 0. -1.
         22    1    1    2    0    0 -0.14857527965E+00  0.15503514656E+00  0.16066901167E+01  0.16209761385E+01  0.00000000000E+00 0. -1.
</event>
<event>
 5    1  0.3454171E+002  0.1599675E+01  0.7818608E-02  0.3353717E+00
         11   -1    0    0    0    0  0.00000000000E+00  0.00000000000E+00  0.39999999674E+01  0.40000000000E+01  0.51100000000E-03 0. -1.
    9000002   -1    0    0    0    0 -0.00000000000E+00 -0.00000000000E+00  0.00000000000E+00  0.93800000000E+00  0.93800000000E+00 0. -1.
         11    1    1    2    0    0 -0.45663833071E-02  0.53513461251E-02  0.11357430451E+00  0.11379311283E+00  0.51100000000E-03 0.  1.
    9000002    1    1    2    0    0  0.15661458603E+00 -0.17295579224E+00  0.36122516908E-01  0.96725936070E+00  0.93800000000E+00 0. -1.
         22    1    1    2    0    0 -0.15204820272E+00  0.16760444612E+00  0.38503031459E+01  0.38569475265E+01  0.00000000000E+00 0. -1.
</event>
<event>
 5    1  0.3454171E+002  0.1570230E+01  0.7818608E-02  0.3386322E+00
         11   -1    0    0    0    0  0.00000000000E+00  0.00000000000E+00  0.39999999674E+01  0.40000000000E+01  0.51100000000E-03 0. -1.
    9000002   -1    0    0    0    0 -0.00000000000E+00 -0.00000000000E+00  0.00000000000E+00  0.93800000000E+00  0.93800000000E+00 0.  1.
         11    1    1    2    0    0 -0.12600138926E+00  0.30725561129E-01  0.53558185522E+00  0.55106133503E+00  0.51100000000E-03 0. -1.
    9000002    1    1    2    0    0  0.76149207224E-02  0.27166131800E+00  0.72231783755E-01  0.97924424395E+00  0.93800000000E+00 0.  1.
         22    1    1    2    0    0  0.11838646854E+00 -0.30238687913E+00  0.33921863284E+01  0.34076944210E+01  0.00000000000E+00 0. -1.
</event>
<event>
 5    1  0.3454171E+002  0.1599642E+01  0.7818608E-02  0.3353752E+00
         11   -1    0    0    0    0  0.00000000000E+00  0.00000000000E+00  0.39999999674E+01  0.40000000000E+01  0.51100000000E-03 0. -1.
    9000002   -1    0    0    0    0 -0.00000000000E+00 -0.00000000000E+00  0.00000000000E+00  0.93800000000E+00  0.93800000000E+00 0. -1.
         11    1    1    2    0    0 -0.42626544089E-02 -0.43805152589E-01  0.51843860790E+00  0.52030367373E+00  0.51100000000E-03 0. -1.
    9000002    1    1    2    0    0  0.48856920272E-02  0.30888895542E+00  0.63747675316E-01  0.98961811972E+00  0.93800000000E+00 0. -1.
         22    1    1    2    0    0 -0.62303761821E-03 -0.26508380283E+00  0.34178136841E+01  0.34280782066E+01  0.00000000000E+00 0. -1.
</event>
<event>
 5    1  0.3454171E+002  0.1599469E+01  0.7818608E-02  0.3353940E+00
         11   -1    0    0    0    0  0.00000000000E+00  0.00000000000E+00  0.39999999674E+01  0.40000000000E+01  0.51100000000E-03 0. -1.
    9000002   -1    0    0    0    0 -0.00000000000E+00 -0.00000000000E+00  0.00000000000E+00  0.93800000000E+00  0.93800000000E+00 0.  1.
         11    1    1    2    0    0  0.17482485705E+00 -0.79929961106E-01  0.15283976355E+01  0.15404389383E+01  0.51100000000E-03 0. -1.
    9000002    1    1    2    0    0 -0.41353416172E+00  0.16968760055E+00  0.13582317807E+00  0.10479009115E+01  0.93800000000E+00 0.  1.
         22    1    1    2    0    0  0.23870930467E+00 -0.89757639440E-01  0.23357791537E+01  0.23496601501E+01  0.00000000000E+00 0. -1.
</event>
<event>
 5    1  0.3454171E+002  0.1588758E+01  0.7818608E-02  0.3365656E+00
         11   -1    0    0    0    0  0.00000000000E+00  0.00000000000E+00  0.39999999674E+01  0.40000000000E+01  0.51100000000E-03 0.  1.
    9000002   -1    0    0    0    0 -0.00000000000E+00 -0.00000000000E+00  0.00000000000E+00  0.93800000000E+00  0.93800000000E+00 0. -1.
         11    1    1    2    0    0  0.19630372196E-01 -0.37301061000E-01  0.90985571662E-01  0.10027639820E+00  0.51100000000E-03 0.  1.
    9000002    1    1    2    0    0  0.83777898307E-01  0.22199596181E+00  0.45710294443E-01  0.96862499159E+00  0.93800000000E+00 0. -1.
         22    1    1    2    0    0 -0.10340827050E+00 -0.18469490081E+00  0.38633041013E+01  0.38690986102E+01  0.00000000000E+00 0.  1.
</event>
<event>
 5    1  0.3454171E+002  0.1599645E+01  0.7818608E-02  0.3353749E+00
         11   -1    0    0    0    0  0.00000000000E+00  0.00000000000E+00  0.39999999674E+01  0.40000000000E+01  0.51100000000E-03 0. -1.
    9000002   -1    0    0    0    0 -0.00000000000E+00 -0.00000000000E+00  0.00000000000E+00  0.93800000000E+00  0.93800000000E+00 0.  1.
         11    1    1    2    0    0 -0.18443827813E-02 -0.12807229387E-02  0.25125870385E-01  0.25231180763E-01  0.51100000000E-03 0. -1.
    9000002    1    1    2    0    0  0.15111457839E+00  0.14471613246E+00  0.29022846086E-01  0.96149087379E+00  0.93800000000E+00 0.  1.
         22    1    1    2    0    0 -0.14927019560E+00 -0.14343540952E+00  0.39458512509E+01  0.39512779454E+01  0.00000000000E+00 0. -1.
</event>
<event>
 5    1  0.3454171E+002  0.1596398E+01  0.7818608E-02  0.3357282E+00
         11   -1    0    0    0    0  0.00000000000E+00  0.00000000000E+00  0.39999999674E+01  0.40000000000E+01  0.51100000000E-03 0. -1.
    9000002   -1    0    0    0    0 -0.00000000000E+00 -0.00000000000E+00  0.00000000000E+00  0.93800000000E+00  0.93800000000E+00 0.  1.
         11    1    1    2    0    0  0.84896387192E-01  0.75154190822E-01  0.94434101698E+00  0.95112342334E+00  0.51100000000E-03 0. -1.
    9000002    1    1    2    0    0 -0.29187933327E+00 -0.75563688574E-01  0.63223815757E-01  0.98729158160E+00  0.93800000000E+00 0.  1.
         22    1    1    2    0    0  0.20698294608E+00  0.40949775267E-03  0.29924351346E+01  0.29995849951E+01  0.00000000000E+00 0. -1.
</event>
<event>
 5    1  0.3454171E+002  0.1593670E+01  0.7818608E-02  0.3360263E+00
         11   -1    0    0    0    0  0.00000000000E+00  0.00000000000E+00  0.39999999674E+01  0.40000000000E+01  0.51100000000E-03 0. -1.
    9000002   -1    0    0    0    0 -0.00000000000E+00 -0.00000000000E+00  0.00000000000E+00  0.93800000000E+00  0.93800000000E+00 0. -1.
         11    1    1    2    0    0 -0.87055574927E-01 -0.24851065049E-01  0.47166950142E+00  0.48027973958E+00  0.51100000000E-03 0. -1.
    9000002    1    1    2    0    0  0.22265642096E+00  0.29344236068E+00  0.96076759658E-01  0.10123038302E+01  0.93800000000E+00 0. -1.
         22    1    1    2    0    0 -0.13560084604E+00 -0.26859129563E+00  0.34322537063E+01  0.34454164302E+01  0.00000000000E+00 0. -1.
</event>
<event>
 5    1  0.3454171E+002  0.1573843E+01  0.7818608E-02  0.3382252E+00
         11   -1    0    0    0    0  0.00000000000E+00  0.00000000000E+00  0.39999999674E+01  0.40000000000E+01  0.51100000000E-03 0. -1.
    9000002   -1    0    0    0    0 -0.00000000000E+00 -0.00000000000E+00  0.00000000000E+00  0.93800000000E+00  0.93800000000E+00 0.  1.
         11    1    1    2    0    0 -0.94742454233E-02 -0.33045408116E-01  0.29276311232E+01  0.29278329896E+01  0.51100000000E-03 0. -1.
    9000002    1    1    2    0    0  0.62916629012E-03 -0.18557444954E+00  0.42299414400E-01  0.95711624823E+00  0.93800000000E+00 0.  1.
         22    1    1    2    0    0  0.88450791332E-02  0.21861985765E+00  0.10300694298E+01  0.10530507622E+01  0.00000000000E+00 0.  1.
</event>
<event>
 5    1  0.3454171E+002  0.1599663E+01  0.7818608E-02  0.3353730E+00
         11   -1    0    0    0    0  0.00000000000E+00  0.00000000000E+00  0.39999999674E+01  0.40000000000E+01  0.51100000000E-03 0. -1.
    9000002   -1    0    0    0    0 -0.00000000000E+00 -0.00000000000E+00  0.00000000000E+00  0.93800000000E+00  0.93800000000E+00 0.  1.
         11    1    1    2    0    0 -0.18821794248E-02 -0.11111261139E-02  0.35716268482E-01  0.35786731562E-01  0.51100000000E-03 0. -1.
    9000002    1    1    2    0    0  0.13938130168E+00  0.15831132088E+00  0.29483803689E-01  0.96187468844E+00  0.93800000000E+00 0.  1.
         22    1    1    2    0    0 -0.13749912226E+00 -0.15720019477E+00  0.39347998952E+01  0.39403385800E+01  0.00000000000E+00 0. -1.
</event>
<event>
 5    1  0.3454171E+002  0.1599660E+01  0.7818608E-02  0.3353733E+00
         11   -1    0    0    0    0  0.00000000000E+00  0.00000000000E+00  0.39999999674E+01  0.40000000000E+01  0.51100000000E-03 0.  1.
    9000002   -1    0    0    0    0 -0.00000000000E+00 -0.00000000000E+00  0.00000000000E+00  0.93800000000E+00  0.93800000000E+00 0. -1.
         11    1    1    2    0    0 -0.12793618225E+00  0.29390884379E-01  0.15575975458E+01  0.15631192746E+01  0.51100000000E-03 0.  1.
    9000002    1    1    2    0    0  0.33213770335E+00 -0.81115877505E-01  0.78324055899E-01  0.10014359177E+01  0.93800000000E+00 0. -1.
         22    1    1    2    0    0 -0.20420152109E+00  0.51724993126E-01  0.23640783656E+01  0.23734448076E+01  0.00000000000E+00 0. -1.
</event>
<event>
 5    1  0.3454171E+002  0.1597571E+01  0.7818608E-02  0.3356004E+00
         11   -1    0    0    0    0  0.00000000000E+00  0.00000000000E+00  0.39999999674E+01  0.40000000000E+01  0.51100000000E-03 0.  1.
    9000002   -1    0    0    0    0 -0.00000000000E+00 -0.00000000000E+00  0.00000000000E+00  0.93800000000E+00  0.93800000000E+00 0.  1.
         11    1    1    2    0    0  0.13305728728E-01  0.48137022500E-01  0.77250893217E+00  0.77412177773E+00  0.51100000000E-03 0.  1.
    9000002    1    1    2    0    0 -0.28755657428E+00 -0.20894429429E+00  0.86471674007E-01  0.10068107329E+01  0.93800000000E+00 0.  1.
         22    1    1    2    0    0  0.27425084555E+00  0.16080727179E+00  0.31410193612E+01  0.31570674893E+01  0.00000000000E+00 0.  1.
</event>
<event>
 5    1  0.3454171E+002  0.1562726E+01  0.7818608E-02  0.3394840E+00
         11   -1    0    0    0    0  0.00000000000E+00  0.00000000000E+00  0.39999999674E+01  0.40000000000E+01  0.51100000000E-03 0. -1.
    9000002   -1    0    0    0    0 -0.00000000000E+00 -0.00000000000E+00  0.00000000000E+00  0.93800000000E+00  0.93800000000E+00 0. -1.
         11    1    1    2    0    0  0.43714569879E-02  0.87291121060E-01  0.10260206366E+00  0.13478239514E+00  0.51100000000E-03 0. -1.
    9000002    1    1    2    0    0  0.14384296440E+00 -0.28228991436E+00  0.96852494296E-01  0.99478781647E+00  0.93800000000E+00 0. -1.
         22    1    1    2    0    0 -0.14821442139E+00  0.19499879330E+00  0.38005454094E+01  0.38084297884E+01  0.00000000000E+00 0. -1.
</event>
<event>
 5    1  0.3454171E+002  0.1598873E+01  0.7818608E-02  0.3354588E+00
         11   -1    0    0    0    0  0.00000000000E+00  0.00000000000E+00  0.39999999674E+01  0.40000000000E+01  0.51100000000E-03 0. -1.
    9000002   -1    0    0    0    0 -0.00000000000E+00 -0.00000000000E+00  0.00000000000E+00  0.93800000000E+00  0.93800000000E+00 0.  1.
         11    1    1    2    0    0 -0.26041142108E-01 -0.47870675483E-01  0.83281810479E+00  0.83459930472E+00  0.51100000000E-03 0. -1.
    9000002    1    1    2    0    0 -0.62482094824E-02  0.25139322339E+00  0.42628031034E-01  0.97205902183E+00  0.93800000000E+00 0.  1.
         22    1    1    2    0    0  0.32289351590E-01 -0.20352254790E+00  0.31245538315E+01  0.31313416735E+01  0.00000000000E+00 0. -1.
</event>
<event>
 5    1  0.3454171E+002  0.1592569E+01  0.7818608E-02  0.3361468E+00
         11   -1    0    0    0    0  0.00000000000E+00  0.00000000000E+00  0.39999999674E+01  0.40000000000E+01  0.51100000000E-03 0.  1.
    9000002   -1    0    0    0    0 -0.00000000000E+00 -0.00000000000E+00  0.00000000000E+00  0.93800000000E+00  0.93800000000E+00 0. -1.
         11    1    1    2    0    0  0.48056286313E-01 -0.14037800979E+00  0.15250406468E+01  0.15322417002E+01  0.51100000000E-03 0.  1.
    9000002    1    1    2    0    0  0.11894587134E+00  0.28452888308E+00  0.69104814015E-01  0.98981022471E+00  0.93800000000E+00 0. -1.
         22    1    1    2    0    0 -0.16700215766E+00 -0.14415087328E+00  0.24058545065E+01  0.24159480751E+01  0.00000000000E+00 0.  1.
</event>
<event>
 5    1  0.3454171E+002  0.1598692E+01  0.7818608E-02  0.3354785E+00
         11   -1    0    0    0    0  0.00000000000E+00  0.00000000000E+00  0.39999999674E+01  0.40000000000E+01  0.51100000000E-03 0.  1.
    9000002   -1    0    0    0    0 -0.00000000000E+00 -0.00000000000E+00  0.00000000000E+00  0.93800000000E+00  0.93800000000E+00 0. -1.
         11    1    1    2    0    0 -0.17755458045E+00  0.14985889685E+00  0.22901154336E+01  0.23018714730E+01  0.51100000000E-03 0.  1.
    9000002    1    1    2    0    0  0.34977971744E+00 -0.29000524154E+00  0.14116205183E+00  0.10517697541E+01  0.93800000000E+00 0. -1.
         22    1    1    2    0    0 -0.17222513699E+00  0.14014634469E+00  0.15687224820E+01  0.15843587729E+01  0.00000000000E+00 0.  1.
</event>
<event>
 5    1  0.3454171E+002  0.1599636E+01  0.7818608E-02  0.3353758E+00
         11   -1    0    0    0    0  0.00000000000E+00  0.00000000000E+00  0.39999999674E+01  0.40000000000E+01  0.51100000000E-03 0.  1.
    9000002   -1    0    0    0    0 -0.00000000000E+00 -0.00000000000E+00  0.00000000000E+00  0.93800000000E+00  0.93800000000E+00 0. -1.
         11    1    1    2    0    0  0.39782056047E-01 -0.85880496954E-03  0.54918831596E+00  0.55062820218E+00  0.51100000000E-03 0.  1.
    9000002    1    1    2    0    0 -0.25160259509E+00  0.21507869127E-01  0.42398874790E-01  0.97232099580E+00  0.93800000000E+00 0. -1.
         22    1    1    2    0    0  0.21182053904E+00 -0.20649064157E-01  0.34084127766E+01  0.34150508020E+01  0.00000000000E+00 0.  1.
</event>
<event>
 5    1  0.3454171E+002  0.1599677E+01  0.7818608E-02  0.3353714E+00
         11   -1    0    0    0    0  0.00000000000E+00  0.00000000000E+00  0.39999999674E+01  0.40000000000E+01  0.51100000000E-03 0.  1.
    9000002   -1    0    0    0    0 -0.00000000000E+00 -0.00000000000E+00  0.00000000000E+00  0.93800000000E+00  0.93800000000E+00 0. -1.
         11    1    1    2    0    0  0.24261473118E+00 -0.93980161315E-01  0.17509905224E+01  0.17702153115E+01  0.51100000000E-03 0.  1.
    9000002    1    1    2    0    0 -0.52392150898E+00  0.20344301329E+00  0.21868689268E+00  0.11151460731E+01  0.93800000000E+00 0. -1.
         22    1    1    2    0    0  0.28130677779E+00 -0.10946285198E+00  0.20303225523E+01  0.20526386154E+01  0.00000000000E+00 0.  1.
</event>
<event>
 5    1  0.3454171E+002  0.1599667E+01  0.7818608E-02  0.3353725E+00
         11   -1    0    0    0    0  0.00000000000E+00  0.00000000000E+00  0.39999999674E+01  0.40000000000E+01  0.51100000000E-03 0.  1.
    9000002   -1    0    0    0    0 -0.00000000000E+00 -0.00000000000E+00  0.00000000000E+00  0.93800000000E+00  0.93800000000E+00 0. -1.
         11    1    1    2    0    0  0.19759760602E-01  0.38851981491E-01  0.58566746612E+00  0.58728746505E+00  0.51100000000E-03 0.  1.
    9000002    1    1    2    0    0 -0.12116210136E+00 -0.24857642609E+00  0.50915429204E-01  0.97923790539E+00  0.93800000000E+00 0. -1.
         22    1    1    2    0    0  0.10140234076E+00  0.20972444460E+00  0.33634170720E+01  0.33714746296E+01  0.00000000000E+00 0.  1.
</event>
<event>
 5    1  0.3454171E+002  0.1556069E+01  0.7818608E-02  0.3402470E+00
         11   -1    0    0    0    0  0.00000000000E+00  0.00000000000E+00  0.39999999674E+01  0.40000000000E+01  0.51100000000E-03 0. -1.
    9000002   -1    0    0    0    0 -0.00000000000E+00 -0.00000000000E+00  0.00000000000E+00  0.93800000000E+00  0.93800000000E+00 0. -1.
         11    1    1    2    0    0  0.12912139706E+00 -0.30052078691E+00  0.18019556437E+01  0.18314009614E+01  0.51100000000E-03 0. -1.
    9000002    1    1    2    0    0  0.69693565335E-01  0.23633922801E+00  0.74367247266E-01  0.97267050496E+00  0.93800000000E+00 0. -1.
         22    1    1    2    0    0 -0.19881496240E+00  0.64181558900E-01  0.21236770764E+01  0.21339285336E+01  0.00000000000E+00 0. -1.
</event>
<event>
 5    1  0.3454171E+002  0.1593303E+01  0.7818608E-02  0.3360665E+00
         11   -1    0    0    0    0  0.00000000000E+00  0.00000000000E+00  0.39999999674E+01  0.40000000000E+01  0.51100000000E-03 0. -1.
    9000002   -1    0    0    0    0 -0.00000000000E+00 -0.00000000000E+00  0.00000000000E+00  0.93800000000E+00  0.93800000000E+00 0. -1.
         11    1    1    2    0    0 -0.27558713206E-01 -0.12391380843E+00  0.20986084300E+01  0.21024442247E+01  0.51100000000E-03 0. -1.
    9000002    1    1    2    0    0  0.22784319083E+00  0.19571278922E+00  0.65192974336E-01  0.98707149659E+00  0.93800000000E+00 0. -1.
         22    1    1    2    0    0 -0.20028447762E+00 -0.71798980792E-01  0.18361985631E+01  0.18484842787E+01  0.00000000000E+00 0. -1.
</event>
<event>
 5    1  0.3454171E+002  0.1588399E+01  0.7818608E-02  0.3366051E+00
         11   -1    0    0    0    0  0.00000000000E+00  0.00000000000E+00  0.39999999674E+01  0.40000000000E+01  0.51100000000E-03 0. -1.
    9000002   -1    0    0    0    0 -0.00000000000E+00 -0.00000000000E+00  0.00000000000E+00  0.93800000000E+00  0.93800000000E+00 0. -1.
         11    1    1    2    0    0 -0.37523799134E-01 -0.43112402908E-01  0.22045794764E+01  0.22053203041E+01  0.51100000000E-03 0. -1.
    9000002    1    1    2    0    0  0.20491642073E+00 -0.10470370404E+00  0.43721742870E-01  0.96680359739E+00  0.93800000000E+00 0. -1.
         22    1    1    2    0    0 -0.16739262160E+00  0.14781610694E+00  0.17516987481E+01  0.17658760985E+01  0.00000000000E+00 0. -1.
</event>
<event>
 5    1  0.3454171E+002  0.1598827E+01  0.7818608E-02  0.3354637E+00
         11   -1    0    0    0    0  0.00000000000E+00  0.00000000000E+00  0.39999999674E+01  0.40000000000E+01  0.51100000000E-03 0.  1.
    9000002   -1    0    0    0    0 -0.00000000000E+00 -0.00000000000E+00  0.00000000000E+00  0.93800000000E+00  0.93800000000E+00 0.  1.
         11    1    1    2    0    0  0.14634951487E+00  0.77957673322E-01  0.20838467137E+01  0.20904336791E+01  0.51100000000E-03 0.  1.
    9000002    1    1    2    0    0 -0.33459886757E+00 -0.17230044302E+00  0.95957896031E-01  0.10152318763E+01  0.93800000000E+00 0.  1.
         22    1    1    2    0    0  0.18824935271E+00  0.94342769701E-01  0.18201953577E+01  0.18323344446E+01  0.00000000000E+00 0.  1.
</event>
<event>
 5    1  0.3454171E+002  0.1589769E+01  0.7818608E-02  0.3364543E+00
         11   -1    0    0    0    0  0.00000000000E+00  0.00000000000E+00  0.39999999674E+01  0.40000000000E+01  0.51100000000E-03 0.  1.
    9000002   -1    0    0    0    0 -0.00000000000E+00 -0.00000000000E+00  0.00000000000E+00  0.93800000000E+00  0.93800000000E+00 0.  1.
         11    1    1    2    0    0  0.89926223976E-02 -0.55591743453E-01  0.20828026134E+00  0.21575967553E+00  0.51100000000E-03 0.  1.
    9000002    1    1    2    0    0 -0.21855033461E+00  0.33349869447E-01  0.39921042902E-01  0.96452794268E+00  0.93800000000E+00 0.  1.
         22    1    1    2    0    0  0.20955771221E+00  0.22241874005E-01  0.37517986631E+01  0.37577123818E+01  0.00000000000E+00 0.  1.
</event>
<event>
 5    1  0.3454171E+002  0.1599542E+01  0.7818608E-02  0.3353861E+00
         11   -1    0    0    0    0  0.00000000000E+00  0.00000000000E+00  0.39999999674E+01  0.40000000000E+01  0.51100000000E-03 0.  1.
    9000002   -1    0    0    0    0 -0.00000000000E+00 -0.00000000000E+00  0.00000000000E+00  0.93800000000E+00  0.93800000000E+00 0. -1.
         11    1    1    2    0    0 -0.24104881850E-01 -0.39210121308E-01  0.57086470290E+00  0.57271742516E+00  0.51100000000E-03 0.  1.
    9000002    1    1    2    0    0  0.14263338339E+00  0.20810621397E+00  0.42394591085E-01  0.97226219699E+00  0.93800000000E+00 0. -1.
         22    1    1    2    0    0 -0.11852850154E+00 -0.16889609267E+00  0.33867406734E+01  0.33930203778E+01  0.00000000000E+00 0.  1.
</event>
<event>
 5    1  0.3454171E+002  0.1599675E+01  0.7818608E-02  0.3353716E+00
         11   -1    0    0    0    0  0.00000000000E+00  0.00000000000E+00  0.39999999674E+01  0.40000000000E+01  0.51100000000E-03 0.  1.
    9000002   -1    0    0    0    0 -0.00000000000E+00 -0.00000000000E+00  0.00000000000E+00  0.93800000000E+00  0.93800000000E+00 0. -1.
         11    1    1    2    0    0  0.40150572003E-01  0.11345835436E+00  0.13904808747E+01  0.13956798309E+01  0.51100000000E-03 0.  1.
    9000002    1    1    2    0    0 -0.11193654601E+00 -0.32427156111E+00  0.78848620736E-01  0.10018697224E+01  0.93800000000E+00 0. -1.
         22    1    1    2    0    0  0.71785974002E-01  0.21081320674E+00  0.25306704720E+01  0.25404504466E+01  0.00000000000E+00 0.  1.
</event>
<event>
 5    1  0.3454171E+002  0.1599672E+01  0.7818608E-02  0.3353720E+00
         11   -1    0    0    0    0  0.00000000000E+00  0.00000000000E+00  0.39999999674E+01  0.40000000000E+01  0.51100000000E-03 0. -1.
    9000002   -1    0    0    0    0 -0.00000000000E+00 -0.00000000000E+00  0.00000000000E+00  0.93800000000E+00  0.93800000000E+00 0. -1.
         11    1    1    2    0    0  0.12751459153E-01  0.39940937073E-01  0.40211113078E+00  0.40429135631E+00  0.51100000000E-03 0. -1.
    9000002    1    1    2    0    0 -0.10823402180E+00 -0.38230924060E+00  0.10645794115E+00  0.10242325186E+01  0.93800000000E+00 0. -1.
         22    1    1    2    0    0  0.95482562648E-01  0.34236830353E+00  0.34914308954E+01  0.35094761251E+01  0.00000000000E+00 0. -1.
</event>
<event>
 5    1  0.3454171E+002  0.1599676E+01  0.7818608E-02  0.3353715E+00
         11   -1    0    0    0    0  0.00000000000E+00  0.00000000000E+00  0.39999999674E+01  0.40000000000E+01  0.51100000000E-03 0.  1.
    9000002   -1    0    0    0    0 -0.00000000000E+00 -0.00000000000E+00  0.00000000000E+00  0.93800000000E+00  0.93800000000E+00 0. -1.
         11    1    1    2    0    0  0.20734988399E-01  0.20837663721E-01  0.47895079736E+00  0.47985234749E+00  0.51100000000E-03 0.  1.
    9000002    1    1    2    0    0 -0.17530641611E+00 -0.17199061553E+00  0.40052457520E-01  0.97044387304E+00  0.93800000000E+00 0. -1.
         22    1    1    2    0    0  0.15457142771E+00  0.15115295181E+00  0.34809967125E+01  0.34877037795E+01  0.00000000000E+00 0.  1.
</event>
<event>
 5    1  0.3454171E+002  0.1561449E+01  0.7818608E-02  0.3396299E+00
         11   -1    0    0    0    0  0.00000000000E+00  0.00000000000E+00  0.39999999674E+01  0.40000000000E+01  0.51100000000E-03 0. -1.
    9000002   -1    0    0    0    0 -0.00000000000E+00 -0.00000000000E+00  0.00000000000E+00  0.93800000000E+00  0.93800000000E+00 0.  1.
         11    1    1    2    0    0  0.17108467321E+00 -0.99174423238E-01  0.23293655488E+01  0.23377445653E+01  0.51100000000E-03 0. -1.
    9000002    1    1    2    0    0  0.85797041486E-01  0.52513734915E-01  0.35118878816E-01  0.94403186404E+00  0.93800000000E+00 0.  1.
         22    1    1    2    0    0 -0.25688171470E+00  0.46660688323E-01  0.16355155398E+01  0.16562235706E+01  0.00000000000E+00 0. -1.
</event>
<event>
 5    1  0.3454171E+002  0.1599012E+01  0.7818608E-02  0.3354436E+00
         11   -1    0    0    0    0  0.00000000000E+00  0.00000000000E+00  0.39999999674E+01  0.40000000000E+01  0.51100000000E-03 0. -1.
    9000002   -1    0    0    0    0 -0.00000000000E+00 -0.00000000000E+00  0.00000000000E+00  0.93800000000E+00  0.93800000000E+00 0. -1.
         11    1    1    2    0    0  0.12646544467E+00  0.23724720209E-01  0.15088450335E+01  0.15143216195E+01  0.51100000000E-03 0. -1.
    9000002    1    1    2    0    0 -0.37268030415E+00 -0.12445976132E+00  0.10458996447E+00  0.10223325789E+01  0.93800000000E+00 0. -1.
         22    1    1    2    0    0  0.24621485949E+00  0.10073504111E+00  0.23865649694E+01  0.24013458016E+01  0.00000000000E+00 0. -1.
</event>
<event>
 5    1  0.3454171E+002  0.1598606E+01  0.7818608E-02  0.3354878E+00
         11   -1    0    0    0    0  0.00000000000E+00  0.00000000000E+00  0.39999999674E+01  0.40000000000E+01  0.51100000000E-03 0.  1.
    9000002   -1    0    0    0    0 -0.00000000000E+00 -0.00000000000E+00  0.00000000000E+00  0.93800000000E+00  0.93800000000E+00 0. -1.
         11    1    1    2    0    0  0.10853900336E+00  0.40933020351E-01  0.12514118909E+01  0.12567769131E+01  0.51100000000E-03 0.  1.
    9000002    1    1    2    0    0 -0.34186578452E+00 -0.13234640285E-01  0.79272896629E-01  0.10015865227E+01  0.93800000000E+00 0. -1.
         22    1    1    2    0    0  0.23332678117E+00 -0.27698380066E-01  0.26693151798E+01  0.26796365642E+01  0.00000000000E+00 0.  1.
</event>
<event>
 5    1  0.3454171E+002  0.1599558E+01  0.7818608E-02  0.3353844E+00
         11   -1    0    0    0    0  0.00000000000E+00  0.00000000000E+00  0.39999999674E+01  0.40000000000E+01  0.51100000000E-03 0.  1.
    9000002   -1    0    0    0    0 -0.00000000000E+00 -0.00000000000E+00  0.00000000000E+00  0.93800000000E+00  0.93800000000E+00 0. -1.
         11    1    1    2    0    0  0.89462390698E-01  0.50576824402E+00  0.21839562077E+01  0.22435396173E+01  0.51100000000E-03 0.  1.
    9000002    1    1    2    0    0 -0.13126612211E+00 -0.79785560142E+00  0.48318014779E+00  0.13293274280E+01  0.93800000000E+00 0. -1.
         22    1    1    2    0    0  0.41803731410E-01  0.29208735740E+00  0.13328636119E+01  0.13651329547E+01  0.00000000000E+00 0. -1.
</event>
<event>
 5    1  0.3454171E+002  0.1599674E+01  0.7818608E-02  0.3353717E+00
         11   -1    0    0    0    0  0.00000000000E+00  0.00000000000E+00  0.39999999674E+01  0.40000000000E+01  0.51100000000E-03 0.  1.
    9000002   -1    0    0    0    0 -0.00000000000E+00 -0.00000000000E+00  0.00000000000E+00  0.93800000000E+00  0.93800000000E+00 0.  1.
         11    1    1    2    0    0 -0.12442320984E-01  0.62221082757E-01  0.51257507668E+00  0.51648789419E+00  0.51100000000E-03 0.  1.
    9000002    1    1    2    0    0  0.84188796840E-01 -0.46318001572E+00  0.15100044306E+00  0.10603153372E+01  0.93800000000E+00 0.  1.
         22    1    1    2    0    0 -0.71746475857E-01  0.40095893296E+00  0.33364244476E+01  0.33611967686E+01  0.00000000000E+00 0.  1.
</event>
<event>
 5    1  0.3454171E+002  0.1599676E+01  0.7818608E-02  0.3353715E+00
         11   -1    0    0    0    0  0.00000000000E+00  0.00000000000E+00  0.39999999674E+01  0.40000000000E+01  0.51100000000E-03 0.  1.
    9000002   -1    0    0    0    0 -0.00000000000E+00 -0.00000000000E+00  0.00000000000E+00  0.93800000000E+00  0.93800000000E+00 0.  1.
         11    1    1    2    0    0  0.55220117248E-01  0.34116407114E-01  0.95615299628E+00  0.95835379897E+00  0.51100000000E-03 0.  1.
    9000002    1    1    2    0    0 -0.22470860246E+00 -0.14422210141E+00  0.47424860319E-01  0.97641542795E+00  0.93800000000E+00 0.  1.
         22    1    1    2    0    0  0.16948848522E+00  0.11010569430E+00  0.29964221108E+01  0.30032307731E+01  0.00000000000E+00 0.  1.
</event>
<event>
 5    1  0.3454171E+002  0.1587166E+01  0.7818608E-02  0.3367412E+00
         11   -1    0    0    0    0  0.00000000000E+00  0.00000000000E+00  0.39999999674E+01  0.40000000000E+01  0.51100000000E-03 0. -1.
    9000002   -1    0    0    0    0 -0.00000000000E+00 -0.00000000000E+00  0.00000000000E+00  0.93800000000E+00  0.93800000000E+00 0. -1.
         11    1    1    2    0    0  0.11134232245E+00 -0.98728531357E-01  0.25796804479E+01  0.25839690227E+01  0.51100000000E-03 0. -1.
    9000002    1    1    2    0    0 -0.33780177390E+00  0.23703607247E+00  0.12563845385E+00  0.10324365158E+01  0.93800000000E+00 0. -1.
         22    1    1    2    0    0  0.22645945145E+00 -0.13830754111E+00  0.12946810656E+01  0.13215944615E+01  0.00000000000E+00 0. -1.
</event>
<event>
 5    1  0.3454171E+002  0.1533828E+01  0.7818608E-02  0.3428472E+00
         11   -1    0    0    0    0  0.00000000000E+00  0.00000000000E+00  0.39999999674E+01  0.40000000000E+01  0.51100000000E-03 0. -1.
    9000002   -1    0    0    0    0 -0.00000000000E+00 -0.00000000000E+00  0.00000000000E+00  0.93800000000E+00  0.93800000000E+00 0. -1.
         11    1    1    2    0    0 -0.33945877548E+00 -0.58715636966E-01  0.30601612506E+01  0.30794913423E+01  0.51100000000E-03 0. -1.
    9000002    1    1    2    0    0  0.16624137000E+00 -0.11434792644E+00  0.78067769863E-01  0.96262672832E+00  0.93800000000E+00 0. -1.
         22    1    1    2    0    0  0.17321740549E+00  0.17306356341E+00  0.86177094690E+00  0.89588192942E+00  0.00000000000E+00 0.  1.
</event>
<event>
 5    1  0.3454171E+002  0.1599676E+01  0.7818608E-02  0.3353715E+00
         11   -1    0    0    0    0  0.00000000000E+00  0.00000000000E+00  0.39999999674E+01  0.40000000000E+01  0.51100000000E-03 0.  1.
    9000002   -1    0    0    0    0 -0.00000000000E+00 -0.00000000000E+00  0.00000000000E+00  0.93800000000E+00  0.93800000000E+00 0.  1.
         11    1    1    2    0    0  0.65658669649E-02  0.11193247615E+00  0.94560062655E+00  0.95222518128E+00  0.51100000000E-03 0.  1.
    9000002    1    1    2    0    0 -0.28078441487E-01 -0.45396969596E+00  0.14060896625E+00  0.10518991231E+01  0.93800000000E+00 0.  1.
         22    1    1    2    0    0  0.21512574522E-01  0.34203721981E+00  0.29137903746E+01  0.29338756956E+01  0.00000000000E+00 0.  1.
</event>
<event>
 5    1  0.3454171E+002  0.1577040E+01  0.7818608E-02  0.3378666E+00
         11   -1    0    0    0    0  0.00000000000E+00  0.00000000000E+00  0.39999999674E+01  0.40000000000E+01  0.51100000000E-03 0.  1.
    9000002   -1    0    0    0    0 -0.00000000000E+00 -0.00000000000E+00  0.00000000000E+00  0.93800000000E+00  0.93800000000E+00 0.  1.
         11    1    1    2    0    0  0.11940323473E+00  0.45580442501E-01  0.88397673878E+00  0.89316843038E+00  0.51100000000E-03 0.  1.
    9000002    1    1    2    0    0  0.93712504010E-01  0.42361573512E-01  0.23692287583E-01  0.94391835495E+00  0.93800000000E+00 0.  1.
         22    1    1    2    0    0 -0.21311573874E+00 -0.87942016013E-01  0.30923309410E+01  0.31009132147E+01  0.00000000000E+00 0.  1.
</event>
<event>
 5    1  0.3454171E+002  0.1599666E+01  0.7818608E-02  0.3353726E+00
         11   -1    0    0    0    0  0.00000000000E+00  0.00000000000E+00  0.39999999674E+01  0.40000000000E+01  0.51100000000E-03 0.  1.
    9000002   -1    0    0    0    0 -0.00000000000E+00 -0.00000000000E+00  0.00000000000E+00  0.93800000000E+00  0.93800000000E+00 0.  1.
         11    1    1    2    0    0  0.62876250148E-01 -0.44980663710E-01  0.10667920000E+01  0.10695896948E+01  0.51100000000E-03 0.  1.
    9000002    1    1    2    0    0 -0.24394767080E+00  0.17217728427E+00  0.59477569756E-01  0.98617293849E+00  0.93800000000E+00 0.  1.
         22    1    1    2    0    0  0.18107142065E+00 -0.12719662056E+00  0.28737303976E+01  0.28822373667E+01  0.00000000000E+00 0.  1.
</event>
<event>
 5    1  0.3454171E+002  0.1575438E+01  0.7818608E-02  0.3380462E+00
         11   -1    0    0    0    0  0.00000000000E+00  0.00000000000E+00  0.39999999674E+01  0.40000000000E+01  0.51100000000E-03 0. -1.
    9000002   -1    0    0    0    0 -0.00000000000E+00 -0.00000000000E+00  0.00000000000E+00  0.93800000000E+00  0.93800000000E+00 0.  1.
         11    1    1    2    0    0  0.82583121552E-01 -0.73083911334E-01  0.27572236301E+01  0.27594281360E+01  0.51100000000E-03 0. -1.
    9000002    1    1    2    0    0 -0.16946650824E+00 -0.13722639177E+00  0.50027845797E-01  0.96431154995E+00  0.93800000000E+00 0.  1.
         22    1    1    2    0    0  0.86883386684E-01  0.21031030310E+00  0.11927484914E+01  0.12142603140E+01  0.00000000000E+00 0. -1.
</event>
<event>
 5    1  0.3454171E+002  0.1496579E+01  0.7818608E-02  0.3473877E+00
         11   -1    0    0    0    0  0.00000000000E+00  0.00000000000E+00  0.39999999674E+01  0.40000000000E+01  0.51100000000E-03 0. -1.
    9000002   -1    0    0    0    0 -0.00000000000E+00 -0.00000000000E+00  0.00000000000E+00  0.93800000000E+00  0.93800000000E+00 0. -1.
         11    1    1    2    0    0  0.99608939341E-01 -0.18114976295E+00  0.26904303922E+00  0.33929573456E+00  0.51100000000E-03 0. -1.
    9000002    1    1    2    0    0 -0.10026435017E+00 -0.41355963962E-01  0.87318599022E-01  0.94827833119E+00  0.93800000000E+00 0. -1.
         22    1    1    2    0    0  0.65541082614E-03  0.22250572691E+00  0.36436383291E+01  0.36504259343E+01  0.00000000000E+00 0. -1.
</event>
<event>
 5    1  0.3454171E+002  0.1597746E+01  0.7818608E-02  0.3355814E+00
         11   -1    0    0    0    0  0.00000000000E+00  0.00000000000E+00  0.39999999674E+01  0.40000000000E+01  0.51100000000E-03 0.  1.
    9000002   -1    0    0    0    0 -0.00000000000E+00 -0.00000000000E+00  0.00000000000E+00  0.93800000000E+00  0.93800000000E+00 0. -1.
         11    1    1    2    0    0 -0.64161189236E-01 -0.15037014899E-01  0.44657771060E+00  0.45141409232E+00  0.51100000000E-03 0.  1.
    9000002    1    1    2    0    0  0.33180717986E+00 -0.52359889231E-01  0.77087384483E-01  0.99931177690E+00  0.93800000000E+00 0. -1.
         22    1    1    2    0    0 -0.26764599062E+00  0.67396904130E-01  0.34763348723E+01  0.34872741308E+01  0.00000000000E+00 0.  1.
</event>
<event>
 5    1  0.3454171E+002  0.1597203E+01  0.7818608E-02  0.3356405E+00
         11   -1    0    0    0    0  0.00000000000E+00  0.00000000000E+00  0.39999999674E+01  0.40000000000E+01  0.51100000000E-03 0. -1.
    9000002   -1    0    0    0    0 -0.00000000000E+00 -0.00000000000E+00  0.00000000000E+00  0.93800000000E+00  0.93800000000E+00 0. -1.
         11    1    1    2    0    0 -0.12496438276E+00 -0.90802498942E-02  0.14072948074E+01  0.14128614525E+01  0.51100000000E-03 0. -1.
    9000002    1    1    2    0    0  0.47876820263E+00  0.10152835446E+00  0.16589359250E+00  0.10709302884E+01  0.93800000000E+00 0. -1.
         22    1    1    2    0    0 -0.35380381987E+00 -0.92448104567E-01  0.24268115674E+01  0.24542082591E+01  0.00000000000E+00 0. -1.
</event>
<event>
 5    1  0.3454171E+002  0.1554224E+01  0.7818608E-02  0.3404597E+00
         11   -1    0    0    0    0  0.00000000000E+00  0.00000000000E+00  0.39999999674E+01  0.40000000000E+01  0.51100000000E-03 0.  1.
    9000002   -1    0    0    0    0 -0.00000000000E+00 -0.00000000000E+00  0.00000000000E+00  0.93800000000E+00  0.93800000000E+00 0.  1.
         11    1    1    2    0    0 -0.15711098024E+00 -0.12321803212E+00  0.79665557340E+00  0.82129587074E+00  0.51100000000E-03 0.  1.
    9000002    1    1    2    0    0 -0.87594753398E-01  0.65825418162E-01  0.41924180412E-01  0.94530813146E+00  0.93800000000E+00 0.  1.
         22    1    1    2    0    0  0.24470573364E+00  0.57392613958E-01  0.31614202136E+01  0.31713959978E+01  0.00000000000E+00 0.  1.
</event>
<event>
 5    1  0.3454171E+002  0.1597632E+01  0.7818608E-02  0.3355937E+00
         11   -1    0    0    0    0  0.00000000000E+00  0.00000000000E+00  0.39999999674E+01  0.40000000000E+01  0.51100000000E-03 0. -1.
    9000002   -1    0    0    0    0 -0.00000000000E+00 -0.00000000000E+00  0.00000000000E+00  0.93800000000E+00  0.93800000000E+00 0. -1.
         11    1    1    2    0    0  0.48009386606E-01  0.22475692213E-01  0.71609707590E+00  0.71805664204E+00  0.51100000000E-03 0. -1.
    9000002    1    1    2    0    0 -0.84208381887E-01 -0.26836732173E+00  0.54274850973E-01  0.98076594068E+00  0.93800000000E+00 0. -1.
         22    1    1    2    0    0  0.36198995281E-01  0.24589162951E+00  0.32296280405E+01  0.32391774173E+01  0.00000000000E+00 0. -1.
</event>
<event>
 5    1  0.3454171E+002  0.1599527E+01  0.7818608E-02  0.3353877E+00
         11   -1    0    0    0    0  0.00000000000E+00  0.00000000000E+00  0.39999999674E+01  0.40000000000E+01  0.51100000000E-03 0. -1.
    9000002   -1    0    0    0    0 -0.00000000000E+00 -0.00000000000E+00  0.00000000000E+00  0.93800000000E+00  0.93800000000E+00 0.  1.
         11    1    1    2    0    0 -0.51221361692E-01 -0.31315076704E-01  0.49351053049E+00  0.49714903877E+00  0.51100000000E-03 0. -1.
    9000002    1    1    2    0    0  0.44153805441E+00  0.17991898194E+00  0.15516285467E+00  0.10636005853E+01  0.93800000000E+00 0.  1.
         22    1    1    2    0    0 -0.39031669271E+00 -0.14860390523E+00  0.33513265822E+01  0.33772503759E+01  0.00000000000E+00 0. -1.
</event>
<event>
 5    1  0.3454171E+002  0.1599664E+01  0.7818608E-02  0.3353728E+00
         11   -1    0    0    0    0  0.00000000000E+00  0.00000000000E+00  0.39999999674E+01  0.40000000000E+01  0.51100000000E-03 0. -1.
    9000002   -1    0    0    0    0 -0.00000000000E+00 -0.00000000000E+00  0.00000000000E+00  0.93800000000E+00  0.93800000000E+00 0.  1.
         11    1    1    2    0    0 -0.56936072063E-03  0.79157135864E-03  0.16890645809E-01  0.16926482024E-01  0.51100000000E-03 0.  1.
    9000002    1    1    2    0    0  0.17021137765E+00 -0.13814843385E+00  0.31863337482E-01  0.96380297527E+00  0.93800000000E+00 0.  1.
         22    1    1    2    0    0 -0.16964201693E+00  0.13735686249E+00  0.39512459841E+01  0.39572705427E+01  0.00000000000E+00 0. -1.
</event>
<event>
 5    1  0.3454171E+002  0.1599676E+01  0.7818608E-02  0.3353715E+00
         11   -1    0    0    0    0  0.00000000000E+00  0.00000000000E+00  0.39999999674E+01  0.40000000000E+01  0.51100000000E-03 0. -1.
    9000002   -1    0    0    0    0 -0.00000000000E+00 -0.00000000000E+00  0.00000000000E+00  0.93800000000E+00  0.93800000000E+00 0. -1.
         11    1    1    2    0    0  0.29743035194E-02 -0.81520595427E-02  0.15257298737E+00  0.15282041798E+00  0.51100000000E-03 0.  1.
    9000002    1    1    2    0    0 -0.77825923173E-01  0.20903055770E+00  0.32985425927E-01  0.96471896773E+00  0.93800000000E+00 0. -1.
         22    1    1    2    0    0  0.74851619653E-01 -0.20087849815E+00  0.38144415541E+01  0.38204606143E+01  0.00000000000E+00 0. -1.
</event>
<event>
 5    1  0.3654420E+002  0.1560499E+01  0.7818608E-02  0.3397385E+00
         11   -1    0    0    0    0  0.00000000000E+00  0.00000000000E+00  0.39999999674E+01  0.40000000000E+01  0.51100000000E-03 0.  1.
    9000002   -1    0    0    0    0 -0.00000000000E+00 -0.00000000000E+00  0.00000000000E+00  0.93800000000E+00  0.93800000000E+00 0. -1.
         11    1    1    2    0    0  0.13785628850E+00 -0.16625665615E+00  0.15037795161E+01  0.15192099019E+01  0.51100000000E-03 0.  1.
    9000002    1    1    2    0    0 -0.14912023167E-01 -0.61523112135E-01  0.31651914937E-01  0.94066641562E+00  0.93800000000E+00 0. -1.
         22    1    1    2    0    0 -0.12294426533E+00  0.22777976828E+00  0.24645685364E+01  0.24781236825E+01  0.00000000000E+00 0.  1.
</event>
<event>
 5    1  0.3454171E+002  0.1599472E+01  0.7818608E-02  0.3353936E+00
         11   -1    0    0    0    0  0.00000000000E+00  0.00000000000E+00  0.39999999674E+01  0.40000000000E+01  0.51100000000E-03 0.  1.
    9000002   -1    0    0    0    0 -0.00000000000E+00 -0.00000000000E+00  0.00000000000E+00  0.93800000000E+00  0.93800000000E+00 0.  1.
         11    1    1    2    0    0  0.18270778325E-01 -0.12830342602E-01  0.21722095527E+00  0.21836584797E+00  0.51100000000E-03 0.  1.
    9000002    1    1    2    0    0 -0.31175350146E+00  0.91117409848E-01  0.70707652699E-01  0.99515636972E+00  0.93800000000E+00 0.  1.
         22    1    1    2    0    0  0.29348272313E+00 -0.78287067246E-01  0.37120713594E+01  0.37244777823E+01  0.00000000000E+00 0.  1.
</event>
<event>
 5    1  0.3454171E+002  0.1599158E+01  0.7818608E-02  0.3354278E+00
         11   -1    0    0    0    0  0.00000000000E+00  0.00000000000E+00  0.39999999674E+01  0.40000000000E+01  0.51100000000E-03 0. -1.
    9000002   -1    0    0    0    0 -0.00000000000E+00 -0.00000000000E+00  0.00000000000E+00  0.93800000000E+00  0.93800000000E+00 0. -1.
         11    1    1    2    0    0  0.38021927949E-01  0.92068022903E-01  0.14669755953E+01  0.14703536467E+01  0.51100000000E-03 0. -1.
    9000002    1    1    2    0    0 -0.16668253691E+00 -0.27605638904E+00  0.69935591930E-01  0.99434661213E+00  0.93800000000E+00 0. -1.
         22    1    1    2    0    0  0.12866060896E+00  0.18398836614E+00  0.24630887801E+01  0.24732997412E+01  0.00000000000E+00 0. -1.
</event>
<event>
 5    1  0.3454171E+002  0.1598688E+01  0.7818608E-02  0.3354789E+00
         11   -1    0    0    0    0  0.00000000000E+00  0.00000000000E+00  0.39999999674E+01  0.40000000000E+01  0.51100000000E-03 0.  1.
    9000002   -1    0    0    0    0 -0.00000000000E+00 -0.00000000000E+00  0.00000000000E+00  0.93800000000E+00  0.93800000000E+00 0. -1.
         11    1    1    2    0    0  0.16746581685E-01  0.88296389553E-03  0.20947327108E+00  0.21014409352E+00  0.51100000000E-03 0.  1.
    9000002    1    1    2    0    0 -0.10804980964E+00  0.22634405745E+00  0.42547485192E-01  0.97188511780E+00  0.93800000000E+00 0. -1.
         22    1    1    2    0    0  0.91303227958E-01 -0.22722702135E+00  0.37479792111E+01  0.37559707887E+01  0.00000000000E+00 0.  1.
</event>
<event>
 5    1  0.3454171E+002  0.1596926E+01  0.7818608E-02  0.3356707E+00
         11   -1    0    0    0    0  0.00000000000E+00  0.00000000000E+00  0.39999999674E+01  0.40000000000E+01  0.51100000000E-03 0.  1.
    9000002   -1    0    0    0    0 -0.00000000000E+00 -0.00000000000E+00  0.00000000000E+00  0.93800000000E+00  0.93800000000E+00 0. -1.
         11    1    1    2    0    0 -0.36867493791E-02 -0.43287894646E-01  0.50184522230E+00  0.50372246546E+00  0.51100000000E-03 0.  1.
    9000002    1    1    2    0    0 -0.19557843707E+00  0.98155534428E-01  0.33817603480E-01  0.96378061004E+00  0.93800000000E+00 0. -1.
         22    1    1    2    0    0  0.19926518645E+00 -0.54867639781E-01  0.34643371416E+01  0.34704969245E+01  0.00000000000E+00 0.  1.
</event>
<event>
 5    1  0.3454171E+002  0.1565269E+01  0.7818608E-02  0.3391943E+00
         11   -1    0    0    0    0  0.00000000000E+00  0.00000000000E+00  0.39999999674E+01  0.40000000000E+01  0.51100000000E-03 0. -1.
    9000002   -1    0    0    0    0 -0.00000000000E+00 -0.00000000000E+00  0.00000000000E+00  0.93800000000E+00  0.93800000000E+00 0. -1.
         11    1    1    2    0    0 -0.17614471481E+00  0.18069440836E-01  0.96354982712E+00  0.97968464095E+00  0.51100000000E-03 0. -1.
    9000002    1    1    2    0    0 -0.47891842627E-01  0.83478552386E-01  0.31640951833E-01  0.94345505835E+00  0.93800000000E+00 0. -1.
         22    1    1    2    0    0  0.22403655744E+00 -0.10154799322E+00  0.30048091884E+01  0.30148603007E+01  0.00000000000E+00 0. -1.
</event>
<event>
 5    1  0.3454171E+002  0.1574204E+01  0.7818608E-02  0.3381846E+00
         11   -1    0    0    0    0  0.00000000000E+00  0.00000000000E+00  0.39999999674E+01  0.40000000000E+01  0.51100000000E-03 0. -1.
    9000002   -1    0    0    0    0 -0.00000000000E+00 -0.00000000000E+00  0.00000000000E+00  0.93800000000E+00  0.93800000000E+00 0. -1.
         11    1    1    2    0    0 -0.48200789363E-01 -0.55615608085E-01  0.91785016658E-01  0.11764846944E+00  0.51100000000E-03 0. -1.
    9000002    1    1    2    0    0  0.11182050245E+00  0.45766482798E+00  0.17397151901E+00  0.10639882560E+01  0.93800000000E+00 0. -1.
         22    1    1    2    0    0 -0.63619713085E-01 -0.40204921989E+00  0.37342434317E+01  0.37563632745E+01  0.00000000000E+00 0. -1.
</event>
<event>
 5    1  0.3454171E+002  0.1597896E+01  0.7818608E-02  0.3355650E+00
         11   -1    0    0    0    0  0.00000000000E+00  0.00000000000E+00  0.39999999674E+01  0.40000000000E+01  0.51100000000E-03 0.  1.
    9000002   -1    0    0    0    0 -0.00000000000E+00 -0.00000000000E+00  0.00000000000E+00  0.93800000000E+00  0.93800000000E+00 0. -1.
         11    1    1    2    0    0  0.68065697541E-01 -0.39973604229E-01  0.14968157863E+01  0.14988957894E+01  0.51100000000E-03 0.  1.
    9000002    1    1    2    0    0 -0.26964463327E+00  0.11524602824E-01  0.49839265734E-01  0.97732747691E+00  0.93800000000E+00 0. -1.
         22    1    1    2    0    0  0.20157893573E+00  0.28449001405E-01  0.24533449153E+01  0.24617767336E+01  0.00000000000E+00 0.  1.
</event>
<event>
 5    1  0.3454171E+002  0.1599616E+01  0.7818608E-02  0.3353780E+00
         11   -1    0    0    0    0  0.00000000000E+00  0.00000000000E+00  0.39999999674E+01  0.40000000000E+01  0.51100000000E-03 0. -1.
    9000002   -1    0    0    0    0 -0.00000000000E+00 -0.00000000000E+00  0.00000000000E+00  0.93800000000E+00  0.93800000000E+00 0.  1.
         11    1    1    2    0    0  0.15980165527E+00  0.13340790484E+00  0.15344752618E+01  0.15485311841E+01  0.51100000000E-03 0. -1.
    9000002    1    1    2    0    0 -0.40304735116E+00 -0.30988755968E+00  0.17725029728E+00  0.10815447909E+01  0.93800000000E+00 0.  1.
         22    1    1    2    0    0  0.24324569589E+00  0.17647965484E+00  0.22882744083E+01  0.23079240249E+01  0.00000000000E+00 0. -1.
</event>
<event>
 5    1  0.3454171E+002  0.1599655E+01  0.7818608E-02  0.3353737E+00
         11   -1    0    0    0    0  0.00000000000E+00  0.00000000000E+00  0.39999999674E+01  0.40000000000E+01  0.51100000000E-03 0. -1.
    9000002   -1    0    0    0    0 -0.00000000000E+00 -0.00000000000E+00  0.00000000000E+00  0.93800000000E+00  0.93800000000E+00 0. -1.
         11    1    1    2    0    0  0.69873694206E-01 -0.36375662293E-01  0.56460760222E+00  0.57007677339E+00  0.51100000000E-03 0. -1.
    9000002    1    1    2    0    0 -0.45238758623E+00  0.22921821224E+00  0.17629751324E+00  0.10807961557E+01  0.93800000000E+00 0. -1.
         22    1    1    2    0    0  0.38251389203E+00 -0.19284254995E+00  0.32590948519E+01  0.32871270709E+01  0.00000000000E+00 0.  1.
</event>
<event>
 5    1  0.3454171E+002  0.1599600E+01  0.7818608E-02  0.3353797E+00
         11   -1    0    0    0    0  0.00000000000E+00  0.00000000000E+00  0.39999999674E+01  0.40000000000E+01  0.51100000000E-03 0. -1.
    9000002   -1    0    0    0    0 -0.00000000000E+00 -0.00000000000E+00  0.00000000000E+00  0.93800000000E+00  0.93800000000E+00 0. -1.
         11    1    1    2    0    0 -0.26355688112E-02 -0.79668347767E-02  0.11198864386E+00  0.11230375841E+00  0.51100000000E-03 0. -1.
    9000002    1    1    2    0    0  0.14075954703E+00  0.16936945852E+00  0.32206579636E-01  0.96404384098E+00  0.93800000000E+00 0. -1.
         22    1    1    2    0    0 -0.13812397822E+00 -0.16140262374E+00  0.38558047439E+01  0.38616524006E+01  0.00000000000E+00 0. -1.
</event>
<event>
 5    1  0.3454171E+002  0.1599674E+01  0.7818608E-02  0.3353717E+00
         11   -1    0    0    0    0  0.00000000000E+00  0.00000000000E+00  0.39999999674E+01  0.40000000000E+01  0.51100000000E-03 0.  1.
    9000002   -1    0    0    0    0 -0.00000000000E+00 -0.00000000000E+00  0.00000000000E+00  0.93800000000E+00  0.93800000000E+00 0. -1.
         11    1    1    2    0    0  0.40680252727E-01 -0.18267308544E+00  0.14207895289E+01  0.14330622756E+01  0.51100000000E-03 0.  1.
    9000002    1    1    2    0    0 -0.10738288747E+00  0.49610494605E+00  0.17660613408E+00  0.10810573198E+01  0.93800000000E+00 0. -1.
         22    1    1    2    0    0  0.66702634742E-01 -0.31343186061E+00  0.24026043044E+01  0.24238804047E+01  0.00000000000E+00 0.  1.
</event>
<event>
 5    1  0.3454171E+002  0.1554964E+01  0.7818608E-02  0.3403743E+00
         11   -1    0    0    0    0  0.00000000000E+00  0.00000000000E+00  0.39999999674E+01  0.40000000000E+01  0.51100000000E-03 0.  1.
    9000002   -1    0    0    0    0 -0.00000000000E+00 -0.00000000000E+00  0.00000000000E+00  0.93800000000E+00  0.93800000000E+00 0.  1.
         11    1    1    2    0    0  0.94442235023E-02  0.24768987772E-01 -0.45270824816E-02  0.26897057638E-01  0.51100000000E-03 0.  1.
    9000002    1    1    2    0    0  0.15345319755E+00  0.13019467856E+00  0.61117978625E-01  0.96128973024E+00  0.93800000000E+00 0.  1.
         22    1    1    2    0    0 -0.16289742105E+00 -0.15496366633E+00  0.39434090712E+01  0.39498132121E+01  0.00000000000E+00 0.  1.
</event>
<event>
 5    1  0.3454171E+002  0.1599423E+01  0.7818608E-02  0.3353990E+00
         11   -1    0    0    0    0  0.00000000000E+00  0.00000000000E+00  0.39999999674E+01  0.40000000000E+01  0.51100000000E-03 0. -1.
    9000002   -1    0    0    0    0 -0.00000000000E+00 -0.00000000000E+00  0.00000000000E+00  0.93800000000E+00  0.93800000000E+00 0.  1.
         11    1    1    2    0    0  0.48536659924E-01  0.65173229297E-01  0.70695293940E+00  0.71160809215E+00  0.51100000000E-03 0. -1.
    9000002    1    1    2    0    0 -0.30967749452E+00 -0.28878970408E+00  0.12153337323E+00  0.10362982218E+01  0.93800000000E+00 0.  1.
         22    1    1    2    0    0  0.26114083459E+00  0.22361647479E+00  0.31715136547E+01  0.31900936860E+01  0.00000000000E+00 0. -1.
</event>
<event>
 5    1  0.3454171E+002  0.1599519E+01  0.7818608E-02  0.3353886E+00
         11   -1    0    0    0    0  0.00000000000E+00  0.00000000000E+00  0.39999999674E+01  0.40000000000E+01  0.51100000000E-03 0. -1.
    9000002   -1    0    0    0    0 -0.00000000000E+00 -0.00000000000E+00  0.00000000000E+00  0.93800000000E+00  0.93800000000E+00 0.  1.
         11    1    1    2    0    0  0.38752135181E-02  0.70402731719E-01  0.93611213512E+00  0.93876394933E+00  0.51100000000E-03 0. -1.
    9000002    1    1    2    0    0 -0.61633273042E-01 -0.26698652941E+00  0.50094098644E-01  0.97848550625E+00  0.93800000000E+00 0.  1.
         22    1    1    2    0    0  0.57758059524E-01  0.19658379769E+00  0.30137937336E+01  0.30207505444E+01  0.00000000000E+00 0. -1.
</event>
<event>
 5    1  0.3454171E+002  0.1599349E+01  0.7818608E-02  0.3354070E+00
         11   -1    0    0    0    0  0.00000000000E+00  0.00000000000E+00  0.39999999674E+01  0.40000000000E+01  0.51100000000E-03 0.  1.
    9000002   -1    0    0    0    0 -0.00000000000E+00 -0.00000000000E+00  0.00000000000E+00  0.93800000000E+00  0.93800000000E+00 0. -1.
         11    1    1    2    0    0  0.94107728795E-02  0.11533468595E-01  0.12552805114E+00  0.12640860844E+00  0.51100000000E-03 0.  1.
    9000002    1    1    2    0    0 -0.18837656939E+00 -0.14857793731E+00  0.38457913100E-01  0.96896034306E+00  0.93800000000E+00 0. -1.
         22    1    1    2    0    0  0.17896579651E+00  0.13704446872E+00  0.38360140031E+01  0.38426310485E+01  0.00000000000E+00 0.  1.
</event>
<event>
 5    1  0.3454171E+002  0.1599677E+01  0.7818608E-02  0.3353714E+00
         11   -1    0    0    0    0  0.00000000000E+00  0.00000000000E+00  0.39999999674E+01  0.40000000000E+01  0.51100000000E-03 0.  1.
    9000002   -1    0    0    0    0 -0.00000000000E+00 -0.00000000000E+00  0.00000000000E+00  0.93800000000E+00  0.93800000000E+00 0.  1.
         11    1    1    2    0    0 -0.88531874720E-01 -0.91392819407E-02  0.99194520984E+00  0.99593020828E+00  0.51100000000E-03 0.  1.
    9000002    1    1    2    0    0  0.34849492281E+00  0.36769794934E-01  0.82343190445E-01  0.10047015129E+01  0.93800000000E+00 0.  1.
         22    1    1    2    0    0 -0.25996304809E+00 -0.27630512993E-01  0.29257115671E+01  0.29373682788E+01  0.00000000000E+00 0.  1.
</event>
<event>
 5    1  0.3454171E+002  0.1599676E+01  0.7818608E-02  0.3353715E+00
         11   -1    0    0    0    0  0.00000000000E+00  0.00000000000E+00  0.39999999674E+01  0.40000000000E+01  0.51100000000E-03 0. -1.
    9000002   -1    0    0    0    0 -0.00000000000E+00 -0.00000000000E+00  0.00000000000E+00  0.93800000000E+00  0.93800000000E+00 0. -1.
         11    1    1    2    0    0  0.14193514485E+00 -0.44519053222E-02  0.98572665631E+00  0.99590296058E+00  0.51100000000E-03 0. -1.
    9000002    1    1    2    0    0 -0.54710575459E+00  0.21047955862E-01  0.20695326007E+00  0.11056407079E+01  0.93800000000E+00 0. -1.
         22    1    1    2    0    0  0.40517060974E+00 -0.16596050539E-01  0.28073200510E+01  0.28364563315E+01  0.00000000000E+00 0. -1.
</event>
<event>
 5    1  0.3454171E+002  0.1599667E+01  0.7818608E-02  0.3353725E+00
         11   -1    0    0    0    0  0.00000000000E+00  0.00000000000E+00  0.39999999674E+01  0.40000000000E+01  0.51100000000E-03 0.  1.
    9000002   -1    0    0    0    0 -0.00000000000E+00 -0.00000000000E+00  0.00000000000E+00  0.93800000000E+00  0.93800000000E+00 0.  1.
         11    1    1    2    0    0  0.56786233029E-01  0.70192099012E-01  0.11751042666E+01  0.11785677348E+01  0.51100000000E-03 0.  1.
    9000002    1    1    2    0    0 -0.18296574642E+00 -0.22662318684E+00  0.56556686730E-01  0.98380749743E+00  0.93800000000E+00 0.  1.
         22    1    1    2    0    0  0.12617951339E+00  0.15643108783E+00  0.27683390140E+01  0.27756247677E+01  0.00000000000E+00 0.  1.
</event>
<event>
 5    1  0.3454171E+002  0.1490969E+01  0.7818608E-02  0.3480926E+00
         11   -1    0    0    0    0  0.00000000000E+00  0.00000000000E+00  0.39999999674E+01  0.40000000000E+01  0.51100000000E-03 0. -1.
    9000002   -1    0    0    0    0 -0.00000000000E+00 -0.00000000000E+00  0.00000000000E+00  0.93800000000E+00  0.93800000000E+00 0.  1.
         11    1    1    2    0    0 -0.22973627086E+00  0.28022218730E+00  0.10918434411E+01  0.11504023598E+01  0.51100000000E-03 0. -1.
    9000002    1    1    2    0    0 -0.20475018155E+00 -0.23031968544E+00  0.15439719251E+00  0.99932591651E+00  0.93800000000E+00 0.  1.
         22    1    1    2    0    0  0.43448645241E+00 -0.49902501860E-01  0.27537593338E+01  0.27882717237E+01  0.00000000000E+00 0. -1.
</event>
<event>
 5    1  0.3454171E+002  0.1553684E+01  0.7818608E-02  0.3405220E+00
         11   -1    0    0    0    0  0.00000000000E+00  0.00000000000E+00  0.39999999674E+01  0.40000000000E+01  0.51100000000E-03 0.  1.
    9000002   -1    0    0    0    0 -0.00000000000E+00 -0.00000000000E+00  0.00000000000E+00  0.93800000000E+00  0.93800000000E+00 0.  1.
         11    1    1    2    0    0  0.22577436899E+00  0.13697815802E+00  0.24387281360E+01  0.24529843587E+01  0.51100000000E-03 0.  1.
    9000002    1    1    2    0    0  0.24357682143E-01 -0.10678982237E+00  0.42331501826E-01  0.94532180705E+00  0.93800000000E+00 0.  1.
         22    1    1    2    0    0 -0.25013205113E+00 -0.30188335653E-01  0.15189403296E+01  0.15396938343E+01  0.00000000000E+00 0.  1.
</event>
<event>
 5    1  0.3454171E+002  0.1596985E+01  0.7818608E-02  0.3356642E+00
         11   -1    0    0    0    0  0.00000000000E+00  0.00000000000E+00  0.39999999674E+01  0.40000000000E+01  0.51100000000E-03 0. -1.
    9000002   -1    0    0    0    0 -0.00000000000E+00 -0.00000000000E+00  0.00000000000E+00  0.93800000000E+00  0.93800000000E+00 0. -1.
         11    1    1    2    0    0  0.24751295988E-01 -0.53818610185E-01  0.67314909940E+00  0.67575072371E+00  0.51100000000E-03 0. -1.
    9000002    1    1    2    0    0 -0.26107684081E+00  0.65828591772E-01  0.50309432844E-01  0.97717427276E+00  0.93800000000E+00 0. -1.
         22    1    1    2    0    0  0.23632554482E+00 -0.12009981588E-01  0.32765414351E+01  0.32850750035E+01  0.00000000000E+00 0. -1.
</event>
<event>
 5    1  0.3454171E+002  0.1599675E+01  0.7818608E-02  0.3353717E+00
         11   -1    0    0    0    0  0.00000000000E+00  0.00000000000E+00  0.39999999674E+01  0.40000000000E+01  0.51100000000E-03 0. -1.
    9000002   -1    0    0    0    0 -0.00000000000E+00 -0.00000000000E+00  0.00000000000E+00  0.93800000000E+00  0.93800000000E+00 0.  1.
         11    1    1    2    0    0  0.26358076730E-01 -0.57649705122E-02  0.44469691002E+00  0.44551496720E+00  0.51100000000E-03 0. -1.
    9000002    1    1    2    0    0 -0.22982638550E+00  0.59824413094E-01  0.37432262601E-01  0.96832035100E+00  0.93800000000E+00 0.  1.
         22    1    1    2    0    0  0.20346830877E+00 -0.54059442581E-01  0.35178707947E+01  0.35241646818E+01  0.00000000000E+00 0. -1.
</event>
<event>
 5    1  0.3454171E+002  0.1536473E+01  0.7818608E-02  0.3425338E+00
         11   -1    0    0    0    0  0.00000000000E+00  0.00000000000E+00  0.39999999674E+01  0.40000000000E+01  0.51100000000E-03 0. -1.
    9000002   -1    0    0    0    0 -0.00000000000E+00 -0.00000000000E+00  0.00000000000E+00  0.93800000000E+00  0.93800000000E+00 0. -1.
         11    1    1    2    0    0  0.35508396023E+00  0.21935677841E+00  0.18248106768E+01  0.18719338349E+01  0.51100000000E-03 0. -1.
    9000002    1    1    2    0    0 -0.13488069414E+00 -0.29479809359E+00  0.12221649046E+00  0.99993979228E+00  0.93800000000E+00 0. -1.
         22    1    1    2    0    0 -0.22020326608E+00  0.75441315180E-01  0.20529728001E+01  0.20661263728E+01  0.00000000000E+00 0. -1.
</event>
<event>
 5    1  0.3454171E+002  0.1529051E+01  0.7818608E-02  0.3434162E+00
         11   -1    0    0    0    0  0.00000000000E+00  0.00000000000E+00  0.39999999674E+01  0.40000000000E+01  0.51100000000E-03 0. -1.
    9000002   -1    0    0    0    0 -0.00000000000E+00 -0.00000000000E+00  0.00000000000E+00  0.93800000000E+00  0.93800000000E+00 0. -1.
         11    1    1    2    0    0 -0.18895099921E+00  0.23492333756E+00  0.23245195485E+01  0.23439886619E+01  0.51100000000E-03 0. -1.
    9000002    1    1    2    0    0  0.39964619743E-01  0.55878543416E-01  0.56304584216E-01  0.94219625803E+00  0.93800000000E+00 0. -1.
         22    1    1    2    0    0  0.14898637947E+00 -0.29080188098E+00  0.16191758346E+01  0.16518150801E+01  0.00000000000E+00 0. -1.
</event>
<event>
 5    1  0.3454171E+002  0.1599238E+01  0.7818608E-02  0.3354191E+00
         11   -1    0    0    0    0  0.00000000000E+00  0.00000000000E+00  0.39999999674E+01  0.40000000000E+01  0.51100000000E-03 0.  1.
    9000002   -1    0    0    0    0 -0.00000000000E+00 -0.00000000000E+00  0.00000000000E+00  0.93800000000E+00  0.93800000000E+00 0.  1.
         11    1    1    2    0    0 -0.23722995255E-01  0.23630430906E-01  0.63291338306E+00  0.63379869781E+00  0.51100000000E-03 0.  1.
    9000002    1    1    2    0    0  0.16963916598E+00 -0.26019941473E+00  0.64774523477E-01  0.99021256352E+00  0.93800000000E+00 0.  1.
         22    1    1    2    0    0 -0.14591617072E+00  0.23656898382E+00  0.33023120608E+01  0.33139887387E+01  0.00000000000E+00 0. -1.
</event>
<event>
 5    1  0.3454171E+002  0.1599659E+01  0.7818608E-02  0.3353733E+00
         11   -1    0    0    0    0  0.00000000000E+00  0.00000000000E+00  0.39999999674E+01  0.40000000000E+01  0.51100000000E-03 0.  1.
    9000002   -1    0    0    0    0 -0.00000000000E+00 -0.00000000000E+00  0.00000000000E+00  0.93800000000E+00  0.93800000000E+00 0.  1.
         11    1    1    2    0    0 -0.48109551644E-02  0.28037372078E-02  0.12396748249E+00  0.12409352952E+00  0.51100000000E-03 0.  1.
    9000002    1    1    2    0    0  0.20753212380E+00 -0.83325400447E-01  0.33172893039E-01  0.96486120536E+00  0.93800000000E+00 0.  1.
         22    1    1    2    0    0 -0.20272116864E+00  0.80521663240E-01  0.38428595918E+01  0.38490452651E+01  0.00000000000E+00 0.  1.
</event>
<event>
 5    1  0.3454171E+002  0.1599655E+01  0.7818608E-02  0.3353737E+00
         11   -1    0    0    0    0  0.00000000000E+00  0.00000000000E+00  0.39999999674E+01  0.40000000000E+01  0.51100000000E-03 0. -1.
    9000002   -1    0    0    0    0 -0.00000000000E+00 -0.00000000000E+00  0.00000000000E+00  0.93800000000E+00  0.93800000000E+00 0.  1.
         11    1    1    2    0    0 -0.28340865141E-01  0.50378989390E-01  0.61250659706E+00  0.61522828265E+00  0.51100000000E-03 0. -1.
    9000002    1    1    2    0    0  0.16785986253E+00 -0.30028361806E+00  0.79318496912E-01  0.10022387982E+01  0.93800000000E+00 0.  1.
         22    1    1    2    0    0 -0.13951899739E+00  0.24990462867E+00  0.33081748734E+01  0.33205329191E+01  0.00000000000E+00 0. -1.
</event>
<event>
 5    1  0.3454171E+002  0.1599676E+01  0.7818608E-02  0.3353715E+00
         11   -1    0    0    0    0  0.00000000000E+00  0.00000000000E+00  0.39999999674E+01  0.40000000000E+01  0.51100000000E-03 0. -1.
    9000002   -1    0    0    0    0 -0.00000000000E+00 -0.00000000000E+00  0.00000000000E+00  0.93800000000E+00  0.93800000000E+00 0. -1.
         11    1    1    2    0    0 -0.30063603940E-01 -0.40649628122E-01  0.53890180085E+00  0.54126853282E+00  0.51100000000E-03 0. -1.
    9000002    1    1    2    0    0  0.22043775787E+00  0.29022134621E+00  0.89204106183E-01  0.10102586834E+01  0.93800000000E+00 0. -1.
         22    1    1    2    0    0 -0.19037415393E+00 -0.24957171809E+00  0.33718940603E+01  0.33864727837E+01  0.00000000000E+00 0. -1.
</event>
<event>
 5    1  0.3454171E+002  0.1456703E+01  0.7818608E-02  0.3525265E+00
         11   -1    0    0    0    0  0.00000000000E+00  0.00000000000E+00  0.39999999674E+01  0.40000000000E+01  0.51100000000E-03 0.  1.
    9000002   -1    0    0    0    0 -0.00000000000E+00 -0.00000000000E+00  0.00000000000E+00  0.93800000000E+00  0.93800000000E+00 0. -1.
         11    1    1    2    0    0  0.32581892045E+00 -0.10784963871E+00  0.79255494700E+00  0.86367419704E+00  0.51100000000E-03 0.  1.
    9000002    1    1    2    0    0  0.34935848385E-01 -0.27584518791E+00  0.17177308959E+00  0.99330814730E+00  0.93800000000E+00 0. -1.
         22    1    1    2    0    0 -0.36075476884E+00  0.38369482662E+00  0.30356719308E+01  0.30810176557E+01  0.00000000000E+00 0.  1.
</event>
<event>
 5    1  0.3454171E+002  0.1599671E+01  0.7818608E-02  0.3353720E+00
         11   -1    0    0    0    0  0.00000000000E+00  0.00000000000E+00  0.39999999674E+01  0.40000000000E+01  0.51100000000E-03 0. -1.
    9000002   -1    0    0    0    0 -0.00000000000E+00 -0.00000000000E+00  0.00000000000E+00  0.93800000000E+00  0.93800000000E+00 0. -1.
         11    1    1    2    0    0 -0.12310869266E+00  0.21666296489E-01  0.13647519896E+01  0.13704646778E+01  0.51100000000E-03 0. -1.
    9000002    1    1    2    0    0  0.35257971098E+00 -0.69866094264E-01  0.86721788264E-01  0.10082452044E+01  0.93800000000E+00 0. -1.
         22    1    1    2    0    0 -0.22947101833E+00  0.48199797775E-01  0.25485261895E+01  0.25592901178E+01  0.00000000000E+00 0. -1.
</event>
<event>
 5    1  0.3454171E+002  0.1595038E+01  0.7818608E-02  0.3358767E+00
         11   -1    0    0    0    0  0.00000000000E+00  0.00000000000E+00  0.39999999674E+01  0.40000000000E+01  0.51100000000E-03 0.  1.
    9000002   -1    0    0    0    0 -0.00000000000E+00 -0.00000000000E+00  0.00000000000E+00  0.93800000000E+00  0.93800000000E+00 0.  1.
         11    1    1    2    0    0  0.41136528991E-02 -0.47062057074E-01  0.19031043068E+00  0.19608692079E+00  0.51100000000E-03 0.  1.
    9000002    1    1    2    0    0 -0.48800340105E-01  0.24206550382E+00  0.44045895169E-01  0.97095891891E+00  0.93800000000E+00 0.  1.
         22    1    1    2    0    0  0.44686687205E-01 -0.19500344675E+00  0.37656436415E+01  0.37709541603E+01  0.00000000000E+00 0.  1.
</event>
<event>
 5    1  0.3454171E+002  0.1599613E+01  0.7818608E-02  0.3353783E+00
         11   -1    0    0    0    0  0.00000000000E+00  0.00000000000E+00  0.39999999674E+01  0.40000000000E+01  0.51100000000E-03 0.  1.
    9000002   -1    0    0    0    0 -0.00000000000E+00 -0.00000000000E+00  0.00000000000E+00  0.93800000000E+00  0.93800000000E+00 0.  1.
         11    1    1    2    0    0  0.77619988327E-01 -0.28275069461E+00  0.23041246287E+01  0.23227060476E+01  0.51100000000E-03 0.  1.
    9000002    1    1    2    0    0 -0.13964165606E+00  0.48128527768E+00  0.17200634267E+00  0.10772954528E+01  0.93800000000E+00 0.  1.
         22    1    1    2    0    0  0.62021667734E-01 -0.19853458307E+00  0.15238689960E+01  0.15379984996E+01  0.00000000000E+00 0. -1.
</event>
<event>
 5    1  0.3454171E+002  0.1597449E+01  0.7818608E-02  0.3356137E+00
         11   -1    0    0    0    0  0.00000000000E+00  0.00000000000E+00  0.39999999674E+01  0.40000000000E+01  0.51100000000E-03 0.  1.
    9000002   -1    0    0    0    0 -0.00000000000E+00 -0.00000000000E+00  0.00000000000E+00  0.93800000000E+00  0.93800000000E+00 0. -1.
         11    1    1    2    0    0  0.15576736470E+00  0.18749608734E-01  0.11333716910E+01  0.11441794750E+01  0.51100000000E-03 0.  1.
    9000002    1    1    2    0    0 -0.35995626140E+00 -0.42562363533E-01  0.90025468847E-01  0.10096180713E+01  0.93800000000E+00 0. -1.
         22    1    1    2    0    0  0.20418889670E+00  0.23812754799E-01  0.27766028075E+01  0.27842024537E+01  0.00000000000E+00 0. -1.
</event>
<event>
 5    1  0.3454171E+002  0.1595292E+01  0.7818608E-02  0.3358490E+00
         11   -1    0    0    0    0  0.00000000000E+00  0.00000000000E+00  0.39999999674E+01  0.40000000000E+01  0.51100000000E-03 0. -1.
    9000002   -1    0    0    0    0 -0.00000000000E+00 -0.00000000000E+00  0.00000000000E+00  0.93800000000E+00  0.93800000000E+00 0. -1.
         11    1    1    2    0    0  0.14759606423E-01  0.11576666224E+00  0.91901206813E+00  0.92639257799E+00  0.51100000000E-03 0. -1.
    9000002    1    1    2    0    0  0.15466915831E+00 -0.30460992560E+00  0.81705355812E-01  0.10016134586E+01  0.93800000000E+00 0. -1.
         22    1    1    2    0    0 -0.16942876474E+00  0.18884326336E+00  0.29992825434E+01  0.30099939634E+01  0.00000000000E+00 0. -1.
</event>
<event>
 5    1  0.3454171E+002  0.1599666E+01  0.7818608E-02  0.3353726E+00
         11   -1    0    0    0    0  0.00000000000E+00  0.00000000000E+00  0.39999999674E+01  0.40000000000E+01  0.51100000000E-03 0.  1.
    9000002   -1    0    0    0    0 -0.00000000000E+00 -0.00000000000E+00  0.00000000000E+00  0.93800000000E+00  0.93800000000E+00 0.  1.
         11    1    1    2    0    0  0.27414512428E-01  0.11295776066E-01  0.43983956875E+00  0.44083813062E+00  0.51100000000E-03 0.  1.
    9000002    1    1    2    0    0 -0.23360224865E+00 -0.12010210695E+00  0.45886740188E-01  0.97516363734E+00  0.93800000000E+00 0.  1.
         22    1    1    2    0    0  0.20618773622E+00  0.10880633089E+00  0.35142736584E+01  0.35219982320E+01  0.00000000000E+00 0.  1.
</event>
<event>
 5    1  0.3454171E+002  0.1594654E+01  0.7818608E-02  0.3359186E+00
         11   -1    0    0    0    0  0.00000000000E+00  0.00000000000E+00  0.39999999674E+01  0.40000000000E+01  0.51100000000E-03 0. -1.
    9000002   -1    0    0    0    0 -0.00000000000E+00 -0.00000000000E+00  0.00000000000E+00  0.93800000000E+00  0.93800000000E+00 0. -1.
         11    1    1    2    0    0  0.32637478694E-01 -0.15647869218E+00  0.82356228946E+00  0.83893139878E+00  0.51100000000E-03 0. -1.
    9000002    1    1    2    0    0 -0.28184522428E+00  0.42555348602E+00  0.18324636790E+00  0.10834923771E+01  0.93800000000E+00 0. -1.
         22    1    1    2    0    0  0.24920774558E+00 -0.26907479384E+00  0.29931913100E+01  0.30155762241E+01  0.00000000000E+00 0. -1.
</event>
<event>
 5    1  0.3454171E+002  0.1599648E+01  0.7818608E-02  0.3353745E+00
         11   -1    0    0    0    0  0.00000000000E+00  0.00000000000E+00  0.39999999674E+01  0.40000000000E+01  0.51100000000E-03 0.  1.
    9000002   -1    0    0    0    0 -0.00000000000E+00 -0.00000000000E+00  0.00000000000E+00  0.93800000000E+00  0.93800000000E+00 0.  1.
         11    1    1    2    0    0 -0.11817613444E+00  0.45236223812E-01  0.12758547297E+01  0.12821144517E+01  0.51100000000E-03 0.  1.
    9000002    1    1    2    0    0  0.37543474219E+00 -0.12698624204E+00  0.10592546118E+00  0.10237875535E+01  0.93800000000E+00 0.  1.
         22    1    1    2    0    0 -0.25725860775E+00  0.81750018225E-01  0.26182197765E+01  0.26320979949E+01  0.00000000000E+00 0.  1.
</event>
<event>
 5    1  0.3454171E+002  0.1588451E+01  0.7818608E-02  0.3365995E+00
         11   -1    0    0    0    0  0.00000000000E+00  0.00000000000E+00  0.39999999674E+01  0.40000000000E+01  0.51100000000E-03 0. -1.
    9000002   -1    0    0    0    0 -0.00000000000E+00 -0.00000000000E+00  0.00000000000E+00  0.93800000000E+00  0.93800000000E+00 0. -1.
         11    1    1    2    0    0 -0.24350197633E+00 -0.18561480924E+00  0.13404435484E+01  0.13749673587E+01  0.51100000000E-03 0. -1.
    9000002    1    1    2    0    0  0.54063562029E+00  0.20553226886E+00  0.24334072052E+00  0.11285340463E+01  0.93800000000E+00 0. -1.
         22    1    1    2    0    0 -0.29713364396E+00 -0.19917459619E-01  0.24162156984E+01  0.24344985949E+01  0.00000000000E+00 0. -1.
</event>
<event>
 5    1  0.3454171E+002  0.1599673E+01  0.7818608E-02  0.3353718E+00
         11   -1    0    0    0    0  0.00000000000E+00  0.00000000000E+00  0.39999999674E+01  0.40000000000E+01  0.51100000000E-03 0. -1.
    9000002   -1    0    0    0    0 -0.00000000000E+00 -0.00000000000E+00  0.00000000000E+00  0.93800000000E+00  0.93800000000E+00 0. -1.
         11    1    1    2    0    0  0.96537448232E-01 -0.54316544784E-01  0.10405807684E+01  0.10464599192E+01  0.51100000000E-03 0. -1.
    9000002    1    1    2    0    0 -0.35803477029E+00  0.21036134286E+00  0.11655129852E+00  0.10324093164E+01  0.93800000000E+00 0. -1.
         22    1    1    2    0    0  0.26149732206E+00 -0.15604479808E+00  0.28428679005E+01  0.28591307644E+01  0.00000000000E+00 0. -1.
</event>
<event>
 5    1  0.3454171E+002  0.1576134E+01  0.7818608E-02  0.3379682E+00
         11   -1    0    0    0    0  0.00000000000E+00  0.00000000000E+00  0.39999999674E+01  0.40000000000E+01  0.51100000000E-03 0. -1.
    9000002   -1    0    0    0    0 -0.00000000000E+00 -0.00000000000E+00  0.00000000000E+00  0.93800000000E+00  0.93800000000E+00 0.  1.
         11    1    1    2    0    0 -0.57556890683E-01  0.71714311684E-01  0.17809220151E+00  0.20043161309E+00  0.51100000000E-03 0. -1.
    9000002    1    1    2    0    0  0.86838107150E-01 -0.28107107298E+00  0.76306302399E-01  0.98600631677E+00  0.93800000000E+00 0.  1.
         22    1    1    2    0    0 -0.29281216467E-01  0.20935676130E+00  0.37456014635E+01  0.37515620701E+01  0.00000000000E+00 0. -1.
</event>
<event>
 5    1  0.3454171E+002  0.1599675E+01  0.7818608E-02  0.3353716E+00
         11   -1    0    0    0    0  0.00000000000E+00  0.00000000000E+00  0.39999999674E+01  0.40000000000E+01  0.51100000000E-03 0. -1.
    9000002   -1    0    0    0    0 -0.00000000000E+00 -0.00000000000E+00  0.00000000000E+00  0.93800000000E+00  0.93800000000E+00 0.  1.
         11    1    1    2    0    0  0.21462105452E+00 -0.14531858752E+00  0.17445164118E+01  0.17636659153E+01  0.51100000000E-03 0. -1.
    9000002    1    1    2    0    0 -0.46274297180E+00  0.31701035190E+00  0.21777111657E+00  0.11144033742E+01  0.93800000000E+00 0.  1.
         22    1    1    2    0    0  0.24812191729E+00 -0.17169176438E+00  0.20377124390E+01  0.20599307105E+01  0.00000000000E+00 0. -1.
</event>
<event>
 5    1  0.3454171E+002  0.1599510E+01  0.7818608E-02  0.3353895E+00
         11   -1    0    0    0    0  0.00000000000E+00  0.00000000000E+00  0.39999999674E+01  0.40000000000E+01  0.51100000000E-03 0. -1.
    9000002   -1    0    0    0    0 -0.00000000000E+00 -0.00000000000E+00  0.00000000000E+00  0.93800000000E+00  0.93800000000E+00 0. -1.
         11    1    1    2    0    0  0.31820642595E-01 -0.18367813867E+00  0.18032213926E+01  0.18128314494E+01  0.51100000000E-03 0. -1.
    9000002    1    1    2    0    0 -0.10039354670E+00  0.38581451483E+00  0.10732289104E+00  0.10248384785E+01  0.93800000000E+00 0. -1.
         22    1    1    2    0    0  0.68572904104E-01 -0.20213637616E+00  0.20894556837E+01  0.21003300721E+01  0.00000000000E+00 0. -1.
</event>
<event>
 5    1  0.3454171E+002  0.1597139E+01  0.7818608E-02  0.3356475E+00
         11   -1    0    0    0    0  0.00000000000E+00  0.00000000000E+00  0.39999999674E+01  0.40000000000E+01  0.51100000000E-03 0.  1.
    9000002   -1    0    0    0    0 -0.00000000000E+00 -0.00000000000E+00  0.00000000000E+00  0.93800000000E+00  0.93800000000E+00 0.  1.
         11    1    1    2    0    0  0.10646598236E+00 -0.51378660212E-01  0.72823706911E+00  0.73776978935E+00  0.51100000000E-03 0.  1.
    9000002    1    1    2    0    0 -0.33506692118E+00  0.38214203305E+00  0.17937630589E+00  0.10818143252E+01  0.93800000000E+00 0.  1.
         22    1    1    2    0    0  0.22860093881E+00 -0.33076337284E+00  0.30923865924E+01  0.31184158855E+01  0.00000000000E+00 0.  1.
</event>
<event>
 5    1  0.3454171E+002  0.1599676E+01  0.7818608E-02  0.3353715E+00
         11   -1    0    0    0    0  0.00000000000E+00  0.00000000000E+00  0.39999999674E+01  0.40000000000E+01  0.51100000000E-03 0.  1.
    9000002   -1    0    0    0    0 -0.00000000000E+00 -0.00000000000E+00  0.00000000000E+00  0.93800000000E+00  0.93800000000E+00 0.  1.
         11    1    1    2    0    0  0.47012822625E-01 -0.19755275019E+00  0.18476056079E+01  0.18587318359E+01  0.51100000000E-03 0.  1.
    9000002    1    1    2    0    0 -0.96356425974E-01  0.41619084269E+00  0.12354820274E+00  0.10380787719E+01  0.93800000000E+00 0.  1.
         22    1    1    2    0    0  0.49343603349E-01 -0.21863809250E+00  0.20288461567E+01  0.20411893921E+01  0.00000000000E+00 0.  1.
</event>
<event>
 5    1  0.3454171E+002  0.1599531E+01  0.7818608E-02  0.3353873E+00
         11   -1    0    0    0    0  0.00000000000E+00  0.00000000000E+00  0.39999999674E+01  0.40000000000E+01  0.51100000000E-03 0. -1.
    9000002   -1    0    0    0    0 -0.00000000000E+00 -0.00000000000E+00  0.00000000000E+00  0.93800000000E+00  0.93800000000E+00 0.  1.
         11    1    1    2    0    0 -0.61537889092E-02  0.14322950085E-01  0.21305904482E+00  0.21362919678E+00  0.51100000000E-03 0. -1.
    9000002    1    1    2    0    0  0.23188401577E+00 -0.28479607027E+00  0.90733644583E-01  0.10114126718E+01  0.93800000000E+00 0.  1.
         22    1    1    2    0    0 -0.22573022686E+00  0.27047312019E+00  0.36962072780E+01  0.37129581314E+01  0.00000000000E+00 0. -1.
</event>
<event>
 5    1  0.3454171E+002  0.1596412E+01  0.7818608E-02  0.3357267E+00
         11   -1    0    0    0    0  0.00000000000E+00  0.00000000000E+00  0.39999999674E+01  0.40000000000E+01  0.51100000000E-03 0.  1.
    9000002   -1    0    0    0    0 -0.00000000000E+00 -0.00000000000E+00  0.00000000000E+00  0.93800000000E+00  0.93800000000E+00 0. -1.
         11    1    1    2    0    0 -0.13143856513E-01 -0.58115268043E-01  0.14165984264E+01  0.14178510177E+01  0.51100000000E-03 0.  1.
    9000002    1    1    2    0    0 -0.12570905392E+00  0.24840595577E+00  0.54139077377E-01  0.97994047003E+00  0.93800000000E+00 0. -1.
         22    1    1    2    0    0  0.13885291044E+00 -0.19029068773E+00  0.25292624635E+01  0.25402085123E+01  0.00000000000E+00 0.  1.
</event>
<event>
 5    1  0.3454171E+002  0.1578853E+01  0.7818608E-02  0.3376640E+00
         11   -1    0    0    0    0  0.00000000000E+00  0.00000000000E+00  0.39999999674E+01  0.40000000000E+01  0.51100000000E-03 0.  1.
    9000002   -1    0    0    0    0 -0.00000000000E+00 -0.00000000000E+00  0.00000000000E+00  0.93800000000E+00  0.93800000000E+00 0. -1.
         11    1    1    2    0    0  0.59505947437E-01 -0.54332325108E-01  0.28642950178E+00  0.29754844974E+00  0.51100000000E-03 0.  1.
    9000002    1    1    2    0    0  0.20771894704E-01 -0.17193216627E+00  0.35458292329E-01  0.95451214340E+00  0.93800000000E+00 0. -1.
         22    1    1    2    0    0 -0.80277842141E-01  0.22626449138E+00  0.36781121733E+01  0.36859394069E+01  0.00000000000E+00 0.  1.
</event>
<event>
 5    1  0.3454171E+002  0.1599659E+01  0.7818608E-02  0.3353733E+00
         11   -1    0    0    0    0  0.00000000000E+00  0.00000000000E+00  0.39999999674E+01  0.40000000000E+01  0.51100000000E-03 0.  1.
    9000002   -1    0    0    0    0 -0.00000000000E+00 -0.00000000000E+00  0.00000000000E+00  0.93800000000E+00  0.93800000000E+00 0.  1.
         11    1    1    2    0    0 -0.25514244589E-02 -0.29210132846E-02  0.56432626826E-01  0.56568052617E-01  0.51100000000E-03 0.  1.
    9000002    1    1    2    0    0  0.19685388677E+00  0.13044424824E+00  0.37020913496E-01  0.96797815196E+00  0.93800000000E+00 0.  1.
         22    1    1    2    0    0 -0.19430246231E+00 -0.12752323495E+00  0.39065464270E+01  0.39134537954E+01  0.00000000000E+00 0.  1.
</event>
<event>
 5    1  0.3454171E+002  0.1599440E+01  0.7818608E-02  0.3353971E+00
         11   -1    0    0    0    0  0.00000000000E+00  0.00000000000E+00  0.39999999674E+01  0.40000000000E+01  0.51100000000E-03 0. -1.
    9000002   -1    0    0    0    0 -0.00000000000E+00 -0.00000000000E+00  0.00000000000E+00  0.93800000000E+00  0.93800000000E+00 0. -1.
         11    1    1    2    0    0 -0.20416897362E+00  0.42527690982E-02  0.13418261676E+01  0.13572769729E+01  0.51100000000E-03 0. -1.
    9000002    1    1    2    0    0  0.59057114212E+00  0.34068012171E-01  0.24394624873E+00  0.11354684829E+01  0.93800000000E+00 0. -1.
         22    1    1    2    0    0 -0.38640216850E+00 -0.38320781269E-01  0.24142275510E+01  0.24452545442E+01  0.00000000000E+00 0. -1.
</event>
<event>
 5    1  0.3454171E+002  0.1599677E+01  0.7818608E-02  0.3353714E+00
         11   -1    0    0    0    0  0.00000000000E+00  0.00000000000E+00  0.39999999674E+01  0.40000000000E+01  0.51100000000E-03 0. -1.
    9000002   -1    0    0    0    0 -0.00000000000E+00 -0.00000000000E+00  0.00000000000E+00  0.93800000000E+00  0.93800000000E+00 0.  1.
         11    1    1    2    0    0  0.38170789997E-01 -0.15361094300E+00  0.16274073338E+01  0.16350866100E+01  0.51100000000E-03 0. -1.
    9000002    1    1    2    0    0 -0.92950000868E-01  0.36957083914E+00  0.97724553223E-01  0.10171609490E+01  0.93800000000E+00 0.  1.
         22    1    1    2    0    0  0.54779210870E-01 -0.21595989614E+00  0.22748680804E+01  0.22857524410E+01  0.00000000000E+00 0. -1.
</event>
<event>
 5    1  0.3454171E+002  0.1599677E+01  0.7818608E-02  0.3353714E+00
         11   -1    0    0    0    0  0.00000000000E+00  0.00000000000E+00  0.39999999674E+01  0.40000000000E+01  0.51100000000E-03 0.  1.
    9000002   -1    0    0    0    0 -0.00000000000E+00 -0.00000000000E+00  0.00000000000E+00  0.93800000000E+00  0.93800000000E+00 0.  1.
         11    1    1    2    0    0  0.78500074556E-01 -0.57876887555E-01  0.12740285061E+01  0.12777561940E+01  0.51100000000E-03 0. -1.
    9000002    1    1    2    0    0 -0.24299751985E+00  0.17933953991E+00  0.60859057170E-01  0.98729848074E+00  0.93800000000E+00 0.  1.
         22    1    1    2    0    0  0.16449744530E+00 -0.12146265236E+00  0.26651124041E+01  0.26729453253E+01  0.00000000000E+00 0.  1.
</event>
<event>
 5    1  0.3454171E+002  0.1577284E+01  0.7818608E-02  0.3378394E+00
         11   -1    0    0    0    0  0.00000000000E+00  0.00000000000E+00  0.39999999674E+01  0.40000000000E+01  0.51100000000E-03 0.  1.
    9000002   -1    0    0    0    0 -0.00000000000E+00 -0.00000000000E+00  0.00000000000E+00  0.93800000000E+00  0.93800000000E+00 0. -1.
         11    1    1    2    0    0 -0.83607607395E-02  0.75949728404E-01  0.19905901498E+00  0.21322058093E+00  0.51100000000E-03 0.  1.
    9000002    1    1    2    0    0 -0.32189814170E+00  0.53103471930E-02  0.87244137716E-01  0.99554113576E+00  0.93800000000E+00 0. -1.
         22    1    1    2    0    0  0.33025890244E+00 -0.81260075597E-01  0.37136968147E+01  0.37292382833E+01  0.00000000000E+00 0.  1.
</event>
<event>
 5    1  0.3454171E+002  0.1538227E+01  0.7818608E-02  0.3423265E+00
         11   -1    0    0    0    0  0.00000000000E+00  0.00000000000E+00  0.39999999674E+01  0.40000000000E+01  0.51100000000E-03 0. -1.
    9000002   -1    0    0    0    0 -0.00000000000E+00 -0.00000000000E+00  0.00000000000E+00  0.93800000000E+00  0.93800000000E+00 0.  1.
         11    1    1    2    0    0  0.92366516734E-01  0.10672228211E+00  0.28075993346E+00  0.31424134080E+00  0.51100000000E-03 0. -1.
    9000002    1    1    2    0    0  0.11947423747E+00  0.18325234715E+00  0.79610912421E-01  0.96645611050E+00  0.93800000000E+00 0.  1.
         22    1    1    2    0    0 -0.21184075420E+00 -0.28997462926E+00  0.36396291215E+01  0.36573025487E+01  0.00000000000E+00 0. -1.
</event>
<event>
 5    1  0.3454171E+002  0.1599492E+01  0.7818608E-02  0.3353915E+00
         11   -1    0    0    0    0  0.00000000000E+00  0.00000000000E+00  0.39999999674E+01  0.40000000000E+01  0.51100000000E-03 0.  1.
    9000002   -1    0    0    0    0 -0.00000000000E+00 -0.00000000000E+00  0.00000000000E+00  0.93800000000E+00  0.93800000000E+00 0. -1.
         11    1    1    2    0    0 -0.43279153864E-01 -0.19961999808E-01  0.47376254974E+00  0.47615415703E+00  0.51100000000E-03 0.  1.
    9000002    1    1    2    0    0  0.32620888781E+00  0.82926831604E-01  0.75999613842E-01  0.99945437074E+00  0.93800000000E+00 0. -1.
         22    1    1    2    0    0 -0.28292973395E+00 -0.62964831796E-01  0.34502378038E+01  0.34623914722E+01  0.00000000000E+00 0.  1.
</event>
<event>
 5    1  0.3454171E+002  0.1599677E+01  0.7818608E-02  0.3353714E+00
         11   -1    0    0    0    0  0.00000000000E+00  0.00000000000E+00  0.39999999674E+01  0.40000000000E+01  0.51100000000E-03 0. -1.
    9000002   -1    0    0    0    0 -0.00000000000E+00 -0.00000000000E+00  0.00000000000E+00  0.93800000000E+00  0.93800000000E+00 0.  1.
         11    1    1    2    0    0  0.35008969934E+00  0.26722138759E-01  0.22904671369E+01  0.23172217928E+01  0.51100000000E-03 0. -1.
    9000002    1    1    2    0    0 -0.57546986150E+00 -0.43140894044E-01  0.23124724091E+00  0.11253203920E+01  0.93800000000E+00 0.  1.
         22    1    1    2    0    0  0.22538016216E+00  0.16418755285E-01  0.14782855895E+01  0.14954578152E+01  0.00000000000E+00 0.  1.
</event>
<event>
 5    1  0.3454171E+002  0.1467079E+01  0.7818608E-02  0.3511601E+00
         11   -1    0    0    0    0  0.00000000000E+00  0.00000000000E+00  0.39999999674E+01  0.40000000000E+01  0.51100000000E-03 0.  1.
    9000002   -1    0    0    0    0 -0.00000000000E+00 -0.00000000000E+00  0.00000000000E+00  0.93800000000E+00  0.93800000000E+00 0. -1.
         11    1    1    2    0    0  0.13833693394E+00 -0.44578270668E-01  0.57353348688E-01  0.15624979115E+00  0.51100000000E-03 0.  1.
    9000002    1    1    2    0    0 -0.17417667248E+00 -0.36576414930E+00  0.23127874088E+00  0.10475947605E+01  0.93800000000E+00 0. -1.
         22    1    1    2    0    0  0.35839738540E-01  0.41034241997E+00  0.37113678778E+01  0.37341554484E+01  0.00000000000E+00 0.  1.
</event>
<event>
 5    1  0.3454171E+002  0.1599673E+01  0.7818608E-02  0.3353718E+00
         11   -1    0    0    0    0  0.00000000000E+00  0.00000000000E+00  0.39999999674E+01  0.40000000000E+01  0.51100000000E-03 0.  1.
    9000002   -1    0    0    0    0 -0.00000000000E+00 -0.00000000000E+00  0.00000000000E+00  0.93800000000E+00  0.93800000000E+00 0.  1.
         11    1    1    2    0    0 -0.15077287225E+00 -0.39469744168E-03  0.11991237212E+01  0.12085655028E+01  0.51100000000E-03 0.  1.
    9000002    1    1    2    0    0  0.48508581749E+00 -0.53890104904E-02  0.16071047100E+00  0.10681802972E+01  0.93800000000E+00 0.  1.
         22    1    1    2    0    0 -0.33431294524E+00  0.57837079321E-02  0.26401657752E+01  0.26612542000E+01  0.00000000000E+00 0. -1.
</event>
<event>
 5    1  0.3454171E+002  0.1599618E+01  0.7818608E-02  0.3353778E+00
         11   -1    0    0    0    0  0.00000000000E+00  0.00000000000E+00  0.39999999674E+01  0.40000000000E+01  0.51100000000E-03 0. -1.
    9000002   -1    0    0    0    0 -0.00000000000E+00 -0.00000000000E+00  0.00000000000E+00  0.93800000000E+00  0.93800000000E+00 0. -1.
         11    1    1    2    0    0  0.28686216086E-01 -0.20753117269E-01  0.27749003382E+00  0.27974018456E+00  0.51100000000E-03 0. -1.
    9000002    1    1    2    0    0 -0.42221298492E+00  0.22625924773E+00  0.15659055044E+00  0.10648106180E+01  0.93800000000E+00 0. -1.
         22    1    1    2    0    0  0.39352676884E+00 -0.20550613046E+00  0.35659193831E+01  0.35934491974E+01  0.00000000000E+00 0. -1.
</event>
<event>
 5    1  0.3454171E+002  0.1599667E+01  0.7818608E-02  0.3353725E+00
         11   -1    0    0    0    0  0.00000000000E+00  0.00000000000E+00  0.39999999674E+01  0.40000000000E+01  0.51100000000E-03 0.  1.
    9000002   -1    0    0    0    0 -0.00000000000E+00 -0.00000000000E+00  0.00000000000E+00  0.93800000000E+00  0.93800000000E+00 0. -1.
         11    1    1    2    0    0 -0.63093976934E-02  0.72287632349E-03  0.94993878970E-01  0.95207296003E-01  0.51100000000E-03 0. -1.
    9000002    1    1    2    0    0  0.25927131336E+00 -0.73690213673E-01  0.48344812878E-01  0.97715560811E+00  0.93800000000E+00 0. -1.
         22    1    1    2    0    0 -0.25296191566E+00  0.72967337349E-01  0.38566612755E+01  0.38656370959E+01  0.00000000000E+00 0.  1.
</event>
<event>
 5    1  0.5518211E+002  0.1578193E+01  0.7818608E-02  0.3377378E+00
         11   -1    0    0    0    0  0.00000000000E+00  0.00000000000E+00  0.39999999674E+01  0.40000000000E+01  0.51100000000E-03 0.  1.
    9000002   -1    0    0    0    0 -0.00000000000E+00 -0.00000000000E+00  0.00000000000E+00  0.93800000000E+00  0.93800000000E+00 0.  1.
         11    1    1    2    0    0 -0.64090091636E-01 -0.12872282448E+00  0.13993853625E+01  0.14067539796E+01  0.51100000000E-03 0.  1.
    9000002    1    1    2    0    0 -0.63921759633E-01 -0.44796705534E-01  0.19811580503E-01  0.94145060141E+00  0.93800000000E+00 0.  1.
         22    1    1    2    0    0  0.12801185127E+00  0.17351953001E+00  0.25808030244E+01  0.25897954189E+01  0.00000000000E+00 0.  1.
</event>
<event>
 5    1  0.3454171E+002  0.1527583E+01  0.7818608E-02  0.3435918E+00
         11   -1    0    0    0    0  0.00000000000E+00  0.00000000000E+00  0.39999999674E+01  0.40000000000E+01  0.51100000000E-03 0. -1.
    9000002   -1    0    0    0    0 -0.00000000000E+00 -0.00000000000E+00  0.00000000000E+00  0.93800000000E+00  0.93800000000E+00 0.  1.
         11    1    1    2    0    0 -0.28471505603E+00 -0.14351338382E-02  0.27487332078E+01  0.27634397463E+01  0.51100000000E-03 0. -1.
    9000002    1    1    2    0    0  0.24108048142E-01 -0.18095572319E+00  0.77818282689E-01  0.95876266973E+00  0.93800000000E+00 0.  1.
         22    1    1    2    0    0  0.26060700789E+00  0.18239085703E+00  0.11734484769E+01  0.12157975840E+01  0.00000000000E+00 0. -1.
</event>
<event>
 5    1  0.3454171E+002  0.1599577E+01  0.7818608E-02  0.3353823E+00
         11   -1    0    0    0    0  0.00000000000E+00  0.00000000000E+00  0.39999999674E+01  0.40000000000E+01  0.51100000000E-03 0.  1.
    9000002   -1    0    0    0    0 -0.00000000000E+00 -0.00000000000E+00  0.00000000000E+00  0.93800000000E+00  0.93800000000E+00 0.  1.
         11    1    1    2    0    0  0.91793795445E-01 -0.46620304074E-01  0.12779004794E+01  0.12820411265E+01  0.51100000000E-03 0.  1.
    9000002    1    1    2    0    0 -0.27263595231E+00  0.17672857298E+00  0.70673100834E-01  0.99518944839E+00  0.93800000000E+00 0.  1.
         22    1    1    2    0    0  0.18084215687E+00 -0.13010826890E+00  0.26514263871E+01  0.26607694251E+01  0.00000000000E+00 0. -1.
</event>
<event>
 5    1  0.3454171E+002  0.1599638E+01  0.7818608E-02  0.3353757E+00
         11   -1    0    0    0    0  0.00000000000E+00  0.00000000000E+00  0.39999999674E+01  0.40000000000E+01  0.51100000000E-03 0.  1.
    9000002   -1    0    0    0    0 -0.00000000000E+00 -0.00000000000E+00  0.00000000000E+00  0.93800000000E+00  0.93800000000E+00 0.  1.
         11    1    1    2    0    0 -0.37027796411E-01 -0.14480183654E+00  0.15495996404E+01  0.15567909096E+01  0.51100000000E-03 0.  1.
    9000002    1    1    2    0    0  0.10258132857E+00  0.34915387626E+00  0.88967988971E-01  0.10100448809E+01  0.93800000000E+00 0.  1.
         22    1    1    2    0    0 -0.65553532163E-01 -0.20435203972E+00  0.23614323379E+01  0.23711642095E+01  0.00000000000E+00 0.  1.
</event>
<event>
 5    1  0.3454171E+002  0.1597912E+01  0.7818608E-02  0.3355633E+00
         11   -1    0    0    0    0  0.00000000000E+00  0.00000000000E+00  0.39999999674E+01  0.40000000000E+01  0.51100000000E-03 0.  1.
    9000002   -1    0    0    0    0 -0.00000000000E+00 -0.00000000000E+00  0.00000000000E+00  0.93800000000E+00  0.93800000000E+00 0. -1.
         11    1    1    2    0    0 -0.67245237983E-01  0.74413029096E-01  0.13164368608E+01  0.13202520556E+01  0.51100000000E-03 0.  1.
    9000002    1    1    2    0    0  0.78323285151E-01 -0.29516934832E+00  0.63632861156E-01  0.98851030455E+00  0.93800000000E+00 0. -1.
         22    1    1    2    0    0 -0.11078047167E-01  0.22075631922E+00  0.26199302454E+01  0.26292376398E+01  0.00000000000E+00 0.  1.
</event>
<event>
 5    1  0.4345952E+002  0.1555519E+01  0.7818608E-02  0.3403103E+00
         11   -1    0    0    0    0  0.00000000000E+00  0.00000000000E+00  0.39999999674E+01  0.40000000000E+01  0.51100000000E-03 0.  1.
    9000002   -1    0    0    0    0 -0.00000000000E+00 -0.00000000000E+00  0.00000000000E+00  0.93800000000E+00  0.93800000000E+00 0.  1.
         11    1    1    2    0    0 -0.87678721409E-01 -0.70660210200E-01  0.19827015258E+00  0.22801696871E+00  0.51100000000E-03 0.  1.
    9000002    1    1    2    0    0 -0.11068587743E+00  0.10468837703E+00  0.48677341331E-01  0.95153796735E+00  0.93800000000E+00 0.  1.
         22    1    1    2    0    0  0.19836459884E+00 -0.34028166832E-01  0.37530524735E+01  0.37584450639E+01  0.00000000000E+00 0.  1.
</event>
<event>
 5    1  0.3454171E+002  0.1599676E+01  0.7818608E-02  0.3353715E+00
         11   -1    0    0    0    0  0.00000000000E+00  0.00000000000E+00  0.39999999674E+01  0.40000000000E+01  0.51100000000E-03 0. -1.
    9000002   -1    0    0    0    0 -0.00000000000E+00 -0.00000000000E+00  0.00000000000E+00  0.93800000000E+00  0.93800000000E+00 0. -1.
         11    1    1    2    0    0  0.83725941229E-02  0.99527786511E-02  0.16249060851E+00  0.16301109505E+00  0.51100000000E-03 0.  1.
    9000002    1    1    2    0    0 -0.19776679498E+00 -0.23921139810E+00  0.64329640227E-01  0.99010913580E+00  0.93800000000E+00 0. -1.
         22    1    1    2    0    0  0.18939420085E+00  0.22925861944E+00  0.37731797186E+01  0.37848797692E+01  0.00000000000E+00 0. -1.
</event>
<event>
 5    1  0.3454171E+002  0.1529317E+01  0.7818608E-02  0.3433844E+00
         11   -1    0    0    0    0  0.00000000000E+00  0.00000000000E+00  0.39999999674E+01  0.40000000000E+01  0.51100000000E-03 0. -1.
    9000002   -1    0    0    0    0 -0.00000000000E+00 -0.00000000000E+00  0.00000000000E+00  0.93800000000E+00  0.93800000000E+00 0. -1.
         11    1    1    2    0    0 -0.17563743735E+00 -0.13603510663E+00  0.30905671028E+01  0.30985414856E+01  0.51100000000E-03 0. -1.
    9000002    1    1    2    0    0  0.76064093611E-01 -0.12876060445E+00  0.68611769726E-01  0.95232169698E+00  0.93800000000E+00 0. -1.
         22    1    1    2    0    0  0.99573343744E-01  0.26479571108E+00  0.84082109480E+00  0.88713681744E+00  0.00000000000E+00 0.  1.
</event>
<event>
 5    1  0.3454171E+002  0.1599662E+01  0.7818608E-02  0.3353730E+00
         11   -1    0    0    0    0  0.00000000000E+00  0.00000000000E+00  0.39999999674E+01  0.40000000000E+01  0.51100000000E-03 0. -1.
    9000002   -1    0    0    0    0 -0.00000000000E+00 -0.00000000000E+00  0.00000000000E+00  0.93800000000E+00  0.93800000000E+00 0. -1.
         11    1    1    2    0    0 -0.16094841781E+00 -0.16810646171E-02  0.17672671529E+01  0.17745818296E+01  0.51100000000E-03 0. -1.
    9000002    1    1    2    0    0  0.36626644012E+00  0.38340699270E-02  0.90137429848E-01  0.10110067070E+01  0.93800000000E+00 0. -1.
         22    1    1    2    0    0 -0.20531802231E+00 -0.21530053099E-02  0.21425953846E+01  0.21524114634E+01  0.00000000000E+00 0. -1.
</event>
<event>
 5    1  0.3454171E+002  0.1561417E+01  0.7818608E-02  0.3396335E+00
         11   -1    0    0    0    0  0.00000000000E+00  0.00000000000E+00  0.39999999674E+01  0.40000000000E+01  0.51100000000E-03 0.  1.
    9000002   -1    0    0    0    0 -0.00000000000E+00 -0.00000000000E+00  0.00000000000E+00  0.93800000000E+00  0.93800000000E+00 0.  1.
         11    1    1    2    0    0 -0.26664527199E-01 -0.81947251782E-01  0.10819827445E+00  0.13832381140E+00  0.51100000000E-03 0.  1.
    9000002    1    1    2    0    0  0.23814073419E+00  0.75661280803E-01  0.71305428645E-01  0.97332630852E+00  0.93800000000E+00 0.  1.
         22    1    1    2    0    0 -0.21147620699E+00  0.62859709789E-02  0.38204962643E+01  0.38263498801E+01  0.00000000000E+00 0.  1.
</event>
<event>
 5    1  0.3454171E+002  0.1599646E+01  0.7818608E-02  0.3353748E+00
         11   -1    0    0    0    0  0.00000000000E+00  0.00000000000E+00  0.39999999674E+01  0.40000000000E+01  0.51100000000E-03 0. -1.
    9000002   -1    0    0    0    0 -0.00000000000E+00 -0.00000000000E+00  0.00000000000E+00  0.93800000000E+00  0.93800000000E+00 0.  1.
         11    1    1    2    0    0 -0.75073667398E-01 -0.72387024279E-03  0.92597682966E+00  0.92901557022E+00  0.51100000000E-03 0. -1.
    9000002    1    1    2    0    0  0.32895003881E+00 -0.18802497137E-01  0.72657566350E-01  0.99683739089E+00  0.93800000000E+00 0.  1.
         22    1    1    2    0    0 -0.25387637142E+00  0.19526367380E-01  0.30013655714E+01  0.30121470389E+01  0.00000000000E+00 0.  1.
</event>
<event>
 5    1  0.3454171E+002  0.1599667E+01  0.7818608E-02  0.3353725E+00
         11   -1    0    0    0    0  0.00000000000E+00  0.00000000000E+00  0.39999999674E+01  0.40000000000E+01  0.51100000000E-03 0. -1.
    9000002   -1    0    0    0    0 -0.00000000000E+00 -0.00000000000E+00  0.00000000000E+00  0.93800000000E+00  0.93800000000E+00 0.  1.
         11    1    1    2    0    0 -0.20244281329E+00  0.10775659116E+00  0.18700366468E+01  0.18840466812E+01  0.51100000000E-03 0. -1.
    9000002    1    1    2    0    0  0.41523157161E+00 -0.22935652558E+00  0.15340817695E+00  0.10622616169E+01  0.93800000000E+00 0.  1.
         22    1    1    2    0    0 -0.21278875832E+00  0.12159993442E+00  0.19765551436E+01  0.19916917019E+01  0.00000000000E+00 0. -1.
</event>
<event>
 5    1  0.3454171E+002  0.1592325E+01  0.7818608E-02  0.3361736E+00
         11   -1    0    0    0    0  0.00000000000E+00  0.00000000000E+00  0.39999999674E+01  0.40000000000E+01  0.51100000000E-03 0.  1.
    9000002   -1    0    0    0    0 -0.00000000000E+00 -0.00000000000E+00  0.00000000000E+00  0.93800000000E+00  0.93800000000E+00 0. -1.
         11    1    1    2    0    0  0.60108124739E-02  0.56810227152E-01  0.30720892126E+00  0.31247578178E+00  0.51100000000E-03 0.  1.
    9000002    1    1    2    0    0  0.20047760002E+00 -0.75271785755E-01  0.35943299490E-01  0.96280477285E+00  0.93800000000E+00 0. -1.
         22    1    1    2    0    0 -0.20648841249E+00  0.18461558603E-01  0.36568477466E+01  0.36627194454E+01  0.00000000000E+00 0.  1.
</event>
<event>
 5    1  0.3454171E+002  0.1599628E+01  0.7818608E-02  0.3353767E+00
         11   -1    0    0    0    0  0.00000000000E+00  0.00000000000E+00  0.39999999674E+01  0.40000000000E+01  0.51100000000E-03 0. -1.
    9000002   -1    0    0    0    0 -0.00000000000E+00 -0.00000000000E+00  0.00000000000E+00  0.93800000000E+00  0.93800000000E+00 0.  1.
         11    1    1    2    0    0 -0.25626883198E-01  0.31461720297E-02  0.40836294063E+00  0.40917867483E+00  0.51100000000E-03 0. -1.
    9000002    1    1    2    0    0  0.24415836565E+00  0.18922781638E-01  0.39860499808E-01  0.97025988200E+00  0.93800000000E+00 0.  1.
         22    1    1    2    0    0 -0.21853148245E+00 -0.22068953667E-01  0.35517765269E+01  0.35585614432E+01  0.00000000000E+00 0. -1.
</event>
<event>
 5    1  0.3454171E+002  0.1599673E+01  0.7818608E-02  0.3353718E+00
         11   -1    0    0    0    0  0.00000000000E+00  0.00000000000E+00  0.39999999674E+01  0.40000000000E+01  0.51100000000E-03 0. -1.
    9000002   -1    0    0    0    0 -0.00000000000E+00 -0.00000000000E+00  0.00000000000E+00  0.93800000000E+00  0.93800000000E+00 0. -1.
         11    1    1    2    0    0 -0.77077117427E-02  0.71561079527E-01  0.91077880731E+00  0.91361846188E+00  0.51100000000E-03 0. -1.
    9000002    1    1    2    0    0  0.32217222081E-01 -0.30097647984E+00  0.61142448934E-01  0.98752579200E+00  0.93800000000E+00 0. -1.
         22    1    1    2    0    0 -0.24509510338E-01  0.22941540031E+00  0.30280787111E+01  0.30368557461E+01  0.00000000000E+00 0. -1.
</event>
<event>
 5    1  0.3454171E+002  0.1590045E+01  0.7818608E-02  0.3364239E+00
         11   -1    0    0    0    0  0.00000000000E+00  0.00000000000E+00  0.39999999674E+01  0.40000000000E+01  0.51100000000E-03 0. -1.
    9000002   -1    0    0    0    0 -0.00000000000E+00 -0.00000000000E+00  0.00000000000E+00  0.93800000000E+00  0.93800000000E+00 0. -1.
         11    1    1    2    0    0 -0.13805359214E+00 -0.10957939695E+00  0.18826767202E+01  0.18909093930E+01  0.51100000000E-03 0. -1.
    9000002    1    1    2    0    0  0.62559223106E-01  0.32707446232E+00  0.81935312937E-01  0.99872356326E+00  0.93800000000E+00 0. -1.
         22    1    1    2    0    0  0.75494369031E-01 -0.21749506537E+00  0.20353879342E+01  0.20483670438E+01  0.00000000000E+00 0. -1.
</event>
<event>
 5    1  0.3454171E+002  0.1599677E+01  0.7818608E-02  0.3353714E+00
         11   -1    0    0    0    0  0.00000000000E+00  0.00000000000E+00  0.39999999674E+01  0.40000000000E+01  0.51100000000E-03 0.  1.
    9000002   -1    0    0    0    0 -0.00000000000E+00 -0.00000000000E+00  0.00000000000E+00  0.93800000000E+00  0.93800000000E+00 0.  1.
         11    1    1    2    0    0  0.43142453669E-02  0.12519029098E+00  0.14566165033E+01  0.14619928592E+01  0.51100000000E-03 0. -1.
    9000002    1    1    2    0    0 -0.11497861108E-01 -0.33694370732E+00  0.76106589173E-01  0.99964967645E+00  0.93800000000E+00 0.  1.
         22    1    1    2    0    0  0.71836157410E-02  0.21175341635E+00  0.24672768749E+01  0.24763574644E+01  0.00000000000E+00 0.  1.
</event>
<event>
 5    1  0.3454171E+002  0.1599659E+01  0.7818608E-02  0.3353734E+00
         11   -1    0    0    0    0  0.00000000000E+00  0.00000000000E+00  0.39999999674E+01  0.40000000000E+01  0.51100000000E-03 0.  1.
    9000002   -1    0    0    0    0 -0.00000000000E+00 -0.00000000000E+00  0.00000000000E+00  0.93800000000E+00  0.93800000000E+00 0. -1.
         11    1    1    2    0    0 -0.72507493089E-01 -0.59044298928E-01  0.11224560951E+01  0.11263443134E+01  0.51100000000E-03 0.  1.
    9000002    1    1    2    0    0  0.24545176624E+00  0.19319229964E+00  0.65181038231E-01  0.99078877766E+00  0.93800000000E+00 0. -1.
         22    1    1    2    0    0 -0.17294427315E+00 -0.13414800071E+00  0.28123628340E+01  0.28208669089E+01  0.00000000000E+00 0. -1.
</event>
<event>
 5    1  0.3454171E+002  0.1578674E+01  0.7818608E-02  0.3376840E+00
         11   -1    0    0    0    0  0.00000000000E+00  0.00000000000E+00  0.39999999674E+01  0.40000000000E+01  0.51100000000E-03 0.  1.
    9000002   -1    0    0    0    0 -0.00000000000E+00 -0.00000000000E+00  0.00000000000E+00  0.93800000000E+00  0.93800000000E+00 0. -1.
         11    1    1    2    0    0 -0.12285992689E+00  0.13708160474E+00  0.69964431089E+00  0.72345583892E+00  0.51100000000E-03 0.  1.
    9000002    1    1    2    0    0  0.34592956025E+00 -0.91617029104E-01  0.10313452421E+00  0.10092282550E+01  0.93800000000E+00 0. -1.
         22    1    1    2    0    0 -0.22306963336E+00 -0.45464575631E-01  0.31972211323E+01  0.32053159060E+01  0.00000000000E+00 0.  1.
</event>
<event>
 5    1  0.3454171E+002  0.1599677E+01  0.7818608E-02  0.3353714E+00
         11   -1    0    0    0    0  0.00000000000E+00  0.00000000000E+00  0.39999999674E+01  0.40000000000E+01  0.51100000000E-03 0. -1.
    9000002   -1    0    0    0    0 -0.00000000000E+00 -0.00000000000E+00  0.00000000000E+00  0.93800000000E+00  0.93800000000E+00 0.  1.
         11    1    1    2    0    0 -0.39042641014E-01 -0.94718418163E-01  0.12809267117E+01  0.12850172794E+01  0.51100000000E-03 0. -1.
    9000002    1    1    2    0    0  0.11989439595E+00  0.29289144162E+00  0.66923930855E-01  0.99221110419E+00  0.93800000000E+00 0.  1.
         22    1    1    2    0    0 -0.80851754939E-01 -0.19817302345E+00  0.26521493248E+01  0.26607716164E+01  0.00000000000E+00 0. -1.
</event>
<event>
 5    1  0.3454171E+002  0.1599674E+01  0.7818608E-02  0.3353717E+00
         11   -1    0    0    0    0  0.00000000000E+00  0.00000000000E+00  0.39999999674E+01  0.40000000000E+01  0.51100000000E-03 0.  1.
    9000002   -1    0    0    0    0 -0.00000000000E+00 -0.00000000000E+00  0.00000000000E+00  0.93800000000E+00  0.93800000000E+00 0. -1.
         11    1    1    2    0    0 -0.12708688274E-01  0.65083070683E+00  0.12431274935E+01  0.14032492102E+01  0.51100000000E-03 0.  1.
    9000002    1    1    2    0    0  0.28034559410E-01 -0.12479431567E+01  0.16167402366E+01  0.22476300967E+01  0.93800000000E+00 0. -1.
         22    1    1    2    0    0 -0.15325871136E-01  0.59711244991E+00  0.11401322373E+01  0.12871206931E+01  0.00000000000E+00 0. -1.
</event>
<event>
 5    1  0.3454171E+002  0.1599675E+01  0.7818608E-02  0.3353717E+00
         11   -1    0    0    0    0  0.00000000000E+00  0.00000000000E+00  0.39999999674E+01  0.40000000000E+01  0.51100000000E-03 0.  1.
    9000002   -1    0    0    0    0 -0.00000000000E+00 -0.00000000000E+00  0.00000000000E+00  0.93800000000E+00  0.93800000000E+00 0. -1.
         11    1    1    2    0    0 -0.51503376703E-01 -0.49395959669E-01  0.92773288766E+00  0.93047360554E+00  0.51100000000E-03 0.  1.
    9000002    1    1    2    0    0  0.21656857255E+00  0.20360978752E+00  0.58932140924E-01  0.98573621696E+00  0.93800000000E+00 0. -1.
         22    1    1    2    0    0 -0.16506519585E+00 -0.15421382785E+00  0.30133349388E+01  0.30217901775E+01  0.00000000000E+00 0.  1.
</event>
<event>
 5    1  0.3454171E+002  0.1572223E+01  0.7818608E-02  0.3384075E+00
         11   -1    0    0    0    0  0.00000000000E+00  0.00000000000E+00  0.39999999674E+01  0.40000000000E+01  0.51100000000E-03 0. -1.
    9000002   -1    0    0    0    0 -0.00000000000E+00 -0.00000000000E+00  0.00000000000E+00  0.93800000000E+00  0.93800000000E+00 0. -1.
         11    1    1    2    0    0 -0.17593950068E+00  0.33857339792E-01  0.15756852683E+01  0.15858390061E+01  0.51100000000E-03 0. -1.
    9000002    1    1    2    0    0 -0.48213876486E-01 -0.83346241026E-01  0.26415118263E-01  0.94329896229E+00  0.93800000000E+00 0. -1.
         22    1    1    2    0    0  0.22415337717E+00  0.49488901234E-01  0.23978995808E+01  0.24088620316E+01  0.00000000000E+00 0.  1.
</event>
<event>
 5    1  0.3454171E+002  0.1599612E+01  0.7818608E-02  0.3353785E+00
         11   -1    0    0    0    0  0.00000000000E+00  0.00000000000E+00  0.39999999674E+01  0.40000000000E+01  0.51100000000E-03 0. -1.
    9000002   -1    0    0    0    0 -0.00000000000E+00 -0.00000000000E+00  0.00000000000E+00  0.93800000000E+00  0.93800000000E+00 0.  1.
         11    1    1    2    0    0  0.11797982480E+00 -0.66815459793E-02  0.12244044822E+01  0.12300936872E+01  0.51100000000E-03 0. -1.
    9000002    1    1    2    0    0 -0.38289919169E+00  0.49162206960E-01  0.10040043843E+00  0.10192904206E+01  0.93800000000E+00 0.  1.
         22    1    1    2    0    0  0.26491936689E+00 -0.42480660981E-01  0.26751950468E+01  0.26886158922E+01  0.00000000000E+00 0.  1.
</event>
<event>
 5    1  0.3454171E+002  0.1599658E+01  0.7818608E-02  0.3353735E+00
         11   -1    0    0    0    0  0.00000000000E+00  0.00000000000E+00  0.39999999674E+01  0.40000000000E+01  0.51100000000E-03 0.  1.
    9000002   -1    0    0    0    0 -0.00000000000E+00 -0.00000000000E+00  0.00000000000E+00  0.93800000000E+00  0.93800000000E+00 0. -1.
         11    1    1    2    0    0  0.10907702554E+00 -0.29604656221E+00  0.18513886825E+01  0.18780792527E+01  0.51100000000E-03 0.  1.
    9000002    1    1    2    0    0 -0.22720413141E+00  0.59976534902E+00  0.28968673103E+00  0.11726476851E+01  0.93800000000E+00 0. -1.
         22    1    1    2    0    0  0.11812710587E+00 -0.30371878681E+00  0.18589245538E+01  0.18872730622E+01  0.00000000000E+00 0.  1.
</event>
<event>
 5    1  0.3454171E+002  0.1599657E+01  0.7818608E-02  0.3353736E+00
         11   -1    0    0    0    0  0.00000000000E+00  0.00000000000E+00  0.39999999674E+01  0.40000000000E+01  0.51100000000E-03 0.  1.
    9000002   -1    0    0    0    0 -0.00000000000E+00 -0.00000000000E+00  0.00000000000E+00  0.93800000000E+00  0.93800000000E+00 0. -1.
         11    1    1    2    0    0  0.23420900548E-02  0.63914948649E-02  0.61793338162E-01  0.62169239618E-01  0.51100000000E-03 0.  1.
    9000002    1    1    2    0    0 -0.12010138512E+00 -0.47222424624E+00  0.16220370728E+00  0.10693802523E+01  0.93800000000E+00 0. -1.
         22    1    1    2    0    0  0.11775929506E+00  0.46583275138E+00  0.37760029219E+01  0.38064505080E+01  0.00000000000E+00 0.  1.
</event>
<event>
 5    1  0.3454171E+002  0.1599675E+01  0.7818608E-02  0.3353716E+00
         11   -1    0    0    0    0  0.00000000000E+00  0.00000000000E+00  0.39999999674E+01  0.40000000000E+01  0.51100000000E-03 0.  1.
    9000002   -1    0    0    0    0 -0.00000000000E+00 -0.00000000000E+00  0.00000000000E+00  0.93800000000E+00  0.93800000000E+00 0. -1.
         11    1    1    2    0    0 -0.14015421578E+00  0.53976087025E-01  0.15815996355E+01  0.15887146662E+01  0.51100000000E-03 0.  1.
    9000002    1    1    2    0    0  0.34997676991E+00 -0.13420032822E+00  0.94472438307E-01  0.10145257558E+01  0.93800000000E+00 0. -1.
         22    1    1    2    0    0 -0.20982255412E+00  0.80224241193E-01  0.23239278935E+01  0.23347595781E+01  0.00000000000E+00 0. -1.
</event>
<event>
 5    1  0.3454171E+002  0.1596423E+01  0.7818608E-02  0.3357255E+00
         11   -1    0    0    0    0  0.00000000000E+00  0.00000000000E+00  0.39999999674E+01  0.40000000000E+01  0.51100000000E-03 0. -1.
    9000002   -1    0    0    0    0 -0.00000000000E+00 -0.00000000000E+00  0.00000000000E+00  0.93800000000E+00  0.93800000000E+00 0.  1.
         11    1    1    2    0    0 -0.10305138669E+00 -0.15794914184E+00  0.15669652561E+01  0.15782737071E+01  0.51100000000E-03 0. -1.
    9000002    1    1    2    0    0  0.37567579533E+00  0.27647111106E+00  0.15098920158E+00  0.10583998854E+01  0.93800000000E+00 0.  1.
         22    1    1    2    0    0 -0.27262440864E+00 -0.11852196921E+00  0.22820455097E+01  0.23013264075E+01  0.00000000000E+00 0. -1.
</event>
<event>
 5    1  0.3454171E+002  0.1597283E+01  0.7818608E-02  0.3356318E+00
         11   -1    0    0    0    0  0.00000000000E+00  0.00000000000E+00  0.39999999674E+01  0.40000000000E+01  0.51100000000E-03 0.  1.
    9000002   -1    0    0    0    0 -0.00000000000E+00 -0.00000000000E+00  0.00000000000E+00  0.93800000000E+00  0.93800000000E+00 0.  1.
         11    1    1    2    0    0 -0.16547631500E+00 -0.67871180743E-01  0.11829320899E+01  0.11963768213E+01  0.51100000000E-03 0.  1.
    9000002    1    1    2    0    0  0.37015962938E+00  0.17706878623E+00  0.11573237717E+00  0.10303443548E+01  0.93800000000E+00 0.  1.
         22    1    1    2    0    0 -0.20468331438E+00 -0.10919760548E+00  0.27013355003E+01  0.27112788240E+01  0.00000000000E+00 0.  1.
</event>
<event>
 5    1  0.3454171E+002  0.1599677E+01  0.7818608E-02  0.3353714E+00
         11   -1    0    0    0    0  0.00000000000E+00  0.00000000000E+00  0.39999999674E+01  0.40000000000E+01  0.51100000000E-03 0. -1.
    9000002   -1    0    0    0    0 -0.00000000000E+00 -0.00000000000E+00  0.00000000000E+00  0.93800000000E+00  0.93800000000E+00 0. -1.
         11    1    1    2    0    0 -0.33713059739E-01 -0.10943908862E+00  0.11975969793E+01  0.12030595457E+01  0.51100000000E-03 0. -1.
    9000002    1    1    2    0    0  0.11022437499E+00  0.35689696990E+00  0.93805202055E-01  0.10139863292E+01  0.93800000000E+00 0. -1.
         22    1    1    2    0    0 -0.76511315255E-01 -0.24745788128E+00  0.27085977860E+01  0.27209541250E+01  0.00000000000E+00 0.  1.
</event>
<event>
 5    1  0.3454171E+002  0.1599676E+01  0.7818608E-02  0.3353715E+00
         11   -1    0    0    0    0  0.00000000000E+00  0.00000000000E+00  0.39999999674E+01  0.40000000000E+01  0.51100000000E-03 0.  1.
    9000002   -1    0    0    0    0 -0.00000000000E+00 -0.00000000000E+00  0.00000000000E+00  0.93800000000E+00  0.93800000000E+00 0.  1.
         11    1    1    2    0    0 -0.40498068128E-01  0.13275086666E-01  0.40692963381E+00  0.40915560541E+00  0.51100000000E-03 0. -1.
    9000002    1    1    2    0    0  0.38702121251E+00 -0.12314985857E+00  0.11135197843E+00  0.10281996740E+01  0.93800000000E+00 0.  1.
         22    1    1    2    0    0 -0.34652314438E+00  0.10987477190E+00  0.34817183551E+01  0.35006447205E+01  0.00000000000E+00 0.  1.
</event>
<event>
 5    1  0.3454171E+002  0.1599677E+01  0.7818608E-02  0.3353714E+00
         11   -1    0    0    0    0  0.00000000000E+00  0.00000000000E+00  0.39999999674E+01  0.40000000000E+01  0.51100000000E-03 0. -1.
    9000002   -1    0    0    0    0 -0.00000000000E+00 -0.00000000000E+00  0.00000000000E+00  0.93800000000E+00  0.93800000000E+00 0. -1.
         11    1    1    2    0    0  0.10326151199E-01  0.85688924451E-01  0.75551946648E+00  0.76043352538E+00  0.51100000000E-03 0. -1.
    9000002    1    1    2    0    0 -0.52004610785E-01 -0.43981994582E+00  0.13308107212E+00  0.10458014324E+01  0.93800000000E+00 0. -1.
         22    1    1    2    0    0  0.41678459586E-01  0.35413102136E+00  0.31113994288E+01  0.31317650422E+01  0.00000000000E+00 0. -1.
</event>
<event>
 5    1  0.3454171E+002  0.1596786E+01  0.7818608E-02  0.3356859E+00
         11   -1    0    0    0    0  0.00000000000E+00  0.00000000000E+00  0.39999999674E+01  0.40000000000E+01  0.51100000000E-03 0. -1.
    9000002   -1    0    0    0    0 -0.00000000000E+00 -0.00000000000E+00  0.00000000000E+00  0.93800000000E+00  0.93800000000E+00 0.  1.
         11    1    1    2    0    0 -0.13301802251E-01 -0.35066436021E+00  0.13530909559E+01  0.13978547233E+01  0.51100000000E-03 0. -1.
    9000002    1    1    2    0    0 -0.12402674719E+00  0.85984012498E+00  0.57441823430E+00  0.14016090690E+01  0.93800000000E+00 0.  1.
         22    1    1    2    0    0  0.13732854945E+00 -0.50917576477E+00  0.20724907772E+01  0.21385362076E+01  0.00000000000E+00 0. -1.
</event>
<event>
 5    1  0.3454171E+002  0.1599669E+01  0.7818608E-02  0.3353723E+00
         11   -1    0    0    0    0  0.00000000000E+00  0.00000000000E+00  0.39999999674E+01  0.40000000000E+01  0.51100000000E-03 0.  1.
    9000002   -1    0    0    0    0 -0.00000000000E+00 -0.00000000000E+00  0.00000000000E+00  0.93800000000E+00  0.93800000000E+00 0.  1.
         11    1    1    2    0    0  0.21520134289E-01 -0.94767215795E-03  0.33757696943E+00  0.33826392901E+00  0.51100000000E-03 0.  1.
    9000002    1    1    2    0    0 -0.23683155275E+00  0.25788976682E-01  0.37674141305E-01  0.96851308541E+00  0.93800000000E+00 0.  1.
         22    1    1    2    0    0  0.21531141846E+00 -0.24841304524E-01  0.36247488566E+01  0.36312229856E+01  0.00000000000E+00 0.  1.
</event>
<event>
 5    1  0.3454171E+002  0.1599677E+01  0.7818608E-02  0.3353714E+00
         11   -1    0    0    0    0  0.00000000000E+00  0.00000000000E+00  0.39999999674E+01  0.40000000000E+01  0.51100000000E-03 0. -1.
    9000002   -1    0    0    0    0 -0.00000000000E+00 -0.00000000000E+00  0.00000000000E+00  0.93800000000E+00  0.93800000000E+00 0.  1.
         11    1    1    2    0    0 -0.60905325037E-01  0.13223812597E+00  0.10513529369E+01  0.10613857168E+01  0.51100000000E-03 0. -1.
    9000002    1    1    2    0    0  0.21961237610E+00 -0.47902546708E+00  0.19099027539E+00  0.10927105194E+01  0.93800000000E+00 0.  1.
         22    1    1    2    0    0 -0.15870705107E+00  0.34678734111E+00  0.27576567550E+01  0.27839037639E+01  0.00000000000E+00 0. -1.
</event>
<event>
 5    1  0.3454171E+002  0.1585982E+01  0.7818608E-02  0.3368720E+00
         11   -1    0    0    0    0  0.00000000000E+00  0.00000000000E+00  0.39999999674E+01  0.40000000000E+01  0.51100000000E-03 0.  1.
    9000002   -1    0    0    0    0 -0.00000000000E+00 -0.00000000000E+00  0.00000000000E+00  0.93800000000E+00  0.93800000000E+00 0.  1.
         11    1    1    2    0    0 -0.53137748687E-01 -0.41832869288E-01  0.20103571049E+01  0.20114943598E+01  0.51100000000E-03 0.  1.
    9000002    1    1    2    0    0 -0.31699625992E-01 -0.15989715417E+00  0.27768952598E-01  0.95246369008E+00  0.93800000000E+00 0.  1.
         22    1    1    2    0    0  0.84837374679E-01  0.20173002345E+00  0.19618739099E+01  0.19740419501E+01  0.00000000000E+00 0.  1.
</event>
<event>
 5    1  0.3454171E+002  0.1589849E+01  0.7818608E-02  0.3364456E+00
         11   -1    0    0    0    0  0.00000000000E+00  0.00000000000E+00  0.39999999674E+01  0.40000000000E+01  0.51100000000E-03 0.  1.
    9000002   -1    0    0    0    0 -0.00000000000E+00 -0.00000000000E+00  0.00000000000E+00  0.93800000000E+00  0.93800000000E+00 0. -1.
         11    1    1    2    0    0  0.15731460961E+00 -0.93219893837E-01  0.20865350336E+01  0.20945325356E+01  0.51100000000E-03 0.  1.
    9000002    1    1    2    0    0 -0.33064447926E+00 -0.45753720798E-01  0.82456991038E-01  0.99903069523E+00  0.93800000000E+00 0. -1.
         22    1    1    2    0    0  0.17332986965E+00  0.13897361463E+00  0.18310079427E+01  0.18444367692E+01  0.00000000000E+00 0. -1.
</event>
<event>
 5    1  0.3454171E+002  0.1599665E+01  0.7818608E-02  0.3353727E+00
         11   -1    0    0    0    0  0.00000000000E+00  0.00000000000E+00  0.39999999674E+01  0.40000000000E+01  0.51100000000E-03 0.  1.
    9000002   -1    0    0    0    0 -0.00000000000E+00 -0.00000000000E+00  0.00000000000E+00  0.93800000000E+00  0.93800000000E+00 0. -1.
         11    1    1    2    0    0  0.22023961053E-01  0.14322588817E-01  0.49482697463E+00  0.49552415416E+00  0.51100000000E-03 0.  1.
    9000002    1    1    2    0    0 -0.18632001885E+00 -0.13404585527E+00  0.34953534216E-01  0.96630698553E+00  0.93800000000E+00 0. -1.
         22    1    1    2    0    0  0.16429605779E+00  0.11972326645E+00  0.34702194585E+01  0.34761688603E+01  0.00000000000E+00 0.  1.
</event>
<event>
 5    1  0.3454171E+002  0.1592262E+01  0.7818608E-02  0.3361805E+00
         11   -1    0    0    0    0  0.00000000000E+00  0.00000000000E+00  0.39999999674E+01  0.40000000000E+01  0.51100000000E-03 0.  1.
    9000002   -1    0    0    0    0 -0.00000000000E+00 -0.00000000000E+00  0.00000000000E+00  0.93800000000E+00  0.93800000000E+00 0.  1.
         11    1    1    2    0    0  0.29418251657E-01 -0.10833070500E+00  0.11942129802E+01  0.11994773355E+01  0.51100000000E-03 0.  1.
    9000002    1    1    2    0    0 -0.29549036318E+00  0.11381653162E+00  0.72876570583E-01  0.99268512235E+00  0.93800000000E+00 0.  1.
         22    1    1    2    0    0  0.26607211152E+00 -0.54858266261E-02  0.27329104165E+01  0.27458375421E+01  0.00000000000E+00 0.  1.
</event>
<event>
 5    1  0.3454171E+002  0.1484259E+01  0.7818608E-02  0.3489434E+00
         11   -1    0    0    0    0  0.00000000000E+00  0.00000000000E+00  0.39999999674E+01  0.40000000000E+01  0.51100000000E-03 0.  1.
    9000002   -1    0    0    0    0 -0.00000000000E+00 -0.00000000000E+00  0.00000000000E+00  0.93800000000E+00  0.93800000000E+00 0. -1.
         11    1    1    2    0    0  0.42549058655E+00 -0.11083427972E+00  0.84743609411E+00  0.95471182643E+00  0.51100000000E-03 0.  1.
    9000002    1    1    2    0    0 -0.30223355233E+00  0.55184761104E+00  0.40819373551E+00  0.12009775317E+01  0.93800000000E+00 0. -1.
         22    1    1    2    0    0 -0.12325703422E+00 -0.44101333132E+00  0.27443701377E+01  0.27823106419E+01  0.00000000000E+00 0.  1.
</event>
<event>
 5    1  0.3454171E+002  0.1599673E+01  0.7818608E-02  0.3353718E+00
         11   -1    0    0    0    0  0.00000000000E+00  0.00000000000E+00  0.39999999674E+01  0.40000000000E+01  0.51100000000E-03 0. -1.
    9000002   -1    0    0    0    0 -0.00000000000E+00 -0.00000000000E+00  0.00000000000E+00  0.93800000000E+00  0.93800000000E+00 0. -1.
         11    1    1    2    0    0 -0.12114412667E+00  0.18851954718E+00  0.17579488631E+01  0.17721738023E+01  0.51100000000E-03 0. -1.
    9000002    1    1    2    0    0  0.26102690695E+00 -0.41519794851E+00  0.16439469905E+00  0.10711647864E+01  0.93800000000E+00 0. -1.
         22    1    1    2    0    0 -0.13988278028E+00  0.22667840133E+00  0.20776564052E+01  0.20946614113E+01  0.00000000000E+00 0. -1.
</event>
<event>
 5    1  0.3454171E+002  0.1599580E+01  0.7818608E-02  0.3353820E+00
         11   -1    0    0    0    0  0.00000000000E+00  0.00000000000E+00  0.39999999674E+01  0.40000000000E+01  0.51100000000E-03 0.  1.
    9000002   -1    0    0    0    0 -0.00000000000E+00 -0.00000000000E+00  0.00000000000E+00  0.93800000000E+00  0.93800000000E+00 0.  1.
         11    1    1    2    0    0  0.19934463441E-02 -0.23257675649E-01  0.31358692457E+00  0.31445494699E+00  0.51100000000E-03 0.  1.
    9000002    1    1    2    0    0 -0.89644164337E-01  0.24469510219E+00  0.45225355354E-01  0.97457739662E+00  0.93800000000E+00 0.  1.
         22    1    1    2    0    0  0.87650717993E-01 -0.22143742654E+00  0.36411876874E+01  0.36489676564E+01  0.00000000000E+00 0.  1.
</event>
<event>
 5    1  0.3454171E+002  0.1585455E+01  0.7818608E-02  0.3369303E+00
         11   -1    0    0    0    0  0.00000000000E+00  0.00000000000E+00  0.39999999674E+01  0.40000000000E+01  0.51100000000E-03 0. -1.
    9000002   -1    0    0    0    0 -0.00000000000E+00 -0.00000000000E+00  0.00000000000E+00  0.93800000000E+00  0.93800000000E+00 0. -1.
         11    1    1    2    0    0 -0.27491503886E-01 -0.18396007387E-01  0.40221634627E-01  0.52079140610E-01  0.51100000000E-03 0. -1.
    9000002    1    1    2    0    0  0.23093934316E+00  0.13290210117E-01  0.46359521852E-01  0.96721394488E+00  0.93800000000E+00 0. -1.
         22    1    1    2    0    0 -0.20344783927E+00  0.51057972699E-02  0.39134188109E+01  0.39187069145E+01  0.00000000000E+00 0. -1.
</event>
<event>
 5    1  0.3454171E+002  0.1495987E+01  0.7818608E-02  0.3474618E+00
         11   -1    0    0    0    0  0.00000000000E+00  0.00000000000E+00  0.39999999674E+01  0.40000000000E+01  0.51100000000E-03 0.  1.
    9000002   -1    0    0    0    0 -0.00000000000E+00 -0.00000000000E+00  0.00000000000E+00  0.93800000000E+00  0.93800000000E+00 0.  1.
         11    1    1    2    0    0 -0.13813153622E+00  0.33468582022E+00  0.11488823501E+01  0.12045853374E+01  0.51100000000E-03 0.  1.
    9000002    1    1    2    0    0 -0.12592990789E+00 -0.89504617748E-01  0.96718837463E-01  0.95554589205E+00  0.93800000000E+00 0.  1.
         22    1    1    2    0    0  0.26406144411E+00 -0.24518120247E+00  0.27543987798E+01  0.27778687705E+01  0.00000000000E+00 0.  1.
</event>
<event>
 5    1  0.3454171E+002  0.1593448E+01  0.7818608E-02  0.3360505E+00
         11   -1    0    0    0    0  0.00000000000E+00  0.00000000000E+00  0.39999999674E+01  0.40000000000E+01  0.51100000000E-03 0. -1.
    9000002   -1    0    0    0    0 -0.00000000000E+00 -0.00000000000E+00  0.00000000000E+00  0.93800000000E+00  0.93800000000E+00 0. -1.
         11    1    1    2    0    0  0.11199449021E-01 -0.93377061676E-02  0.17289666836E-01  0.22623309111E-01  0.51100000000E-03 0. -1.
    9000002    1    1    2    0    0 -0.13278689839E+00  0.19820447658E+00  0.42529215695E-01  0.96879828092E+00  0.93800000000E+00 0. -1.
         22    1    1    2    0    0  0.12158744937E+00 -0.18886677041E+00  0.39401810848E+01  0.39465784100E+01  0.00000000000E+00 0. -1.
</event>
<event>
 5    1  0.3454171E+002  0.1597193E+01  0.7818608E-02  0.3356415E+00
         11   -1    0    0    0    0  0.00000000000E+00  0.00000000000E+00  0.39999999674E+01  0.40000000000E+01  0.51100000000E-03 0. -1.
    9000002   -1    0    0    0    0 -0.00000000000E+00 -0.00000000000E+00  0.00000000000E+00  0.93800000000E+00  0.93800000000E+00 0. -1.
         11    1    1    2    0    0  0.10936843144E-01  0.55912868369E-01  0.32817320217E+00  0.33308223479E+00  0.51100000000E-03 0. -1.
    9000002    1    1    2    0    0 -0.75326756251E-01 -0.27507978326E+00  0.56124173372E-01  0.98200658358E+00  0.93800000000E+00 0. -1.
         22    1    1    2    0    0  0.64389913107E-01  0.21916691489E+00  0.36157025918E+01  0.36229111816E+01  0.00000000000E+00 0. -1.
</event>
<event>
 5    1  0.3454171E+002  0.1566853E+01  0.7818608E-02  0.3390145E+00
         11   -1    0    0    0    0  0.00000000000E+00  0.00000000000E+00  0.39999999674E+01  0.40000000000E+01  0.51100000000E-03 0.  1.
    9000002   -1    0    0    0    0 -0.00000000000E+00 -0.00000000000E+00  0.00000000000E+00  0.93800000000E+00  0.93800000000E+00 0.  1.
         11    1    1    2    0    0  0.13818077407E+00 -0.39956402475E-01  0.28074273211E+01  0.28111098991E+01  0.51100000000E-03 0.  1.
    9000002    1    1    2    0    0  0.77715130387E-01 -0.11057967512E-01  0.28334863499E-01  0.94170525358E+00  0.93800000000E+00 0.  1.
         22    1    1    2    0    0 -0.21589590446E+00  0.51014369988E-01  0.11642377827E+01  0.11851848473E+01  0.00000000000E+00 0. -1.
</event>
<event>
 5    1  0.3454171E+002  0.1594747E+01  0.7818608E-02  0.3359084E+00
         11   -1    0    0    0    0  0.00000000000E+00  0.00000000000E+00  0.39999999674E+01  0.40000000000E+01  0.51100000000E-03 0.  1.
    9000002   -1    0    0    0    0 -0.00000000000E+00 -0.00000000000E+00  0.00000000000E+00  0.93800000000E+00  0.93800000000E+00 0.  1.
         11    1    1    2    0    0  0.33246794101E-01  0.31923283704E-01  0.15000040910E+00  0.15692300409E+00  0.51100000000E-03 0.  1.
    9000002    1    1    2    0    0 -0.23155848181E+00 -0.25254402823E+00  0.82615335119E-01  0.10020314917E+01  0.93800000000E+00 0.  1.
         22    1    1    2    0    0  0.19831168771E+00  0.22062074453E+00  0.37673842231E+01  0.37790455042E+01  0.00000000000E+00 0.  1.
</event>
<event>
 5    1  0.3454171E+002  0.1593342E+01  0.7818608E-02  0.3360621E+00
         11   -1    0    0    0    0  0.00000000000E+00  0.00000000000E+00  0.39999999674E+01  0.40000000000E+01  0.51100000000E-03 0. -1.
    9000002   -1    0    0    0    0 -0.00000000000E+00 -0.00000000000E+00  0.00000000000E+00  0.93800000000E+00  0.93800000000E+00 0.  1.
         11    1    1    2    0    0  0.79535108228E-01  0.15393159640E+00  0.14281949816E+01  0.14386667218E+01  0.51100000000E-03 0. -1.
    9000002    1    1    2    0    0 -0.29170585391E+00 -0.18007452252E+00  0.83832048317E-01  0.10021930708E+01  0.93800000000E+00 0.  1.
         22    1    1    2    0    0  0.21217074568E+00  0.26142926120E-01  0.24879729374E+01  0.24971402074E+01  0.00000000000E+00 0. -1.
</event>
<event>
 5    1  0.3454171E+002  0.1599662E+01  0.7818608E-02  0.3353731E+00
         11   -1    0    0    0    0  0.00000000000E+00  0.00000000000E+00  0.39999999674E+01  0.40000000000E+01  0.51100000000E-03 0. -1.
    9000002   -1    0    0    0    0 -0.00000000000E+00 -0.00000000000E+00  0.00000000000E+00  0.93800000000E+00  0.93800000000E+00 0.  1.
         11    1    1    2    0    0 -0.18025752252E-01 -0.52258497755E-01  0.78274412321E+00  0.78469389055E+00  0.51100000000E-03 0. -1.
    9000002    1    1    2    0    0  0.81881154389E-01  0.27984403991E+00  0.56684092398E-01  0.98390766663E+00  0.93800000000E+00 0.  1.
         22    1    1    2    0    0 -0.63855402137E-01 -0.22758554215E+00  0.31605717518E+01  0.31693984428E+01  0.00000000000E+00 0. -1.
</event>
<event>
 5    1  0.3454171E+002  0.1599676E+01  0.7818608E-02  0.3353715E+00
         11   -1    0    0    0    0  0.00000000000E+00  0.00000000000E+00  0.39999999674E+01  0.40000000000E+01  0.51100000000E-03 0.  1.
    9000002   -1    0    0    0    0 -0.00000000000E+00 -0.00000000000E+00  0.00000000000E+00  0.93800000000E+00  0.93800000000E+00 0.  1.
         11    1    1    2    0    0 -0.14408966851E+00  0.61523234640E+00  0.11412805857E+01  0.13045283857E+01  0.51100000000E-03 0.  1.
    9000002    1    1    2    0    0  0.28835842995E+00 -0.12295760353E+01  0.17152814986E+01  0.23274540662E+01  0.93800000000E+00 0.  1.
         22    1    1    2    0    0 -0.14426876144E+00  0.61434368891E+00  0.11434378831E+01  0.13060175482E+01  0.00000000000E+00 0.  1.
</event>
<event>
 5    1  0.3454171E+002  0.1596522E+01  0.7818608E-02  0.3357147E+00
         11   -1    0    0    0    0  0.00000000000E+00  0.00000000000E+00  0.39999999674E+01  0.40000000000E+01  0.51100000000E-03 0. -1.
    9000002   -1    0    0    0    0 -0.00000000000E+00 -0.00000000000E+00  0.00000000000E+00  0.93800000000E+00  0.93800000000E+00 0. -1.
         11    1    1    2    0    0 -0.98975670860E-02  0.42135369650E-01  0.82390087605E+00  0.82503713001E+00  0.51100000000E-03 0. -1.
    9000002    1    1    2    0    0 -0.20445556908E+00 -0.12482729752E+00  0.40493875226E-01  0.96895185013E+00  0.93800000000E+00 0. -1.
         22    1    1    2    0    0  0.21435313616E+00  0.82691927874E-01  0.31356052161E+01  0.31440110199E+01  0.00000000000E+00 0. -1.
</event>
<event>
 5    1  0.3454171E+002  0.1583401E+01  0.7818608E-02  0.3371579E+00
         11   -1    0    0    0    0  0.00000000000E+00  0.00000000000E+00  0.39999999674E+01  0.40000000000E+01  0.51100000000E-03 0. -1.
    9000002   -1    0    0    0    0 -0.00000000000E+00 -0.00000000000E+00  0.00000000000E+00  0.93800000000E+00  0.93800000000E+00 0.  1.
         11    1    1    2    0    0 -0.45470964286E+00 -0.17040944223E-01  0.22618949235E+01  0.23072104713E+01  0.51100000000E-03 0. -1.
    9000002    1    1    2    0    0  0.56157598632E+00  0.18836131719E+00  0.26061575742E+00  0.11395666489E+01  0.93800000000E+00 0.  1.
         22    1    1    2    0    0 -0.10686634345E+00 -0.17132037297E+00  0.14774892865E+01  0.14912228798E+01  0.00000000000E+00 0. -1.
</event>
<event>
 5    1  0.3454171E+002  0.1599673E+01  0.7818608E-02  0.3353718E+00
         11   -1    0    0    0    0  0.00000000000E+00  0.00000000000E+00  0.39999999674E+01  0.40000000000E+01  0.51100000000E-03 0.  1.
    9000002   -1    0    0    0    0 -0.00000000000E+00 -0.00000000000E+00  0.00000000000E+00  0.93800000000E+00  0.93800000000E+00 0.  1.
         11    1    1    2    0    0  0.15343992266E-01 -0.12321436735E-01  0.30075199282E+00  0.30139555107E+00  0.51100000000E-03 0.  1.
    9000002    1    1    2    0    0 -0.19493244412E+00  0.17546015443E+00  0.45740059713E-01  0.97504926882E+00  0.93800000000E+00 0.  1.
         22    1    1    2    0    0  0.17958845185E+00 -0.16313871770E+00  0.36535079148E+01  0.36615551801E+01  0.00000000000E+00 0.  1.
</event>
<event>
 5    1  0.3454171E+002  0.1598668E+01  0.7818608E-02  0.3354810E+00
         11   -1    0    0    0    0  0.00000000000E+00  0.00000000000E+00  0.39999999674E+01  0.40000000000E+01  0.51100000000E-03 0.  1.
    9000002   -1    0    0    0    0 -0.00000000000E+00 -0.00000000000E+00  0.00000000000E+00  0.93800000000E+00  0.93800000000E+00 0. -1.
         11    1    1    2    0    0  0.31990596101E-01  0.74880652639E-01  0.10727286091E+01  0.10758147798E+01  0.51100000000E-03 0.  1.
    9000002    1    1    2    0    0 -0.21970222695E+00 -0.20312445169E+00  0.60510996040E-01  0.98642495510E+00  0.93800000000E+00 0. -1.
         22    1    1    2    0    0  0.18771163085E+00  0.12824379905E+00  0.28667603622E+01  0.28757602651E+01  0.00000000000E+00 0.  1.
</event>
<event>
 5    1  0.3454171E+002  0.1599676E+01  0.7818608E-02  0.3353715E+00
         11   -1    0    0    0    0  0.00000000000E+00  0.00000000000E+00  0.39999999674E+01  0.40000000000E+01  0.51100000000E-03 0.  1.
    9000002   -1    0    0    0    0 -0.00000000000E+00 -0.00000000000E+00  0.00000000000E+00  0.93800000000E+00  0.93800000000E+00 0.  1.
         11    1    1    2    0    0  0.29590902107E-01 -0.53791756815E-01  0.89163505369E+00  0.89374633128E+00  0.51100000000E-03 0.  1.
    9000002    1    1    2    0    0 -0.12956026925E+00  0.24171540878E+00  0.50060986289E-01  0.97855112516E+00  0.93800000000E+00 0.  1.
         22    1    1    2    0    0  0.99969367147E-01 -0.18792365196E+00  0.30583039274E+01  0.30657025436E+01  0.00000000000E+00 0.  1.
</event>
<event>
 5    1  0.3454171E+002  0.1599677E+01  0.7818608E-02  0.3353714E+00
         11   -1    0    0    0    0  0.00000000000E+00  0.00000000000E+00  0.39999999674E+01  0.40000000000E+01  0.51100000000E-03 0. -1.
    9000002   -1    0    0    0    0 -0.00000000000E+00 -0.00000000000E+00  0.00000000000E+00  0.93800000000E+00  0.93800000000E+00 0. -1.
         11    1    1    2    0    0  0.46868242013E-01 -0.79196410642E-01  0.12462340065E+01  0.12496272099E+01  0.51100000000E-03 0. -1.
    9000002    1    1    2    0    0 -0.14954694935E+00  0.25099789970E+00  0.56906734583E-01  0.98409685100E+00  0.93800000000E+00 0. -1.
         22    1    1    2    0    0  0.10267870734E+00 -0.17180148906E+00  0.26968592263E+01  0.27042759391E+01  0.00000000000E+00 0. -1.
</event>
<event>
 5    1  0.3454171E+002  0.1563903E+01  0.7818608E-02  0.3393498E+00
         11   -1    0    0    0    0  0.00000000000E+00  0.00000000000E+00  0.39999999674E+01  0.40000000000E+01  0.51100000000E-03 0. -1.
    9000002   -1    0    0    0    0 -0.00000000000E+00 -0.00000000000E+00  0.00000000000E+00  0.93800000000E+00  0.93800000000E+00 0. -1.
         11    1    1    2    0    0 -0.17497901908E+00 -0.10180625852E+00  0.11636010693E+01  0.11810799638E+01  0.51100000000E-03 0. -1.
    9000002    1    1    2    0    0 -0.72192325853E-01  0.11631540237E+00  0.39161278565E-01  0.94874580920E+00  0.93800000000E+00 0. -1.
         22    1    1    2    0    0  0.24717134494E+00 -0.14509143847E-01  0.27972376195E+01  0.28081742270E+01  0.00000000000E+00 0. -1.
</event>
<event>
 5    1  0.4152342E+002  0.1515357E+01  0.7818608E-02  0.3450687E+00
         11   -1    0    0    0    0  0.00000000000E+00  0.00000000000E+00  0.39999999674E+01  0.40000000000E+01  0.51100000000E-03 0.  1.
    9000002   -1    0    0    0    0 -0.00000000000E+00 -0.00000000000E+00  0.00000000000E+00  0.93800000000E+00  0.93800000000E+00 0.  1.
         11    1    1    2    0    0  0.14174621555E+00 -0.23289090518E-01  0.15670835328E+00  0.21258443139E+00  0.51100000000E-03 0.  1.
    9000002    1    1    2    0    0  0.78853879018E-01 -0.47065767839E-03  0.68164137735E-01  0.94377354563E+00  0.93800000000E+00 0.  1.
         22    1    1    2    0    0 -0.22060009457E+00  0.23759748196E-01  0.37751274763E+01  0.37816420230E+01  0.00000000000E+00 0.  1.
</event>
<event>
 5    1  0.3454171E+002  0.1595008E+01  0.7818608E-02  0.3358799E+00
         11   -1    0    0    0    0  0.00000000000E+00  0.00000000000E+00  0.39999999674E+01  0.40000000000E+01  0.51100000000E-03 0.  1.
    9000002   -1    0    0    0    0 -0.00000000000E+00 -0.00000000000E+00  0.00000000000E+00  0.93800000000E+00  0.93800000000E+00 0.  1.
         11    1    1    2    0    0 -0.64840262622E-02  0.14173791182E-01  0.26284663113E-01  0.30562781107E-01  0.51100000000E-03 0.  1.
    9000002    1    1    2    0    0  0.99632424221E-01 -0.21833312249E+00  0.41792988621E-01  0.96911641521E+00  0.93800000000E+00 0.  1.
         22    1    1    2    0    0 -0.93148397958E-01  0.20415933131E+00  0.39319223156E+01  0.39383208037E+01  0.00000000000E+00 0.  1.
</event>
<event>
 5    1  0.3454171E+002  0.1599649E+01  0.7818608E-02  0.3353744E+00
         11   -1    0    0    0    0  0.00000000000E+00  0.00000000000E+00  0.39999999674E+01  0.40000000000E+01  0.51100000000E-03 0. -1.
    9000002   -1    0    0    0    0 -0.00000000000E+00 -0.00000000000E+00  0.00000000000E+00  0.93800000000E+00  0.93800000000E+00 0.  1.
         11    1    1    2    0    0 -0.71119393236E-01 -0.12378280268E+00  0.14947754071E+01  0.15015771472E+01  0.51100000000E-03 0. -1.
    9000002    1    1    2    0    0  0.17215856090E+00  0.33201285608E+00  0.94065926145E-01  0.10141811994E+01  0.93800000000E+00 0.  1.
         22    1    1    2    0    0 -0.10103916767E+00 -0.20823005339E+00  0.24111586341E+01  0.24222416534E+01  0.00000000000E+00 0. -1.
</event>
<event>
 5    1  0.3454171E+002  0.1599677E+01  0.7818608E-02  0.3353715E+00
         11   -1    0    0    0    0  0.00000000000E+00  0.00000000000E+00  0.39999999674E+01  0.40000000000E+01  0.51100000000E-03 0.  1.
    9000002   -1    0    0    0    0 -0.00000000000E+00 -0.00000000000E+00  0.00000000000E+00  0.93800000000E+00  0.93800000000E+00 0. -1.
         11    1    1    2    0    0  0.14185884312E-01  0.22320111223E+00  0.16633042028E+01  0.16782732519E+01  0.51100000000E-03 0.  1.
    9000002    1    1    2    0    0 -0.32749508566E-01 -0.51425695556E+00  0.18224905476E+00  0.10856295246E+01  0.93800000000E+00 0. -1.
         22    1    1    2    0    0  0.18563624253E-01  0.29105584334E+00  0.21544467098E+01  0.21740972235E+01  0.00000000000E+00 0.  1.
</event>
<event>
 5    1  0.3454171E+002  0.1599675E+01  0.7818608E-02  0.3353716E+00
         11   -1    0    0    0    0  0.00000000000E+00  0.00000000000E+00  0.39999999674E+01  0.40000000000E+01  0.51100000000E-03 0.  1.
    9000002   -1    0    0    0    0 -0.00000000000E+00 -0.00000000000E+00  0.00000000000E+00  0.93800000000E+00  0.93800000000E+00 0.  1.
         11    1    1    2    0    0  0.20494536987E+00  0.10859883199E+00  0.19337920675E+01  0.19476520050E+01  0.51100000000E-03 0.  1.
    9000002    1    1    2    0    0 -0.40767446283E+00 -0.21319227743E+00  0.14396693364E+00  0.10546183636E+01  0.93800000000E+00 0.  1.
         22    1    1    2    0    0  0.20272909296E+00  0.10459344544E+00  0.19222409662E+01  0.19357296314E+01  0.00000000000E+00 0.  1.
</event>
<event>
 5    1  0.3454171E+002  0.1599677E+01  0.7818608E-02  0.3353714E+00
         11   -1    0    0    0    0  0.00000000000E+00  0.00000000000E+00  0.39999999674E+01  0.40000000000E+01  0.51100000000E-03 0. -1.
    9000002   -1    0    0    0    0 -0.00000000000E+00 -0.00000000000E+00  0.00000000000E+00  0.93800000000E+00  0.93800000000E+00 0. -1.
         11    1    1    2    0    0  0.17607191098E+00  0.10952076670E+00  0.15528185667E+01  0.15666020165E+01  0.51100000000E-03 0.  1.
    9000002    1    1    2    0    0 -0.43178508426E+00 -0.26977113064E+00  0.17772274721E+00  0.10819631217E+01  0.93800000000E+00 0. -1.
         22    1    1    2    0    0  0.25571317328E+00  0.16025036394E+00  0.22694586535E+01  0.22894348617E+01  0.00000000000E+00 0. -1.
</event>
<event>
 5    1  0.3454171E+002  0.1599676E+01  0.7818608E-02  0.3353715E+00
         11   -1    0    0    0    0  0.00000000000E+00  0.00000000000E+00  0.39999999674E+01  0.40000000000E+01  0.51100000000E-03 0.  1.
    9000002   -1    0    0    0    0 -0.00000000000E+00 -0.00000000000E+00  0.00000000000E+00  0.93800000000E+00  0.93800000000E+00 0. -1.
         11    1    1    2    0    0  0.16892676082E+00 -0.48859808150E-01  0.12368490332E+01  0.12492875263E+01  0.51100000000E-03 0.  1.
    9000002    1    1    2    0    0 -0.51623851950E+00  0.14766196611E+00  0.19864916200E+00  0.10989138978E+01  0.93800000000E+00 0. -1.
         22    1    1    2    0    0  0.34731175868E+00 -0.98802157959E-01  0.25645017722E+01  0.25897985759E+01  0.00000000000E+00 0.  1.
</event>
<event>
 5    1  0.3454171E+002  0.1599673E+01  0.7818608E-02  0.3353718E+00
         11   -1    0    0    0    0  0.00000000000E+00  0.00000000000E+00  0.39999999674E+01  0.40000000000E+01  0.51100000000E-03 0. -1.
    9000002   -1    0    0    0    0 -0.00000000000E+00 -0.00000000000E+00  0.00000000000E+00  0.93800000000E+00  0.93800000000E+00 0. -1.
         11    1    1    2    0    0  0.36662149583E+00 -0.68179211537E-01  0.22361373126E+01  0.22670178799E+01  0.51100000000E-03 0. -1.
    9000002    1    1    2    0    0 -0.60806058895E+00  0.11530133061E+00  0.26835077690E+00  0.11553736262E+01  0.93800000000E+00 0. -1.
         22    1    1    2    0    0  0.24143909312E+00 -0.47122119075E-01  0.14955118779E+01  0.15156084938E+01  0.00000000000E+00 0. -1.
</event>
<event>
 5    1  0.3454171E+002  0.1599669E+01  0.7818608E-02  0.3353723E+00
         11   -1    0    0    0    0  0.00000000000E+00  0.00000000000E+00  0.39999999674E+01  0.40000000000E+01  0.51100000000E-03 0. -1.
    9000002   -1    0    0    0    0 -0.00000000000E+00 -0.00000000000E+00  0.00000000000E+00  0.93800000000E+00  0.93800000000E+00 0. -1.
         11    1    1    2    0    0  0.31964401478E+00 -0.17145320189E+00  0.21101349225E+01  0.21410834054E+01  0.51100000000E-03 0. -1.
    9000002    1    1    2    0    0 -0.55973883910E+00  0.30690921955E+00  0.28676914076E+00  0.11702911506E+01  0.93800000000E+00 0. -1.
         22    1    1    2    0    0  0.24009482431E+00 -0.13545601766E+00  0.16030959041E+01  0.16266254441E+01  0.00000000000E+00 0. -1.
</event>
<event>
 5    1  0.3454171E+002  0.1599663E+01  0.7818608E-02  0.3353729E+00
         11   -1    0    0    0    0  0.00000000000E+00  0.00000000000E+00  0.39999999674E+01  0.40000000000E+01  0.51100000000E-03 0.  1.
    9000002   -1    0    0    0    0 -0.00000000000E+00 -0.00000000000E+00  0.00000000000E+00  0.93800000000E+00  0.93800000000E+00 0.  1.
         11    1    1    2    0    0 -0.62983481002E-01 -0.12167974853E-01  0.80656019489E+00  0.80910727817E+00  0.51100000000E-03 0.  1.
    9000002    1    1    2    0    0  0.29146121497E+00  0.53229257194E-01  0.58551572947E-01  0.98542137198E+00  0.93800000000E+00 0.  1.
         22    1    1    2    0    0 -0.22847773397E+00 -0.41061282341E-01  0.31348881995E+01  0.31434713499E+01  0.00000000000E+00 0.  1.
</event>
<event>
 5    1  0.3454171E+002  0.1599670E+01  0.7818608E-02  0.3353722E+00
         11   -1    0    0    0    0  0.00000000000E+00  0.00000000000E+00  0.39999999674E+01  0.40000000000E+01  0.51100000000E-03 0.  1.
    9000002   -1    0    0    0    0 -0.00000000000E+00 -0.00000000000E+00  0.00000000000E+00  0.93800000000E+00  0.93800000000E+00 0.  1.
         11    1    1    2    0    0  0.19208530678E+00  0.70891481567E-01  0.18545046227E+01  0.18657733045E+01  0.51100000000E-03 0.  1.
    9000002    1    1    2    0    0 -0.39528379354E+00 -0.14978432320E+00  0.12089577638E+00  0.10359268361E+01  0.93800000000E+00 0.  1.
         22    1    1    2    0    0  0.20319848676E+00  0.78892841633E-01  0.20245995683E+01  0.20362998594E+01  0.00000000000E+00 0.  1.
</event>
<event>
 5    1  0.4296136E+002  0.1571811E+01  0.7818608E-02  0.3384538E+00
         11   -1    0    0    0    0  0.00000000000E+00  0.00000000000E+00  0.39999999674E+01  0.40000000000E+01  0.51100000000E-03 0.  1.
    9000002   -1    0    0    0    0 -0.00000000000E+00 -0.00000000000E+00  0.00000000000E+00  0.93800000000E+00  0.93800000000E+00 0.  1.
         11    1    1    2    0    0  0.11444458152E+00 -0.16022139371E+00  0.21884403678E+01  0.21972801282E+01  0.51100000000E-03 0.  1.
    9000002    1    1    2    0    0  0.71011628060E-01  0.58695861109E-01  0.26192436032E-01  0.94287745712E+00  0.93800000000E+00 0.  1.
         22    1    1    2    0    0 -0.18545620958E+00  0.10152553260E+00  0.17853671635E+01  0.17978424147E+01  0.00000000000E+00 0.  1.
</event>
<event>
 5    1  0.3454171E+002  0.1511658E+01  0.7818608E-02  0.3455206E+00
         11   -1    0    0    0    0  0.00000000000E+00  0.00000000000E+00  0.39999999674E+01  0.40000000000E+01  0.51100000000E-03 0. -1.
    9000002   -1    0    0    0    0 -0.00000000000E+00 -0.00000000000E+00  0.00000000000E+00  0.93800000000E+00  0.93800000000E+00 0.  1.
         11    1    1    2    0    0 -0.36410990501E+00  0.18512651681E+00  0.23872294546E+01  0.24219233225E+01  0.51100000000E-03 0. -1.
    9000002    1    1    2    0    0  0.31417642141E-01 -0.22740767021E+00  0.10490378145E+00  0.97136508073E+00  0.93800000000E+00 0.  1.
         22    1    1    2    0    0  0.33269226287E+00  0.42281153402E-01  0.15078667313E+01  0.15447115968E+01  0.00000000000E+00 0.  1.
</event>
<event>
 5    1  0.3454171E+002  0.1599265E+01  0.7818608E-02  0.3354161E+00
         11   -1    0    0    0    0  0.00000000000E+00  0.00000000000E+00  0.39999999674E+01  0.40000000000E+01  0.51100000000E-03 0. -1.
    9000002   -1    0    0    0    0 -0.00000000000E+00 -0.00000000000E+00  0.00000000000E+00  0.93800000000E+00  0.93800000000E+00 0.  1.
         11    1    1    2    0    0  0.72640023451E-01  0.45928727595E-01  0.11910441763E+01  0.11941409097E+01  0.51100000000E-03 0. -1.
    9000002    1    1    2    0    0 -0.31307180796E+00 -0.14847082691E+00  0.80799716659E-01  0.10032099170E+01  0.93800000000E+00 0.  1.
         22    1    1    2    0    0  0.24043178451E+00  0.10254209932E+00  0.27281560744E+01  0.27406491733E+01  0.00000000000E+00 0. -1.
</event>
<event>
 5    1  0.3454171E+002  0.1599373E+01  0.7818608E-02  0.3354044E+00
         11   -1    0    0    0    0  0.00000000000E+00  0.00000000000E+00  0.39999999674E+01  0.40000000000E+01  0.51100000000E-03 0. -1.
    9000002   -1    0    0    0    0 -0.00000000000E+00 -0.00000000000E+00  0.00000000000E+00  0.93800000000E+00  0.93800000000E+00 0. -1.
         11    1    1    2    0    0 -0.11076014011E+00 -0.58566024064E-01  0.16562516317E+01  0.16609839001E+01  0.51100000000E-03 0. -1.
    9000002    1    1    2    0    0  0.30800047283E+00  0.15652207716E+00  0.80239180696E-01  0.10028189159E+01  0.93800000000E+00 0. -1.
         22    1    1    2    0    0 -0.19724033272E+00 -0.97956053101E-01  0.22635091550E+01  0.22741971841E+01  0.00000000000E+00 0. -1.
</event>
<event>
 5    1  0.3454171E+002  0.1599674E+01  0.7818608E-02  0.3353718E+00
         11   -1    0    0    0    0  0.00000000000E+00  0.00000000000E+00  0.39999999674E+01  0.40000000000E+01  0.51100000000E-03 0. -1.
    9000002   -1    0    0    0    0 -0.00000000000E+00 -0.00000000000E+00  0.00000000000E+00  0.93800000000E+00  0.93800000000E+00 0. -1.
         11    1    1    2    0    0 -0.18035695623E+00 -0.44211141275E+00  0.22588108675E+01  0.23087264734E+01  0.51100000000E-03 0. -1.
    9000002    1    1    2    0    0  0.28305440673E+00  0.70053744800E+00  0.41454745441E+00  0.12737998686E+01  0.93800000000E+00 0. -1.
         22    1    1    2    0    0 -0.10269745049E+00 -0.25842603525E+00  0.13266416455E+01  0.13554736580E+01  0.00000000000E+00 0. -1.
</event>
<event>
 5    1  0.3454171E+002  0.1599123E+01  0.7818608E-02  0.3354315E+00
         11   -1    0    0    0    0  0.00000000000E+00  0.00000000000E+00  0.39999999674E+01  0.40000000000E+01  0.51100000000E-03 0. -1.
    9000002   -1    0    0    0    0 -0.00000000000E+00 -0.00000000000E+00  0.00000000000E+00  0.93800000000E+00  0.93800000000E+00 0. -1.
         11    1    1    2    0    0 -0.20528607134E-01 -0.21420025549E-02  0.48333196436E+00  0.48377273671E+00  0.51100000000E-03 0. -1.
    9000002    1    1    2    0    0  0.23367565843E+00 -0.11930596664E+00  0.46198637577E-01  0.97509822127E+00  0.93800000000E+00 0. -1.
         22    1    1    2    0    0 -0.21314705129E+00  0.12144796920E+00  0.34704693654E+01  0.34791290420E+01  0.00000000000E+00 0. -1.
</event>
<event>
 5    1  0.3454171E+002  0.1594922E+01  0.7818608E-02  0.3358894E+00
         11   -1    0    0    0    0  0.00000000000E+00  0.00000000000E+00  0.39999999674E+01  0.40000000000E+01  0.51100000000E-03 0.  1.
    9000002   -1    0    0    0    0 -0.00000000000E+00 -0.00000000000E+00  0.00000000000E+00  0.93800000000E+00  0.93800000000E+00 0.  1.
         11    1    1    2    0    0 -0.42197082354E+00  0.56697268036E+00  0.28105999777E+01  0.28981010838E+01  0.51100000000E-03 0.  1.
    9000002    1    1    2    0    0  0.51123405503E+00 -0.75262002828E+00  0.64388541342E+00  0.14567874216E+01  0.93800000000E+00 0.  1.
         22    1    1    2    0    0 -0.89263231486E-01  0.18564734792E+00  0.54551457626E+00  0.58311149465E+00  0.00000000000E+00 0.  1.
</event>
<event>
 5    1  0.3454171E+002  0.1599649E+01  0.7818608E-02  0.3353745E+00
         11   -1    0    0    0    0  0.00000000000E+00  0.00000000000E+00  0.39999999674E+01  0.40000000000E+01  0.51100000000E-03 0. -1.
    9000002   -1    0    0    0    0 -0.00000000000E+00 -0.00000000000E+00  0.00000000000E+00  0.93800000000E+00  0.93800000000E+00 0. -1.
         11    1    1    2    0    0  0.32548209501E-02  0.23396138554E-02  0.84940818737E-01  0.85036882946E-01  0.51100000000E-03 0. -1.
    9000002    1    1    2    0    0 -0.16534098980E+00 -0.19123301037E+00  0.42484029070E-01  0.97239734671E+00  0.93800000000E+00 0. -1.
         22    1    1    2    0    0  0.16208616885E+00  0.18889339651E+00  0.38725751196E+01  0.38805657703E+01  0.00000000000E+00 0. -1.
</event>
<event>
 5    1  0.3454171E+002  0.1583728E+01  0.7818608E-02  0.3371216E+00
         11   -1    0    0    0    0  0.00000000000E+00  0.00000000000E+00  0.39999999674E+01  0.40000000000E+01  0.51100000000E-03 0. -1.
    9000002   -1    0    0    0    0 -0.00000000000E+00 -0.00000000000E+00  0.00000000000E+00  0.93800000000E+00  0.93800000000E+00 0.  1.
         11    1    1    2    0    0 -0.26752337874E+00  0.83579887067E-01  0.25818519688E+01  0.25970202552E+01  0.51100000000E-03 0. -1.
    9000002    1    1    2    0    0  0.31756203366E+00 -0.32187564566E+00  0.15283415459E+00  0.10524504052E+01  0.93800000000E+00 0.  1.
         22    1    1    2    0    0 -0.50038654919E-01  0.23829575859E+00  0.12653138440E+01  0.12885293397E+01  0.00000000000E+00 0. -1.
</event>
<event>
 5    1  0.3454171E+002  0.1599668E+01  0.7818608E-02  0.3353724E+00
         11   -1    0    0    0    0  0.00000000000E+00  0.00000000000E+00  0.39999999674E+01  0.40000000000E+01  0.51100000000E-03 0.  1.
    9000002   -1    0    0    0    0 -0.00000000000E+00 -0.00000000000E+00  0.00000000000E+00  0.93800000000E+00  0.93800000000E+00 0. -1.
         11    1    1    2    0    0 -0.32232089993E-01 -0.10960823863E-01  0.32128860647E+00  0.32308772346E+00  0.51100000000E-03 0. -1.
    9000002    1    1    2    0    0  0.39482352233E+00  0.15549896380E+00  0.12185928429E+00  0.10367059500E+01  0.93800000000E+00 0. -1.
         22    1    1    2    0    0 -0.36259143234E+00 -0.14453813993E+00  0.35568520766E+01  0.35782063266E+01  0.00000000000E+00 0.  1.
</event>
<event>
 5    1  0.3454171E+002  0.1513450E+01  0.7818608E-02  0.3453014E+00
         11   -1    0    0    0    0  0.00000000000E+00  0.00000000000E+00  0.39999999674E+01  0.40000000000E+01  0.51100000000E-03 0. -1.
    9000002   -1    0    0    0    0 -0.00000000000E+00 -0.00000000000E+00  0.00000000000E+00  0.93800000000E+00  0.93800000000E+00 0.  1.
         11    1    1    2    0    0 -0.24439901698E+00  0.42763120210E+00  0.27354837879E+01  0.27794731767E+01  0.51100000000E-03 0. -1.
    9000002    1    1    2    0    0  0.52074335723E+00 -0.74004651700E+00  0.77877251135E+00  0.15182796567E+01  0.93800000000E+00 0.  1.
         22    1    1    2    0    0 -0.27634434025E+00  0.31241531490E+00  0.48574366806E+00  0.64024716668E+00  0.00000000000E+00 0. -1.
</event>
<event>
 5    1  0.3454171E+002  0.1595978E+01  0.7818608E-02  0.3357740E+00
         11   -1    0    0    0    0  0.00000000000E+00  0.00000000000E+00  0.39999999674E+01  0.40000000000E+01  0.51100000000E-03 0. -1.
    9000002   -1    0    0    0    0 -0.00000000000E+00 -0.00000000000E+00  0.00000000000E+00  0.93800000000E+00  0.93800000000E+00 0.  1.
         11    1    1    2    0    0 -0.10152129434E-02  0.96323247340E-01  0.71014176299E+00  0.71664550742E+00  0.51100000000E-03 0. -1.
    9000002    1    1    2    0    0 -0.13357308605E+00 -0.25429167902E+00  0.57858786486E-01  0.98269917396E+00  0.93800000000E+00 0.  1.
         22    1    1    2    0    0  0.13458829900E+00  0.15796843168E+00  0.32319994179E+01  0.32386553186E+01  0.00000000000E+00 0. -1.
</event>
<event>
 5    1  0.3454171E+002  0.1599675E+01  0.7818608E-02  0.3353716E+00
         11   -1    0    0    0    0  0.00000000000E+00  0.00000000000E+00  0.39999999674E+01  0.40000000000E+01  0.51100000000E-03 0. -1.
    9000002   -1    0    0    0    0 -0.00000000000E+00 -0.00000000000E+00  0.00000000000E+00  0.93800000000E+00  0.93800000000E+00 0.  1.
         11    1    1    2    0    0  0.31150893569E-01  0.29205606547E-01  0.62886747255E+00  0.63031571833E+00  0.51100000000E-03 0.  1.
    9000002    1    1    2    0    0 -0.18880573699E+00 -0.18568477241E+00  0.46640313973E-01  0.97577956523E+00  0.93800000000E+00 0.  1.
         22    1    1    2    0    0  0.15765484342E+00  0.15647916587E+00  0.33244921808E+01  0.33319047164E+01  0.00000000000E+00 0. -1.
</event>
<event>
 5    1  0.3454171E+002  0.1599624E+01  0.7818608E-02  0.3353772E+00
         11   -1    0    0    0    0  0.00000000000E+00  0.00000000000E+00  0.39999999674E+01  0.40000000000E+01  0.51100000000E-03 0. -1.
    9000002   -1    0    0    0    0 -0.00000000000E+00 -0.00000000000E+00  0.00000000000E+00  0.93800000000E+00  0.93800000000E+00 0.  1.
         11    1    1    2    0    0  0.37363873692E-01  0.25009033293E-02  0.69303168048E+00  0.69404285519E+00  0.51100000000E-03 0. -1.
    9000002    1    1    2    0    0 -0.24913765224E+00 -0.78799429238E-03  0.41270676086E-01  0.97139974233E+00  0.93800000000E+00 0.  1.
         22    1    1    2    0    0  0.21177377855E+00 -0.17129090369E-02  0.32656976108E+01  0.32725574025E+01  0.00000000000E+00 0. -1.
</event>
<event>
 5    1  0.3454171E+002  0.1557527E+01  0.7818608E-02  0.3400793E+00
         11   -1    0    0    0    0  0.00000000000E+00  0.00000000000E+00  0.39999999674E+01  0.40000000000E+01  0.51100000000E-03 0. -1.
    9000002   -1    0    0    0    0 -0.00000000000E+00 -0.00000000000E+00  0.00000000000E+00  0.93800000000E+00  0.93800000000E+00 0. -1.
         11    1    1    2    0    0 -0.17383571560E+00  0.29364634412E-01  0.77496830153E+00  0.79476868790E+00  0.51100000000E-03 0. -1.
    9000002    1    1    2    0    0 -0.10634949155E+00 -0.13942879975E-01  0.39054017927E-01  0.94492001491E+00  0.93800000000E+00 0. -1.
         22    1    1    2    0    0  0.28018520714E+00 -0.15421754437E-01  0.31859776479E+01  0.31983112972E+01  0.00000000000E+00 0. -1.
</event>
<event>
 5    1  0.3454171E+002  0.1599649E+01  0.7818608E-02  0.3353745E+00
         11   -1    0    0    0    0  0.00000000000E+00  0.00000000000E+00  0.39999999674E+01  0.40000000000E+01  0.51100000000E-03 0.  1.
    9000002   -1    0    0    0    0 -0.00000000000E+00 -0.00000000000E+00  0.00000000000E+00  0.93800000000E+00  0.93800000000E+00 0. -1.
         11    1    1    2    0    0  0.79163161316E-01 -0.22323849623E+00  0.19069874521E+01  0.19216408707E+01  0.51100000000E-03 0.  1.
    9000002    1    1    2    0    0 -0.16661958608E+00  0.45975666268E+00  0.16343120118E+00  0.10703700448E+01  0.93800000000E+00 0. -1.
         22    1    1    2    0    0  0.87456424761E-01 -0.23651816645E+00  0.19295813140E+01  0.19459890844E+01  0.00000000000E+00 0.  1.
</event>
<event>
 5    1  0.3454171E+002  0.1598525E+01  0.7818608E-02  0.3354966E+00
         11   -1    0    0    0    0  0.00000000000E+00  0.00000000000E+00  0.39999999674E+01  0.40000000000E+01  0.51100000000E-03 0. -1.
    9000002   -1    0    0    0    0 -0.00000000000E+00 -0.00000000000E+00  0.00000000000E+00  0.93800000000E+00  0.93800000000E+00 0. -1.
         11    1    1    2    0    0 -0.20651432282E+00 -0.44286244853E-01  0.15247331692E+01  0.15392923489E+01  0.51100000000E-03 0. -1.
    9000002    1    1    2    0    0  0.45840741883E+00  0.19159364203E+00  0.16992533039E+00  0.10749716755E+01  0.93800000000E+00 0. -1.
         22    1    1    2    0    0 -0.25189309601E+00 -0.14730739718E+00  0.23053414678E+01  0.23237359756E+01  0.00000000000E+00 0.  1.
</event>
<event>
 5    1  0.3454171E+002  0.1564221E+01  0.7818608E-02  0.3393136E+00
         11   -1    0    0    0    0  0.00000000000E+00  0.00000000000E+00  0.39999999674E+01  0.40000000000E+01  0.51100000000E-03 0. -1.
    9000002   -1    0    0    0    0 -0.00000000000E+00 -0.00000000000E+00  0.00000000000E+00  0.93800000000E+00  0.93800000000E+00 0. -1.
         11    1    1    2    0    0 -0.10432753574E+00 -0.13703050351E+00  0.25285652339E+01  0.25344237998E+01  0.51100000000E-03 0. -1.
    9000002    1    1    2    0    0 -0.99616520456E-01 -0.36553543489E-02  0.32894008981E-01  0.94385530066E+00  0.93800000000E+00 0. -1.
         22    1    1    2    0    0  0.20394405620E+00  0.14068585786E+00  0.14385407244E+01  0.14597208995E+01  0.00000000000E+00 0. -1.
</event>
<event>
 5    1  0.3454171E+002  0.1592376E+01  0.7818608E-02  0.3361680E+00
         11   -1    0    0    0    0  0.00000000000E+00  0.00000000000E+00  0.39999999674E+01  0.40000000000E+01  0.51100000000E-03 0.  1.
    9000002   -1    0    0    0    0 -0.00000000000E+00 -0.00000000000E+00  0.00000000000E+00  0.93800000000E+00  0.93800000000E+00 0. -1.
         11    1    1    2    0    0 -0.34844499151E-01 -0.13267994601E-01  0.15262425831E+00  0.15711334808E+00  0.51100000000E-03 0.  1.
    9000002    1    1    2    0    0  0.17404309728E+00 -0.39417415689E+00  0.13199372976E+00  0.10406395199E+01  0.93800000000E+00 0. -1.
         22    1    1    2    0    0 -0.13919859813E+00  0.40744215149E+00  0.37153819793E+01  0.37402471320E+01  0.00000000000E+00 0.  1.
</event>
<event>
 5    1  0.3454171E+002  0.1535817E+01  0.7818608E-02  0.3426114E+00
         11   -1    0    0    0    0  0.00000000000E+00  0.00000000000E+00  0.39999999674E+01  0.40000000000E+01  0.51100000000E-03 0.  1.
    9000002   -1    0    0    0    0 -0.00000000000E+00 -0.00000000000E+00  0.00000000000E+00  0.93800000000E+00  0.93800000000E+00 0.  1.
         11    1    1    2    0    0  0.27318042780E+00  0.12377875055E+00  0.25081709159E+01  0.25260384656E+01  0.51100000000E-03 0.  1.
    9000002    1    1    2    0    0  0.12797408262E-01 -0.65896518622E-01  0.50886406452E-01  0.94177468175E+00  0.93800000000E+00 0.  1.
         22    1    1    2    0    0 -0.28597783606E+00 -0.57882231931E-01  0.14409426450E+01  0.14701868526E+01  0.00000000000E+00 0.  1.
</event>
<event>
 5    1  0.3454171E+002  0.1599627E+01  0.7818608E-02  0.3353768E+00
         11   -1    0    0    0    0  0.00000000000E+00  0.00000000000E+00  0.39999999674E+01  0.40000000000E+01  0.51100000000E-03 0. -1.
    9000002   -1    0    0    0    0 -0.00000000000E+00 -0.00000000000E+00  0.00000000000E+00  0.93800000000E+00  0.93800000000E+00 0. -1.
         11    1    1    2    0    0  0.11850984745E+00  0.81922980220E-01  0.12948151509E+01  0.13028056243E+01  0.51100000000E-03 0. -1.
    9000002    1    1    2    0    0 -0.37536612906E+00 -0.23371250747E+00  0.13268648346E+00  0.10454525192E+01  0.93800000000E+00 0. -1.
         22    1    1    2    0    0  0.25685628160E+00  0.15178952725E+00  0.25724983330E+01  0.25897418565E+01  0.00000000000E+00 0. -1.
</event>
<event>
 5    1  0.3454171E+002  0.1564155E+01  0.7818608E-02  0.3393211E+00
         11   -1    0    0    0    0  0.00000000000E+00  0.00000000000E+00  0.39999999674E+01  0.40000000000E+01  0.51100000000E-03 0.  1.
    9000002   -1    0    0    0    0 -0.00000000000E+00 -0.00000000000E+00  0.00000000000E+00  0.93800000000E+00  0.93800000000E+00 0. -1.
         11    1    1    2    0    0 -0.87297854439E-01  0.16601433115E+00  0.22454569413E+01  0.22532773486E+01  0.51100000000E-03 0.  1.
    9000002    1    1    2    0    0 -0.97068322266E-01  0.14509226237E-01  0.32735990315E-01  0.94368873147E+00  0.93800000000E+00 0. -1.
         22    1    1    2    0    0  0.18436617670E+00 -0.18052355739E+00  0.17218070358E+01  0.17410339199E+01  0.00000000000E+00 0.  1.
</event>
<event>
 5    1  0.3454171E+002  0.1571199E+01  0.7818608E-02  0.3385228E+00
         11   -1    0    0    0    0  0.00000000000E+00  0.00000000000E+00  0.39999999674E+01  0.40000000000E+01  0.51100000000E-03 0.  1.
    9000002   -1    0    0    0    0 -0.00000000000E+00 -0.00000000000E+00  0.00000000000E+00  0.93800000000E+00  0.93800000000E+00 0.  1.
         11    1    1    2    0    0  0.32975417665E-02  0.11614175990E+00  0.36978512546E+00  0.38760944559E+00  0.51100000000E-03 0.  1.
    9000002    1    1    2    0    0 -0.16522604809E+00  0.25874396209E-01  0.39906485173E-01  0.95362763116E+00  0.93800000000E+00 0.  1.
         22    1    1    2    0    0  0.16192850632E+00 -0.14201615610E+00  0.35903083567E+01  0.35967629233E+01  0.00000000000E+00 0.  1.
</event>
<event>
 5    1  0.3454171E+002  0.1584038E+01  0.7818608E-02  0.3370872E+00
         11   -1    0    0    0    0  0.00000000000E+00  0.00000000000E+00  0.39999999674E+01  0.40000000000E+01  0.51100000000E-03 0.  1.
    9000002   -1    0    0    0    0 -0.00000000000E+00 -0.00000000000E+00  0.00000000000E+00  0.93800000000E+00  0.93800000000E+00 0. -1.
         11    1    1    2    0    0  0.20762325914E+00  0.41035250056E+00  0.14165874266E+01  0.14893679166E+01  0.51100000000E-03 0.  1.
    9000002    1    1    2    0    0 -0.24395136994E+00 -0.75886142550E+00  0.48803966876E+00  0.13241637558E+01  0.93800000000E+00 0. -1.
         22    1    1    2    0    0  0.36328110798E-01  0.34850892494E+00  0.20953728720E+01  0.21244683276E+01  0.00000000000E+00 0.  1.
</event>
<event>
 5    1  0.3454171E+002  0.1599594E+01  0.7818608E-02  0.3353804E+00
         11   -1    0    0    0    0  0.00000000000E+00  0.00000000000E+00  0.39999999674E+01  0.40000000000E+01  0.51100000000E-03 0.  1.
    9000002   -1    0    0    0    0 -0.00000000000E+00 -0.00000000000E+00  0.00000000000E+00  0.93800000000E+00  0.93800000000E+00 0. -1.
         11    1    1    2    0    0  0.21160503879E-01  0.16756862837E-01  0.50721655969E+00  0.50793450259E+00  0.51100000000E-03 0.  1.
    9000002    1    1    2    0    0 -0.20932219220E+00 -0.16670607904E+00  0.47698328182E-01  0.97658887330E+00  0.93800000000E+00 0. -1.
         22    1    1    2    0    0  0.18816168832E+00  0.14994921620E+00  0.34450850795E+01  0.34534766241E+01  0.00000000000E+00 0.  1.
</event>
<event>
 5    1  0.3454171E+002  0.1599601E+01  0.7818608E-02  0.3353796E+00
         11   -1    0    0    0    0  0.00000000000E+00  0.00000000000E+00  0.39999999674E+01  0.40000000000E+01  0.51100000000E-03 0.  1.
    9000002   -1    0    0    0    0 -0.00000000000E+00 -0.00000000000E+00  0.00000000000E+00  0.93800000000E+00  0.93800000000E+00 0. -1.
         11    1    1    2    0    0  0.15799718062E+00  0.85680945803E-01  0.15858062552E+01  0.15959592958E+01  0.51100000000E-03 0.  1.
    9000002    1    1    2    0    0 -0.37351066465E+00 -0.18818602199E+00  0.11833746556E+00  0.10338142731E+01  0.93800000000E+00 0. -1.
         22    1    1    2    0    0  0.21551348402E+00  0.10250507619E+00  0.22958562466E+01  0.23082264311E+01  0.00000000000E+00 0.  1.
</event>
<event>
 5    1  0.3454171E+002  0.1568375E+01  0.7818608E-02  0.3388420E+00
         11   -1    0    0    0    0  0.00000000000E+00  0.00000000000E+00  0.39999999674E+01  0.40000000000E+01  0.51100000000E-03 0. -1.
    9000002   -1    0    0    0    0 -0.00000000000E+00 -0.00000000000E+00  0.00000000000E+00  0.93800000000E+00  0.93800000000E+00 0.  1.
         11    1    1    2    0    0 -0.11283991629E+00 -0.53953844834E-01  0.50380115226E+00  0.51909510325E+00  0.51100000000E-03 0. -1.
    9000002    1    1    2    0    0 -0.12485955552E+00 -0.53392236153E-01  0.35553672619E-01  0.94844541389E+00  0.93800000000E+00 0.  1.
         22    1    1    2    0    0  0.23769947181E+00  0.10734608099E+00  0.34606451425E+01  0.34704594829E+01  0.00000000000E+00 0. -1.
</event>
<event>
 5    1  0.3454171E+002  0.1598505E+01  0.7818608E-02  0.3354987E+00
         11   -1    0    0    0    0  0.00000000000E+00  0.00000000000E+00  0.39999999674E+01  0.40000000000E+01  0.51100000000E-03 0. -1.
    9000002   -1    0    0    0    0 -0.00000000000E+00 -0.00000000000E+00  0.00000000000E+00  0.93800000000E+00  0.93800000000E+00 0. -1.
         11    1    1    2    0    0  0.68693045977E-01 -0.47594181683E-01  0.10710094458E+01  0.10742650673E+01  0.51100000000E-03 0. -1.
    9000002    1    1    2    0    0 -0.14701218122E+00  0.25877005103E+00  0.59992461166E-01  0.98590953750E+00  0.93800000000E+00 0. -1.
         22    1    1    2    0    0  0.78319135243E-01 -0.21117586935E+00  0.28689980604E+01  0.28778253952E+01  0.00000000000E+00 0. -1.
</event>
<event>
 5    1  0.3454171E+002  0.1545060E+01  0.7818608E-02  0.3415241E+00
         11   -1    0    0    0    0  0.00000000000E+00  0.00000000000E+00  0.39999999674E+01  0.40000000000E+01  0.51100000000E-03 0.  1.
    9000002   -1    0    0    0    0 -0.00000000000E+00 -0.00000000000E+00  0.00000000000E+00  0.93800000000E+00  0.93800000000E+00 0. -1.
         11    1    1    2    0    0 -0.11170726450E+00  0.11029242920E+00  0.29044731635E+00  0.33015577774E+00  0.51100000000E-03 0.  1.
    9000002    1    1    2    0    0 -0.10499819704E+00 -0.22602875565E+00  0.84214965331E-01  0.97419186003E+00  0.93800000000E+00 0. -1.
         22    1    1    2    0    0  0.21670546154E+00  0.11573632644E+00  0.36253376857E+01  0.36336523622E+01  0.00000000000E+00 0.  1.
</event>
<event>
 5    1  0.3454171E+002  0.1599672E+01  0.7818608E-02  0.3353720E+00
         11   -1    0    0    0    0  0.00000000000E+00  0.00000000000E+00  0.39999999674E+01  0.40000000000E+01  0.51100000000E-03 0. -1.
    9000002   -1    0    0    0    0 -0.00000000000E+00 -0.00000000000E+00  0.00000000000E+00  0.93800000000E+00  0.93800000000E+00 0. -1.
         11    1    1    2    0    0  0.38318519479E-01  0.11783140563E+00  0.11693873603E+01  0.11759335052E+01  0.51100000000E-03 0. -1.
    9000002    1    1    2    0    0 -0.12083969702E+00 -0.38667307175E+00  0.11077870149E+00  0.10277325613E+01  0.93800000000E+00 0. -1.
         22    1    1    2    0    0  0.82521177537E-01  0.26884166612E+00  0.27198339056E+01  0.27343339335E+01  0.00000000000E+00 0. -1.
</event>
<event>
 5    1  0.3454171E+002  0.1571179E+01  0.7818608E-02  0.3385251E+00
         11   -1    0    0    0    0  0.00000000000E+00  0.00000000000E+00  0.39999999674E+01  0.40000000000E+01  0.51100000000E-03 0.  1.
    9000002   -1    0    0    0    0 -0.00000000000E+00 -0.00000000000E+00  0.00000000000E+00  0.93800000000E+00  0.93800000000E+00 0. -1.
         11    1    1    2    0    0 -0.13946874783E+00 -0.97308621597E-01  0.18652549056E+01  0.18729913570E+01  0.51100000000E-03 0.  1.
    9000002    1    1    2    0    0 -0.93672614566E-01  0.23326040777E-01  0.27230296868E-01  0.94334731248E+00  0.93800000000E+00 0. -1.
         22    1    1    2    0    0  0.23314136240E+00  0.73982580821E-01  0.21075147649E+01  0.21216613305E+01  0.00000000000E+00 0.  1.
</event>
<event>
 5    1  0.3454171E+002  0.1593129E+01  0.7818608E-02  0.3360855E+00
         11   -1    0    0    0    0  0.00000000000E+00  0.00000000000E+00  0.39999999674E+01  0.40000000000E+01  0.51100000000E-03 0. -1.
    9000002   -1    0    0    0    0 -0.00000000000E+00 -0.00000000000E+00  0.00000000000E+00  0.93800000000E+00  0.93800000000E+00 0. -1.
         11    1    1    2    0    0 -0.48259161223E-02 -0.34570151205E-01  0.12199723229E+01  0.12204716771E+01  0.51100000000E-03 0. -1.
    9000002    1    1    2    0    0 -0.24165273153E+00 -0.25528150300E-01  0.44209537893E-01  0.96997227401E+00  0.93800000000E+00 0. -1.
         22    1    1    2    0    0  0.24647864766E+00  0.60098301505E-01  0.27358181066E+01  0.27475560489E+01  0.00000000000E+00 0. -1.
</event>
<event>
 5    1  0.3454171E+002  0.1598878E+01  0.7818608E-02  0.3354582E+00
         11   -1    0    0    0    0  0.00000000000E+00  0.00000000000E+00  0.39999999674E+01  0.40000000000E+01  0.51100000000E-03 0.  1.
    9000002   -1    0    0    0    0 -0.00000000000E+00 -0.00000000000E+00  0.00000000000E+00  0.93800000000E+00  0.93800000000E+00 0.  1.
         11    1    1    2    0    0  0.15588228234E-01 -0.12324540220E-01  0.42675374284E+00  0.42721646188E+00  0.51100000000E-03 0.  1.
    9000002    1    1    2    0    0 -0.33607879695E+00  0.85370380813E-01  0.81234028594E-01  0.10033344542E+01  0.93800000000E+00 0.  1.
         22    1    1    2    0    0  0.32049056872E+00 -0.73045840592E-01  0.34920121959E+01  0.35074490839E+01  0.00000000000E+00 0.  1.
</event>
<event>
 5    1  0.3454171E+002  0.1539897E+01  0.7818608E-02  0.3421297E+00
         11   -1    0    0    0    0  0.00000000000E+00  0.00000000000E+00  0.39999999674E+01  0.40000000000E+01  0.51100000000E-03 0.  1.
    9000002   -1    0    0    0    0 -0.00000000000E+00 -0.00000000000E+00  0.00000000000E+00  0.93800000000E+00  0.93800000000E+00 0.  1.
         11    1    1    2    0    0 -0.78654364785E-01 -0.22129006125E+00  0.19637056882E+01  0.19776996969E+01  0.51100000000E-03 0.  1.
    9000002    1    1    2    0    0 -0.72854426311E-01 -0.99752026913E-01  0.55260950800E-01  0.94771093008E+00  0.93800000000E+00 0.  1.
         22    1    1    2    0    0  0.15150879110E+00  0.32104208816E+00  0.19810333284E+01  0.20125893730E+01  0.00000000000E+00 0.  1.
</event>
<event>
 5    1  0.3454171E+002  0.1569915E+01  0.7818608E-02  0.3386678E+00
         11   -1    0    0    0    0  0.00000000000E+00  0.00000000000E+00  0.39999999674E+01  0.40000000000E+01  0.51100000000E-03 0. -1.
    9000002   -1    0    0    0    0 -0.00000000000E+00 -0.00000000000E+00  0.00000000000E+00  0.93800000000E+00  0.93800000000E+00 0.  1.
         11    1    1    2    0    0  0.36219175560E-01 -0.23998909290E-01  0.31379166916E+01  0.31382175197E+01  0.51100000000E-03 0. -1.
    9000002    1    1    2    0    0  0.65172915395E-01 -0.15258816727E+00  0.40587587674E-01  0.95342645755E+00  0.93800000000E+00 0.  1.
         22    1    1    2    0    0 -0.10139209096E+00  0.17658707656E+00  0.82149568812E+00  0.84635602279E+00  0.00000000000E+00 0.  1.
</event>
<event>
 5    1  0.3454171E+002  0.1599613E+01  0.7818608E-02  0.3353784E+00
         11   -1    0    0    0    0  0.00000000000E+00  0.00000000000E+00  0.39999999674E+01  0.40000000000E+01  0.51100000000E-03 0. -1.
    9000002   -1    0    0    0    0 -0.00000000000E+00 -0.00000000000E+00  0.00000000000E+00  0.93800000000E+00  0.93800000000E+00 0. -1.
         11    1    1    2    0    0  0.34541493278E-01  0.41238683700E-01  0.80744103757E+00  0.80923113760E+00  0.51100000000E-03 0. -1.
    9000002    1    1    2    0    0 -0.19053335045E+00 -0.17056157375E+00  0.43509106383E-01  0.97320668432E+00  0.93800000000E+00 0. -1.
         22    1    1    2    0    0  0.15599185717E+00  0.12932289005E+00  0.31490498234E+01  0.31555621781E+01  0.00000000000E+00 0. -1.
</event>
<event>
 5    1  0.3454171E+002  0.1599671E+01  0.7818608E-02  0.3353721E+00
         11   -1    0    0    0    0  0.00000000000E+00  0.00000000000E+00  0.39999999674E+01  0.40000000000E+01  0.51100000000E-03 0.  1.
    9000002   -1    0    0    0    0 -0.00000000000E+00 -0.00000000000E+00  0.00000000000E+00  0.93800000000E+00  0.93800000000E+00 0.  1.
         11    1    1    2    0    0  0.30601356835E+00 -0.65278289024E-01  0.21858183499E+01  0.22081004684E+01  0.51100000000E-03 0.  1.
    9000002    1    1    2    0    0 -0.52714948524E+00  0.11578712092E+00  0.20081484771E+00  0.11006651808E+01  0.93800000000E+00 0.  1.
         22    1    1    2    0    0  0.22113591689E+00 -0.50508831898E-01  0.16133667698E+01  0.16292343508E+01  0.00000000000E+00 0. -1.
</event>
<event>
 5    1  0.3454171E+002  0.1599570E+01  0.7818608E-02  0.3353830E+00
         11   -1    0    0    0    0  0.00000000000E+00  0.00000000000E+00  0.39999999674E+01  0.40000000000E+01  0.51100000000E-03 0.  1.
    9000002   -1    0    0    0    0 -0.00000000000E+00 -0.00000000000E+00  0.00000000000E+00  0.93800000000E+00  0.93800000000E+00 0. -1.
         11    1    1    2    0    0  0.72241965245E-01 -0.68355139296E-02  0.80742412102E+00  0.81067848011E+00  0.51100000000E-03 0.  1.
    9000002    1    1    2    0    0 -0.36571688772E+00 -0.13029194441E-01  0.90042945958E-01  0.10108760231E+01  0.93800000000E+00 0. -1.
         22    1    1    2    0    0  0.29347492248E+00  0.19864708371E-01  0.31025329004E+01  0.31164454968E+01  0.00000000000E+00 0.  1.
</event>
<event>
 5    1  0.3454171E+002  0.1599296E+01  0.7818608E-02  0.3354128E+00
         11   -1    0    0    0    0  0.00000000000E+00  0.00000000000E+00  0.39999999674E+01  0.40000000000E+01  0.51100000000E-03 0.  1.
    9000002   -1    0    0    0    0 -0.00000000000E+00 -0.00000000000E+00  0.00000000000E+00  0.93800000000E+00  0.93800000000E+00 0. -1.
         11    1    1    2    0    0 -0.10829905363E-01 -0.11695424294E-01  0.19914877894E+00  0.19978630351E+00  0.51100000000E-03 0.  1.
    9000002    1    1    2    0    0  0.12172325175E-01  0.21678448763E+00  0.31531236109E-01  0.96331817092E+00  0.93800000000E+00 0. -1.
         22    1    1    2    0    0 -0.13424198119E-02 -0.20508906334E+00  0.37693199523E+01  0.37748955256E+01  0.00000000000E+00 0.  1.
</event>
<event>
 5    1  0.3454171E+002  0.1599640E+01  0.7818608E-02  0.3353754E+00
         11   -1    0    0    0    0  0.00000000000E+00  0.00000000000E+00  0.39999999674E+01  0.40000000000E+01  0.51100000000E-03 0. -1.
    9000002   -1    0    0    0    0 -0.00000000000E+00 -0.00000000000E+00  0.00000000000E+00  0.93800000000E+00  0.93800000000E+00 0. -1.
         11    1    1    2    0    0  0.15753550741E+00  0.19417150475E+00  0.20698415363E+01  0.20848895068E+01  0.51100000000E-03 0. -1.
    9000002    1    1    2    0    0 -0.28647100807E+00 -0.35069718619E+00  0.13935951181E+00  0.10508659422E+01  0.93800000000E+00 0. -1.
         22    1    1    2    0    0  0.12893550066E+00  0.15652568144E+00  0.17907989193E+01  0.18022445510E+01  0.00000000000E+00 0. -1.
</event>
<event>
 5    1  0.3454171E+002  0.1571306E+01  0.7818608E-02  0.3385108E+00
         11   -1    0    0    0    0  0.00000000000E+00  0.00000000000E+00  0.39999999674E+01  0.40000000000E+01  0.51100000000E-03 0.  1.
    9000002   -1    0    0    0    0 -0.00000000000E+00 -0.00000000000E+00  0.00000000000E+00  0.93800000000E+00  0.93800000000E+00 0.  1.
         11    1    1    2    0    0 -0.90057209133E-01 -0.92681253304E-01  0.26682747218E+01  0.26714023224E+01  0.51100000000E-03 0.  1.
    9000002    1    1    2    0    0 -0.36397082816E-01 -0.89070501827E-01  0.27094192558E-01  0.94331139991E+00  0.93800000000E+00 0.  1.
         22    1    1    2    0    0  0.12645429195E+00  0.18175175513E+00  0.13046310530E+01  0.13232862777E+01  0.00000000000E+00 0.  1.
</event>
<event>
 5    1  0.3454171E+002  0.1591380E+01  0.7818608E-02  0.3362772E+00
         11   -1    0    0    0    0  0.00000000000E+00  0.00000000000E+00  0.39999999674E+01  0.40000000000E+01  0.51100000000E-03 0. -1.
    9000002   -1    0    0    0    0 -0.00000000000E+00 -0.00000000000E+00  0.00000000000E+00  0.93800000000E+00  0.93800000000E+00 0. -1.
         11    1    1    2    0    0  0.37784201241E+00  0.10062792641E+00  0.18613563199E+01  0.19019826962E+01  0.51100000000E-03 0. -1.
    9000002    1    1    2    0    0 -0.80109979072E+00 -0.17058025455E-02  0.48376040205E+00  0.13250026079E+01  0.93800000000E+00 0. -1.
         22    1    1    2    0    0  0.42325777831E+00 -0.98922123860E-01  0.16548832454E+01  0.17110146958E+01  0.00000000000E+00 0. -1.
</event>
<event>
 5    1  0.4016334E+002  0.1568592E+01  0.7818608E-02  0.3388174E+00
         11   -1    0    0    0    0  0.00000000000E+00  0.00000000000E+00  0.39999999674E+01  0.40000000000E+01  0.51100000000E-03 0. -1.
    9000002   -1    0    0    0    0 -0.00000000000E+00 -0.00000000000E+00  0.00000000000E+00  0.93800000000E+00  0.93800000000E+00 0. -1.
         11    1    1    2    0    0  0.12409563583E+00 -0.11448928621E+00  0.25411419188E+01  0.25467449884E+01  0.51100000000E-03 0. -1.
    9000002    1    1    2    0    0  0.59525648440E-01 -0.14381120506E-01  0.25389926038E-01  0.94033970872E+00  0.93800000000E+00 0. -1.
         22    1    1    2    0    0 -0.18362128427E+00  0.12887040672E+00  0.14334681225E+01  0.14509153029E+01  0.00000000000E+00 0. -1.
</event>
<event>
 5    1  0.3454171E+002  0.1584301E+01  0.7818608E-02  0.3370581E+00
         11   -1    0    0    0    0  0.00000000000E+00  0.00000000000E+00  0.39999999674E+01  0.40000000000E+01  0.51100000000E-03 0.  1.
    9000002   -1    0    0    0    0 -0.00000000000E+00 -0.00000000000E+00  0.00000000000E+00  0.93800000000E+00  0.93800000000E+00 0.  1.
         11    1    1    2    0    0 -0.63900978387E+00  0.32638068745E-01  0.24303369755E+01  0.25131527656E+01  0.51100000000E-03 0.  1.
    9000002    1    1    2    0    0  0.87144269097E+00  0.14091183200E+00  0.61550707677E+00  0.14275718790E+01  0.93800000000E+00 0.  1.
         22    1    1    2    0    0 -0.23243290710E+00 -0.17354990074E+00  0.95415591504E+00  0.99727535544E+00  0.00000000000E+00 0. -1.
</event>
<event>
 5    1  0.3454171E+002  0.1599677E+01  0.7818608E-02  0.3353714E+00
         11   -1    0    0    0    0  0.00000000000E+00  0.00000000000E+00  0.39999999674E+01  0.40000000000E+01  0.51100000000E-03 0. -1.
    9000002   -1    0    0    0    0 -0.00000000000E+00 -0.00000000000E+00  0.00000000000E+00  0.93800000000E+00  0.93800000000E+00 0.  1.
         11    1    1    2    0    0 -0.34689908785E-01  0.46861860679E-01  0.88911850582E+00  0.89102828365E+00  0.51100000000E-03 0.  1.
    9000002    1    1    2    0    0  0.15320065519E+00 -0.20841457755E+00  0.44475859626E-01  0.97402729889E+00  0.93800000000E+00 0.  1.
         22    1    1    2    0    0 -0.11851074641E+00  0.16155271687E+00  0.30664056019E+01  0.30729444175E+01  0.00000000000E+00 0. -1.
</event>
<event>
 5    1  0.3454171E+002  0.1599676E+01  0.7818608E-02  0.3353715E+00
         11   -1    0    0    0    0  0.00000000000E+00  0.00000000000E+00  0.39999999674E+01  0.40000000000E+01  0.51100000000E-03 0. -1.
    9000002   -1    0    0    0    0 -0.00000000000E+00 -0.00000000000E+00  0.00000000000E+00  0.93800000000E+00  0.93800000000E+00 0. -1.
         11    1    1    2    0    0 -0.30957870791E+00  0.32924195397E+00  0.25476382360E+01  0.25874118503E+01  0.51100000000E-03 0. -1.
    9000002    1    1    2    0    0  0.44800790172E+00 -0.47734067468E+00  0.30275648427E+00  0.11832458276E+01  0.93800000000E+00 0. -1.
         22    1    1    2    0    0 -0.13842919381E+00  0.14809872071E+00  0.11496052471E+01  0.11673423221E+01  0.00000000000E+00 0. -1.
</event>
<event>
 5    1  0.3454171E+002  0.1526899E+01  0.7818608E-02  0.3436738E+00
         11   -1    0    0    0    0  0.00000000000E+00  0.00000000000E+00  0.39999999674E+01  0.40000000000E+01  0.51100000000E-03 0. -1.
    9000002   -1    0    0    0    0 -0.00000000000E+00 -0.00000000000E+00  0.00000000000E+00  0.93800000000E+00  0.93800000000E+00 0.  1.
         11    1    1    2    0    0  0.74606526608E-01  0.27504110124E+00  0.92577931876E+00  0.96864923958E+00  0.51100000000E-03 0. -1.
    9000002    1    1    2    0    0 -0.26756028662E-01 -0.28940332728E-01  0.55744970379E-01  0.94048122238E+00  0.93800000000E+00 0.  1.
         22    1    1    2    0    0 -0.47850497946E-01 -0.24610076851E+00  0.30184756782E+01  0.30288695380E+01  0.00000000000E+00 0. -1.
</event>
<event>
 5    1  0.3454171E+002  0.1593674E+01  0.7818608E-02  0.3360258E+00
         11   -1    0    0    0    0  0.00000000000E+00  0.00000000000E+00  0.39999999674E+01  0.40000000000E+01  0.51100000000E-03 0. -1.
    9000002   -1    0    0    0    0 -0.00000000000E+00 -0.00000000000E+00  0.00000000000E+00  0.93800000000E+00  0.93800000000E+00 0.  1.
         11    1    1    2    0    0 -0.36197788255E-01 -0.29310985593E-02  0.17916415654E+00  0.18280844434E+00  0.51100000000E-03 0. -1.
    9000002    1    1    2    0    0 -0.45834936936E-01  0.21431719532E+00  0.36381246015E-01  0.96395036009E+00  0.93800000000E+00 0.  1.
         22    1    1    2    0    0  0.82032725190E-01 -0.21138609676E+00  0.37844545648E+01  0.37912411956E+01  0.00000000000E+00 0. -1.
</event>
<event>
 5    1  0.3454171E+002  0.1598138E+01  0.7818608E-02  0.3355387E+00
         11   -1    0    0    0    0  0.00000000000E+00  0.00000000000E+00  0.39999999674E+01  0.40000000000E+01  0.51100000000E-03 0. -1.
    9000002   -1    0    0    0    0 -0.00000000000E+00 -0.00000000000E+00  0.00000000000E+00  0.93800000000E+00  0.93800000000E+00 0.  1.
         11    1    1    2    0    0  0.60428871230E-01 -0.13455606823E-01  0.44830429872E+00  0.45255906488E+00  0.51100000000E-03 0. -1.
    9000002    1    1    2    0    0 -0.32575497832E+00 -0.50153268704E-01  0.73905310292E-01  0.99696421759E+00  0.93800000000E+00 0.  1.
         22    1    1    2    0    0  0.26532610709E+00  0.63608875527E-01  0.34777903584E+01  0.34884767175E+01  0.00000000000E+00 0. -1.
</event>
<event>
 5    1  0.3454171E+002  0.1599651E+01  0.7818608E-02  0.3353742E+00
         11   -1    0    0    0    0  0.00000000000E+00  0.00000000000E+00  0.39999999674E+01  0.40000000000E+01  0.51100000000E-03 0. -1.
    9000002   -1    0    0    0    0 -0.00000000000E+00 -0.00000000000E+00  0.00000000000E+00  0.93800000000E+00  0.93800000000E+00 0. -1.
         11    1    1    2    0    0 -0.14774842621E-01 -0.37544899807E-01  0.51044597461E+00  0.51203834778E+00  0.51100000000E-03 0. -1.
    9000002    1    1    2    0    0  0.14172629871E+00  0.30303528835E+00  0.74937222473E-01  0.99868729693E+00  0.93800000000E+00 0. -1.
         22    1    1    2    0    0 -0.12695145609E+00 -0.26549038855E+00  0.34146167703E+01  0.34272743553E+01  0.00000000000E+00 0. -1.
</event>
<event>
 5    1  0.3454171E+002  0.1599545E+01  0.7818608E-02  0.3353858E+00
         11   -1    0    0    0    0  0.00000000000E+00  0.00000000000E+00  0.39999999674E+01  0.40000000000E+01  0.51100000000E-03 0. -1.
    9000002   -1    0    0    0    0 -0.00000000000E+00 -0.00000000000E+00  0.00000000000E+00  0.93800000000E+00  0.93800000000E+00 0.  1.
         11    1    1    2    0    0 -0.16637614120E-01 -0.47347044397E-01  0.45956980168E+00  0.46230208366E+00  0.51100000000E-03 0. -1.
    9000002    1    1    2    0    0  0.10929633202E+00  0.33454841928E+00  0.83179711518E-01  0.10053015455E+01  0.93800000000E+00 0.  1.
         22    1    1    2    0    0 -0.92658717903E-01 -0.28720137489E+00  0.34572504542E+01  0.34703963708E+01  0.00000000000E+00 0. -1.
</event>
<event>
 5    1  0.3454171E+002  0.1536329E+01  0.7818608E-02  0.3425508E+00
         11   -1    0    0    0    0  0.00000000000E+00  0.00000000000E+00  0.39999999674E+01  0.40000000000E+01  0.51100000000E-03 0.  1.
    9000002   -1    0    0    0    0 -0.00000000000E+00 -0.00000000000E+00  0.00000000000E+00  0.93800000000E+00  0.93800000000E+00 0. -1.
         11    1    1    2    0    0  0.26490304975E+00  0.18129721168E+00  0.12819227771E+01  0.13215023921E+01  0.51100000000E-03 0.  1.
    9000002    1    1    2    0    0 -0.73012509042E-01 -0.92115992699E-01  0.57034394680E-01  0.94705496396E+00  0.93800000000E+00 0. -1.
         22    1    1    2    0    0 -0.19189054071E+00 -0.89181218983E-01  0.26610427955E+01  0.26694426439E+01  0.00000000000E+00 0.  1.
</event>
<event>
 5    1  0.3454171E+002  0.1590675E+01  0.7818608E-02  0.3363547E+00
         11   -1    0    0    0    0  0.00000000000E+00  0.00000000000E+00  0.39999999674E+01  0.40000000000E+01  0.51100000000E-03 0. -1.
    9000002   -1    0    0    0    0 -0.00000000000E+00 -0.00000000000E+00  0.00000000000E+00  0.93800000000E+00  0.93800000000E+00 0. -1.
         11    1    1    2    0    0  0.10825643858E+00  0.26677520814E-01  0.19343410179E+01  0.19375516977E+01  0.51100000000E-03 0. -1.
    9000002    1    1    2    0    0 -0.24574565812E+00  0.17665966520E+00  0.68211615946E-01  0.98797590575E+00  0.93800000000E+00 0. -1.
         22    1    1    2    0    0  0.13748921955E+00 -0.20333718601E+00  0.19974473336E+01  0.20124723966E+01  0.00000000000E+00 0.  1.
</event>
<event>
 5    1  0.3454171E+002  0.1599425E+01  0.7818608E-02  0.3353988E+00
         11   -1    0    0    0    0  0.00000000000E+00  0.00000000000E+00  0.39999999674E+01  0.40000000000E+01  0.51100000000E-03 0. -1.
    9000002   -1    0    0    0    0 -0.00000000000E+00 -0.00000000000E+00  0.00000000000E+00  0.93800000000E+00  0.93800000000E+00 0.  1.
         11    1    1    2    0    0 -0.76980435056E-01  0.71138269425E-01  0.95011637243E+00  0.95588075775E+00  0.51100000000E-03 0. -1.
    9000002    1    1    2    0    0  0.27775349698E+00 -0.23743244001E+00  0.89888174742E-01  0.10106656483E+01  0.93800000000E+00 0.  1.
         22    1    1    2    0    0 -0.20077306193E+00  0.16629417059E+00  0.29599954202E+01  0.29714535940E+01  0.00000000000E+00 0. -1.
</event>
<event>
 5    1  0.3454171E+002  0.1599284E+01  0.7818608E-02  0.3354141E+00
         11   -1    0    0    0    0  0.00000000000E+00  0.00000000000E+00  0.39999999674E+01  0.40000000000E+01  0.51100000000E-03 0. -1.
    9000002   -1    0    0    0    0 -0.00000000000E+00 -0.00000000000E+00  0.00000000000E+00  0.93800000000E+00  0.93800000000E+00 0.  1.
         11    1    1    2    0    0 -0.31740942091E-01  0.23287655935E-01  0.31459752871E+00  0.31705152344E+00  0.51100000000E-03 0. -1.
    9000002    1    1    2    0    0  0.36156269259E+00 -0.13054176512E+00  0.99801694915E-01  0.10186133277E+01  0.93800000000E+00 0.  1.
         22    1    1    2    0    0 -0.32982175050E+00  0.10725410919E+00  0.35856007437E+01  0.36023351488E+01  0.00000000000E+00 0. -1.
</event>
<event>
 5    1  0.3454171E+002  0.1548340E+01  0.7818608E-02  0.3411415E+00
         11   -1    0    0    0    0  0.00000000000E+00  0.00000000000E+00  0.39999999674E+01  0.40000000000E+01  0.51100000000E-03 0.  1.
    9000002   -1    0    0    0    0 -0.00000000000E+00 -0.00000000000E+00  0.00000000000E+00  0.93800000000E+00  0.93800000000E+00 0. -1.
         11    1    1    2    0    0  0.83540458087E-01 -0.96166042265E-01  0.33147690728E+01  0.33172158783E+01  0.51100000000E-03 0.  1.
    9000002    1    1    2    0    0  0.11290055528E+00 -0.98916663177E-03  0.46959393141E-01  0.94593694210E+00  0.93800000000E+00 0. -1.
         22    1    1    2    0    0 -0.19644101337E+00  0.97155208897E-01  0.63827150142E+00  0.67484717965E+00  0.00000000000E+00 0.  1.
</event>
<event>
 5    1  0.3454171E+002  0.1599498E+01  0.7818608E-02  0.3353908E+00
         11   -1    0    0    0    0  0.00000000000E+00  0.00000000000E+00  0.39999999674E+01  0.40000000000E+01  0.51100000000E-03 0.  1.
    9000002   -1    0    0    0    0 -0.00000000000E+00 -0.00000000000E+00  0.00000000000E+00  0.93800000000E+00  0.93800000000E+00 0. -1.
         11    1    1    2    0    0  0.18389893749E+00 -0.64528127212E-01  0.95145136778E+00  0.97120680845E+00  0.51100000000E-03 0.  1.
    9000002    1    1    2    0    0 -0.72971188529E+00  0.20422245414E+00  0.41744672370E+00  0.12760454590E+01  0.93800000000E+00 0. -1.
         22    1    1    2    0    0  0.54581294780E+00 -0.13969432693E+00  0.26311018759E+01  0.26907477326E+01  0.00000000000E+00 0.  1.
</event>
<event>
 5    1  0.3454171E+002  0.1550768E+01  0.7818608E-02  0.3408595E+00
         11   -1    0    0    0    0  0.00000000000E+00  0.00000000000E+00  0.39999999674E+01  0.40000000000E+01  0.51100000000E-03 0.  1.
    9000002   -1    0    0    0    0 -0.00000000000E+00 -0.00000000000E+00  0.00000000000E+00  0.93800000000E+00  0.93800000000E+00 0. -1.
         11    1    1    2    0    0 -0.89171153218E-01  0.20181817757E-01  0.11163968547E+00  0.14429996822E+00  0.51100000000E-03 0.  1.
    9000002    1    1    2    0    0 -0.13589999555E-01  0.30513481375E+00  0.10170305177E+00  0.99170532589E+00  0.93800000000E+00 0. -1.
         22    1    1    2    0    0  0.10276115277E+00 -0.32531663151E+00  0.37866572301E+01  0.38019947059E+01  0.00000000000E+00 0.  1.
</event>
<event>
 5    1  0.3454171E+002  0.1598526E+01  0.7818608E-02  0.3354965E+00
         11   -1    0    0    0    0  0.00000000000E+00  0.00000000000E+00  0.39999999674E+01  0.40000000000E+01  0.51100000000E-03 0. -1.
    9000002   -1    0    0    0    0 -0.00000000000E+00 -0.00000000000E+00  0.00000000000E+00  0.93800000000E+00  0.93800000000E+00 0. -1.
         11    1    1    2    0    0  0.21408498217E+00 -0.65373112438E+00  0.15706013701E+01  0.17146386463E+01  0.51100000000E-03 0. -1.
    9000002    1    1    2    0    0 -0.30247776453E+00  0.11443214891E+01  0.13148250684E+01  0.20023919269E+01  0.93800000000E+00 0. -1.
         22    1    1    2    0    0  0.88392782358E-01 -0.49059036469E+00  0.11145735289E+01  0.12209694268E+01  0.00000000000E+00 0. -1.
</event>
<event>
 5    1  0.3454171E+002  0.1599378E+01  0.7818608E-02  0.3354038E+00
         11   -1    0    0    0    0  0.00000000000E+00  0.00000000000E+00  0.39999999674E+01  0.40000000000E+01  0.51100000000E-03 0. -1.
    9000002   -1    0    0    0    0 -0.00000000000E+00 -0.00000000000E+00  0.00000000000E+00  0.93800000000E+00  0.93800000000E+00 0.  1.
         11    1    1    2    0    0 -0.19157853329E+00 -0.25280917442E+00  0.21017757297E+01  0.21255766964E+01  0.51100000000E-03 0. -1.
    9000002    1    1    2    0    0  0.32481241655E+00  0.42639280517E+00  0.19820880094E+00  0.10983827470E+01  0.93800000000E+00 0.  1.
         22    1    1    2    0    0 -0.13323388325E+00 -0.17358363075E+00  0.17000154367E+01  0.17140405565E+01  0.00000000000E+00 0. -1.
</event>
<event>
 5    1  0.3454171E+002  0.1599671E+01  0.7818608E-02  0.3353721E+00
         11   -1    0    0    0    0  0.00000000000E+00  0.00000000000E+00  0.39999999674E+01  0.40000000000E+01  0.51100000000E-03 0. -1.
    9000002   -1    0    0    0    0 -0.00000000000E+00 -0.00000000000E+00  0.00000000000E+00  0.93800000000E+00  0.93800000000E+00 0. -1.
         11    1    1    2    0    0 -0.17372530096E-03  0.96979883639E-02  0.16472912809E+00  0.16501523542E+00  0.51100000000E-03 0.  1.
    9000002    1    1    2    0    0  0.24060123443E-02 -0.25968936447E+00  0.44841486071E-01  0.97431982110E+00  0.93800000000E+00 0. -1.
         22    1    1    2    0    0 -0.22322870433E-02  0.24999137610E+00  0.37904293532E+01  0.37986649435E+01  0.00000000000E+00 0. -1.
</event>
<event>
 5    1  0.3454171E+002  0.1599654E+01  0.7818608E-02  0.3353739E+00
         11   -1    0    0    0    0  0.00000000000E+00  0.00000000000E+00  0.39999999674E+01  0.40000000000E+01  0.51100000000E-03 0.  1.
    9000002   -1    0    0    0    0 -0.00000000000E+00 -0.00000000000E+00  0.00000000000E+00  0.93800000000E+00  0.93800000000E+00 0.  1.
         11    1    1    2    0    0 -0.87789346551E-02  0.14945607436E-01  0.26548750836E+00  0.26605322605E+00  0.51100000000E-03 0.  1.
    9000002    1    1    2    0    0  0.13009290080E+00 -0.26471092622E+00  0.58027270216E-01  0.98499096513E+00  0.93800000000E+00 0.  1.
         22    1    1    2    0    0 -0.12131396615E+00  0.24976531878E+00  0.36764851888E+01  0.36869558088E+01  0.00000000000E+00 0.  1.
</event>
<event>
 5    1  0.3454171E+002  0.1599417E+01  0.7818608E-02  0.3353997E+00
         11   -1    0    0    0    0  0.00000000000E+00  0.00000000000E+00  0.39999999674E+01  0.40000000000E+01  0.51100000000E-03 0.  1.
    9000002   -1    0    0    0    0 -0.00000000000E+00 -0.00000000000E+00  0.00000000000E+00  0.93800000000E+00  0.93800000000E+00 0. -1.
         11    1    1    2    0    0 -0.51232693763E-01  0.35845894825E-01  0.10278597282E+01  0.10297599716E+01  0.51100000000E-03 0.  1.
    9000002    1    1    2    0    0  0.21772802800E+00 -0.19942462551E+00  0.58333893645E-01  0.98510025814E+00  0.93800000000E+00 0. -1.
         22    1    1    2    0    0 -0.16649533424E+00  0.16357873069E+00  0.29138063455E+01  0.29231397703E+01  0.00000000000E+00 0.  1.
</event>
<event>
 5    1  0.3454171E+002  0.1599676E+01  0.7818608E-02  0.3353715E+00
         11   -1    0    0    0    0  0.00000000000E+00  0.00000000000E+00  0.39999999674E+01  0.40000000000E+01  0.51100000000E-03 0.  1.
    9000002   -1    0    0    0    0 -0.00000000000E+00 -0.00000000000E+00  0.00000000000E+00  0.93800000000E+00  0.93800000000E+00 0. -1.
         11    1    1    2    0    0 -0.60672071478E-02  0.72837295022E-01  0.97511097261E+00  0.97784648723E+00  0.51100000000E-03 0.  1.
    9000002    1    1    2    0    0  0.20584396515E-01 -0.29671422866E+00  0.59001674958E-01  0.98579320779E+00  0.93800000000E+00 0. -1.
         22    1    1    2    0    0 -0.14517189368E-01  0.22387693364E+00  0.29658873198E+01  0.29743603050E+01  0.00000000000E+00 0.  1.
</event>
<event>
 5    1  0.3454171E+002  0.1599666E+01  0.7818608E-02  0.3353726E+00
         11   -1    0    0    0    0  0.00000000000E+00  0.00000000000E+00  0.39999999674E+01  0.40000000000E+01  0.51100000000E-03 0. -1.
    9000002   -1    0    0    0    0 -0.00000000000E+00 -0.00000000000E+00  0.00000000000E+00  0.93800000000E+00  0.93800000000E+00 0. -1.
         11    1    1    2    0    0 -0.29479795638E+00  0.88709443244E-02  0.22232919636E+01  0.22427688123E+01  0.51100000000E-03 0. -1.
    9000002    1    1    2    0    0  0.50300310076E+00 -0.20371411361E-01  0.17359465800E+00  0.10786130998E+01  0.93800000000E+00 0. -1.
         22    1    1    2    0    0 -0.20820514438E+00  0.11500467037E-01  0.16031133457E+01  0.16166180879E+01  0.00000000000E+00 0. -1.
</event>
<event>
 5    1  0.3454171E+002  0.1598914E+01  0.7818608E-02  0.3354543E+00
         11   -1    0    0    0    0  0.00000000000E+00  0.00000000000E+00  0.39999999674E+01  0.40000000000E+01  0.51100000000E-03 0. -1.
    9000002   -1    0    0    0    0 -0.00000000000E+00 -0.00000000000E+00  0.00000000000E+00  0.93800000000E+00  0.93800000000E+00 0. -1.
         11    1    1    2    0    0 -0.53302935149E-01  0.38271134039E-01  0.74307391902E+00  0.74596581211E+00  0.51100000000E-03 0. -1.
    9000002    1    1    2    0    0  0.36177800817E+00 -0.90950908370E-01  0.94174622138E-01  0.10138383769E+01  0.93800000000E+00 0. -1.
         22    1    1    2    0    0 -0.30847507302E+00  0.52679774331E-01  0.31627514262E+01  0.31781958110E+01  0.00000000000E+00 0. -1.
</event>
<event>
 5    1  0.3454171E+002  0.1599676E+01  0.7818608E-02  0.3353716E+00
         11   -1    0    0    0    0  0.00000000000E+00  0.00000000000E+00  0.39999999674E+01  0.40000000000E+01  0.51100000000E-03 0. -1.
    9000002   -1    0    0    0    0 -0.00000000000E+00 -0.00000000000E+00  0.00000000000E+00  0.93800000000E+00  0.93800000000E+00 0. -1.
         11    1    1    2    0    0  0.64950562058E-01  0.84384476883E-01  0.13257147120E+01  0.13299846143E+01  0.51100000000E-03 0. -1.
    9000002    1    1    2    0    0 -0.18954722667E+00 -0.25288873097E+00  0.66735324655E-01  0.99205769235E+00  0.93800000000E+00 0. -1.
         22    1    1    2    0    0  0.12459666461E+00  0.16850425408E+00  0.26075499307E+01  0.26159576934E+01  0.00000000000E+00 0. -1.
</event>
<event>
 5    1  0.3454171E+002  0.1599662E+01  0.7818608E-02  0.3353730E+00
         11   -1    0    0    0    0  0.00000000000E+00  0.00000000000E+00  0.39999999674E+01  0.40000000000E+01  0.51100000000E-03 0. -1.
    9000002   -1    0    0    0    0 -0.00000000000E+00 -0.00000000000E+00  0.00000000000E+00  0.93800000000E+00  0.93800000000E+00 0.  1.
         11    1    1    2    0    0 -0.15945737444E+00  0.99994566023E-01  0.13061488414E+01  0.13196403391E+01  0.51100000000E-03 0. -1.
    9000002    1    1    2    0    0  0.46246855374E+00 -0.27798521904E+00  0.20072140557E+00  0.11005844029E+01  0.93800000000E+00 0.  1.
         22    1    1    2    0    0 -0.30301117930E+00  0.17799065302E+00  0.24931297203E+01  0.25177752580E+01  0.00000000000E+00 0. -1.
</event>
<event>
 5    1  0.3454171E+002  0.1599620E+01  0.7818608E-02  0.3353776E+00
         11   -1    0    0    0    0  0.00000000000E+00  0.00000000000E+00  0.39999999674E+01  0.40000000000E+01  0.51100000000E-03 0. -1.
    9000002   -1    0    0    0    0 -0.00000000000E+00 -0.00000000000E+00  0.00000000000E+00  0.93800000000E+00  0.93800000000E+00 0. -1.
         11    1    1    2    0    0 -0.40940101256E-01 -0.34048988558E-01  0.75680100014E+00  0.75867215610E+00  0.51100000000E-03 0. -1.
    9000002    1    1    2    0    0  0.23087869007E+00  0.20973007861E+00  0.65023022189E-01  0.99063801099E+00  0.93800000000E+00 0. -1.
         22    1    1    2    0    0 -0.18993858881E+00 -0.17568109005E+00  0.31781759450E+01  0.31886898329E+01  0.00000000000E+00 0. -1.
</event>
<event>
 5    1  0.3454171E+002  0.1599676E+01  0.7818608E-02  0.3353715E+00
         11   -1    0    0    0    0  0.00000000000E+00  0.00000000000E+00  0.39999999674E+01  0.40000000000E+01  0.51100000000E-03 0. -1.
    9000002   -1    0    0    0    0 -0.00000000000E+00 -0.00000000000E+00  0.00000000000E+00  0.93800000000E+00  0.93800000000E+00 0. -1.
         11    1    1    2    0    0  0.10654880616E+00 -0.25346886724E-01  0.13063590397E+01  0.13109421476E+01  0.51100000000E-03 0. -1.
    9000002    1    1    2    0    0 -0.31742686793E+00  0.78771324777E-01  0.71547336578E-01  0.99595570156E+00  0.93800000000E+00 0. -1.
         22    1    1    2    0    0  0.21087806177E+00 -0.53424438052E-01  0.26220935911E+01  0.26311021508E+01  0.00000000000E+00 0. -1.
</event>
<event>
 5    1  0.3454171E+002  0.1595945E+01  0.7818608E-02  0.3357776E+00
         11   -1    0    0    0    0  0.00000000000E+00  0.00000000000E+00  0.39999999674E+01  0.40000000000E+01  0.51100000000E-03 0. -1.
    9000002   -1    0    0    0    0 -0.00000000000E+00 -0.00000000000E+00  0.00000000000E+00  0.93800000000E+00  0.93800000000E+00 0. -1.
         11    1    1    2    0    0  0.32234762652E-02  0.80241912601E-02  0.11883380282E+01  0.11883696011E+01  0.51100000000E-03 0. -1.
    9000002    1    1    2    0    0 -0.22999020038E-03  0.19803605649E+00  0.28760288129E-01  0.95910869391E+00  0.93800000000E+00 0. -1.
         22    1    1    2    0    0 -0.29934860648E-02 -0.20606024775E+00  0.27829016510E+01  0.27905217050E+01  0.00000000000E+00 0. -1.
</event>
<event>
 5    1  0.3454171E+002  0.1599424E+01  0.7818608E-02  0.3353989E+00
         11   -1    0    0    0    0  0.00000000000E+00  0.00000000000E+00  0.39999999674E+01  0.40000000000E+01  0.51100000000E-03 0. -1.
    9000002   -1    0    0    0    0 -0.00000000000E+00 -0.00000000000E+00  0.00000000000E+00  0.93800000000E+00  0.93800000000E+00 0.  1.
         11    1    1    2    0    0 -0.32460655120E-01  0.26313390497E-04  0.48654853377E+00  0.48763042528E+00  0.51100000000E-03 0. -1.
    9000002    1    1    2    0    0  0.27465511407E+00  0.10120425639E+00  0.57316009096E-01  0.98427986777E+00  0.93800000000E+00 0.  1.
         22    1    1    2    0    0 -0.24219445894E+00 -0.10123056978E+00  0.34561354245E+01  0.34660897069E+01  0.00000000000E+00 0. -1.
</event>
<event>
 5    1  0.3454171E+002  0.1599676E+01  0.7818608E-02  0.3353715E+00
         11   -1    0    0    0    0  0.00000000000E+00  0.00000000000E+00  0.39999999674E+01  0.40000000000E+01  0.51100000000E-03 0.  1.
    9000002   -1    0    0    0    0 -0.00000000000E+00 -0.00000000000E+00  0.00000000000E+00  0.93800000000E+00  0.93800000000E+00 0.  1.
         11    1    1    2    0    0 -0.55610431929E-01  0.45178725398E-01  0.89318714058E+00  0.89605645279E+00  0.51100000000E-03 0. -1.
    9000002    1    1    2    0    0  0.24111189246E+00 -0.19614443282E+00  0.64515289068E-01  0.99025946385E+00  0.93800000000E+00 0.  1.
         22    1    1    2    0    0 -0.18550146054E+00  0.15096570743E+00  0.30422975377E+01  0.30516840834E+01  0.00000000000E+00 0.  1.
</event>
<event>
 5    1  0.3454171E+002  0.1599677E+01  0.7818608E-02  0.3353714E+00
         11   -1    0    0    0    0  0.00000000000E+00  0.00000000000E+00  0.39999999674E+01  0.40000000000E+01  0.51100000000E-03 0. -1.
    9000002   -1    0    0    0    0 -0.00000000000E+00 -0.00000000000E+00  0.00000000000E+00  0.93800000000E+00  0.93800000000E+00 0. -1.
         11    1    1    2    0    0  0.23149178200E+00 -0.73164314949E-01  0.21085830173E+01  0.21225136193E+01  0.51100000000E-03 0. -1.
    9000002    1    1    2    0    0 -0.42340108936E+00  0.13410573022E+00  0.13385617627E+00  0.10464293121E+01  0.93800000000E+00 0. -1.
         22    1    1    2    0    0  0.19190930736E+00 -0.60941415269E-01  0.17575607738E+01  0.17690570685E+01  0.00000000000E+00 0. -1.
</event>
<event>
 5    1  0.3454171E+002  0.1599652E+01  0.7818608E-02  0.3353742E+00
         11   -1    0    0    0    0  0.00000000000E+00  0.00000000000E+00  0.39999999674E+01  0.40000000000E+01  0.51100000000E-03 0. -1.
    9000002   -1    0    0    0    0 -0.00000000000E+00 -0.00000000000E+00  0.00000000000E+00  0.93800000000E+00  0.93800000000E+00 0.  1.
         11    1    1    2    0    0 -0.33563375170E-01  0.37664898503E-01  0.64961508354E+00  0.65157130279E+00  0.51100000000E-03 0. -1.
    9000002    1    1    2    0    0  0.19028455168E+00 -0.20521604473E+00  0.52174846368E-01  0.98024897359E+00  0.93800000000E+00 0.  1.
         22    1    1    2    0    0 -0.15672117651E+00  0.16755114623E+00  0.32982100375E+01  0.33061797236E+01  0.00000000000E+00 0. -1.
</event>
<event>
 5    1  0.3454171E+002  0.1599676E+01  0.7818608E-02  0.3353715E+00
         11   -1    0    0    0    0  0.00000000000E+00  0.00000000000E+00  0.39999999674E+01  0.40000000000E+01  0.51100000000E-03 0. -1.
    9000002   -1    0    0    0    0 -0.00000000000E+00 -0.00000000000E+00  0.00000000000E+00  0.93800000000E+00  0.93800000000E+00 0. -1.
         11    1    1    2    0    0 -0.17206072990E-01  0.21303150666E-01  0.29714538695E+00  0.29840495184E+00  0.51100000000E-03 0.  1.
    9000002    1    1    2    0    0  0.22918312268E+00 -0.27869157977E+00  0.87402939858E-01  0.10087998683E+01  0.93800000000E+00 0. -1.
         22    1    1    2    0    0 -0.21197704969E+00  0.25738842910E+00  0.36154516406E+01  0.36307951799E+01  0.00000000000E+00 0. -1.
</event>
<event>
 5    1  0.3454171E+002  0.1595887E+01  0.7818608E-02  0.3357840E+00
         11   -1    0    0    0    0  0.00000000000E+00  0.00000000000E+00  0.39999999674E+01  0.40000000000E+01  0.51100000000E-03 0.  1.
    9000002   -1    0    0    0    0 -0.00000000000E+00 -0.00000000000E+00  0.00000000000E+00  0.93800000000E+00  0.93800000000E+00 0.  1.
         11    1    1    2    0    0  0.24202791881E-01 -0.14591748189E-01  0.21967085756E+00  0.22148192033E+00  0.51100000000E-03 0.  1.
    9000002    1    1    2    0    0  0.17118650953E+00  0.18995059267E+00  0.46363771255E-01  0.97333429406E+00  0.93800000000E+00 0.  1.
         22    1    1    2    0    0 -0.19538930142E+00 -0.17535884448E+00  0.37339653385E+01  0.37431837856E+01  0.00000000000E+00 0.  1.
</event>
<event>
 5    1  0.3454171E+002  0.1594852E+01  0.7818608E-02  0.3358970E+00
         11   -1    0    0    0    0  0.00000000000E+00  0.00000000000E+00  0.39999999674E+01  0.40000000000E+01  0.51100000000E-03 0. -1.
    9000002   -1    0    0    0    0 -0.00000000000E+00 -0.00000000000E+00  0.00000000000E+00  0.93800000000E+00  0.93800000000E+00 0. -1.
         11    1    1    2    0    0 -0.10314368125E-01 -0.15141036210E+00  0.95871054310E+00  0.97064805698E+00  0.51100000000E-03 0. -1.
    9000002    1    1    2    0    0 -0.86950939316E-01  0.35235162748E+00  0.92369828656E-01  0.10099942180E+01  0.93800000000E+00 0. -1.
         22    1    1    2    0    0  0.97265307442E-01 -0.20094126537E+00  0.29489195956E+01  0.29573577250E+01  0.00000000000E+00 0. -1.
</event>
<event>
 5    1  0.3454171E+002  0.1599640E+01  0.7818608E-02  0.3353755E+00
         11   -1    0    0    0    0  0.00000000000E+00  0.00000000000E+00  0.39999999674E+01  0.40000000000E+01  0.51100000000E-03 0. -1.
    9000002   -1    0    0    0    0 -0.00000000000E+00 -0.00000000000E+00  0.00000000000E+00  0.93800000000E+00  0.93800000000E+00 0. -1.
         11    1    1    2    0    0 -0.75352948083E-01 -0.55836087557E-01  0.11765008784E+01  0.11802331606E+01  0.51100000000E-03 0. -1.
    9000002    1    1    2    0    0  0.23364874262E+00  0.19967306674E+00  0.63089115843E-01  0.98908306276E+00  0.93800000000E+00 0. -1.
         22    1    1    2    0    0 -0.15829579454E+00 -0.14383697918E+00  0.27604099732E+01  0.27686837767E+01  0.00000000000E+00 0. -1.
</event>
<event>
 5    1  0.3454171E+002  0.1537522E+01  0.7818608E-02  0.3424098E+00
         11   -1    0    0    0    0  0.00000000000E+00  0.00000000000E+00  0.39999999674E+01  0.40000000000E+01  0.51100000000E-03 0.  1.
    9000002   -1    0    0    0    0 -0.00000000000E+00 -0.00000000000E+00  0.00000000000E+00  0.93800000000E+00  0.93800000000E+00 0. -1.
         11    1    1    2    0    0  0.20835241614E+00  0.13721278064E+00  0.93302900232E+00  0.96580611759E+00  0.51100000000E-03 0.  1.
    9000002    1    1    2    0    0  0.39033502086E-01 -0.11948014451E-01  0.47575653036E-01  0.94009244870E+00  0.93800000000E+00 0. -1.
         22    1    1    2    0    0 -0.24738591822E+00 -0.12526476619E+00  0.30193953120E+01  0.30321014337E+01  0.00000000000E+00 0.  1.
</event>
<event>
 5    1  0.3454171E+002  0.1599631E+01  0.7818608E-02  0.3353763E+00
         11   -1    0    0    0    0  0.00000000000E+00  0.00000000000E+00  0.39999999674E+01  0.40000000000E+01  0.51100000000E-03 0.  1.
    9000002   -1    0    0    0    0 -0.00000000000E+00 -0.00000000000E+00  0.00000000000E+00  0.93800000000E+00  0.93800000000E+00 0. -1.
         11    1    1    2    0    0  0.44950619047E-02 -0.16108085521E-01  0.27241748464E+00  0.27293080270E+00  0.51100000000E-03 0.  1.
    9000002    1    1    2    0    0 -0.50486301965E-01  0.29065698431E+00  0.58067840009E-01  0.98501077317E+00  0.93800000000E+00 0. -1.
         22    1    1    2    0    0  0.45991240061E-01 -0.27454889879E+00  0.36695146427E+01  0.36800584241E+01  0.00000000000E+00 0.  1.
</event>
<event>
 5    1  0.3454171E+002  0.1599634E+01  0.7818608E-02  0.3353760E+00
         11   -1    0    0    0    0  0.00000000000E+00  0.00000000000E+00  0.39999999674E+01  0.40000000000E+01  0.51100000000E-03 0.  1.
    9000002   -1    0    0    0    0 -0.00000000000E+00 -0.00000000000E+00  0.00000000000E+00  0.93800000000E+00  0.93800000000E+00 0. -1.
         11    1    1    2    0    0  0.11727628032E+00  0.25799205130E-01  0.15456245753E+01  0.15502822046E+01  0.51100000000E-03 0.  1.
    9000002    1    1    2    0    0 -0.31768210888E+00 -0.64315220994E-01  0.70283933808E-01  0.99490813712E+00  0.93800000000E+00 0. -1.
         22    1    1    2    0    0  0.20040582856E+00  0.38516015864E-01  0.23840914583E+01  0.23928096583E+01  0.00000000000E+00 0.  1.
</event>
<event>
 5    1  0.3454171E+002  0.1599582E+01  0.7818608E-02  0.3353817E+00
         11   -1    0    0    0    0  0.00000000000E+00  0.00000000000E+00  0.39999999674E+01  0.40000000000E+01  0.51100000000E-03 0. -1.
    9000002   -1    0    0    0    0 -0.00000000000E+00 -0.00000000000E+00  0.00000000000E+00  0.93800000000E+00  0.93800000000E+00 0.  1.
         11    1    1    2    0    0  0.12894403586E+00  0.83598827349E-01  0.15801577059E+01  0.15876126621E+01  0.51100000000E-03 0. -1.
    9000002    1    1    2    0    0 -0.31984292636E+00 -0.17834354024E+00  0.90161764443E-01  0.10109792578E+01  0.93800000000E+00 0.  1.
         22    1    1    2    0    0  0.19089889051E+00  0.94744712896E-01  0.23296804970E+01  0.23394080801E+01  0.00000000000E+00 0. -1.
</event>
<event>
 5    1  0.3454171E+002  0.1591312E+01  0.7818608E-02  0.3362848E+00
         11   -1    0    0    0    0  0.00000000000E+00  0.00000000000E+00  0.39999999674E+01  0.40000000000E+01  0.51100000000E-03 0.  1.
    9000002   -1    0    0    0    0 -0.00000000000E+00 -0.00000000000E+00  0.00000000000E+00  0.93800000000E+00  0.93800000000E+00 0. -1.
         11    1    1    2    0    0 -0.48180547204E-01  0.15347753781E-01  0.97526081164E+00  0.97657095519E+00  0.51100000000E-03 0.  1.
    9000002    1    1    2    0    0 -0.18039687815E+00  0.21350521402E-01  0.28079819757E-01  0.95584065340E+00  0.93800000000E+00 0. -1.
         22    1    1    2    0    0  0.22857742536E+00 -0.36698275183E-01  0.29966593360E+01  0.30055883914E+01  0.00000000000E+00 0.  1.
</event>
<event>
 5    1  0.3454171E+002  0.1474688E+01  0.7818608E-02  0.3501715E+00
         11   -1    0    0    0    0  0.00000000000E+00  0.00000000000E+00  0.39999999674E+01  0.40000000000E+01  0.51100000000E-03 0.  1.
    9000002   -1    0    0    0    0 -0.00000000000E+00 -0.00000000000E+00  0.00000000000E+00  0.93800000000E+00  0.93800000000E+00 0.  1.
         11    1    1    2    0    0  0.58591983884E+00  0.14151227548E+00  0.32619378476E+01  0.33171624266E+01  0.51100000000E-03 0.  1.
    9000002    1    1    2    0    0 -0.44245826149E+00 -0.37013375085E+00  0.36444701405E+00  0.11599284171E+01  0.93800000000E+00 0.  1.
         22    1    1    2    0    0 -0.14346157735E+00  0.22862147537E+00  0.37361510569E+00  0.46090915632E+00  0.00000000000E+00 0.  1.
</event>
<event>
 5    1  0.3454171E+002  0.1599656E+01  0.7818608E-02  0.3353737E+00
         11   -1    0    0    0    0  0.00000000000E+00  0.00000000000E+00  0.39999999674E+01  0.40000000000E+01  0.51100000000E-03 0.  1.
    9000002   -1    0    0    0    0 -0.00000000000E+00 -0.00000000000E+00  0.00000000000E+00  0.93800000000E+00  0.93800000000E+00 0. -1.
         11    1    1    2    0    0 -0.18022600087E-01 -0.46048147473E-01  0.52251591933E+00  0.52485082936E+00  0.51100000000E-03 0.  1.
    9000002    1    1    2    0    0  0.14421801527E+00  0.36948980107E+00  0.10608855649E+00  0.10239239868E+01  0.93800000000E+00 0. -1.
         22    1    1    2    0    0 -0.12619541518E+00 -0.32344165360E+00  0.33713954915E+01  0.33892251838E+01  0.00000000000E+00 0.  1.
</event>
<event>
 5    1  0.3454171E+002  0.1595282E+01  0.7818608E-02  0.3358500E+00
         11   -1    0    0    0    0  0.00000000000E+00  0.00000000000E+00  0.39999999674E+01  0.40000000000E+01  0.51100000000E-03 0.  1.
    9000002   -1    0    0    0    0 -0.00000000000E+00 -0.00000000000E+00  0.00000000000E+00  0.93800000000E+00  0.93800000000E+00 0.  1.
         11    1    1    2    0    0 -0.14336311985E+00 -0.11064776137E+00  0.10842299958E+01  0.10992501336E+01  0.51100000000E-03 0.  1.
    9000002    1    1    2    0    0  0.31244022565E+00  0.23615997859E+00  0.10699978998E+00  0.10220975419E+01  0.93800000000E+00 0.  1.
         22    1    1    2    0    0 -0.16907710580E+00 -0.12551221722E+00  0.28087701816E+01  0.28166523245E+01  0.00000000000E+00 0.  1.
</event>
<event>
 5    1  0.3454171E+002  0.1533150E+01  0.7818608E-02  0.3429277E+00
         11   -1    0    0    0    0  0.00000000000E+00  0.00000000000E+00  0.39999999674E+01  0.40000000000E+01  0.51100000000E-03 0.  1.
    9000002   -1    0    0    0    0 -0.00000000000E+00 -0.00000000000E+00  0.00000000000E+00  0.93800000000E+00  0.93800000000E+00 0.  1.
         11    1    1    2    0    0 -0.26000824542E+00  0.11639334842E+00  0.14647252185E+01  0.14921702068E+01  0.51100000000E-03 0.  1.
    9000002    1    1    2    0    0 -0.73798590727E-02  0.76545598539E-01  0.53949093962E-01  0.94269199409E+00  0.93800000000E+00 0.  1.
         22    1    1    2    0    0  0.26738810449E+00 -0.19293894696E+00  0.24813256549E+01  0.25031377991E+01  0.00000000000E+00 0.  1.
</event>
<event>
 5    1  0.3454171E+002  0.1576938E+01  0.7818608E-02  0.3378781E+00
         11   -1    0    0    0    0  0.00000000000E+00  0.00000000000E+00  0.39999999674E+01  0.40000000000E+01  0.51100000000E-03 0.  1.
    9000002   -1    0    0    0    0 -0.00000000000E+00 -0.00000000000E+00  0.00000000000E+00  0.93800000000E+00  0.93800000000E+00 0. -1.
         11    1    1    2    0    0 -0.18796127890E+00  0.17216764332E+00  0.15635953115E+01  0.15842353673E+01  0.51100000000E-03 0.  1.
    9000002    1    1    2    0    0  0.41117516227E-01 -0.31264150097E+00  0.84598289787E-01  0.99319496017E+00  0.93800000000E+00 0. -1.
         22    1    1    2    0    0  0.14684376267E+00  0.14047385765E+00  0.23518063661E+01  0.23605696725E+01  0.00000000000E+00 0.  1.
</event>
<event>
 5    1  0.3454171E+002  0.1594556E+01  0.7818608E-02  0.3359293E+00
         11   -1    0    0    0    0  0.00000000000E+00  0.00000000000E+00  0.39999999674E+01  0.40000000000E+01  0.51100000000E-03 0.  1.
    9000002   -1    0    0    0    0 -0.00000000000E+00 -0.00000000000E+00  0.00000000000E+00  0.93800000000E+00  0.93800000000E+00 0. -1.
         11    1    1    2    0    0  0.90310086796E-01 -0.13895469881E+00  0.13442743081E+01  0.13544511791E+01  0.51100000000E-03 0.  1.
    9000002    1    1    2    0    0 -0.30675810149E+00  0.17030984569E+00  0.86688331915E-01  0.10052188037E+01  0.93800000000E+00 0. -1.
         22    1    1    2    0    0  0.21644801469E+00 -0.31355146879E-01  0.25690373273E+01  0.25783300172E+01  0.00000000000E+00 0.  1.
</event>
<event>
 5    1  0.3454171E+002  0.1599677E+01  0.7818608E-02  0.3353714E+00
         11   -1    0    0    0    0  0.00000000000E+00  0.00000000000E+00  0.39999999674E+01  0.40000000000E+01  0.51100000000E-03 0.  1.
    9000002   -1    0    0    0    0 -0.00000000000E+00 -0.00000000000E+00  0.00000000000E+00  0.93800000000E+00  0.93800000000E+00 0. -1.
         11    1    1    2    0    0 -0.70803739314E-01 -0.10089961950E+00  0.14686169433E+01  0.14737808148E+01  0.51100000000E-03 0.  1.
    9000002    1    1    2    0    0  0.18835621573E+00  0.27010080475E+00  0.72544775898E-01  0.99676439204E+00  0.93800000000E+00 0. -1.
         22    1    1    2    0    0 -0.11755247642E+00 -0.16920118525E+00  0.24588382482E+01  0.24674547932E+01  0.00000000000E+00 0.  1.
</event>
<event>
 5    1  0.3454171E+002  0.1487835E+01  0.7818608E-02  0.3484889E+00
         11   -1    0    0    0    0  0.00000000000E+00  0.00000000000E+00  0.39999999674E+01  0.40000000000E+01  0.51100000000E-03 0. -1.
    9000002   -1    0    0    0    0 -0.00000000000E+00 -0.00000000000E+00  0.00000000000E+00  0.93800000000E+00  0.93800000000E+00 0.  1.
         11    1    1    2    0    0 -0.31472836440E+00  0.12050405279E+00  0.20819048447E+01  0.21090052664E+01  0.51100000000E-03 0. -1.
    9000002    1    1    2    0    0 -0.39676784605E-01  0.18660375882E+00  0.11285013266E+00  0.96383316112E+00  0.93800000000E+00 0.  1.
         22    1    1    2    0    0  0.35440514901E+00 -0.30710781161E+00  0.18052449900E+01  0.18651615725E+01  0.00000000000E+00 0. -1.
</event>
<event>
 5    1  0.3454171E+002  0.1593473E+01  0.7818608E-02  0.3360478E+00
         11   -1    0    0    0    0  0.00000000000E+00  0.00000000000E+00  0.39999999674E+01  0.40000000000E+01  0.51100000000E-03 0. -1.
    9000002   -1    0    0    0    0 -0.00000000000E+00 -0.00000000000E+00  0.00000000000E+00  0.93800000000E+00  0.93800000000E+00 0.  1.
         11    1    1    2    0    0  0.67304591742E-01  0.55997718992E-01  0.54531483148E+00  0.55229899434E+00  0.51100000000E-03 0. -1.
    9000002    1    1    2    0    0 -0.28491502327E+00  0.24713880573E-01  0.59328692688E-01  0.98242111141E+00  0.93800000000E+00 0.  1.
         22    1    1    2    0    0  0.21761043153E+00 -0.80711599565E-01  0.33953564432E+01  0.34032798942E+01  0.00000000000E+00 0. -1.
</event>
<event>
 5    1  0.3454171E+002  0.1535855E+01  0.7818608E-02  0.3426069E+00
         11   -1    0    0    0    0  0.00000000000E+00  0.00000000000E+00  0.39999999674E+01  0.40000000000E+01  0.51100000000E-03 0.  1.
    9000002   -1    0    0    0    0 -0.00000000000E+00 -0.00000000000E+00  0.00000000000E+00  0.93800000000E+00  0.93800000000E+00 0.  1.
         11    1    1    2    0    0  0.40076533404E+00 -0.10961613376E+00  0.31442997797E+01  0.31716320586E+01  0.51100000000E-03 0.  1.
    9000002    1    1    2    0    0 -0.22427607505E+00  0.25236936683E+00  0.12922249985E+00  0.10052524606E+01  0.93800000000E+00 0.  1.
         22    1    1    2    0    0 -0.17648925898E+00 -0.14275323306E+00  0.72647768786E+00  0.76111548075E+00  0.00000000000E+00 0. -1.
</event>
<event>
 5    1  0.3454171E+002  0.1575900E+01  0.7818608E-02  0.3379943E+00
         11   -1    0    0    0    0  0.00000000000E+00  0.00000000000E+00  0.39999999674E+01  0.40000000000E+01  0.51100000000E-03 0.  1.
    9000002   -1    0    0    0    0 -0.00000000000E+00 -0.00000000000E+00  0.00000000000E+00  0.93800000000E+00  0.93800000000E+00 0. -1.
         11    1    1    2    0    0  0.83947262868E-01  0.63179896786E-01  0.51534245043E+00  0.52594386073E+00  0.51100000000E-03 0.  1.
    9000002    1    1    2    0    0  0.32264261216E-01  0.19684293548E+00  0.44370998744E-01  0.96000047361E+00  0.93800000000E+00 0. -1.
         22    1    1    2    0    0 -0.11621152408E+00 -0.26002283227E+00  0.34402865182E+01  0.34520556657E+01  0.00000000000E+00 0.  1.
</event>
<event>
 5    1  0.3454171E+002  0.1598846E+01  0.7818608E-02  0.3354617E+00
         11   -1    0    0    0    0  0.00000000000E+00  0.00000000000E+00  0.39999999674E+01  0.40000000000E+01  0.51100000000E-03 0.  1.
    9000002   -1    0    0    0    0 -0.00000000000E+00 -0.00000000000E+00  0.00000000000E+00  0.93800000000E+00  0.93800000000E+00 0. -1.
         11    1    1    2    0    0 -0.19793165555E-02  0.34307750429E-01  0.75693361432E+00  0.75771346632E+00  0.51100000000E-03 0.  1.
    9000002    1    1    2    0    0  0.14812728791E+00 -0.21621933277E+00  0.46314093531E-01  0.97502896806E+00  0.93800000000E+00 0. -1.
         22    1    1    2    0    0 -0.14614797135E+00  0.18191158234E+00  0.31967522595E+01  0.32052575656E+01  0.00000000000E+00 0.  1.
</event>
<event>
 5    1  0.3454171E+002  0.1566779E+01  0.7818608E-02  0.3390228E+00
         11   -1    0    0    0    0  0.00000000000E+00  0.00000000000E+00  0.39999999674E+01  0.40000000000E+01  0.51100000000E-03 0.  1.
    9000002   -1    0    0    0    0 -0.00000000000E+00 -0.00000000000E+00  0.00000000000E+00  0.93800000000E+00  0.93800000000E+00 0. -1.
         11    1    1    2    0    0 -0.28044437130E-01  0.16093403376E+00  0.30524577371E+01  0.30568259276E+01  0.51100000000E-03 0.  1.
    9000002    1    1    2    0    0  0.15046692074E+00  0.11909849500E-02  0.39638821106E-01  0.95081909363E+00  0.93800000000E+00 0. -1.
         22    1    1    2    0    0 -0.12242248361E+00 -0.16212501871E+00  0.90790340916E+00  0.93035497878E+00  0.00000000000E+00 0.  1.
</event>
<event>
 5    1  0.3454171E+002  0.1599667E+01  0.7818608E-02  0.3353725E+00
         11   -1    0    0    0    0  0.00000000000E+00  0.00000000000E+00  0.39999999674E+01  0.40000000000E+01  0.51100000000E-03 0.  1.
    9000002   -1    0    0    0    0 -0.00000000000E+00 -0.00000000000E+00  0.00000000000E+00  0.93800000000E+00  0.93800000000E+00 0.  1.
         11    1    1    2    0    0  0.30148619882E+00  0.22306417253E+00  0.22877859623E+01  0.23183218981E+01  0.51100000000E-03 0.  1.
    9000002    1    1    2    0    0 -0.49786184230E+00 -0.36234931135E+00  0.26546091829E+00  0.11530294604E+01  0.93800000000E+00 0.  1.
         22    1    1    2    0    0  0.19637564348E+00  0.13928513882E+00  0.14467530868E+01  0.14666486414E+01  0.00000000000E+00 0.  1.
</event>
<event>
 5    1  0.3454171E+002  0.1578553E+01  0.7818608E-02  0.3376975E+00
         11   -1    0    0    0    0  0.00000000000E+00  0.00000000000E+00  0.39999999674E+01  0.40000000000E+01  0.51100000000E-03 0.  1.
    9000002   -1    0    0    0    0 -0.00000000000E+00 -0.00000000000E+00  0.00000000000E+00  0.93800000000E+00  0.93800000000E+00 0. -1.
         11    1    1    2    0    0  0.17143456220E-01  0.62229007438E-02  0.34003337884E-02  0.18559255796E-01  0.51100000000E-03 0.  1.
    9000002    1    1    2    0    0 -0.40059802876E-01  0.31964481871E+00  0.86305669064E-01  0.99552512095E+00  0.93800000000E+00 0. -1.
         22    1    1    2    0    0  0.22916346656E-01 -0.32586771945E+00  0.39102939645E+01  0.39239156233E+01  0.00000000000E+00 0.  1.
</event>
<event>
 5    1  0.3454171E+002  0.1598773E+01  0.7818608E-02  0.3354696E+00
         11   -1    0    0    0    0  0.00000000000E+00  0.00000000000E+00  0.39999999674E+01  0.40000000000E+01  0.51100000000E-03 0. -1.
    9000002   -1    0    0    0    0 -0.00000000000E+00 -0.00000000000E+00  0.00000000000E+00  0.93800000000E+00  0.93800000000E+00 0.  1.
         11    1    1    2    0    0 -0.58532483513E-01  0.34618280622E-02  0.55707330862E+00  0.56015084413E+00  0.51100000000E-03 0. -1.
    9000002    1    1    2    0    0  0.25432652853E+00 -0.10325889983E+00  0.50848044732E-01  0.97865923955E+00  0.93800000000E+00 0.  1.
         22    1    1    2    0    0 -0.19579404502E+00  0.99797071767E-01  0.33920786140E+01  0.33991899163E+01  0.00000000000E+00 0. -1.
</event>
<event>
 5    1  0.3454171E+002  0.1599283E+01  0.7818608E-02  0.3354142E+00
         11   -1    0    0    0    0  0.00000000000E+00  0.00000000000E+00  0.39999999674E+01  0.40000000000E+01  0.51100000000E-03 0. -1.
    9000002   -1    0    0    0    0 -0.00000000000E+00 -0.00000000000E+00  0.00000000000E+00  0.93800000000E+00  0.93800000000E+00 0. -1.
         11    1    1    2    0    0 -0.91757737155E-01 -0.14929055010E+00  0.13827848979E+01  0.13938441396E+01  0.51100000000E-03 0. -1.
    9000002    1    1    2    0    0  0.20524446770E+00  0.37979593091E+00  0.12658258192E+00  0.10403063927E+01  0.93800000000E+00 0. -1.
         22    1    1    2    0    0 -0.11348673055E+00 -0.23050538080E+00  0.24906324876E+01  0.25038494677E+01  0.00000000000E+00 0. -1.
</event>
<event>
 5    1  0.3888209E+002  0.1508287E+01  0.7818608E-02  0.3459345E+00
         11   -1    0    0    0    0  0.00000000000E+00  0.00000000000E+00  0.39999999674E+01  0.40000000000E+01  0.51100000000E-03 0.  1.
    9000002   -1    0    0    0    0 -0.00000000000E+00 -0.00000000000E+00  0.00000000000E+00  0.93800000000E+00  0.93800000000E+00 0. -1.
         11    1    1    2    0    0  0.13377068255E+00 -0.12186125607E+00  0.23656171168E+00  0.29783630704E+00  0.51100000000E-03 0.  1.
    9000002    1    1    2    0    0  0.76839534230E-01  0.52229138192E-01  0.75553016523E-01  0.94561326937E+00  0.93800000000E+00 0. -1.
         22    1    1    2    0    0 -0.21061021678E+00  0.69632117876E-01  0.36878852392E+01  0.36945504236E+01  0.00000000000E+00 0.  1.
</event>
<event>
 5    1  0.3454171E+002  0.1598534E+01  0.7818608E-02  0.3354957E+00
         11   -1    0    0    0    0  0.00000000000E+00  0.00000000000E+00  0.39999999674E+01  0.40000000000E+01  0.51100000000E-03 0. -1.
    9000002   -1    0    0    0    0 -0.00000000000E+00 -0.00000000000E+00  0.00000000000E+00  0.93800000000E+00  0.93800000000E+00 0. -1.
         11    1    1    2    0    0 -0.22352525975E-01 -0.32824272680E-01  0.74358724206E+00  0.74464710834E+00  0.51100000000E-03 0. -1.
    9000002    1    1    2    0    0  0.26751676114E+00  0.94383197244E-01  0.54493790131E-01  0.98147184299E+00  0.93800000000E+00 0. -1.
         22    1    1    2    0    0 -0.24516423516E+00 -0.61558924564E-01  0.32019189352E+01  0.32118810487E+01  0.00000000000E+00 0. -1.
</event>
<event>
 5    1  0.3454171E+002  0.1587514E+01  0.7818608E-02  0.3367028E+00
         11   -1    0    0    0    0  0.00000000000E+00  0.00000000000E+00  0.39999999674E+01  0.40000000000E+01  0.51100000000E-03 0. -1.
    9000002   -1    0    0    0    0 -0.00000000000E+00 -0.00000000000E+00  0.00000000000E+00  0.93800000000E+00  0.93800000000E+00 0.  1.
         11    1    1    2    0    0  0.53784369624E-01  0.11410228406E+00  0.89509695792E+00  0.90394187581E+00  0.51100000000E-03 0. -1.
    9000002    1    1    2    0    0 -0.22742828020E+00 -0.13058174822E-01  0.43684111104E-01  0.96625381765E+00  0.93800000000E+00 0.  1.
         22    1    1    2    0    0  0.17364391057E+00 -0.10104410924E+00  0.30612188983E+01  0.30678043065E+01  0.00000000000E+00 0. -1.
</event>
<event>
 5    1  0.3454171E+002  0.1599672E+01  0.7818608E-02  0.3353719E+00
         11   -1    0    0    0    0  0.00000000000E+00  0.00000000000E+00  0.39999999674E+01  0.40000000000E+01  0.51100000000E-03 0. -1.
    9000002   -1    0    0    0    0 -0.00000000000E+00 -0.00000000000E+00  0.00000000000E+00  0.93800000000E+00  0.93800000000E+00 0. -1.
         11    1    1    2    0    0  0.38584479237E-01 -0.31632608085E-01  0.53138542650E+00  0.53372288366E+00  0.51100000000E-03 0. -1.
    9000002    1    1    2    0    0 -0.27439873734E+00  0.22468589807E+00  0.84383179040E-01  0.10063513009E+01  0.93800000000E+00 0. -1.
         22    1    1    2    0    0  0.23581425811E+00 -0.19305328999E+00  0.33842313618E+01  0.33979258155E+01  0.00000000000E+00 0. -1.
</event>
<event>
 5    1  0.3454171E+002  0.1540071E+01  0.7818608E-02  0.3421092E+00
         11   -1    0    0    0    0  0.00000000000E+00  0.00000000000E+00  0.39999999674E+01  0.40000000000E+01  0.51100000000E-03 0. -1.
    9000002   -1    0    0    0    0 -0.00000000000E+00 -0.00000000000E+00  0.00000000000E+00  0.93800000000E+00  0.93800000000E+00 0.  1.
         11    1    1    2    0    0 -0.32133723442E+00  0.86311296805E-03  0.13233608285E+01  0.13618158857E+01  0.51100000000E-03 0. -1.
    9000002    1    1    2    0    0  0.13771538542E+00 -0.13496359739E+00  0.70565861374E-01  0.96021051900E+00  0.93800000000E+00 0.  1.
         22    1    1    2    0    0  0.18362184900E+00  0.13410048442E+00  0.26060732775E+01  0.26159735953E+01  0.00000000000E+00 0. -1.
</event>
<event>
 5    1  0.3454171E+002  0.1599520E+01  0.7818608E-02  0.3353884E+00
         11   -1    0    0    0    0  0.00000000000E+00  0.00000000000E+00  0.39999999674E+01  0.40000000000E+01  0.51100000000E-03 0.  1.
    9000002   -1    0    0    0    0 -0.00000000000E+00 -0.00000000000E+00  0.00000000000E+00  0.93800000000E+00  0.93800000000E+00 0.  1.
         11    1    1    2    0    0 -0.52510575612E-02 -0.51910841483E-02  0.10465902310E+00  0.10492041364E+00  0.51100000000E-03 0.  1.
    9000002    1    1    2    0    0  0.20166218950E-01  0.23093088832E+00  0.35767146612E-01  0.96688108904E+00  0.93800000000E+00 0.  1.
         22    1    1    2    0    0 -0.14915161389E-01 -0.22573980417E+00  0.38595737976E+01  0.38661984973E+01  0.00000000000E+00 0.  1.
</event>
<event>
 5    1  0.3454171E+002  0.1599668E+01  0.7818608E-02  0.3353724E+00
         11   -1    0    0    0    0  0.00000000000E+00  0.00000000000E+00  0.39999999674E+01  0.40000000000E+01  0.51100000000E-03 0. -1.
    9000002   -1    0    0    0    0 -0.00000000000E+00 -0.00000000000E+00  0.00000000000E+00  0.93800000000E+00  0.93800000000E+00 0.  1.
         11    1    1    2    0    0 -0.18348875600E-01  0.10850575621E-01  0.28079035913E+00  0.28159883368E+00  0.51100000000E-03 0. -1.
    9000002    1    1    2    0    0  0.23316619447E+00 -0.14781506097E+00  0.50743130528E-01  0.97909888765E+00  0.93800000000E+00 0.  1.
         22    1    1    2    0    0 -0.21481731887E+00  0.13696448535E+00  0.36684664777E+01  0.36773022787E+01  0.00000000000E+00 0. -1.
</event>
<event>
 5    1  0.3454171E+002  0.1599198E+01  0.7818608E-02  0.3354234E+00
         11   -1    0    0    0    0  0.00000000000E+00  0.00000000000E+00  0.39999999674E+01  0.40000000000E+01  0.51100000000E-03 0. -1.
    9000002   -1    0    0    0    0 -0.00000000000E+00 -0.00000000000E+00  0.00000000000E+00  0.93800000000E+00  0.93800000000E+00 0. -1.
         11    1    1    2    0    0 -0.54484840703E-01 -0.28647232289E-01  0.12935168339E+01  0.12949808193E+01  0.51100000000E-03 0. -1.
    9000002    1    1    2    0    0  0.23321006845E+00  0.12323868822E+00  0.46636065854E-01  0.97549660837E+00  0.93800000000E+00 0. -1.
         22    1    1    2    0    0 -0.17872522775E+00 -0.94591455933E-01  0.26598470676E+01  0.26675225723E+01  0.00000000000E+00 0. -1.
</event>
<event>
 5    1  0.3454171E+002  0.1599677E+01  0.7818608E-02  0.3353714E+00
         11   -1    0    0    0    0  0.00000000000E+00  0.00000000000E+00  0.39999999674E+01  0.40000000000E+01  0.51100000000E-03 0.  1.
    9000002   -1    0    0    0    0 -0.00000000000E+00 -0.00000000000E+00  0.00000000000E+00  0.93800000000E+00  0.93800000000E+00 0. -1.
         11    1    1    2    0    0  0.25561047702E+00 -0.21319024918E+00  0.22958552249E+01  0.23198573821E+01  0.51100000000E-03 0.  1.
    9000002    1    1    2    0    0 -0.42260932686E+00  0.35203555047E+00  0.20895715210E+00  0.11072645408E+01  0.93800000000E+00 0. -1.
         22    1    1    2    0    0  0.16699884984E+00 -0.13884530129E+00  0.14951875903E+01  0.15108780771E+01  0.00000000000E+00 0. -1.
</event>
<event>
 5    1  0.3454171E+002  0.1598226E+01  0.7818608E-02  0.3355291E+00
         11   -1    0    0    0    0  0.00000000000E+00  0.00000000000E+00  0.39999999674E+01  0.40000000000E+01  0.51100000000E-03 0.  1.
    9000002   -1    0    0    0    0 -0.00000000000E+00 -0.00000000000E+00  0.00000000000E+00  0.93800000000E+00  0.93800000000E+00 0. -1.
         11    1    1    2    0    0 -0.44829069369E-01 -0.60903482837E-01  0.11238840584E+01  0.11264255491E+01  0.51100000000E-03 0.  1.
    9000002    1    1    2    0    0  0.16394278259E+00  0.35530652181E+00  0.10436987649E+00  0.10216932179E+01  0.93800000000E+00 0. -1.
         22    1    1    2    0    0 -0.11911371322E+00 -0.29440303897E+00  0.27717460325E+01  0.27898812330E+01  0.00000000000E+00 0.  1.
</event>
<event>
 5    1  0.3454171E+002  0.1599570E+01  0.7818608E-02  0.3353830E+00
         11   -1    0    0    0    0  0.00000000000E+00  0.00000000000E+00  0.39999999674E+01  0.40000000000E+01  0.51100000000E-03 0. -1.
    9000002   -1    0    0    0    0 -0.00000000000E+00 -0.00000000000E+00  0.00000000000E+00  0.93800000000E+00  0.93800000000E+00 0. -1.
         11    1    1    2    0    0 -0.18750957501E+00  0.77416523806E-01  0.15402731501E+01  0.15535748444E+01  0.51100000000E-03 0. -1.
    9000002    1    1    2    0    0  0.44289817424E+00 -0.21142998448E+00  0.16472635570E+00  0.10713730458E+01  0.93800000000E+00 0. -1.
         22    1    1    2    0    0 -0.25538859923E+00  0.13401346068E+00  0.22950004615E+01  0.23130521098E+01  0.00000000000E+00 0. -1.
</event>
<event>
 5    1  0.3454171E+002  0.1599185E+01  0.7818608E-02  0.3354249E+00
         11   -1    0    0    0    0  0.00000000000E+00  0.00000000000E+00  0.39999999674E+01  0.40000000000E+01  0.51100000000E-03 0. -1.
    9000002   -1    0    0    0    0 -0.00000000000E+00 -0.00000000000E+00  0.00000000000E+00  0.93800000000E+00  0.93800000000E+00 0.  1.
         11    1    1    2    0    0  0.23888197176E-01  0.24825525131E-01  0.27958837394E+00  0.28170351901E+00  0.51100000000E-03 0. -1.
    9000002    1    1    2    0    0 -0.42441066886E+00 -0.17676561109E+00  0.14419755455E+00  0.10545176299E+01  0.93800000000E+00 0.  1.
         22    1    1    2    0    0  0.40052247168E+00  0.15194008596E+00  0.35762140389E+01  0.36017788511E+01  0.00000000000E+00 0. -1.
</event>
<event>
 5    1  0.3454171E+002  0.1599268E+01  0.7818608E-02  0.3354159E+00
         11   -1    0    0    0    0  0.00000000000E+00  0.00000000000E+00  0.39999999674E+01  0.40000000000E+01  0.51100000000E-03 0.  1.
    9000002   -1    0    0    0    0 -0.00000000000E+00 -0.00000000000E+00  0.00000000000E+00  0.93800000000E+00  0.93800000000E+00 0. -1.
         11    1    1    2    0    0 -0.17460254529E+00  0.14102452531E+00  0.19696501954E+01  0.19823965594E+01  0.51100000000E-03 0.  1.
    9000002    1    1    2    0    0  0.32356175571E+00 -0.32028486675E+00  0.14124311493E+00  0.10521730956E+01  0.93800000000E+00 0. -1.
         22    1    1    2    0    0 -0.14895921042E+00  0.17926034144E+00  0.18891066571E+01  0.19034303450E+01  0.00000000000E+00 0.  1.
</event>
<event>
 5    1  0.3454171E+002  0.1577226E+01  0.7818608E-02  0.3378459E+00
         11   -1    0    0    0    0  0.00000000000E+00  0.00000000000E+00  0.39999999674E+01  0.40000000000E+01  0.51100000000E-03 0.  1.
    9000002   -1    0    0    0    0 -0.00000000000E+00 -0.00000000000E+00  0.00000000000E+00  0.93800000000E+00  0.93800000000E+00 0.  1.
         11    1    1    2    0    0 -0.10021415867E+00  0.13261299449E-01  0.24584184798E+01  0.24604959708E+01  0.51100000000E-03 0.  1.
    9000002    1    1    2    0    0 -0.84880017295E-01  0.11750318189E+00  0.30605782640E-01  0.94962746855E+00  0.93800000000E+00 0.  1.
         22    1    1    2    0    0  0.18509417596E+00 -0.13076448134E+00  0.15109757049E+01  0.15278765606E+01  0.00000000000E+00 0.  1.
</event>
<event>
 5    1  0.3454171E+002  0.1577374E+01  0.7818608E-02  0.3378293E+00
         11   -1    0    0    0    0  0.00000000000E+00  0.00000000000E+00  0.39999999674E+01  0.40000000000E+01  0.51100000000E-03 0.  1.
    9000002   -1    0    0    0    0 -0.00000000000E+00 -0.00000000000E+00  0.00000000000E+00  0.93800000000E+00  0.93800000000E+00 0.  1.
         11    1    1    2    0    0 -0.71970865139E-01 -0.60643423130E+00  0.18974517799E+01  0.19933052452E+01  0.51100000000E-03 0.  1.
    9000002    1    1    2    0    0  0.22130096150E+00  0.78872826118E+00  0.52808613281E+00  0.13526955863E+01  0.93800000000E+00 0.  1.
         22    1    1    2    0    0 -0.14933009636E+00 -0.18229402988E+00  0.15744620546E+01  0.15919991685E+01  0.00000000000E+00 0. -1.
</event>
<event>
 5    1  0.3454171E+002  0.1599635E+01  0.7818608E-02  0.3353759E+00
         11   -1    0    0    0    0  0.00000000000E+00  0.00000000000E+00  0.39999999674E+01  0.40000000000E+01  0.51100000000E-03 0. -1.
    9000002   -1    0    0    0    0 -0.00000000000E+00 -0.00000000000E+00  0.00000000000E+00  0.93800000000E+00  0.93800000000E+00 0.  1.
         11    1    1    2    0    0 -0.53409580125E-01 -0.46313681178E-01  0.78811162110E+00  0.79127601300E+00  0.51100000000E-03 0. -1.
    9000002    1    1    2    0    0  0.23547970636E+00  0.22649194756E+00  0.71432895062E-01  0.99583932083E+00  0.93800000000E+00 0.  1.
         22    1    1    2    0    0 -0.18207012624E+00 -0.18017826638E+00  0.31404554512E+01  0.31508846662E+01  0.00000000000E+00 0. -1.
</event>
<event>
 5    1  0.3454171E+002  0.1599564E+01  0.7818608E-02  0.3353837E+00
         11   -1    0    0    0    0  0.00000000000E+00  0.00000000000E+00  0.39999999674E+01  0.40000000000E+01  0.51100000000E-03 0. -1.
    9000002   -1    0    0    0    0 -0.00000000000E+00 -0.00000000000E+00  0.00000000000E+00  0.93800000000E+00  0.93800000000E+00 0.  1.
         11    1    1    2    0    0  0.73756400846E-01 -0.96635428945E-01  0.10717181251E+01  0.10785909389E+01  0.51100000000E-03 0. -1.
    9000002    1    1    2    0    0 -0.26482539855E+00  0.38847482313E+00  0.15068876319E+00  0.10599982468E+01  0.93800000000E+00 0.  1.
         22    1    1    2    0    0  0.19106899770E+00 -0.29183939419E+00  0.27775930791E+01  0.27994108143E+01  0.00000000000E+00 0. -1.
</event>
<event>
 5    1  0.3454171E+002  0.1599677E+01  0.7818608E-02  0.3353714E+00
         11   -1    0    0    0    0  0.00000000000E+00  0.00000000000E+00  0.39999999674E+01  0.40000000000E+01  0.51100000000E-03 0.  1.
    9000002   -1    0    0    0    0 -0.00000000000E+00 -0.00000000000E+00  0.00000000000E+00  0.93800000000E+00  0.93800000000E+00 0.  1.
         11    1    1    2    0    0 -0.14053896659E+00 -0.12188898571E+00  0.17987528034E+01  0.18083473214E+01  0.51100000000E-03 0.  1.
    9000002    1    1    2    0    0  0.30433752994E+00  0.26350719539E+00  0.10934704636E+00  0.10265759352E+01  0.93800000000E+00 0.  1.
         22    1    1    2    0    0 -0.16379856335E+00 -0.14161820968E+00  0.20919001176E+01  0.21030767434E+01  0.00000000000E+00 0. -1.
</event>
<event>
 5    1  0.3454171E+002  0.1599677E+01  0.7818608E-02  0.3353714E+00
         11   -1    0    0    0    0  0.00000000000E+00  0.00000000000E+00  0.39999999674E+01  0.40000000000E+01  0.51100000000E-03 0. -1.
    9000002   -1    0    0    0    0 -0.00000000000E+00 -0.00000000000E+00  0.00000000000E+00  0.93800000000E+00  0.93800000000E+00 0.  1.
         11    1    1    2    0    0 -0.50158860084E+00  0.29790910924E+00  0.21119398330E+01  0.21910342492E+01  0.51100000000E-03 0. -1.
    9000002    1    1    2    0    0  0.79301450981E+00 -0.47176223613E+00  0.65834820453E+00  0.14712912623E+01  0.93800000000E+00 0.  1.
         22    1    1    2    0    0 -0.29142590896E+00  0.17385312689E+00  0.12297119298E+01  0.12756744885E+01  0.00000000000E+00 0. -1.
</event>
<event>
 5    1  0.3454171E+002  0.1598690E+01  0.7818608E-02  0.3354786E+00
         11   -1    0    0    0    0  0.00000000000E+00  0.00000000000E+00  0.39999999674E+01  0.40000000000E+01  0.51100000000E-03 0. -1.
    9000002   -1    0    0    0    0 -0.00000000000E+00 -0.00000000000E+00  0.00000000000E+00  0.93800000000E+00  0.93800000000E+00 0.  1.
         11    1    1    2    0    0  0.22180451952E-01 -0.13358109346E-01  0.18674399176E+00  0.18853114097E+00  0.51100000000E-03 0. -1.
    9000002    1    1    2    0    0 -0.41164938801E+00 -0.55052314748E-01  0.11740966575E+00  0.10325284527E+01  0.93800000000E+00 0.  1.
         22    1    1    2    0    0  0.38946893605E+00  0.68410424094E-01  0.36958463098E+01  0.37169404063E+01  0.00000000000E+00 0. -1.
</event>
<event>
 5    1  0.3454171E+002  0.1592964E+01  0.7818608E-02  0.3361035E+00
         11   -1    0    0    0    0  0.00000000000E+00  0.00000000000E+00  0.39999999674E+01  0.40000000000E+01  0.51100000000E-03 0. -1.
    9000002   -1    0    0    0    0 -0.00000000000E+00 -0.00000000000E+00  0.00000000000E+00  0.93800000000E+00  0.93800000000E+00 0.  1.
         11    1    1    2    0    0 -0.35431952735E-01  0.28643944403E-01  0.35232726233E+00  0.35526139634E+00  0.51100000000E-03 0. -1.
    9000002    1    1    2    0    0 -0.21833366669E+00 -0.18461984038E+00  0.59704095222E-01  0.98242692067E+00  0.93800000000E+00 0.  1.
         22    1    1    2    0    0  0.25376561942E+00  0.15597589598E+00  0.35879686098E+01  0.36003116830E+01  0.00000000000E+00 0. -1.
</event>
<event>
 5    1  0.3454171E+002  0.1594908E+01  0.7818608E-02  0.3358909E+00
         11   -1    0    0    0    0  0.00000000000E+00  0.00000000000E+00  0.39999999674E+01  0.40000000000E+01  0.51100000000E-03 0.  1.
    9000002   -1    0    0    0    0 -0.00000000000E+00 -0.00000000000E+00  0.00000000000E+00  0.93800000000E+00  0.93800000000E+00 0. -1.
         11    1    1    2    0    0  0.18585692389E+00 -0.54827349068E-01  0.18595823979E+01  0.18696512482E+01  0.51100000000E-03 0.  1.
    9000002    1    1    2    0    0 -0.27983620431E+00  0.24995747277E+00  0.98584990221E-01  0.10150615941E+01  0.93800000000E+00 0. -1.
         22    1    1    2    0    0  0.93979280415E-01 -0.19513012370E+00  0.20418325793E+01  0.20532871577E+01  0.00000000000E+00 0.  1.
</event>
<event>
 5    1  0.3454171E+002  0.1469082E+01  0.7818608E-02  0.3508987E+00
         11   -1    0    0    0    0  0.00000000000E+00  0.00000000000E+00  0.39999999674E+01  0.40000000000E+01  0.51100000000E-03 0. -1.
    9000002   -1    0    0    0    0 -0.00000000000E+00 -0.00000000000E+00  0.00000000000E+00  0.93800000000E+00  0.93800000000E+00 0. -1.
         11    1    1    2    0    0  0.12566230890E+00  0.41940328373E+00  0.26816510462E+01  0.27171571035E+01  0.51100000000E-03 0. -1.
    9000002    1    1    2    0    0 -0.11275791973E+00 -0.27054645067E-01  0.11142951405E+00  0.95168631328E+00  0.93800000000E+00 0. -1.
         22    1    1    2    0    0 -0.12904389169E-01 -0.39234863867E+00  0.12069194071E+01  0.12691565832E+01  0.00000000000E+00 0. -1.
</event>
<event>
 5    1  0.3454171E+002  0.1599677E+01  0.7818608E-02  0.3353714E+00
         11   -1    0    0    0    0  0.00000000000E+00  0.00000000000E+00  0.39999999674E+01  0.40000000000E+01  0.51100000000E-03 0. -1.
    9000002   -1    0    0    0    0 -0.00000000000E+00 -0.00000000000E+00  0.00000000000E+00  0.93800000000E+00  0.93800000000E+00 0. -1.
         11    1    1    2    0    0  0.31482630004E-01  0.61313166309E-01  0.75679891254E+00  0.75993112549E+00  0.51100000000E-03 0.  1.
    9000002    1    1    2    0    0 -0.16281628275E+00 -0.31811087326E+00  0.85697073774E-01  0.10074183133E+01  0.93800000000E+00 0. -1.
         22    1    1    2    0    0  0.13133365274E+00  0.25679770695E+00  0.31575039810E+01  0.31706505612E+01  0.00000000000E+00 0. -1.
</event>
<event>
 5    1  0.3454171E+002  0.1598130E+01  0.7818608E-02  0.3355395E+00
         11   -1    0    0    0    0  0.00000000000E+00  0.00000000000E+00  0.39999999674E+01  0.40000000000E+01  0.51100000000E-03 0.  1.
    9000002   -1    0    0    0    0 -0.00000000000E+00 -0.00000000000E+00  0.00000000000E+00  0.93800000000E+00  0.93800000000E+00 0. -1.
         11    1    1    2    0    0  0.27846460166E-01  0.19503143889E-01  0.10506150516E+01  0.10511650896E+01  0.51100000000E-03 0.  1.
    9000002    1    1    2    0    0 -0.82022569308E-01 -0.22942827647E+00  0.40596284090E-01  0.96997788336E+00  0.93800000000E+00 0. -1.
         22    1    1    2    0    0  0.54176109142E-01  0.20992513258E+00  0.29087886317E+01  0.29168570270E+01  0.00000000000E+00 0.  1.
</event>
<event>
 5    1  0.3454171E+002  0.1590591E+01  0.7818608E-02  0.3363639E+00
         11   -1    0    0    0    0  0.00000000000E+00  0.00000000000E+00  0.39999999674E+01  0.40000000000E+01  0.51100000000E-03 0.  1.
    9000002   -1    0    0    0    0 -0.00000000000E+00 -0.00000000000E+00  0.00000000000E+00  0.93800000000E+00  0.93800000000E+00 0. -1.
         11    1    1    2    0    0  0.22392971161E-01  0.11459818476E+00  0.16850817255E+01  0.16891225154E+01  0.51100000000E-03 0.  1.
    9000002    1    1    2    0    0  0.21093829552E+00 -0.28756140747E+00  0.92725557531E-01  0.10077839831E+01  0.93800000000E+00 0. -1.
         22    1    1    2    0    0 -0.23333126668E+00  0.17296322271E+00  0.22221926843E+01  0.22410935015E+01  0.00000000000E+00 0. -1.
</event>
<event>
 5    1  0.3454171E+002  0.1583997E+01  0.7818608E-02  0.3370918E+00
         11   -1    0    0    0    0  0.00000000000E+00  0.00000000000E+00  0.39999999674E+01  0.40000000000E+01  0.51100000000E-03 0. -1.
    9000002   -1    0    0    0    0 -0.00000000000E+00 -0.00000000000E+00  0.00000000000E+00  0.93800000000E+00  0.93800000000E+00 0. -1.
         11    1    1    2    0    0 -0.16435465094E+00 -0.14599142829E+00  0.11959354726E+01  0.12159719833E+01  0.51100000000E-03 0. -1.
    9000002    1    1    2    0    0  0.48358617901E+00  0.21646881672E-01  0.17405163720E+00  0.10697953788E+01  0.93800000000E+00 0. -1.
         22    1    1    2    0    0 -0.31923152808E+00  0.12434454662E+00  0.26300128575E+01  0.26522326379E+01  0.00000000000E+00 0. -1.
</event>
<event>
 5    1  0.3454171E+002  0.1599666E+01  0.7818608E-02  0.3353726E+00
         11   -1    0    0    0    0  0.00000000000E+00  0.00000000000E+00  0.39999999674E+01  0.40000000000E+01  0.51100000000E-03 0.  1.
    9000002   -1    0    0    0    0 -0.00000000000E+00 -0.00000000000E+00  0.00000000000E+00  0.93800000000E+00  0.93800000000E+00 0.  1.
         11    1    1    2    0    0  0.16269325978E+00  0.14486268202E+00  0.16900743508E+01  0.17040557109E+01  0.51100000000E-03 0.  1.
    9000002    1    1    2    0    0 -0.36153436894E+00 -0.32494645239E+00  0.16139792467E+00  0.10687331692E+01  0.93800000000E+00 0.  1.
         22    1    1    2    0    0  0.19884110916E+00  0.18008377037E+00  0.21485276919E+01  0.21652111199E+01  0.00000000000E+00 0.  1.
</event>
<event>
 5    1  0.3454171E+002  0.1599668E+01  0.7818608E-02  0.3353724E+00
         11   -1    0    0    0    0  0.00000000000E+00  0.00000000000E+00  0.39999999674E+01  0.40000000000E+01  0.51100000000E-03 0. -1.
    9000002   -1    0    0    0    0 -0.00000000000E+00 -0.00000000000E+00  0.00000000000E+00  0.93800000000E+00  0.93800000000E+00 0.  1.
         11    1    1    2    0    0  0.37848482798E+00  0.10565572857E+00  0.24322502524E+01  0.24637888402E+01  0.51100000000E-03 0. -1.
    9000002    1    1    2    0    0 -0.57856174117E+00 -0.16013068704E+00  0.25145957484E+00  0.11416879797E+01  0.93800000000E+00 0.  1.
         22    1    1    2    0    0  0.20007691319E+00  0.54474958476E-01  0.13162901402E+01  0.13325231801E+01  0.00000000000E+00 0.  1.
</event>
<event>
 5    1  0.3454171E+002  0.1521928E+01  0.7818608E-02  0.3442718E+00
         11   -1    0    0    0    0  0.00000000000E+00  0.00000000000E+00  0.39999999674E+01  0.40000000000E+01  0.51100000000E-03 0.  1.
    9000002   -1    0    0    0    0 -0.00000000000E+00 -0.00000000000E+00  0.00000000000E+00  0.93800000000E+00  0.93800000000E+00 0.  1.
         11    1    1    2    0    0  0.20777799095E+00  0.17971240100E+00  0.16886510550E+01  0.17108509249E+01  0.51100000000E-03 0.  1.
    9000002    1    1    2    0    0  0.97508362330E-01  0.91657068712E-01  0.71314272196E-01  0.95017820665E+00  0.93800000000E+00 0.  1.
         22    1    1    2    0    0 -0.30528635328E+00 -0.27136946971E+00  0.22400346402E+01  0.22769708685E+01  0.00000000000E+00 0.  1.
</event>
<event>
 5    1  0.3454171E+002  0.1599676E+01  0.7818608E-02  0.3353715E+00
         11   -1    0    0    0    0  0.00000000000E+00  0.00000000000E+00  0.39999999674E+01  0.40000000000E+01  0.51100000000E-03 0.  1.
    9000002   -1    0    0    0    0 -0.00000000000E+00 -0.00000000000E+00  0.00000000000E+00  0.93800000000E+00  0.93800000000E+00 0. -1.
         11    1    1    2    0    0  0.28985828181E-01  0.11005669430E-01  0.48839335019E+00  0.48937677573E+00  0.51100000000E-03 0. -1.
    9000002    1    1    2    0    0 -0.23766166815E+00 -0.87434838736E-01  0.42610557219E-01  0.97251610738E+00  0.93800000000E+00 0. -1.
         22    1    1    2    0    0  0.20867583997E+00  0.76429169306E-01  0.34689960600E+01  0.34761071169E+01  0.00000000000E+00 0.  1.
</event>
<event>
 5    1  0.3454171E+002  0.1599415E+01  0.7818608E-02  0.3353998E+00
         11   -1    0    0    0    0  0.00000000000E+00  0.00000000000E+00  0.39999999674E+01  0.40000000000E+01  0.51100000000E-03 0. -1.
    9000002   -1    0    0    0    0 -0.00000000000E+00 -0.00000000000E+00  0.00000000000E+00  0.93800000000E+00  0.93800000000E+00 0. -1.
         11    1    1    2    0    0 -0.85882106880E-05 -0.15451979563E-02  0.88943813804E-01  0.88958703034E-01  0.51100000000E-03 0. -1.
    9000002    1    1    2    0    0 -0.20497598311E+00 -0.84332006940E-01  0.32765814171E-01  0.96438822039E+00  0.93800000000E+00 0. -1.
         22    1    1    2    0    0  0.20498457132E+00  0.85877204896E-01  0.38782903394E+01  0.38846530766E+01  0.00000000000E+00 0. -1.
</event>
<event>
 5    1  0.3454171E+002  0.1599666E+01  0.7818608E-02  0.3353726E+00
         11   -1    0    0    0    0  0.00000000000E+00  0.00000000000E+00  0.39999999674E+01  0.40000000000E+01  0.51100000000E-03 0. -1.
    9000002   -1    0    0    0    0 -0.00000000000E+00 -0.00000000000E+00  0.00000000000E+00  0.93800000000E+00  0.93800000000E+00 0.  1.
         11    1    1    2    0    0  0.78750327770E-01 -0.36810444261E-02  0.10999656646E+01  0.11027873270E+01  0.51100000000E-03 0. -1.
    9000002    1    1    2    0    0 -0.29456693110E+00  0.10405393732E-01  0.57937617651E-01  0.98492574170E+00  0.93800000000E+00 0.  1.
         22    1    1    2    0    0  0.21581660333E+00 -0.67243493061E-02  0.28420966851E+01  0.28502869313E+01  0.00000000000E+00 0. -1.
</event>
<event>
 5    1  0.3454171E+002  0.1599327E+01  0.7818608E-02  0.3354094E+00
         11   -1    0    0    0    0  0.00000000000E+00  0.00000000000E+00  0.39999999674E+01  0.40000000000E+01  0.51100000000E-03 0. -1.
    9000002   -1    0    0    0    0 -0.00000000000E+00 -0.00000000000E+00  0.00000000000E+00  0.93800000000E+00  0.93800000000E+00 0. -1.
         11    1    1    2    0    0  0.12002600157E-01  0.24695442087E+00  0.96397977666E+00  0.99518230457E+00  0.51100000000E-03 0. -1.
    9000002    1    1    2    0    0 -0.54268489679E-01 -0.92582368471E+00  0.66706094684E+00  0.14781437247E+01  0.93800000000E+00 0. -1.
         22    1    1    2    0    0  0.42265889522E-01  0.67886926384E+00  0.23689592439E+01  0.24646739707E+01  0.00000000000E+00 0. -1.
</event>
<event>
 5    1  0.3454171E+002  0.1596182E+01  0.7818608E-02  0.3357517E+00
         11   -1    0    0    0    0  0.00000000000E+00  0.00000000000E+00  0.39999999674E+01  0.40000000000E+01  0.51100000000E-03 0. -1.
    9000002   -1    0    0    0    0 -0.00000000000E+00 -0.00000000000E+00  0.00000000000E+00  0.93800000000E+00  0.93800000000E+00 0. -1.
         11    1    1    2    0    0  0.13258934429E+00 -0.11464604935E+00  0.16096246120E+01  0.16191402976E+01  0.51100000000E-03 0. -1.
    9000002    1    1    2    0    0 -0.34601627075E+00  0.11004950902E+00  0.91371458900E-01  0.10099657903E+01  0.93800000000E+00 0. -1.
         22    1    1    2    0    0  0.21342692646E+00  0.45965403281E-02  0.22990038965E+01  0.23088939121E+01  0.00000000000E+00 0. -1.
</event>
<event>
 5    1  0.3454171E+002  0.1599109E+01  0.7818608E-02  0.3354332E+00
         11   -1    0    0    0    0  0.00000000000E+00  0.00000000000E+00  0.39999999674E+01  0.40000000000E+01  0.51100000000E-03 0. -1.
    9000002   -1    0    0    0    0 -0.00000000000E+00 -0.00000000000E+00  0.00000000000E+00  0.93800000000E+00  0.93800000000E+00 0.  1.
         11    1    1    2    0    0  0.46759415418E-01 -0.65588765087E-01  0.69359892587E+00  0.69826073935E+00  0.51100000000E-03 0. -1.
    9000002    1    1    2    0    0 -0.29599814039E+00  0.24970062634E+00  0.10146122384E+00  0.10198547357E+01  0.93800000000E+00 0.  1.
         22    1    1    2    0    0  0.24923872497E+00 -0.18411186125E+00  0.32049398177E+01  0.32198845250E+01  0.00000000000E+00 0. -1.
</event>
<event>
 5    1  0.3454171E+002  0.1599657E+01  0.7818608E-02  0.3353735E+00
         11   -1    0    0    0    0  0.00000000000E+00  0.00000000000E+00  0.39999999674E+01  0.40000000000E+01  0.51100000000E-03 0.  1.
    9000002   -1    0    0    0    0 -0.00000000000E+00 -0.00000000000E+00  0.00000000000E+00  0.93800000000E+00  0.93800000000E+00 0. -1.
         11    1    1    2    0    0 -0.13603749867E+00  0.11155148388E+00  0.16747199513E+01  0.16839350079E+01  0.51100000000E-03 0.  1.
    9000002    1    1    2    0    0  0.32585815969E+00 -0.26478196377E+00  0.11924234909E+00  0.10345799952E+01  0.93800000000E+00 0. -1.
         22    1    1    2    0    0 -0.18982066102E+00  0.15323047988E+00  0.22060376670E+01  0.22194849969E+01  0.00000000000E+00 0.  1.
</event>
<event>
 5    1  0.3454171E+002  0.1599674E+01  0.7818608E-02  0.3353717E+00
         11   -1    0    0    0    0  0.00000000000E+00  0.00000000000E+00  0.39999999674E+01  0.40000000000E+01  0.51100000000E-03 0. -1.
    9000002   -1    0    0    0    0 -0.00000000000E+00 -0.00000000000E+00  0.00000000000E+00  0.93800000000E+00  0.93800000000E+00 0. -1.
         11    1    1    2    0    0  0.15145822575E+00  0.58374964540E-01  0.14553010162E+01  0.14643252847E+01  0.51100000000E-03 0. -1.
    9000002    1    1    2    0    0 -0.40797622394E+00 -0.15678042968E+00  0.12950046821E+00  0.10428993593E+01  0.93800000000E+00 0. -1.
         22    1    1    2    0    0  0.25651799819E+00  0.98405465141E-01  0.24151984829E+01  0.24307753559E+01  0.00000000000E+00 0. -1.
</event>
<event>
 5    1  0.3454171E+002  0.1598126E+01  0.7818608E-02  0.3355400E+00
         11   -1    0    0    0    0  0.00000000000E+00  0.00000000000E+00  0.39999999674E+01  0.40000000000E+01  0.51100000000E-03 0.  1.
    9000002   -1    0    0    0    0 -0.00000000000E+00 -0.00000000000E+00  0.00000000000E+00  0.93800000000E+00  0.93800000000E+00 0.  1.
         11    1    1    2    0    0 -0.61726898028E+00  0.60846313683E+00  0.21913330314E+01  0.23565205491E+01  0.51100000000E-03 0.  1.
    9000002    1    1    2    0    0  0.82111032363E+00 -0.75326826268E+00  0.10861510442E+01  0.18169213879E+01  0.93800000000E+00 0.  1.
         22    1    1    2    0    0 -0.20384134335E+00  0.14480512585E+00  0.72251589179E+00  0.76455806295E+00  0.00000000000E+00 0.  1.
</event>
<event>
 5    1  0.3454171E+002  0.1578327E+01  0.7818608E-02  0.3377228E+00
         11   -1    0    0    0    0  0.00000000000E+00  0.00000000000E+00  0.39999999674E+01  0.40000000000E+01  0.51100000000E-03 0. -1.
    9000002   -1    0    0    0    0 -0.00000000000E+00 -0.00000000000E+00  0.00000000000E+00  0.93800000000E+00  0.93800000000E+00 0. -1.
         11    1    1    2    0    0  0.17412423235E+00 -0.28286767078E-01  0.16446335458E+01  0.16540674565E+01  0.51100000000E-03 0. -1.
    9000002    1    1    2    0    0 -0.70699964097E-01  0.29661077377E+00  0.79001086728E-01  0.98947542049E+00  0.93800000000E+00 0. -1.
         22    1    1    2    0    0 -0.10342426825E+00 -0.26832400670E+00  0.22763653348E+01  0.22944571230E+01  0.00000000000E+00 0. -1.
</event>
<event>
 5    1  0.3454171E+002  0.1599509E+01  0.7818608E-02  0.3353896E+00
         11   -1    0    0    0    0  0.00000000000E+00  0.00000000000E+00  0.39999999674E+01  0.40000000000E+01  0.51100000000E-03 0. -1.
    9000002   -1    0    0    0    0 -0.00000000000E+00 -0.00000000000E+00  0.00000000000E+00  0.93800000000E+00  0.93800000000E+00 0.  1.
         11    1    1    2    0    0  0.41969122118E-01  0.23744389180E-01  0.62589029561E+00  0.62774527198E+00  0.51100000000E-03 0. -1.
    9000002    1    1    2    0    0 -0.19591749995E+00 -0.16930487071E+00  0.44699010869E-01  0.97410975132E+00  0.93800000000E+00 0.  1.
         22    1    1    2    0    0  0.15394837784E+00  0.14556048154E+00  0.33294106609E+01  0.33361449767E+01  0.00000000000E+00 0. -1.
</event>
<event>
 5    1  0.3454171E+002  0.1598955E+01  0.7818608E-02  0.3354498E+00
         11   -1    0    0    0    0  0.00000000000E+00  0.00000000000E+00  0.39999999674E+01  0.40000000000E+01  0.51100000000E-03 0. -1.
    9000002   -1    0    0    0    0 -0.00000000000E+00 -0.00000000000E+00  0.00000000000E+00  0.93800000000E+00  0.93800000000E+00 0.  1.
         11    1    1    2    0    0 -0.98317093468E-01  0.51549356050E-01  0.76183806133E+00  0.76988380928E+00  0.51100000000E-03 0. -1.
    9000002    1    1    2    0    0  0.45803274686E+00 -0.13529362345E+00  0.15621417424E+00  0.10641171129E+01  0.93800000000E+00 0.  1.
         22    1    1    2    0    0 -0.35971565340E+00  0.83744267398E-01  0.30819477318E+01  0.31039990778E+01  0.00000000000E+00 0. -1.
</event>
<event>
 5    1  0.3454171E+002  0.1599629E+01  0.7818608E-02  0.3353767E+00
         11   -1    0    0    0    0  0.00000000000E+00  0.00000000000E+00  0.39999999674E+01  0.40000000000E+01  0.51100000000E-03 0.  1.
    9000002   -1    0    0    0    0 -0.00000000000E+00 -0.00000000000E+00  0.00000000000E+00  0.93800000000E+00  0.93800000000E+00 0. -1.
         11    1    1    2    0    0 -0.23230612691E-01 -0.47578527222E-01  0.71343642054E+00  0.71539860560E+00  0.51100000000E-03 0.  1.
    9000002    1    1    2    0    0  0.14953104110E+00  0.29030150181E+00  0.71360148106E-01  0.99577646334E+00  0.93800000000E+00 0. -1.
         22    1    1    2    0    0 -0.12630042841E+00 -0.24272297459E+00  0.32152033987E+01  0.32268249311E+01  0.00000000000E+00 0.  1.
</event>
<event>
 5    1  0.3454171E+002  0.1599677E+01  0.7818608E-02  0.3353714E+00
         11   -1    0    0    0    0  0.00000000000E+00  0.00000000000E+00  0.39999999674E+01  0.40000000000E+01  0.51100000000E-03 0.  1.
    9000002   -1    0    0    0    0 -0.00000000000E+00 -0.00000000000E+00  0.00000000000E+00  0.93800000000E+00  0.93800000000E+00 0. -1.
         11    1    1    2    0    0  0.43340425796E+00  0.36329843234E+00  0.23145415800E+01  0.23826304767E+01  0.51100000000E-03 0.  1.
    9000002    1    1    2    0    0 -0.64807331374E+00 -0.54448846546E+00  0.53662448589E+00  0.13726895308E+01  0.93800000000E+00 0.  1.
         22    1    1    2    0    0  0.21466905578E+00  0.18119003313E+00  0.11488339015E+01  0.11826799925E+01  0.00000000000E+00 0.  1.
</event>
<event>
 5    1  0.3454171E+002  0.1599091E+01  0.7818608E-02  0.3354350E+00
         11   -1    0    0    0    0  0.00000000000E+00  0.00000000000E+00  0.39999999674E+01  0.40000000000E+01  0.51100000000E-03 0. -1.
    9000002   -1    0    0    0    0 -0.00000000000E+00 -0.00000000000E+00  0.00000000000E+00  0.93800000000E+00  0.93800000000E+00 0. -1.
         11    1    1    2    0    0  0.32138071941E-01 -0.12368932972E+00  0.16436460396E+01  0.16486068272E+01  0.51100000000E-03 0. -1.
    9000002    1    1    2    0    0 -0.33368659329E-01  0.34812031612E+00  0.82473446132E-01  0.10044635838E+01  0.93800000000E+00 0. -1.
         22    1    1    2    0    0  0.12305873883E-02 -0.22443098640E+00  0.22738804816E+01  0.22849295890E+01  0.00000000000E+00 0. -1.
</event>
<event>
 5    1  0.3454171E+002  0.1599100E+01  0.7818608E-02  0.3354341E+00
         11   -1    0    0    0    0  0.00000000000E+00  0.00000000000E+00  0.39999999674E+01  0.40000000000E+01  0.51100000000E-03 0. -1.
    9000002   -1    0    0    0    0 -0.00000000000E+00 -0.00000000000E+00  0.00000000000E+00  0.93800000000E+00  0.93800000000E+00 0. -1.
         11    1    1    2    0    0  0.18685211517E+00 -0.10719053437E+00  0.84578052329E+00  0.87278203368E+00  0.51100000000E-03 0. -1.
    9000002    1    1    2    0    0 -0.69181727012E+00  0.51078659061E+00  0.55760291515E+00  0.13893448411E+01  0.93800000000E+00 0. -1.
         22    1    1    2    0    0  0.50496515495E+00 -0.40359605624E+00  0.25966165289E+01  0.26758731253E+01  0.00000000000E+00 0. -1.
</event>
<event>
 5    1  0.3454171E+002  0.1597199E+01  0.7818608E-02  0.3356409E+00
         11   -1    0    0    0    0  0.00000000000E+00  0.00000000000E+00  0.39999999674E+01  0.40000000000E+01  0.51100000000E-03 0. -1.
    9000002   -1    0    0    0    0 -0.00000000000E+00 -0.00000000000E+00  0.00000000000E+00  0.93800000000E+00  0.93800000000E+00 0.  1.
         11    1    1    2    0    0 -0.40570142037E-01 -0.20841348004E+00  0.16512395161E+01  0.16648346211E+01  0.51100000000E-03 0. -1.
    9000002    1    1    2    0    0 -0.36069373159E-01  0.44205040401E+00  0.13560762117E+00  0.10463952343E+01  0.93800000000E+00 0.  1.
         22    1    1    2    0    0  0.76639515197E-01 -0.23363692397E+00  0.22131528301E+01  0.22267701446E+01  0.00000000000E+00 0. -1.
</event>
<event>
 5    1  0.3454171E+002  0.1581322E+01  0.7818608E-02  0.3373889E+00
         11   -1    0    0    0    0  0.00000000000E+00  0.00000000000E+00  0.39999999674E+01  0.40000000000E+01  0.51100000000E-03 0.  1.
    9000002   -1    0    0    0    0 -0.00000000000E+00 -0.00000000000E+00  0.00000000000E+00  0.93800000000E+00  0.93800000000E+00 0. -1.
         11    1    1    2    0    0  0.36835344749E-01 -0.55417966920E-01  0.21639970435E+00  0.22640028013E+00  0.51100000000E-03 0.  1.
    9000002    1    1    2    0    0  0.43261988587E+00  0.19560695498E+00  0.17004233145E+00  0.10649790801E+01  0.93800000000E+00 0. -1.
         22    1    1    2    0    0 -0.46945523062E+00 -0.14018898806E+00  0.36135579316E+01  0.36466206398E+01  0.00000000000E+00 0.  1.
</event>
<event>
 5    1  0.3454171E+002  0.1548815E+01  0.7818608E-02  0.3410863E+00
         11   -1    0    0    0    0  0.00000000000E+00  0.00000000000E+00  0.39999999674E+01  0.40000000000E+01  0.51100000000E-03 0.  1.
    9000002   -1    0    0    0    0 -0.00000000000E+00 -0.00000000000E+00  0.00000000000E+00  0.93800000000E+00  0.93800000000E+00 0.  1.
         11    1    1    2    0    0  0.22056767234E+00  0.17429602902E+00  0.13758671230E+01  0.14042933473E+01  0.51100000000E-03 0.  1.
    9000002    1    1    2    0    0 -0.16070367616E+00  0.74234205791E-01  0.59549091041E-01  0.95641334322E+00  0.93800000000E+00 0.  1.
         22    1    1    2    0    0 -0.59863996181E-01 -0.24853023481E+00  0.25645837533E+01  0.25772933095E+01  0.00000000000E+00 0.  1.
</event>
<event>
 5    1  0.3454171E+002  0.1592974E+01  0.7818608E-02  0.3361025E+00
         11   -1    0    0    0    0  0.00000000000E+00  0.00000000000E+00  0.39999999674E+01  0.40000000000E+01  0.51100000000E-03 0. -1.
    9000002   -1    0    0    0    0 -0.00000000000E+00 -0.00000000000E+00  0.00000000000E+00  0.93800000000E+00  0.93800000000E+00 0.  1.
         11    1    1    2    0    0  0.85152911514E-01 -0.78918214430E-02  0.64928816370E+00  0.65489593054E+00  0.51100000000E-03 0. -1.
    9000002    1    1    2    0    0 -0.15109403113E+00 -0.20305642673E+00  0.47712651165E-01  0.97271877527E+00  0.93800000000E+00 0.  1.
         22    1    1    2    0    0  0.65941119617E-01  0.21094824817E+00  0.33029991525E+01  0.33103852942E+01  0.00000000000E+00 0. -1.
</event>
<event>
 5    1  0.3454171E+002  0.1589539E+01  0.7818608E-02  0.3364797E+00
         11   -1    0    0    0    0  0.00000000000E+00  0.00000000000E+00  0.39999999674E+01  0.40000000000E+01  0.51100000000E-03 0. -1.
    9000002   -1    0    0    0    0 -0.00000000000E+00 -0.00000000000E+00  0.00000000000E+00  0.93800000000E+00  0.93800000000E+00 0.  1.
         11    1    1    2    0    0 -0.19622319706E+00  0.34889923494E-01  0.93600104657E+00  0.95698436253E+00  0.51100000000E-03 0. -1.
    9000002    1    1    2    0    0  0.47486379758E+00  0.13398820377E+00  0.17560679178E+00  0.10743045240E+01  0.93800000000E+00 0.  1.
         22    1    1    2    0    0 -0.27864060052E+00 -0.16887812727E+00  0.28883921290E+01  0.29067111135E+01  0.00000000000E+00 0.  1.
</event>
<event>
 5    1  0.3454171E+002  0.1599676E+01  0.7818608E-02  0.3353715E+00
         11   -1    0    0    0    0  0.00000000000E+00  0.00000000000E+00  0.39999999674E+01  0.40000000000E+01  0.51100000000E-03 0.  1.
    9000002   -1    0    0    0    0 -0.00000000000E+00 -0.00000000000E+00  0.00000000000E+00  0.93800000000E+00  0.93800000000E+00 0. -1.
         11    1    1    2    0    0  0.18897933872E-01 -0.92474029592E-02  0.32231933941E+00  0.32300567185E+00  0.51100000000E-03 0.  1.
    9000002    1    1    2    0    0 -0.23197515423E+00  0.11801999376E+00  0.45036559223E-01  0.97448113515E+00  0.93800000000E+00 0. -1.
         22    1    1    2    0    0  0.21307722035E+00 -0.10877259080E+00  0.36326440687E+01  0.36405131930E+01  0.00000000000E+00 0.  1.
</event>
<event>
 5    1  0.3454171E+002  0.1599356E+01  0.7818608E-02  0.3354063E+00
         11   -1    0    0    0    0  0.00000000000E+00  0.00000000000E+00  0.39999999674E+01  0.40000000000E+01  0.51100000000E-03 0. -1.
    9000002   -1    0    0    0    0 -0.00000000000E+00 -0.00000000000E+00  0.00000000000E+00  0.93800000000E+00  0.93800000000E+00 0.  1.
         11    1    1    2    0    0 -0.76187527143E-03 -0.19515138512E-02  0.13489404035E+00  0.13491127493E+00  0.51100000000E-03 0. -1.
    9000002    1    1    2    0    0  0.20568937329E+00  0.19429118069E+00  0.53574251181E-01  0.98120914262E+00  0.93800000000E+00 0.  1.
         22    1    1    2    0    0 -0.20492749802E+00 -0.19233966684E+00  0.38115316758E+01  0.38218795824E+01  0.00000000000E+00 0. -1.
</event>
<event>
 5    1  0.3454171E+002  0.1590647E+01  0.7818608E-02  0.3363578E+00
         11   -1    0    0    0    0  0.00000000000E+00  0.00000000000E+00  0.39999999674E+01  0.40000000000E+01  0.51100000000E-03 0.  1.
    9000002   -1    0    0    0    0 -0.00000000000E+00 -0.00000000000E+00  0.00000000000E+00  0.93800000000E+00  0.93800000000E+00 0.  1.
         11    1    1    2    0    0  0.28365069749E-01  0.63784958678E-01  0.74741626290E+00  0.75066932088E+00  0.51100000000E-03 0.  1.
    9000002    1    1    2    0    0  0.18802337013E+00 -0.59283913494E-02  0.30181950649E-01  0.95715353193E+00  0.93800000000E+00 0.  1.
         22    1    1    2    0    0 -0.21638843988E+00 -0.57856567328E-01  0.32224017538E+01  0.32301771472E+01  0.00000000000E+00 0.  1.
</event>
<event>
 5    1  0.3454171E+002  0.1592112E+01  0.7818608E-02  0.3361969E+00
         11   -1    0    0    0    0  0.00000000000E+00  0.00000000000E+00  0.39999999674E+01  0.40000000000E+01  0.51100000000E-03 0. -1.
    9000002   -1    0    0    0    0 -0.00000000000E+00 -0.00000000000E+00  0.00000000000E+00  0.93800000000E+00  0.93800000000E+00 0.  1.
         11    1    1    2    0    0 -0.28181385772E+00 -0.15372252278E+00  0.12797800492E+01  0.13194267315E+01  0.51100000000E-03 0. -1.
    9000002    1    1    2    0    0  0.60751704213E+00  0.23613206112E+00  0.30793630961E+00  0.11830063726E+01  0.93800000000E+00 0.  1.
         22    1    1    2    0    0 -0.32570318441E+00 -0.82409538339E-01  0.24122836085E+01  0.24355668959E+01  0.00000000000E+00 0.  1.
</event>
<event>
 5    1  0.3454171E+002  0.1596902E+01  0.7818608E-02  0.3356733E+00
         11   -1    0    0    0    0  0.00000000000E+00  0.00000000000E+00  0.39999999674E+01  0.40000000000E+01  0.51100000000E-03 0. -1.
    9000002   -1    0    0    0    0 -0.00000000000E+00 -0.00000000000E+00  0.00000000000E+00  0.93800000000E+00  0.93800000000E+00 0. -1.
         11    1    1    2    0    0 -0.45289524429E+00 -0.66217364971E-02  0.12741989802E+01  0.13523095992E+01  0.51100000000E-03 0. -1.
    9000002    1    1    2    0    0  0.98374907118E+00 -0.10027928520E-01  0.77677390144E+00  0.15655939730E+01  0.93800000000E+00 0. -1.
         22    1    1    2    0    0 -0.53085382688E+00  0.16649665017E-01  0.19490270857E+01  0.20200964278E+01  0.00000000000E+00 0. -1.
</event>
<event>
 5    1  0.3454171E+002  0.1599674E+01  0.7818608E-02  0.3353717E+00
         11   -1    0    0    0    0  0.00000000000E+00  0.00000000000E+00  0.39999999674E+01  0.40000000000E+01  0.51100000000E-03 0. -1.
    9000002   -1    0    0    0    0 -0.00000000000E+00 -0.00000000000E+00  0.00000000000E+00  0.93800000000E+00  0.93800000000E+00 0.  1.
         11    1    1    2    0    0  0.30419228051E+00 -0.23996883426E+00  0.24039124382E+01  0.24349359861E+01  0.51100000000E-03 0. -1.
    9000002    1    1    2    0    0 -0.47425428447E+00  0.37682835279E+00  0.25631650143E+00  0.11456259785E+01  0.93800000000E+00 0.  1.
         22    1    1    2    0    0  0.17006200396E+00 -0.13685951853E+00  0.13397710277E+01  0.13574380353E+01  0.00000000000E+00 0. -1.
</event>
<event>
 5    1  0.3454171E+002  0.1599664E+01  0.7818608E-02  0.3353728E+00
         11   -1    0    0    0    0  0.00000000000E+00  0.00000000000E+00  0.39999999674E+01  0.40000000000E+01  0.51100000000E-03 0. -1.
    9000002   -1    0    0    0    0 -0.00000000000E+00 -0.00000000000E+00  0.00000000000E+00  0.93800000000E+00  0.93800000000E+00 0.  1.
         11    1    1    2    0    0  0.12196403302E-01 -0.50042004518E-02  0.18204930312E+00  0.18252672178E+00  0.51100000000E-03 0. -1.
    9000002    1    1    2    0    0 -0.23032700419E+00  0.94699766023E-01  0.41204912348E-01  0.97137038216E+00  0.93800000000E+00 0.  1.
         22    1    1    2    0    0  0.21813060088E+00 -0.89695565572E-01  0.37767457519E+01  0.37841028961E+01  0.00000000000E+00 0. -1.
</event>
<event>
 5    1  0.4667055E+002  0.1589892E+01  0.7818608E-02  0.3364408E+00
         11   -1    0    0    0    0  0.00000000000E+00  0.00000000000E+00  0.39999999674E+01  0.40000000000E+01  0.51100000000E-03 0. -1.
    9000002   -1    0    0    0    0 -0.00000000000E+00 -0.00000000000E+00  0.00000000000E+00  0.93800000000E+00  0.93800000000E+00 0.  1.
         11    1    1    2    0    0  0.84415502572E-02 -0.48750097380E-01  0.22188209247E+00  0.22733181882E+00  0.51100000000E-03 0. -1.
    9000002    1    1    2    0    0  0.16163918099E+00 -0.58503291328E-01  0.26833650823E-01  0.95399890186E+00  0.93800000000E+00 0.  1.
         22    1    1    2    0    0 -0.17008073124E+00  0.10725338871E+00  0.37512842241E+01  0.37566692793E+01  0.00000000000E+00 0. -1.
</event>
<event>
 5    1  0.3960301E+002  0.1578148E+01  0.7818608E-02  0.3377428E+00
         11   -1    0    0    0    0  0.00000000000E+00  0.00000000000E+00  0.39999999674E+01  0.40000000000E+01  0.51100000000E-03 0. -1.
    9000002   -1    0    0    0    0 -0.00000000000E+00 -0.00000000000E+00  0.00000000000E+00  0.93800000000E+00  0.93800000000E+00 0.  1.
         11    1    1    2    0    0 -0.96644966267E-01  0.10942646057E-01  0.42214156198E+00  0.43320174339E+00  0.51100000000E-03 0. -1.
    9000002    1    1    2    0    0 -0.11765487928E+00 -0.69272163909E-01  0.28308955218E-01  0.94830728156E+00  0.93800000000E+00 0.  1.
         22    1    1    2    0    0  0.21429984555E+00  0.58329517852E-01  0.35495494502E+01  0.35564909750E+01  0.00000000000E+00 0. -1.
</event>
<event>
 5    1  0.3454171E+002  0.1599287E+01  0.7818608E-02  0.3354137E+00
         11   -1    0    0    0    0  0.00000000000E+00  0.00000000000E+00  0.39999999674E+01  0.40000000000E+01  0.51100000000E-03 0. -1.
    9000002   -1    0    0    0    0 -0.00000000000E+00 -0.00000000000E+00  0.00000000000E+00  0.93800000000E+00  0.93800000000E+00 0. -1.
         11    1    1    2    0    0  0.18295714090E-01 -0.85010525798E-02  0.14741708857E+00  0.14879200305E+00  0.51100000000E-03 0. -1.
    9000002    1    1    2    0    0 -0.25080778557E+00  0.18244485970E+00  0.64538563185E-01  0.99005045239E+00  0.93800000000E+00 0. -1.
         22    1    1    2    0    0  0.23251207148E+00 -0.17394380712E+00  0.37880443156E+01  0.37991575446E+01  0.00000000000E+00 0. -1.
</event>
<event>
 5    1  0.3454171E+002  0.1599610E+01  0.7818608E-02  0.3353787E+00
         11   -1    0    0    0    0  0.00000000000E+00  0.00000000000E+00  0.39999999674E+01  0.40000000000E+01  0.51100000000E-03 0. -1.
    9000002   -1    0    0    0    0 -0.00000000000E+00 -0.00000000000E+00  0.00000000000E+00  0.93800000000E+00  0.93800000000E+00 0.  1.
         11    1    1    2    0    0  0.22608718680E-01  0.84336626224E-02  0.32410824721E+00  0.32500568896E+00  0.51100000000E-03 0. -1.
    9000002    1    1    2    0    0 -0.21286268329E+00 -0.86396904628E-01  0.35056501484E-01  0.96635806271E+00  0.93800000000E+00 0.  1.
         22    1    1    2    0    0  0.19025396461E+00  0.77963242005E-01  0.36408352187E+01  0.36466362483E+01  0.00000000000E+00 0. -1.
</event>
<event>
 5    1  0.3454171E+002  0.1597807E+01  0.7818608E-02  0.3355747E+00
         11   -1    0    0    0    0  0.00000000000E+00  0.00000000000E+00  0.39999999674E+01  0.40000000000E+01  0.51100000000E-03 0.  1.
    9000002   -1    0    0    0    0 -0.00000000000E+00 -0.00000000000E+00  0.00000000000E+00  0.93800000000E+00  0.93800000000E+00 0. -1.
         11    1    1    2    0    0  0.11825093140E+00 -0.21750950237E+00  0.23630473488E+01  0.23759812079E+01  0.51100000000E-03 0.  1.
    9000002    1    1    2    0    0 -0.18481073186E+00  0.43653605396E+00  0.15483385826E+00  0.10623258712E+01  0.93800000000E+00 0. -1.
         22    1    1    2    0    0  0.66559800462E-01 -0.21902655159E+00  0.14821187603E+01  0.14996929209E+01  0.00000000000E+00 0.  1.
</event>
<event>
 5    1  0.3454171E+002  0.1599666E+01  0.7818608E-02  0.3353726E+00
         11   -1    0    0    0    0  0.00000000000E+00  0.00000000000E+00  0.39999999674E+01  0.40000000000E+01  0.51100000000E-03 0. -1.
    9000002   -1    0    0    0    0 -0.00000000000E+00 -0.00000000000E+00  0.00000000000E+00  0.93800000000E+00  0.93800000000E+00 0.  1.
         11    1    1    2    0    0  0.24058503497E-02 -0.31640732785E+00  0.21908834957E+01  0.22136147221E+01  0.51100000000E-03 0. -1.
    9000002    1    1    2    0    0 -0.10922958833E-01  0.54831352555E+00  0.20768817005E+00  0.11062302696E+01  0.93800000000E+00 0.  1.
         22    1    1    2    0    0  0.85171084832E-02 -0.23190619770E+00  0.16014283016E+01  0.16181550083E+01  0.00000000000E+00 0. -1.
</event>
<event>
 5    1  0.3454171E+002  0.1599676E+01  0.7818608E-02  0.3353715E+00
         11   -1    0    0    0    0  0.00000000000E+00  0.00000000000E+00  0.39999999674E+01  0.40000000000E+01  0.51100000000E-03 0. -1.
    9000002   -1    0    0    0    0 -0.00000000000E+00 -0.00000000000E+00  0.00000000000E+00  0.93800000000E+00  0.93800000000E+00 0.  1.
         11    1    1    2    0    0  0.13670112542E-01  0.71546040547E-01  0.88418062073E+00  0.88717604740E+00  0.51100000000E-03 0. -1.
    9000002    1    1    2    0    0 -0.56416589004E-01 -0.31842424813E+00  0.69923776826E-01  0.99464072301E+00  0.93800000000E+00 0.  1.
         22    1    1    2    0    0  0.42746476462E-01  0.24687820758E+00  0.30458955698E+01  0.30561832296E+01  0.00000000000E+00 0. -1.
</event>
<event>
 5    1  0.3454171E+002  0.1599605E+01  0.7818608E-02  0.3353792E+00
         11   -1    0    0    0    0  0.00000000000E+00  0.00000000000E+00  0.39999999674E+01  0.40000000000E+01  0.51100000000E-03 0. -1.
    9000002   -1    0    0    0    0 -0.00000000000E+00 -0.00000000000E+00  0.00000000000E+00  0.93800000000E+00  0.93800000000E+00 0. -1.
         11    1    1    2    0    0 -0.48025582042E-01 -0.87777280617E-01  0.11563312837E+01  0.11606522331E+01  0.51100000000E-03 0. -1.
    9000002    1    1    2    0    0  0.17298397481E+00  0.32644513969E+00  0.91779191487E-01  0.10123029708E+01  0.93800000000E+00 0. -1.
         22    1    1    2    0    0 -0.12495839277E+00 -0.23866785907E+00  0.27518894922E+01  0.27650447960E+01  0.00000000000E+00 0. -1.
</event>
<event>
 5    1  0.3454171E+002  0.1599677E+01  0.7818608E-02  0.3353714E+00
         11   -1    0    0    0    0  0.00000000000E+00  0.00000000000E+00  0.39999999674E+01  0.40000000000E+01  0.51100000000E-03 0. -1.
    9000002   -1    0    0    0    0 -0.00000000000E+00 -0.00000000000E+00  0.00000000000E+00  0.93800000000E+00  0.93800000000E+00 0.  1.
         11    1    1    2    0    0 -0.83886660445E-01 -0.15881204032E+00  0.16283961073E+01  0.16382711556E+01  0.51100000000E-03 0. -1.
    9000002    1    1    2    0    0  0.20027219819E+00  0.37898166194E+00  0.12440944162E+00  0.10387770514E+01  0.93800000000E+00 0.  1.
         22    1    1    2    0    0 -0.11638553775E+00 -0.22016962162E+00  0.22471944185E+01  0.22609517930E+01  0.00000000000E+00 0. -1.
</event>
<event>
 5    1  0.3454171E+002  0.1599675E+01  0.7818608E-02  0.3353716E+00
         11   -1    0    0    0    0  0.00000000000E+00  0.00000000000E+00  0.39999999674E+01  0.40000000000E+01  0.51100000000E-03 0. -1.
    9000002   -1    0    0    0    0 -0.00000000000E+00 -0.00000000000E+00  0.00000000000E+00  0.93800000000E+00  0.93800000000E+00 0. -1.
         11    1    1    2    0    0 -0.95725165832E-02 -0.10336578482E-01  0.23727241252E+00  0.23769084289E+00  0.51100000000E-03 0. -1.
    9000002    1    1    2    0    0  0.14979317314E+00  0.17537371071E+00  0.35287381959E-01  0.96658322583E+00  0.93800000000E+00 0. -1.
         22    1    1    2    0    0 -0.14022065655E+00 -0.16503713223E+00  0.37274401729E+01  0.37337259313E+01  0.00000000000E+00 0. -1.
</event>
<event>
 5    1  0.5419336E+002  0.1573467E+01  0.7818608E-02  0.3382675E+00
         11   -1    0    0    0    0  0.00000000000E+00  0.00000000000E+00  0.39999999674E+01  0.40000000000E+01  0.51100000000E-03 0.  1.
    9000002   -1    0    0    0    0 -0.00000000000E+00 -0.00000000000E+00  0.00000000000E+00  0.93800000000E+00  0.93800000000E+00 0. -1.
         11    1    1    2    0    0  0.82934932670E-01  0.96670249239E-01  0.55814800985E+00  0.57249698878E+00  0.51100000000E-03 0.  1.
    9000002    1    1    2    0    0  0.95870303097E-01 -0.67921865216E-02  0.25459999386E-01  0.94325471660E+00  0.93800000000E+00 0. -1.
         22    1    1    2    0    0 -0.17880523577E+00 -0.89878062717E-01  0.34163919581E+01  0.34222482946E+01  0.00000000000E+00 0.  1.
</event>
<event>
 5    1  0.3454171E+002  0.1599639E+01  0.7818608E-02  0.3353755E+00
         11   -1    0    0    0    0  0.00000000000E+00  0.00000000000E+00  0.39999999674E+01  0.40000000000E+01  0.51100000000E-03 0.  1.
    9000002   -1    0    0    0    0 -0.00000000000E+00 -0.00000000000E+00  0.00000000000E+00  0.93800000000E+00  0.93800000000E+00 0.  1.
         11    1    1    2    0    0  0.70574451974E-01 -0.72136612113E-01  0.11361338004E+01  0.11406071706E+01  0.51100000000E-03 0.  1.
    9000002    1    1    2    0    0 -0.26572471471E+00  0.25247858297E+00  0.90286316435E-01  0.10111135830E+01  0.93800000000E+00 0.  1.
         22    1    1    2    0    0  0.19515026274E+00 -0.18034197086E+00  0.27735798505E+01  0.27862792463E+01  0.00000000000E+00 0.  1.
</event>
<event>
 5    1  0.3454171E+002  0.1596805E+01  0.7818608E-02  0.3356838E+00
         11   -1    0    0    0    0  0.00000000000E+00  0.00000000000E+00  0.39999999674E+01  0.40000000000E+01  0.51100000000E-03 0. -1.
    9000002   -1    0    0    0    0 -0.00000000000E+00 -0.00000000000E+00  0.00000000000E+00  0.93800000000E+00  0.93800000000E+00 0.  1.
         11    1    1    2    0    0 -0.47207553341E-01  0.31982620385E-01  0.58300737945E+00  0.58578947303E+00  0.51100000000E-03 0. -1.
    9000002    1    1    2    0    0  0.16751662265E-01 -0.28221837265E+00  0.55469221378E-01  0.98124852233E+00  0.93800000000E+00 0.  1.
         22    1    1    2    0    0  0.30455891076E-01  0.25023575226E+00  0.33615233665E+01  0.33709620046E+01  0.00000000000E+00 0. -1.
</event>
<event>
 5    1  0.3454171E+002  0.1599677E+01  0.7818608E-02  0.3353714E+00
         11   -1    0    0    0    0  0.00000000000E+00  0.00000000000E+00  0.39999999674E+01  0.40000000000E+01  0.51100000000E-03 0.  1.
    9000002   -1    0    0    0    0 -0.00000000000E+00 -0.00000000000E+00  0.00000000000E+00  0.93800000000E+00  0.93800000000E+00 0.  1.
         11    1    1    2    0    0  0.17313452484E+00  0.33616147635E-01  0.13408775472E+01  0.13524268803E+01  0.51100000000E-03 0.  1.
    9000002    1    1    2    0    0 -0.49410601190E+00 -0.96302379674E-01  0.17357630740E+00  0.10786044844E+01  0.93800000000E+00 0.  1.
         22    1    1    2    0    0  0.32097148706E+00  0.62686232038E-01  0.24855461128E+01  0.25069686352E+01  0.00000000000E+00 0.  1.
</event>
<event>
 5    1  0.3454171E+002  0.1599551E+01  0.7818608E-02  0.3353850E+00
         11   -1    0    0    0    0  0.00000000000E+00  0.00000000000E+00  0.39999999674E+01  0.40000000000E+01  0.51100000000E-03 0.  1.
    9000002   -1    0    0    0    0 -0.00000000000E+00 -0.00000000000E+00  0.00000000000E+00  0.93800000000E+00  0.93800000000E+00 0. -1.
         11    1    1    2    0    0  0.82234086032E-02  0.22622622218E-01  0.26320679740E+00  0.26430566926E+00  0.51100000000E-03 0.  1.
    9000002    1    1    2    0    0 -0.75641494501E-01 -0.25083760450E+00  0.45737160579E-01  0.97497539835E+00  0.93800000000E+00 0. -1.
         22    1    1    2    0    0  0.67418085898E-01  0.22821498229E+00  0.36910560094E+01  0.36987189324E+01  0.00000000000E+00 0.  1.
</event>
<event>
 5    1  0.3454171E+002  0.1599042E+01  0.7818608E-02  0.3354404E+00
         11   -1    0    0    0    0  0.00000000000E+00  0.00000000000E+00  0.39999999674E+01  0.40000000000E+01  0.51100000000E-03 0.  1.
    9000002   -1    0    0    0    0 -0.00000000000E+00 -0.00000000000E+00  0.00000000000E+00  0.93800000000E+00  0.93800000000E+00 0. -1.
         11    1    1    2    0    0 -0.12310424822E-01 -0.10715553481E-01  0.17265085502E+00  0.17342130350E+00  0.51100000000E-03 0.  1.
    9000002    1    1    2    0    0  0.76137359923E-03  0.21115039049E+00  0.30014776833E-01  0.96194072267E+00  0.93800000000E+00 0. -1.
         22    1    1    2    0    0  0.11549051223E-01 -0.20043483701E+00  0.37973343355E+01  0.38026379738E+01  0.00000000000E+00 0.  1.
</event>
<event>
 5    1  0.3454171E+002  0.1599677E+01  0.7818608E-02  0.3353714E+00
         11   -1    0    0    0    0  0.00000000000E+00  0.00000000000E+00  0.39999999674E+01  0.40000000000E+01  0.51100000000E-03 0.  1.
    9000002   -1    0    0    0    0 -0.00000000000E+00 -0.00000000000E+00  0.00000000000E+00  0.93800000000E+00  0.93800000000E+00 0.  1.
         11    1    1    2    0    0  0.76129025443E-01 -0.16578673440E+00  0.13125209505E+01  0.13251386254E+01  0.51100000000E-03 0.  1.
    9000002    1    1    2    0    0 -0.22270974662E+00  0.48066874470E+00  0.19311438774E+00  0.10944310120E+01  0.93800000000E+00 0.  1.
         22    1    1    2    0    0  0.14658072117E+00 -0.31488201029E+00  0.24943646291E+01  0.25184303626E+01  0.00000000000E+00 0. -1.
</event>
<event>
 5    1  0.3454171E+002  0.1599674E+01  0.7818608E-02  0.3353717E+00
         11   -1    0    0    0    0  0.00000000000E+00  0.00000000000E+00  0.39999999674E+01  0.40000000000E+01  0.51100000000E-03 0.  1.
    9000002   -1    0    0    0    0 -0.00000000000E+00 -0.00000000000E+00  0.00000000000E+00  0.93800000000E+00  0.93800000000E+00 0.  1.
         11    1    1    2    0    0  0.18657360426E-01 -0.19038114567E-01  0.43462399478E+00  0.43544095451E+00  0.51100000000E-03 0.  1.
    9000002    1    1    2    0    0 -0.15873914843E+00  0.17328468752E+00  0.36647422915E-01  0.96768421181E+00  0.93800000000E+00 0.  1.
         22    1    1    2    0    0  0.14008178800E+00 -0.15424657295E+00  0.35287285497E+01  0.35348748337E+01  0.00000000000E+00 0. -1.
</event>
<event>
 5    1  0.3454171E+002  0.1585490E+01  0.7818608E-02  0.3369264E+00
         11   -1    0    0    0    0  0.00000000000E+00  0.00000000000E+00  0.39999999674E+01  0.40000000000E+01  0.51100000000E-03 0. -1.
    9000002   -1    0    0    0    0 -0.00000000000E+00 -0.00000000000E+00  0.00000000000E+00  0.93800000000E+00  0.93800000000E+00 0.  1.
         11    1    1    2    0    0  0.93562584835E-01 -0.13776344084E-01  0.26650507108E+01  0.26667282008E+01  0.51100000000E-03 0. -1.
    9000002    1    1    2    0    0 -0.12532947133E+00  0.21937089978E+00  0.53345073345E-01  0.97289298739E+00  0.93800000000E+00 0.  1.
         22    1    1    2    0    0  0.31766886495E-01 -0.20559455570E+00  0.12816041832E+01  0.12983788118E+01  0.00000000000E+00 0. -1.
</event>
<event>
 5    1  0.3454171E+002  0.1739042E+01  0.7818608E-02  0.3215032E+00
         11   -1    0    0    0    0  0.00000000000E+00  0.00000000000E+00  0.39999999674E+01  0.40000000000E+01  0.51100000000E-03 0. -1.
    9000002   -1    0    0    0    0 -0.00000000000E+00 -0.00000000000E+00  0.00000000000E+00  0.93800000000E+00  0.93800000000E+00 0.  1.
         11    1    1    2    0    0  0.25676092444E+00 -0.43844230536E+00  0.31452334232E+00  0.59756424042E+00  0.51100000000E-03 0. -1.
    9000002    1    1    2    0    0  0.28170848976E-01 -0.15870673742E+00  0.47726943489E+00  0.10647119511E+01  0.93800000000E+00 0.  1.
         22    1    1    2    0    0 -0.28493177342E+00  0.59714904278E+00  0.32082071902E+01  0.32757238085E+01  0.00000000000E+00 0. -1.
</event>
<event>
 5    1  0.3454171E+002  0.1493420E+01  0.7818608E-02  0.3477839E+00
         11   -1    0    0    0    0  0.00000000000E+00  0.00000000000E+00  0.39999999674E+01  0.40000000000E+01  0.51100000000E-03 0.  1.
    9000002   -1    0    0    0    0 -0.00000000000E+00 -0.00000000000E+00  0.00000000000E+00  0.93800000000E+00  0.93800000000E+00 0. -1.
         11    1    1    2    0    0  0.82179139092E-01  0.41488506141E+00  0.15091670862E+01  0.15673125344E+01  0.51100000000E-03 0.  1.
    9000002    1    1    2    0    0  0.58261715260E-02 -0.10738026018E+00  0.89756686319E-01  0.94840114260E+00  0.93800000000E+00 0. -1.
         22    1    1    2    0    0 -0.88005310618E-01 -0.30750480123E+00  0.24010761948E+01  0.24222863230E+01  0.00000000000E+00 0.  1.
</event>
<event>
 5    1  0.3454171E+002  0.1599661E+01  0.7818608E-02  0.3353732E+00
         11   -1    0    0    0    0  0.00000000000E+00  0.00000000000E+00  0.39999999674E+01  0.40000000000E+01  0.51100000000E-03 0. -1.
    9000002   -1    0    0    0    0 -0.00000000000E+00 -0.00000000000E+00  0.00000000000E+00  0.93800000000E+00  0.93800000000E+00 0. -1.
         11    1    1    2    0    0  0.19532055175E-01 -0.11911984479E-01  0.34660289624E+00  0.34735748928E+00  0.51100000000E-03 0. -1.
    9000002    1    1    2    0    0 -0.19413372621E+00  0.12544613018E+00  0.35452739230E-01  0.96670860757E+00  0.93800000000E+00 0. -1.
         22    1    1    2    0    0  0.17460167104E+00 -0.11353414571E+00  0.36179443319E+01  0.36239339031E+01  0.00000000000E+00 0. -1.
</event>
<event>
 5    1  0.3454171E+002  0.1589935E+01  0.7818608E-02  0.3364360E+00
         11   -1    0    0    0    0  0.00000000000E+00  0.00000000000E+00  0.39999999674E+01  0.40000000000E+01  0.51100000000E-03 0.  1.
    9000002   -1    0    0    0    0 -0.00000000000E+00 -0.00000000000E+00  0.00000000000E+00  0.93800000000E+00  0.93800000000E+00 0.  1.
         11    1    1    2    0    0  0.19449635869E+00  0.21402252800E-01  0.16065184966E+01  0.16183908153E+01  0.51100000000E-03 0.  1.
    9000002    1    1    2    0    0 -0.32505048533E+00  0.19080684307E+00  0.10357423311E+00  0.10161873307E+01  0.93800000000E+00 0.  1.
         22    1    1    2    0    0  0.13055412663E+00 -0.21220909587E+00  0.22899072377E+01  0.23034218540E+01  0.00000000000E+00 0.  1.
</event>
<event>
 5    1  0.3454171E+002  0.1599568E+01  0.7818608E-02  0.3353832E+00
         11   -1    0    0    0    0  0.00000000000E+00  0.00000000000E+00  0.39999999674E+01  0.40000000000E+01  0.51100000000E-03 0.  1.
    9000002   -1    0    0    0    0 -0.00000000000E+00 -0.00000000000E+00  0.00000000000E+00  0.93800000000E+00  0.93800000000E+00 0.  1.
         11    1    1    2    0    0  0.94324377910E-01  0.76349836801E-01  0.91127434828E+00  0.91931908759E+00  0.51100000000E-03 0.  1.
    9000002    1    1    2    0    0 -0.39190784199E+00 -0.36343042175E+00  0.19684618625E+00  0.10973904725E+01  0.93800000000E+00 0.  1.
         22    1    1    2    0    0  0.29758346408E+00  0.28708058495E+00  0.28918794328E+01  0.29212904399E+01  0.00000000000E+00 0.  1.
</event>
<event>
 5    1  0.3454171E+002  0.1599217E+01  0.7818608E-02  0.3354214E+00
         11   -1    0    0    0    0  0.00000000000E+00  0.00000000000E+00  0.39999999674E+01  0.40000000000E+01  0.51100000000E-03 0.  1.
    9000002   -1    0    0    0    0 -0.00000000000E+00 -0.00000000000E+00  0.00000000000E+00  0.93800000000E+00  0.93800000000E+00 0. -1.
         11    1    1    2    0    0 -0.35322746550E-01 -0.31868752354E-01  0.73127586898E+00  0.73282192344E+00  0.51100000000E-03 0.  1.
    9000002    1    1    2    0    0  0.28983399766E+00  0.13009358117E+00  0.67808513744E-01  0.99265808847E+00  0.93800000000E+00 0. -1.
         22    1    1    2    0    0 -0.25451125111E+00 -0.98224828821E-01  0.32009155846E+01  0.32125199881E+01  0.00000000000E+00 0.  1.
</event>
<event>
 5    1  0.3454171E+002  0.1596220E+01  0.7818608E-02  0.3357476E+00
         11   -1    0    0    0    0  0.00000000000E+00  0.00000000000E+00  0.39999999674E+01  0.40000000000E+01  0.51100000000E-03 0. -1.
    9000002   -1    0    0    0    0 -0.00000000000E+00 -0.00000000000E+00  0.00000000000E+00  0.93800000000E+00  0.93800000000E+00 0. -1.
         11    1    1    2    0    0  0.12198676699E+00  0.49912161890E-01  0.92718805377E+00  0.93650944651E+00  0.51100000000E-03 0. -1.
    9000002    1    1    2    0    0 -0.26949664826E+00 -0.28286817209E+00  0.10570225548E+00  0.10215966978E+01  0.93800000000E+00 0. -1.
         22    1    1    2    0    0  0.14750988127E+00  0.23295601020E+00  0.29671096581E+01  0.29798938557E+01  0.00000000000E+00 0. -1.
</event>
<event>
 5    1  0.3454171E+002  0.1592757E+01  0.7818608E-02  0.3361262E+00
         11   -1    0    0    0    0  0.00000000000E+00  0.00000000000E+00  0.39999999674E+01  0.40000000000E+01  0.51100000000E-03 0. -1.
    9000002   -1    0    0    0    0 -0.00000000000E+00 -0.00000000000E+00  0.00000000000E+00  0.93800000000E+00  0.93800000000E+00 0. -1.
         11    1    1    2    0    0 -0.39478772365E-01  0.48910271126E-01  0.12606805446E+01  0.12622466022E+01  0.51100000000E-03 0. -1.
    9000002    1    1    2    0    0 -0.16793855471E+00 -0.17709013556E+00  0.44843328027E-01  0.97026759110E+00  0.93800000000E+00 0. -1.
         22    1    1    2    0    0  0.20741732707E+00  0.12817986443E+00  0.26944760947E+01  0.27054858067E+01  0.00000000000E+00 0. -1.
</event>
<event>
 5    1  0.3454171E+002  0.1599675E+01  0.7818608E-02  0.3353716E+00
         11   -1    0    0    0    0  0.00000000000E+00  0.00000000000E+00  0.39999999674E+01  0.40000000000E+01  0.51100000000E-03 0.  1.
    9000002   -1    0    0    0    0 -0.00000000000E+00 -0.00000000000E+00  0.00000000000E+00  0.93800000000E+00  0.93800000000E+00 0.  1.
         11    1    1    2    0    0 -0.22197341032E+00 -0.17932759272E+00  0.18041661377E+01  0.18265941787E+01  0.51100000000E-03 0.  1.
    9000002    1    1    2    0    0  0.46474809999E+00  0.37147389045E+00  0.24671164409E+00  0.11378463354E+01  0.93800000000E+00 0.  1.
         22    1    1    2    0    0 -0.24277468966E+00 -0.19214629773E+00  0.19491221856E+01  0.19735594858E+01  0.00000000000E+00 0. -1.
</event>
<event>
 5    1  0.3454171E+002  0.1589974E+01  0.7818608E-02  0.3364318E+00
         11   -1    0    0    0    0  0.00000000000E+00  0.00000000000E+00  0.39999999674E+01  0.40000000000E+01  0.51100000000E-03 0. -1.
    9000002   -1    0    0    0    0 -0.00000000000E+00 -0.00000000000E+00  0.00000000000E+00  0.93800000000E+00  0.93800000000E+00 0. -1.
         11    1    1    2    0    0  0.88484860234E-01  0.63081019572E-01  0.85532023533E+00  0.86219588935E+00  0.51100000000E-03 0. -1.
    9000002    1    1    2    0    0 -0.20220052436E+00  0.10961115906E+00  0.42479174255E-01  0.96672030003E+00  0.93800000000E+00 0. -1.
         22    1    1    2    0    0  0.11371566412E+00 -0.17269217864E+00  0.31022005578E+01  0.31090838106E+01  0.00000000000E+00 0. -1.
</event>
<event>
 5    1  0.3454171E+002  0.1599655E+01  0.7818608E-02  0.3353737E+00
         11   -1    0    0    0    0  0.00000000000E+00  0.00000000000E+00  0.39999999674E+01  0.40000000000E+01  0.51100000000E-03 0. -1.
    9000002   -1    0    0    0    0 -0.00000000000E+00 -0.00000000000E+00  0.00000000000E+00  0.93800000000E+00  0.93800000000E+00 0.  1.
         11    1    1    2    0    0 -0.54175595512E-01 -0.27479630204E-01  0.94957573841E+00  0.95151693066E+00  0.51100000000E-03 0. -1.
    9000002    1    1    2    0    0  0.22342564534E+00  0.13418209082E+00  0.45175247036E-01  0.97458127185E+00  0.93800000000E+00 0.  1.
         22    1    1    2    0    0 -0.16925004983E+00 -0.10670246062E+00  0.30052489819E+01  0.30119017975E+01  0.00000000000E+00 0. -1.
</event>
<event>
 5    1  0.3454171E+002  0.1526227E+01  0.7818608E-02  0.3437544E+00
         11   -1    0    0    0    0  0.00000000000E+00  0.00000000000E+00  0.39999999674E+01  0.40000000000E+01  0.51100000000E-03 0.  1.
    9000002   -1    0    0    0    0 -0.00000000000E+00 -0.00000000000E+00  0.00000000000E+00  0.93800000000E+00  0.93800000000E+00 0.  1.
         11    1    1    2    0    0 -0.54253838711E-01  0.17780389494E+00  0.69362593988E+00  0.71810508260E+00  0.51100000000E-03 0.  1.
    9000002    1    1    2    0    0  0.31941333404E+00  0.40826409918E+00  0.25522531205E+00  0.11016752755E+01  0.93800000000E+00 0.  1.
         22    1    1    2    0    0 -0.26515949533E+00 -0.58606799411E+00  0.30511487154E+01  0.31182196419E+01  0.00000000000E+00 0.  1.
</event>
<event>
 5    1  0.3454171E+002  0.1517784E+01  0.7818608E-02  0.3447735E+00
         11   -1    0    0    0    0  0.00000000000E+00  0.00000000000E+00  0.39999999674E+01  0.40000000000E+01  0.51100000000E-03 0.  1.
    9000002   -1    0    0    0    0 -0.00000000000E+00 -0.00000000000E+00  0.00000000000E+00  0.93800000000E+00  0.93800000000E+00 0.  1.
         11    1    1    2    0    0  0.19223472572E-01 -0.29347605860E+00  0.86597943806E+00  0.91455912173E+00  0.51100000000E-03 0.  1.
    9000002    1    1    2    0    0  0.73049231567E-01  0.36979897778E-01  0.66585762112E-01  0.94391809326E+00  0.93800000000E+00 0.  1.
         22    1    1    2    0    0 -0.92272704139E-01  0.25649616082E+00  0.30674347672E+01  0.30795227850E+01  0.00000000000E+00 0.  1.
</event>
<event>
 5    1  0.3454171E+002  0.1599661E+01  0.7818608E-02  0.3353732E+00
         11   -1    0    0    0    0  0.00000000000E+00  0.00000000000E+00  0.39999999674E+01  0.40000000000E+01  0.51100000000E-03 0. -1.
    9000002   -1    0    0    0    0 -0.00000000000E+00 -0.00000000000E+00  0.00000000000E+00  0.93800000000E+00  0.93800000000E+00 0.  1.
         11    1    1    2    0    0 -0.12520060624E+00 -0.20217914903E+00  0.19906157330E+01  0.20047700261E+01  0.51100000000E-03 0. -1.
    9000002    1    1    2    0    0  0.24981692324E+00  0.38572818844E+00  0.14365920219E+00  0.10543608001E+01  0.93800000000E+00 0.  1.
         22    1    1    2    0    0 -0.12461631700E+00 -0.18354903941E+00  0.18657250322E+01  0.18788691737E+01  0.00000000000E+00 0. -1.
</event>
<event>
 5    1  0.3454171E+002  0.1599675E+01  0.7818608E-02  0.3353716E+00
         11   -1    0    0    0    0  0.00000000000E+00  0.00000000000E+00  0.39999999674E+01  0.40000000000E+01  0.51100000000E-03 0.  1.
    9000002   -1    0    0    0    0 -0.00000000000E+00 -0.00000000000E+00  0.00000000000E+00  0.93800000000E+00  0.93800000000E+00 0. -1.
         11    1    1    2    0    0  0.79896552473E-01  0.19464033340E-01  0.97788426032E+00  0.98133592383E+00  0.51100000000E-03 0.  1.
    9000002    1    1    2    0    0 -0.31695915622E+00 -0.74968199871E-01  0.70948212472E-01  0.99547023389E+00  0.93800000000E+00 0. -1.
         22    1    1    2    0    0  0.23706260374E+00  0.55504166531E-01  0.29511674946E+01  0.29611938423E+01  0.00000000000E+00 0.  1.
</event>
<event>
 5    1  0.3454171E+002  0.1599571E+01  0.7818608E-02  0.3353829E+00
         11   -1    0    0    0    0  0.00000000000E+00  0.00000000000E+00  0.39999999674E+01  0.40000000000E+01  0.51100000000E-03 0.  1.
    9000002   -1    0    0    0    0 -0.00000000000E+00 -0.00000000000E+00  0.00000000000E+00  0.93800000000E+00  0.93800000000E+00 0.  1.
         11    1    1    2    0    0  0.13288432394E-01 -0.14792611191E-02  0.21700229655E+00  0.21741441644E+00  0.51100000000E-03 0.  1.
    9000002    1    1    2    0    0 -0.27076924524E+00  0.12502891431E+00  0.59411838474E-01  0.98606388238E+00  0.93800000000E+00 0.  1.
         22    1    1    2    0    0  0.25748081285E+00 -0.12354965319E+00  0.37235858323E+01  0.37345217012E+01  0.00000000000E+00 0.  1.
</event>
<event>
 5    1  0.3454171E+002  0.1599677E+01  0.7818608E-02  0.3353714E+00
         11   -1    0    0    0    0  0.00000000000E+00  0.00000000000E+00  0.39999999674E+01  0.40000000000E+01  0.51100000000E-03 0.  1.
    9000002   -1    0    0    0    0 -0.00000000000E+00 -0.00000000000E+00  0.00000000000E+00  0.93800000000E+00  0.93800000000E+00 0.  1.
         11    1    1    2    0    0 -0.20983061243E+00  0.19472141031E+00  0.19623884107E+01  0.19831575452E+01  0.51100000000E-03 0.  1.
    9000002    1    1    2    0    0  0.40611770904E+00 -0.37579210706E+00  0.21159256123E+00  0.11093992578E+01  0.93800000000E+00 0.  1.
         22    1    1    2    0    0 -0.19628709661E+00  0.18107069675E+00  0.18260189955E+01  0.18454431970E+01  0.00000000000E+00 0.  1.
</event>
<event>
 5    1  0.3454171E+002  0.1598812E+01  0.7818608E-02  0.3354654E+00
         11   -1    0    0    0    0  0.00000000000E+00  0.00000000000E+00  0.39999999674E+01  0.40000000000E+01  0.51100000000E-03 0.  1.
    9000002   -1    0    0    0    0 -0.00000000000E+00 -0.00000000000E+00  0.00000000000E+00  0.93800000000E+00  0.93800000000E+00 0. -1.
         11    1    1    2    0    0  0.26160093576E-01 -0.30418810153E-02  0.19747056255E+00  0.19921969715E+00  0.51100000000E-03 0.  1.
    9000002    1    1    2    0    0 -0.21683402893E+00  0.97560973464E-01  0.38179765827E-01  0.96841976134E+00  0.93800000000E+00 0. -1.
         22    1    1    2    0    0  0.19067393535E+00 -0.94519092448E-01  0.37643496390E+01  0.37703605415E+01  0.00000000000E+00 0.  1.
</event>
<event>
 5    1  0.3454171E+002  0.1599674E+01  0.7818608E-02  0.3353717E+00
         11   -1    0    0    0    0  0.00000000000E+00  0.00000000000E+00  0.39999999674E+01  0.40000000000E+01  0.51100000000E-03 0. -1.
    9000002   -1    0    0    0    0 -0.00000000000E+00 -0.00000000000E+00  0.00000000000E+00  0.93800000000E+00  0.93800000000E+00 0.  1.
         11    1    1    2    0    0 -0.38458649662E-01  0.27711739282E-02  0.45772663743E+00  0.45934810642E+00  0.51100000000E-03 0. -1.
    9000002    1    1    2    0    0  0.33322073787E+00 -0.12935465408E-01  0.74433334846E-01  0.99829239592E+00  0.93800000000E+00 0.  1.
         22    1    1    2    0    0 -0.29476208820E+00  0.10164291480E-01  0.34678399951E+01  0.34803594977E+01  0.00000000000E+00 0. -1.
</event>
<event>
 5    1  0.3454171E+002  0.1599677E+01  0.7818608E-02  0.3353714E+00
         11   -1    0    0    0    0  0.00000000000E+00  0.00000000000E+00  0.39999999674E+01  0.40000000000E+01  0.51100000000E-03 0.  1.
    9000002   -1    0    0    0    0 -0.00000000000E+00 -0.00000000000E+00  0.00000000000E+00  0.93800000000E+00  0.93800000000E+00 0.  1.
         11    1    1    2    0    0 -0.41892260744E+00  0.13580562585E+00  0.25407419168E+01  0.25786254222E+01  0.51100000000E-03 0.  1.
    9000002    1    1    2    0    0  0.61155369455E+00 -0.19784398310E+00  0.29103007337E+00  0.11737472754E+01  0.93800000000E+00 0.  1.
         22    1    1    2    0    0 -0.19263108711E+00  0.62038357247E-01  0.11682279772E+01  0.11856273024E+01  0.00000000000E+00 0.  1.
</event>
<event>
 5    1  0.3454171E+002  0.1599648E+01  0.7818608E-02  0.3353745E+00
         11   -1    0    0    0    0  0.00000000000E+00  0.00000000000E+00  0.39999999674E+01  0.40000000000E+01  0.51100000000E-03 0.  1.
    9000002   -1    0    0    0    0 -0.00000000000E+00 -0.00000000000E+00  0.00000000000E+00  0.93800000000E+00  0.93800000000E+00 0.  1.
         11    1    1    2    0    0 -0.89304503444E-02 -0.75868930938E-02  0.12112040487E+00  0.12168700623E+00  0.51100000000E-03 0.  1.
    9000002    1    1    2    0    0  0.27946183476E+00  0.31287208365E+00  0.11903751221E+00  0.10344089071E+01  0.93800000000E+00 0.  1.
         22    1    1    2    0    0 -0.27053138442E+00 -0.30528519055E+00  0.37598420503E+01  0.37819040866E+01  0.00000000000E+00 0.  1.
</event>
<event>
 5    1  0.3454171E+002  0.1550740E+01  0.7818608E-02  0.3408627E+00
         11   -1    0    0    0    0  0.00000000000E+00  0.00000000000E+00  0.39999999674E+01  0.40000000000E+01  0.51100000000E-03 0.  1.
    9000002   -1    0    0    0    0 -0.00000000000E+00 -0.00000000000E+00  0.00000000000E+00  0.93800000000E+00  0.93800000000E+00 0.  1.
         11    1    1    2    0    0  0.88925887579E-01  0.25733020130E+00  0.67205536158E+00  0.72511055442E+00  0.51100000000E-03 0.  1.
    9000002    1    1    2    0    0 -0.37052206074E+00 -0.29128159384E+00  0.19570883722E+00  0.10678377748E+01  0.93800000000E+00 0.  1.
         22    1    1    2    0    0  0.28159617317E+00  0.33951392544E-01  0.31322357686E+01  0.31450516707E+01  0.00000000000E+00 0. -1.
</event>
<event>
 5    1  0.3454171E+002  0.1582176E+01  0.7818608E-02  0.3372939E+00
         11   -1    0    0    0    0  0.00000000000E+00  0.00000000000E+00  0.39999999674E+01  0.40000000000E+01  0.51100000000E-03 0.  1.
    9000002   -1    0    0    0    0 -0.00000000000E+00 -0.00000000000E+00  0.00000000000E+00  0.93800000000E+00  0.93800000000E+00 0.  1.
         11    1    1    2    0    0  0.27612891401E-01 -0.34775570848E+00  0.20297253104E+01  0.20594857614E+01  0.51100000000E-03 0.  1.
    9000002    1    1    2    0    0  0.15711360473E+00  0.44129800580E+00  0.16495489105E+00  0.10613589076E+01  0.93800000000E+00 0.  1.
         22    1    1    2    0    0 -0.18472649613E+00 -0.93542297326E-01  0.18053197659E+01  0.18171553310E+01  0.00000000000E+00 0.  1.
</event>
<event>
 5    1  0.3454171E+002  0.1599677E+01  0.7818608E-02  0.3353714E+00
         11   -1    0    0    0    0  0.00000000000E+00  0.00000000000E+00  0.39999999674E+01  0.40000000000E+01  0.51100000000E-03 0.  1.
    9000002   -1    0    0    0    0 -0.00000000000E+00 -0.00000000000E+00  0.00000000000E+00  0.93800000000E+00  0.93800000000E+00 0.  1.
         11    1    1    2    0    0  0.32430823624E-01 -0.20848477301E+00  0.13718770493E+01  0.13880074057E+01  0.51100000000E-03 0.  1.
    9000002    1    1    2    0    0 -0.87948834230E-01  0.57228256284E+00  0.23287621280E+00  0.11266399867E+01  0.93800000000E+00 0.  1.
         22    1    1    2    0    0  0.55518010606E-01 -0.36379778983E+00  0.23952467053E+01  0.24233526076E+01  0.00000000000E+00 0.  1.
</event>
<event>
 5    1  0.3454171E+002  0.1526588E+01  0.7818608E-02  0.3437111E+00
         11   -1    0    0    0    0  0.00000000000E+00  0.00000000000E+00  0.39999999674E+01  0.40000000000E+01  0.51100000000E-03 0.  1.
    9000002   -1    0    0    0    0 -0.00000000000E+00 -0.00000000000E+00  0.00000000000E+00  0.93800000000E+00  0.93800000000E+00 0. -1.
         11    1    1    2    0    0 -0.16917903672E-01 -0.35555923124E+00  0.13334160847E+01  0.13801113356E+01  0.51100000000E-03 0.  1.
    9000002    1    1    2    0    0  0.12430910213E+00  0.13879941165E+00  0.79616466103E-01  0.95963577008E+00  0.93800000000E+00 0. -1.
         22    1    1    2    0    0 -0.10739119846E+00  0.21675981959E+00  0.25869674165E+01  0.25982528944E+01  0.00000000000E+00 0.  1.
</event>
<event>
 5    1  0.3454171E+002  0.1557043E+01  0.7818608E-02  0.3401350E+00
         11   -1    0    0    0    0  0.00000000000E+00  0.00000000000E+00  0.39999999674E+01  0.40000000000E+01  0.51100000000E-03 0.  1.
    9000002   -1    0    0    0    0 -0.00000000000E+00 -0.00000000000E+00  0.00000000000E+00  0.93800000000E+00  0.93800000000E+00 0.  1.
         11    1    1    2    0    0  0.17401725870E+00  0.53483320157E-01  0.97580166791E+00  0.99263871982E+00  0.51100000000E-03 0.  1.
    9000002    1    1    2    0    0  0.16434991001E+00 -0.20276133433E+00  0.78782923307E-01  0.97681820244E+00  0.93800000000E+00 0.  1.
         22    1    1    2    0    0 -0.33836716872E+00  0.14927801417E+00  0.29454153761E+01  0.29685430777E+01  0.00000000000E+00 0.  1.
</event>
<event>
 5    1  0.3454171E+002  0.1599677E+01  0.7818608E-02  0.3353714E+00
         11   -1    0    0    0    0  0.00000000000E+00  0.00000000000E+00  0.39999999674E+01  0.40000000000E+01  0.51100000000E-03 0. -1.
    9000002   -1    0    0    0    0 -0.00000000000E+00 -0.00000000000E+00  0.00000000000E+00  0.93800000000E+00  0.93800000000E+00 0. -1.
         11    1    1    2    0    0  0.30561831627E+00 -0.51151659249E-01  0.20130818661E+01  0.20367910811E+01  0.51100000000E-03 0. -1.
    9000002    1    1    2    0    0 -0.57102208109E+00  0.96396744489E-01  0.23296177576E+00  0.11267092519E+01  0.93800000000E+00 0. -1.
         22    1    1    2    0    0  0.26540376483E+00 -0.45245085240E-01  0.17539563255E+01  0.17744996670E+01  0.00000000000E+00 0. -1.
</event>
<event>
 5    1  0.3454171E+002  0.1599675E+01  0.7818608E-02  0.3353716E+00
         11   -1    0    0    0    0  0.00000000000E+00  0.00000000000E+00  0.39999999674E+01  0.40000000000E+01  0.51100000000E-03 0. -1.
    9000002   -1    0    0    0    0 -0.00000000000E+00 -0.00000000000E+00  0.00000000000E+00  0.93800000000E+00  0.93800000000E+00 0.  1.
         11    1    1    2    0    0 -0.67796079220E-01  0.87734530981E-02  0.97086647693E+00  0.97327039356E+00  0.51100000000E-03 0. -1.
    9000002    1    1    2    0    0  0.27709210429E+00 -0.29849776067E-01  0.51718170314E-01  0.97989275563E+00  0.93800000000E+00 0.  1.
         22    1    1    2    0    0 -0.20929602507E+00  0.21076322969E-01  0.29774153201E+01  0.29848368508E+01  0.00000000000E+00 0. -1.
</event>
<event>
 5    1  0.3454171E+002  0.1431481E+01  0.7818608E-02  0.3559379E+00
         11   -1    0    0    0    0  0.00000000000E+00  0.00000000000E+00  0.39999999674E+01  0.40000000000E+01  0.51100000000E-03 0.  1.
    9000002   -1    0    0    0    0 -0.00000000000E+00 -0.00000000000E+00  0.00000000000E+00  0.93800000000E+00  0.93800000000E+00 0. -1.
         11    1    1    2    0    0  0.26000581647E+00 -0.98147191165E-01  0.21246650449E+01  0.21427640351E+01  0.51100000000E-03 0.  1.
    9000002    1    1    2    0    0 -0.71643937946E-01 -0.57871359067E+00  0.42452983267E+00  0.11832632221E+01  0.93800000000E+00 0. -1.
         22    1    1    2    0    0 -0.18836187852E+00  0.67686078183E+00  0.14508050898E+01  0.16119727429E+01  0.00000000000E+00 0.  1.
</event>
<event>
 5    1  0.3454171E+002  0.1599665E+01  0.7818608E-02  0.3353727E+00
         11   -1    0    0    0    0  0.00000000000E+00  0.00000000000E+00  0.39999999674E+01  0.40000000000E+01  0.51100000000E-03 0. -1.
    9000002   -1    0    0    0    0 -0.00000000000E+00 -0.00000000000E+00  0.00000000000E+00  0.93800000000E+00  0.93800000000E+00 0. -1.
         11    1    1    2    0    0  0.38906411185E-01  0.42365528265E-01  0.62618045270E+00  0.62881695849E+00  0.51100000000E-03 0. -1.
    9000002    1    1    2    0    0 -0.24307008456E+00 -0.24629574089E+00  0.80264721816E-01  0.10030110087E+01  0.93800000000E+00 0. -1.
         22    1    1    2    0    0  0.20416367338E+00  0.20393021262E+00  0.32935547928E+01  0.33061720328E+01  0.00000000000E+00 0. -1.
</event>
<event>
 5    1  0.3454171E+002  0.1581309E+01  0.7818608E-02  0.3373903E+00
         11   -1    0    0    0    0  0.00000000000E+00  0.00000000000E+00  0.39999999674E+01  0.40000000000E+01  0.51100000000E-03 0.  1.
    9000002   -1    0    0    0    0 -0.00000000000E+00 -0.00000000000E+00  0.00000000000E+00  0.93800000000E+00  0.93800000000E+00 0.  1.
         11    1    1    2    0    0 -0.86286050171E-01  0.54260824436E-01  0.38082424169E+00  0.39422948102E+00  0.51100000000E-03 0.  1.
    9000002    1    1    2    0    0  0.21953747042E+00  0.18442912915E+00  0.69196639406E-01  0.98328173964E+00  0.93800000000E+00 0.  1.
         22    1    1    2    0    0 -0.13325142025E+00 -0.23868995359E+00  0.35499790863E+01  0.35604887793E+01  0.00000000000E+00 0.  1.
</event>
<event>
 5    1  0.3454171E+002  0.1599611E+01  0.7818608E-02  0.3353785E+00
         11   -1    0    0    0    0  0.00000000000E+00  0.00000000000E+00  0.39999999674E+01  0.40000000000E+01  0.51100000000E-03 0. -1.
    9000002   -1    0    0    0    0 -0.00000000000E+00 -0.00000000000E+00  0.00000000000E+00  0.93800000000E+00  0.93800000000E+00 0.  1.
         11    1    1    2    0    0  0.51469382693E-01  0.17861555123E-01  0.61463776901E+00  0.61704779452E+00  0.51100000000E-03 0. -1.
    9000002    1    1    2    0    0 -0.30271176739E+00 -0.77785833462E-01  0.65296389049E-01  0.99085451426E+00  0.93800000000E+00 0.  1.
         22    1    1    2    0    0  0.25124238469E+00  0.59924278339E-01  0.33200658093E+01  0.33300976912E+01  0.00000000000E+00 0. -1.
</event>
<event>
 5    1  0.3454171E+002  0.1590285E+01  0.7818608E-02  0.3363976E+00
         11   -1    0    0    0    0  0.00000000000E+00  0.00000000000E+00  0.39999999674E+01  0.40000000000E+01  0.51100000000E-03 0. -1.
    9000002   -1    0    0    0    0 -0.00000000000E+00 -0.00000000000E+00  0.00000000000E+00  0.93800000000E+00  0.93800000000E+00 0.  1.
         11    1    1    2    0    0 -0.11640257839E-01  0.47503342447E-01  0.36960312847E+00  0.37282542408E+00  0.51100000000E-03 0. -1.
    9000002    1    1    2    0    0 -0.82155786535E-01  0.18805254885E+00  0.34973736528E-01  0.96082282271E+00  0.93800000000E+00 0.  1.
         22    1    1    2    0    0  0.93796044374E-01 -0.23555589130E+00  0.35954231024E+01  0.36043517532E+01  0.00000000000E+00 0. -1.
</event>
<event>
 5    1  0.3454171E+002  0.1599677E+01  0.7818608E-02  0.3353714E+00
         11   -1    0    0    0    0  0.00000000000E+00  0.00000000000E+00  0.39999999674E+01  0.40000000000E+01  0.51100000000E-03 0.  1.
    9000002   -1    0    0    0    0 -0.00000000000E+00 -0.00000000000E+00  0.00000000000E+00  0.93800000000E+00  0.93800000000E+00 0.  1.
         11    1    1    2    0    0 -0.53424061303E-01  0.32249670861E+00  0.23366056550E+01  0.23593610375E+01  0.51100000000E-03 0.  1.
    9000002    1    1    2    0    0  0.86367570824E-01 -0.52449850041E+00  0.19449626270E+00  0.10955504691E+01  0.93800000000E+00 0.  1.
         22    1    1    2    0    0 -0.32943509520E-01  0.20200179181E+00  0.14688980497E+01  0.14830884933E+01  0.00000000000E+00 0.  1.
</event>
<event>
 5    1  0.3454171E+002  0.1599661E+01  0.7818608E-02  0.3353732E+00
         11   -1    0    0    0    0  0.00000000000E+00  0.00000000000E+00  0.39999999674E+01  0.40000000000E+01  0.51100000000E-03 0. -1.
    9000002   -1    0    0    0    0 -0.00000000000E+00 -0.00000000000E+00  0.00000000000E+00  0.93800000000E+00  0.93800000000E+00 0.  1.
         11    1    1    2    0    0 -0.24729447971E+00 -0.18565516375E+00  0.14491439078E+01  0.14817694579E+01  0.51100000000E-03 0. -1.
    9000002    1    1    2    0    0  0.59994714976E+00  0.45919196348E+00  0.41449917745E+00  0.12737532767E+01  0.93800000000E+00 0.  1.
         22    1    1    2    0    0 -0.35265267005E+00 -0.27353679973E+00  0.21363568821E+01  0.21824772654E+01  0.00000000000E+00 0. -1.
</event>
<event>
 5    1  0.3454171E+002  0.1599676E+01  0.7818608E-02  0.3353715E+00
         11   -1    0    0    0    0  0.00000000000E+00  0.00000000000E+00  0.39999999674E+01  0.40000000000E+01  0.51100000000E-03 0.  1.
    9000002   -1    0    0    0    0 -0.00000000000E+00 -0.00000000000E+00  0.00000000000E+00  0.93800000000E+00  0.93800000000E+00 0.  1.
         11    1    1    2    0    0  0.18094515549E+00 -0.15328951941E+00  0.18690430405E+01  0.18840278592E+01  0.51100000000E-03 0.  1.
    9000002    1    1    2    0    0 -0.37090380488E+00  0.31666163076E+00  0.16248738837E+00  0.10696216024E+01  0.93800000000E+00 0.  1.
         22    1    1    2    0    0  0.18995864939E+00 -0.16337211135E+00  0.19684695385E+01  0.19843505384E+01  0.00000000000E+00 0.  1.
</event>
<event>
 5    1  0.3454171E+002  0.1559246E+01  0.7818608E-02  0.3398820E+00
         11   -1    0    0    0    0  0.00000000000E+00  0.00000000000E+00  0.39999999674E+01  0.40000000000E+01  0.51100000000E-03 0. -1.
    9000002   -1    0    0    0    0 -0.00000000000E+00 -0.00000000000E+00  0.00000000000E+00  0.93800000000E+00  0.93800000000E+00 0. -1.
         11    1    1    2    0    0  0.56909412105E-01  0.20777902976E+00  0.14053406439E+01  0.14217571497E+01  0.51100000000E-03 0. -1.
    9000002    1    1    2    0    0  0.31814695298E+00 -0.14190656896E+00  0.11462424890E+00  0.10071433247E+01  0.93800000000E+00 0. -1.
         22    1    1    2    0    0 -0.37505636509E+00 -0.65872460802E-01  0.24800350746E+01  0.25090995256E+01  0.00000000000E+00 0.  1.
</event>
<event>
 5    1  0.3454171E+002  0.1597486E+01  0.7818608E-02  0.3356097E+00
         11   -1    0    0    0    0  0.00000000000E+00  0.00000000000E+00  0.39999999674E+01  0.40000000000E+01  0.51100000000E-03 0. -1.
    9000002   -1    0    0    0    0 -0.00000000000E+00 -0.00000000000E+00  0.00000000000E+00  0.93800000000E+00  0.93800000000E+00 0. -1.
         11    1    1    2    0    0  0.22419073002E-01 -0.86923731529E-01  0.15611745855E+01  0.15637534005E+01  0.51100000000E-03 0. -1.
    9000002    1    1    2    0    0 -0.19322051758E+00  0.19170779887E+00  0.50995668515E-01  0.97802382730E+00  0.93800000000E+00 0. -1.
         22    1    1    2    0    0  0.17080144458E+00 -0.10478406734E+00  0.23878297133E+01  0.23962227722E+01  0.00000000000E+00 0. -1.
</event>
<event>
 5    1  0.3454171E+002  0.1573301E+01  0.7818608E-02  0.3382862E+00
         11   -1    0    0    0    0  0.00000000000E+00  0.00000000000E+00  0.39999999674E+01  0.40000000000E+01  0.51100000000E-03 0.  1.
    9000002   -1    0    0    0    0 -0.00000000000E+00 -0.00000000000E+00  0.00000000000E+00  0.93800000000E+00  0.93800000000E+00 0. -1.
         11    1    1    2    0    0 -0.11046707919E+00  0.14671076149E+00  0.94771656677E+00  0.96534655703E+00  0.51100000000E-03 0.  1.
    9000002    1    1    2    0    0  0.24047390137E+00  0.50827087452E-01  0.60515572427E-01  0.97155402555E+00  0.93800000000E+00 0. -1.
         22    1    1    2    0    0 -0.13000682219E+00 -0.19753784895E+00  0.29917678282E+01  0.30010994174E+01  0.00000000000E+00 0.  1.
</event>
<event>
 5    1  0.3454171E+002  0.1557186E+01  0.7818608E-02  0.3401185E+00
         11   -1    0    0    0    0  0.00000000000E+00  0.00000000000E+00  0.39999999674E+01  0.40000000000E+01  0.51100000000E-03 0. -1.
    9000002   -1    0    0    0    0 -0.00000000000E+00 -0.00000000000E+00  0.00000000000E+00  0.93800000000E+00  0.93800000000E+00 0.  1.
         11    1    1    2    0    0  0.19788696528E+00 -0.42757827384E+00  0.17985704825E+01  0.18592575058E+01  0.51100000000E-03 0. -1.
    9000002    1    1    2    0    0 -0.40227497534E+00  0.37219109565E+00  0.24857939916E+00  0.11144447430E+01  0.93800000000E+00 0.  1.
         22    1    1    2    0    0  0.20438801006E+00  0.55387178189E-01  0.19528500857E+01  0.19642977512E+01  0.00000000000E+00 0.  1.
</event>
<event>
 5    1  0.3454171E+002  0.1599677E+01  0.7818608E-02  0.3353715E+00
         11   -1    0    0    0    0  0.00000000000E+00  0.00000000000E+00  0.39999999674E+01  0.40000000000E+01  0.51100000000E-03 0.  1.
    9000002   -1    0    0    0    0 -0.00000000000E+00 -0.00000000000E+00  0.00000000000E+00  0.93800000000E+00  0.93800000000E+00 0.  1.
         11    1    1    2    0    0 -0.11000311919E-01  0.39590357268E+00  0.20890574934E+01  0.21262695308E+01  0.51100000000E-03 0.  1.
    9000002    1    1    2    0    0  0.20623744157E-01 -0.69355657731E+00  0.34351425752E+00  0.12162615302E+01  0.93800000000E+00 0.  1.
         22    1    1    2    0    0 -0.96234322385E-02  0.29765300462E+00  0.15674282164E+01  0.15954689390E+01  0.00000000000E+00 0.  1.
</event>
<event>
 5    1  0.3454171E+002  0.1562179E+01  0.7818608E-02  0.3395464E+00
         11   -1    0    0    0    0  0.00000000000E+00  0.00000000000E+00  0.39999999674E+01  0.40000000000E+01  0.51100000000E-03 0. -1.
    9000002   -1    0    0    0    0 -0.00000000000E+00 -0.00000000000E+00  0.00000000000E+00  0.93800000000E+00  0.93800000000E+00 0. -1.
         11    1    1    2    0    0  0.15381872200E+00  0.20577589909E-01  0.54658093351E+00  0.56818536978E+00  0.51100000000E-03 0. -1.
    9000002    1    1    2    0    0 -0.62121424771E-02  0.23726994484E+00  0.66453870590E-01  0.96984314936E+00  0.93800000000E+00 0. -1.
         22    1    1    2    0    0 -0.14760657952E+00 -0.25784753474E+00  0.33869651633E+01  0.33999714809E+01  0.00000000000E+00 0. -1.
</event>
<event>
 5    1  0.3454171E+002  0.1599242E+01  0.7818608E-02  0.3354187E+00
         11   -1    0    0    0    0  0.00000000000E+00  0.00000000000E+00  0.39999999674E+01  0.40000000000E+01  0.51100000000E-03 0.  1.
    9000002   -1    0    0    0    0 -0.00000000000E+00 -0.00000000000E+00  0.00000000000E+00  0.93800000000E+00  0.93800000000E+00 0. -1.
         11    1    1    2    0    0 -0.28673382693E+00  0.53137803724E+00  0.21024706066E+01  0.21874555581E+01  0.51100000000E-03 0.  1.
    9000002    1    1    2    0    0  0.43266866059E+00 -0.81285469379E+00  0.65577545602E+00  0.14689521339E+01  0.93800000000E+00 0. -1.
         22    1    1    2    0    0 -0.14593483367E+00  0.28147665656E+00  0.12417539048E+01  0.12815923080E+01  0.00000000000E+00 0.  1.
</event>
<event>
 5    1  0.3454171E+002  0.1599661E+01  0.7818608E-02  0.3353732E+00
         11   -1    0    0    0    0  0.00000000000E+00  0.00000000000E+00  0.39999999674E+01  0.40000000000E+01  0.51100000000E-03 0.  1.
    9000002   -1    0    0    0    0 -0.00000000000E+00 -0.00000000000E+00  0.00000000000E+00  0.93800000000E+00  0.93800000000E+00 0.  1.
         11    1    1    2    0    0 -0.25005971883E-01 -0.12998445839E+00  0.12302052312E+01  0.12373061182E+01  0.51100000000E-03 0.  1.
    9000002    1    1    2    0    0  0.71784410113E-01  0.39860967576E+00  0.11073549052E+00  0.10276911131E+01  0.93800000000E+00 0.  1.
         22    1    1    2    0    0 -0.46778438230E-01 -0.26862521736E+00  0.26590592456E+01  0.26730027687E+01  0.00000000000E+00 0.  1.
</event>
<event>
 5    1  0.3454171E+002  0.1528311E+01  0.7818608E-02  0.3435047E+00
         11   -1    0    0    0    0  0.00000000000E+00  0.00000000000E+00  0.39999999674E+01  0.40000000000E+01  0.51100000000E-03 0.  1.
    9000002   -1    0    0    0    0 -0.00000000000E+00 -0.00000000000E+00  0.00000000000E+00  0.93800000000E+00  0.93800000000E+00 0. -1.
         11    1    1    2    0    0  0.10628204849E+00  0.21472982244E+00  0.86594115110E+00  0.89847599231E+00  0.51100000000E-03 0.  1.
    9000002    1    1    2    0    0  0.63337661993E-01  0.10820438833E+00  0.64684226458E-01  0.94855041945E+00  0.93800000000E+00 0. -1.
         22    1    1    2    0    0 -0.16961971048E+00 -0.32293421077E+00  0.30693745898E+01  0.30909735882E+01  0.00000000000E+00 0.  1.
</event>
<event>
 5    1  0.3454171E+002  0.1536215E+01  0.7818608E-02  0.3425642E+00
         11   -1    0    0    0    0  0.00000000000E+00  0.00000000000E+00  0.39999999674E+01  0.40000000000E+01  0.51100000000E-03 0. -1.
    9000002   -1    0    0    0    0 -0.00000000000E+00 -0.00000000000E+00  0.00000000000E+00  0.93800000000E+00  0.93800000000E+00 0.  1.
         11    1    1    2    0    0 -0.10231428026E+00  0.34600581213E-02  0.64024316853E-01  0.12074584140E+00  0.51100000000E-03 0. -1.
    9000002    1    1    2    0    0  0.41053506823E+00  0.35036746842E-01  0.17002778215E+00  0.10385182052E+01  0.93800000000E+00 0.  1.
         22    1    1    2    0    0 -0.30822078798E+00 -0.38496804963E-01  0.37659478684E+01  0.37787359534E+01  0.00000000000E+00 0. -1.
</event>
<event>
 5    1  0.3454171E+002  0.1599663E+01  0.7818608E-02  0.3353730E+00
         11   -1    0    0    0    0  0.00000000000E+00  0.00000000000E+00  0.39999999674E+01  0.40000000000E+01  0.51100000000E-03 0.  1.
    9000002   -1    0    0    0    0 -0.00000000000E+00 -0.00000000000E+00  0.00000000000E+00  0.93800000000E+00  0.93800000000E+00 0. -1.
         11    1    1    2    0    0  0.15192185365E-01  0.49931299848E-01  0.44968327224E+00  0.45270215778E+00  0.51100000000E-03 0.  1.
    9000002    1    1    2    0    0 -0.14722040593E+00 -0.41107249532E+00  0.12925136545E+00  0.10426909225E+01  0.93800000000E+00 0. -1.
         22    1    1    2    0    0  0.13202822056E+00  0.36114119547E+00  0.34210653297E+01  0.34426069198E+01  0.00000000000E+00 0.  1.
</event>
<event>
 5    1  0.3454171E+002  0.1599676E+01  0.7818608E-02  0.3353715E+00
         11   -1    0    0    0    0  0.00000000000E+00  0.00000000000E+00  0.39999999674E+01  0.40000000000E+01  0.51100000000E-03 0. -1.
    9000002   -1    0    0    0    0 -0.00000000000E+00 -0.00000000000E+00  0.00000000000E+00  0.93800000000E+00  0.93800000000E+00 0. -1.
         11    1    1    2    0    0 -0.40266744204E-02  0.60141672585E-01  0.63310538924E+00  0.63596849756E+00  0.51100000000E-03 0. -1.
    9000002    1    1    2    0    0  0.30622088714E-01 -0.37087860602E+00  0.93094232519E-01  0.10134096846E+01  0.93800000000E+00 0. -1.
         22    1    1    2    0    0 -0.26595414294E-01  0.31073693344E+00  0.32738003456E+01  0.32886218178E+01  0.00000000000E+00 0. -1.
</event>
<event>
 5    1  0.3454171E+002  0.1599368E+01  0.7818608E-02  0.3354049E+00
         11   -1    0    0    0    0  0.00000000000E+00  0.00000000000E+00  0.39999999674E+01  0.40000000000E+01  0.51100000000E-03 0.  1.
    9000002   -1    0    0    0    0 -0.00000000000E+00 -0.00000000000E+00  0.00000000000E+00  0.93800000000E+00  0.93800000000E+00 0.  1.
         11    1    1    2    0    0 -0.10650138032E+00 -0.29751002070E+00  0.20280552196E+01  0.20525260026E+01  0.51100000000E-03 0.  1.
    9000002    1    1    2    0    0  0.16203866848E+00  0.53942575741E+00  0.21997110581E+00  0.11160053608E+01  0.93800000000E+00 0.  1.
         22    1    1    2    0    0 -0.55537288154E-01 -0.24191573671E+00  0.17519736419E+01  0.17694686366E+01  0.00000000000E+00 0. -1.
</event>
<event>
 5    1  0.3454171E+002  0.1599605E+01  0.7818608E-02  0.3353792E+00
         11   -1    0    0    0    0  0.00000000000E+00  0.00000000000E+00  0.39999999674E+01  0.40000000000E+01  0.51100000000E-03 0.  1.
    9000002   -1    0    0    0    0 -0.00000000000E+00 -0.00000000000E+00  0.00000000000E+00  0.93800000000E+00  0.93800000000E+00 0. -1.
         11    1    1    2    0    0  0.18738312936E+00 -0.17509515793E+00  0.21623107979E+01  0.21774661879E+01  0.51100000000E-03 0.  1.
    9000002    1    1    2    0    0 -0.33600919631E+00  0.32965198068E+00  0.15102534459E+00  0.10602948944E+01  0.93800000000E+00 0. -1.
         22    1    1    2    0    0  0.14862606695E+00 -0.15455682275E+00  0.16866638248E+01  0.17002389177E+01  0.00000000000E+00 0.  1.
</event>
<event>
 5    1  0.3454171E+002  0.1599652E+01  0.7818608E-02  0.3353741E+00
         11   -1    0    0    0    0  0.00000000000E+00  0.00000000000E+00  0.39999999674E+01  0.40000000000E+01  0.51100000000E-03 0. -1.
    9000002   -1    0    0    0    0 -0.00000000000E+00 -0.00000000000E+00  0.00000000000E+00  0.93800000000E+00  0.93800000000E+00 0. -1.
         11    1    1    2    0    0 -0.60045264589E-02 -0.21384077011E+00  0.14706076413E+01  0.14860858068E+01  0.51100000000E-03 0. -1.
    9000002    1    1    2    0    0  0.30460963184E-01  0.55223113942E+00  0.21142362708E+00  0.11092479667E+01  0.93800000000E+00 0. -1.
         22    1    1    2    0    0 -0.24456436725E-01 -0.33839036930E+00  0.23179686990E+01  0.23426662265E+01  0.00000000000E+00 0. -1.
</event>
<event>
 5    1  0.3454171E+002  0.1599648E+01  0.7818608E-02  0.3353746E+00
         11   -1    0    0    0    0  0.00000000000E+00  0.00000000000E+00  0.39999999674E+01  0.40000000000E+01  0.51100000000E-03 0. -1.
    9000002   -1    0    0    0    0 -0.00000000000E+00 -0.00000000000E+00  0.00000000000E+00  0.93800000000E+00  0.93800000000E+00 0. -1.
         11    1    1    2    0    0  0.17726805129E+00  0.82435858700E-01  0.14227187779E+01  0.14360879551E+01  0.51100000000E-03 0. -1.
    9000002    1    1    2    0    0 -0.46497233394E+00 -0.20862406819E+00  0.17811298683E+00  0.10822622183E+01  0.93800000000E+00 0. -1.
         22    1    1    2    0    0  0.28770428266E+00  0.12618820949E+00  0.23991682026E+01  0.24196498265E+01  0.00000000000E+00 0. -1.
</event>
<event>
 5    1  0.3454171E+002  0.1596188E+01  0.7818608E-02  0.3357511E+00
         11   -1    0    0    0    0  0.00000000000E+00  0.00000000000E+00  0.39999999674E+01  0.40000000000E+01  0.51100000000E-03 0. -1.
    9000002   -1    0    0    0    0 -0.00000000000E+00 -0.00000000000E+00  0.00000000000E+00  0.93800000000E+00  0.93800000000E+00 0. -1.
         11    1    1    2    0    0 -0.39205658378E-01  0.51931906631E-01  0.13692011223E+01  0.13707465051E+01  0.51100000000E-03 0. -1.
    9000002    1    1    2    0    0  0.30296694244E+00 -0.10905546257E+00  0.72083395510E-01  0.99434504979E+00  0.93800000000E+00 0. -1.
         22    1    1    2    0    0 -0.26376128406E+00  0.57123555937E-01  0.25587154495E+01  0.25729084452E+01  0.00000000000E+00 0. -1.
</event>
<event>
 5    1  0.3454171E+002  0.1591366E+01  0.7818608E-02  0.3362788E+00
         11   -1    0    0    0    0  0.00000000000E+00  0.00000000000E+00  0.39999999674E+01  0.40000000000E+01  0.51100000000E-03 0.  1.
    9000002   -1    0    0    0    0 -0.00000000000E+00 -0.00000000000E+00  0.00000000000E+00  0.93800000000E+00  0.93800000000E+00 0. -1.
         11    1    1    2    0    0  0.13423036250E+00 -0.60645988483E-01  0.18134017360E+01  0.18193740252E+01  0.51100000000E-03 0.  1.
    9000002    1    1    2    0    0 -0.11893239691E+00  0.29448781300E+00  0.73999751951E-01  0.99306996245E+00  0.93800000000E+00 0. -1.
         22    1    1    2    0    0 -0.15297965591E-01 -0.23384182452E+00  0.21125984794E+01  0.21255560124E+01  0.00000000000E+00 0.  1.
</event>
<event>
 5    1  0.3454171E+002  0.1597051E+01  0.7818608E-02  0.3356570E+00
         11   -1    0    0    0    0  0.00000000000E+00  0.00000000000E+00  0.39999999674E+01  0.40000000000E+01  0.51100000000E-03 0.  1.
    9000002   -1    0    0    0    0 -0.00000000000E+00 -0.00000000000E+00  0.00000000000E+00  0.93800000000E+00  0.93800000000E+00 0.  1.
         11    1    1    2    0    0  0.12589386506E+00 -0.20739479929E+00  0.25524422291E+01  0.25639468524E+01  0.51100000000E-03 0.  1.
    9000002    1    1    2    0    0 -0.25509326978E+00  0.37436039989E+00  0.14171980013E+00  0.10512596192E+01  0.93800000000E+00 0.  1.
         22    1    1    2    0    0  0.12919940472E+00 -0.16696560059E+00  0.13058379381E+01  0.13227935283E+01  0.00000000000E+00 0. -1.
</event>
<event>
 5    1  0.3454171E+002  0.1598004E+01  0.7818608E-02  0.3355533E+00
         11   -1    0    0    0    0  0.00000000000E+00  0.00000000000E+00  0.39999999674E+01  0.40000000000E+01  0.51100000000E-03 0.  1.
    9000002   -1    0    0    0    0 -0.00000000000E+00 -0.00000000000E+00  0.00000000000E+00  0.93800000000E+00  0.93800000000E+00 0.  1.
         11    1    1    2    0    0 -0.85413131341E-01 -0.16861793926E-01  0.91388665372E+00  0.91802440059E+00  0.51100000000E-03 0.  1.
    9000002    1    1    2    0    0  0.22787921194E+00  0.18404812946E+00  0.58508739471E-01  0.98441349127E+00  0.93800000000E+00 0.  1.
         22    1    1    2    0    0 -0.14246608060E+00 -0.16718633553E+00  0.30276045742E+01  0.30355621081E+01  0.00000000000E+00 0.  1.
</event>
<event>
 5    1  0.3454171E+002  0.1599675E+01  0.7818608E-02  0.3353716E+00
         11   -1    0    0    0    0  0.00000000000E+00  0.00000000000E+00  0.39999999674E+01  0.40000000000E+01  0.51100000000E-03 0.  1.
    9000002   -1    0    0    0    0 -0.00000000000E+00 -0.00000000000E+00  0.00000000000E+00  0.93800000000E+00  0.93800000000E+00 0. -1.
         11    1    1    2    0    0  0.11850190823E+00  0.66497259943E-01  0.14415005974E+01  0.14478911635E+01  0.51100000000E-03 0.  1.
    9000002    1    1    2    0    0 -0.32314986532E+00 -0.17661767783E+00  0.91124525985E-01  0.10118138756E+01  0.93800000000E+00 0. -1.
         22    1    1    2    0    0  0.20464795709E+00  0.11012041789E+00  0.24673748440E+01  0.24782949610E+01  0.00000000000E+00 0.  1.
</event>
<event>
 5    1  0.3454171E+002  0.1597569E+01  0.7818608E-02  0.3356006E+00
         11   -1    0    0    0    0  0.00000000000E+00  0.00000000000E+00  0.39999999674E+01  0.40000000000E+01  0.51100000000E-03 0. -1.
    9000002   -1    0    0    0    0 -0.00000000000E+00 -0.00000000000E+00  0.00000000000E+00  0.93800000000E+00  0.93800000000E+00 0.  1.
         11    1    1    2    0    0 -0.95714237134E-03  0.10693939971E+00  0.15643897551E+01  0.15680409811E+01  0.51100000000E-03 0. -1.
    9000002    1    1    2    0    0 -0.10971753579E+00 -0.34366912719E+00  0.89080673533E-01  0.10089230759E+01  0.93800000000E+00 0.  1.
         22    1    1    2    0    0  0.11067467816E+00  0.23672972748E+00  0.23465295387E+01  0.23610359430E+01  0.00000000000E+00 0.  1.
</event>
<event>
 5    1  0.3454171E+002  0.1599604E+01  0.7818608E-02  0.3353793E+00
         11   -1    0    0    0    0  0.00000000000E+00  0.00000000000E+00  0.39999999674E+01  0.40000000000E+01  0.51100000000E-03 0. -1.
    9000002   -1    0    0    0    0 -0.00000000000E+00 -0.00000000000E+00  0.00000000000E+00  0.93800000000E+00  0.93800000000E+00 0.  1.
         11    1    1    2    0    0  0.30373171885E-01 -0.13120572174E-01  0.63484320834E+00  0.63570499391E+00  0.51100000000E-03 0. -1.
    9000002    1    1    2    0    0 -0.22743723821E+00  0.54124807876E-01  0.36319813612E-01  0.96737806519E+00  0.93800000000E+00 0.  1.
         22    1    1    2    0    0  0.19706406633E+00 -0.41004235702E-01  0.33288369454E+01  0.33349169409E+01  0.00000000000E+00 0.  1.
</event>
<event>
 5    1  0.3454171E+002  0.1599595E+01  0.7818608E-02  0.3353803E+00
         11   -1    0    0    0    0  0.00000000000E+00  0.00000000000E+00  0.39999999674E+01  0.40000000000E+01  0.51100000000E-03 0. -1.
    9000002   -1    0    0    0    0 -0.00000000000E+00 -0.00000000000E+00  0.00000000000E+00  0.93800000000E+00  0.93800000000E+00 0.  1.
         11    1    1    2    0    0 -0.24075404019E-02  0.85549277495E-02  0.11001268437E+00  0.11037225595E+00  0.51100000000E-03 0. -1.
    9000002    1    1    2    0    0  0.10297403236E+00 -0.42605053873E+00  0.13033535953E+00  0.10435295965E+01  0.93800000000E+00 0.  1.
         22    1    1    2    0    0 -0.10056649196E+00  0.41749561098E+00  0.37596519235E+01  0.37840981475E+01  0.00000000000E+00 0. -1.
</event>
<event>
 5    1  0.3454171E+002  0.1599674E+01  0.7818608E-02  0.3353718E+00
         11   -1    0    0    0    0  0.00000000000E+00  0.00000000000E+00  0.39999999674E+01  0.40000000000E+01  0.51100000000E-03 0.  1.
    9000002   -1    0    0    0    0 -0.00000000000E+00 -0.00000000000E+00  0.00000000000E+00  0.93800000000E+00  0.93800000000E+00 0.  1.
         11    1    1    2    0    0  0.58229050466E+00  0.34748614577E-01  0.11081033900E+01  0.12522631840E+01  0.51100000000E-03 0.  1.
    9000002    1    1    2    0    0 -0.12487794267E+01 -0.72965027176E-01  0.16332190047E+01  0.22609781665E+01  0.93800000000E+00 0.  1.
         22    1    1    2    0    0  0.66648892208E+00  0.38216412599E-01  0.12586775727E+01  0.14247586496E+01  0.00000000000E+00 0.  1.
</event>
<event>
 5    1  0.3454171E+002  0.1599573E+01  0.7818608E-02  0.3353827E+00
         11   -1    0    0    0    0  0.00000000000E+00  0.00000000000E+00  0.39999999674E+01  0.40000000000E+01  0.51100000000E-03 0. -1.
    9000002   -1    0    0    0    0 -0.00000000000E+00 -0.00000000000E+00  0.00000000000E+00  0.93800000000E+00  0.93800000000E+00 0. -1.
         11    1    1    2    0    0 -0.16493294940E+00  0.11953901138E+00  0.18300684415E+01  0.18413699288E+01  0.51100000000E-03 0. -1.
    9000002    1    1    2    0    0  0.32845999485E+00 -0.23970970250E+00  0.11171260687E+00  0.10284310459E+01  0.93800000000E+00 0. -1.
         22    1    1    2    0    0 -0.16352704545E+00  0.12017069112E+00  0.20582189190E+01  0.20681990253E+01  0.00000000000E+00 0. -1.
</event>
<event>
 5    1  0.3454171E+002  0.1598950E+01  0.7818608E-02  0.3354504E+00
         11   -1    0    0    0    0  0.00000000000E+00  0.00000000000E+00  0.39999999674E+01  0.40000000000E+01  0.51100000000E-03 0. -1.
    9000002   -1    0    0    0    0 -0.00000000000E+00 -0.00000000000E+00  0.00000000000E+00  0.93800000000E+00  0.93800000000E+00 0. -1.
         11    1    1    2    0    0  0.95539675820E-02 -0.11139250775E-01  0.10028748750E+00  0.10135680773E+00  0.51100000000E-03 0. -1.
    9000002    1    1    2    0    0 -0.36455436951E+00  0.76406644208E+00  0.53784325506E+00  0.13732504445E+01  0.93800000000E+00 0. -1.
         22    1    1    2    0    0  0.35500040193E+00 -0.75292719130E+00  0.33618692248E+01  0.34633927478E+01  0.00000000000E+00 0. -1.
</event>
<event>
 5    1  0.6605163E+002  0.1574447E+01  0.7818608E-02  0.3381574E+00
         11   -1    0    0    0    0  0.00000000000E+00  0.00000000000E+00  0.39999999674E+01  0.40000000000E+01  0.51100000000E-03 0.  1.
    9000002   -1    0    0    0    0 -0.00000000000E+00 -0.00000000000E+00  0.00000000000E+00  0.93800000000E+00  0.93800000000E+00 0. -1.
         11    1    1    2    0    0 -0.16204573356E+00  0.13096607545E-01  0.14205563979E+01  0.14298290393E+01  0.51100000000E-03 0.  1.
    9000002    1    1    2    0    0 -0.56954466104E-01  0.10487911803E-01  0.20751104070E-01  0.94001511468E+00  0.93800000000E+00 0. -1.
         22    1    1    2    0    0  0.21900019966E+00 -0.23584519349E-01  0.25586924654E+01  0.25681558460E+01  0.00000000000E+00 0.  1.
</event>
<event>
 5    1  0.3454171E+002  0.1599037E+01  0.7818608E-02  0.3354409E+00
         11   -1    0    0    0    0  0.00000000000E+00  0.00000000000E+00  0.39999999674E+01  0.40000000000E+01  0.51100000000E-03 0.  1.
    9000002   -1    0    0    0    0 -0.00000000000E+00 -0.00000000000E+00  0.00000000000E+00  0.93800000000E+00  0.93800000000E+00 0. -1.
         11    1    1    2    0    0  0.66389409694E-02  0.27019908752E-01  0.22666509026E+00  0.22836697499E+00  0.51100000000E-03 0.  1.
    9000002    1    1    2    0    0 -0.76470116318E-01 -0.22746036231E+00  0.38711995531E-01  0.96898323706E+00  0.93800000000E+00 0. -1.
         22    1    1    2    0    0  0.69831175348E-01  0.20044045356E+00  0.37346228816E+01  0.37406497879E+01  0.00000000000E+00 0.  1.
</event>
<event>
 5    1  0.3454171E+002  0.1583804E+01  0.7818608E-02  0.3371131E+00
         11   -1    0    0    0    0  0.00000000000E+00  0.00000000000E+00  0.39999999674E+01  0.40000000000E+01  0.51100000000E-03 0. -1.
    9000002   -1    0    0    0    0 -0.00000000000E+00 -0.00000000000E+00  0.00000000000E+00  0.93800000000E+00  0.93800000000E+00 0. -1.
         11    1    1    2    0    0 -0.63725844478E-01 -0.72340145636E-01  0.18067197121E+01  0.18092900429E+01  0.51100000000E-03 0. -1.
    9000002    1    1    2    0    0 -0.10727589796E+00 -0.62599996708E-01  0.21910530659E-01  0.94644120220E+00  0.93800000000E+00 0. -1.
         22    1    1    2    0    0  0.17100174244E+00  0.13494014234E+00  0.21713697246E+01  0.21822687549E+01  0.00000000000E+00 0. -1.
</event>
<event>
 5    1  0.3454171E+002  0.1554916E+01  0.7818608E-02  0.3403798E+00
         11   -1    0    0    0    0  0.00000000000E+00  0.00000000000E+00  0.39999999674E+01  0.40000000000E+01  0.51100000000E-03 0.  1.
    9000002   -1    0    0    0    0 -0.00000000000E+00 -0.00000000000E+00  0.00000000000E+00  0.93800000000E+00  0.93800000000E+00 0.  1.
         11    1    1    2    0    0 -0.11507453691E+00  0.98675785523E-01  0.25246401640E+00  0.29447818322E+00  0.51100000000E-03 0.  1.
    9000002    1    1    2    0    0  0.60842210952E+00  0.19424602572E+00  0.33516764384E+00  0.11832541280E+01  0.93800000000E+00 0.  1.
         22    1    1    2    0    0 -0.49334757261E+00 -0.29292181125E+00  0.34123683071E+01  0.34602676888E+01  0.00000000000E+00 0.  1.
</event>
<event>
 5    1  0.3454171E+002  0.1599672E+01  0.7818608E-02  0.3353719E+00
         11   -1    0    0    0    0  0.00000000000E+00  0.00000000000E+00  0.39999999674E+01  0.40000000000E+01  0.51100000000E-03 0.  1.
    9000002   -1    0    0    0    0 -0.00000000000E+00 -0.00000000000E+00  0.00000000000E+00  0.93800000000E+00  0.93800000000E+00 0.  1.
         11    1    1    2    0    0 -0.16340100434E-01  0.12305717524E-01  0.30382886052E+00  0.30451710490E+00  0.51100000000E-03 0.  1.
    9000002    1    1    2    0    0  0.19615072241E+00 -0.15590444360E+00  0.41710423695E-01  0.97178447244E+00  0.93800000000E+00 0.  1.
         22    1    1    2    0    0 -0.17981062197E+00  0.14359872607E+00  0.36544606831E+01  0.36616984227E+01  0.00000000000E+00 0.  1.
</event>
<event>
 5    1  0.3454171E+002  0.1590844E+01  0.7818608E-02  0.3363362E+00
         11   -1    0    0    0    0  0.00000000000E+00  0.00000000000E+00  0.39999999674E+01  0.40000000000E+01  0.51100000000E-03 0.  1.
    9000002   -1    0    0    0    0 -0.00000000000E+00 -0.00000000000E+00  0.00000000000E+00  0.93800000000E+00  0.93800000000E+00 0.  1.
         11    1    1    2    0    0 -0.68305589784E-01  0.43653877182E-01  0.11113923923E+01  0.11143449311E+01  0.51100000000E-03 0.  1.
    9000002    1    1    2    0    0 -0.19449141784E-01 -0.40007327166E+00  0.11561467973E+00  0.10264734025E+01  0.93800000000E+00 0.  1.
         22    1    1    2    0    0  0.87754731568E-01  0.35641939448E+00  0.27729928953E+01  0.27971816665E+01  0.00000000000E+00 0.  1.
</event>
<event>
 5    1  0.3454171E+002  0.1598126E+01  0.7818608E-02  0.3355400E+00
         11   -1    0    0    0    0  0.00000000000E+00  0.00000000000E+00  0.39999999674E+01  0.40000000000E+01  0.51100000000E-03 0. -1.
    9000002   -1    0    0    0    0 -0.00000000000E+00 -0.00000000000E+00  0.00000000000E+00  0.93800000000E+00  0.93800000000E+00 0.  1.
         11    1    1    2    0    0 -0.20021696869E+00 -0.94335491131E-01  0.13940760035E+01  0.14115361080E+01  0.51100000000E-03 0. -1.
    9000002    1    1    2    0    0  0.53827633474E+00  0.13205121512E+00  0.21381155395E+00  0.11102874928E+01  0.93800000000E+00 0. -1.
         22    1    1    2    0    0 -0.33805936605E+00 -0.37715723991E-01  0.23921124099E+01  0.24161763992E+01  0.00000000000E+00 0. -1.
</event>
<event>
 5    1  0.3454171E+002  0.1599658E+01  0.7818608E-02  0.3353734E+00
         11   -1    0    0    0    0  0.00000000000E+00  0.00000000000E+00  0.39999999674E+01  0.40000000000E+01  0.51100000000E-03 0.  1.
    9000002   -1    0    0    0    0 -0.00000000000E+00 -0.00000000000E+00  0.00000000000E+00  0.93800000000E+00  0.93800000000E+00 0. -1.
         11    1    1    2    0    0  0.35469220197E-01  0.25113602557E-01  0.67602372036E+00  0.67741943449E+00  0.51100000000E-03 0.  1.
    9000002    1    1    2    0    0 -0.22662082342E+00 -0.13445365627E+00  0.46188328343E-01  0.97540358056E+00  0.93800000000E+00 0. -1.
         22    1    1    2    0    0  0.19115160322E+00  0.10934005371E+00  0.32777879187E+01  0.32851769850E+01  0.00000000000E+00 0.  1.
</event>
<event>
 5    1  0.3454171E+002  0.1580950E+01  0.7818608E-02  0.3374303E+00
         11   -1    0    0    0    0  0.00000000000E+00  0.00000000000E+00  0.39999999674E+01  0.40000000000E+01  0.51100000000E-03 0. -1.
    9000002   -1    0    0    0    0 -0.00000000000E+00 -0.00000000000E+00  0.00000000000E+00  0.93800000000E+00  0.93800000000E+00 0. -1.
         11    1    1    2    0    0  0.99995829561E-01  0.33862769496E-01  0.79236280939E+00  0.79936533319E+00  0.51100000000E-03 0. -1.
    9000002    1    1    2    0    0  0.15322590096E+00 -0.83948898586E-01  0.34230058355E-01  0.95474671573E+00  0.93800000000E+00 0. -1.
         22    1    1    2    0    0 -0.25322173052E+00  0.50086129090E-01  0.31734070996E+01  0.31838879511E+01  0.00000000000E+00 0. -1.
</event>
<event>
 5    1  0.3454171E+002  0.1599669E+01  0.7818608E-02  0.3353722E+00
         11   -1    0    0    0    0  0.00000000000E+00  0.00000000000E+00  0.39999999674E+01  0.40000000000E+01  0.51100000000E-03 0.  1.
    9000002   -1    0    0    0    0 -0.00000000000E+00 -0.00000000000E+00  0.00000000000E+00  0.93800000000E+00  0.93800000000E+00 0.  1.
         11    1    1    2    0    0  0.12319854854E+00 -0.21273827415E+00  0.19721495666E+01  0.19874127980E+01  0.51100000000E-03 0.  1.
    9000002    1    1    2    0    0 -0.24485399494E+00  0.41015347504E+00  0.15564041818E+00  0.10640710933E+01  0.93800000000E+00 0.  1.
         22    1    1    2    0    0  0.12165544640E+00 -0.19741520088E+00  0.18722099826E+01  0.18865161086E+01  0.00000000000E+00 0.  1.
</event>
<event>
 5    1  0.3454171E+002  0.1538107E+01  0.7818608E-02  0.3423407E+00
         11   -1    0    0    0    0  0.00000000000E+00  0.00000000000E+00  0.39999999674E+01  0.40000000000E+01  0.51100000000E-03 0.  1.
    9000002   -1    0    0    0    0 -0.00000000000E+00 -0.00000000000E+00  0.00000000000E+00  0.93800000000E+00  0.93800000000E+00 0. -1.
         11    1    1    2    0    0 -0.56847841523E-01 -0.25884851214E+00  0.17105284865E+01  0.17309367966E+01  0.51100000000E-03 0.  1.
    9000002    1    1    2    0    0  0.20826919975E-01 -0.76507923670E-01  0.50360630367E-01  0.94269158057E+00  0.93800000000E+00 0. -1.
         22    1    1    2    0    0  0.36020921549E-01  0.33535643581E+00  0.22391108504E+01  0.22643716229E+01  0.00000000000E+00 0.  1.
</event>
<event>
 5    1  0.3454171E+002  0.1583537E+01  0.7818608E-02  0.3371427E+00
         11   -1    0    0    0    0  0.00000000000E+00  0.00000000000E+00  0.39999999674E+01  0.40000000000E+01  0.51100000000E-03 0. -1.
    9000002   -1    0    0    0    0 -0.00000000000E+00 -0.00000000000E+00  0.00000000000E+00  0.93800000000E+00  0.93800000000E+00 0. -1.
         11    1    1    2    0    0 -0.48791448807E-01 -0.12517187340E+00  0.13228022063E+01  0.13296069124E+01  0.51100000000E-03 0. -1.
    9000002    1    1    2    0    0  0.20135545177E+00 -0.53405542426E-01  0.40974119309E-01  0.96172711742E+00  0.93800000000E+00 0. -1.
         22    1    1    2    0    0 -0.15256400297E+00  0.17857741583E+00  0.26362236418E+01  0.26466659702E+01  0.00000000000E+00 0. -1.
</event>
<event>
 5    1  0.3454171E+002  0.1599672E+01  0.7818608E-02  0.3353720E+00
         11   -1    0    0    0    0  0.00000000000E+00  0.00000000000E+00  0.39999999674E+01  0.40000000000E+01  0.51100000000E-03 0.  1.
    9000002   -1    0    0    0    0 -0.00000000000E+00 -0.00000000000E+00  0.00000000000E+00  0.93800000000E+00  0.93800000000E+00 0. -1.
         11    1    1    2    0    0  0.11349616051E-01  0.20122964719E-01  0.31786215543E+00  0.31870104875E+00  0.51100000000E-03 0.  1.
    9000002    1    1    2    0    0 -0.15715407906E+00 -0.24263265522E+00  0.55697770584E-01  0.98311456687E+00  0.93800000000E+00 0. -1.
         22    1    1    2    0    0  0.14580446301E+00  0.22250969050E+00  0.36264400413E+01  0.36361843844E+01  0.00000000000E+00 0.  1.
</event>
<event>
 5    1  0.3454171E+002  0.1558117E+01  0.7818608E-02  0.3400115E+00
         11   -1    0    0    0    0  0.00000000000E+00  0.00000000000E+00  0.39999999674E+01  0.40000000000E+01  0.51100000000E-03 0.  1.
    9000002   -1    0    0    0    0 -0.00000000000E+00 -0.00000000000E+00  0.00000000000E+00  0.93800000000E+00  0.93800000000E+00 0.  1.
         11    1    1    2    0    0  0.16250504519E+00 -0.23662852473E+00  0.24357853030E+01  0.24526416884E+01  0.51100000000E-03 0.  1.
    9000002    1    1    2    0    0 -0.94467760416E-01  0.35657587322E-01  0.37703549967E-01  0.94417221892E+00  0.93800000000E+00 0.  1.
         22    1    1    2    0    0 -0.68037284775E-01  0.20097093741E+00  0.15265111144E+01  0.15411860927E+01  0.00000000000E+00 0.  1.
</event>
<event>
 5    1  0.3454171E+002  0.1599415E+01  0.7818608E-02  0.3353999E+00
         11   -1    0    0    0    0  0.00000000000E+00  0.00000000000E+00  0.39999999674E+01  0.40000000000E+01  0.51100000000E-03 0.  1.
    9000002   -1    0    0    0    0 -0.00000000000E+00 -0.00000000000E+00  0.00000000000E+00  0.93800000000E+00  0.93800000000E+00 0.  1.
         11    1    1    2    0    0  0.23394631098E-01  0.82464944965E-01  0.94656787570E+00  0.95044136082E+00  0.51100000000E-03 0.  1.
    9000002    1    1    2    0    0 -0.11791177622E+00 -0.40341408447E+00  0.11969280095E+00  0.10348026271E+01  0.93800000000E+00 0.  1.
         22    1    1    2    0    0  0.94517145119E-01  0.32094913951E+00  0.29337392907E+01  0.29527560121E+01  0.00000000000E+00 0.  1.
</event>
<event>
 5    1  0.3454171E+002  0.1599674E+01  0.7818608E-02  0.3353717E+00
         11   -1    0    0    0    0  0.00000000000E+00  0.00000000000E+00  0.39999999674E+01  0.40000000000E+01  0.51100000000E-03 0.  1.
    9000002   -1    0    0    0    0 -0.00000000000E+00 -0.00000000000E+00  0.00000000000E+00  0.93800000000E+00  0.93800000000E+00 0.  1.
         11    1    1    2    0    0  0.12961953607E+00  0.76036209439E-02  0.12957099868E+01  0.13021995509E+01  0.51100000000E-03 0.  1.
    9000002    1    1    2    0    0 -0.38735611999E+00 -0.27962839418E-01  0.10158865811E+00  0.10202896351E+01  0.93800000000E+00 0.  1.
         22    1    1    2    0    0  0.25773658392E+00  0.20359218474E-01  0.26027013224E+01  0.26155108140E+01  0.00000000000E+00 0.  1.
</event>
<event>
 5    1  0.3454171E+002  0.1599646E+01  0.7818608E-02  0.3353748E+00
         11   -1    0    0    0    0  0.00000000000E+00  0.00000000000E+00  0.39999999674E+01  0.40000000000E+01  0.51100000000E-03 0. -1.
    9000002   -1    0    0    0    0 -0.00000000000E+00 -0.00000000000E+00  0.00000000000E+00  0.93800000000E+00  0.93800000000E+00 0.  1.
         11    1    1    2    0    0 -0.42051909579E-01 -0.65515949266E-02  0.47281819987E+00  0.47473002616E+00  0.51100000000E-03 0. -1.
    9000002    1    1    2    0    0  0.31371630620E+00  0.60026097086E-01  0.68211652671E-01  0.99323606593E+00  0.93800000000E+00 0.  1.
         22    1    1    2    0    0 -0.27166439662E+00 -0.53474502160E-01  0.34589701148E+01  0.34700339079E+01  0.00000000000E+00 0. -1.
</event>
<event>
 5    1  0.3454171E+002  0.1598721E+01  0.7818608E-02  0.3354752E+00
         11   -1    0    0    0    0  0.00000000000E+00  0.00000000000E+00  0.39999999674E+01  0.40000000000E+01  0.51100000000E-03 0.  1.
    9000002   -1    0    0    0    0 -0.00000000000E+00 -0.00000000000E+00  0.00000000000E+00  0.93800000000E+00  0.93800000000E+00 0. -1.
         11    1    1    2    0    0 -0.21124616366E-01  0.97421006510E-03  0.43873693955E+00  0.43924658422E+00  0.51100000000E-03 0.  1.
    9000002    1    1    2    0    0  0.20106797711E+00  0.20133209237E+00  0.54678370700E-01  0.98173146382E+00  0.93800000000E+00 0. -1.
         22    1    1    2    0    0 -0.17994336074E+00 -0.20230630243E+00  0.35065846571E+01  0.35170219520E+01  0.00000000000E+00 0.  1.
</event>
<event>
 5    1  0.3454171E+002  0.1591542E+01  0.7818608E-02  0.3362594E+00
         11   -1    0    0    0    0  0.00000000000E+00  0.00000000000E+00  0.39999999674E+01  0.40000000000E+01  0.51100000000E-03 0.  1.
    9000002   -1    0    0    0    0 -0.00000000000E+00 -0.00000000000E+00  0.00000000000E+00  0.93800000000E+00  0.93800000000E+00 0.  1.
         11    1    1    2    0    0 -0.28361930122E-01 -0.12410931960E-01  0.38508764272E+00  0.38633040782E+00  0.51100000000E-03 0.  1.
    9000002    1    1    2    0    0 -0.19993956430E+00  0.55285307434E+00  0.24855152790E+00  0.11345678531E+01  0.93800000000E+00 0.  1.
         22    1    1    2    0    0  0.22830149442E+00 -0.54044214238E+00  0.33663607967E+01  0.34171017391E+01  0.00000000000E+00 0.  1.
</event>
<event>
 5    1  0.3454171E+002  0.1375997E+01  0.7818608E-02  0.3646136E+00
         11   -1    0    0    0    0  0.00000000000E+00  0.00000000000E+00  0.39999999674E+01  0.40000000000E+01  0.51100000000E-03 0.  1.
    9000002   -1    0    0    0    0 -0.00000000000E+00 -0.00000000000E+00  0.00000000000E+00  0.93800000000E+00  0.93800000000E+00 0.  1.
         11    1    1    2    0    0 -0.90705093984E+00 -0.44371208844E+00  0.24929640017E+01  0.26897010243E+01  0.51100000000E-03 0.  1.
    9000002    1    1    2    0    0  0.95323714029E+00  0.18747964607E+00  0.14505988491E+01  0.19818906843E+01  0.93800000000E+00 0.  1.
         22    1    1    2    0    0 -0.46186200451E-01  0.25623244237E+00  0.56437116488E-01  0.26640829145E+00  0.00000000000E+00 0. -1.
</event>
<event>
 5    1  0.3454171E+002  0.1599675E+01  0.7818608E-02  0.3353716E+00
         11   -1    0    0    0    0  0.00000000000E+00  0.00000000000E+00  0.39999999674E+01  0.40000000000E+01  0.51100000000E-03 0.  1.
    9000002   -1    0    0    0    0 -0.00000000000E+00 -0.00000000000E+00  0.00000000000E+00  0.93800000000E+00  0.93800000000E+00 0.  1.
         11    1    1    2    0    0 -0.15705790844E-01 -0.20982752787E-01  0.32010760050E+00  0.32117920978E+00  0.51100000000E-03 0.  1.
    9000002    1    1    2    0    0  0.18295776214E+00  0.26001726403E+00  0.67551317547E-01  0.99271833912E+00  0.93800000000E+00 0.  1.
         22    1    1    2    0    0 -0.16725197130E+00 -0.23903451124E+00  0.36123410493E+01  0.36241024511E+01  0.00000000000E+00 0.  1.
</event>
<event>
 5    1  0.3454171E+002  0.1599650E+01  0.7818608E-02  0.3353743E+00
         11   -1    0    0    0    0  0.00000000000E+00  0.00000000000E+00  0.39999999674E+01  0.40000000000E+01  0.51100000000E-03 0.  1.
    9000002   -1    0    0    0    0 -0.00000000000E+00 -0.00000000000E+00  0.00000000000E+00  0.93800000000E+00  0.93800000000E+00 0.  1.
         11    1    1    2    0    0 -0.45508844259E-01 -0.36013839603E-01  0.57975773833E+00  0.58265542804E+00  0.51100000000E-03 0.  1.
    9000002    1    1    2    0    0  0.32861811448E+00  0.25906830303E+00  0.11842313612E+00  0.10339121287E+01  0.93800000000E+00 0.  1.
         22    1    1    2    0    0 -0.28310927022E+00 -0.22305446342E+00  0.33018190929E+01  0.33214324432E+01  0.00000000000E+00 0.  1.
</event>
<event>
 5    1  0.3454171E+002  0.1582010E+01  0.7818608E-02  0.3373123E+00
         11   -1    0    0    0    0  0.00000000000E+00  0.00000000000E+00  0.39999999674E+01  0.40000000000E+01  0.51100000000E-03 0.  1.
    9000002   -1    0    0    0    0 -0.00000000000E+00 -0.00000000000E+00  0.00000000000E+00  0.93800000000E+00  0.93800000000E+00 0.  1.
         11    1    1    2    0    0  0.77315545716E-01 -0.57662678983E-01  0.14040090054E+01  0.14073180971E+01  0.51100000000E-03 0.  1.
    9000002    1    1    2    0    0  0.21166009580E+00  0.19379830836E+00  0.68741542621E-01  0.98332455484E+00  0.93800000000E+00 0.  1.
         22    1    1    2    0    0 -0.28897564151E+00 -0.13613562938E+00  0.25272494193E+01  0.25473573480E+01  0.00000000000E+00 0.  1.
</event>
<event>
 5    1  0.3454171E+002  0.1599592E+01  0.7818608E-02  0.3353806E+00
         11   -1    0    0    0    0  0.00000000000E+00  0.00000000000E+00  0.39999999674E+01  0.40000000000E+01  0.51100000000E-03 0. -1.
    9000002   -1    0    0    0    0 -0.00000000000E+00 -0.00000000000E+00  0.00000000000E+00  0.93800000000E+00  0.93800000000E+00 0. -1.
         11    1    1    2    0    0 -0.30964005937E-03  0.32618704531E-01  0.43846365454E+00  0.43967569098E+00  0.51100000000E-03 0. -1.
    9000002    1    1    2    0    0  0.38185573618E-01 -0.24260961397E+00  0.40119868736E-01  0.97044895110E+00  0.93800000000E+00 0. -1.
         22    1    1    2    0    0 -0.37875933558E-01  0.20999090943E+00  0.35214164441E+01  0.35278753579E+01  0.00000000000E+00 0. -1.
</event>
<event>
 5    1  0.3454171E+002  0.1599524E+01  0.7818608E-02  0.3353881E+00
         11   -1    0    0    0    0  0.00000000000E+00  0.00000000000E+00  0.39999999674E+01  0.40000000000E+01  0.51100000000E-03 0. -1.
    9000002   -1    0    0    0    0 -0.00000000000E+00 -0.00000000000E+00  0.00000000000E+00  0.93800000000E+00  0.93800000000E+00 0. -1.
         11    1    1    2    0    0 -0.12598136944E-01  0.97194626814E-02  0.23373594091E+00  0.23427746841E+00  0.51100000000E-03 0. -1.
    9000002    1    1    2    0    0  0.26515236709E+00 -0.57763807444E-01  0.49122127705E-01  0.97770108860E+00  0.93800000000E+00 0. -1.
         22    1    1    2    0    0 -0.25255423014E+00  0.48044344762E-01  0.37171418987E+01  0.37260214430E+01  0.00000000000E+00 0. -1.
</event>
<event>
 5    1  0.3454171E+002  0.1599675E+01  0.7818608E-02  0.3353717E+00
         11   -1    0    0    0    0  0.00000000000E+00  0.00000000000E+00  0.39999999674E+01  0.40000000000E+01  0.51100000000E-03 0. -1.
    9000002   -1    0    0    0    0 -0.00000000000E+00 -0.00000000000E+00  0.00000000000E+00  0.93800000000E+00  0.93800000000E+00 0.  1.
         11    1    1    2    0    0 -0.11887701619E+00 -0.13748137892E+00  0.14441095364E+01  0.14555017997E+01  0.51100000000E-03 0. -1.
    9000002    1    1    2    0    0  0.32043079649E+00  0.36357569271E+00  0.16037266616E+00  0.10679075670E+01  0.93800000000E+00 0.  1.
         22    1    1    2    0    0 -0.20155378030E+00 -0.22609431379E+00  0.23955177648E+01  0.24145906333E+01  0.00000000000E+00 0. -1.
</event>
<event>
 5    1  0.3454171E+002  0.1599666E+01  0.7818608E-02  0.3353726E+00
         11   -1    0    0    0    0  0.00000000000E+00  0.00000000000E+00  0.39999999674E+01  0.40000000000E+01  0.51100000000E-03 0.  1.
    9000002   -1    0    0    0    0 -0.00000000000E+00 -0.00000000000E+00  0.00000000000E+00  0.93800000000E+00  0.93800000000E+00 0.  1.
         11    1    1    2    0    0 -0.79298873933E-01 -0.16843638867E-02  0.92486372913E+00  0.92825876084E+00  0.51100000000E-03 0.  1.
    9000002    1    1    2    0    0  0.32289952787E+00  0.29841767385E-02  0.69725591460E-01  0.99447406629E+00  0.93800000000E+00 0.  1.
         22    1    1    2    0    0 -0.24360065394E+00 -0.12998128518E-02  0.30054106468E+01  0.30152671729E+01  0.00000000000E+00 0.  1.
</event>
<event>
 5    1  0.3454171E+002  0.1599676E+01  0.7818608E-02  0.3353715E+00
         11   -1    0    0    0    0  0.00000000000E+00  0.00000000000E+00  0.39999999674E+01  0.40000000000E+01  0.51100000000E-03 0.  1.
    9000002   -1    0    0    0    0 -0.00000000000E+00 -0.00000000000E+00  0.00000000000E+00  0.93800000000E+00  0.93800000000E+00 0. -1.
         11    1    1    2    0    0 -0.33220717817E-01  0.68710137174E-01  0.93822835250E+00  0.94132746778E+00  0.51100000000E-03 0.  1.
    9000002    1    1    2    0    0  0.14264598824E+00 -0.28567677707E+00  0.68145589099E-01  0.99320034244E+00  0.93800000000E+00 0. -1.
         22    1    1    2    0    0 -0.10942527042E+00  0.21696663990E+00  0.29936260258E+01  0.30034721898E+01  0.00000000000E+00 0.  1.
</event>
<event>
 5    1  0.3454171E+002  0.1587180E+01  0.7818608E-02  0.3367396E+00
         11   -1    0    0    0    0  0.00000000000E+00  0.00000000000E+00  0.39999999674E+01  0.40000000000E+01  0.51100000000E-03 0.  1.
    9000002   -1    0    0    0    0 -0.00000000000E+00 -0.00000000000E+00  0.00000000000E+00  0.93800000000E+00  0.93800000000E+00 0. -1.
         11    1    1    2    0    0  0.22321848255E+00 -0.76556544750E-01  0.12275331570E+01  0.12500101232E+01  0.51100000000E-03 0.  1.
    9000002    1    1    2    0    0 -0.31234307071E+00  0.31095696395E+00  0.14254971044E+00  0.10461437985E+01  0.93800000000E+00 0. -1.
         22    1    1    2    0    0  0.89124588163E-01 -0.23440041920E+00  0.26299170999E+01  0.26418460783E+01  0.00000000000E+00 0.  1.
</event>
<event>
 5    1  0.3454171E+002  0.1581497E+01  0.7818608E-02  0.3373694E+00
         11   -1    0    0    0    0  0.00000000000E+00  0.00000000000E+00  0.39999999674E+01  0.40000000000E+01  0.51100000000E-03 0. -1.
    9000002   -1    0    0    0    0 -0.00000000000E+00 -0.00000000000E+00  0.00000000000E+00  0.93800000000E+00  0.93800000000E+00 0. -1.
         11    1    1    2    0    0  0.71172563486E-01  0.20072299545E+00  0.15368589143E+01  0.15515446621E+01  0.51100000000E-03 0. -1.
    9000002    1    1    2    0    0 -0.29600820517E+00 -0.12423251395E+00  0.83422946498E-01  0.99491605829E+00  0.93800000000E+00 0. -1.
         22    1    1    2    0    0  0.22483564168E+00 -0.76490481496E-01  0.23797181065E+01  0.23915392796E+01  0.00000000000E+00 0.  1.
</event>
<event>
 5    1  0.3454171E+002  0.1598836E+01  0.7818608E-02  0.3354628E+00
         11   -1    0    0    0    0  0.00000000000E+00  0.00000000000E+00  0.39999999674E+01  0.40000000000E+01  0.51100000000E-03 0. -1.
    9000002   -1    0    0    0    0 -0.00000000000E+00 -0.00000000000E+00  0.00000000000E+00  0.93800000000E+00  0.93800000000E+00 0. -1.
         11    1    1    2    0    0 -0.26369682608E-01  0.16827179197E+00  0.13337986665E+01  0.13446300234E+01  0.51100000000E-03 0. -1.
    9000002    1    1    2    0    0 -0.85512510049E-02 -0.52577011338E+00  0.19091115254E+00  0.10921531047E+01  0.93800000000E+00 0. -1.
         22    1    1    2    0    0  0.34920933613E-01  0.35749832140E+00  0.24752901483E+01  0.25012168718E+01  0.00000000000E+00 0.  1.
</event>
<event>
 5    1  0.3454171E+002  0.1598100E+01  0.7818608E-02  0.3355428E+00
         11   -1    0    0    0    0  0.00000000000E+00  0.00000000000E+00  0.39999999674E+01  0.40000000000E+01  0.51100000000E-03 0. -1.
    9000002   -1    0    0    0    0 -0.00000000000E+00 -0.00000000000E+00  0.00000000000E+00  0.93800000000E+00  0.93800000000E+00 0. -1.
         11    1    1    2    0    0  0.20121624090E+00 -0.53087302575E-01  0.21174390112E+01  0.21276405863E+01  0.51100000000E-03 0. -1.
    9000002    1    1    2    0    0 -0.39121983656E+00  0.18119971531E+00  0.12725252965E+00  0.10401555190E+01  0.93800000000E+00 0. -1.
         22    1    1    2    0    0  0.19000359566E+00 -0.12811241273E+00  0.17553084265E+01  0.17702038947E+01  0.00000000000E+00 0. -1.
</event>
<event>
 5    1  0.3454171E+002  0.1599675E+01  0.7818608E-02  0.3353716E+00
         11   -1    0    0    0    0  0.00000000000E+00  0.00000000000E+00  0.39999999674E+01  0.40000000000E+01  0.51100000000E-03 0. -1.
    9000002   -1    0    0    0    0 -0.00000000000E+00 -0.00000000000E+00  0.00000000000E+00  0.93800000000E+00  0.93800000000E+00 0.  1.
         11    1    1    2    0    0  0.29176208716E-01 -0.13788457638E-01  0.41483063523E+00  0.41608423398E+00  0.51100000000E-03 0. -1.
    9000002    1    1    2    0    0 -0.27938197323E+00  0.12298171949E+00  0.62192708058E-01  0.98837782413E+00  0.93800000000E+00 0.  1.
         22    1    1    2    0    0  0.25020576452E+00 -0.10919326185E+00  0.35229766241E+01  0.35335379419E+01  0.00000000000E+00 0. -1.
</event>
<event>
 5    1  0.3454171E+002  0.1599677E+01  0.7818608E-02  0.3353714E+00
         11   -1    0    0    0    0  0.00000000000E+00  0.00000000000E+00  0.39999999674E+01  0.40000000000E+01  0.51100000000E-03 0.  1.
    9000002   -1    0    0    0    0 -0.00000000000E+00 -0.00000000000E+00  0.00000000000E+00  0.93800000000E+00  0.93800000000E+00 0. -1.
         11    1    1    2    0    0  0.54945460280E-03 -0.54948469166E-01  0.74397872099E+00  0.74600551913E+00  0.51100000000E-03 0.  1.
    9000002    1    1    2    0    0 -0.40877665503E-02  0.29343498173E+00  0.57417976507E-01  0.98451085437E+00  0.93800000000E+00 0. -1.
         22    1    1    2    0    0  0.35383119475E-02 -0.23848651256E+00  0.31986032699E+01  0.32074836265E+01  0.00000000000E+00 0.  1.
</event>
<event>
 5    1  0.3454171E+002  0.1546293E+01  0.7818608E-02  0.3413801E+00
         11   -1    0    0    0    0  0.00000000000E+00  0.00000000000E+00  0.39999999674E+01  0.40000000000E+01  0.51100000000E-03 0.  1.
    9000002   -1    0    0    0    0 -0.00000000000E+00 -0.00000000000E+00  0.00000000000E+00  0.93800000000E+00  0.93800000000E+00 0.  1.
         11    1    1    2    0    0  0.28274470647E+00 -0.46919066203E-01  0.13013948134E+01  0.13325819634E+01  0.51100000000E-03 0.  1.
    9000002    1    1    2    0    0 -0.98241903703E-01 -0.91587472765E-01  0.52229998865E-01  0.94900564255E+00  0.93800000000E+00 0.  1.
         22    1    1    2    0    0 -0.18450280277E+00  0.13850653897E+00  0.26463751551E+01  0.26564123940E+01  0.00000000000E+00 0.  1.
</event>
<event>
 5    1  0.3454171E+002  0.1597963E+01  0.7818608E-02  0.3355577E+00
         11   -1    0    0    0    0  0.00000000000E+00  0.00000000000E+00  0.39999999674E+01  0.40000000000E+01  0.51100000000E-03 0.  1.
    9000002   -1    0    0    0    0 -0.00000000000E+00 -0.00000000000E+00  0.00000000000E+00  0.93800000000E+00  0.93800000000E+00 0. -1.
         11    1    1    2    0    0 -0.12441792537E-01 -0.10615152694E-03  0.11626230785E+00  0.11692730570E+00  0.51100000000E-03 0.  1.
    9000002    1    1    2    0    0 -0.10401386833E+00 -0.21875259344E+00  0.40258437930E-01  0.96960627255E+00  0.93800000000E+00 0. -1.
         22    1    1    2    0    0  0.11645566087E+00  0.21885874497E+00  0.38434792216E+01  0.38514664218E+01  0.00000000000E+00 0.  1.
</event>
<event>
 5    1  0.3454171E+002  0.1599674E+01  0.7818608E-02  0.3353717E+00
         11   -1    0    0    0    0  0.00000000000E+00  0.00000000000E+00  0.39999999674E+01  0.40000000000E+01  0.51100000000E-03 0.  1.
    9000002   -1    0    0    0    0 -0.00000000000E+00 -0.00000000000E+00  0.00000000000E+00  0.93800000000E+00  0.93800000000E+00 0.  1.
         11    1    1    2    0    0 -0.24450627636E+00 -0.47817634901E+00  0.25441227287E+01  0.26001916583E+01  0.51100000000E-03 0.  1.
    9000002    1    1    2    0    0  0.34690069517E+00  0.67240532995E+00  0.41584074655E+00  0.12748476562E+01  0.93800000000E+00 0.  1.
         22    1    1    2    0    0 -0.10239441880E+00 -0.19422898094E+00  0.10400364921E+01  0.10629606855E+01  0.00000000000E+00 0. -1.
</event>
<event>
 5    1  0.3454171E+002  0.1599580E+01  0.7818608E-02  0.3353819E+00
         11   -1    0    0    0    0  0.00000000000E+00  0.00000000000E+00  0.39999999674E+01  0.40000000000E+01  0.51100000000E-03 0. -1.
    9000002   -1    0    0    0    0 -0.00000000000E+00 -0.00000000000E+00  0.00000000000E+00  0.93800000000E+00  0.93800000000E+00 0. -1.
         11    1    1    2    0    0  0.68989583420E-01  0.41730353946E-01  0.94931686723E+00  0.95273488473E+00  0.51100000000E-03 0. -1.
    9000002    1    1    2    0    0 -0.31994769365E+00 -0.19319713246E+00  0.93999145994E-01  0.10140865338E+01  0.93800000000E+00 0. -1.
         22    1    1    2    0    0  0.25095811023E+00  0.15146677852E+00  0.29566839541E+01  0.29711785814E+01  0.00000000000E+00 0. -1.
</event>
<event>
 5    1  0.3454171E+002  0.1591981E+01  0.7818608E-02  0.3362113E+00
         11   -1    0    0    0    0  0.00000000000E+00  0.00000000000E+00  0.39999999674E+01  0.40000000000E+01  0.51100000000E-03 0.  1.
    9000002   -1    0    0    0    0 -0.00000000000E+00 -0.00000000000E+00  0.00000000000E+00  0.93800000000E+00  0.93800000000E+00 0.  1.
         11    1    1    2    0    0  0.18972453289E-01  0.96175334854E-03  0.33902014375E+00  0.33955234934E+00  0.51100000000E-03 0.  1.
    9000002    1    1    2    0    0  0.36414978044E+00 -0.36324452682E+00  0.18860115078E+00  0.10862624190E+01  0.93800000000E+00 0.  1.
         22    1    1    2    0    0 -0.38312223373E+00  0.36228277348E+00  0.34723786728E+01  0.35121852317E+01  0.00000000000E+00 0.  1.
</event>
<event>
 5    1  0.3454171E+002  0.1599677E+01  0.7818608E-02  0.3353714E+00
         11   -1    0    0    0    0  0.00000000000E+00  0.00000000000E+00  0.39999999674E+01  0.40000000000E+01  0.51100000000E-03 0.  1.
    9000002   -1    0    0    0    0 -0.00000000000E+00 -0.00000000000E+00  0.00000000000E+00  0.93800000000E+00  0.93800000000E+00 0.  1.
         11    1    1    2    0    0 -0.30345112886E-01  0.14730281950E+00  0.14066375276E+01  0.14146548490E+01  0.51100000000E-03 0.  1.
    9000002    1    1    2    0    0  0.82808869694E-01 -0.40727118179E+00  0.11674691263E+00  0.10325700780E+01  0.93800000000E+00 0.  1.
         22    1    1    2    0    0 -0.52463756808E-01  0.25996836229E+00  0.24766155271E+01  0.24907750730E+01  0.00000000000E+00 0.  1.
</event>
<event>
 5    1  0.3454171E+002  0.1599621E+01  0.7818608E-02  0.3353775E+00
         11   -1    0    0    0    0  0.00000000000E+00  0.00000000000E+00  0.39999999674E+01  0.40000000000E+01  0.51100000000E-03 0. -1.
    9000002   -1    0    0    0    0 -0.00000000000E+00 -0.00000000000E+00  0.00000000000E+00  0.93800000000E+00  0.93800000000E+00 0.  1.
         11    1    1    2    0    0  0.88407390041E-01 -0.10508345423E+00  0.13858602849E+01  0.13926476185E+01  0.51100000000E-03 0. -1.
    9000002    1    1    2    0    0 -0.26396848499E+00  0.27681290599E+00  0.98515666323E-01  0.10177691696E+01  0.93800000000E+00 0.  1.
         22    1    1    2    0    0  0.17556109495E+00 -0.17172945176E+00  0.25156240161E+01  0.25275832119E+01  0.00000000000E+00 0. -1.
</event>
<event>
 5    1  0.3454171E+002  0.1597243E+01  0.7818608E-02  0.3356361E+00
         11   -1    0    0    0    0  0.00000000000E+00  0.00000000000E+00  0.39999999674E+01  0.40000000000E+01  0.51100000000E-03 0.  1.
    9000002   -1    0    0    0    0 -0.00000000000E+00 -0.00000000000E+00  0.00000000000E+00  0.93800000000E+00  0.93800000000E+00 0. -1.
         11    1    1    2    0    0 -0.76574901990E-01  0.91492313350E-01  0.71359189585E+00  0.72349721075E+00  0.51100000000E-03 0.  1.
    9000002    1    1    2    0    0  0.23008703973E+00 -0.32935338002E+00  0.11093195518E+00  0.10264324593E+01  0.93800000000E+00 0. -1.
         22    1    1    2    0    0 -0.15351213774E+00  0.23786106667E+00  0.31754761163E+01  0.31880703300E+01  0.00000000000E+00 0.  1.
</event>
<event>
 5    1  0.3454171E+002  0.1587487E+01  0.7818608E-02  0.3367058E+00
         11   -1    0    0    0    0  0.00000000000E+00  0.00000000000E+00  0.39999999674E+01  0.40000000000E+01  0.51100000000E-03 0.  1.
    9000002   -1    0    0    0    0 -0.00000000000E+00 -0.00000000000E+00  0.00000000000E+00  0.93800000000E+00  0.93800000000E+00 0. -1.
         11    1    1    2    0    0  0.21066610311E-02 -0.10064147035E+00  0.68853206540E+00  0.69585185908E+00  0.51100000000E-03 0.  1.
    9000002    1    1    2    0    0  0.19574096651E+00  0.37760891868E-01  0.35497433913E-01  0.95960641866E+00  0.93800000000E+00 0. -1.
         22    1    1    2    0    0 -0.19784762754E+00  0.62880578481E-01  0.32759704680E+01  0.32825417223E+01  0.00000000000E+00 0.  1.
</event>
<event>
 5    1  0.3454171E+002  0.1599677E+01  0.7818608E-02  0.3353714E+00
         11   -1    0    0    0    0  0.00000000000E+00  0.00000000000E+00  0.39999999674E+01  0.40000000000E+01  0.51100000000E-03 0.  1.
    9000002   -1    0    0    0    0 -0.00000000000E+00 -0.00000000000E+00  0.00000000000E+00  0.93800000000E+00  0.93800000000E+00 0. -1.
         11    1    1    2    0    0  0.38973972437E-01 -0.52088509990E-01  0.79743046448E+00  0.80007986489E+00  0.51100000000E-03 0.  1.
    9000002    1    1    2    0    0 -0.19276838695E+00  0.25512145185E+00  0.68340227822E-01  0.99335844132E+00  0.93800000000E+00 0. -1.
         22    1    1    2    0    0  0.15379441452E+00 -0.20303294186E+00  0.31342292751E+01  0.31445616938E+01  0.00000000000E+00 0.  1.
</event>
<event>
 5    1  0.3454171E+002  0.1599243E+01  0.7818608E-02  0.3354185E+00
         11   -1    0    0    0    0  0.00000000000E+00  0.00000000000E+00  0.39999999674E+01  0.40000000000E+01  0.51100000000E-03 0.  1.
    9000002   -1    0    0    0    0 -0.00000000000E+00 -0.00000000000E+00  0.00000000000E+00  0.93800000000E+00  0.93800000000E+00 0.  1.
         11    1    1    2    0    0 -0.97228337380E-01 -0.51589641225E-01  0.10410671134E+01  0.10468695413E+01  0.51100000000E-03 0.  1.
    9000002    1    1    2    0    0  0.35133800364E+00  0.27362708267E+00  0.13497014793E+00  0.10470774155E+01  0.93800000000E+00 0.  1.
         22    1    1    2    0    0 -0.25410966626E+00 -0.22203744145E+00  0.28239627060E+01  0.28440530432E+01  0.00000000000E+00 0.  1.
</event>
<event>
 5    1  0.3454171E+002  0.1599677E+01  0.7818608E-02  0.3353714E+00
         11   -1    0    0    0    0  0.00000000000E+00  0.00000000000E+00  0.39999999674E+01  0.40000000000E+01  0.51100000000E-03 0. -1.
    9000002   -1    0    0    0    0 -0.00000000000E+00 -0.00000000000E+00  0.00000000000E+00  0.93800000000E+00  0.93800000000E+00 0.  1.
         11    1    1    2    0    0  0.21175765475E+00  0.74197693223E-01  0.11867093630E+01  0.12077358881E+01  0.51100000000E-03 0. -1.
    9000002    1    1    2    0    0 -0.65424028203E+00 -0.22943793030E+00  0.34291111453E+00  0.12157730639E+01  0.93800000000E+00 0.  1.
         22    1    1    2    0    0  0.44248262728E+00  0.15524023708E+00  0.24703794898E+01  0.25144910480E+01  0.00000000000E+00 0. -1.
</event>
<event>
 5    1  0.3454171E+002  0.1559245E+01  0.7818608E-02  0.3398821E+00
         11   -1    0    0    0    0  0.00000000000E+00  0.00000000000E+00  0.39999999674E+01  0.40000000000E+01  0.51100000000E-03 0. -1.
    9000002   -1    0    0    0    0 -0.00000000000E+00 -0.00000000000E+00  0.00000000000E+00  0.93800000000E+00  0.93800000000E+00 0.  1.
         11    1    1    2    0    0 -0.29886798316E-01  0.19695148024E+00  0.14649179665E+01  0.14784004924E+01  0.51100000000E-03 0. -1.
    9000002    1    1    2    0    0 -0.51460553543E-01  0.85086643456E-01  0.36633820147E-01  0.94396714045E+00  0.93800000000E+00 0.  1.
         22    1    1    2    0    0  0.81347351858E-01 -0.28203812370E+00  0.24984481807E+01  0.25156323672E+01  0.00000000000E+00 0.  1.
</event>
<event>
 5    1  0.3454171E+002  0.1527367E+01  0.7818608E-02  0.3436177E+00
         11   -1    0    0    0    0  0.00000000000E+00  0.00000000000E+00  0.39999999674E+01  0.40000000000E+01  0.51100000000E-03 0.  1.
    9000002   -1    0    0    0    0 -0.00000000000E+00 -0.00000000000E+00  0.00000000000E+00  0.93800000000E+00  0.93800000000E+00 0. -1.
         11    1    1    2    0    0 -0.28202544012E-01 -0.23871509695E+00  0.99363330661E+00  0.10222953048E+01  0.51100000000E-03 0.  1.
    9000002    1    1    2    0    0 -0.18825601935E+00 -0.12950535907E+00  0.91552935024E-01  0.96976177836E+00  0.93800000000E+00 0. -1.
         22    1    1    2    0    0  0.21645856336E+00  0.36822045602E+00  0.29148137257E+01  0.29459429169E+01  0.00000000000E+00 0.  1.
</event>
<event>
 5    1  0.3454171E+002  0.1598448E+01  0.7818608E-02  0.3355050E+00
         11   -1    0    0    0    0  0.00000000000E+00  0.00000000000E+00  0.39999999674E+01  0.40000000000E+01  0.51100000000E-03 0.  1.
    9000002   -1    0    0    0    0 -0.00000000000E+00 -0.00000000000E+00  0.00000000000E+00  0.93800000000E+00  0.93800000000E+00 0. -1.
         11    1    1    2    0    0  0.49004313536E-01  0.30345233420E-01  0.50768189217E+00  0.51094365706E+00  0.51100000000E-03 0.  1.
    9000002    1    1    2    0    0 -0.16210715210E+00 -0.21530188939E+00  0.49273161509E-01  0.97719265080E+00  0.93800000000E+00 0. -1.
         22    1    1    2    0    0  0.11310283857E+00  0.18495665596E+00  0.34430449137E+01  0.34498636921E+01  0.00000000000E+00 0.  1.
</event>
<event>
 5    1  0.3454171E+002  0.1591871E+01  0.7818608E-02  0.3362234E+00
         11   -1    0    0    0    0  0.00000000000E+00  0.00000000000E+00  0.39999999674E+01  0.40000000000E+01  0.51100000000E-03 0.  1.
    9000002   -1    0    0    0    0 -0.00000000000E+00 -0.00000000000E+00  0.00000000000E+00  0.93800000000E+00  0.93800000000E+00 0. -1.
         11    1    1    2    0    0 -0.15402545676E-01  0.11427639358E+00  0.12162918609E+01  0.12217456710E+01  0.51100000000E-03 0.  1.
    9000002    1    1    2    0    0  0.21905435562E+00 -0.10093875166E+00  0.44585100198E-01  0.96953869106E+00  0.93800000000E+00 0. -1.
         22    1    1    2    0    0 -0.20365180995E+00 -0.13337641916E-01  0.27391230062E+01  0.27467156379E+01  0.00000000000E+00 0.  1.
</event>
<event>
 5    1  0.3454171E+002  0.1599674E+01  0.7818608E-02  0.3353717E+00
         11   -1    0    0    0    0  0.00000000000E+00  0.00000000000E+00  0.39999999674E+01  0.40000000000E+01  0.51100000000E-03 0.  1.
    9000002   -1    0    0    0    0 -0.00000000000E+00 -0.00000000000E+00  0.00000000000E+00  0.93800000000E+00  0.93800000000E+00 0. -1.
         11    1    1    2    0    0 -0.36697845153E+00  0.28001121165E-01  0.23263239786E+01  0.23552581093E+01  0.51100000000E-03 0.  1.
    9000002    1    1    2    0    0  0.59197172622E+00 -0.48385510457E-01  0.24581514627E+00  0.11371195049E+01  0.93800000000E+00 0. -1.
         22    1    1    2    0    0 -0.22499327469E+00  0.20384389292E-01  0.14278608425E+01  0.14456223859E+01  0.00000000000E+00 0.  1.
</event>
<event>
 5    1  0.3454171E+002  0.1597249E+01  0.7818608E-02  0.3356354E+00
         11   -1    0    0    0    0  0.00000000000E+00  0.00000000000E+00  0.39999999674E+01  0.40000000000E+01  0.51100000000E-03 0.  1.
    9000002   -1    0    0    0    0 -0.00000000000E+00 -0.00000000000E+00  0.00000000000E+00  0.93800000000E+00  0.93800000000E+00 0. -1.
         11    1    1    2    0    0  0.10780370682E+00  0.17804241494E-01  0.14288155175E+01  0.14329873253E+01  0.51100000000E-03 0.  1.
    9000002    1    1    2    0    0 -0.21826614404E+00 -0.18501020023E+00  0.56436168868E-01  0.98229217903E+00  0.93800000000E+00 0. -1.
         22    1    1    2    0    0  0.11046243722E+00  0.16720595874E+00  0.25147482810E+01  0.25227204957E+01  0.00000000000E+00 0.  1.
</event>
<event>
 5    1  0.3454171E+002  0.1599598E+01  0.7818608E-02  0.3353800E+00
         11   -1    0    0    0    0  0.00000000000E+00  0.00000000000E+00  0.39999999674E+01  0.40000000000E+01  0.51100000000E-03 0.  1.
    9000002   -1    0    0    0    0 -0.00000000000E+00 -0.00000000000E+00  0.00000000000E+00  0.93800000000E+00  0.93800000000E+00 0. -1.
         11    1    1    2    0    0 -0.68758131569E-01  0.71678491163E-01  0.43257967816E+00  0.44383659812E+00  0.51100000000E-03 0.  1.
    9000002    1    1    2    0    0  0.59610236083E+00 -0.60723467091E+00  0.54335828410E+00  0.13780980353E+01  0.93800000000E+00 0. -1.
         22    1    1    2    0    0 -0.52734422926E+00  0.53555617974E+00  0.30240620051E+01  0.31160653665E+01  0.00000000000E+00 0.  1.
</event>
<event>
 5    1  0.3454171E+002  0.1599410E+01  0.7818608E-02  0.3354004E+00
         11   -1    0    0    0    0  0.00000000000E+00  0.00000000000E+00  0.39999999674E+01  0.40000000000E+01  0.51100000000E-03 0. -1.
    9000002   -1    0    0    0    0 -0.00000000000E+00 -0.00000000000E+00  0.00000000000E+00  0.93800000000E+00  0.93800000000E+00 0.  1.
         11    1    1    2    0    0 -0.85071114212E-01 -0.87829893552E-04  0.77231959754E+00  0.77699094207E+00  0.51100000000E-03 0. -1.
    9000002    1    1    2    0    0  0.35179280606E+00  0.38883207221E-02  0.83223248370E-01  0.10052578806E+01  0.93800000000E+00 0.  1.
         22    1    1    2    0    0 -0.26672169184E+00 -0.38004908285E-02  0.31444571214E+01  0.31557511773E+01  0.00000000000E+00 0. -1.
</event>
<event>
 5    1  0.3454171E+002  0.1598499E+01  0.7818608E-02  0.3354994E+00
         11   -1    0    0    0    0  0.00000000000E+00  0.00000000000E+00  0.39999999674E+01  0.40000000000E+01  0.51100000000E-03 0.  1.
    9000002   -1    0    0    0    0 -0.00000000000E+00 -0.00000000000E+00  0.00000000000E+00  0.93800000000E+00  0.93800000000E+00 0.  1.
         11    1    1    2    0    0 -0.74339814072E-01 -0.32199510216E-01  0.97834370396E+00  0.98169235538E+00  0.51100000000E-03 0.  1.
    9000002    1    1    2    0    0  0.18647446685E+00  0.21848463634E+00  0.55894930995E-01  0.98258664067E+00  0.93800000000E+00 0.  1.
         22    1    1    2    0    0 -0.11213465278E+00 -0.18628512612E+00  0.29657613324E+01  0.29737210040E+01  0.00000000000E+00 0.  1.
</event>
<event>
 5    1  0.3454171E+002  0.1599230E+01  0.7818608E-02  0.3354200E+00
         11   -1    0    0    0    0  0.00000000000E+00  0.00000000000E+00  0.39999999674E+01  0.40000000000E+01  0.51100000000E-03 0.  1.
    9000002   -1    0    0    0    0 -0.00000000000E+00 -0.00000000000E+00  0.00000000000E+00  0.93800000000E+00  0.93800000000E+00 0.  1.
         11    1    1    2    0    0  0.83849302531E-01 -0.11000993580E-01  0.83141910535E+00  0.83570911043E+00  0.51100000000E-03 0.  1.
    9000002    1    1    2    0    0 -0.39567842566E+00  0.14870123996E+00  0.12126051348E+00  0.10359640860E+01  0.93800000000E+00 0.  1.
         22    1    1    2    0    0  0.31182912313E+00 -0.13770024638E+00  0.30473203485E+01  0.30663268036E+01  0.00000000000E+00 0.  1.
</event>
<event>
 5    1  0.3454171E+002  0.1560073E+01  0.7818608E-02  0.3397872E+00
         11   -1    0    0    0    0  0.00000000000E+00  0.00000000000E+00  0.39999999674E+01  0.40000000000E+01  0.51100000000E-03 0.  1.
    9000002   -1    0    0    0    0 -0.00000000000E+00 -0.00000000000E+00  0.00000000000E+00  0.93800000000E+00  0.93800000000E+00 0.  1.
         11    1    1    2    0    0 -0.65560854253E-01 -0.18287499936E+00  0.13611112632E+01  0.13749056778E+01  0.51100000000E-03 0.  1.
    9000002    1    1    2    0    0  0.10209332496E-02 -0.10193450451E+00  0.36350475115E-01  0.94422298349E+00  0.93800000000E+00 0.  1.
         22    1    1    2    0    0  0.64539921003E-01  0.28480950387E+00  0.26025382290E+01  0.26188713387E+01  0.00000000000E+00 0.  1.
</event>
<event>
 5    1  0.3454171E+002  0.1599675E+01  0.7818608E-02  0.3353716E+00
         11   -1    0    0    0    0  0.00000000000E+00  0.00000000000E+00  0.39999999674E+01  0.40000000000E+01  0.51100000000E-03 0.  1.
    9000002   -1    0    0    0    0 -0.00000000000E+00 -0.00000000000E+00  0.00000000000E+00  0.93800000000E+00  0.93800000000E+00 0.  1.
         11    1    1    2    0    0 -0.13417712084E+00  0.11331671717E+00  0.98970765070E+00  0.10051694748E+01  0.51100000000E-03 0.  1.
    9000002    1    1    2    0    0  0.50106746658E+00 -0.42806330437E+00  0.30714079368E+00  0.11867966404E+01  0.93800000000E+00 0.  1.
         22    1    1    2    0    0 -0.36689034574E+00  0.31474658719E+00  0.27031515230E+01  0.27460338847E+01  0.00000000000E+00 0.  1.
</event>
<event>
 5    1  0.3454171E+002  0.1588078E+01  0.7818608E-02  0.3366406E+00
         11   -1    0    0    0    0  0.00000000000E+00  0.00000000000E+00  0.39999999674E+01  0.40000000000E+01  0.51100000000E-03 0.  1.
    9000002   -1    0    0    0    0 -0.00000000000E+00 -0.00000000000E+00  0.00000000000E+00  0.93800000000E+00  0.93800000000E+00 0.  1.
         11    1    1    2    0    0 -0.10110741115E+00 -0.98972361561E-01  0.27441061775E+01  0.27477513009E+01  0.51100000000E-03 0.  1.
    9000002    1    1    2    0    0  0.30838769072E+00  0.18234389491E+00  0.95588647982E-01  0.10086294926E+01  0.93800000000E+00 0.  1.
         22    1    1    2    0    0 -0.20728027957E+00 -0.83371533351E-01  0.11603051419E+01  0.11816192065E+01  0.00000000000E+00 0. -1.
</event>
<event>
 5    1  0.3454171E+002  0.1599147E+01  0.7818608E-02  0.3354290E+00
         11   -1    0    0    0    0  0.00000000000E+00  0.00000000000E+00  0.39999999674E+01  0.40000000000E+01  0.51100000000E-03 0.  1.
    9000002   -1    0    0    0    0 -0.00000000000E+00 -0.00000000000E+00  0.00000000000E+00  0.93800000000E+00  0.93800000000E+00 0. -1.
         11    1    1    2    0    0 -0.29563557599E+00  0.39804863843E+00  0.25116179922E+01  0.25600914656E+01  0.51100000000E-03 0.  1.
    9000002    1    1    2    0    0  0.45221103195E+00 -0.54822778286E+00  0.36259775344E+00  0.12314096191E+01  0.93800000000E+00 0. -1.
         22    1    1    2    0    0 -0.15657545595E+00  0.15017914443E+00  0.11257842217E+01  0.11464989153E+01  0.00000000000E+00 0.  1.
</event>
<event>
 5    1  0.3454171E+002  0.1597282E+01  0.7818608E-02  0.3356319E+00
         11   -1    0    0    0    0  0.00000000000E+00  0.00000000000E+00  0.39999999674E+01  0.40000000000E+01  0.51100000000E-03 0.  1.
    9000002   -1    0    0    0    0 -0.00000000000E+00 -0.00000000000E+00  0.00000000000E+00  0.93800000000E+00  0.93800000000E+00 0.  1.
         11    1    1    2    0    0  0.66204624243E-02 -0.25060866185E-03  0.38004674290E+00  0.38010482927E+00  0.51100000000E-03 0.  1.
    9000002    1    1    2    0    0  0.21439739143E+00 -0.22067834634E+00  0.65082889222E-01  0.98931539787E+00  0.93800000000E+00 0.  1.
         22    1    1    2    0    0 -0.22101785386E+00  0.22092895500E+00  0.35548703352E+01  0.35685797729E+01  0.00000000000E+00 0.  1.
</event>
<event>
 5    1  0.3454171E+002  0.1599666E+01  0.7818608E-02  0.3353726E+00
         11   -1    0    0    0    0  0.00000000000E+00  0.00000000000E+00  0.39999999674E+01  0.40000000000E+01  0.51100000000E-03 0. -1.
    9000002   -1    0    0    0    0 -0.00000000000E+00 -0.00000000000E+00  0.00000000000E+00  0.93800000000E+00  0.93800000000E+00 0.  1.
         11    1    1    2    0    0 -0.51406079993E-01  0.25272047792E+00  0.15728268828E+01  0.15938302574E+01  0.51100000000E-03 0. -1.
    9000002    1    1    2    0    0  0.13161083131E+00 -0.60039253595E+00  0.26443766236E+00  0.11521995858E+01  0.93800000000E+00 0.  1.
         22    1    1    2    0    0 -0.80204751316E-01  0.34767205803E+00  0.21627354222E+01  0.21919701568E+01  0.00000000000E+00 0. -1.
</event>
<event>
 5    1  0.3454171E+002  0.1599676E+01  0.7818608E-02  0.3353715E+00
         11   -1    0    0    0    0  0.00000000000E+00  0.00000000000E+00  0.39999999674E+01  0.40000000000E+01  0.51100000000E-03 0. -1.
    9000002   -1    0    0    0    0 -0.00000000000E+00 -0.00000000000E+00  0.00000000000E+00  0.93800000000E+00  0.93800000000E+00 0. -1.
         11    1    1    2    0    0  0.77545794306E-01  0.14743623056E+00  0.16269870692E+01  0.16354931907E+01  0.51100000000E-03 0. -1.
    9000002    1    1    2    0    0 -0.18747008833E+00 -0.35039015708E+00  0.10648446525E+00  0.10242564315E+01  0.93800000000E+00 0. -1.
         22    1    1    2    0    0  0.10992429402E+00  0.20295392652E+00  0.22665284329E+01  0.22782503778E+01  0.00000000000E+00 0. -1.
</event>
<event>
 5    1  0.3454171E+002  0.1599677E+01  0.7818608E-02  0.3353714E+00
         11   -1    0    0    0    0  0.00000000000E+00  0.00000000000E+00  0.39999999674E+01  0.40000000000E+01  0.51100000000E-03 0.  1.
    9000002   -1    0    0    0    0 -0.00000000000E+00 -0.00000000000E+00  0.00000000000E+00  0.93800000000E+00  0.93800000000E+00 0. -1.
         11    1    1    2    0    0 -0.31148049003E+00 -0.33203448791E+00  0.25096042395E+01  0.25505647800E+01  0.51100000000E-03 0.  1.
    9000002    1    1    2    0    0  0.45713069501E+00  0.48788776333E+00  0.31686713710E+00  0.11946764100E+01  0.93800000000E+00 0. -1.
         22    1    1    2    0    0 -0.14565020498E+00 -0.15585327542E+00  0.11735285908E+01  0.11927588101E+01  0.00000000000E+00 0.  1.
</event>
<event>
 5    1  0.3454171E+002  0.1599674E+01  0.7818608E-02  0.3353717E+00
         11   -1    0    0    0    0  0.00000000000E+00  0.00000000000E+00  0.39999999674E+01  0.40000000000E+01  0.51100000000E-03 0.  1.
    9000002   -1    0    0    0    0 -0.00000000000E+00 -0.00000000000E+00  0.00000000000E+00  0.93800000000E+00  0.93800000000E+00 0. -1.
         11    1    1    2    0    0 -0.11334440648E+00  0.22495439529E-01  0.14278718708E+01  0.14325401705E+01  0.51100000000E-03 0.  1.
    9000002    1    1    2    0    0  0.31759206229E+00 -0.61267160738E-01  0.69953684088E-01  0.99466371248E+00  0.93800000000E+00 0. -1.
         22    1    1    2    0    0 -0.20424765581E+00  0.38771721209E-01  0.25021744124E+01  0.25107961171E+01  0.00000000000E+00 0.  1.
</event>
<event>
 5    1  0.3454171E+002  0.1597545E+01  0.7818608E-02  0.3356032E+00
         11   -1    0    0    0    0  0.00000000000E+00  0.00000000000E+00  0.39999999674E+01  0.40000000000E+01  0.51100000000E-03 0. -1.
    9000002   -1    0    0    0    0 -0.00000000000E+00 -0.00000000000E+00  0.00000000000E+00  0.93800000000E+00  0.93800000000E+00 0. -1.
         11    1    1    2    0    0 -0.53458651044E-02 -0.31059671934E-01  0.71621094445E+00  0.71690421924E+00  0.51100000000E-03 0. -1.
    9000002    1    1    2    0    0  0.24921565081E+00  0.84516084505E-01  0.47691299693E-01  0.97538190942E+00  0.93800000000E+00 0. -1.
         22    1    1    2    0    0 -0.24386978570E+00 -0.53456412571E-01  0.32360977232E+01  0.32457138713E+01  0.00000000000E+00 0. -1.
</event>
<event>
 5    1  0.3454171E+002  0.1599475E+01  0.7818608E-02  0.3353933E+00
         11   -1    0    0    0    0  0.00000000000E+00  0.00000000000E+00  0.39999999674E+01  0.40000000000E+01  0.51100000000E-03 0.  1.
    9000002   -1    0    0    0    0 -0.00000000000E+00 -0.00000000000E+00  0.00000000000E+00  0.93800000000E+00  0.93800000000E+00 0.  1.
         11    1    1    2    0    0  0.38981162675E-01  0.43225573416E-01  0.59856959571E+00  0.60139321851E+00  0.51100000000E-03 0.  1.
    9000002    1    1    2    0    0 -0.33075362507E+00 -0.26237421969E+00  0.12074965745E+00  0.10356942944E+01  0.93800000000E+00 0.  1.
         22    1    1    2    0    0  0.29177246239E+00  0.21914864627E+00  0.32806807142E+01  0.33009124871E+01  0.00000000000E+00 0.  1.
</event>
<event>
 5    1  0.3454171E+002  0.1591349E+01  0.7818608E-02  0.3362806E+00
         11   -1    0    0    0    0  0.00000000000E+00  0.00000000000E+00  0.39999999674E+01  0.40000000000E+01  0.51100000000E-03 0. -1.
    9000002   -1    0    0    0    0 -0.00000000000E+00 -0.00000000000E+00  0.00000000000E+00  0.93800000000E+00  0.93800000000E+00 0.  1.
         11    1    1    2    0    0  0.34894622111E-01 -0.26398621193E+00  0.17919453719E+01  0.18116221548E+01  0.51100000000E-03 0. -1.
    9000002    1    1    2    0    0 -0.28564852399E+00  0.46406432991E+00  0.21277137127E+00  0.11054711385E+01  0.93800000000E+00 0.  1.
         22    1    1    2    0    0  0.25075390188E+00 -0.20007811798E+00  0.19952832242E+01  0.20209067067E+01  0.00000000000E+00 0.  1.
</event>
<event>
 5    1  0.3454171E+002  0.1599673E+01  0.7818608E-02  0.3353718E+00
         11   -1    0    0    0    0  0.00000000000E+00  0.00000000000E+00  0.39999999674E+01  0.40000000000E+01  0.51100000000E-03 0. -1.
    9000002   -1    0    0    0    0 -0.00000000000E+00 -0.00000000000E+00  0.00000000000E+00  0.93800000000E+00  0.93800000000E+00 0.  1.
         11    1    1    2    0    0  0.97475920397E-01 -0.30116730053E-01  0.11937831241E+01  0.11981347925E+01  0.51100000000E-03 0. -1.
    9000002    1    1    2    0    0 -0.32359103142E+00  0.10540733405E+00  0.77581408259E-01  0.10008420138E+01  0.93800000000E+00 0.  1.
         22    1    1    2    0    0  0.22611511102E+00 -0.75290603994E-01  0.27286354350E+01  0.27390231937E+01  0.00000000000E+00 0. -1.
</event>
<event>
 5    1  0.3454171E+002  0.1599671E+01  0.7818608E-02  0.3353720E+00
         11   -1    0    0    0    0  0.00000000000E+00  0.00000000000E+00  0.39999999674E+01  0.40000000000E+01  0.51100000000E-03 0. -1.
    9000002   -1    0    0    0    0 -0.00000000000E+00 -0.00000000000E+00  0.00000000000E+00  0.93800000000E+00  0.93800000000E+00 0.  1.
         11    1    1    2    0    0 -0.16979356218E+00 -0.29203524232E-01  0.12921907426E+01  0.13036256655E+01  0.51100000000E-03 0. -1.
    9000002    1    1    2    0    0  0.50822771157E+00  0.81269317182E-01  0.18180036149E+00  0.10852628622E+01  0.93800000000E+00 0.  1.
         22    1    1    2    0    0 -0.33843414938E+00 -0.52065792949E-01  0.25260088633E+01  0.25491114722E+01  0.00000000000E+00 0. -1.
</event>
<event>
 5    1  0.3454171E+002  0.1497931E+01  0.7818608E-02  0.3472185E+00
         11   -1    0    0    0    0  0.00000000000E+00  0.00000000000E+00  0.39999999674E+01  0.40000000000E+01  0.51100000000E-03 0.  1.
    9000002   -1    0    0    0    0 -0.00000000000E+00 -0.00000000000E+00  0.00000000000E+00  0.93800000000E+00  0.93800000000E+00 0. -1.
         11    1    1    2    0    0 -0.67902333455E-01 -0.33020067725E+00  0.10763799031E+01  0.11279349144E+01  0.51100000000E-03 0.  1.
    9000002    1    1    2    0    0  0.42725867088E-01 -0.33360714789E-01  0.79754163968E-01  0.94294388151E+00  0.93800000000E+00 0. -1.
         22    1    1    2    0    0  0.25176466368E-01  0.36356139204E+00  0.28438659003E+01  0.28671212041E+01  0.00000000000E+00 0.  1.
</event>
<event>
 5    1  0.3454171E+002  0.1597219E+01  0.7818608E-02  0.3356388E+00
         11   -1    0    0    0    0  0.00000000000E+00  0.00000000000E+00  0.39999999674E+01  0.40000000000E+01  0.51100000000E-03 0.  1.
    9000002   -1    0    0    0    0 -0.00000000000E+00 -0.00000000000E+00  0.00000000000E+00  0.93800000000E+00  0.93800000000E+00 0.  1.
         11    1    1    2    0    0  0.86261766897E-02  0.16103433883E-01  0.12338706305E+01  0.12340059665E+01  0.51100000000E-03 0.  1.
    9000002    1    1    2    0    0 -0.20329354101E+00 -0.79366532130E-01  0.33423474133E-01  0.96363293782E+00  0.93800000000E+00 0.  1.
         22    1    1    2    0    0  0.19466736432E+00  0.63263098248E-01  0.27327058628E+01  0.27403610957E+01  0.00000000000E+00 0. -1.
</event>
<event>
 5    1  0.3454171E+002  0.1553975E+01  0.7818608E-02  0.3404884E+00
         11   -1    0    0    0    0  0.00000000000E+00  0.00000000000E+00  0.39999999674E+01  0.40000000000E+01  0.51100000000E-03 0.  1.
    9000002   -1    0    0    0    0 -0.00000000000E+00 -0.00000000000E+00  0.00000000000E+00  0.93800000000E+00  0.93800000000E+00 0.  1.
         11    1    1    2    0    0  0.71832938141E-01  0.18185157585E+00  0.23665890451E+01  0.23746523822E+01  0.51100000000E-03 0.  1.
    9000002    1    1    2    0    0 -0.17181671982E+00  0.11402625994E+00  0.63307439797E-01  0.96248366485E+00  0.93800000000E+00 0.  1.
         22    1    1    2    0    0  0.99983781677E-01 -0.29587783579E+00  0.15701034825E+01  0.16008639530E+01  0.00000000000E+00 0.  1.
</event>
<event>
 5    1  0.3454171E+002  0.1589982E+01  0.7818608E-02  0.3364309E+00
         11   -1    0    0    0    0  0.00000000000E+00  0.00000000000E+00  0.39999999674E+01  0.40000000000E+01  0.51100000000E-03 0. -1.
    9000002   -1    0    0    0    0 -0.00000000000E+00 -0.00000000000E+00  0.00000000000E+00  0.93800000000E+00  0.93800000000E+00 0. -1.
         11    1    1    2    0    0  0.61545953684E-01 -0.24096864056E+00  0.27677861824E+01  0.27789376392E+01  0.51100000000E-03 0. -1.
    9000002    1    1    2    0    0  0.90413073346E-02  0.45110705501E+00  0.14672174637E+00  0.10511663004E+01  0.93800000000E+00 0.  1.
         22    1    1    2    0    0 -0.70587261019E-01 -0.21013841444E+00  0.10854920386E+01  0.11078960604E+01  0.00000000000E+00 0.  1.
</event>
<event>
 5    1  0.3454171E+002  0.1596397E+01  0.7818608E-02  0.3357284E+00
         11   -1    0    0    0    0  0.00000000000E+00  0.00000000000E+00  0.39999999674E+01  0.40000000000E+01  0.51100000000E-03 0. -1.
    9000002   -1    0    0    0    0 -0.00000000000E+00 -0.00000000000E+00  0.00000000000E+00  0.93800000000E+00  0.93800000000E+00 0.  1.
         11    1    1    2    0    0 -0.13857525867E+00  0.22069324587E+00  0.20007235796E+01  0.20176232835E+01  0.51100000000E-03 0. -1.
    9000002    1    1    2    0    0  0.34724302680E+00 -0.31942718128E+00  0.15458521572E+00  0.10612973347E+01  0.93800000000E+00 0.  1.
         22    1    1    2    0    0 -0.20866776813E+00  0.98733935404E-01  0.18446911720E+01  0.18590793817E+01  0.00000000000E+00 0. -1.
</event>
<event>
 5    1  0.3454171E+002  0.1599346E+01  0.7818608E-02  0.3354074E+00
         11   -1    0    0    0    0  0.00000000000E+00  0.00000000000E+00  0.39999999674E+01  0.40000000000E+01  0.51100000000E-03 0. -1.
    9000002   -1    0    0    0    0 -0.00000000000E+00 -0.00000000000E+00  0.00000000000E+00  0.93800000000E+00  0.93800000000E+00 0. -1.
         11    1    1    2    0    0 -0.10874777610E-01  0.76497863052E-02  0.45406441250E+00  0.45425932223E+00  0.51100000000E-03 0. -1.
    9000002    1    1    2    0    0  0.12451506244E+00 -0.18508836410E+00  0.33242454827E-01  0.96473351974E+00  0.93800000000E+00 0. -1.
         22    1    1    2    0    0 -0.11364028483E+00  0.17743857779E+00  0.35126931000E+01  0.35190071580E+01  0.00000000000E+00 0. -1.
</event>
<event>
 5    1  0.3454171E+002  0.1599663E+01  0.7818608E-02  0.3353730E+00
         11   -1    0    0    0    0  0.00000000000E+00  0.00000000000E+00  0.39999999674E+01  0.40000000000E+01  0.51100000000E-03 0.  1.
    9000002   -1    0    0    0    0 -0.00000000000E+00 -0.00000000000E+00  0.00000000000E+00  0.93800000000E+00  0.93800000000E+00 0.  1.
         11    1    1    2    0    0 -0.38685760542E-01  0.26854380158E-01  0.28155772766E+00  0.28546936951E+00  0.51100000000E-03 0.  1.
    9000002    1    1    2    0    0  0.48443805959E+00 -0.36802802895E+00  0.25871753995E+00  0.11475642157E+01  0.93800000000E+00 0.  1.
         22    1    1    2    0    0 -0.44575229905E+00  0.34117364880E+00  0.34597246997E+01  0.35049664148E+01  0.00000000000E+00 0.  1.
</event>
<event>
 5    1  0.3454171E+002  0.1599676E+01  0.7818608E-02  0.3353715E+00
         11   -1    0    0    0    0  0.00000000000E+00  0.00000000000E+00  0.39999999674E+01  0.40000000000E+01  0.51100000000E-03 0. -1.
    9000002   -1    0    0    0    0 -0.00000000000E+00 -0.00000000000E+00  0.00000000000E+00  0.93800000000E+00  0.93800000000E+00 0.  1.
         11    1    1    2    0    0  0.43881855257E-01  0.16092858525E+00  0.94031124456E+00  0.95499168820E+00  0.51100000000E-03 0. -1.
    9000002    1    1    2    0    0 -0.16823040970E+00 -0.63149139347E+00  0.30162721037E+00  0.11823306749E+01  0.93800000000E+00 0.  1.
         22    1    1    2    0    0  0.12434855444E+00  0.47056280822E+00  0.27580615124E+01  0.28006776369E+01  0.00000000000E+00 0. -1.
</event>
<event>
 5    1  0.3454171E+002  0.1577922E+01  0.7818608E-02  0.3377680E+00
         11   -1    0    0    0    0  0.00000000000E+00  0.00000000000E+00  0.39999999674E+01  0.40000000000E+01  0.51100000000E-03 0. -1.
    9000002   -1    0    0    0    0 -0.00000000000E+00 -0.00000000000E+00  0.00000000000E+00  0.93800000000E+00  0.93800000000E+00 0. -1.
         11    1    1    2    0    0 -0.75837914574E-01 -0.15860520311E+00  0.49797565111E+00  0.52809753830E+00  0.51100000000E-03 0. -1.
    9000002    1    1    2    0    0  0.38879816938E+00  0.30094384073E+00  0.18496788738E+00  0.10750759653E+01  0.93800000000E+00 0. -1.
         22    1    1    2    0    0 -0.31296025480E+00 -0.14233863762E+00  0.33170564289E+01  0.33348264964E+01  0.00000000000E+00 0. -1.
</event>
<event>
 5    1  0.3454171E+002  0.1587445E+01  0.7818608E-02  0.3367104E+00
         11   -1    0    0    0    0  0.00000000000E+00  0.00000000000E+00  0.39999999674E+01  0.40000000000E+01  0.51100000000E-03 0.  1.
    9000002   -1    0    0    0    0 -0.00000000000E+00 -0.00000000000E+00  0.00000000000E+00  0.93800000000E+00  0.93800000000E+00 0.  1.
         11    1    1    2    0    0  0.24651882605E+00 -0.46071887193E+00  0.22209635886E+01  0.22816031499E+01  0.51100000000E-03 0.  1.
    9000002    1    1    2    0    0 -0.51951930837E+00  0.57308700571E+00  0.45229452332E+00  0.12972059835E+01  0.93800000000E+00 0.  1.
         22    1    1    2    0    0  0.27300048232E+00 -0.11236813378E+00  0.13267418554E+01  0.13591908666E+01  0.00000000000E+00 0.  1.
</event>
<event>
 5    1  0.3454171E+002  0.1598894E+01  0.7818608E-02  0.3354565E+00
         11   -1    0    0    0    0  0.00000000000E+00  0.00000000000E+00  0.39999999674E+01  0.40000000000E+01  0.51100000000E-03 0. -1.
    9000002   -1    0    0    0    0 -0.00000000000E+00 -0.00000000000E+00  0.00000000000E+00  0.93800000000E+00  0.93800000000E+00 0. -1.
         11    1    1    2    0    0 -0.14221471037E+00  0.31937242194E-01  0.10327340893E+01  0.10429693052E+01  0.51100000000E-03 0. -1.
    9000002    1    1    2    0    0  0.42438062735E+00 -0.91195395601E-01  0.12834300025E+00  0.10415044132E+01  0.93800000000E+00 0. -1.
         22    1    1    2    0    0 -0.28216591698E+00  0.59258153407E-01  0.28389228778E+01  0.28535262816E+01  0.00000000000E+00 0. -1.
</event>
<event>
 5    1  0.3454171E+002  0.1599467E+01  0.7818608E-02  0.3353942E+00
         11   -1    0    0    0    0  0.00000000000E+00  0.00000000000E+00  0.39999999674E+01  0.40000000000E+01  0.51100000000E-03 0.  1.
    9000002   -1    0    0    0    0 -0.00000000000E+00 -0.00000000000E+00  0.00000000000E+00  0.93800000000E+00  0.93800000000E+00 0. -1.
         11    1    1    2    0    0  0.53536759623E-01  0.23297232086E-01  0.10072630087E+01  0.10089539015E+01  0.51100000000E-03 0.  1.
    9000002    1    1    2    0    0 -0.26252810467E+00 -0.63151475248E-01  0.48671945730E-01  0.97730347020E+00  0.93800000000E+00 0. -1.
         22    1    1    2    0    0  0.20899134505E+00  0.39854243162E-01  0.29440650129E+01  0.29517426282E+01  0.00000000000E+00 0.  1.
</event>
<event>
 5    1  0.3454171E+002  0.1580580E+01  0.7818608E-02  0.3374714E+00
         11   -1    0    0    0    0  0.00000000000E+00  0.00000000000E+00  0.39999999674E+01  0.40000000000E+01  0.51100000000E-03 0. -1.
    9000002   -1    0    0    0    0 -0.00000000000E+00 -0.00000000000E+00  0.00000000000E+00  0.93800000000E+00  0.93800000000E+00 0.  1.
         11    1    1    2    0    0 -0.12279690652E+00  0.12422294444E+00  0.13985055199E+01  0.14093716226E+01  0.51100000000E-03 0. -1.
    9000002    1    1    2    0    0  0.33096321838E+00  0.98178377887E-01  0.95360293928E-01  0.10040484209E+01  0.93800000000E+00 0.  1.
         22    1    1    2    0    0 -0.20816631186E+00 -0.22240132233E+00  0.25061341535E+01  0.25245799566E+01  0.00000000000E+00 0.  1.
</event>
<event>
 5    1  0.3454171E+002  0.1599677E+01  0.7818608E-02  0.3353714E+00
         11   -1    0    0    0    0  0.00000000000E+00  0.00000000000E+00  0.39999999674E+01  0.40000000000E+01  0.51100000000E-03 0.  1.
    9000002   -1    0    0    0    0 -0.00000000000E+00 -0.00000000000E+00  0.00000000000E+00  0.93800000000E+00  0.93800000000E+00 0.  1.
         11    1    1    2    0    0 -0.23622820118E+00 -0.35092299836E+00  0.22022651018E+01  0.22425259315E+01  0.51100000000E-03 0.  1.
    9000002    1    1    2    0    0  0.39140697359E+00  0.58165606259E+00  0.35138204014E+00  0.12226350773E+01  0.93800000000E+00 0.  1.
         22    1    1    2    0    0 -0.15517877241E+00 -0.23073306423E+00  0.14463528254E+01  0.14728389912E+01  0.00000000000E+00 0.  1.
</event>
<event>
 5    1  0.3454171E+002  0.1599676E+01  0.7818608E-02  0.3353715E+00
         11   -1    0    0    0    0  0.00000000000E+00  0.00000000000E+00  0.39999999674E+01  0.40000000000E+01  0.51100000000E-03 0. -1.
    9000002   -1    0    0    0    0 -0.00000000000E+00 -0.00000000000E+00  0.00000000000E+00  0.93800000000E+00  0.93800000000E+00 0. -1.
         11    1    1    2    0    0  0.10148583208E+00  0.20180802780E-01  0.10179356370E+01  0.10231812455E+01  0.51100000000E-03 0. -1.
    9000002    1    1    2    0    0 -0.39152532832E+00 -0.75375514748E-01  0.10721398447E+00  0.10248474957E+01  0.93800000000E+00 0. -1.
         22    1    1    2    0    0  0.29003949624E+00  0.55194711968E-01  0.28748503459E+01  0.28899712589E+01  0.00000000000E+00 0. -1.
</event>
<event>
 5    1  0.3454171E+002  0.1538970E+01  0.7818608E-02  0.3422389E+00
         11   -1    0    0    0    0  0.00000000000E+00  0.00000000000E+00  0.39999999674E+01  0.40000000000E+01  0.51100000000E-03 0.  1.
    9000002   -1    0    0    0    0 -0.00000000000E+00 -0.00000000000E+00  0.00000000000E+00  0.93800000000E+00  0.93800000000E+00 0. -1.
         11    1    1    2    0    0  0.12969758112E+00  0.56704998119E+00  0.25855789598E+01  0.26502048906E+01  0.51100000000E-03 0.  1.
    9000002    1    1    2    0    0 -0.32580963474E+00 -0.44867225024E+00  0.27259021942E+00  0.11232133074E+01  0.93800000000E+00 0. -1.
         22    1    1    2    0    0  0.19611205362E+00 -0.11837773094E+00  0.11418307881E+01  0.11645818019E+01  0.00000000000E+00 0.  1.
</event>
<event>
 5    1  0.3454171E+002  0.1597518E+01  0.7818608E-02  0.3356062E+00
         11   -1    0    0    0    0  0.00000000000E+00  0.00000000000E+00  0.39999999674E+01  0.40000000000E+01  0.51100000000E-03 0. -1.
    9000002   -1    0    0    0    0 -0.00000000000E+00 -0.00000000000E+00  0.00000000000E+00  0.93800000000E+00  0.93800000000E+00 0.  1.
         11    1    1    2    0    0  0.14862707619E+00 -0.46520071559E-01  0.13816789573E+01  0.13904283969E+01  0.51100000000E-03 0. -1.
    9000002    1    1    2    0    0 -0.36427645469E+00 -0.89303616936E-02  0.90929510736E-01  0.10103906486E+01  0.93800000000E+00 0.  1.
         22    1    1    2    0    0  0.21564937850E+00  0.55450433252E-01  0.25273914994E+01  0.25371809545E+01  0.00000000000E+00 0. -1.
</event>
<event>
 5    1  0.3454171E+002  0.1599334E+01  0.7818608E-02  0.3354086E+00
         11   -1    0    0    0    0  0.00000000000E+00  0.00000000000E+00  0.39999999674E+01  0.40000000000E+01  0.51100000000E-03 0.  1.
    9000002   -1    0    0    0    0 -0.00000000000E+00 -0.00000000000E+00  0.00000000000E+00  0.93800000000E+00  0.93800000000E+00 0. -1.
         11    1    1    2    0    0 -0.34266141458E+00  0.33119063094E-01  0.16132169647E+01  0.16495402250E+01  0.51100000000E-03 0.  1.
    9000002    1    1    2    0    0  0.72125703131E+00 -0.91477687929E-01  0.38100561528E+00  0.12464305642E+01  0.93800000000E+00 0. -1.
         22    1    1    2    0    0 -0.37859561674E+00  0.58358624835E-01  0.20057773873E+01  0.20420292108E+01  0.00000000000E+00 0.  1.
</event>
<event>
 5    1  0.3454171E+002  0.1599666E+01  0.7818608E-02  0.3353726E+00
         11   -1    0    0    0    0  0.00000000000E+00  0.00000000000E+00  0.39999999674E+01  0.40000000000E+01  0.51100000000E-03 0.  1.
    9000002   -1    0    0    0    0 -0.00000000000E+00 -0.00000000000E+00  0.00000000000E+00  0.93800000000E+00  0.93800000000E+00 0.  1.
         11    1    1    2    0    0  0.41517142056E-02  0.75676296604E-02  0.10912290984E+00  0.10946495477E+00  0.51100000000E-03 0.  1.
    9000002    1    1    2    0    0 -0.17718293810E+00 -0.30587454142E+00  0.83823727585E-01  0.10058943513E+01  0.93800000000E+00 0.  1.
         22    1    1    2    0    0  0.17303122390E+00  0.29830691176E+00  0.38070533299E+01  0.38226406939E+01  0.00000000000E+00 0.  1.
</event>
<event>
 5    1  0.3454171E+002  0.1558230E+01  0.7818608E-02  0.3399986E+00
         11   -1    0    0    0    0  0.00000000000E+00  0.00000000000E+00  0.39999999674E+01  0.40000000000E+01  0.51100000000E-03 0. -1.
    9000002   -1    0    0    0    0 -0.00000000000E+00 -0.00000000000E+00  0.00000000000E+00  0.93800000000E+00  0.93800000000E+00 0.  1.
         11    1    1    2    0    0 -0.14597979250E+00  0.34651503856E+00  0.11721448324E+01  0.12309778800E+01  0.51100000000E-03 0. -1.
    9000002    1    1    2    0    0  0.45006763488E+00 -0.36964110534E+00  0.27742244898E+00  0.11384211162E+01  0.93800000000E+00 0.  1.
         22    1    1    2    0    0 -0.30408784238E+00  0.23126066777E-01  0.25504326860E+01  0.25686010038E+01  0.00000000000E+00 0. -1.
</event>
<event>
 5    1  0.3454171E+002  0.1525961E+01  0.7818608E-02  0.3437863E+00
         11   -1    0    0    0    0  0.00000000000E+00  0.00000000000E+00  0.39999999674E+01  0.40000000000E+01  0.51100000000E-03 0.  1.
    9000002   -1    0    0    0    0 -0.00000000000E+00 -0.00000000000E+00  0.00000000000E+00  0.93800000000E+00  0.93800000000E+00 0. -1.
         11    1    1    2    0    0  0.32268141165E+00  0.70930951097E-01  0.27135350042E+01  0.27335740293E+01  0.51100000000E-03 0.  1.
    9000002    1    1    2    0    0 -0.55991544446E+00  0.27596630934E+00  0.35301154160E+00  0.11807302221E+01  0.93800000000E+00 0. -1.
         22    1    1    2    0    0  0.23723403281E+00 -0.34689726043E+00  0.93345342152E+00  0.10236957486E+01  0.00000000000E+00 0.  1.
</event>
<event>
 5    1  0.3454171E+002  0.1519420E+01  0.7818608E-02  0.3445751E+00
         11   -1    0    0    0    0  0.00000000000E+00  0.00000000000E+00  0.39999999674E+01  0.40000000000E+01  0.51100000000E-03 0. -1.
    9000002   -1    0    0    0    0 -0.00000000000E+00 -0.00000000000E+00  0.00000000000E+00  0.93800000000E+00  0.93800000000E+00 0.  1.
         11    1    1    2    0    0  0.73021231502E-01  0.25295692976E+00  0.82387489878E+00  0.86492162565E+00  0.51100000000E-03 0. -1.
    9000002    1    1    2    0    0  0.10945847195E+00  0.42795586123E-01  0.70379300047E-01  0.94795034952E+00  0.93800000000E+00 0.  1.
         22    1    1    2    0    0 -0.18247970345E+00 -0.29575251588E+00  0.31057457685E+01  0.31251280248E+01  0.00000000000E+00 0. -1.
</event>
<event>
 5    1  0.3454171E+002  0.1569321E+01  0.7818608E-02  0.3387350E+00
         11   -1    0    0    0    0  0.00000000000E+00  0.00000000000E+00  0.39999999674E+01  0.40000000000E+01  0.51100000000E-03 0. -1.
    9000002   -1    0    0    0    0 -0.00000000000E+00 -0.00000000000E+00  0.00000000000E+00  0.93800000000E+00  0.93800000000E+00 0.  1.
         11    1    1    2    0    0  0.57131153585E-01 -0.11308666578E+00  0.40491334307E+00  0.42427307151E+00  0.51100000000E-03 0. -1.
    9000002    1    1    2    0    0  0.13832014209E+00  0.64852134892E-01  0.38177735186E-01  0.95112554406E+00  0.93800000000E+00 0.  1.
         22    1    1    2    0    0 -0.19545129568E+00  0.48234530891E-01  0.35569088891E+01  0.35626013844E+01  0.00000000000E+00 0. -1.
</event>
<event>
 5    1  0.3454171E+002  0.1599671E+01  0.7818608E-02  0.3353721E+00
         11   -1    0    0    0    0  0.00000000000E+00  0.00000000000E+00  0.39999999674E+01  0.40000000000E+01  0.51100000000E-03 0.  1.
    9000002   -1    0    0    0    0 -0.00000000000E+00 -0.00000000000E+00  0.00000000000E+00  0.93800000000E+00  0.93800000000E+00 0.  1.
         11    1    1    2    0    0 -0.56688836853E-01 -0.50705568922E-01  0.98701580054E+00  0.98994198344E+00  0.51100000000E-03 0.  1.
    9000002    1    1    2    0    0  0.21847034757E+00  0.19586683302E+00  0.57403857800E-01  0.98449596847E+00  0.93800000000E+00 0.  1.
         22    1    1    2    0    0 -0.16178151071E+00 -0.14516126410E+00  0.29555803090E+01  0.29635620481E+01  0.00000000000E+00 0. -1.
</event>
<event>
 5    1  0.3454171E+002  0.1599675E+01  0.7818608E-02  0.3353716E+00
         11   -1    0    0    0    0  0.00000000000E+00  0.00000000000E+00  0.39999999674E+01  0.40000000000E+01  0.51100000000E-03 0. -1.
    9000002   -1    0    0    0    0 -0.00000000000E+00 -0.00000000000E+00  0.00000000000E+00  0.93800000000E+00  0.93800000000E+00 0.  1.
         11    1    1    2    0    0  0.22416775861E+00  0.42848430717E-01  0.19857900966E+01  0.19988621116E+01  0.51100000000E-03 0. -1.
    9000002    1    1    2    0    0 -0.43727212679E+00 -0.80320307262E-01  0.13414162757E+00  0.10466595630E+01  0.93800000000E+00 0.  1.
         22    1    1    2    0    0  0.21310436818E+00  0.37471876545E-01  0.18800682431E+01  0.18924783254E+01  0.00000000000E+00 0. -1.
</event>
<event>
 5    1  0.3454171E+002  0.1599675E+01  0.7818608E-02  0.3353716E+00
         11   -1    0    0    0    0  0.00000000000E+00  0.00000000000E+00  0.39999999674E+01  0.40000000000E+01  0.51100000000E-03 0.  1.
    9000002   -1    0    0    0    0 -0.00000000000E+00 -0.00000000000E+00  0.00000000000E+00  0.93800000000E+00  0.93800000000E+00 0. -1.
         11    1    1    2    0    0  0.21141423732E-01 -0.10009459048E+00  0.12106268830E+01  0.12149418084E+01  0.51100000000E-03 0.  1.
    9000002    1    1    2    0    0 -0.70141631517E-01  0.32931139295E+00  0.75905518629E-01  0.99948561258E+00  0.93800000000E+00 0. -1.
         22    1    1    2    0    0  0.49000207785E-01 -0.22921680247E+00  0.27134675657E+01  0.27235725790E+01  0.00000000000E+00 0.  1.
</event>
<event>
 5    1  0.3454171E+002  0.1598334E+01  0.7818608E-02  0.3355174E+00
         11   -1    0    0    0    0  0.00000000000E+00  0.00000000000E+00  0.39999999674E+01  0.40000000000E+01  0.51100000000E-03 0.  1.
    9000002   -1    0    0    0    0 -0.00000000000E+00 -0.00000000000E+00  0.00000000000E+00  0.93800000000E+00  0.93800000000E+00 0.  1.
         11    1    1    2    0    0 -0.23603530080E-01  0.66623102332E+00  0.26357561043E+01  0.27187554884E+01  0.51100000000E-03 0.  1.
    9000002    1    1    2    0    0 -0.17691972572E-01 -0.86515728132E+00  0.56691958287E+00  0.13964426020E+01  0.93800000000E+00 0.  1.
         22    1    1    2    0    0  0.41295502652E-01  0.19892625800E+00  0.79732428017E+00  0.82280190958E+00  0.00000000000E+00 0.  1.
</event>
<event>
 5    1  0.3454171E+002  0.1599628E+01  0.7818608E-02  0.3353767E+00
         11   -1    0    0    0    0  0.00000000000E+00  0.00000000000E+00  0.39999999674E+01  0.40000000000E+01  0.51100000000E-03 0. -1.
    9000002   -1    0    0    0    0 -0.00000000000E+00 -0.00000000000E+00  0.00000000000E+00  0.93800000000E+00  0.93800000000E+00 0. -1.
         11    1    1    2    0    0 -0.30681799166E-01  0.83789914118E-02  0.41112413031E+00  0.41235287308E+00  0.51100000000E-03 0. -1.
    9000002    1    1    2    0    0  0.24567607342E+00 -0.80775339734E-01  0.44496245545E-01  0.97401504323E+00  0.93800000000E+00 0. -1.
         22    1    1    2    0    0 -0.21499427426E+00  0.72396348322E-01  0.35443795915E+01  0.35516320837E+01  0.00000000000E+00 0. -1.
</event>
<event>
 5    1  0.3454171E+002  0.1599600E+01  0.7818608E-02  0.3353798E+00
         11   -1    0    0    0    0  0.00000000000E+00  0.00000000000E+00  0.39999999674E+01  0.40000000000E+01  0.51100000000E-03 0.  1.
    9000002   -1    0    0    0    0 -0.00000000000E+00 -0.00000000000E+00  0.00000000000E+00  0.93800000000E+00  0.93800000000E+00 0.  1.
         11    1    1    2    0    0 -0.37545157760E-01 -0.81704346972E-02  0.76834784142E+00  0.76930817064E+00  0.51100000000E-03 0.  1.
    9000002    1    1    2    0    0  0.23180848369E+00  0.62169223167E-01  0.38293356425E-01  0.96897397621E+00  0.93800000000E+00 0.  1.
         22    1    1    2    0    0 -0.19426332593E+00 -0.53998788469E-01  0.31933587695E+01  0.31997178532E+01  0.00000000000E+00 0.  1.
</event>
<event>
 5    1  0.3454171E+002  0.1599366E+01  0.7818608E-02  0.3354051E+00
         11   -1    0    0    0    0  0.00000000000E+00  0.00000000000E+00  0.39999999674E+01  0.40000000000E+01  0.51100000000E-03 0. -1.
    9000002   -1    0    0    0    0 -0.00000000000E+00 -0.00000000000E+00  0.00000000000E+00  0.93800000000E+00  0.93800000000E+00 0. -1.
         11    1    1    2    0    0 -0.22452200482E-02 -0.68327702361E-02  0.15650146284E+00  0.15666747191E+00  0.51100000000E-03 0. -1.
    9000002    1    1    2    0    0  0.23408774898E+00  0.62614143189E-01  0.39219572814E-01  0.96958742775E+00  0.93800000000E+00 0. -1.
         22    1    1    2    0    0 -0.23184252893E+00 -0.55781372953E-01  0.38042789317E+01  0.38117451003E+01  0.00000000000E+00 0. -1.
</event>
<event>
 5    1  0.3454171E+002  0.1599666E+01  0.7818608E-02  0.3353726E+00
         11   -1    0    0    0    0  0.00000000000E+00  0.00000000000E+00  0.39999999674E+01  0.40000000000E+01  0.51100000000E-03 0.  1.
    9000002   -1    0    0    0    0 -0.00000000000E+00 -0.00000000000E+00  0.00000000000E+00  0.93800000000E+00  0.93800000000E+00 0.  1.
         11    1    1    2    0    0  0.56634853955E-01 -0.17417689430E+00  0.17460929893E+01  0.17556725451E+01  0.51100000000E-03 0.  1.
    9000002    1    1    2    0    0 -0.12218031146E+00  0.38028142311E+00  0.10761564280E+00  0.10251668722E+01  0.93800000000E+00 0.  1.
         22    1    1    2    0    0  0.65545457506E-01 -0.20610452881E+00  0.21462913352E+01  0.21571605827E+01  0.00000000000E+00 0.  1.
</event>
<event>
 5    1  0.3454171E+002  0.1577812E+01  0.7818608E-02  0.3377804E+00
         11   -1    0    0    0    0  0.00000000000E+00  0.00000000000E+00  0.39999999674E+01  0.40000000000E+01  0.51100000000E-03 0. -1.
    9000002   -1    0    0    0    0 -0.00000000000E+00 -0.00000000000E+00  0.00000000000E+00  0.93800000000E+00  0.93800000000E+00 0. -1.
         11    1    1    2    0    0  0.11525268490E-01 -0.10158255466E+00  0.24642762412E+01  0.24663960552E+01  0.51100000000E-03 0. -1.
    9000002    1    1    2    0    0  0.18923920673E+00 -0.21059002975E-01  0.40501832868E-01  0.95798713845E+00  0.93800000000E+00 0. -1.
         22    1    1    2    0    0 -0.20076447522E+00  0.12264155763E+00  0.14952218933E+01  0.15136168063E+01  0.00000000000E+00 0.  1.
</event>
<event>
 5    1  0.3454171E+002  0.1525284E+01  0.7818608E-02  0.3438676E+00
         11   -1    0    0    0    0  0.00000000000E+00  0.00000000000E+00  0.39999999674E+01  0.40000000000E+01  0.51100000000E-03 0.  1.
    9000002   -1    0    0    0    0 -0.00000000000E+00 -0.00000000000E+00  0.00000000000E+00  0.93800000000E+00  0.93800000000E+00 0.  1.
         11    1    1    2    0    0  0.17697475423E+00  0.27043076097E+00  0.29222173865E+01  0.29400353017E+01  0.51100000000E-03 0.  1.
    9000002    1    1    2    0    0 -0.35086395891E-01 -0.33403802886E-01  0.57570300691E-01  0.94101286322E+00  0.93800000000E+00 0.  1.
         22    1    1    2    0    0 -0.14188835833E+00 -0.23702695808E+00  0.10202122801E+01  0.10569518351E+01  0.00000000000E+00 0.  1.
</event>
<event>
 5    1  0.3454171E+002  0.1599677E+01  0.7818608E-02  0.3353714E+00
         11   -1    0    0    0    0  0.00000000000E+00  0.00000000000E+00  0.39999999674E+01  0.40000000000E+01  0.51100000000E-03 0. -1.
    9000002   -1    0    0    0    0 -0.00000000000E+00 -0.00000000000E+00  0.00000000000E+00  0.93800000000E+00  0.93800000000E+00 0.  1.
         11    1    1    2    0    0  0.89125795168E-01  0.80961779311E-01  0.14168688956E+01  0.14219760707E+01  0.51100000000E-03 0. -1.
    9000002    1    1    2    0    0 -0.24716605037E+00 -0.22608074123E+00  0.75112256436E-01  0.99884403641E+00  0.93800000000E+00 0.  1.
         22    1    1    2    0    0  0.15804025520E+00  0.14511896192E+00  0.25080188153E+01  0.25171798929E+01  0.00000000000E+00 0. -1.
</event>
<event>
 5    1  0.3454171E+002  0.1578540E+01  0.7818608E-02  0.3376990E+00
         11   -1    0    0    0    0  0.00000000000E+00  0.00000000000E+00  0.39999999674E+01  0.40000000000E+01  0.51100000000E-03 0. -1.
    9000002   -1    0    0    0    0 -0.00000000000E+00 -0.00000000000E+00  0.00000000000E+00  0.93800000000E+00  0.93800000000E+00 0. -1.
         11    1    1    2    0    0  0.20978287456E+00 -0.38222278222E-01  0.24630583044E+01  0.24722714797E+01  0.51100000000E-03 0. -1.
    9000002    1    1    2    0    0 -0.42337330729E+00 -0.18489922859E+00  0.16389132362E+00  0.10583652715E+01  0.93800000000E+00 0. -1.
         22    1    1    2    0    0  0.21359043274E+00  0.22312150681E+00  0.13730503393E+01  0.14073632488E+01  0.00000000000E+00 0. -1.
</event>
<event>
 5    1  0.3454171E+002  0.1468393E+01  0.7818608E-02  0.3509886E+00
         11   -1    0    0    0    0  0.00000000000E+00  0.00000000000E+00  0.39999999674E+01  0.40000000000E+01  0.51100000000E-03 0.  1.
    9000002   -1    0    0    0    0 -0.00000000000E+00 -0.00000000000E+00  0.00000000000E+00  0.93800000000E+00  0.93800000000E+00 0.  1.
         11    1    1    2    0    0  0.12326698425E+00 -0.45701879277E+00  0.16735408452E+01  0.17391952587E+01  0.51100000000E-03 0.  1.
    9000002    1    1    2    0    0  0.76960505549E-01  0.12502961995E+00  0.11817585907E+00  0.95674701930E+00  0.93800000000E+00 0.  1.
         22    1    1    2    0    0 -0.20022748980E+00  0.33198917282E+00  0.22082832631E+01  0.22420577220E+01  0.00000000000E+00 0.  1.
</event>
<event>
 5    1  0.3454171E+002  0.1583814E+01  0.7818608E-02  0.3371121E+00
         11   -1    0    0    0    0  0.00000000000E+00  0.00000000000E+00  0.39999999674E+01  0.40000000000E+01  0.51100000000E-03 0. -1.
    9000002   -1    0    0    0    0 -0.00000000000E+00 -0.00000000000E+00  0.00000000000E+00  0.93800000000E+00  0.93800000000E+00 0. -1.
         11    1    1    2    0    0 -0.16506788229E-01 -0.15160054082E-02  0.74087463037E-02  0.18163781898E-01  0.51100000000E-03 0. -1.
    9000002    1    1    2    0    0 -0.17372713623E+00 -0.19324481787E+00  0.57166898723E-01  0.97500601629E+00  0.93800000000E+00 0. -1.
         22    1    1    2    0    0  0.19023392446E+00  0.19476082328E+00  0.39354243223E+01  0.39448302018E+01  0.00000000000E+00 0. -1.
</event>
<event>
 5    1  0.3454171E+002  0.1599674E+01  0.7818608E-02  0.3353717E+00
         11   -1    0    0    0    0  0.00000000000E+00  0.00000000000E+00  0.39999999674E+01  0.40000000000E+01  0.51100000000E-03 0. -1.
    9000002   -1    0    0    0    0 -0.00000000000E+00 -0.00000000000E+00  0.00000000000E+00  0.93800000000E+00  0.93800000000E+00 0. -1.
         11    1    1    2    0    0  0.41596868522E+00 -0.12632001303E+00  0.20778811427E+01  0.21228699906E+01  0.51100000000E-03 0. -1.
    9000002    1    1    2    0    0 -0.71662851031E+00  0.21613898869E+00  0.40598152870E+00  0.12668612733E+01  0.93800000000E+00 0. -1.
         22    1    1    2    0    0  0.30065982509E+00 -0.89818975659E-01  0.15161372959E+01  0.15482687360E+01  0.00000000000E+00 0. -1.
</event>
<event>
 5    1  0.3454171E+002  0.1596671E+01  0.7818608E-02  0.3356985E+00
         11   -1    0    0    0    0  0.00000000000E+00  0.00000000000E+00  0.39999999674E+01  0.40000000000E+01  0.51100000000E-03 0.  1.
    9000002   -1    0    0    0    0 -0.00000000000E+00 -0.00000000000E+00  0.00000000000E+00  0.93800000000E+00  0.93800000000E+00 0.  1.
         11    1    1    2    0    0  0.12465191273E-01  0.50335912169E-01  0.73698608393E+00  0.73880838793E+00  0.51100000000E-03 0.  1.
    9000002    1    1    2    0    0 -0.23811711741E+00 -0.54034900654E-01  0.41882312331E-01  0.97016372854E+00  0.93800000000E+00 0.  1.
         22    1    1    2    0    0  0.22565192613E+00  0.36989884852E-02  0.32211315711E+01  0.32290278835E+01  0.00000000000E+00 0.  1.
</event>
<event>
 5    1  0.3454171E+002  0.1599672E+01  0.7818608E-02  0.3353719E+00
         11   -1    0    0    0    0  0.00000000000E+00  0.00000000000E+00  0.39999999674E+01  0.40000000000E+01  0.51100000000E-03 0.  1.
    9000002   -1    0    0    0    0 -0.00000000000E+00 -0.00000000000E+00  0.00000000000E+00  0.93800000000E+00  0.93800000000E+00 0.  1.
         11    1    1    2    0    0  0.44500807620E-01  0.70771746912E-01  0.94779026177E+00  0.95147023257E+00  0.51100000000E-03 0.  1.
    9000002    1    1    2    0    0 -0.18466517158E+00 -0.28379433359E+00  0.76776385664E-01  0.10001895134E+01  0.93800000000E+00 0.  1.
         22    1    1    2    0    0  0.14016436396E+00  0.21302258667E+00  0.29754333199E+01  0.29863402540E+01  0.00000000000E+00 0. -1.
</event>
<event>
 5    1  0.5436472E+002  0.1574931E+01  0.7818608E-02  0.3381030E+00
         11   -1    0    0    0    0  0.00000000000E+00  0.00000000000E+00  0.39999999674E+01  0.40000000000E+01  0.51100000000E-03 0. -1.
    9000002   -1    0    0    0    0 -0.00000000000E+00 -0.00000000000E+00  0.00000000000E+00  0.93800000000E+00  0.93800000000E+00 0.  1.
         11    1    1    2    0    0 -0.10665452934E+00 -0.52713945071E-01  0.53438143059E+00  0.54746481450E+00  0.51100000000E-03 0. -1.
    9000002    1    1    2    0    0 -0.45788048685E-01 -0.81652253217E-01  0.24043732920E-01  0.94296645590E+00  0.93800000000E+00 0.  1.
         22    1    1    2    0    0  0.15244257803E+00  0.13436619829E+00  0.34415748038E+01  0.34475687296E+01  0.00000000000E+00 0. -1.
</event>
<event>
 5    1  0.3454171E+002  0.1590922E+01  0.7818608E-02  0.3363276E+00
         11   -1    0    0    0    0  0.00000000000E+00  0.00000000000E+00  0.39999999674E+01  0.40000000000E+01  0.51100000000E-03 0. -1.
    9000002   -1    0    0    0    0 -0.00000000000E+00 -0.00000000000E+00  0.00000000000E+00  0.93800000000E+00  0.93800000000E+00 0. -1.
         11    1    1    2    0    0  0.27448254733E-01  0.12557473266E+00  0.54467908300E+00  0.55964094270E+00  0.51100000000E-03 0. -1.
    9000002    1    1    2    0    0 -0.12987709946E+00 -0.33863770841E+00  0.95467286394E-01  0.10101987732E+01  0.93800000000E+00 0. -1.
         22    1    1    2    0    0  0.10242884473E+00  0.21306297575E+00  0.33598535980E+01  0.33681602841E+01  0.00000000000E+00 0. -1.
</event>
<event>
 5    1  0.3454171E+002  0.1587546E+01  0.7818608E-02  0.3366993E+00
         11   -1    0    0    0    0  0.00000000000E+00  0.00000000000E+00  0.39999999674E+01  0.40000000000E+01  0.51100000000E-03 0. -1.
    9000002   -1    0    0    0    0 -0.00000000000E+00 -0.00000000000E+00  0.00000000000E+00  0.93800000000E+00  0.93800000000E+00 0.  1.
         11    1    1    2    0    0 -0.66874765642E-02  0.28573649413E+00  0.13125002110E+01  0.13432598897E+01  0.51100000000E-03 0. -1.
    9000002    1    1    2    0    0 -0.20429271291E+00 -0.53195691813E+00  0.23692259541E+00  0.11228045206E+01  0.93800000000E+00 0.  1.
         22    1    1    2    0    0  0.21098018948E+00  0.24622042400E+00  0.24505771610E+01  0.24719355896E+01  0.00000000000E+00 0. -1.
</event>
<event>
 5    1  0.3454171E+002  0.1599668E+01  0.7818608E-02  0.3353724E+00
         11   -1    0    0    0    0  0.00000000000E+00  0.00000000000E+00  0.39999999674E+01  0.40000000000E+01  0.51100000000E-03 0.  1.
    9000002   -1    0    0    0    0 -0.00000000000E+00 -0.00000000000E+00  0.00000000000E+00  0.93800000000E+00  0.93800000000E+00 0.  1.
         11    1    1    2    0    0 -0.15756117255E-02 -0.20189861020E-02  0.26449115802E-01  0.26577729491E-01  0.51100000000E-03 0. -1.
    9000002    1    1    2    0    0  0.21267905768E+00  0.25562652856E+00  0.74011917517E-01  0.99794742728E+00  0.93800000000E+00 0.  1.
         22    1    1    2    0    0 -0.21110344596E+00 -0.25360754246E+00  0.38995389340E+01  0.39134748432E+01  0.00000000000E+00 0.  1.
</event>
<event>
 5    1  0.3819478E+002  0.1555999E+01  0.7818608E-02  0.3402550E+00
         11   -1    0    0    0    0  0.00000000000E+00  0.00000000000E+00  0.39999999674E+01  0.40000000000E+01  0.51100000000E-03 0. -1.
    9000002   -1    0    0    0    0 -0.00000000000E+00 -0.00000000000E+00  0.00000000000E+00  0.93800000000E+00  0.93800000000E+00 0. -1.
         11    1    1    2    0    0  0.19464418411E+00  0.18133062489E+00  0.22801662854E+01  0.22956318747E+01  0.51100000000E-03 0. -1.
    9000002    1    1    2    0    0  0.16100724099E-01 -0.67928477423E-01  0.35653672835E-01  0.94126972529E+00  0.93800000000E+00 0. -1.
         22    1    1    2    0    0 -0.21074490821E+00 -0.11340214747E+00  0.16841800091E+01  0.17010984000E+01  0.00000000000E+00 0.  1.
</event>
<event>
 5    1  0.3454171E+002  0.1599667E+01  0.7818608E-02  0.3353725E+00
         11   -1    0    0    0    0  0.00000000000E+00  0.00000000000E+00  0.39999999674E+01  0.40000000000E+01  0.51100000000E-03 0.  1.
    9000002   -1    0    0    0    0 -0.00000000000E+00 -0.00000000000E+00  0.00000000000E+00  0.93800000000E+00  0.93800000000E+00 0. -1.
         11    1    1    2    0    0 -0.34313912783E-01 -0.33628482987E-01  0.53376483982E+00  0.53592302137E+00  0.51100000000E-03 0.  1.
    9000002    1    1    2    0    0  0.23789179159E+00  0.23514407130E+00  0.74902994460E-01  0.99866896285E+00  0.93800000000E+00 0. -1.
         22    1    1    2    0    0 -0.20357787881E+00 -0.20151558832E+00  0.33913321331E+01  0.34034080158E+01  0.00000000000E+00 0.  1.
</event>
<event>
 5    1  0.3454171E+002  0.1599661E+01  0.7818608E-02  0.3353731E+00
         11   -1    0    0    0    0  0.00000000000E+00  0.00000000000E+00  0.39999999674E+01  0.40000000000E+01  0.51100000000E-03 0. -1.
    9000002   -1    0    0    0    0 -0.00000000000E+00 -0.00000000000E+00  0.00000000000E+00  0.93800000000E+00  0.93800000000E+00 0. -1.
         11    1    1    2    0    0  0.91744229962E-01 -0.98528074813E-01  0.16068966827E+01  0.16125265874E+01  0.51100000000E-03 0. -1.
    9000002    1    1    2    0    0 -0.23503397490E+00  0.24374766891E+00  0.76794402482E-01  0.10001976183E+01  0.93800000000E+00 0. -1.
         22    1    1    2    0    0  0.14328974494E+00 -0.14521959409E+00  0.23163088822E+01  0.23252757942E+01  0.00000000000E+00 0. -1.
</event>
<event>
 5    1  0.3454171E+002  0.1599677E+01  0.7818608E-02  0.3353714E+00
         11   -1    0    0    0    0  0.00000000000E+00  0.00000000000E+00  0.39999999674E+01  0.40000000000E+01  0.51100000000E-03 0. -1.
    9000002   -1    0    0    0    0 -0.00000000000E+00 -0.00000000000E+00  0.00000000000E+00  0.93800000000E+00  0.93800000000E+00 0. -1.
         11    1    1    2    0    0  0.21145235456E-01  0.41750369203E-01  0.71689651845E+00  0.71842264274E+00  0.51100000000E-03 0.  1.
    9000002    1    1    2    0    0 -0.11394686103E+00 -0.22991019120E+00  0.43761316307E-01  0.97344832218E+00  0.93800000000E+00 0. -1.
         22    1    1    2    0    0  0.92801625574E-01  0.18815982200E+00  0.32393421326E+01  0.32461290351E+01  0.00000000000E+00 0. -1.
</event>
<event>
 5    1  0.3454171E+002  0.1538614E+01  0.7818608E-02  0.3422809E+00
         11   -1    0    0    0    0  0.00000000000E+00  0.00000000000E+00  0.39999999674E+01  0.40000000000E+01  0.51100000000E-03 0. -1.
    9000002   -1    0    0    0    0 -0.00000000000E+00 -0.00000000000E+00  0.00000000000E+00  0.93800000000E+00  0.93800000000E+00 0. -1.
         11    1    1    2    0    0 -0.13679425877E+00  0.24979433011E+00  0.12409733711E+01  0.12732340890E+01  0.51100000000E-03 0. -1.
    9000002    1    1    2    0    0  0.30412038119E-01 -0.13520457501E-01  0.46341854468E-01  0.93973361242E+00  0.93800000000E+00 0. -1.
         22    1    1    2    0    0  0.10638222065E+00 -0.23627387261E+00  0.27126847418E+01  0.27250322986E+01  0.00000000000E+00 0. -1.
</event>
<event>
 5    1  0.3454171E+002  0.1599674E+01  0.7818608E-02  0.3353717E+00
         11   -1    0    0    0    0  0.00000000000E+00  0.00000000000E+00  0.39999999674E+01  0.40000000000E+01  0.51100000000E-03 0. -1.
    9000002   -1    0    0    0    0 -0.00000000000E+00 -0.00000000000E+00  0.00000000000E+00  0.93800000000E+00  0.93800000000E+00 0. -1.
         11    1    1    2    0    0  0.30566356357E-01  0.58362970130E-01  0.95268371081E+00  0.95495918886E+00  0.51100000000E-03 0. -1.
    9000002    1    1    2    0    0 -0.12633190771E+00 -0.23495855287E+00  0.47339528712E-01  0.97634538123E+00  0.93800000000E+00 0. -1.
         22    1    1    2    0    0  0.95765551352E-01  0.17659558274E+00  0.29999767278E+01  0.30066954299E+01  0.00000000000E+00 0. -1.
</event>
<event>
 5    1  0.3454171E+002  0.1594805E+01  0.7818608E-02  0.3359021E+00
         11   -1    0    0    0    0  0.00000000000E+00  0.00000000000E+00  0.39999999674E+01  0.40000000000E+01  0.51100000000E-03 0. -1.
    9000002   -1    0    0    0    0 -0.00000000000E+00 -0.00000000000E+00  0.00000000000E+00  0.93800000000E+00  0.93800000000E+00 0.  1.
         11    1    1    2    0    0  0.26337846836E+00 -0.23711805430E+00  0.23611176120E+01  0.23875656699E+01  0.51100000000E-03 0. -1.
    9000002    1    1    2    0    0 -0.30766840525E+00  0.44241476823E+00  0.20471842783E+00  0.11009742547E+01  0.93800000000E+00 0.  1.
         22    1    1    2    0    0  0.44289936888E-01 -0.20529671393E+00  0.14341639275E+01  0.14494600754E+01  0.00000000000E+00 0. -1.
</event>
<event>
 5    1  0.3454171E+002  0.1599545E+01  0.7818608E-02  0.3353857E+00
         11   -1    0    0    0    0  0.00000000000E+00  0.00000000000E+00  0.39999999674E+01  0.40000000000E+01  0.51100000000E-03 0.  1.
    9000002   -1    0    0    0    0 -0.00000000000E+00 -0.00000000000E+00  0.00000000000E+00  0.93800000000E+00  0.93800000000E+00 0.  1.
         11    1    1    2    0    0 -0.18609337688E-01  0.80190935100E-03  0.33761073587E+00  0.33812456373E+00  0.51100000000E-03 0.  1.
    9000002    1    1    2    0    0  0.29316541320E+00  0.39344921060E-01  0.58448353187E-01  0.98526858891E+00  0.93800000000E+00 0.  1.
         22    1    1    2    0    0 -0.27455607551E+00 -0.40146830411E-01  0.36039408783E+01  0.36146068474E+01  0.00000000000E+00 0.  1.
</event>
<event>
 5    1  0.3454171E+002  0.1543638E+01  0.7818608E-02  0.3416904E+00
         11   -1    0    0    0    0  0.00000000000E+00  0.00000000000E+00  0.39999999674E+01  0.40000000000E+01  0.51100000000E-03 0.  1.
    9000002   -1    0    0    0    0 -0.00000000000E+00 -0.00000000000E+00  0.00000000000E+00  0.93800000000E+00  0.93800000000E+00 0.  1.
         11    1    1    2    0    0 -0.20618807844E+00  0.12255839731E+00  0.18169893697E+01  0.18327533155E+01  0.51100000000E-03 0.  1.
    9000002    1    1    2    0    0 -0.95434561897E-01  0.25910690278E-01  0.48521891859E-01  0.94444560111E+00  0.93800000000E+00 0.  1.
         22    1    1    2    0    0  0.30162264034E+00 -0.14846908759E+00  0.21344887058E+01  0.21608010834E+01  0.00000000000E+00 0.  1.
</event>
<event>
 5    1  0.3454171E+002  0.1599677E+01  0.7818608E-02  0.3353714E+00
         11   -1    0    0    0    0  0.00000000000E+00  0.00000000000E+00  0.39999999674E+01  0.40000000000E+01  0.51100000000E-03 0.  1.
    9000002   -1    0    0    0    0 -0.00000000000E+00 -0.00000000000E+00  0.00000000000E+00  0.93800000000E+00  0.93800000000E+00 0.  1.
         11    1    1    2    0    0  0.16571416006E+00  0.90192606991E-01  0.17828459098E+01  0.17928010733E+01  0.51100000000E-03 0. -1.
    9000002    1    1    2    0    0 -0.35991189925E+00 -0.19660580921E+00  0.11359747984E+00  0.10300188381E+01  0.93800000000E+00 0.  1.
         22    1    1    2    0    0  0.19419773919E+00  0.10641320222E+00  0.21035565778E+01  0.21151800886E+01  0.00000000000E+00 0.  1.
</event>
<event>
 5    1  0.3454171E+002  0.1488059E+01  0.7818608E-02  0.3484605E+00
         11   -1    0    0    0    0  0.00000000000E+00  0.00000000000E+00  0.39999999674E+01  0.40000000000E+01  0.51100000000E-03 0. -1.
    9000002   -1    0    0    0    0 -0.00000000000E+00 -0.00000000000E+00  0.00000000000E+00  0.93800000000E+00  0.93800000000E+00 0.  1.
         11    1    1    2    0    0  0.26084350019E+00 -0.24261726787E+00  0.63565715016E+00  0.72867190418E+00  0.51100000000E-03 0. -1.
    9000002    1    1    2    0    0  0.11881695062E+00  0.59712102142E+00  0.38142966763E+00  0.11815259512E+01  0.93800000000E+00 0.  1.
         22    1    1    2    0    0 -0.37966045082E+00 -0.35450375355E+00  0.29829131496E+01  0.30278021446E+01  0.00000000000E+00 0. -1.
</event>
<event>
 5    1  0.3454171E+002  0.1572734E+01  0.7818608E-02  0.3383500E+00
         11   -1    0    0    0    0  0.00000000000E+00  0.00000000000E+00  0.39999999674E+01  0.40000000000E+01  0.51100000000E-03 0. -1.
    9000002   -1    0    0    0    0 -0.00000000000E+00 -0.00000000000E+00  0.00000000000E+00  0.93800000000E+00  0.93800000000E+00 0.  1.
         11    1    1    2    0    0 -0.25723853322E-01 -0.83652611213E-01  0.31897215626E+01  0.31909220273E+01  0.51100000000E-03 0. -1.
    9000002    1    1    2    0    0  0.22174755792E+00  0.13523677672E+00  0.65820882611E-01  0.97551901766E+00  0.93800000000E+00 0.  1.
         22    1    1    2    0    0 -0.19602370459E+00 -0.51584165508E-01  0.74445752215E+00  0.77155895509E+00  0.00000000000E+00 0. -1.
</event>
<event>
 5    1  0.3454171E+002  0.1590972E+01  0.7818608E-02  0.3363220E+00
         11   -1    0    0    0    0  0.00000000000E+00  0.00000000000E+00  0.39999999674E+01  0.40000000000E+01  0.51100000000E-03 0.  1.
    9000002   -1    0    0    0    0 -0.00000000000E+00 -0.00000000000E+00  0.00000000000E+00  0.93800000000E+00  0.93800000000E+00 0. -1.
         11    1    1    2    0    0  0.24646762906E-01 -0.31498714510E-01  0.78793755293E-01  0.88364862540E-01  0.51100000000E-03 0.  1.
    9000002    1    1    2    0    0 -0.33643367673E+00  0.19105395370E+00  0.10801434923E+00  0.10203922440E+01  0.93800000000E+00 0. -1.
         22    1    1    2    0    0  0.31178691382E+00 -0.15955523919E+00  0.38131918628E+01  0.38292428934E+01  0.00000000000E+00 0.  1.
</event>
<event>
 5    1  0.3454171E+002  0.1582100E+01  0.7818608E-02  0.3373023E+00
         11   -1    0    0    0    0  0.00000000000E+00  0.00000000000E+00  0.39999999674E+01  0.40000000000E+01  0.51100000000E-03 0. -1.
    9000002   -1    0    0    0    0 -0.00000000000E+00 -0.00000000000E+00  0.00000000000E+00  0.93800000000E+00  0.93800000000E+00 0.  1.
         11    1    1    2    0    0  0.53388699161E-01  0.39395036277E-01  0.21554161616E+00  0.22552332806E+00  0.51100000000E-03 0. -1.
    9000002    1    1    2    0    0  0.13878985488E-01  0.17299156422E+00  0.33084375095E-01  0.95449320763E+00  0.93800000000E+00 0.  1.
         22    1    1    2    0    0 -0.67267684650E-01 -0.21238660049E+00  0.37513739761E+01  0.37579834643E+01  0.00000000000E+00 0. -1.
</event>
<event>
 5    1  0.3454171E+002  0.1599674E+01  0.7818608E-02  0.3353717E+00
         11   -1    0    0    0    0  0.00000000000E+00  0.00000000000E+00  0.39999999674E+01  0.40000000000E+01  0.51100000000E-03 0.  1.
    9000002   -1    0    0    0    0 -0.00000000000E+00 -0.00000000000E+00  0.00000000000E+00  0.93800000000E+00  0.93800000000E+00 0. -1.
         11    1    1    2    0    0 -0.10386446309E+00 -0.50509375049E-01  0.11530960267E+01  0.11588657091E+01  0.51100000000E-03 0.  1.
    9000002    1    1    2    0    0  0.35678128648E+00  0.17049692697E+00  0.10541002973E+00  0.10233852465E+01  0.93800000000E+00 0. -1.
         22    1    1    2    0    0 -0.25291682339E+00 -0.11998755192E+00  0.27414939109E+01  0.27557490444E+01  0.00000000000E+00 0.  1.
</event>
<event>
 5    1  0.3454171E+002  0.1599530E+01  0.7818608E-02  0.3353873E+00
         11   -1    0    0    0    0  0.00000000000E+00  0.00000000000E+00  0.39999999674E+01  0.40000000000E+01  0.51100000000E-03 0. -1.
    9000002   -1    0    0    0    0 -0.00000000000E+00 -0.00000000000E+00  0.00000000000E+00  0.93800000000E+00  0.93800000000E+00 0. -1.
         11    1    1    2    0    0 -0.47268702490E-01  0.59205397101E-01  0.95750474909E+00  0.96049737893E+00  0.51100000000E-03 0. -1.
    9000002    1    1    2    0    0  0.14790462551E+00 -0.26539137571E+00  0.61717073147E-01  0.98790756534E+00  0.93800000000E+00 0. -1.
         22    1    1    2    0    0 -0.10063592302E+00  0.20618597861E+00  0.29807781451E+01  0.29895950557E+01  0.00000000000E+00 0. -1.
</event>
<event>
 5    1  0.3454171E+002  0.1599525E+01  0.7818608E-02  0.3353880E+00
         11   -1    0    0    0    0  0.00000000000E+00  0.00000000000E+00  0.39999999674E+01  0.40000000000E+01  0.51100000000E-03 0. -1.
    9000002   -1    0    0    0    0 -0.00000000000E+00 -0.00000000000E+00  0.00000000000E+00  0.93800000000E+00  0.93800000000E+00 0.  1.
         11    1    1    2    0    0 -0.54997204387E-01  0.12379818786E-01  0.65682556694E+00  0.65924050157E+00  0.51100000000E-03 0. -1.
    9000002    1    1    2    0    0  0.26405822723E+00 -0.75283422095E-01  0.50300801556E-01  0.97865648296E+00  0.93800000000E+00 0.  1.
         22    1    1    2    0    0 -0.20906102285E+00  0.62903603309E-01  0.32928735989E+01  0.33001030155E+01  0.00000000000E+00 0. -1.
</event>
<event>
 5    1  0.3454171E+002  0.1599558E+01  0.7818608E-02  0.3353843E+00
         11   -1    0    0    0    0  0.00000000000E+00  0.00000000000E+00  0.39999999674E+01  0.40000000000E+01  0.51100000000E-03 0. -1.
    9000002   -1    0    0    0    0 -0.00000000000E+00 -0.00000000000E+00  0.00000000000E+00  0.93800000000E+00  0.93800000000E+00 0. -1.
         11    1    1    2    0    0  0.54940304750E-01 -0.50164674296E-01  0.10335741356E+01  0.10362483711E+01  0.51100000000E-03 0. -1.
    9000002    1    1    2    0    0 -0.23451263142E+00  0.15517503769E+00  0.52755034409E-01  0.98066434639E+00  0.93800000000E+00 0. -1.
         22    1    1    2    0    0  0.17957232667E+00 -0.10501036339E+00  0.29136707973E+01  0.29210872825E+01  0.00000000000E+00 0. -1.
</event>
<event>
 5    1  0.3454171E+002  0.1599647E+01  0.7818608E-02  0.3353747E+00
         11   -1    0    0    0    0  0.00000000000E+00  0.00000000000E+00  0.39999999674E+01  0.40000000000E+01  0.51100000000E-03 0.  1.
    9000002   -1    0    0    0    0 -0.00000000000E+00 -0.00000000000E+00  0.00000000000E+00  0.93800000000E+00  0.93800000000E+00 0.  1.
         11    1    1    2    0    0  0.53427587021E+00  0.43653170965E+00  0.24585551705E+01  0.25535278394E+01  0.51100000000E-03 0.  1.
    9000002    1    1    2    0    0 -0.71578644819E+00 -0.59266102523E+00  0.66984251986E+00  0.14805844561E+01  0.93800000000E+00 0.  1.
         22    1    1    2    0    0  0.18151057798E+00  0.15612931558E+00  0.87160227698E+00  0.90388770449E+00  0.00000000000E+00 0. -1.
</event>
<event>
 5    1  0.3454171E+002  0.1599620E+01  0.7818608E-02  0.3353775E+00
         11   -1    0    0    0    0  0.00000000000E+00  0.00000000000E+00  0.39999999674E+01  0.40000000000E+01  0.51100000000E-03 0. -1.
    9000002   -1    0    0    0    0 -0.00000000000E+00 -0.00000000000E+00  0.00000000000E+00  0.93800000000E+00  0.93800000000E+00 0. -1.
         11    1    1    2    0    0  0.93898519021E-01 -0.33494144793E-02  0.10769579743E+01  0.10810489767E+01  0.51100000000E-03 0. -1.
    9000002    1    1    2    0    0 -0.32993381814E+00  0.38934320414E-01  0.73909939348E-01  0.99783710334E+00  0.93800000000E+00 0. -1.
         22    1    1    2    0    0  0.23603529912E+00 -0.35584905934E-01  0.28491320537E+01  0.28591139200E+01  0.00000000000E+00 0. -1.
</event>
<event>
 5    1  0.3454171E+002  0.1599608E+01  0.7818608E-02  0.3353789E+00
         11   -1    0    0    0    0  0.00000000000E+00  0.00000000000E+00  0.39999999674E+01  0.40000000000E+01  0.51100000000E-03 0.  1.
    9000002   -1    0    0    0    0 -0.00000000000E+00 -0.00000000000E+00  0.00000000000E+00  0.93800000000E+00  0.93800000000E+00 0.  1.
         11    1    1    2    0    0 -0.71065304678E-01 -0.21788120974E+00  0.13777888834E+01  0.13967193589E+01  0.51100000000E-03 0.  1.
    9000002    1    1    2    0    0  0.21759104371E+00  0.59303771717E+00  0.28044473858E+00  0.11651321160E+01  0.93800000000E+00 0.  1.
         22    1    1    2    0    0 -0.14652573903E+00 -0.37515650743E+00  0.23417663454E+01  0.23761485251E+01  0.00000000000E+00 0.  1.
</event>
<event>
 5    1  0.3454171E+002  0.1599670E+01  0.7818608E-02  0.3353721E+00
         11   -1    0    0    0    0  0.00000000000E+00  0.00000000000E+00  0.39999999674E+01  0.40000000000E+01  0.51100000000E-03 0. -1.
    9000002   -1    0    0    0    0 -0.00000000000E+00 -0.00000000000E+00  0.00000000000E+00  0.93800000000E+00  0.93800000000E+00 0.  1.
         11    1    1    2    0    0  0.16735657781E-01 -0.31593724420E-02  0.29289893249E+00  0.29339412000E+00  0.51100000000E-03 0. -1.
    9000002    1    1    2    0    0 -0.22001133426E+00  0.22477688805E-01  0.32428367417E-01  0.96426439979E+00  0.93800000000E+00 0.  1.
         22    1    1    2    0    0  0.20327567648E+00 -0.19318316363E-01  0.36746726674E+01  0.36803414802E+01  0.00000000000E+00 0. -1.
</event>
<event>
 5    1  0.3454171E+002  0.1599669E+01  0.7818608E-02  0.3353722E+00
         11   -1    0    0    0    0  0.00000000000E+00  0.00000000000E+00  0.39999999674E+01  0.40000000000E+01  0.51100000000E-03 0.  1.
    9000002   -1    0    0    0    0 -0.00000000000E+00 -0.00000000000E+00  0.00000000000E+00  0.93800000000E+00  0.93800000000E+00 0.  1.
         11    1    1    2    0    0  0.10603790096E+00  0.31112516331E+00  0.20883572710E+01  0.21140669943E+01  0.51100000000E-03 0.  1.
    9000002    1    1    2    0    0 -0.19530698641E+00 -0.55597716390E+00  0.24173977136E+00  0.11338154800E+01  0.93800000000E+00 0.  1.
         22    1    1    2    0    0  0.89269085452E-01  0.24485200059E+00  0.16699029250E+01  0.16901175257E+01  0.00000000000E+00 0. -1.
</event>
<event>
 5    1  0.3454171E+002  0.1599670E+01  0.7818608E-02  0.3353722E+00
         11   -1    0    0    0    0  0.00000000000E+00  0.00000000000E+00  0.39999999674E+01  0.40000000000E+01  0.51100000000E-03 0. -1.
    9000002   -1    0    0    0    0 -0.00000000000E+00 -0.00000000000E+00  0.00000000000E+00  0.93800000000E+00  0.93800000000E+00 0. -1.
         11    1    1    2    0    0  0.47434837333E-01 -0.44774700531E-01  0.62396941134E+00  0.62736984707E+00  0.51100000000E-03 0. -1.
    9000002    1    1    2    0    0 -0.29425280638E+00  0.29295901092E+00  0.11653209067E+00  0.10323920885E+01  0.93800000000E+00 0. -1.
         22    1    1    2    0    0  0.24681796904E+00 -0.24818431039E+00  0.32594984654E+01  0.32782380645E+01  0.00000000000E+00 0. -1.
</event>
<event>
 5    1  0.3454171E+002  0.1526696E+01  0.7818608E-02  0.3436982E+00
         11   -1    0    0    0    0  0.00000000000E+00  0.00000000000E+00  0.39999999674E+01  0.40000000000E+01  0.51100000000E-03 0.  1.
    9000002   -1    0    0    0    0 -0.00000000000E+00 -0.00000000000E+00  0.00000000000E+00  0.93800000000E+00  0.93800000000E+00 0. -1.
         11    1    1    2    0    0 -0.33589874319E-02 -0.26042953379E+00  0.15251345286E+01  0.15472137591E+01  0.51100000000E-03 0.  1.
    9000002    1    1    2    0    0  0.78485205080E-03 -0.14522601340E+00  0.69789150944E-01  0.95173827103E+00  0.93800000000E+00 0. -1.
         22    1    1    2    0    0  0.25741353811E-02  0.40565554719E+00  0.24050762878E+01  0.24390479699E+01  0.00000000000E+00 0.  1.
</event>
<event>
 5    1  0.3454171E+002  0.1599532E+01  0.7818608E-02  0.3353871E+00
         11   -1    0    0    0    0  0.00000000000E+00  0.00000000000E+00  0.39999999674E+01  0.40000000000E+01  0.51100000000E-03 0. -1.
    9000002   -1    0    0    0    0 -0.00000000000E+00 -0.00000000000E+00  0.00000000000E+00  0.93800000000E+00  0.93800000000E+00 0. -1.
         11    1    1    2    0    0 -0.19231376282E+00 -0.62727292958E+00  0.18356792427E+01  0.19494036152E+01  0.51100000000E-03 0. -1.
    9000002    1    1    2    0    0  0.33737538895E+00  0.10299406376E+01  0.99889540764E+00  0.17470649402E+01  0.93800000000E+00 0. -1.
         22    1    1    2    0    0 -0.14506162613E+00 -0.40266770799E+00  0.11654253170E+01  0.12415314446E+01  0.00000000000E+00 0.  1.
</event>
<event>
 5    1  0.3454171E+002  0.1599676E+01  0.7818608E-02  0.3353715E+00
         11   -1    0    0    0    0  0.00000000000E+00  0.00000000000E+00  0.39999999674E+01  0.40000000000E+01  0.51100000000E-03 0.  1.
    9000002   -1    0    0    0    0 -0.00000000000E+00 -0.00000000000E+00  0.00000000000E+00  0.93800000000E+00  0.93800000000E+00 0.  1.
         11    1    1    2    0    0  0.98887451941E-01  0.24137876394E+00  0.19918652097E+01  0.20088727463E+01  0.51100000000E-03 0.  1.
    9000002    1    1    2    0    0 -0.18901178495E+00 -0.46602961177E+00  0.17321608384E+00  0.10783120446E+01  0.93800000000E+00 0.  1.
         22    1    1    2    0    0  0.90124333006E-01  0.22465084783E+00  0.18349186738E+01  0.18508152091E+01  0.00000000000E+00 0.  1.
</event>
<event>
 5    1  0.3454171E+002  0.1599099E+01  0.7818608E-02  0.3354342E+00
         11   -1    0    0    0    0  0.00000000000E+00  0.00000000000E+00  0.39999999674E+01  0.40000000000E+01  0.51100000000E-03 0.  1.
    9000002   -1    0    0    0    0 -0.00000000000E+00 -0.00000000000E+00  0.00000000000E+00  0.93800000000E+00  0.93800000000E+00 0. -1.
         11    1    1    2    0    0 -0.21992045674E+00  0.15698000746E+00  0.20888564421E+01  0.21062595345E+01  0.51100000000E-03 0.  1.
    9000002    1    1    2    0    0  0.42189411134E+00 -0.23856540095E+00  0.16091664317E+00  0.10680104203E+01  0.93800000000E+00 0. -1.
         22    1    1    2    0    0 -0.20197365460E+00  0.81585393487E-01  0.17502268821E+01  0.17637300452E+01  0.00000000000E+00 0.  1.
</event>
<event>
 5    1  0.3454171E+002  0.1599677E+01  0.7818608E-02  0.3353714E+00
         11   -1    0    0    0    0  0.00000000000E+00  0.00000000000E+00  0.39999999674E+01  0.40000000000E+01  0.51100000000E-03 0.  1.
    9000002   -1    0    0    0    0 -0.00000000000E+00 -0.00000000000E+00  0.00000000000E+00  0.93800000000E+00  0.93800000000E+00 0. -1.
         11    1    1    2    0    0  0.22600706680E+00  0.10462531851E+00  0.20522155516E+01  0.20672722566E+01  0.51100000000E-03 0.  1.
    9000002    1    1    2    0    0 -0.42448475032E+00 -0.19565738581E+00  0.14877120703E+00  0.10585112129E+01  0.93800000000E+00 0. -1.
         22    1    1    2    0    0  0.19847768352E+00  0.91032067301E-01  0.17990132087E+01  0.18122165305E+01  0.00000000000E+00 0.  1.
</event>
<event>
 5    1  0.3454171E+002  0.1599677E+01  0.7818608E-02  0.3353714E+00
         11   -1    0    0    0    0  0.00000000000E+00  0.00000000000E+00  0.39999999674E+01  0.40000000000E+01  0.51100000000E-03 0.  1.
    9000002   -1    0    0    0    0 -0.00000000000E+00 -0.00000000000E+00  0.00000000000E+00  0.93800000000E+00  0.93800000000E+00 0.  1.
         11    1    1    2    0    0  0.15797606109E+00 -0.78001775673E-01  0.17977586365E+01  0.18063712490E+01  0.51100000000E-03 0.  1.
    9000002    1    1    2    0    0 -0.34406990142E+00  0.17038010274E+00  0.99233691355E-01  0.10183834258E+01  0.93800000000E+00 0.  1.
         22    1    1    2    0    0  0.18609384033E+00 -0.92378327063E-01  0.21030076395E+01  0.21132453252E+01  0.00000000000E+00 0.  1.
</event>
<event>
 5    1  0.3454171E+002  0.1599523E+01  0.7818608E-02  0.3353881E+00
         11   -1    0    0    0    0  0.00000000000E+00  0.00000000000E+00  0.39999999674E+01  0.40000000000E+01  0.51100000000E-03 0.  1.
    9000002   -1    0    0    0    0 -0.00000000000E+00 -0.00000000000E+00  0.00000000000E+00  0.93800000000E+00  0.93800000000E+00 0. -1.
         11    1    1    2    0    0  0.47240538970E-02 -0.10273157298E-02  0.32094091817E-01  0.32460189670E-01  0.51100000000E-03 0.  1.
    9000002    1    1    2    0    0 -0.25855152022E+00  0.80209080362E-01  0.48880393224E-01  0.97750482251E+00  0.93800000000E+00 0. -1.
         22    1    1    2    0    0  0.25382746632E+00 -0.79181764632E-01  0.39190254823E+01  0.39280349878E+01  0.00000000000E+00 0.  1.
</event>
<event>
 5    1  0.3454171E+002  0.1599639E+01  0.7818608E-02  0.3353756E+00
         11   -1    0    0    0    0  0.00000000000E+00  0.00000000000E+00  0.39999999674E+01  0.40000000000E+01  0.51100000000E-03 0.  1.
    9000002   -1    0    0    0    0 -0.00000000000E+00 -0.00000000000E+00  0.00000000000E+00  0.93800000000E+00  0.93800000000E+00 0. -1.
         11    1    1    2    0    0 -0.83213281432E-01 -0.12820842155E+00  0.17389378359E+01  0.17456422622E+01  0.51100000000E-03 0.  1.
    9000002    1    1    2    0    0  0.18854404445E+00  0.30518876045E+00  0.86402574837E-01  0.10079674802E+01  0.93800000000E+00 0. -1.
         22    1    1    2    0    0 -0.10533076302E+00 -0.17698033890E+00  0.21746595566E+01  0.21843902576E+01  0.00000000000E+00 0.  1.
</event>
<event>
 5    1  0.3454171E+002  0.1599677E+01  0.7818608E-02  0.3353714E+00
         11   -1    0    0    0    0  0.00000000000E+00  0.00000000000E+00  0.39999999674E+01  0.40000000000E+01  0.51100000000E-03 0.  1.
    9000002   -1    0    0    0    0 -0.00000000000E+00 -0.00000000000E+00  0.00000000000E+00  0.93800000000E+00  0.93800000000E+00 0.  1.
         11    1    1    2    0    0  0.41054432573E-01  0.10255199036E+00  0.12701352483E+01  0.12749298754E+01  0.51100000000E-03 0. -1.
    9000002    1    1    2    0    0 -0.12730847869E+00 -0.31732033546E+00  0.78313444843E-01  0.10014372869E+01  0.93800000000E+00 0.  1.
         22    1    1    2    0    0  0.86254046114E-01  0.21476834511E+00  0.26515512743E+01  0.26616328377E+01  0.00000000000E+00 0.  1.
</event>
<event>
 5    1  0.4535507E+002  0.1569030E+01  0.7818608E-02  0.3387678E+00
         11   -1    0    0    0    0  0.00000000000E+00  0.00000000000E+00  0.39999999674E+01  0.40000000000E+01  0.51100000000E-03 0.  1.
    9000002   -1    0    0    0    0 -0.00000000000E+00 -0.00000000000E+00  0.00000000000E+00  0.93800000000E+00  0.93800000000E+00 0.  1.
         11    1    1    2    0    0 -0.10673056122E+00 -0.10332808107E+00  0.64348919456E+00  0.66041404412E+00  0.51100000000E-03 0.  1.
    9000002    1    1    2    0    0 -0.88789353313E-01  0.33009764156E-01  0.28610013601E-01  0.94320502897E+00  0.93800000000E+00 0.  1.
         22    1    1    2    0    0  0.19551991454E+00  0.70318316913E-01  0.33279007592E+01  0.33343809269E+01  0.00000000000E+00 0.  1.
</event>
<event>
 5    1  0.3454171E+002  0.1599502E+01  0.7818608E-02  0.3353905E+00
         11   -1    0    0    0    0  0.00000000000E+00  0.00000000000E+00  0.39999999674E+01  0.40000000000E+01  0.51100000000E-03 0. -1.
    9000002   -1    0    0    0    0 -0.00000000000E+00 -0.00000000000E+00  0.00000000000E+00  0.93800000000E+00  0.93800000000E+00 0.  1.
         11    1    1    2    0    0  0.33626737807E-01  0.89093019865E-01  0.12771973089E+01  0.12807425778E+01  0.51100000000E-03 0. -1.
    9000002    1    1    2    0    0 -0.14946726158E+00 -0.27064774748E+00  0.63963070782E-01  0.98971002820E+00  0.93800000000E+00 0.  1.
         22    1    1    2    0    0  0.11584052377E+00  0.18155472761E+00  0.26588395877E+01  0.26675473940E+01  0.00000000000E+00 0. -1.
</event>
<event>
 5    1  0.3454171E+002  0.1599441E+01  0.7818608E-02  0.3353970E+00
         11   -1    0    0    0    0  0.00000000000E+00  0.00000000000E+00  0.39999999674E+01  0.40000000000E+01  0.51100000000E-03 0.  1.
    9000002   -1    0    0    0    0 -0.00000000000E+00 -0.00000000000E+00  0.00000000000E+00  0.93800000000E+00  0.93800000000E+00 0.  1.
         11    1    1    2    0    0 -0.70536641497E-01  0.18395923210E-01  0.12653887185E+01  0.12674867643E+01  0.51100000000E-03 0.  1.
    9000002    1    1    2    0    0  0.27399003620E+00 -0.58485592362E-01  0.52452197038E-01  0.98035010962E+00  0.93800000000E+00 0.  1.
         22    1    1    2    0    0 -0.20345339470E+00  0.40089669152E-01  0.26821590519E+01  0.26901631261E+01  0.00000000000E+00 0.  1.
</event>
<event>
 5    1  0.3454171E+002  0.1576014E+01  0.7818608E-02  0.3379815E+00
         11   -1    0    0    0    0  0.00000000000E+00  0.00000000000E+00  0.39999999674E+01  0.40000000000E+01  0.51100000000E-03 0. -1.
    9000002   -1    0    0    0    0 -0.00000000000E+00 -0.00000000000E+00  0.00000000000E+00  0.93800000000E+00  0.93800000000E+00 0.  1.
         11    1    1    2    0    0 -0.43507679356E-01 -0.20725152821E+00  0.19113060627E+01  0.19230021426E+01  0.51100000000E-03 0. -1.
    9000002    1    1    2    0    0 -0.24135149701E+00  0.23926305579E+00  0.96541814650E-01  0.10023281284E+01  0.93800000000E+00 0.  1.
         22    1    1    2    0    0  0.28485917637E+00 -0.32011527582E-01  0.19921520900E+01  0.20126697290E+01  0.00000000000E+00 0. -1.
</event>
<event>
 5    1  0.3454171E+002  0.1506548E+01  0.7818608E-02  0.3461488E+00
         11   -1    0    0    0    0  0.00000000000E+00  0.00000000000E+00  0.39999999674E+01  0.40000000000E+01  0.51100000000E-03 0. -1.
    9000002   -1    0    0    0    0 -0.00000000000E+00 -0.00000000000E+00  0.00000000000E+00  0.93800000000E+00  0.93800000000E+00 0.  1.
         11    1    1    2    0    0 -0.36145261197E+00 -0.71813367094E-01  0.25783018722E+01  0.26045049348E+01  0.51100000000E-03 0. -1.
    9000002    1    1    2    0    0  0.58280453183E-01 -0.91414806723E-01  0.79217068384E-01  0.94756140805E+00  0.93800000000E+00 0.  1.
         22    1    1    2    0    0  0.30317215879E+00  0.16322817382E+00  0.13424810268E+01  0.13859336571E+01  0.00000000000E+00 0. -1.
</event>
<event>
 5    1  0.3454171E+002  0.1599178E+01  0.7818608E-02  0.3354256E+00
         11   -1    0    0    0    0  0.00000000000E+00  0.00000000000E+00  0.39999999674E+01  0.40000000000E+01  0.51100000000E-03 0.  1.
    9000002   -1    0    0    0    0 -0.00000000000E+00 -0.00000000000E+00  0.00000000000E+00  0.93800000000E+00  0.93800000000E+00 0.  1.
         11    1    1    2    0    0 -0.21001411301E+00 -0.97558325295E-02  0.18228364011E+01  0.18349206823E+01  0.51100000000E-03 0.  1.
    9000002    1    1    2    0    0  0.40917571984E+00  0.63332725692E-01  0.11626891412E+00  0.10318906261E+01  0.93800000000E+00 0.  1.
         22    1    1    2    0    0 -0.19916160683E+00 -0.53576893162E-01  0.20608946521E+01  0.20711886916E+01  0.00000000000E+00 0.  1.
</event>
<event>
 5    1  0.3454171E+002  0.1599448E+01  0.7818608E-02  0.3353962E+00
         11   -1    0    0    0    0  0.00000000000E+00  0.00000000000E+00  0.39999999674E+01  0.40000000000E+01  0.51100000000E-03 0. -1.
    9000002   -1    0    0    0    0 -0.00000000000E+00 -0.00000000000E+00  0.00000000000E+00  0.93800000000E+00  0.93800000000E+00 0.  1.
         11    1    1    2    0    0  0.10702348503E+00  0.21361053978E+00  0.20103590835E+01  0.20245067041E+01  0.51100000000E-03 0. -1.
    9000002    1    1    2    0    0 -0.22701722038E+00 -0.38289983241E+00  0.13468074111E+00  0.10469632286E+01  0.93800000000E+00 0.  1.
         22    1    1    2    0    0  0.11999373535E+00  0.16928929262E+00  0.18549601427E+01  0.18665300673E+01  0.00000000000E+00 0. -1.
</event>
<event>
 5    1  0.3454171E+002  0.1599499E+01  0.7818608E-02  0.3353908E+00
         11   -1    0    0    0    0  0.00000000000E+00  0.00000000000E+00  0.39999999674E+01  0.40000000000E+01  0.51100000000E-03 0. -1.
    9000002   -1    0    0    0    0 -0.00000000000E+00 -0.00000000000E+00  0.00000000000E+00  0.93800000000E+00  0.93800000000E+00 0. -1.
         11    1    1    2    0    0 -0.14697819717E+00  0.54545631182E-01  0.12124820441E+01  0.12225754720E+01  0.51100000000E-03 0. -1.
    9000002    1    1    2    0    0  0.48244884886E+00 -0.21376268896E+00  0.19169980552E+00  0.10931807693E+01  0.93800000000E+00 0. -1.
         22    1    1    2    0    0 -0.33547065169E+00  0.15921705778E+00  0.25958181178E+01  0.26222437587E+01  0.00000000000E+00 0. -1.
</event>
<event>
 5    1  0.3454171E+002  0.1599663E+01  0.7818608E-02  0.3353729E+00
         11   -1    0    0    0    0  0.00000000000E+00  0.00000000000E+00  0.39999999674E+01  0.40000000000E+01  0.51100000000E-03 0.  1.
    9000002   -1    0    0    0    0 -0.00000000000E+00 -0.00000000000E+00  0.00000000000E+00  0.93800000000E+00  0.93800000000E+00 0.  1.
         11    1    1    2    0    0 -0.41235581242E+00  0.26308603038E+00  0.25356019850E+01  0.25823495625E+01  0.51100000000E-03 0.  1.
    9000002    1    1    2    0    0  0.59347622340E+00 -0.38373955802E+00  0.35762602873E+00  0.12276849973E+01  0.93800000000E+00 0.  1.
         22    1    1    2    0    0 -0.18112041098E+00  0.12065352764E+00  0.11067719536E+01  0.11279654402E+01  0.00000000000E+00 0. -1.
</event>
<event>
 5    1  0.3454171E+002  0.1599624E+01  0.7818608E-02  0.3353771E+00
         11   -1    0    0    0    0  0.00000000000E+00  0.00000000000E+00  0.39999999674E+01  0.40000000000E+01  0.51100000000E-03 0.  1.
    9000002   -1    0    0    0    0 -0.00000000000E+00 -0.00000000000E+00  0.00000000000E+00  0.93800000000E+00  0.93800000000E+00 0.  1.
         11    1    1    2    0    0  0.58400774530E-01 -0.15523710451E-01  0.92005647431E+00  0.92203894337E+00  0.51100000000E-03 0.  1.
    9000002    1    1    2    0    0 -0.27476150722E+00  0.46124345447E-01  0.51723791679E-01  0.97986769092E+00  0.93800000000E+00 0.  1.
         22    1    1    2    0    0  0.21636073269E+00 -0.30600634996E-01  0.30282197014E+01  0.30360933657E+01  0.00000000000E+00 0.  1.
</event>
<event>
 5    1  0.3454171E+002  0.1599668E+01  0.7818608E-02  0.3353724E+00
         11   -1    0    0    0    0  0.00000000000E+00  0.00000000000E+00  0.39999999674E+01  0.40000000000E+01  0.51100000000E-03 0. -1.
    9000002   -1    0    0    0    0 -0.00000000000E+00 -0.00000000000E+00  0.00000000000E+00  0.93800000000E+00  0.93800000000E+00 0. -1.
         11    1    1    2    0    0 -0.15247437776E+00  0.52175205983E-01  0.94769394988E+00  0.96129848213E+00  0.51100000000E-03 0. -1.
    9000002    1    1    2    0    0  0.60562146454E+00 -0.19505619968E+00  0.28474748303E+00  0.11686528177E+01  0.93800000000E+00 0. -1.
         22    1    1    2    0    0 -0.45314708678E+00  0.14288099370E+00  0.27675585345E+01  0.28080487001E+01  0.00000000000E+00 0. -1.
</event>
<event>
 5    1  0.3454171E+002  0.1549619E+01  0.7818608E-02  0.3409928E+00
         11   -1    0    0    0    0  0.00000000000E+00  0.00000000000E+00  0.39999999674E+01  0.40000000000E+01  0.51100000000E-03 0. -1.
    9000002   -1    0    0    0    0 -0.00000000000E+00 -0.00000000000E+00  0.00000000000E+00  0.93800000000E+00  0.93800000000E+00 0.  1.
         11    1    1    2    0    0 -0.15583636804E-01  0.99095445765E-01  0.11891725044E+00  0.15557741057E+00  0.51100000000E-03 0. -1.
    9000002    1    1    2    0    0  0.20651764984E+00 -0.25917640817E-01  0.67307266046E-01  0.96316952395E+00  0.93800000000E+00 0.  1.
         22    1    1    2    0    0 -0.19093401304E+00 -0.73177804948E-01  0.38137754509E+01  0.38192530655E+01  0.00000000000E+00 0. -1.
</event>
<event>
 5    1  0.3454171E+002  0.1599675E+01  0.7818608E-02  0.3353716E+00
         11   -1    0    0    0    0  0.00000000000E+00  0.00000000000E+00  0.39999999674E+01  0.40000000000E+01  0.51100000000E-03 0. -1.
    9000002   -1    0    0    0    0 -0.00000000000E+00 -0.00000000000E+00  0.00000000000E+00  0.93800000000E+00  0.93800000000E+00 0. -1.
         11    1    1    2    0    0 -0.13929867780E+00 -0.52008530408E-01  0.15810402504E+01  0.15880168586E+01  0.51100000000E-03 0. -1.
    9000002    1    1    2    0    0  0.34813814990E+00  0.12810181843E+00  0.92491254497E-01  0.10129209641E+01  0.93800000000E+00 0. -1.
         22    1    1    2    0    0 -0.20883947210E+00 -0.76093288023E-01  0.23264684625E+01  0.23370621773E+01  0.00000000000E+00 0. -1.
</event>
<event>
 5    1  0.3454171E+002  0.1599671E+01  0.7818608E-02  0.3353721E+00
         11   -1    0    0    0    0  0.00000000000E+00  0.00000000000E+00  0.39999999674E+01  0.40000000000E+01  0.51100000000E-03 0. -1.
    9000002   -1    0    0    0    0 -0.00000000000E+00 -0.00000000000E+00  0.00000000000E+00  0.93800000000E+00  0.93800000000E+00 0.  1.
         11    1    1    2    0    0 -0.19087400364E+00  0.40160170996E-01  0.16578807441E+01  0.16693155926E+01  0.51100000000E-03 0. -1.
    9000002    1    1    2    0    0  0.43817418314E+00 -0.91983623988E-01  0.13610730526E+00  0.10482493980E+01  0.93800000000E+00 0.  1.
         22    1    1    2    0    0 -0.24730017950E+00  0.51823452992E-01  0.22060119179E+01  0.22204350095E+01  0.00000000000E+00 0. -1.
</event>
<event>
 5    1  0.3454171E+002  0.1599676E+01  0.7818608E-02  0.3353715E+00
         11   -1    0    0    0    0  0.00000000000E+00  0.00000000000E+00  0.39999999674E+01  0.40000000000E+01  0.51100000000E-03 0. -1.
    9000002   -1    0    0    0    0 -0.00000000000E+00 -0.00000000000E+00  0.00000000000E+00  0.93800000000E+00  0.93800000000E+00 0.  1.
         11    1    1    2    0    0 -0.35103911161E-01 -0.20126842963E-01  0.60578765204E+00  0.60713780550E+00  0.51100000000E-03 0. -1.
    9000002    1    1    2    0    0  0.22512633688E+00  0.12896622639E+00  0.44749817266E-01  0.97424878817E+00  0.93800000000E+00 0.  1.
         22    1    1    2    0    0 -0.19002242571E+00 -0.10883938343E+00  0.33494624981E+01  0.33566134063E+01  0.00000000000E+00 0. -1.
</event>
<event>
 5    1  0.3454171E+002  0.1599677E+01  0.7818608E-02  0.3353714E+00
         11   -1    0    0    0    0  0.00000000000E+00  0.00000000000E+00  0.39999999674E+01  0.40000000000E+01  0.51100000000E-03 0. -1.
    9000002   -1    0    0    0    0 -0.00000000000E+00 -0.00000000000E+00  0.00000000000E+00  0.93800000000E+00  0.93800000000E+00 0. -1.
         11    1    1    2    0    0  0.25233273902E+00  0.21181112855E+00  0.12502416939E+01  0.12929193013E+01  0.51100000000E-03 0. -1.
    9000002    1    1    2    0    0 -0.68350202351E+00 -0.57315418832E+00  0.60694644220E+00  0.14296533578E+01  0.93800000000E+00 0. -1.
         22    1    1    2    0    0  0.43116928449E+00  0.36134305976E+00  0.21428118312E+01  0.22154273409E+01  0.00000000000E+00 0. -1.
</event>
<event>
 5    1  0.3454171E+002  0.1599645E+01  0.7818608E-02  0.3353748E+00
         11   -1    0    0    0    0  0.00000000000E+00  0.00000000000E+00  0.39999999674E+01  0.40000000000E+01  0.51100000000E-03 0.  1.
    9000002   -1    0    0    0    0 -0.00000000000E+00 -0.00000000000E+00  0.00000000000E+00  0.93800000000E+00  0.93800000000E+00 0. -1.
         11    1    1    2    0    0 -0.35891707295E+00 -0.83063540246E-01  0.19944909711E+01  0.20282296497E+01  0.51100000000E-03 0.  1.
    9000002    1    1    2    0    0  0.66928502279E+00  0.15993132680E+00  0.33738354532E+00  0.12112770648E+01  0.93800000000E+00 0. -1.
         22    1    1    2    0    0 -0.31036794984E+00 -0.76867786558E-01  0.16681254510E+01  0.16984932855E+01  0.00000000000E+00 0.  1.
</event>
<event>
 5    1  0.3454171E+002  0.1598293E+01  0.7818608E-02  0.3355218E+00
         11   -1    0    0    0    0  0.00000000000E+00  0.00000000000E+00  0.39999999674E+01  0.40000000000E+01  0.51100000000E-03 0. -1.
    9000002   -1    0    0    0    0 -0.00000000000E+00 -0.00000000000E+00  0.00000000000E+00  0.93800000000E+00  0.93800000000E+00 0. -1.
         11    1    1    2    0    0 -0.12930409277E+00 -0.31857041837E-01  0.13803549940E+01  0.13867640716E+01  0.51100000000E-03 0. -1.
    9000002    1    1    2    0    0  0.33733895012E+00 -0.27203242777E-01  0.77809788082E-01  0.10002179497E+01  0.93800000000E+00 0. -1.
         22    1    1    2    0    0 -0.20803485736E+00  0.59060284614E-01  0.25418351852E+01  0.25510179788E+01  0.00000000000E+00 0. -1.
</event>
<event>
 5    1  0.3454171E+002  0.1547351E+01  0.7818608E-02  0.3412567E+00
         11   -1    0    0    0    0  0.00000000000E+00  0.00000000000E+00  0.39999999674E+01  0.40000000000E+01  0.51100000000E-03 0.  1.
    9000002   -1    0    0    0    0 -0.00000000000E+00 -0.00000000000E+00  0.00000000000E+00  0.93800000000E+00  0.93800000000E+00 0.  1.
         11    1    1    2    0    0 -0.12095070165E+00 -0.63865657987E-01  0.29394106123E+00  0.32420595784E+00  0.51100000000E-03 0.  1.
    9000002    1    1    2    0    0 -0.16165594650E+00  0.13152811511E-01  0.57178450872E-01  0.95363463482E+00  0.93800000000E+00 0.  1.
         22    1    1    2    0    0  0.28260664815E+00  0.50712846476E-01  0.36488804553E+01  0.36601594073E+01  0.00000000000E+00 0.  1.
</event>
<event>
 5    1  0.3454171E+002  0.1599677E+01  0.7818608E-02  0.3353714E+00
         11   -1    0    0    0    0  0.00000000000E+00  0.00000000000E+00  0.39999999674E+01  0.40000000000E+01  0.51100000000E-03 0. -1.
    9000002   -1    0    0    0    0 -0.00000000000E+00 -0.00000000000E+00  0.00000000000E+00  0.93800000000E+00  0.93800000000E+00 0. -1.
         11    1    1    2    0    0  0.32240934725E-01  0.21832771857E+00  0.11987419764E+01  0.12188884517E+01  0.51100000000E-03 0. -1.
    9000002    1    1    2    0    0 -0.99123225571E-01 -0.66842973491E+00  0.32427232719E+00  0.12006749213E+01  0.93800000000E+00 0. -1.
         22    1    1    2    0    0  0.66882290846E-01  0.45010201635E+00  0.24769856638E+01  0.25184366271E+01  0.00000000000E+00 0. -1.
</event>
<event>
 5    1  0.3454171E+002  0.1593926E+01  0.7818608E-02  0.3359982E+00
         11   -1    0    0    0    0  0.00000000000E+00  0.00000000000E+00  0.39999999674E+01  0.40000000000E+01  0.51100000000E-03 0.  1.
    9000002   -1    0    0    0    0 -0.00000000000E+00 -0.00000000000E+00  0.00000000000E+00  0.93800000000E+00  0.93800000000E+00 0. -1.
         11    1    1    2    0    0  0.49238487772E-02  0.46304511171E-01  0.69565974864E+00  0.69721668012E+00  0.51100000000E-03 0.  1.
    9000002    1    1    2    0    0 -0.14417010443E+00  0.11425040832E+00  0.26679350445E-01  0.95623949017E+00  0.93800000000E+00 0. -1.
         22    1    1    2    0    0  0.13924625565E+00 -0.16055491949E+00  0.32776608683E+01  0.32845438297E+01  0.00000000000E+00 0.  1.
</event>
<event>
 5    1  0.3454171E+002  0.1599608E+01  0.7818608E-02  0.3353789E+00
         11   -1    0    0    0    0  0.00000000000E+00  0.00000000000E+00  0.39999999674E+01  0.40000000000E+01  0.51100000000E-03 0.  1.
    9000002   -1    0    0    0    0 -0.00000000000E+00 -0.00000000000E+00  0.00000000000E+00  0.93800000000E+00  0.93800000000E+00 0. -1.
         11    1    1    2    0    0  0.63310143937E-02  0.92080613227E-02  0.20722278245E+00  0.20752448729E+00  0.51100000000E-03 0.  1.
    9000002    1    1    2    0    0 -0.50823752739E-01 -0.22358066944E+00  0.34922130353E-01  0.96624785887E+00  0.93800000000E+00 0. -1.
         22    1    1    2    0    0  0.44492738345E-01  0.21437260811E+00  0.37578550546E+01  0.37642276538E+01  0.00000000000E+00 0.  1.
</event>
<event>
 5    1  0.3454171E+002  0.1599080E+01  0.7818608E-02  0.3354362E+00
         11   -1    0    0    0    0  0.00000000000E+00  0.00000000000E+00  0.39999999674E+01  0.40000000000E+01  0.51100000000E-03 0.  1.
    9000002   -1    0    0    0    0 -0.00000000000E+00 -0.00000000000E+00  0.00000000000E+00  0.93800000000E+00  0.93800000000E+00 0.  1.
         11    1    1    2    0    0 -0.93345468818E-02  0.49446359531E-02  0.22353135773E+00  0.22378139377E+00  0.51100000000E-03 0.  1.
    9000002    1    1    2    0    0  0.72958523381E-01 -0.30838214456E+00  0.67573129065E-01  0.99238733415E+00  0.93800000000E+00 0.  1.
         22    1    1    2    0    0 -0.63623976500E-01  0.30343750861E+00  0.37088954806E+01  0.37218312721E+01  0.00000000000E+00 0.  1.
</event>
<event>
 5    1  0.3454171E+002  0.1569699E+01  0.7818608E-02  0.3386922E+00
         11   -1    0    0    0    0  0.00000000000E+00  0.00000000000E+00  0.39999999674E+01  0.40000000000E+01  0.51100000000E-03 0. -1.
    9000002   -1    0    0    0    0 -0.00000000000E+00 -0.00000000000E+00  0.00000000000E+00  0.93800000000E+00  0.93800000000E+00 0.  1.
         11    1    1    2    0    0  0.67738485209E+00  0.22387018211E+00  0.22828752050E+01  0.23917540757E+01  0.51100000000E-03 0. -1.
    9000002    1    1    2    0    0 -0.89269313490E+00 -0.54209113595E+00  0.97061668500E+00  0.17066647538E+01  0.93800000000E+00 0.  1.
         22    1    1    2    0    0  0.21530828281E+00  0.31822095384E+00  0.74650807741E+00  0.83958117044E+00  0.00000000000E+00 0. -1.
</event>
<event>
 5    1  0.3454171E+002  0.1599665E+01  0.7818608E-02  0.3353727E+00
         11   -1    0    0    0    0  0.00000000000E+00  0.00000000000E+00  0.39999999674E+01  0.40000000000E+01  0.51100000000E-03 0.  1.
    9000002   -1    0    0    0    0 -0.00000000000E+00 -0.00000000000E+00  0.00000000000E+00  0.93800000000E+00  0.93800000000E+00 0. -1.
         11    1    1    2    0    0  0.12622682668E+00 -0.78875880089E-01  0.11914723683E+01  0.12007336431E+01  0.51100000000E-03 0.  1.
    9000002    1    1    2    0    0 -0.39614982814E+00  0.25994804861E+00  0.15304678320E+00  0.10619675099E+01  0.93800000000E+00 0. -1.
         22    1    1    2    0    0  0.26992300146E+00 -0.18107216852E+00  0.26554808159E+01  0.26752988470E+01  0.00000000000E+00 0.  1.
</event>
<event>
 5    1  0.3454171E+002  0.1599665E+01  0.7818608E-02  0.3353727E+00
         11   -1    0    0    0    0  0.00000000000E+00  0.00000000000E+00  0.39999999674E+01  0.40000000000E+01  0.51100000000E-03 0.  1.
    9000002   -1    0    0    0    0 -0.00000000000E+00 -0.00000000000E+00  0.00000000000E+00  0.93800000000E+00  0.93800000000E+00 0. -1.
         11    1    1    2    0    0 -0.70062057911E-01 -0.19855502409E+00  0.19956702879E+01  0.20067468571E+01  0.51100000000E-03 0.  1.
    9000002    1    1    2    0    0  0.14443372207E+00  0.38751998427E+00  0.11558010423E+00  0.10316179519E+01  0.93800000000E+00 0. -1.
         22    1    1    2    0    0 -0.74371664161E-01 -0.18896496018E+00  0.18887495753E+01  0.18996351909E+01  0.00000000000E+00 0.  1.
</event>
<event>
 5    1  0.3454171E+002  0.1572500E+01  0.7818608E-02  0.3383762E+00
         11   -1    0    0    0    0  0.00000000000E+00  0.00000000000E+00  0.39999999674E+01  0.40000000000E+01  0.51100000000E-03 0.  1.
    9000002   -1    0    0    0    0 -0.00000000000E+00 -0.00000000000E+00  0.00000000000E+00  0.93800000000E+00  0.93800000000E+00 0.  1.
         11    1    1    2    0    0  0.70494216105E-01 -0.43268234083E-01  0.19891942773E+00  0.21543160036E+00  0.51100000000E-03 0.  1.
    9000002    1    1    2    0    0  0.16049411281E+00  0.71755174304E-01  0.40917636209E-01  0.95520962005E+00  0.93800000000E+00 0.  1.
         22    1    1    2    0    0 -0.23098832892E+00 -0.28486940221E-01  0.37601629034E+01  0.37673587796E+01  0.00000000000E+00 0.  1.
</event>
<event>
 5    1  0.3454171E+002  0.1599470E+01  0.7818608E-02  0.3353939E+00
         11   -1    0    0    0    0  0.00000000000E+00  0.00000000000E+00  0.39999999674E+01  0.40000000000E+01  0.51100000000E-03 0.  1.
    9000002   -1    0    0    0    0 -0.00000000000E+00 -0.00000000000E+00  0.00000000000E+00  0.93800000000E+00  0.93800000000E+00 0. -1.
         11    1    1    2    0    0 -0.35668526172E-01 -0.12036901784E-02  0.66928733779E+00  0.67023838616E+00  0.51100000000E-03 0.  1.
    9000002    1    1    2    0    0  0.27093259503E+00 -0.40285164556E-01  0.50096127879E-01  0.97845847513E+00  0.93800000000E+00 0. -1.
         22    1    1    2    0    0 -0.23526406886E+00  0.41488854735E-01  0.32806165017E+01  0.32893031387E+01  0.00000000000E+00 0.  1.
</event>
<event>
 5    1  0.3454171E+002  0.1599413E+01  0.7818608E-02  0.3354000E+00
         11   -1    0    0    0    0  0.00000000000E+00  0.00000000000E+00  0.39999999674E+01  0.40000000000E+01  0.51100000000E-03 0.  1.
    9000002   -1    0    0    0    0 -0.00000000000E+00 -0.00000000000E+00  0.00000000000E+00  0.93800000000E+00  0.93800000000E+00 0.  1.
         11    1    1    2    0    0 -0.66210293729E-01 -0.18660362007E+00  0.16066362716E+01  0.16187912417E+01  0.51100000000E-03 0.  1.
    9000002    1    1    2    0    0  0.18617828232E+00  0.47958744775E+00  0.18186812732E+00  0.10851665718E+01  0.93800000000E+00 0.  1.
         22    1    1    2    0    0 -0.11996798859E+00 -0.29298382768E+00  0.22114955685E+01  0.22340421865E+01  0.00000000000E+00 0.  1.
</event>
<event>
 5    1  0.3454171E+002  0.1599677E+01  0.7818608E-02  0.3353714E+00
         11   -1    0    0    0    0  0.00000000000E+00  0.00000000000E+00  0.39999999674E+01  0.40000000000E+01  0.51100000000E-03 0. -1.
    9000002   -1    0    0    0    0 -0.00000000000E+00 -0.00000000000E+00  0.00000000000E+00  0.93800000000E+00  0.93800000000E+00 0. -1.
         11    1    1    2    0    0 -0.30316443171E-01 -0.58972684177E-01  0.86878299095E+00  0.87130993951E+00  0.51100000000E-03 0.  1.
    9000002    1    1    2    0    0  0.13783967646E+00  0.26611303116E+00  0.59915706986E-01  0.98653424355E+00  0.93800000000E+00 0. -1.
         22    1    1    2    0    0 -0.10752323328E+00 -0.20714034698E+00  0.30713012694E+01  0.30801558169E+01  0.00000000000E+00 0. -1.
</event>
<event>
 5    1  0.3454171E+002  0.1560745E+01  0.7818608E-02  0.3397103E+00
         11   -1    0    0    0    0  0.00000000000E+00  0.00000000000E+00  0.39999999674E+01  0.40000000000E+01  0.51100000000E-03 0. -1.
    9000002   -1    0    0    0    0 -0.00000000000E+00 -0.00000000000E+00  0.00000000000E+00  0.93800000000E+00  0.93800000000E+00 0.  1.
         11    1    1    2    0    0 -0.10855425174E+00  0.58788957564E-01  0.33983652497E+00  0.36156505905E+00  0.51100000000E-03 0. -1.
    9000002    1    1    2    0    0 -0.30234177055E+00 -0.45305544623E+00  0.24223349642E+00  0.11113914029E+01  0.93800000000E+00 0.  1.
         22    1    1    2    0    0  0.41089602229E+00  0.39426648867E+00  0.34179299460E+01  0.34650435381E+01  0.00000000000E+00 0. -1.
</event>
<event>
 5    1  0.3454171E+002  0.1559943E+01  0.7818608E-02  0.3398022E+00
         11   -1    0    0    0    0  0.00000000000E+00  0.00000000000E+00  0.39999999674E+01  0.40000000000E+01  0.51100000000E-03 0.  1.
    9000002   -1    0    0    0    0 -0.00000000000E+00 -0.00000000000E+00  0.00000000000E+00  0.93800000000E+00  0.93800000000E+00 0. -1.
         11    1    1    2    0    0  0.22768805603E+00  0.11112110920E-01  0.14278446074E+01  0.14459273197E+01  0.51100000000E-03 0.  1.
    9000002    1    1    2    0    0  0.26429351804E-02 -0.10989373424E+00  0.37611187516E-01  0.94516782603E+00  0.93800000000E+00 0. -1.
         22    1    1    2    0    0 -0.23033099121E+00  0.98781623322E-01  0.25345441725E+01  0.25469048543E+01  0.00000000000E+00 0. -1.
</event>
<event>
 5    1  0.3454171E+002  0.1585249E+01  0.7818608E-02  0.3369531E+00
         11   -1    0    0    0    0  0.00000000000E+00  0.00000000000E+00  0.39999999674E+01  0.40000000000E+01  0.51100000000E-03 0.  1.
    9000002   -1    0    0    0    0 -0.00000000000E+00 -0.00000000000E+00  0.00000000000E+00  0.93800000000E+00  0.93800000000E+00 0.  1.
         11    1    1    2    0    0  0.83442015614E-01 -0.17556553497E+00  0.16664834771E+01  0.16777822468E+01  0.51100000000E-03 0.  1.
    9000002    1    1    2    0    0 -0.37187184842E+00  0.12682387243E+00  0.11607749646E+00  0.10235677562E+01  0.93800000000E+00 0.  1.
         22    1    1    2    0    0  0.28842983280E+00  0.48741662544E-01  0.22174389938E+01  0.22366499970E+01  0.00000000000E+00 0.  1.
</event>
<event>
 5    1  0.3454171E+002  0.1599462E+01  0.7818608E-02  0.3353948E+00
         11   -1    0    0    0    0  0.00000000000E+00  0.00000000000E+00  0.39999999674E+01  0.40000000000E+01  0.51100000000E-03 0. -1.
    9000002   -1    0    0    0    0 -0.00000000000E+00 -0.00000000000E+00  0.00000000000E+00  0.93800000000E+00  0.93800000000E+00 0.  1.
         11    1    1    2    0    0  0.19230264933E+00  0.26619820668E-01  0.16237180882E+01  0.16352827324E+01  0.51100000000E-03 0. -1.
    9000002    1    1    2    0    0 -0.48186288269E+00 -0.31605984283E-01  0.15937542487E+00  0.10669748366E+01  0.93800000000E+00 0.  1.
         22    1    1    2    0    0  0.28956023337E+00  0.49861636155E-02  0.22169064543E+01  0.22357424310E+01  0.00000000000E+00 0. -1.
</event>
<event>
 5    1  0.3454171E+002  0.1599675E+01  0.7818608E-02  0.3353716E+00
         11   -1    0    0    0    0  0.00000000000E+00  0.00000000000E+00  0.39999999674E+01  0.40000000000E+01  0.51100000000E-03 0.  1.
    9000002   -1    0    0    0    0 -0.00000000000E+00 -0.00000000000E+00  0.00000000000E+00  0.93800000000E+00  0.93800000000E+00 0.  1.
         11    1    1    2    0    0 -0.19796021236E-01  0.75932634941E-01  0.11099033552E+01  0.11126739713E+01  0.51100000000E-03 0.  1.
    9000002    1    1    2    0    0  0.65335407241E-01 -0.27234607171E+00  0.52237143365E-01  0.98031312210E+00  0.93800000000E+00 0.  1.
         22    1    1    2    0    0 -0.45539386006E-01  0.19641343677E+00  0.28378594688E+01  0.28450129066E+01  0.00000000000E+00 0.  1.
</event>
<event>
 5    1  0.3454171E+002  0.1585054E+01  0.7818608E-02  0.3369747E+00
         11   -1    0    0    0    0  0.00000000000E+00  0.00000000000E+00  0.39999999674E+01  0.40000000000E+01  0.51100000000E-03 0. -1.
    9000002   -1    0    0    0    0 -0.00000000000E+00 -0.00000000000E+00  0.00000000000E+00  0.93800000000E+00  0.93800000000E+00 0.  1.
         11    1    1    2    0    0  0.11305295371E+00  0.87262423626E-01  0.20886573989E+01  0.20935342586E+01  0.51100000000E-03 0. -1.
    9000002    1    1    2    0    0 -0.21488358846E+00  0.10982821379E+00  0.49878853912E-01  0.96982941449E+00  0.93800000000E+00 0.  1.
         22    1    1    2    0    0  0.10183063475E+00 -0.19709063742E+00  0.18614637145E+01  0.18746363269E+01  0.00000000000E+00 0. -1.
</event>
<event>
 5    1  0.3454171E+002  0.1599196E+01  0.7818608E-02  0.3354236E+00
         11   -1    0    0    0    0  0.00000000000E+00  0.00000000000E+00  0.39999999674E+01  0.40000000000E+01  0.51100000000E-03 0.  1.
    9000002   -1    0    0    0    0 -0.00000000000E+00 -0.00000000000E+00  0.00000000000E+00  0.93800000000E+00  0.93800000000E+00 0.  1.
         11    1    1    2    0    0 -0.20184845313E+00 -0.35977576791E-01  0.21256932915E+01  0.21355583379E+01  0.51100000000E-03 0.  1.
    9000002    1    1    2    0    0  0.41488774569E+00  0.78174426952E-01  0.12098898851E+00  0.10357245859E+01  0.93800000000E+00 0.  1.
         22    1    1    2    0    0 -0.21303929257E+00 -0.42196850161E-01  0.17533176874E+01  0.17667170762E+01  0.00000000000E+00 0.  1.
</event>
<event>
 5    1  0.3454171E+002  0.1599676E+01  0.7818608E-02  0.3353715E+00
         11   -1    0    0    0    0  0.00000000000E+00  0.00000000000E+00  0.39999999674E+01  0.40000000000E+01  0.51100000000E-03 0.  1.
    9000002   -1    0    0    0    0 -0.00000000000E+00 -0.00000000000E+00  0.00000000000E+00  0.93800000000E+00  0.93800000000E+00 0.  1.
         11    1    1    2    0    0  0.16246560456E-01  0.67507070610E-02  0.22953708204E+00  0.23021089446E+00  0.51100000000E-03 0. -1.
    9000002    1    1    2    0    0 -0.27507787337E+00 -0.11537560162E+00  0.59350442544E-01  0.98607598130E+00  0.93800000000E+00 0.  1.
         22    1    1    2    0    0  0.25883131291E+00  0.10862489456E+00  0.37111124428E+01  0.37217131242E+01  0.00000000000E+00 0.  1.
</event>
<event>
 5    1  0.3454171E+002  0.1599677E+01  0.7818608E-02  0.3353714E+00
         11   -1    0    0    0    0  0.00000000000E+00  0.00000000000E+00  0.39999999674E+01  0.40000000000E+01  0.51100000000E-03 0.  1.
    9000002   -1    0    0    0    0 -0.00000000000E+00 -0.00000000000E+00  0.00000000000E+00  0.93800000000E+00  0.93800000000E+00 0.  1.
         11    1    1    2    0    0 -0.11165322634E+00  0.17422464924E+00  0.19097495316E+01  0.19209279544E+01  0.51100000000E-03 0.  1.
    9000002    1    1    2    0    0  0.22775682976E+00 -0.35468820636E+00  0.12018866805E+00  0.10353580121E+01  0.93800000000E+00 0.  1.
         22    1    1    2    0    0 -0.11610360342E+00  0.18046355712E+00  0.19700617677E+01  0.19817140336E+01  0.00000000000E+00 0.  1.
</event>
<event>
 5    1  0.3454171E+002  0.1582928E+01  0.7818608E-02  0.3372104E+00
         11   -1    0    0    0    0  0.00000000000E+00  0.00000000000E+00  0.39999999674E+01  0.40000000000E+01  0.51100000000E-03 0.  1.
    9000002   -1    0    0    0    0 -0.00000000000E+00 -0.00000000000E+00  0.00000000000E+00  0.93800000000E+00  0.93800000000E+00 0. -1.
         11    1    1    2    0    0  0.36490959654E-02 -0.15223388544E-01  0.25320952050E-02  0.15866319273E-01  0.51100000000E-03 0.  1.
    9000002    1    1    2    0    0 -0.14091726544E+00  0.24859612630E+00  0.67534541585E-01  0.98288484779E+00  0.93800000000E+00 0. -1.
         22    1    1    2    0    0  0.13726816947E+00 -0.23337273775E+00  0.39299333306E+01  0.39392488329E+01  0.00000000000E+00 0.  1.
</event>
<event>
 5    1  0.3454171E+002  0.1599676E+01  0.7818608E-02  0.3353715E+00
         11   -1    0    0    0    0  0.00000000000E+00  0.00000000000E+00  0.39999999674E+01  0.40000000000E+01  0.51100000000E-03 0.  1.
    9000002   -1    0    0    0    0 -0.00000000000E+00 -0.00000000000E+00  0.00000000000E+00  0.93800000000E+00  0.93800000000E+00 0.  1.
         11    1    1    2    0    0 -0.89995437760E-01  0.17521821982E+00  0.18544682271E+01  0.18649003378E+01  0.51100000000E-03 0.  1.
    9000002    1    1    2    0    0  0.18994391495E+00 -0.36554552791E+00  0.11464685398E+00  0.10308686264E+01  0.93800000000E+00 0.  1.
         22    1    1    2    0    0 -0.99948477186E-01  0.19032730810E+00  0.20308848863E+01  0.20422310358E+01  0.00000000000E+00 0. -1.
</event>
<event>
 5    1  0.3454171E+002  0.1575639E+01  0.7818608E-02  0.3380236E+00
         11   -1    0    0    0    0  0.00000000000E+00  0.00000000000E+00  0.39999999674E+01  0.40000000000E+01  0.51100000000E-03 0.  1.
    9000002   -1    0    0    0    0 -0.00000000000E+00 -0.00000000000E+00  0.00000000000E+00  0.93800000000E+00  0.93800000000E+00 0. -1.
         11    1    1    2    0    0 -0.13279960739E+00 -0.32607235641E-01  0.78768347180E+00  0.79946512145E+00  0.51100000000E-03 0.  1.
    9000002    1    1    2    0    0 -0.79832373353E-01  0.22949320328E+00  0.57743397533E-01  0.97067947240E+00  0.93800000000E+00 0. -1.
         22    1    1    2    0    0  0.21263198074E+00 -0.19688596764E+00  0.31545730980E+01  0.31678554061E+01  0.00000000000E+00 0.  1.
</event>
<event>
 5    1  0.3454171E+002  0.1599183E+01  0.7818608E-02  0.3354250E+00
         11   -1    0    0    0    0  0.00000000000E+00  0.00000000000E+00  0.39999999674E+01  0.40000000000E+01  0.51100000000E-03 0. -1.
    9000002   -1    0    0    0    0 -0.00000000000E+00 -0.00000000000E+00  0.00000000000E+00  0.93800000000E+00  0.93800000000E+00 0.  1.
         11    1    1    2    0    0  0.36505985904E-02 -0.58200281875E-03  0.24014083578E-01  0.24302323519E-01  0.51100000000E-03 0.  1.
    9000002    1    1    2    0    0 -0.62989927099E-02 -0.23291893022E+00  0.36394400369E-01  0.96719153105E+00  0.93800000000E+00 0.  1.
         22    1    1    2    0    0  0.26483941195E-02  0.23350093303E+00  0.39395914834E+01  0.39465061454E+01  0.00000000000E+00 0. -1.
</event>
<event>
 5    1  0.3454171E+002  0.1599258E+01  0.7818608E-02  0.3354169E+00
         11   -1    0    0    0    0  0.00000000000E+00  0.00000000000E+00  0.39999999674E+01  0.40000000000E+01  0.51100000000E-03 0.  1.
    9000002   -1    0    0    0    0 -0.00000000000E+00 -0.00000000000E+00  0.00000000000E+00  0.93800000000E+00  0.93800000000E+00 0.  1.
         11    1    1    2    0    0 -0.11937504279E+00 -0.58390742502E-01  0.16781317483E+01  0.16833853705E+01  0.51100000000E-03 0.  1.
    9000002    1    1    2    0    0  0.32323799381E+00  0.17098235388E+00  0.90159171350E-01  0.10107870410E+01  0.93800000000E+00 0.  1.
         22    1    1    2    0    0 -0.20386295101E+00 -0.11259161138E+00  0.22317090477E+01  0.22438275886E+01  0.00000000000E+00 0.  1.
</event>
<event>
 5    1  0.3849954E+002  0.1560706E+01  0.7818608E-02  0.3397148E+00
         11   -1    0    0    0    0  0.00000000000E+00  0.00000000000E+00  0.39999999674E+01  0.40000000000E+01  0.51100000000E-03 0.  1.
    9000002   -1    0    0    0    0 -0.00000000000E+00 -0.00000000000E+00  0.00000000000E+00  0.93800000000E+00  0.93800000000E+00 0. -1.
         11    1    1    2    0    0  0.21236756040E+00 -0.32129405785E-01  0.19233204543E+01  0.19352762362E+01  0.51100000000E-03 0.  1.
    9000002    1    1    2    0    0  0.50915392332E-01  0.38475134232E-01  0.31540211369E-01  0.94069734669E+00  0.93800000000E+00 0. -1.
         22    1    1    2    0    0 -0.26328295273E+00 -0.63457284477E-02  0.20451393017E+01  0.20620264171E+01  0.00000000000E+00 0.  1.
</event>
<event>
 5    1  0.3454171E+002  0.1599401E+01  0.7818608E-02  0.3354014E+00
         11   -1    0    0    0    0  0.00000000000E+00  0.00000000000E+00  0.39999999674E+01  0.40000000000E+01  0.51100000000E-03 0. -1.
    9000002   -1    0    0    0    0 -0.00000000000E+00 -0.00000000000E+00  0.00000000000E+00  0.93800000000E+00  0.93800000000E+00 0.  1.
         11    1    1    2    0    0 -0.14374001237E+00 -0.37119471398E-01  0.15703666004E+01  0.15773682408E+01  0.51100000000E-03 0. -1.
    9000002    1    1    2    0    0  0.40202727137E+00  0.76519505550E-01  0.11333649178E+00  0.10296457265E+01  0.93800000000E+00 0.  1.
         22    1    1    2    0    0 -0.25828725900E+00 -0.39400034152E-01  0.23162968752E+01  0.23309860327E+01  0.00000000000E+00 0. -1.
</event>
<event>
 5    1  0.3454171E+002  0.1593130E+01  0.7818608E-02  0.3360854E+00
         11   -1    0    0    0    0  0.00000000000E+00  0.00000000000E+00  0.39999999674E+01  0.40000000000E+01  0.51100000000E-03 0. -1.
    9000002   -1    0    0    0    0 -0.00000000000E+00 -0.00000000000E+00  0.00000000000E+00  0.93800000000E+00  0.93800000000E+00 0.  1.
         11    1    1    2    0    0 -0.57864899267E-01  0.42183383484E+00  0.27141071212E+01  0.27473022872E+01  0.51100000000E-03 0. -1.
    9000002    1    1    2    0    0  0.16601124442E+00 -0.64951323048E+00  0.32582853705E+00  0.11980965760E+01  0.93800000000E+00 0.  1.
         22    1    1    2    0    0 -0.10814634516E+00  0.22767939564E+00  0.96006430915E+00  0.99260113685E+00  0.00000000000E+00 0. -1.
</event>
<event>
 5    1  0.3608604E+002  0.1593028E+01  0.7818608E-02  0.3360965E+00
         11   -1    0    0    0    0  0.00000000000E+00  0.00000000000E+00  0.39999999674E+01  0.40000000000E+01  0.51100000000E-03 0.  1.
    9000002   -1    0    0    0    0 -0.00000000000E+00 -0.00000000000E+00  0.00000000000E+00  0.93800000000E+00  0.93800000000E+00 0. -1.
         11    1    1    2    0    0 -0.30565110389E-01 -0.25666627029E-02  0.13841141847E+00  0.14177022119E+00  0.51100000000E-03 0.  1.
    9000002    1    1    2    0    0 -0.15850005197E+00  0.11321031090E+00  0.30098459965E-01  0.95848252893E+00  0.93800000000E+00 0. -1.
         22    1    1    2    0    0  0.18906516235E+00 -0.11064364820E+00  0.38314900889E+01  0.38377472499E+01  0.00000000000E+00 0.  1.
</event>
<event>
 5    1  0.3454171E+002  0.1599676E+01  0.7818608E-02  0.3353715E+00
         11   -1    0    0    0    0  0.00000000000E+00  0.00000000000E+00  0.39999999674E+01  0.40000000000E+01  0.51100000000E-03 0.  1.
    9000002   -1    0    0    0    0 -0.00000000000E+00 -0.00000000000E+00  0.00000000000E+00  0.93800000000E+00  0.93800000000E+00 0.  1.
         11    1    1    2    0    0 -0.22076400737E-01 -0.65268069695E-02  0.39302532494E+00  0.39369929368E+00  0.51100000000E-03 0. -1.
    9000002    1    1    2    0    0  0.22318340424E+00  0.71137348727E-01  0.36408675760E-01  0.96749209092E+00  0.93800000000E+00 0.  1.
         22    1    1    2    0    0 -0.20110700351E+00 -0.64610541758E-01  0.35705659667E+01  0.35768086154E+01  0.00000000000E+00 0.  1.
</event>
<event>
 5    1  0.3454171E+002  0.1455956E+01  0.7818608E-02  0.3526257E+00
         11   -1    0    0    0    0  0.00000000000E+00  0.00000000000E+00  0.39999999674E+01  0.40000000000E+01  0.51100000000E-03 0. -1.
    9000002   -1    0    0    0    0 -0.00000000000E+00 -0.00000000000E+00  0.00000000000E+00  0.93800000000E+00  0.93800000000E+00 0. -1.
         11    1    1    2    0    0 -0.25419293231E+00  0.30581758219E+00  0.95638679744E+00  0.10357675453E+01  0.51100000000E-03 0. -1.
    9000002    1    1    2    0    0 -0.10376930045E+00 -0.98329021643E-01  0.12802060547E+00  0.95742881701E+00  0.93800000000E+00 0. -1.
         22    1    1    2    0    0  0.35796223276E+00 -0.20748856055E+00  0.29155925644E+01  0.29448036377E+01  0.00000000000E+00 0. -1.
</event>
<event>
 5    1  0.4573223E+002  0.1531064E+01  0.7818608E-02  0.3431760E+00
         11   -1    0    0    0    0  0.00000000000E+00  0.00000000000E+00  0.39999999674E+01  0.40000000000E+01  0.51100000000E-03 0. -1.
    9000002   -1    0    0    0    0 -0.00000000000E+00 -0.00000000000E+00  0.00000000000E+00  0.93800000000E+00  0.93800000000E+00 0. -1.
         11    1    1    2    0    0 -0.18675144299E+00  0.11844312388E+00  0.52524086917E+00  0.56989745290E+00  0.51100000000E-03 0. -1.
    9000002    1    1    2    0    0  0.59383643219E-01  0.39725079057E-01  0.55004605462E-01  0.94232372655E+00  0.93800000000E+00 0. -1.
         22    1    1    2    0    0  0.12736779977E+00 -0.15816820293E+00  0.34197544927E+01  0.34257788206E+01  0.00000000000E+00 0. -1.
</event>
<event>
 5    1  0.3454171E+002  0.1597425E+01  0.7818608E-02  0.3356163E+00
         11   -1    0    0    0    0  0.00000000000E+00  0.00000000000E+00  0.39999999674E+01  0.40000000000E+01  0.51100000000E-03 0.  1.
    9000002   -1    0    0    0    0 -0.00000000000E+00 -0.00000000000E+00  0.00000000000E+00  0.93800000000E+00  0.93800000000E+00 0. -1.
         11    1    1    2    0    0  0.52300245781E-01  0.92166262062E-01  0.20018689414E+01  0.20046719071E+01  0.51100000000E-03 0.  1.
    9000002    1    1    2    0    0 -0.19796438631E+00 -0.24100685408E+00  0.66742072127E-01  0.99074351179E+00  0.93800000000E+00 0. -1.
         22    1    1    2    0    0  0.14566414053E+00  0.14884059201E+00  0.19313889538E+01  0.19425845811E+01  0.00000000000E+00 0.  1.
</event>
<event>
 5    1  0.3454171E+002  0.1599676E+01  0.7818608E-02  0.3353715E+00
         11   -1    0    0    0    0  0.00000000000E+00  0.00000000000E+00  0.39999999674E+01  0.40000000000E+01  0.51100000000E-03 0.  1.
    9000002   -1    0    0    0    0 -0.00000000000E+00 -0.00000000000E+00  0.00000000000E+00  0.93800000000E+00  0.93800000000E+00 0.  1.
         11    1    1    2    0    0 -0.17409278598E+00 -0.59732705459E-01  0.16127126509E+01  0.16231816441E+01  0.51100000000E-03 0.  1.
    9000002    1    1    2    0    0  0.41951504124E+00  0.14468738031E+00  0.13362870805E+00  0.10462446843E+01  0.93800000000E+00 0.  1.
         22    1    1    2    0    0 -0.24542225526E+00 -0.84954674855E-01  0.22536586084E+01  0.22685736716E+01  0.00000000000E+00 0.  1.
</event>
<event>
 5    1  0.3454171E+002  0.1599520E+01  0.7818608E-02  0.3353885E+00
         11   -1    0    0    0    0  0.00000000000E+00  0.00000000000E+00  0.39999999674E+01  0.40000000000E+01  0.51100000000E-03 0.  1.
    9000002   -1    0    0    0    0 -0.00000000000E+00 -0.00000000000E+00  0.00000000000E+00  0.93800000000E+00  0.93800000000E+00 0. -1.
         11    1    1    2    0    0 -0.40088102665E-02  0.36413311722E-02  0.56303141719E-01  0.56565313938E-01  0.51100000000E-03 0.  1.
    9000002    1    1    2    0    0  0.37890818617E-01 -0.20931189310E+00  0.30096525414E-01  0.96228737058E+00  0.93800000000E+00 0. -1.
         22    1    1    2    0    0 -0.33882008350E-01  0.20567056193E+00  0.39136003002E+01  0.39191473155E+01  0.00000000000E+00 0.  1.
</event>
<event>
 5    1  0.3454171E+002  0.1574314E+01  0.7818608E-02  0.3381723E+00
         11   -1    0    0    0    0  0.00000000000E+00  0.00000000000E+00  0.39999999674E+01  0.40000000000E+01  0.51100000000E-03 0.  1.
    9000002   -1    0    0    0    0 -0.00000000000E+00 -0.00000000000E+00  0.00000000000E+00  0.93800000000E+00  0.93800000000E+00 0.  1.
         11    1    1    2    0    0  0.92922206162E-01 -0.20451939119E+00  0.18287305337E+01  0.18424761447E+01  0.51100000000E-03 0.  1.
    9000002    1    1    2    0    0  0.19988057286E+00  0.48705742305E+00  0.21441132709E+00  0.10968105552E+01  0.93800000000E+00 0.  1.
         22    1    1    2    0    0 -0.29280277902E+00 -0.28253803186E+00  0.19568581066E+01  0.19987133002E+01  0.00000000000E+00 0.  1.
</event>
<event>
 5    1  0.3454171E+002  0.1599509E+01  0.7818608E-02  0.3353897E+00
         11   -1    0    0    0    0  0.00000000000E+00  0.00000000000E+00  0.39999999674E+01  0.40000000000E+01  0.51100000000E-03 0.  1.
    9000002   -1    0    0    0    0 -0.00000000000E+00 -0.00000000000E+00  0.00000000000E+00  0.93800000000E+00  0.93800000000E+00 0. -1.
         11    1    1    2    0    0 -0.32455756385E-01  0.16532566004E-01  0.51033115638E+00  0.51162960446E+00  0.51100000000E-03 0.  1.
    9000002    1    1    2    0    0  0.18659384110E+00 -0.17660782086E+00  0.44000742008E-01  0.97354386096E+00  0.93800000000E+00 0. -1.
         22    1    1    2    0    0 -0.15413808471E+00  0.16007525485E+00  0.34456680690E+01  0.34528265346E+01  0.00000000000E+00 0.  1.
</event>
<event>
 5    1  0.3454171E+002  0.1595315E+01  0.7818608E-02  0.3358464E+00
         11   -1    0    0    0    0  0.00000000000E+00  0.00000000000E+00  0.39999999674E+01  0.40000000000E+01  0.51100000000E-03 0.  1.
    9000002   -1    0    0    0    0 -0.00000000000E+00 -0.00000000000E+00  0.00000000000E+00  0.93800000000E+00  0.93800000000E+00 0.  1.
         11    1    1    2    0    0 -0.29399462167E-01  0.52718607139E-01  0.16489681716E+01  0.16500726869E+01  0.51100000000E-03 0.  1.
    9000002    1    1    2    0    0 -0.10245402123E-01 -0.29540953866E+00  0.61676885713E-01  0.98540337021E+00  0.93800000000E+00 0.  1.
         22    1    1    2    0    0  0.39644864290E-01  0.24269093152E+00  0.22893549100E+01  0.23025239429E+01  0.00000000000E+00 0.  1.
</event>
<event>
 5    1  0.3454171E+002  0.1598859E+01  0.7818608E-02  0.3354602E+00
         11   -1    0    0    0    0  0.00000000000E+00  0.00000000000E+00  0.39999999674E+01  0.40000000000E+01  0.51100000000E-03 0.  1.
    9000002   -1    0    0    0    0 -0.00000000000E+00 -0.00000000000E+00  0.00000000000E+00  0.93800000000E+00  0.93800000000E+00 0.  1.
         11    1    1    2    0    0 -0.12347936732E-01  0.16176026687E-01  0.15449137041E+00  0.15582676289E+00  0.51100000000E-03 0.  1.
    9000002    1    1    2    0    0  0.19673242222E+00 -0.94510522397E-01  0.32189443803E-01  0.96359537415E+00  0.93800000000E+00 0.  1.
         22    1    1    2    0    0 -0.18438448549E+00  0.78334495709E-01  0.38133191531E+01  0.38185778630E+01  0.00000000000E+00 0.  1.
</event>
<event>
 5    1  0.3454171E+002  0.1599676E+01  0.7818608E-02  0.3353715E+00
         11   -1    0    0    0    0  0.00000000000E+00  0.00000000000E+00  0.39999999674E+01  0.40000000000E+01  0.51100000000E-03 0.  1.
    9000002   -1    0    0    0    0 -0.00000000000E+00 -0.00000000000E+00  0.00000000000E+00  0.93800000000E+00  0.93800000000E+00 0. -1.
         11    1    1    2    0    0  0.49644474544E-01  0.37173010972E-01  0.92217940883E+00  0.92426269523E+00  0.51100000000E-03 0.  1.
    9000002    1    1    2    0    0 -0.21201192877E+00 -0.16292390646E+00  0.47558464150E-01  0.97652397039E+00  0.93800000000E+00 0. -1.
         22    1    1    2    0    0  0.16236745423E+00  0.12575089549E+00  0.30302620944E+01  0.30372133344E+01  0.00000000000E+00 0.  1.
</event>
<event>
 5    1  0.3454171E+002  0.1599037E+01  0.7818608E-02  0.3354409E+00
         11   -1    0    0    0    0  0.00000000000E+00  0.00000000000E+00  0.39999999674E+01  0.40000000000E+01  0.51100000000E-03 0. -1.
    9000002   -1    0    0    0    0 -0.00000000000E+00 -0.00000000000E+00  0.00000000000E+00  0.93800000000E+00  0.93800000000E+00 0. -1.
         11    1    1    2    0    0  0.81144906142E-01  0.16918868491E+00  0.17389717096E+01  0.17490660864E+01  0.51100000000E-03 0. -1.
    9000002    1    1    2    0    0 -0.23855307257E+00 -0.40695144868E+00  0.15219196208E+00  0.10609068966E+01  0.93800000000E+00 0. -1.
         22    1    1    2    0    0  0.15740816643E+00  0.23776276376E+00  0.21088362957E+01  0.21280270169E+01  0.00000000000E+00 0. -1.
</event>
<event>
 5    1  0.3454171E+002  0.1599677E+01  0.7818608E-02  0.3353715E+00
         11   -1    0    0    0    0  0.00000000000E+00  0.00000000000E+00  0.39999999674E+01  0.40000000000E+01  0.51100000000E-03 0.  1.
    9000002   -1    0    0    0    0 -0.00000000000E+00 -0.00000000000E+00  0.00000000000E+00  0.93800000000E+00  0.93800000000E+00 0.  1.
         11    1    1    2    0    0 -0.45959811781E-01 -0.19635860543E-01  0.67569147257E+00  0.67753752556E+00  0.51100000000E-03 0.  1.
    9000002    1    1    2    0    0  0.26549594231E+00  0.11568569549E+00  0.55898792756E-01  0.98328019941E+00  0.93800000000E+00 0.  1.
         22    1    1    2    0    0 -0.21953613053E+00 -0.96049834942E-01  0.32684097020E+01  0.32771822750E+01  0.00000000000E+00 0.  1.
</event>
<event>
 5    1  0.4239215E+002  0.1588169E+01  0.7818608E-02  0.3366306E+00
         11   -1    0    0    0    0  0.00000000000E+00  0.00000000000E+00  0.39999999674E+01  0.40000000000E+01  0.51100000000E-03 0.  1.
    9000002   -1    0    0    0    0 -0.00000000000E+00 -0.00000000000E+00  0.00000000000E+00  0.93800000000E+00  0.93800000000E+00 0.  1.
         11    1    1    2    0    0 -0.23364910711E-01 -0.62601411052E-01  0.16421504654E+01  0.16435094365E+01  0.51100000000E-03 0.  1.
    9000002    1    1    2    0    0 -0.48658651067E-01 -0.13778075228E+00  0.22629488976E-01  0.94958269455E+00  0.93800000000E+00 0.  1.
         22    1    1    2    0    0  0.72023561778E-01  0.20038216333E+00  0.23352200130E+01  0.23449078689E+01  0.00000000000E+00 0.  1.
</event>
<event>
 5    1  0.3454171E+002  0.1572218E+01  0.7818608E-02  0.3384080E+00
         11   -1    0    0    0    0  0.00000000000E+00  0.00000000000E+00  0.39999999674E+01  0.40000000000E+01  0.51100000000E-03 0.  1.
    9000002   -1    0    0    0    0 -0.00000000000E+00 -0.00000000000E+00  0.00000000000E+00  0.93800000000E+00  0.93800000000E+00 0. -1.
         11    1    1    2    0    0  0.56655444862E-01  0.85381372918E-01  0.32385567007E+00  0.33968010603E+00  0.51100000000E-03 0.  1.
    9000002    1    1    2    0    0 -0.99839286999E-01  0.16600869276E+00  0.45656142958E-01  0.95888229345E+00  0.93800000000E+00 0. -1.
         22    1    1    2    0    0  0.43183842137E-01 -0.25139006568E+00  0.36304881543E+01  0.36394376005E+01  0.00000000000E+00 0.  1.
</event>
<event>
 5    1  0.3454171E+002  0.1599675E+01  0.7818608E-02  0.3353716E+00
         11   -1    0    0    0    0  0.00000000000E+00  0.00000000000E+00  0.39999999674E+01  0.40000000000E+01  0.51100000000E-03 0.  1.
    9000002   -1    0    0    0    0 -0.00000000000E+00 -0.00000000000E+00  0.00000000000E+00  0.93800000000E+00  0.93800000000E+00 0.  1.
         11    1    1    2    0    0  0.25170878617E-01 -0.24666944723E+00  0.21148625431E+01  0.21293480755E+01  0.51100000000E-03 0.  1.
    9000002    1    1    2    0    0 -0.48366842267E-01  0.44830853040E+00  0.13811203669E+00  0.10498756234E+01  0.93800000000E+00 0.  1.
         22    1    1    2    0    0  0.23195963650E-01 -0.20163908316E+00  0.17470253875E+01  0.17587763011E+01  0.00000000000E+00 0.  1.
</event>
<event>
 5    1  0.3454171E+002  0.1599672E+01  0.7818608E-02  0.3353719E+00
         11   -1    0    0    0    0  0.00000000000E+00  0.00000000000E+00  0.39999999674E+01  0.40000000000E+01  0.51100000000E-03 0. -1.
    9000002   -1    0    0    0    0 -0.00000000000E+00 -0.00000000000E+00  0.00000000000E+00  0.93800000000E+00  0.93800000000E+00 0. -1.
         11    1    1    2    0    0  0.14219329626E-01 -0.17677542470E-01  0.34738954537E+00  0.34812992143E+00  0.51100000000E-03 0. -1.
    9000002    1    1    2    0    0 -0.15419639658E+00  0.18740869007E+00  0.39107777747E-01  0.96967621612E+00  0.93800000000E+00 0. -1.
         22    1    1    2    0    0  0.13997706696E+00 -0.16973114760E+00  0.36135026442E+01  0.36201938624E+01  0.00000000000E+00 0. -1.
</event>
<event>
 5    1  0.3454171E+002  0.1597172E+01  0.7818608E-02  0.3356438E+00
         11   -1    0    0    0    0  0.00000000000E+00  0.00000000000E+00  0.39999999674E+01  0.40000000000E+01  0.51100000000E-03 0.  1.
    9000002   -1    0    0    0    0 -0.00000000000E+00 -0.00000000000E+00  0.00000000000E+00  0.93800000000E+00  0.93800000000E+00 0.  1.
         11    1    1    2    0    0 -0.23007470819E+00 -0.12807482774E+00  0.13715429741E+01  0.13965915379E+01  0.51100000000E-03 0.  1.
    9000002    1    1    2    0    0  0.51190024272E+00  0.24600816960E+00  0.22598147068E+00  0.11195863089E+01  0.93800000000E+00 0.  1.
         22    1    1    2    0    0 -0.28182553454E+00 -0.11793334186E+00  0.24024755226E+01  0.24218221532E+01  0.00000000000E+00 0.  1.
</event>
<event>
 5    1  0.3454171E+002  0.1595560E+01  0.7818608E-02  0.3358197E+00
         11   -1    0    0    0    0  0.00000000000E+00  0.00000000000E+00  0.39999999674E+01  0.40000000000E+01  0.51100000000E-03 0. -1.
    9000002   -1    0    0    0    0 -0.00000000000E+00 -0.00000000000E+00  0.00000000000E+00  0.93800000000E+00  0.93800000000E+00 0.  1.
         11    1    1    2    0    0 -0.18437833942E-01 -0.33164906702E-01  0.18053569073E+00  0.18448106002E+00  0.51100000000E-03 0. -1.
    9000002    1    1    2    0    0 -0.20608830224E+00  0.35377590609E+00  0.11666492936E+00  0.10300895523E+01  0.93800000000E+00 0.  1.
         22    1    1    2    0    0  0.22452613618E+00 -0.32061099939E+00  0.37027993473E+01  0.37234293877E+01  0.00000000000E+00 0. -1.
</event>
<event>
 5    1  0.3454171E+002  0.1599673E+01  0.7818608E-02  0.3353718E+00
         11   -1    0    0    0    0  0.00000000000E+00  0.00000000000E+00  0.39999999674E+01  0.40000000000E+01  0.51100000000E-03 0.  1.
    9000002   -1    0    0    0    0 -0.00000000000E+00 -0.00000000000E+00  0.00000000000E+00  0.93800000000E+00  0.93800000000E+00 0. -1.
         11    1    1    2    0    0  0.25819743462E-02 -0.61571697671E-01  0.90671753380E+00  0.90880948926E+00  0.51100000000E-03 0.  1.
    9000002    1    1    2    0    0 -0.95898753682E-02  0.27619867723E+00  0.50847958211E-01  0.97918700454E+00  0.93800000000E+00 0. -1.
         22    1    1    2    0    0  0.70079010220E-02 -0.21462697956E+00  0.30424344753E+01  0.30500035062E+01  0.00000000000E+00 0.  1.
</event>
<event>
 5    1  0.3454171E+002  0.1599648E+01  0.7818608E-02  0.3353745E+00
         11   -1    0    0    0    0  0.00000000000E+00  0.00000000000E+00  0.39999999674E+01  0.40000000000E+01  0.51100000000E-03 0. -1.
    9000002   -1    0    0    0    0 -0.00000000000E+00 -0.00000000000E+00  0.00000000000E+00  0.93800000000E+00  0.93800000000E+00 0.  1.
         11    1    1    2    0    0  0.15237425149E-01  0.18317288517E-02  0.10368816523E+00  0.10481903971E+00  0.51100000000E-03 0. -1.
    9000002    1    1    2    0    0 -0.49253847769E+00 -0.39201694645E-01  0.16698294742E+00  0.10732465838E+01  0.93800000000E+00 0.  1.
         22    1    1    2    0    0  0.47730105254E+00  0.37369965793E-01  0.37293288547E+01  0.37599343765E+01  0.00000000000E+00 0. -1.
</event>
<event>
 5    1  0.3454171E+002  0.1597209E+01  0.7818608E-02  0.3356398E+00
         11   -1    0    0    0    0  0.00000000000E+00  0.00000000000E+00  0.39999999674E+01  0.40000000000E+01  0.51100000000E-03 0.  1.
    9000002   -1    0    0    0    0 -0.00000000000E+00 -0.00000000000E+00  0.00000000000E+00  0.93800000000E+00  0.93800000000E+00 0.  1.
         11    1    1    2    0    0  0.56222686909E-01 -0.74488404710E-01  0.17152311361E+01  0.17177682103E+01  0.51100000000E-03 0.  1.
    9000002    1    1    2    0    0 -0.26473485232E+00  0.15986538119E+00  0.65803274480E-01  0.98985632951E+00  0.93800000000E+00 0.  1.
         22    1    1    2    0    0  0.20851216541E+00 -0.85376976477E-01  0.22189655568E+01  0.22303754602E+01  0.00000000000E+00 0.  1.
</event>
<event>
 5    1  0.3454171E+002  0.1599538E+01  0.7818608E-02  0.3353865E+00
         11   -1    0    0    0    0  0.00000000000E+00  0.00000000000E+00  0.39999999674E+01  0.40000000000E+01  0.51100000000E-03 0.  1.
    9000002   -1    0    0    0    0 -0.00000000000E+00 -0.00000000000E+00  0.00000000000E+00  0.93800000000E+00  0.93800000000E+00 0.  1.
         11    1    1    2    0    0  0.69869403007E-02  0.19977953139E-01  0.22707361295E+00  0.22805837579E+00  0.51100000000E-03 0.  1.
    9000002    1    1    2    0    0 -0.13801735303E+00 -0.23382647914E+00  0.49165753383E-01  0.97774479461E+00  0.93800000000E+00 0.  1.
         22    1    1    2    0    0  0.13103041273E+00  0.21384852601E+00  0.37237606010E+01  0.37321968296E+01  0.00000000000E+00 0.  1.
</event>
<event>
 5    1  0.3454171E+002  0.1599644E+01  0.7818608E-02  0.3353750E+00
         11   -1    0    0    0    0  0.00000000000E+00  0.00000000000E+00  0.39999999674E+01  0.40000000000E+01  0.51100000000E-03 0.  1.
    9000002   -1    0    0    0    0 -0.00000000000E+00 -0.00000000000E+00  0.00000000000E+00  0.93800000000E+00  0.93800000000E+00 0. -1.
         11    1    1    2    0    0 -0.69831953071E-02 -0.29128306599E-02  0.88111299725E-01  0.88437050264E-01  0.51100000000E-03 0.  1.
    9000002    1    1    2    0    0  0.22472182959E+00  0.12018020729E+00  0.43182732486E-01  0.97296039555E+00  0.93800000000E+00 0. -1.
         22    1    1    2    0    0 -0.21773863428E+00 -0.11726737663E+00  0.38687059351E+01  0.38766025542E+01  0.00000000000E+00 0.  1.
</event>
<event>
 5    1  0.3454171E+002  0.1599639E+01  0.7818608E-02  0.3353755E+00
         11   -1    0    0    0    0  0.00000000000E+00  0.00000000000E+00  0.39999999674E+01  0.40000000000E+01  0.51100000000E-03 0.  1.
    9000002   -1    0    0    0    0 -0.00000000000E+00 -0.00000000000E+00  0.00000000000E+00  0.93800000000E+00  0.93800000000E+00 0. -1.
         11    1    1    2    0    0 -0.97429836430E-01  0.24768822086E-02  0.10465788738E+01  0.10511071820E+01  0.51100000000E-03 0.  1.
    9000002    1    1    2    0    0  0.37251457249E+00  0.13532188329E-01  0.93441124643E-01  0.10136693103E+01  0.93800000000E+00 0. -1.
         22    1    1    2    0    0 -0.27508473606E+00 -0.16009070538E-01  0.28599799689E+01  0.28732235077E+01  0.00000000000E+00 0.  1.
</event>
<event>
 5    1  0.3454171E+002  0.1583756E+01  0.7818608E-02  0.3371186E+00
         11   -1    0    0    0    0  0.00000000000E+00  0.00000000000E+00  0.39999999674E+01  0.40000000000E+01  0.51100000000E-03 0.  1.
    9000002   -1    0    0    0    0 -0.00000000000E+00 -0.00000000000E+00  0.00000000000E+00  0.93800000000E+00  0.93800000000E+00 0.  1.
         11    1    1    2    0    0  0.68606889720E+00 -0.38246699686E+00  0.27004942453E+01  0.28124083924E+01  0.51100000000E-03 0.  1.
    9000002    1    1    2    0    0 -0.91996655185E+00  0.38420715234E+00  0.82945732513E+00  0.16005614786E+01  0.93800000000E+00 0.  1.
         22    1    1    2    0    0  0.23389765464E+00 -0.17401554895E-02  0.47004839692E+00  0.52503012907E+00  0.00000000000E+00 0.  1.
</event>
<event>
 5    1  0.3454171E+002  0.1598463E+01  0.7818608E-02  0.3355033E+00
         11   -1    0    0    0    0  0.00000000000E+00  0.00000000000E+00  0.39999999674E+01  0.40000000000E+01  0.51100000000E-03 0.  1.
    9000002   -1    0    0    0    0 -0.00000000000E+00 -0.00000000000E+00  0.00000000000E+00  0.93800000000E+00  0.93800000000E+00 0. -1.
         11    1    1    2    0    0  0.67925064874E-01 -0.31301987817E-01  0.10329853453E+01  0.10356894388E+01  0.51100000000E-03 0.  1.
    9000002    1    1    2    0    0 -0.17126186915E+00  0.22928646755E+00  0.55513841687E-01  0.98225694126E+00  0.93800000000E+00 0. -1.
         22    1    1    2    0    0  0.10333680428E+00 -0.19798447974E+00  0.29115007804E+01  0.29200536200E+01  0.00000000000E+00 0.  1.
</event>
<event>
 5    1  0.3454171E+002  0.1596303E+01  0.7818608E-02  0.3357386E+00
         11   -1    0    0    0    0  0.00000000000E+00  0.00000000000E+00  0.39999999674E+01  0.40000000000E+01  0.51100000000E-03 0. -1.
    9000002   -1    0    0    0    0 -0.00000000000E+00 -0.00000000000E+00  0.00000000000E+00  0.93800000000E+00  0.93800000000E+00 0. -1.
         11    1    1    2    0    0  0.61027922849E-01 -0.26866985635E+00  0.15168188194E+01  0.15416379248E+01  0.51100000000E-03 0. -1.
    9000002    1    1    2    0    0  0.16543633613E-03  0.71958935168E+00  0.37595594271E+00  0.12405626680E+01  0.93800000000E+00 0. -1.
         22    1    1    2    0    0 -0.61193359185E-01 -0.45091949534E+00  0.21072252052E+01  0.21557994072E+01  0.00000000000E+00 0. -1.
</event>
<event>
 5    1  0.3454171E+002  0.1599661E+01  0.7818608E-02  0.3353732E+00
         11   -1    0    0    0    0  0.00000000000E+00  0.00000000000E+00  0.39999999674E+01  0.40000000000E+01  0.51100000000E-03 0.  1.
    9000002   -1    0    0    0    0 -0.00000000000E+00 -0.00000000000E+00  0.00000000000E+00  0.93800000000E+00  0.93800000000E+00 0.  1.
         11    1    1    2    0    0  0.21952911873E-01 -0.78052866549E-02  0.23430083795E+00  0.23545699528E+00  0.51100000000E-03 0.  1.
    9000002    1    1    2    0    0 -0.34926949563E+00  0.96606107187E-01  0.88188694000E-01  0.10094271476E+01  0.93800000000E+00 0.  1.
         22    1    1    2    0    0  0.32731658376E+00 -0.88800820532E-01  0.36775104354E+01  0.36931158571E+01  0.00000000000E+00 0.  1.
</event>
<event>
 5    1  0.3454171E+002  0.1599609E+01  0.7818608E-02  0.3353788E+00
         11   -1    0    0    0    0  0.00000000000E+00  0.00000000000E+00  0.39999999674E+01  0.40000000000E+01  0.51100000000E-03 0.  1.
    9000002   -1    0    0    0    0 -0.00000000000E+00 -0.00000000000E+00  0.00000000000E+00  0.93800000000E+00  0.93800000000E+00 0. -1.
         11    1    1    2    0    0  0.71300762465E-01 -0.36985674915E-01  0.97838587509E+00  0.98167760521E+00  0.51100000000E-03 0.  1.
    9000002    1    1    2    0    0 -0.25376161700E+00  0.15808683102E+00  0.59678435615E-01  0.98630214442E+00  0.93800000000E+00 0. -1.
         22    1    1    2    0    0  0.18246085454E+00 -0.12110115611E+00  0.29619356567E+01  0.29700202504E+01  0.00000000000E+00 0.  1.
</event>
<event>
 5    1  0.3454171E+002  0.1545515E+01  0.7818608E-02  0.3414708E+00
         11   -1    0    0    0    0  0.00000000000E+00  0.00000000000E+00  0.39999999674E+01  0.40000000000E+01  0.51100000000E-03 0.  1.
    9000002   -1    0    0    0    0 -0.00000000000E+00 -0.00000000000E+00  0.00000000000E+00  0.93800000000E+00  0.93800000000E+00 0.  1.
         11    1    1    2    0    0  0.10347317711E+00 -0.36806951835E-01  0.16264038121E+00  0.19624883390E+00  0.51100000000E-03 0.  1.
    9000002    1    1    2    0    0  0.10998018842E+00 -0.12389095920E+00  0.59412471845E-01  0.95436809116E+00  0.93800000000E+00 0.  1.
         22    1    1    2    0    0 -0.21345336553E+00  0.16069791103E+00  0.37779471143E+01  0.37873830749E+01  0.00000000000E+00 0.  1.
</event>
<event>
 5    1  0.3454171E+002  0.1596101E+01  0.7818608E-02  0.3357606E+00
         11   -1    0    0    0    0  0.00000000000E+00  0.00000000000E+00  0.39999999674E+01  0.40000000000E+01  0.51100000000E-03 0. -1.
    9000002   -1    0    0    0    0 -0.00000000000E+00 -0.00000000000E+00  0.00000000000E+00  0.93800000000E+00  0.93800000000E+00 0. -1.
         11    1    1    2    0    0 -0.48887221556E-01  0.27967099849E-01  0.18446925074E+00  0.19287634561E+00  0.51100000000E-03 0. -1.
    9000002    1    1    2    0    0  0.83906226856E+00  0.78757227363E-01  0.53619960816E+00  0.13702489596E+01  0.93800000000E+00 0. -1.
         22    1    1    2    0    0 -0.79017504700E+00 -0.10672432721E+00  0.32793311085E+01  0.33748746948E+01  0.00000000000E+00 0. -1.
</event>
<event>
 5    1  0.3454171E+002  0.1599670E+01  0.7818608E-02  0.3353722E+00
         11   -1    0    0    0    0  0.00000000000E+00  0.00000000000E+00  0.39999999674E+01  0.40000000000E+01  0.51100000000E-03 0. -1.
    9000002   -1    0    0    0    0 -0.00000000000E+00 -0.00000000000E+00  0.00000000000E+00  0.93800000000E+00  0.93800000000E+00 0.  1.
         11    1    1    2    0    0  0.71874266005E-01  0.46394158248E-01  0.74562728200E+00  0.75051890903E+00  0.51100000000E-03 0. -1.
    9000002    1    1    2    0    0 -0.37148814694E+00 -0.22765959326E+00  0.12867092780E+00  0.10422248037E+01  0.93800000000E+00 0.  1.
         22    1    1    2    0    0  0.29961388093E+00  0.18126543501E+00  0.31257017576E+01  0.31452562873E+01  0.00000000000E+00 0. -1.
</event>
<event>
 5    1  0.3454171E+002  0.1569111E+01  0.7818608E-02  0.3387587E+00
         11   -1    0    0    0    0  0.00000000000E+00  0.00000000000E+00  0.39999999674E+01  0.40000000000E+01  0.51100000000E-03 0.  1.
    9000002   -1    0    0    0    0 -0.00000000000E+00 -0.00000000000E+00  0.00000000000E+00  0.93800000000E+00  0.93800000000E+00 0.  1.
         11    1    1    2    0    0 -0.19354370890E+00 -0.88338280513E-01  0.10339803407E+01  0.10556412388E+01  0.51100000000E-03 0.  1.
    9000002    1    1    2    0    0  0.35296168441E-01  0.24887810790E+00  0.65727220014E-01  0.97331916633E+00  0.93800000000E+00 0.  1.
         22    1    1    2    0    0  0.15824754046E+00 -0.16053982739E+00  0.29002924066E+01  0.29090395948E+01  0.00000000000E+00 0.  1.
</event>
<event>
 5    1  0.3454171E+002  0.1551787E+01  0.7818608E-02  0.3407414E+00
         11   -1    0    0    0    0  0.00000000000E+00  0.00000000000E+00  0.39999999674E+01  0.40000000000E+01  0.51100000000E-03 0.  1.
    9000002   -1    0    0    0    0 -0.00000000000E+00 -0.00000000000E+00  0.00000000000E+00  0.93800000000E+00  0.93800000000E+00 0. -1.
         11    1    1    2    0    0 -0.14454378678E+00  0.23445359389E+00  0.14717528589E+01  0.14973036208E+01  0.51100000000E-03 0.  1.
    9000002    1    1    2    0    0  0.28522817702E+00  0.48210383500E-01  0.94027803440E-01  0.98608548405E+00  0.93800000000E+00 0. -1.
         22    1    1    2    0    0 -0.14068439024E+00 -0.28266397739E+00  0.24342193050E+01  0.24546108951E+01  0.00000000000E+00 0.  1.
</event>
<event>
 5    1  0.3454171E+002  0.1599676E+01  0.7818608E-02  0.3353715E+00
         11   -1    0    0    0    0  0.00000000000E+00  0.00000000000E+00  0.39999999674E+01  0.40000000000E+01  0.51100000000E-03 0. -1.
    9000002   -1    0    0    0    0 -0.00000000000E+00 -0.00000000000E+00  0.00000000000E+00  0.93800000000E+00  0.93800000000E+00 0.  1.
         11    1    1    2    0    0 -0.44896292583E-01 -0.79771959027E-01  0.93334490297E+00  0.93782312381E+00  0.51100000000E-03 0. -1.
    9000002    1    1    2    0    0  0.19143341735E+00  0.33263630756E+00  0.99151532122E-01  0.10183165975E+01  0.93800000000E+00 0.  1.
         22    1    1    2    0    0 -0.14653712477E+00 -0.25286434854E+00  0.29675035323E+01  0.29818602787E+01  0.00000000000E+00 0. -1.
</event>
<event>
 5    1  0.3454171E+002  0.1477455E+01  0.7818608E-02  0.3498146E+00
         11   -1    0    0    0    0  0.00000000000E+00  0.00000000000E+00  0.39999999674E+01  0.40000000000E+01  0.51100000000E-03 0. -1.
    9000002   -1    0    0    0    0 -0.00000000000E+00 -0.00000000000E+00  0.00000000000E+00  0.93800000000E+00  0.93800000000E+00 0. -1.
         11    1    1    2    0    0 -0.14906728539E+00 -0.27266589300E+00  0.25635808778E+00  0.40284919644E+00  0.51100000000E-03 0. -1.
    9000002    1    1    2    0    0  0.21504305435E+00  0.69918876366E+00  0.54657329984E+00  0.13090816684E+01  0.93800000000E+00 0. -1.
         22    1    1    2    0    0 -0.65975768953E-01 -0.42652287066E+00  0.31970685797E+01  0.32260691352E+01  0.00000000000E+00 0. -1.
</event>
<event>
 5    1  0.3454171E+002  0.1599624E+01  0.7818608E-02  0.3353772E+00
         11   -1    0    0    0    0  0.00000000000E+00  0.00000000000E+00  0.39999999674E+01  0.40000000000E+01  0.51100000000E-03 0.  1.
    9000002   -1    0    0    0    0 -0.00000000000E+00 -0.00000000000E+00  0.00000000000E+00  0.93800000000E+00  0.93800000000E+00 0.  1.
         11    1    1    2    0    0  0.50073205969E-02  0.37249875454E-01  0.55622176046E+00  0.55749038953E+00  0.51100000000E-03 0.  1.
    9000002    1    1    2    0    0  0.75688736554E-02 -0.26253682920E+00  0.45910971855E-01  0.97515880341E+00  0.93800000000E+00 0.  1.
         22    1    1    2    0    0 -0.12576194252E-01  0.22528695374E+00  0.33978672350E+01  0.34053508071E+01  0.00000000000E+00 0.  1.
</event>
<event>
 5    1  0.3454171E+002  0.1488811E+01  0.7818608E-02  0.3483653E+00
         11   -1    0    0    0    0  0.00000000000E+00  0.00000000000E+00  0.39999999674E+01  0.40000000000E+01  0.51100000000E-03 0. -1.
    9000002   -1    0    0    0    0 -0.00000000000E+00 -0.00000000000E+00  0.00000000000E+00  0.93800000000E+00  0.93800000000E+00 0. -1.
         11    1    1    2    0    0  0.38983638122E+00 -0.15952996697E+00  0.27879640272E+01  0.28196038538E+01  0.51100000000E-03 0. -1.
    9000002    1    1    2    0    0 -0.69786566884E-01  0.43914890096E-01  0.90017735809E-01  0.94591007778E+00  0.93800000000E+00 0. -1.
         22    1    1    2    0    0 -0.32004981434E+00  0.11561507687E+00  0.11220182044E+01  0.11724860684E+01  0.00000000000E+00 0. -1.
</event>
<event>
 5    1  0.3454171E+002  0.1599675E+01  0.7818608E-02  0.3353716E+00
         11   -1    0    0    0    0  0.00000000000E+00  0.00000000000E+00  0.39999999674E+01  0.40000000000E+01  0.51100000000E-03 0.  1.
    9000002   -1    0    0    0    0 -0.00000000000E+00 -0.00000000000E+00  0.00000000000E+00  0.93800000000E+00  0.93800000000E+00 0. -1.
         11    1    1    2    0    0 -0.14550996777E+00  0.11340989917E+00  0.13416360415E+01  0.13542608629E+01  0.51100000000E-03 0.  1.
    9000002    1    1    2    0    0  0.41278197545E+00 -0.31754201295E+00  0.18633500986E+00  0.10889383018E+01  0.93800000000E+00 0. -1.
         22    1    1    2    0    0 -0.26727200768E+00  0.20413211379E+00  0.24720289160E+01  0.24948008353E+01  0.00000000000E+00 0.  1.
</event>
<event>
 5    1  0.3454171E+002  0.1599662E+01  0.7818608E-02  0.3353731E+00
         11   -1    0    0    0    0  0.00000000000E+00  0.00000000000E+00  0.39999999674E+01  0.40000000000E+01  0.51100000000E-03 0. -1.
    9000002   -1    0    0    0    0 -0.00000000000E+00 -0.00000000000E+00  0.00000000000E+00  0.93800000000E+00  0.93800000000E+00 0. -1.
         11    1    1    2    0    0 -0.32987877966E-01  0.61541641526E-04  0.43998146950E+00  0.44121667977E+00  0.51100000000E-03 0. -1.
    9000002    1    1    2    0    0  0.30992703781E+00 -0.22330977542E-01  0.64489675040E-01  0.99023045778E+00  0.93800000000E+00 0. -1.
         22    1    1    2    0    0 -0.27693915984E+00  0.22269435900E-01  0.34955288228E+01  0.35065528625E+01  0.00000000000E+00 0. -1.
</event>
<event>
 5    1  0.3454171E+002  0.1599676E+01  0.7818608E-02  0.3353715E+00
         11   -1    0    0    0    0  0.00000000000E+00  0.00000000000E+00  0.39999999674E+01  0.40000000000E+01  0.51100000000E-03 0.  1.
    9000002   -1    0    0    0    0 -0.00000000000E+00 -0.00000000000E+00  0.00000000000E+00  0.93800000000E+00  0.93800000000E+00 0.  1.
         11    1    1    2    0    0  0.42640159783E-01 -0.33374706835E-01  0.77571651462E+00  0.77760428655E+00  0.51100000000E-03 0.  1.
    9000002    1    1    2    0    0 -0.21933138439E+00  0.17192531123E+00  0.51712587475E-01  0.97988915726E+00  0.93800000000E+00 0.  1.
         22    1    1    2    0    0  0.17669122461E+00 -0.13855060439E+00  0.31725708653E+01  0.31805065562E+01  0.00000000000E+00 0.  1.
</event>
<event>
 5    1  0.3454171E+002  0.1599423E+01  0.7818608E-02  0.3353990E+00
         11   -1    0    0    0    0  0.00000000000E+00  0.00000000000E+00  0.39999999674E+01  0.40000000000E+01  0.51100000000E-03 0.  1.
    9000002   -1    0    0    0    0 -0.00000000000E+00 -0.00000000000E+00  0.00000000000E+00  0.93800000000E+00  0.93800000000E+00 0.  1.
         11    1    1    2    0    0 -0.11638085829E-01 -0.48264183215E-01  0.63358472870E+00  0.63552714025E+00  0.51100000000E-03 0.  1.
    9000002    1    1    2    0    0 -0.58010571209E-03  0.25279315582E+00  0.42655030323E-01  0.97240329481E+00  0.93800000000E+00 0.  1.
         22    1    1    2    0    0  0.12218191541E-01 -0.20452897260E+00  0.33237602083E+01  0.33300695649E+01  0.00000000000E+00 0.  1.
</event>
<event>
 5    1  0.3454171E+002  0.1543750E+01  0.7818608E-02  0.3416774E+00
         11   -1    0    0    0    0  0.00000000000E+00  0.00000000000E+00  0.39999999674E+01  0.40000000000E+01  0.51100000000E-03 0.  1.
    9000002   -1    0    0    0    0 -0.00000000000E+00 -0.00000000000E+00  0.00000000000E+00  0.93800000000E+00  0.93800000000E+00 0.  1.
         11    1    1    2    0    0  0.90952799936E-01 -0.27855252173E+00  0.29507603297E+01  0.29652741363E+01  0.51100000000E-03 0.  1.
    9000002    1    1    2    0    0 -0.14260120794E+00  0.41994775334E-01  0.57049405224E-01  0.95141857260E+00  0.93800000000E+00 0.  1.
         22    1    1    2    0    0  0.51648408001E-01  0.23655774639E+00  0.99219023247E+00  0.10213072911E+01  0.00000000000E+00 0.  1.
</event>
<event>
 5    1  0.3454171E+002  0.1481594E+01  0.7818608E-02  0.3492836E+00
         11   -1    0    0    0    0  0.00000000000E+00  0.00000000000E+00  0.39999999674E+01  0.40000000000E+01  0.51100000000E-03 0. -1.
    9000002   -1    0    0    0    0 -0.00000000000E+00 -0.00000000000E+00  0.00000000000E+00  0.93800000000E+00  0.93800000000E+00 0.  1.
         11    1    1    2    0    0 -0.26146629665E-01 -0.11763642104E+00  0.50807813171E-01  0.13078099555E+00  0.51100000000E-03 0. -1.
    9000002    1    1    2    0    0  0.22476260647E-01 -0.16780228695E+00  0.11233018373E+00  0.95975249933E+00  0.93800000000E+00 0.  1.
         22    1    1    2    0    0  0.36703690182E-02  0.28543870799E+00  0.38368619705E+01  0.38474665051E+01  0.00000000000E+00 0. -1.
</event>
<event>
 5    1  0.3454171E+002  0.1599660E+01  0.7818608E-02  0.3353732E+00
         11   -1    0    0    0    0  0.00000000000E+00  0.00000000000E+00  0.39999999674E+01  0.40000000000E+01  0.51100000000E-03 0.  1.
    9000002   -1    0    0    0    0 -0.00000000000E+00 -0.00000000000E+00  0.00000000000E+00  0.93800000000E+00  0.93800000000E+00 0.  1.
         11    1    1    2    0    0  0.72391640002E-02 -0.81235356807E-03  0.12282086261E+00  0.12303776179E+00  0.51100000000E-03 0.  1.
    9000002    1    1    2    0    0 -0.24022673875E+00 -0.25840344795E-01  0.38767146324E-01  0.96939336756E+00  0.93800000000E+00 0.  1.
         22    1    1    2    0    0  0.23298757475E+00  0.26652698363E-01  0.38384119584E+01  0.38455688707E+01  0.00000000000E+00 0.  1.
</event>
<event>
 5    1  0.3454171E+002  0.1599420E+01  0.7818608E-02  0.3353994E+00
         11   -1    0    0    0    0  0.00000000000E+00  0.00000000000E+00  0.39999999674E+01  0.40000000000E+01  0.51100000000E-03 0. -1.
    9000002   -1    0    0    0    0 -0.00000000000E+00 -0.00000000000E+00  0.00000000000E+00  0.93800000000E+00  0.93800000000E+00 0.  1.
         11    1    1    2    0    0 -0.28653707445E-01 -0.12061037645E-01  0.28324667902E+00  0.28494814594E+00  0.51100000000E-03 0. -1.
    9000002    1    1    2    0    0  0.25930893108E+00  0.16429674720E+00  0.63108549272E-01  0.98896978309E+00  0.93800000000E+00 0.  1.
         22    1    1    2    0    0 -0.23065522363E+00 -0.15223570956E+00  0.36536447391E+01  0.36640820710E+01  0.00000000000E+00 0. -1.
</event>
<event>
 5    1  0.3454171E+002  0.1500597E+01  0.7818608E-02  0.3468862E+00
         11   -1    0    0    0    0  0.00000000000E+00  0.00000000000E+00  0.39999999674E+01  0.40000000000E+01  0.51100000000E-03 0.  1.
    9000002   -1    0    0    0    0 -0.00000000000E+00 -0.00000000000E+00  0.00000000000E+00  0.93800000000E+00  0.93800000000E+00 0.  1.
         11    1    1    2    0    0 -0.38267893533E+00  0.38324248148E-01  0.24115372130E+01  0.24420122658E+01  0.51100000000E-03 0.  1.
    9000002    1    1    2    0    0  0.36566939016E-01  0.66882615733E-01  0.79697000051E-01  0.94446071233E+00  0.93800000000E+00 0.  1.
         22    1    1    2    0    0  0.34611199631E+00 -0.10520686388E+00  0.15087657543E+01  0.15515270218E+01  0.00000000000E+00 0. -1.
</event>
<event>
 5    1  0.3454171E+002  0.1599674E+01  0.7818608E-02  0.3353718E+00
         11   -1    0    0    0    0  0.00000000000E+00  0.00000000000E+00  0.39999999674E+01  0.40000000000E+01  0.51100000000E-03 0. -1.
    9000002   -1    0    0    0    0 -0.00000000000E+00 -0.00000000000E+00  0.00000000000E+00  0.93800000000E+00  0.93800000000E+00 0. -1.
         11    1    1    2    0    0  0.92116905873E-01 -0.12502456186E+00  0.12419316804E+01  0.12516034616E+01  0.51100000000E-03 0. -1.
    9000002    1    1    2    0    0 -0.28579135156E+00  0.39266218113E+00  0.16108104961E+00  0.10684808794E+01  0.93800000000E+00 0. -1.
         22    1    1    2    0    0  0.19367444569E+00 -0.26763761927E+00  0.25969872374E+01  0.26179156589E+01  0.00000000000E+00 0. -1.
</event>
<event>
 5    1  0.3454171E+002  0.1529821E+01  0.7818608E-02  0.3433242E+00
         11   -1    0    0    0    0  0.00000000000E+00  0.00000000000E+00  0.39999999674E+01  0.40000000000E+01  0.51100000000E-03 0.  1.
    9000002   -1    0    0    0    0 -0.00000000000E+00 -0.00000000000E+00  0.00000000000E+00  0.93800000000E+00  0.93800000000E+00 0. -1.
         11    1    1    2    0    0  0.33541508193E+00  0.12023611392E+00  0.18407657965E+01  0.18749343932E+01  0.51100000000E-03 0.  1.
    9000002    1    1    2    0    0 -0.11268988927E+00  0.51774603918E-01  0.63250422108E-01  0.94827434672E+00  0.93800000000E+00 0. -1.
         22    1    1    2    0    0 -0.22272519266E+00 -0.17201071784E+00  0.20959837488E+01  0.21147912600E+01  0.00000000000E+00 0.  1.
</event>
<event>
 5    1  0.3454171E+002  0.1528651E+01  0.7818608E-02  0.3434640E+00
         11   -1    0    0    0    0  0.00000000000E+00  0.00000000000E+00  0.39999999674E+01  0.40000000000E+01  0.51100000000E-03 0.  1.
    9000002   -1    0    0    0    0 -0.00000000000E+00 -0.00000000000E+00  0.00000000000E+00  0.93800000000E+00  0.93800000000E+00 0. -1.
         11    1    1    2    0    0 -0.14267394412E+00  0.11100373519E+00  0.15715901861E+01  0.15819524827E+01  0.51100000000E-03 0.  1.
    9000002    1    1    2    0    0  0.21079744218E+00  0.48116138005E+00  0.25845061727E+00  0.11057090742E+01  0.93800000000E+00 0. -1.
         22    1    1    2    0    0 -0.68123498057E-01 -0.59216511523E+00  0.21699591640E+01  0.22503384430E+01  0.00000000000E+00 0.  1.
</event>
<event>
 5    1  0.3454171E+002  0.1500383E+01  0.7818608E-02  0.3469129E+00
         11   -1    0    0    0    0  0.00000000000E+00  0.00000000000E+00  0.39999999674E+01  0.40000000000E+01  0.51100000000E-03 0. -1.
    9000002   -1    0    0    0    0 -0.00000000000E+00 -0.00000000000E+00  0.00000000000E+00  0.93800000000E+00  0.93800000000E+00 0.  1.
         11    1    1    2    0    0  0.15440973558E+00 -0.22450583529E+00  0.44536893077E+00  0.52211012453E+00  0.51100000000E-03 0. -1.
    9000002    1    1    2    0    0 -0.30251397081E+00  0.28409741370E-01  0.14403197993E+00  0.99644920954E+00  0.93800000000E+00 0.  1.
         22    1    1    2    0    0  0.14810423523E+00  0.19609609392E+00  0.34105990567E+01  0.34194406659E+01  0.00000000000E+00 0. -1.
</event>
<event>
 5    1  0.3454171E+002  0.1576988E+01  0.7818608E-02  0.3378724E+00
         11   -1    0    0    0    0  0.00000000000E+00  0.00000000000E+00  0.39999999674E+01  0.40000000000E+01  0.51100000000E-03 0.  1.
    9000002   -1    0    0    0    0 -0.00000000000E+00 -0.00000000000E+00  0.00000000000E+00  0.93800000000E+00  0.93800000000E+00 0. -1.
         11    1    1    2    0    0  0.12118092270E+00  0.13322734392E-01  0.67684355636E+00  0.68773524861E+00  0.51100000000E-03 0.  1.
    9000002    1    1    2    0    0  0.35996686292E-01  0.21308410431E+00  0.48249592701E-01  0.96378037961E+00  0.93800000000E+00 0. -1.
         22    1    1    2    0    0 -0.15717760899E+00 -0.22640683870E+00  0.32749068183E+01  0.32864843718E+01  0.00000000000E+00 0.  1.
</event>
<event>
 5    1  0.3454171E+002  0.1599674E+01  0.7818608E-02  0.3353717E+00
         11   -1    0    0    0    0  0.00000000000E+00  0.00000000000E+00  0.39999999674E+01  0.40000000000E+01  0.51100000000E-03 0.  1.
    9000002   -1    0    0    0    0 -0.00000000000E+00 -0.00000000000E+00  0.00000000000E+00  0.93800000000E+00  0.93800000000E+00 0.  1.
         11    1    1    2    0    0  0.20416976561E-01 -0.68272336165E-01  0.73069204869E+00  0.73415876754E+00  0.51100000000E-03 0.  1.
    9000002    1    1    2    0    0 -0.11348595363E+00  0.37169260295E+00  0.10173222650E+00  0.10204057520E+01  0.93800000000E+00 0.  1.
         22    1    1    2    0    0  0.93068977065E-01 -0.30342026678E+00  0.31675756922E+01  0.31834354805E+01  0.00000000000E+00 0.  1.
</event>
<event>
 5    1  0.3454171E+002  0.1599619E+01  0.7818608E-02  0.3353777E+00
         11   -1    0    0    0    0  0.00000000000E+00  0.00000000000E+00  0.39999999674E+01  0.40000000000E+01  0.51100000000E-03 0.  1.
    9000002   -1    0    0    0    0 -0.00000000000E+00 -0.00000000000E+00  0.00000000000E+00  0.93800000000E+00  0.93800000000E+00 0. -1.
         11    1    1    2    0    0  0.16802532823E-01  0.12987032507E-01  0.24184904014E+00  0.24278016282E+00  0.51100000000E-03 0.  1.
    9000002    1    1    2    0    0 -0.22813827083E+00 -0.15704507262E+00  0.51114440811E-01  0.97937067115E+00  0.93800000000E+00 0. -1.
         22    1    1    2    0    0  0.21133573801E+00  0.14405804012E+00  0.37070364864E+01  0.37158491660E+01  0.00000000000E+00 0.  1.
</event>
<event>
 5    1  0.3454171E+002  0.1061437E+01  0.7818608E-02  0.4372544E+00
         11   -1    0    0    0    0  0.00000000000E+00  0.00000000000E+00  0.39999999674E+01  0.40000000000E+01  0.51100000000E-03 0. -1.
    9000002   -1    0    0    0    0 -0.00000000000E+00 -0.00000000000E+00  0.00000000000E+00  0.93800000000E+00  0.93800000000E+00 0. -1.
         11    1    1    2    0    0  0.85476734348E+00 -0.59206430253E+00  0.11026298516E+01  0.15155725652E+01  0.51100000000E-03 0. -1.
    9000002    1    1    2    0    0 -0.17738885367E+00  0.99259433567E-01  0.12673401844E+01  0.15897529316E+01  0.93800000000E+00 0. -1.
         22    1    1    2    0    0 -0.67737848981E+00  0.49280486896E+00  0.16300299313E+01  0.18326745031E+01  0.00000000000E+00 0. -1.
</event>
<event>
 5    1  0.3454171E+002  0.1599677E+01  0.7818608E-02  0.3353714E+00
         11   -1    0    0    0    0  0.00000000000E+00  0.00000000000E+00  0.39999999674E+01  0.40000000000E+01  0.51100000000E-03 0. -1.
    9000002   -1    0    0    0    0 -0.00000000000E+00 -0.00000000000E+00  0.00000000000E+00  0.93800000000E+00  0.93800000000E+00 0. -1.
         11    1    1    2    0    0  0.56745674556E-01  0.32297764393E-01  0.90946325988E+00  0.91180420012E+00  0.51100000000E-03 0. -1.
    9000002    1    1    2    0    0 -0.24555764724E+00 -0.14027185137E+00  0.53269472824E-01  0.98115054255E+00  0.93800000000E+00 0. -1.
         22    1    1    2    0    0  0.18881197268E+00  0.10797408698E+00  0.30372672347E+01  0.30450452573E+01  0.00000000000E+00 0. -1.
</event>
<event>
 5    1  0.3454171E+002  0.1594954E+01  0.7818608E-02  0.3358858E+00
         11   -1    0    0    0    0  0.00000000000E+00  0.00000000000E+00  0.39999999674E+01  0.40000000000E+01  0.51100000000E-03 0. -1.
    9000002   -1    0    0    0    0 -0.00000000000E+00 -0.00000000000E+00  0.00000000000E+00  0.93800000000E+00  0.93800000000E+00 0.  1.
         11    1    1    2    0    0 -0.37738504457E-01  0.96087042667E-01  0.66943310219E+00  0.67734618469E+00  0.51100000000E-03 0. -1.
    9000002    1    1    2    0    0  0.22271130848E+00 -0.19834844190E+00  0.63027064863E-01  0.98628537566E+00  0.93800000000E+00 0.  1.
         22    1    1    2    0    0 -0.18497280402E+00  0.10226139924E+00  0.32675398003E+01  0.32743684397E+01  0.00000000000E+00 0. -1.
</event>
<event>
 5    1  0.3927213E+002  0.1585286E+01  0.7818608E-02  0.3369490E+00
         11   -1    0    0    0    0  0.00000000000E+00  0.00000000000E+00  0.39999999674E+01  0.40000000000E+01  0.51100000000E-03 0.  1.
    9000002   -1    0    0    0    0 -0.00000000000E+00 -0.00000000000E+00  0.00000000000E+00  0.93800000000E+00  0.93800000000E+00 0. -1.
         11    1    1    2    0    0 -0.94569248309E-01 -0.21786849247E-01  0.68910965559E+00  0.69590975569E+00  0.51100000000E-03 0.  1.
    9000002    1    1    2    0    0 -0.11875797729E-01 -0.17029659757E+00  0.30021632693E-01  0.95388010994E+00  0.93800000000E+00 0. -1.
         22    1    1    2    0    0  0.10644504604E+00  0.19208344681E+00  0.32808686791E+01  0.32882101344E+01  0.00000000000E+00 0.  1.
</event>
<event>
 5    1  0.3454171E+002  0.1598932E+01  0.7818608E-02  0.3354523E+00
         11   -1    0    0    0    0  0.00000000000E+00  0.00000000000E+00  0.39999999674E+01  0.40000000000E+01  0.51100000000E-03 0.  1.
    9000002   -1    0    0    0    0 -0.00000000000E+00 -0.00000000000E+00  0.00000000000E+00  0.93800000000E+00  0.93800000000E+00 0.  1.
         11    1    1    2    0    0  0.10375911189E+00 -0.68005955418E-01  0.92639826272E+00  0.93466826499E+00  0.51100000000E-03 0.  1.
    9000002    1    1    2    0    0 -0.32667750568E+00  0.23949522661E+00  0.11136729315E+00  0.10277756712E+01  0.93800000000E+00 0.  1.
         22    1    1    2    0    0  0.22291839379E+00 -0.17148927119E+00  0.29622344115E+01  0.29755560638E+01  0.00000000000E+00 0.  1.
</event>
<event>
 5    1  0.3454171E+002  0.1468406E+01  0.7818608E-02  0.3509870E+00
         11   -1    0    0    0    0  0.00000000000E+00  0.00000000000E+00  0.39999999674E+01  0.40000000000E+01  0.51100000000E-03 0.  1.
    9000002   -1    0    0    0    0 -0.00000000000E+00 -0.00000000000E+00  0.00000000000E+00  0.93800000000E+00  0.93800000000E+00 0.  1.
         11    1    1    2    0    0 -0.33695205197E-01 -0.12620311912E+00  0.39508248811E-01  0.13646888647E+00  0.51100000000E-03 0.  1.
    9000002    1    1    2    0    0 -0.19104109875E+00  0.11679791891E+00  0.14004868363E+00  0.97447221051E+00  0.93800000000E+00 0.  1.
         22    1    1    2    0    0  0.22473630395E+00  0.94052002131E-02  0.38204430349E+01  0.38270589030E+01  0.00000000000E+00 0.  1.
</event>
<event>
 5    1  0.3454171E+002  0.1599676E+01  0.7818608E-02  0.3353715E+00
         11   -1    0    0    0    0  0.00000000000E+00  0.00000000000E+00  0.39999999674E+01  0.40000000000E+01  0.51100000000E-03 0.  1.
    9000002   -1    0    0    0    0 -0.00000000000E+00 -0.00000000000E+00  0.00000000000E+00  0.93800000000E+00  0.93800000000E+00 0.  1.
         11    1    1    2    0    0  0.27715643673E+00  0.79896287093E-01  0.22410593805E+01  0.22595456435E+01  0.51100000000E-03 0.  1.
    9000002    1    1    2    0    0 -0.47584510967E+00 -0.13658762433E+00  0.16763677345E+00  0.10737927339E+01  0.93800000000E+00 0.  1.
         22    1    1    2    0    0  0.19868867293E+00  0.56691337240E-01  0.15913038134E+01  0.16046616226E+01  0.00000000000E+00 0. -1.
</event>
<event>
 5    1  0.3454171E+002  0.1599677E+01  0.7818608E-02  0.3353714E+00
         11   -1    0    0    0    0  0.00000000000E+00  0.00000000000E+00  0.39999999674E+01  0.40000000000E+01  0.51100000000E-03 0. -1.
    9000002   -1    0    0    0    0 -0.00000000000E+00 -0.00000000000E+00  0.00000000000E+00  0.93800000000E+00  0.93800000000E+00 0.  1.
         11    1    1    2    0    0  0.35511364510E+00 -0.27121235005E+00  0.20843167618E+01  0.21316750372E+01  0.51100000000E-03 0. -1.
    9000002    1    1    2    0    0 -0.60942714015E+00  0.46513146537E+00  0.42826558851E+00  0.12849140569E+01  0.93800000000E+00 0.  1.
         22    1    1    2    0    0  0.25431349505E+00 -0.19391911532E+00  0.14874176171E+01  0.15214109059E+01  0.00000000000E+00 0. -1.
</event>
<event>
 5    1  0.3454171E+002  0.1598671E+01  0.7818608E-02  0.3354808E+00
         11   -1    0    0    0    0  0.00000000000E+00  0.00000000000E+00  0.39999999674E+01  0.40000000000E+01  0.51100000000E-03 0. -1.
    9000002   -1    0    0    0    0 -0.00000000000E+00 -0.00000000000E+00  0.00000000000E+00  0.93800000000E+00  0.93800000000E+00 0. -1.
         11    1    1    2    0    0  0.15463079545E-01  0.82086824160E-02  0.25616094733E+00  0.25675899469E+00  0.51100000000E-03 0. -1.
    9000002    1    1    2    0    0 -0.35137546468E+00  0.13879413945E+00  0.96833183058E-01  0.10158490024E+01  0.93800000000E+00 0. -1.
         22    1    1    2    0    0  0.33591238514E+00 -0.14700282186E+00  0.36470058370E+01  0.36653920029E+01  0.00000000000E+00 0. -1.
</event>
<event>
 5    1  0.3454171E+002  0.1599661E+01  0.7818608E-02  0.3353731E+00
         11   -1    0    0    0    0  0.00000000000E+00  0.00000000000E+00  0.39999999674E+01  0.40000000000E+01  0.51100000000E-03 0.  1.
    9000002   -1    0    0    0    0 -0.00000000000E+00 -0.00000000000E+00  0.00000000000E+00  0.93800000000E+00  0.93800000000E+00 0.  1.
         11    1    1    2    0    0 -0.55760701129E-01 -0.10630898573E+00  0.13717786984E+01  0.13770213923E+01  0.51100000000E-03 0.  1.
    9000002    1    1    2    0    0  0.14820312037E+00  0.29778158879E+00  0.74058431399E-01  0.99798130782E+00  0.93800000000E+00 0.  1.
         22    1    1    2    0    0 -0.92442419238E-01 -0.19147260306E+00  0.25541628375E+01  0.25629972999E+01  0.00000000000E+00 0.  1.
</event>
<event>
 5    1  0.3454171E+002  0.1599222E+01  0.7818608E-02  0.3354208E+00
         11   -1    0    0    0    0  0.00000000000E+00  0.00000000000E+00  0.39999999674E+01  0.40000000000E+01  0.51100000000E-03 0.  1.
    9000002   -1    0    0    0    0 -0.00000000000E+00 -0.00000000000E+00  0.00000000000E+00  0.93800000000E+00  0.93800000000E+00 0.  1.
         11    1    1    2    0    0 -0.13701839760E-02 -0.17376797342E-02  0.53044767518E-01  0.53093365095E-01  0.51100000000E-03 0.  1.
    9000002    1    1    2    0    0  0.11184010489E-02 -0.29722923433E+00  0.59277715025E-01  0.98575063584E+00  0.93800000000E+00 0.  1.
         22    1    1    2    0    0  0.25178292709E-03  0.29896691406E+00  0.38876774848E+01  0.38991559991E+01  0.00000000000E+00 0.  1.
</event>
<event>
 5    1  0.3454171E+002  0.1599677E+01  0.7818608E-02  0.3353714E+00
         11   -1    0    0    0    0  0.00000000000E+00  0.00000000000E+00  0.39999999674E+01  0.40000000000E+01  0.51100000000E-03 0. -1.
    9000002   -1    0    0    0    0 -0.00000000000E+00 -0.00000000000E+00  0.00000000000E+00  0.93800000000E+00  0.93800000000E+00 0. -1.
         11    1    1    2    0    0 -0.80664966598E-01 -0.72912483145E-01  0.10985393289E+01  0.11039075982E+01  0.51100000000E-03 0.  1.
    9000002    1    1    2    0    0  0.28604358514E+00  0.25919346847E+00  0.10032828469E+00  0.10192703034E+01  0.93800000000E+00 0. -1.
         22    1    1    2    0    0 -0.20537861854E+00 -0.18628098533E+00  0.28011323538E+01  0.28148220984E+01  0.00000000000E+00 0. -1.
</event>
<event>
 5    1  0.3454171E+002  0.1599674E+01  0.7818608E-02  0.3353717E+00
         11   -1    0    0    0    0  0.00000000000E+00  0.00000000000E+00  0.39999999674E+01  0.40000000000E+01  0.51100000000E-03 0.  1.
    9000002   -1    0    0    0    0 -0.00000000000E+00 -0.00000000000E+00  0.00000000000E+00  0.93800000000E+00  0.93800000000E+00 0. -1.
         11    1    1    2    0    0 -0.56044936062E-02  0.91335394840E-02  0.14486776313E+00  0.14526445472E+00  0.51100000000E-03 0.  1.
    9000002    1    1    2    0    0  0.15393042290E+00 -0.26536298755E+00  0.62825805610E-01  0.98888986854E+00  0.93800000000E+00 0. -1.
         22    1    1    2    0    0 -0.14832592929E+00  0.25622944807E+00  0.37923063986E+01  0.38038456767E+01  0.00000000000E+00 0.  1.
</event>
<event>
 5    1  0.3454171E+002  0.1571779E+01  0.7818608E-02  0.3384575E+00
         11   -1    0    0    0    0  0.00000000000E+00  0.00000000000E+00  0.39999999674E+01  0.40000000000E+01  0.51100000000E-03 0. -1.
    9000002   -1    0    0    0    0 -0.00000000000E+00 -0.00000000000E+00  0.00000000000E+00  0.93800000000E+00  0.93800000000E+00 0.  1.
         11    1    1    2    0    0  0.15761983890E+00  0.72664840735E-01  0.26286952608E+01  0.26344189545E+01  0.51100000000E-03 0. -1.
    9000002    1    1    2    0    0 -0.41883889529E+00 -0.29763050878E+00  0.20706165934E+00  0.10893706765E+01  0.93800000000E+00 0.  1.
         22    1    1    2    0    0  0.26121905639E+00  0.22496566804E+00  0.11642430473E+01  0.12142103691E+01  0.00000000000E+00 0. -1.
</event>
<event>
 5    1  0.6917220E+002  0.1583976E+01  0.7818608E-02  0.3370941E+00
         11   -1    0    0    0    0  0.00000000000E+00  0.00000000000E+00  0.39999999674E+01  0.40000000000E+01  0.51100000000E-03 0. -1.
    9000002   -1    0    0    0    0 -0.00000000000E+00 -0.00000000000E+00  0.00000000000E+00  0.93800000000E+00  0.93800000000E+00 0.  1.
         11    1    1    2    0    0  0.10239083272E+00  0.39453070682E-01  0.14694129024E+01  0.14735043150E+01  0.51100000000E-03 0. -1.
    9000002    1    1    2    0    0  0.89541510059E-01  0.37230552362E-01  0.17743338813E-01  0.94316627491E+00  0.93800000000E+00 0.  1.
         22    1    1    2    0    0 -0.19193234277E+00 -0.76683623044E-01  0.25128437262E+01  0.25213294101E+01  0.00000000000E+00 0. -1.
</event>
<event>
 5    1  0.3454171E+002  0.1599673E+01  0.7818608E-02  0.3353719E+00
         11   -1    0    0    0    0  0.00000000000E+00  0.00000000000E+00  0.39999999674E+01  0.40000000000E+01  0.51100000000E-03 0. -1.
    9000002   -1    0    0    0    0 -0.00000000000E+00 -0.00000000000E+00  0.00000000000E+00  0.93800000000E+00  0.93800000000E+00 0. -1.
         11    1    1    2    0    0  0.13074223011E+00  0.13978263932E+00  0.17801012377E+01  0.17903612470E+01  0.51100000000E-03 0. -1.
    9000002    1    1    2    0    0 -0.29012642459E+00 -0.30298377719E+00  0.11900630577E+00  0.10343978984E+01  0.93800000000E+00 0. -1.
         22    1    1    2    0    0  0.15938419448E+00  0.16320113787E+00  0.21008924239E+01  0.21132408546E+01  0.00000000000E+00 0. -1.
</event>
<event>
 5    1  0.3454171E+002  0.1599592E+01  0.7818608E-02  0.3353806E+00
         11   -1    0    0    0    0  0.00000000000E+00  0.00000000000E+00  0.39999999674E+01  0.40000000000E+01  0.51100000000E-03 0.  1.
    9000002   -1    0    0    0    0 -0.00000000000E+00 -0.00000000000E+00  0.00000000000E+00  0.93800000000E+00  0.93800000000E+00 0.  1.
         11    1    1    2    0    0  0.62832553358E-01 -0.38417570730E-01  0.10089904004E+01  0.10116747149E+01  0.51100000000E-03 0.  1.
    9000002    1    1    2    0    0 -0.26715248097E+00  0.11911480156E+00  0.57104224668E-01  0.98420713090E+00  0.93800000000E+00 0.  1.
         22    1    1    2    0    0  0.20431992761E+00 -0.80697230829E-01  0.29339053423E+01  0.29421181542E+01  0.00000000000E+00 0.  1.
</event>
<event>
 5    1  0.3454171E+002  0.1556921E+01  0.7818608E-02  0.3401490E+00
         11   -1    0    0    0    0  0.00000000000E+00  0.00000000000E+00  0.39999999674E+01  0.40000000000E+01  0.51100000000E-03 0. -1.
    9000002   -1    0    0    0    0 -0.00000000000E+00 -0.00000000000E+00  0.00000000000E+00  0.93800000000E+00  0.93800000000E+00 0.  1.
         11    1    1    2    0    0  0.18591684769E+00  0.17350293873E-01  0.78214661185E+00  0.80412666322E+00  0.51100000000E-03 0. -1.
    9000002    1    1    2    0    0  0.63029910967E-01 -0.15807619797E+00  0.51574370163E-01  0.95470664065E+00  0.93800000000E+00 0.  1.
         22    1    1    2    0    0 -0.24894675866E+00  0.14072590410E+00  0.31662789854E+01  0.31791666961E+01  0.00000000000E+00 0. -1.
</event>
<event>
 5    1  0.3454171E+002  0.1599562E+01  0.7818608E-02  0.3353839E+00
         11   -1    0    0    0    0  0.00000000000E+00  0.00000000000E+00  0.39999999674E+01  0.40000000000E+01  0.51100000000E-03 0.  1.
    9000002   -1    0    0    0    0 -0.00000000000E+00 -0.00000000000E+00  0.00000000000E+00  0.93800000000E+00  0.93800000000E+00 0. -1.
         11    1    1    2    0    0  0.60138161414E-01 -0.12212631846E+00  0.12648253634E+01  0.12721300630E+01  0.51100000000E-03 0.  1.
    9000002    1    1    2    0    0 -0.18356524921E+00  0.33923387890E+00  0.10026671952E+00  0.10191531977E+01  0.93800000000E+00 0. -1.
         22    1    1    2    0    0  0.12342708779E+00 -0.21710756043E+00  0.26349078845E+01  0.26467167394E+01  0.00000000000E+00 0. -1.
</event>
<event>
 5    1  0.3454171E+002  0.1595593E+01  0.7818608E-02  0.3358161E+00
         11   -1    0    0    0    0  0.00000000000E+00  0.00000000000E+00  0.39999999674E+01  0.40000000000E+01  0.51100000000E-03 0.  1.
    9000002   -1    0    0    0    0 -0.00000000000E+00 -0.00000000000E+00  0.00000000000E+00  0.93800000000E+00  0.93800000000E+00 0. -1.
         11    1    1    2    0    0 -0.73396689084E-01  0.83713367275E-01  0.10043905256E+01  0.10105422262E+01  0.51100000000E-03 0.  1.
    9000002    1    1    2    0    0  0.27812038006E-01 -0.37008825374E+00  0.95918245201E-01  0.10133030814E+01  0.93800000000E+00 0. -1.
         22    1    1    2    0    0  0.45584651077E-01  0.28637488647E+00  0.28996911965E+01  0.29141546924E+01  0.00000000000E+00 0.  1.
</event>
<event>
 5    1  0.3454171E+002  0.1599677E+01  0.7818608E-02  0.3353714E+00
         11   -1    0    0    0    0  0.00000000000E+00  0.00000000000E+00  0.39999999674E+01  0.40000000000E+01  0.51100000000E-03 0.  1.
    9000002   -1    0    0    0    0 -0.00000000000E+00 -0.00000000000E+00  0.00000000000E+00  0.93800000000E+00  0.93800000000E+00 0. -1.
         11    1    1    2    0    0 -0.69742732177E-01  0.19393311720E+00  0.19707089308E+01  0.19814560439E+01  0.51100000000E-03 0.  1.
    9000002    1    1    2    0    0  0.13704878082E+00 -0.38268754797E+00  0.11154611665E+00  0.10283572647E+01  0.93800000000E+00 0. -1.
         22    1    1    2    0    0 -0.67306048639E-01  0.18875443077E+00  0.19177449199E+01  0.19281866915E+01  0.00000000000E+00 0.  1.
</event>
<event>
 5    1  0.3454171E+002  0.1572702E+01  0.7818608E-02  0.3383536E+00
         11   -1    0    0    0    0  0.00000000000E+00  0.00000000000E+00  0.39999999674E+01  0.40000000000E+01  0.51100000000E-03 0.  1.
    9000002   -1    0    0    0    0 -0.00000000000E+00 -0.00000000000E+00  0.00000000000E+00  0.93800000000E+00  0.93800000000E+00 0.  1.
         11    1    1    2    0    0 -0.24085267184E-01  0.25755051506E-01  0.21392378971E-01  0.41247033499E-01  0.51100000000E-03 0.  1.
    9000002    1    1    2    0    0  0.17598740708E+00  0.11131460375E+00  0.49277052416E-01  0.96209913021E+00  0.93800000000E+00 0.  1.
         22    1    1    2    0    0 -0.15190213990E+00 -0.13706965526E+00  0.39293305360E+01  0.39346538363E+01  0.00000000000E+00 0.  1.
</event>
<event>
 5    1  0.3454171E+002  0.1447478E+01  0.7818608E-02  0.3537591E+00
         11   -1    0    0    0    0  0.00000000000E+00  0.00000000000E+00  0.39999999674E+01  0.40000000000E+01  0.51100000000E-03 0.  1.
    9000002   -1    0    0    0    0 -0.00000000000E+00 -0.00000000000E+00  0.00000000000E+00  0.93800000000E+00  0.93800000000E+00 0.  1.
         11    1    1    2    0    0 -0.26848151566E-01 -0.52479040719E+00  0.21198735633E+01  0.21840306729E+01  0.51100000000E-03 0.  1.
    9000002    1    1    2    0    0  0.49282263044E-01  0.10501735047E+00  0.12997563165E+00  0.95404143001E+00  0.93800000000E+00 0.  1.
         22    1    1    2    0    0 -0.22434111477E-01  0.41977305672E+00  0.17501507725E+01  0.17999278971E+01  0.00000000000E+00 0.  1.
</event>
<event>
 5    1  0.3454171E+002  0.1599677E+01  0.7818608E-02  0.3353715E+00
         11   -1    0    0    0    0  0.00000000000E+00  0.00000000000E+00  0.39999999674E+01  0.40000000000E+01  0.51100000000E-03 0. -1.
    9000002   -1    0    0    0    0 -0.00000000000E+00 -0.00000000000E+00  0.00000000000E+00  0.93800000000E+00  0.93800000000E+00 0. -1.
         11    1    1    2    0    0  0.18792261064E+00 -0.80844833563E-02  0.18593491830E+01  0.18688391883E+01  0.51100000000E-03 0. -1.
    9000002    1    1    2    0    0 -0.39325704211E+00  0.15221971705E-01  0.10438631191E+00  0.10225572413E+01  0.93800000000E+00 0. -1.
         22    1    1    2    0    0  0.20533443147E+00 -0.71374883485E-02  0.20362644725E+01  0.20466035704E+01  0.00000000000E+00 0. -1.
</event>
<event>
 5    1  0.3454171E+002  0.1599672E+01  0.7818608E-02  0.3353719E+00
         11   -1    0    0    0    0  0.00000000000E+00  0.00000000000E+00  0.39999999674E+01  0.40000000000E+01  0.51100000000E-03 0. -1.
    9000002   -1    0    0    0    0 -0.00000000000E+00 -0.00000000000E+00  0.00000000000E+00  0.93800000000E+00  0.93800000000E+00 0.  1.
         11    1    1    2    0    0  0.11273934153E+00 -0.47545604932E-01  0.13737171199E+01  0.13791554410E+01  0.51100000000E-03 0. -1.
    9000002    1    1    2    0    0 -0.31960682529E+00  0.12902066807E+00  0.79610392831E-01  0.10024852469E+01  0.93800000000E+00 0.  1.
         22    1    1    2    0    0  0.20686748377E+00 -0.81475063141E-01  0.25466724546E+01  0.25563593122E+01  0.00000000000E+00 0.  1.
</event>
<event>
 5    1  0.3454171E+002  0.1599655E+01  0.7818608E-02  0.3353738E+00
         11   -1    0    0    0    0  0.00000000000E+00  0.00000000000E+00  0.39999999674E+01  0.40000000000E+01  0.51100000000E-03 0.  1.
    9000002   -1    0    0    0    0 -0.00000000000E+00 -0.00000000000E+00  0.00000000000E+00  0.93800000000E+00  0.93800000000E+00 0. -1.
         11    1    1    2    0    0 -0.16029571683E-01 -0.13954598315E-01  0.20135337951E+00  0.20247252293E+00  0.51100000000E-03 0.  1.
    9000002    1    1    2    0    0  0.33956819075E+00  0.30310511509E+00  0.14084046197E+00  0.10520738105E+01  0.93800000000E+00 0. -1.
         22    1    1    2    0    0 -0.32353861907E+00 -0.28915051677E+00  0.36578061259E+01  0.36834536666E+01  0.00000000000E+00 0.  1.
</event>
<event>
 5    1  0.3454171E+002  0.1564475E+01  0.7818608E-02  0.3392847E+00
         11   -1    0    0    0    0  0.00000000000E+00  0.00000000000E+00  0.39999999674E+01  0.40000000000E+01  0.51100000000E-03 0.  1.
    9000002   -1    0    0    0    0 -0.00000000000E+00 -0.00000000000E+00  0.00000000000E+00  0.93800000000E+00  0.93800000000E+00 0.  1.
         11    1    1    2    0    0 -0.16299178263E+00 -0.76975343282E-01  0.19315934928E+01  0.19399858781E+01  0.51100000000E-03 0.  1.
    9000002    1    1    2    0    0 -0.12785637625E+00  0.17517809846E+00  0.58199641080E-01  0.96450288613E+00  0.93800000000E+00 0.  1.
         22    1    1    2    0    0  0.29084815888E+00 -0.98202755177E-01  0.20102068335E+01  0.20335112358E+01  0.00000000000E+00 0.  1.
</event>
<event>
 5    1  0.3454171E+002  0.1582908E+01  0.7818608E-02  0.3372126E+00
         11   -1    0    0    0    0  0.00000000000E+00  0.00000000000E+00  0.39999999674E+01  0.40000000000E+01  0.51100000000E-03 0. -1.
    9000002   -1    0    0    0    0 -0.00000000000E+00 -0.00000000000E+00  0.00000000000E+00  0.93800000000E+00  0.93800000000E+00 0. -1.
         11    1    1    2    0    0  0.77148711975E-01 -0.83846918416E-02  0.18872997939E+00  0.20406247342E+00  0.51100000000E-03 0. -1.
    9000002    1    1    2    0    0 -0.23294458920E+00 -0.18119878723E+00  0.71285548602E-01  0.98591166520E+00  0.93800000000E+00 0. -1.
         22    1    1    2    0    0  0.15579587722E+00  0.18958347907E+00  0.37399844394E+01  0.37480258614E+01  0.00000000000E+00 0. -1.
</event>
<event>
 5    1  0.3454171E+002  0.1599673E+01  0.7818608E-02  0.3353719E+00
         11   -1    0    0    0    0  0.00000000000E+00  0.00000000000E+00  0.39999999674E+01  0.40000000000E+01  0.51100000000E-03 0. -1.
    9000002   -1    0    0    0    0 -0.00000000000E+00 -0.00000000000E+00  0.00000000000E+00  0.93800000000E+00  0.93800000000E+00 0. -1.
         11    1    1    2    0    0  0.71186625826E-01 -0.14764449345E+00  0.13827898751E+01  0.13924706575E+01  0.51100000000E-03 0. -1.
    9000002    1    1    2    0    0 -0.20417545908E+00  0.41502447436E+00  0.14557689620E+00  0.10559211927E+01  0.93800000000E+00 0. -1.
         22    1    1    2    0    0  0.13298883326E+00 -0.26737998091E+00  0.24716331960E+01  0.24896081498E+01  0.00000000000E+00 0. -1.
</event>
<event>
 5    1  0.3454171E+002  0.1599632E+01  0.7818608E-02  0.3353763E+00
         11   -1    0    0    0    0  0.00000000000E+00  0.00000000000E+00  0.39999999674E+01  0.40000000000E+01  0.51100000000E-03 0. -1.
    9000002   -1    0    0    0    0 -0.00000000000E+00 -0.00000000000E+00  0.00000000000E+00  0.93800000000E+00  0.93800000000E+00 0.  1.
         11    1    1    2    0    0  0.45956536701E+00 -0.98444382610E-01  0.23510762645E+01  0.23975928523E+01  0.51100000000E-03 0. -1.
    9000002    1    1    2    0    0 -0.71684787123E+00  0.15635240019E+00  0.38841705231E+00  0.12526087777E+01  0.93800000000E+00 0.  1.
         22    1    1    2    0    0  0.25728250422E+00 -0.57908017582E-01  0.12605066506E+01  0.12877983699E+01  0.00000000000E+00 0. -1.
</event>
<event>
 5    1  0.3454171E+002  0.1588450E+01  0.7818608E-02  0.3365996E+00
         11   -1    0    0    0    0  0.00000000000E+00  0.00000000000E+00  0.39999999674E+01  0.40000000000E+01  0.51100000000E-03 0. -1.
    9000002   -1    0    0    0    0 -0.00000000000E+00 -0.00000000000E+00  0.00000000000E+00  0.93800000000E+00  0.93800000000E+00 0. -1.
         11    1    1    2    0    0  0.70809355779E-01 -0.65197689154E-01  0.11438225853E+01  0.11478654413E+01  0.51100000000E-03 0. -1.
    9000002    1    1    2    0    0 -0.12481618055E+00 -0.15583904634E+00  0.34850999631E-01  0.95964758087E+00  0.93800000000E+00 0. -1.
         22    1    1    2    0    0  0.54006824772E-01  0.22103673549E+00  0.28213263824E+01  0.28304869778E+01  0.00000000000E+00 0. -1.
</event>
<event>
 5    1  0.3454171E+002  0.1594355E+01  0.7818608E-02  0.3359513E+00
         11   -1    0    0    0    0  0.00000000000E+00  0.00000000000E+00  0.39999999674E+01  0.40000000000E+01  0.51100000000E-03 0. -1.
    9000002   -1    0    0    0    0 -0.00000000000E+00 -0.00000000000E+00  0.00000000000E+00  0.93800000000E+00  0.93800000000E+00 0.  1.
         11    1    1    2    0    0 -0.75955529208E-01  0.42265442053E-01  0.58370044579E+00  0.59013734126E+00  0.51100000000E-03 0. -1.
    9000002    1    1    2    0    0  0.44185901688E+00  0.13238906586E+00  0.14940392643E+00  0.10559033047E+01  0.93800000000E+00 0.  1.
         22    1    1    2    0    0 -0.36590348767E+00 -0.17465450792E+00  0.32668955951E+01  0.32919593541E+01  0.00000000000E+00 0. -1.
</event>
<event>
 5    1  0.3454171E+002  0.1593179E+01  0.7818608E-02  0.3360800E+00
         11   -1    0    0    0    0  0.00000000000E+00  0.00000000000E+00  0.39999999674E+01  0.40000000000E+01  0.51100000000E-03 0.  1.
    9000002   -1    0    0    0    0 -0.00000000000E+00 -0.00000000000E+00  0.00000000000E+00  0.93800000000E+00  0.93800000000E+00 0. -1.
         11    1    1    2    0    0  0.73081709930E-01 -0.25335967211E+00  0.18305142322E+01  0.18494092774E+01  0.51100000000E-03 0.  1.
    9000002    1    1    2    0    0 -0.25310097399E+00  0.35560623029E+00  0.13471614546E+00  0.10433160278E+01  0.93800000000E+00 0. -1.
         22    1    1    2    0    0  0.18001926406E+00 -0.10224655818E+00  0.20347695897E+01  0.20452746948E+01  0.00000000000E+00 0. -1.
</event>
<event>
 5    1  0.3454171E+002  0.1599493E+01  0.7818608E-02  0.3353914E+00
         11   -1    0    0    0    0  0.00000000000E+00  0.00000000000E+00  0.39999999674E+01  0.40000000000E+01  0.51100000000E-03 0.  1.
    9000002   -1    0    0    0    0 -0.00000000000E+00 -0.00000000000E+00  0.00000000000E+00  0.93800000000E+00  0.93800000000E+00 0. -1.
         11    1    1    2    0    0  0.11551694271E-01  0.11679120147E-01  0.16315628067E+00  0.16398193965E+00  0.51100000000E-03 0.  1.
    9000002    1    1    2    0    0 -0.33045270069E+00 -0.13348319296E+00  0.85375406869E-01  0.10070500039E+01  0.93800000000E+00 0. -1.
         22    1    1    2    0    0  0.31890100642E+00  0.12180407282E+00  0.37514682798E+01  0.37669680565E+01  0.00000000000E+00 0.  1.
</event>
<event>
 5    1  0.3454171E+002  0.1560111E+01  0.7818608E-02  0.3397829E+00
         11   -1    0    0    0    0  0.00000000000E+00  0.00000000000E+00  0.39999999674E+01  0.40000000000E+01  0.51100000000E-03 0.  1.
    9000002   -1    0    0    0    0 -0.00000000000E+00 -0.00000000000E+00  0.00000000000E+00  0.93800000000E+00  0.93800000000E+00 0. -1.
         11    1    1    2    0    0 -0.18995534122E+00 -0.17869704431E+00  0.13302573327E+01  0.13555812398E+01  0.51100000000E-03 0.  1.
    9000002    1    1    2    0    0  0.32284208664E+00 -0.10003618822E+00  0.10883006721E+00  0.10029567465E+01  0.93800000000E+00 0. -1.
         22    1    1    2    0    0 -0.13288674542E+00  0.27873323253E+00  0.25609125674E+01  0.25794620137E+01  0.00000000000E+00 0.  1.
</event>
<event>
 5    1  0.3454171E+002  0.1599677E+01  0.7818608E-02  0.3353714E+00
         11   -1    0    0    0    0  0.00000000000E+00  0.00000000000E+00  0.39999999674E+01  0.40000000000E+01  0.51100000000E-03 0. -1.
    9000002   -1    0    0    0    0 -0.00000000000E+00 -0.00000000000E+00  0.00000000000E+00  0.93800000000E+00  0.93800000000E+00 0. -1.
         11    1    1    2    0    0  0.98649983844E-01  0.33306157632E+00  0.22118673714E+01  0.22389773028E+01  0.51100000000E-03 0. -1.
    9000002    1    1    2    0    0 -0.16633551645E+00 -0.56559200788E+00  0.24195907117E+00  0.11339973613E+01  0.93800000000E+00 0. -1.
         22    1    1    2    0    0  0.67685532610E-01  0.23253043156E+00  0.15461735248E+01  0.15650253358E+01  0.00000000000E+00 0. -1.
</event>
<event>
 5    1  0.3454171E+002  0.1598355E+01  0.7818608E-02  0.3355151E+00
         11   -1    0    0    0    0  0.00000000000E+00  0.00000000000E+00  0.39999999674E+01  0.40000000000E+01  0.51100000000E-03 0. -1.
    9000002   -1    0    0    0    0 -0.00000000000E+00 -0.00000000000E+00  0.00000000000E+00  0.93800000000E+00  0.93800000000E+00 0.  1.
         11    1    1    2    0    0 -0.45360702279E+00  0.36503539474E+00  0.24773110001E+01  0.25448143788E+01  0.51100000000E-03 0. -1.
    9000002    1    1    2    0    0  0.68222975333E+00 -0.47976342158E+00  0.52040783915E+00  0.13587783837E+01  0.93800000000E+00 0.  1.
         22    1    1    2    0    0 -0.22862273053E+00  0.11472802683E+00  0.10022811281E+01  0.10344072375E+01  0.00000000000E+00 0. -1.
</event>
<event>
 5    1  0.3454171E+002  0.1535570E+01  0.7818608E-02  0.3426406E+00
         11   -1    0    0    0    0  0.00000000000E+00  0.00000000000E+00  0.39999999674E+01  0.40000000000E+01  0.51100000000E-03 0.  1.
    9000002   -1    0    0    0    0 -0.00000000000E+00 -0.00000000000E+00  0.00000000000E+00  0.93800000000E+00  0.93800000000E+00 0.  1.
         11    1    1    2    0    0  0.28108585960E+00  0.99551014318E-01  0.21693398529E+01  0.21897386428E+01  0.51100000000E-03 0.  1.
    9000002    1    1    2    0    0 -0.21073500370E+00  0.27735949630E+00  0.13483860936E+00  0.10096350739E+01  0.93800000000E+00 0.  1.
         22    1    1    2    0    0 -0.70350855897E-01 -0.37691051062E+00  0.16958215051E+01  0.17386262833E+01  0.00000000000E+00 0. -1.
</event>
<event>
 5    1  0.3454171E+002  0.1517405E+01  0.7818608E-02  0.3448195E+00
         11   -1    0    0    0    0  0.00000000000E+00  0.00000000000E+00  0.39999999674E+01  0.40000000000E+01  0.51100000000E-03 0. -1.
    9000002   -1    0    0    0    0 -0.00000000000E+00 -0.00000000000E+00  0.00000000000E+00  0.93800000000E+00  0.93800000000E+00 0.  1.
         11    1    1    2    0    0 -0.23267570731E+00 -0.11176417657E+00  0.30041304061E+01  0.30151996574E+01  0.51100000000E-03 0. -1.
    9000002    1    1    2    0    0 -0.65080413268E-01  0.32840078896E-01  0.65890669350E-01  0.94313281741E+00  0.93800000000E+00 0.  1.
         22    1    1    2    0    0  0.29775612058E+00  0.78924097672E-01  0.92997889194E+00  0.97966752523E+00  0.00000000000E+00 0. -1.
</event>
<event>
 5    1  0.3454171E+002  0.1599675E+01  0.7818608E-02  0.3353716E+00
         11   -1    0    0    0    0  0.00000000000E+00  0.00000000000E+00  0.39999999674E+01  0.40000000000E+01  0.51100000000E-03 0. -1.
    9000002   -1    0    0    0    0 -0.00000000000E+00 -0.00000000000E+00  0.00000000000E+00  0.93800000000E+00  0.93800000000E+00 0. -1.
         11    1    1    2    0    0  0.29088844492E+00 -0.85528090930E-03  0.20590508916E+01  0.20794969715E+01  0.51100000000E-03 0. -1.
    9000002    1    1    2    0    0 -0.53877267268E+00  0.36573281874E-02  0.20008388447E+00  0.11000758745E+01  0.93800000000E+00 0. -1.
         22    1    1    2    0    0  0.24788422777E+00 -0.28020472781E-02  0.17408651912E+01  0.17584271540E+01  0.00000000000E+00 0.  1.
</event>
<event>
 5    1  0.3454171E+002  0.1599665E+01  0.7818608E-02  0.3353727E+00
         11   -1    0    0    0    0  0.00000000000E+00  0.00000000000E+00  0.39999999674E+01  0.40000000000E+01  0.51100000000E-03 0.  1.
    9000002   -1    0    0    0    0 -0.00000000000E+00 -0.00000000000E+00  0.00000000000E+00  0.93800000000E+00  0.93800000000E+00 0. -1.
         11    1    1    2    0    0  0.12658043033E+00  0.22067065606E+00  0.12749226959E+01  0.13000562624E+01  0.51100000000E-03 0.  1.
    9000002    1    1    2    0    0 -0.34909076344E+00 -0.62857710482E+00  0.37141725825E+00  0.12388576664E+01  0.93800000000E+00 0. -1.
         22    1    1    2    0    0  0.22251033311E+00  0.40790644876E+00  0.23536600132E+01  0.23990860712E+01  0.00000000000E+00 0.  1.
</event>
<event>
 5    1  0.3454171E+002  0.1599677E+01  0.7818608E-02  0.3353714E+00
         11   -1    0    0    0    0  0.00000000000E+00  0.00000000000E+00  0.39999999674E+01  0.40000000000E+01  0.51100000000E-03 0.  1.
    9000002   -1    0    0    0    0 -0.00000000000E+00 -0.00000000000E+00  0.00000000000E+00  0.93800000000E+00  0.93800000000E+00 0. -1.
         11    1    1    2    0    0 -0.39120555895E+00  0.33141514148E+00  0.25774155058E+01  0.26279171859E+01  0.51100000000E-03 0.  1.
    9000002    1    1    2    0    0  0.54985937222E+00 -0.46637348511E+00  0.37368028717E+00  0.12406975916E+01  0.93800000000E+00 0. -1.
         22    1    1    2    0    0 -0.15865381327E+00  0.13495834363E+00  0.10489041744E+01  0.10693852225E+01  0.00000000000E+00 0.  1.
</event>
<event>
 5    1  0.3454171E+002  0.1584631E+01  0.7818608E-02  0.3370216E+00
         11   -1    0    0    0    0  0.00000000000E+00  0.00000000000E+00  0.39999999674E+01  0.40000000000E+01  0.51100000000E-03 0. -1.
    9000002   -1    0    0    0    0 -0.00000000000E+00 -0.00000000000E+00  0.00000000000E+00  0.93800000000E+00  0.93800000000E+00 0.  1.
         11    1    1    2    0    0 -0.37535414080E-01  0.85904432512E-01  0.15820448628E+01  0.15848200806E+01  0.51100000000E-03 0. -1.
    9000002    1    1    2    0    0 -0.49493546522E-01  0.11760935214E+00  0.21868434868E-01  0.94689165130E+00  0.93800000000E+00 0.  1.
         22    1    1    2    0    0  0.87028960602E-01 -0.20351378465E+00  0.23960866697E+01  0.24062882681E+01  0.00000000000E+00 0. -1.
</event>
<event>
 5    1  0.3454171E+002  0.1482040E+01  0.7818608E-02  0.3492266E+00
         11   -1    0    0    0    0  0.00000000000E+00  0.00000000000E+00  0.39999999674E+01  0.40000000000E+01  0.51100000000E-03 0. -1.
    9000002   -1    0    0    0    0 -0.00000000000E+00 -0.00000000000E+00  0.00000000000E+00  0.93800000000E+00  0.93800000000E+00 0.  1.
         11    1    1    2    0    0  0.19712206018E-01  0.19566887902E+00  0.16293688722E+00  0.25538905932E+00  0.51100000000E-03 0. -1.
    9000002    1    1    2    0    0 -0.43552432241E+00 -0.13865000692E+00  0.25248331551E+00  0.10735441698E+01  0.93800000000E+00 0.  1.
         22    1    1    2    0    0  0.41581211639E+00 -0.57018872100E-01  0.35845797646E+01  0.36090667709E+01  0.00000000000E+00 0. -1.
</event>
<event>
 5    1  0.3874523E+002  0.1596961E+01  0.7818608E-02  0.3356669E+00
         11   -1    0    0    0    0  0.00000000000E+00  0.00000000000E+00  0.39999999674E+01  0.40000000000E+01  0.51100000000E-03 0. -1.
    9000002   -1    0    0    0    0 -0.00000000000E+00 -0.00000000000E+00  0.00000000000E+00  0.93800000000E+00  0.93800000000E+00 0. -1.
         11    1    1    2    0    0  0.31391057505E-02  0.61008528202E-02  0.13178898927E-01  0.14866704005E-01  0.51100000000E-03 0. -1.
    9000002    1    1    2    0    0  0.17739096334E+00  0.82466737150E-01  0.27363057122E-01  0.95857240389E+00  0.93800000000E+00 0. -1.
         22    1    1    2    0    0 -0.18053006909E+00 -0.88567589970E-01  0.39594580113E+01  0.39645608921E+01  0.00000000000E+00 0. -1.
</event>
<event>
 5    1  0.3454171E+002  0.1599672E+01  0.7818608E-02  0.3353719E+00
         11   -1    0    0    0    0  0.00000000000E+00  0.00000000000E+00  0.39999999674E+01  0.40000000000E+01  0.51100000000E-03 0. -1.
    9000002   -1    0    0    0    0 -0.00000000000E+00 -0.00000000000E+00  0.00000000000E+00  0.93800000000E+00  0.93800000000E+00 0. -1.
         11    1    1    2    0    0 -0.27533151238E-01 -0.38117649733E-01  0.74373795902E+00  0.74522308234E+00  0.51100000000E-03 0. -1.
    9000002    1    1    2    0    0  0.15430756562E+00  0.19542838764E+00  0.41188523636E-01  0.97136171120E+00  0.93800000000E+00 0. -1.
         22    1    1    2    0    0 -0.12677441439E+00 -0.15731073790E+00  0.32150734847E+01  0.32214152065E+01  0.00000000000E+00 0. -1.
</event>
<event>
 5    1  0.3454171E+002  0.1577342E+01  0.7818608E-02  0.3378328E+00
         11   -1    0    0    0    0  0.00000000000E+00  0.00000000000E+00  0.39999999674E+01  0.40000000000E+01  0.51100000000E-03 0. -1.
    9000002   -1    0    0    0    0 -0.00000000000E+00 -0.00000000000E+00  0.00000000000E+00  0.93800000000E+00  0.93800000000E+00 0.  1.
         11    1    1    2    0    0  0.99083101107E-01  0.15966543763E-01  0.32649540316E+00  0.34157268750E+00  0.51100000000E-03 0. -1.
    9000002    1    1    2    0    0  0.91738221599E-02 -0.19716636448E+00  0.42700075176E-01  0.95949259023E+00  0.93800000000E+00 0.  1.
         22    1    1    2    0    0 -0.10825692327E+00  0.18119982071E+00  0.36308044890E+01  0.36369347223E+01  0.00000000000E+00 0. -1.
</event>
<event>
 5    1  0.3454171E+002  0.1599616E+01  0.7818608E-02  0.3353780E+00
         11   -1    0    0    0    0  0.00000000000E+00  0.00000000000E+00  0.39999999674E+01  0.40000000000E+01  0.51100000000E-03 0. -1.
    9000002   -1    0    0    0    0 -0.00000000000E+00 -0.00000000000E+00  0.00000000000E+00  0.93800000000E+00  0.93800000000E+00 0. -1.
         11    1    1    2    0    0  0.17500906944E+00  0.12468926512E+00  0.20031176198E+01  0.20146106441E+01  0.51100000000E-03 0. -1.
    9000002    1    1    2    0    0 -0.35285645912E+00 -0.25213321044E+00  0.12749171164E+00  0.10412381923E+01  0.93800000000E+00 0. -1.
         22    1    1    2    0    0  0.17784738968E+00  0.12744394532E+00  0.18693906359E+01  0.18821511636E+01  0.00000000000E+00 0. -1.
</event>
<event>
 5    1  0.3454171E+002  0.1598407E+01  0.7818608E-02  0.3355095E+00
         11   -1    0    0    0    0  0.00000000000E+00  0.00000000000E+00  0.39999999674E+01  0.40000000000E+01  0.51100000000E-03 0. -1.
    9000002   -1    0    0    0    0 -0.00000000000E+00 -0.00000000000E+00  0.00000000000E+00  0.93800000000E+00  0.93800000000E+00 0.  1.
         11    1    1    2    0    0 -0.23554786402E-01  0.12561143942E-01  0.59974212911E+00  0.60033614987E+00  0.51100000000E-03 0. -1.
    9000002    1    1    2    0    0  0.72051275406E-01 -0.26767218432E+00  0.52140133438E-01  0.97949087697E+00  0.93800000000E+00 0.  1.
         22    1    1    2    0    0 -0.48496489004E-01  0.25511104037E+00  0.33481177048E+01  0.33581729732E+01  0.00000000000E+00 0. -1.
</event>
<event>
 5    1  0.3454171E+002  0.1599677E+01  0.7818608E-02  0.3353714E+00
         11   -1    0    0    0    0  0.00000000000E+00  0.00000000000E+00  0.39999999674E+01  0.40000000000E+01  0.51100000000E-03 0.  1.
    9000002   -1    0    0    0    0 -0.00000000000E+00 -0.00000000000E+00  0.00000000000E+00  0.93800000000E+00  0.93800000000E+00 0.  1.
         11    1    1    2    0    0  0.18194490356E-01  0.54784390763E-01  0.54992297749E+00  0.55294476328E+00  0.51100000000E-03 0.  1.
    9000002    1    1    2    0    0 -0.12851767324E+00 -0.38508606588E+00  0.11125252466E+00  0.10281192512E+01  0.93800000000E+00 0.  1.
         22    1    1    2    0    0  0.11032318289E+00  0.33030167511E+00  0.33388244652E+01  0.33569359855E+01  0.00000000000E+00 0.  1.
</event>
<event>
 5    1  0.3454171E+002  0.1574504E+01  0.7818608E-02  0.3381510E+00
         11   -1    0    0    0    0  0.00000000000E+00  0.00000000000E+00  0.39999999674E+01  0.40000000000E+01  0.51100000000E-03 0.  1.
    9000002   -1    0    0    0    0 -0.00000000000E+00 -0.00000000000E+00  0.00000000000E+00  0.93800000000E+00  0.93800000000E+00 0. -1.
         11    1    1    2    0    0  0.80327098845E-01  0.29302993406E-01  0.24084059832E+00  0.25556909663E+00  0.51100000000E-03 0.  1.
    9000002    1    1    2    0    0  0.13396904834E+00 -0.56883431820E-01  0.32777526630E-01  0.94979039634E+00  0.93800000000E+00 0. -1.
         22    1    1    2    0    0 -0.21429614719E+00  0.27580438414E-01  0.37263818424E+01  0.37326405070E+01  0.00000000000E+00 0.  1.
</event>
<event>
 5    1  0.3454171E+002  0.1597303E+01  0.7818608E-02  0.3356296E+00
         11   -1    0    0    0    0  0.00000000000E+00  0.00000000000E+00  0.39999999674E+01  0.40000000000E+01  0.51100000000E-03 0.  1.
    9000002   -1    0    0    0    0 -0.00000000000E+00 -0.00000000000E+00  0.00000000000E+00  0.93800000000E+00  0.93800000000E+00 0.  1.
         11    1    1    2    0    0 -0.13881281532E+00  0.20939885923E-01  0.19294824803E+01  0.19345827404E+01  0.51100000000E-03 0.  1.
    9000002    1    1    2    0    0  0.32966446246E+00  0.66876871446E-01  0.77655874230E-01  0.99951268554E+00  0.93800000000E+00 0.  1.
         22    1    1    2    0    0 -0.19085164714E+00 -0.87816757368E-01  0.19928616129E+01  0.20039045741E+01  0.00000000000E+00 0.  1.
</event>
<event>
 5    1  0.3454171E+002  0.1599675E+01  0.7818608E-02  0.3353716E+00
         11   -1    0    0    0    0  0.00000000000E+00  0.00000000000E+00  0.39999999674E+01  0.40000000000E+01  0.51100000000E-03 0.  1.
    9000002   -1    0    0    0    0 -0.00000000000E+00 -0.00000000000E+00  0.00000000000E+00  0.93800000000E+00  0.93800000000E+00 0.  1.
         11    1    1    2    0    0 -0.16215404580E-01 -0.42098481330E-01  0.64552151639E+00  0.64709621443E+00  0.51100000000E-03 0.  1.
    9000002    1    1    2    0    0  0.92731190232E-01  0.25678880942E+00  0.49608780026E-01  0.97818433710E+00  0.93800000000E+00 0.  1.
         22    1    1    2    0    0 -0.76515785652E-01 -0.21469032809E+00  0.33048696709E+01  0.33127194485E+01  0.00000000000E+00 0.  1.
</event>
<event>
 5    1  0.3454171E+002  0.1599677E+01  0.7818608E-02  0.3353714E+00
         11   -1    0    0    0    0  0.00000000000E+00  0.00000000000E+00  0.39999999674E+01  0.40000000000E+01  0.51100000000E-03 0.  1.
    9000002   -1    0    0    0    0 -0.00000000000E+00 -0.00000000000E+00  0.00000000000E+00  0.93800000000E+00  0.93800000000E+00 0. -1.
         11    1    1    2    0    0 -0.72361410248E-01  0.96252605814E-01  0.10821795898E+01  0.10888588813E+01  0.51100000000E-03 0.  1.
    9000002    1    1    2    0    0  0.25891813507E+00 -0.34228429697E+00  0.12473120912E+00  0.10390375427E+01  0.93800000000E+00 0. -1.
         22    1    1    2    0    0 -0.18655672482E+00  0.24603169115E+00  0.27930891685E+01  0.28101035760E+01  0.00000000000E+00 0.  1.
</event>
<event>
 5    1  0.3454171E+002  0.1599600E+01  0.7818608E-02  0.3353797E+00
         11   -1    0    0    0    0  0.00000000000E+00  0.00000000000E+00  0.39999999674E+01  0.40000000000E+01  0.51100000000E-03 0. -1.
    9000002   -1    0    0    0    0 -0.00000000000E+00 -0.00000000000E+00  0.00000000000E+00  0.93800000000E+00  0.93800000000E+00 0. -1.
         11    1    1    2    0    0  0.13814024088E-02 -0.51553736373E-01  0.58338386098E+00  0.58565918961E+00  0.51100000000E-03 0. -1.
    9000002    1    1    2    0    0 -0.37163142262E-01  0.38643795413E+00  0.10157294544E+00  0.10202335295E+01  0.93800000000E+00 0. -1.
         22    1    1    2    0    0  0.35781739853E-01 -0.33488421775E+00  0.33150431609E+01  0.33321072809E+01  0.00000000000E+00 0. -1.
</event>
<event>
 5    1  0.4059546E+002  0.1583993E+01  0.7818608E-02  0.3370922E+00
         11   -1    0    0    0    0  0.00000000000E+00  0.00000000000E+00  0.39999999674E+01  0.40000000000E+01  0.51100000000E-03 0.  1.
    9000002   -1    0    0    0    0 -0.00000000000E+00 -0.00000000000E+00  0.00000000000E+00  0.93800000000E+00  0.93800000000E+00 0.  1.
         11    1    1    2    0    0  0.79551246531E-01 -0.33604255247E-01  0.48871409144E+00  0.49628557413E+00  0.51100000000E-03 0.  1.
    9000002    1    1    2    0    0  0.12700031492E+00  0.47663121491E-01  0.23766740168E-01  0.94805575315E+00  0.93800000000E+00 0.  1.
         22    1    1    2    0    0 -0.20655156145E+00 -0.14058866244E-01  0.34875191358E+01  0.34936586727E+01  0.00000000000E+00 0.  1.
</event>
<event>
 5    1  0.3454171E+002  0.1597541E+01  0.7818608E-02  0.3356037E+00
         11   -1    0    0    0    0  0.00000000000E+00  0.00000000000E+00  0.39999999674E+01  0.40000000000E+01  0.51100000000E-03 0. -1.
    9000002   -1    0    0    0    0 -0.00000000000E+00 -0.00000000000E+00  0.00000000000E+00  0.93800000000E+00  0.93800000000E+00 0.  1.
         11    1    1    2    0    0  0.13028807675E+00 -0.14774169217E+00  0.55519338013E+00  0.58910316669E+00  0.51100000000E-03 0. -1.
    9000002    1    1    2    0    0 -0.64319898693E+00  0.66680001635E+00  0.66831539437E+00  0.14781125346E+01  0.93800000000E+00 0.  1.
         22    1    1    2    0    0  0.51291091017E+00 -0.51905832418E+00  0.27764911929E+01  0.28707842987E+01  0.00000000000E+00 0. -1.
</event>
<event>
 5    1  0.3454171E+002  0.1599480E+01  0.7818608E-02  0.3353928E+00
         11   -1    0    0    0    0  0.00000000000E+00  0.00000000000E+00  0.39999999674E+01  0.40000000000E+01  0.51100000000E-03 0. -1.
    9000002   -1    0    0    0    0 -0.00000000000E+00 -0.00000000000E+00  0.00000000000E+00  0.93800000000E+00  0.93800000000E+00 0.  1.
         11    1    1    2    0    0 -0.27834056323E-02 -0.74164572588E-02  0.23963238696E+00  0.23976382794E+00  0.51100000000E-03 0. -1.
    9000002    1    1    2    0    0 -0.53097374037E-01  0.21138412839E+00  0.31631727790E-01  0.96350773067E+00  0.93800000000E+00 0.  1.
         22    1    1    2    0    0  0.55880779669E-01 -0.20396767113E+00  0.37287358526E+01  0.37347284414E+01  0.00000000000E+00 0. -1.
</event>
<event>
 5    1  0.3454171E+002  0.1574398E+01  0.7818608E-02  0.3381628E+00
         11   -1    0    0    0    0  0.00000000000E+00  0.00000000000E+00  0.39999999674E+01  0.40000000000E+01  0.51100000000E-03 0. -1.
    9000002   -1    0    0    0    0 -0.00000000000E+00 -0.00000000000E+00  0.00000000000E+00  0.93800000000E+00  0.93800000000E+00 0.  1.
         11    1    1    2    0    0 -0.55281860283E-01 -0.15372106143E+00  0.20762359151E+01  0.20826526559E+01  0.51100000000E-03 0. -1.
    9000002    1    1    2    0    0 -0.88785038137E-01 -0.15635889803E-01  0.24012058090E-01  0.94262815732E+00  0.93800000000E+00 0.  1.
         22    1    1    2    0    0  0.14406689842E+00  0.16935695124E+00  0.18997519941E+01  0.19127191867E+01  0.00000000000E+00 0.  1.
</event>
<event>
 5    1  0.3454171E+002  0.1599658E+01  0.7818608E-02  0.3353735E+00
         11   -1    0    0    0    0  0.00000000000E+00  0.00000000000E+00  0.39999999674E+01  0.40000000000E+01  0.51100000000E-03 0.  1.
    9000002   -1    0    0    0    0 -0.00000000000E+00 -0.00000000000E+00  0.00000000000E+00  0.93800000000E+00  0.93800000000E+00 0.  1.
         11    1    1    2    0    0  0.16563376369E-02  0.15988300809E-02  0.53544126950E-01  0.53596029367E-01  0.51100000000E-03 0.  1.
    9000002    1    1    2    0    0 -0.18124501498E+00 -0.17572043900E+00  0.42356153591E-01  0.97229906504E+00  0.93800000000E+00 0.  1.
         22    1    1    2    0    0  0.17958867735E+00  0.17412160892E+00  0.39040996868E+01  0.39121049056E+01  0.00000000000E+00 0.  1.
</event>
<event>
 5    1  0.3454171E+002  0.1575026E+01  0.7818608E-02  0.3380924E+00
         11   -1    0    0    0    0  0.00000000000E+00  0.00000000000E+00  0.39999999674E+01  0.40000000000E+01  0.51100000000E-03 0.  1.
    9000002   -1    0    0    0    0 -0.00000000000E+00 -0.00000000000E+00  0.00000000000E+00  0.93800000000E+00  0.93800000000E+00 0.  1.
         11    1    1    2    0    0  0.39807281922E-01 -0.97567932949E-01  0.28795147202E+01  0.28814422441E+01  0.51100000000E-03 0.  1.
    9000002    1    1    2    0    0 -0.25163002470E+00  0.14373723572E-01  0.61304091478E-01  0.97320422569E+00  0.93800000000E+00 0.  1.
         22    1    1    2    0    0  0.21182274278E+00  0.83194209377E-01  0.10591811557E+01  0.10833535302E+01  0.00000000000E+00 0.  1.
</event>
<event>
 5    1  0.3454171E+002  0.1591233E+01  0.7818608E-02  0.3362934E+00
         11   -1    0    0    0    0  0.00000000000E+00  0.00000000000E+00  0.39999999674E+01  0.40000000000E+01  0.51100000000E-03 0.  1.
    9000002   -1    0    0    0    0 -0.00000000000E+00 -0.00000000000E+00  0.00000000000E+00  0.93800000000E+00  0.93800000000E+00 0. -1.
         11    1    1    2    0    0  0.35006235945E-01 -0.39437297336E-01  0.58671597112E+00  0.58908117341E+00  0.51100000000E-03 0.  1.
    9000002    1    1    2    0    0  0.69931904175E-01 -0.16655236455E+00  0.27891520808E-01  0.95564224388E+00  0.93800000000E+00 0. -1.
         22    1    1    2    0    0 -0.10493814012E+00  0.20598966189E+00  0.33853924754E+01  0.33932765827E+01  0.00000000000E+00 0.  1.
</event>
<event>
 5    1  0.3454171E+002  0.1597463E+01  0.7818608E-02  0.3356121E+00
         11   -1    0    0    0    0  0.00000000000E+00  0.00000000000E+00  0.39999999674E+01  0.40000000000E+01  0.51100000000E-03 0.  1.
    9000002   -1    0    0    0    0 -0.00000000000E+00 -0.00000000000E+00  0.00000000000E+00  0.93800000000E+00  0.93800000000E+00 0.  1.
         11    1    1    2    0    0 -0.19063880512E-01  0.77673642748E-01  0.56276650125E+00  0.56842151821E+00  0.51100000000E-03 0.  1.
    9000002    1    1    2    0    0  0.12120287979E+00 -0.26552632065E+00  0.58519377028E-01  0.98410511761E+00  0.93800000000E+00 0.  1.
         22    1    1    2    0    0 -0.10213899928E+00  0.18785267790E+00  0.33787140891E+01  0.33854733642E+01  0.00000000000E+00 0.  1.
</event>
<event>
 5    1  0.3454171E+002  0.1599672E+01  0.7818608E-02  0.3353719E+00
         11   -1    0    0    0    0  0.00000000000E+00  0.00000000000E+00  0.39999999674E+01  0.40000000000E+01  0.51100000000E-03 0.  1.
    9000002   -1    0    0    0    0 -0.00000000000E+00 -0.00000000000E+00  0.00000000000E+00  0.93800000000E+00  0.93800000000E+00 0. -1.
         11    1    1    2    0    0  0.24781125584E-01 -0.25358525709E-01  0.56790894521E+00  0.56901492966E+00  0.51100000000E-03 0.  1.
    9000002    1    1    2    0    0 -0.16099858189E+00  0.18108662895E+00  0.38983434753E-01  0.96957548378E+00  0.93800000000E+00 0. -1.
         22    1    1    2    0    0  0.13621745630E+00 -0.15572810324E+00  0.33931075874E+01  0.33994095866E+01  0.00000000000E+00 0.  1.
</event>
<event>
 5    1  0.3454171E+002  0.1589240E+01  0.7818608E-02  0.3365126E+00
         11   -1    0    0    0    0  0.00000000000E+00  0.00000000000E+00  0.39999999674E+01  0.40000000000E+01  0.51100000000E-03 0. -1.
    9000002   -1    0    0    0    0 -0.00000000000E+00 -0.00000000000E+00  0.00000000000E+00  0.93800000000E+00  0.93800000000E+00 0. -1.
         11    1    1    2    0    0 -0.35854654359E-01 -0.25986590280E-01  0.24672884500E+00  0.25067158432E+00  0.51100000000E-03 0. -1.
    9000002    1    1    2    0    0 -0.22808202548E+00 -0.99697602501E-01  0.49171866966E-01  0.97171132277E+00  0.93800000000E+00 0. -1.
         22    1    1    2    0    0  0.26393667984E+00  0.12568419278E+00  0.37040992554E+01  0.37156170929E+01  0.00000000000E+00 0. -1.
</event>
<event>
 5    1  0.3454171E+002  0.1599677E+01  0.7818608E-02  0.3353714E+00
         11   -1    0    0    0    0  0.00000000000E+00  0.00000000000E+00  0.39999999674E+01  0.40000000000E+01  0.51100000000E-03 0.  1.
    9000002   -1    0    0    0    0 -0.00000000000E+00 -0.00000000000E+00  0.00000000000E+00  0.93800000000E+00  0.93800000000E+00 0. -1.
         11    1    1    2    0    0  0.87511174766E-02  0.53377801628E+00  0.19574040839E+01  0.20288978687E+01  0.51100000000E-03 0.  1.
    9000002    1    1    2    0    0 -0.14262026719E-01 -0.91473266435E+00  0.64482384140E+00  0.14603359336E+01  0.93800000000E+00 0. -1.
         22    1    1    2    0    0  0.55109092426E-02  0.38095464807E+00  0.13977720420E+01  0.14487661977E+01  0.00000000000E+00 0.  1.
</event>
<event>
 5    1  0.3454171E+002  0.1578021E+01  0.7818608E-02  0.3377570E+00
         11   -1    0    0    0    0  0.00000000000E+00  0.00000000000E+00  0.39999999674E+01  0.40000000000E+01  0.51100000000E-03 0. -1.
    9000002   -1    0    0    0    0 -0.00000000000E+00 -0.00000000000E+00  0.00000000000E+00  0.93800000000E+00  0.93800000000E+00 0. -1.
         11    1    1    2    0    0  0.95773263203E-01  0.89639418449E-01  0.83789078869E+00  0.84809726929E+00  0.51100000000E-03 0. -1.
    9000002    1    1    2    0    0  0.15468101423E-02  0.87042636559E-01  0.20940240590E-01  0.94226392634E+00  0.93800000000E+00 0. -1.
         22    1    1    2    0    0 -0.97320073345E-01 -0.17668205501E+00  0.31411689381E+01  0.31476388044E+01  0.00000000000E+00 0. -1.
</event>
<event>
 5    1  0.3454171E+002  0.1599648E+01  0.7818608E-02  0.3353746E+00
         11   -1    0    0    0    0  0.00000000000E+00  0.00000000000E+00  0.39999999674E+01  0.40000000000E+01  0.51100000000E-03 0. -1.
    9000002   -1    0    0    0    0 -0.00000000000E+00 -0.00000000000E+00  0.00000000000E+00  0.93800000000E+00  0.93800000000E+00 0. -1.
         11    1    1    2    0    0 -0.40020996470E-01  0.81712419080E-01  0.11433632150E+01  0.11469778996E+01  0.51100000000E-03 0. -1.
    9000002    1    1    2    0    0  0.14126380495E+00 -0.26158606763E+00  0.58969155161E-01  0.98575052353E+00  0.93800000000E+00 0. -1.
         22    1    1    2    0    0 -0.10124280848E+00  0.17987364855E+00  0.27976675972E+01  0.28052715769E+01  0.00000000000E+00 0. -1.
</event>
<event>
 5    1  0.3454171E+002  0.1562969E+01  0.7818608E-02  0.3394563E+00
         11   -1    0    0    0    0  0.00000000000E+00  0.00000000000E+00  0.39999999674E+01  0.40000000000E+01  0.51100000000E-03 0.  1.
    9000002   -1    0    0    0    0 -0.00000000000E+00 -0.00000000000E+00  0.00000000000E+00  0.93800000000E+00  0.93800000000E+00 0.  1.
         11    1    1    2    0    0 -0.44588264129E-01 -0.15565454037E+00  0.14235745857E+01  0.14327530531E+01  0.51100000000E-03 0.  1.
    9000002    1    1    2    0    0 -0.63542118427E-01 -0.15312593496E+00  0.45882601942E-01  0.95364268252E+00  0.93800000000E+00 0.  1.
         22    1    1    2    0    0  0.10813038256E+00  0.30878047532E+00  0.25305427798E+01  0.25516042643E+01  0.00000000000E+00 0.  1.
</event>
<event>
 5    1  0.3454171E+002  0.1574729E+01  0.7818608E-02  0.3381257E+00
         11   -1    0    0    0    0  0.00000000000E+00  0.00000000000E+00  0.39999999674E+01  0.40000000000E+01  0.51100000000E-03 0.  1.
    9000002   -1    0    0    0    0 -0.00000000000E+00 -0.00000000000E+00  0.00000000000E+00  0.93800000000E+00  0.93800000000E+00 0.  1.
         11    1    1    2    0    0  0.14900358877E+00 -0.15517401734E+00  0.12780914783E+01  0.12960706513E+01  0.51100000000E-03 0.  1.
    9000002    1    1    2    0    0 -0.29860911227E+00 -0.47731102693E-01  0.80833033310E-01  0.98884965458E+00  0.93800000000E+00 0.  1.
         22    1    1    2    0    0  0.14960552351E+00  0.20290512003E+00  0.26410754557E+01  0.26530796941E+01  0.00000000000E+00 0.  1.
</event>
<event>
 5    1  0.3454171E+002  0.1599452E+01  0.7818608E-02  0.3353958E+00
         11   -1    0    0    0    0  0.00000000000E+00  0.00000000000E+00  0.39999999674E+01  0.40000000000E+01  0.51100000000E-03 0.  1.
    9000002   -1    0    0    0    0 -0.00000000000E+00 -0.00000000000E+00  0.00000000000E+00  0.93800000000E+00  0.93800000000E+00 0.  1.
         11    1    1    2    0    0 -0.44407257201E-01  0.12831593094E+00  0.90243471031E+00  0.91259281726E+00  0.51100000000E-03 0.  1.
    9000002    1    1    2    0    0  0.22135788503E+00 -0.58228712309E+00  0.27234341952E+00  0.11584785476E+01  0.93800000000E+00 0.  1.
         22    1    1    2    0    0 -0.17695062783E+00  0.45397119215E+00  0.28252218375E+01  0.28669286352E+01  0.00000000000E+00 0.  1.
</event>
<event>
 5    1  0.3454171E+002  0.1598826E+01  0.7818608E-02  0.3354638E+00
         11   -1    0    0    0    0  0.00000000000E+00  0.00000000000E+00  0.39999999674E+01  0.40000000000E+01  0.51100000000E-03 0. -1.
    9000002   -1    0    0    0    0 -0.00000000000E+00 -0.00000000000E+00  0.00000000000E+00  0.93800000000E+00  0.93800000000E+00 0.  1.
         11    1    1    2    0    0  0.15990632631E+00  0.24093157509E+00  0.17479729471E+01  0.17717301550E+01  0.51100000000E-03 0. -1.
    9000002    1    1    2    0    0 -0.32296692859E+00 -0.58126972083E+00  0.31407952072E+00  0.11919194900E+01  0.93800000000E+00 0.  1.
         22    1    1    2    0    0  0.16306060228E+00  0.34033814575E+00  0.19379474995E+01  0.19743503550E+01  0.00000000000E+00 0. -1.
</event>
<event>
 5    1  0.3454171E+002  0.1599675E+01  0.7818608E-02  0.3353717E+00
         11   -1    0    0    0    0  0.00000000000E+00  0.00000000000E+00  0.39999999674E+01  0.40000000000E+01  0.51100000000E-03 0. -1.
    9000002   -1    0    0    0    0 -0.00000000000E+00 -0.00000000000E+00  0.00000000000E+00  0.93800000000E+00  0.93800000000E+00 0.  1.
         11    1    1    2    0    0  0.36362061989E-01 -0.13040873496E-01  0.47442804428E+00  0.47599841833E+00  0.51100000000E-03 0. -1.
    9000002    1    1    2    0    0 -0.30332190072E+00  0.11727925531E+00  0.70728080638E-01  0.99529144504E+00  0.93800000000E+00 0.  1.
         22    1    1    2    0    0  0.26695983873E+00 -0.10423838182E+00  0.34548438424E+01  0.34667101366E+01  0.00000000000E+00 0. -1.
</event>
<event>
 5    1  0.3454171E+002  0.1599000E+01  0.7818608E-02  0.3354450E+00
         11   -1    0    0    0    0  0.00000000000E+00  0.00000000000E+00  0.39999999674E+01  0.40000000000E+01  0.51100000000E-03 0. -1.
    9000002   -1    0    0    0    0 -0.00000000000E+00 -0.00000000000E+00  0.00000000000E+00  0.93800000000E+00  0.93800000000E+00 0. -1.
         11    1    1    2    0    0 -0.58440584848E-01 -0.53995413837E-01  0.94159066202E+00  0.94494658188E+00  0.51100000000E-03 0. -1.
    9000002    1    1    2    0    0  0.26828858995E+00  0.11677178231E+00  0.57603801873E-01  0.98426450441E+00  0.93800000000E+00 0. -1.
         22    1    1    2    0    0 -0.20984800510E+00 -0.62776368472E-01  0.30008055035E+01  0.30087889137E+01  0.00000000000E+00 0. -1.
</event>
<event>
 5    1  0.3454171E+002  0.1599239E+01  0.7818608E-02  0.3354190E+00
         11   -1    0    0    0    0  0.00000000000E+00  0.00000000000E+00  0.39999999674E+01  0.40000000000E+01  0.51100000000E-03 0. -1.
    9000002   -1    0    0    0    0 -0.00000000000E+00 -0.00000000000E+00  0.00000000000E+00  0.93800000000E+00  0.93800000000E+00 0.  1.
         11    1    1    2    0    0 -0.37454430632E-01  0.14318185136E-02  0.30977338898E+00  0.31203316830E+00  0.51100000000E-03 0. -1.
    9000002    1    1    2    0    0  0.30325792533E+00 -0.27276963482E-01  0.62217371435E-01  0.98814189432E+00  0.93800000000E+00 0.  1.
         22    1    1    2    0    0 -0.26580349470E+00  0.25845144968E-01  0.36280092069E+01  0.36378249374E+01  0.00000000000E+00 0. -1.
</event>
<event>
 5    1  0.3454171E+002  0.1534568E+01  0.7818608E-02  0.3427594E+00
         11   -1    0    0    0    0  0.00000000000E+00  0.00000000000E+00  0.39999999674E+01  0.40000000000E+01  0.51100000000E-03 0. -1.
    9000002   -1    0    0    0    0 -0.00000000000E+00 -0.00000000000E+00  0.00000000000E+00  0.93800000000E+00  0.93800000000E+00 0.  1.
         11    1    1    2    0    0  0.15278692088E+00  0.25951573209E+00  0.26347271626E+01  0.26518823015E+01  0.51100000000E-03 0. -1.
    9000002    1    1    2    0    0  0.18100608876E+00 -0.26139718963E+00  0.12092523515E+00  0.99777683247E+00  0.93800000000E+00 0.  1.
         22    1    1    2    0    0 -0.33379300963E+00  0.18814575393E-02  0.12443475696E+01  0.12883408660E+01  0.00000000000E+00 0. -1.
</event>
<event>
 5    1  0.3454171E+002  0.1599676E+01  0.7818608E-02  0.3353715E+00
         11   -1    0    0    0    0  0.00000000000E+00  0.00000000000E+00  0.39999999674E+01  0.40000000000E+01  0.51100000000E-03 0. -1.
    9000002   -1    0    0    0    0 -0.00000000000E+00 -0.00000000000E+00  0.00000000000E+00  0.93800000000E+00  0.93800000000E+00 0.  1.
         11    1    1    2    0    0  0.76750079173E-01  0.62510327907E-02  0.76813715265E+00  0.77198743284E+00  0.51100000000E-03 0.  1.
    9000002    1    1    2    0    0 -0.39117144752E+00 -0.28728489537E-01  0.10366661935E+00  0.10219741657E+01  0.93800000000E+00 0.  1.
         22    1    1    2    0    0  0.31442136835E+00  0.22477456747E-01  0.31281961954E+01  0.31440384014E+01  0.00000000000E+00 0. -1.
</event>
<event>
 5    1  0.3454171E+002  0.1566955E+01  0.7818608E-02  0.3390030E+00
         11   -1    0    0    0    0  0.00000000000E+00  0.00000000000E+00  0.39999999674E+01  0.40000000000E+01  0.51100000000E-03 0. -1.
    9000002   -1    0    0    0    0 -0.00000000000E+00 -0.00000000000E+00  0.00000000000E+00  0.93800000000E+00  0.93800000000E+00 0. -1.
         11    1    1    2    0    0 -0.67533906932E-01  0.86948524402E-02  0.31204109174E+01  0.31211537904E+01  0.51100000000E-03 0. -1.
    9000002    1    1    2    0    0  0.28887001634E+00 -0.97971782417E-01  0.88238957562E-01  0.99029009392E+00  0.93800000000E+00 0. -1.
         22    1    1    2    0    0 -0.22133610941E+00  0.89276929977E-01  0.79135009239E+00  0.82655611563E+00  0.00000000000E+00 0. -1.
</event>
<event>
 5    1  0.3454171E+002  0.1599299E+01  0.7818608E-02  0.3354125E+00
         11   -1    0    0    0    0  0.00000000000E+00  0.00000000000E+00  0.39999999674E+01  0.40000000000E+01  0.51100000000E-03 0.  1.
    9000002   -1    0    0    0    0 -0.00000000000E+00 -0.00000000000E+00  0.00000000000E+00  0.93800000000E+00  0.93800000000E+00 0. -1.
         11    1    1    2    0    0  0.64084656885E-02 -0.48360454534E-01  0.91192243114E+00  0.91322646891E+00  0.51100000000E-03 0.  1.
    9000002    1    1    2    0    0  0.16056099255E-01  0.28273027313E+00  0.53711082062E-01  0.98128644442E+00  0.93800000000E+00 0. -1.
         22    1    1    2    0    0 -0.22464564943E-01 -0.23436981860E+00  0.30343664542E+01  0.30434870867E+01  0.00000000000E+00 0.  1.
</event>
<event>
 5    1  0.3454171E+002  0.1599677E+01  0.7818608E-02  0.3353714E+00
         11   -1    0    0    0    0  0.00000000000E+00  0.00000000000E+00  0.39999999674E+01  0.40000000000E+01  0.51100000000E-03 0. -1.
    9000002   -1    0    0    0    0 -0.00000000000E+00 -0.00000000000E+00  0.00000000000E+00  0.93800000000E+00  0.93800000000E+00 0. -1.
         11    1    1    2    0    0 -0.14598176471E+00 -0.62061582560E-01  0.17224906128E+01  0.17297793178E+01  0.51100000000E-03 0. -1.
    9000002    1    1    2    0    0  0.33121684171E+00  0.14240724440E+00  0.87259146067E-01  0.10086835867E+01  0.93800000000E+00 0. -1.
         22    1    1    2    0    0 -0.18523507699E+00 -0.80345661841E-01  0.21902502084E+01  0.21995370956E+01  0.00000000000E+00 0. -1.
</event>
<event>
 5    1  0.3454171E+002  0.1587143E+01  0.7818608E-02  0.3367438E+00
         11   -1    0    0    0    0  0.00000000000E+00  0.00000000000E+00  0.39999999674E+01  0.40000000000E+01  0.51100000000E-03 0.  1.
    9000002   -1    0    0    0    0 -0.00000000000E+00 -0.00000000000E+00  0.00000000000E+00  0.93800000000E+00  0.93800000000E+00 0. -1.
         11    1    1    2    0    0 -0.17088418146E+00  0.64856528542E-01  0.60949960500E+00  0.63631580397E+00  0.51100000000E-03 0.  1.
    9000002    1    1    2    0    0  0.48050124727E+00 -0.17843004124E+00  0.19174004395E+00  0.10859682190E+01  0.93800000000E+00 0. -1.
         22    1    1    2    0    0 -0.30961706581E+00  0.11357351270E+00  0.31987603184E+01  0.32157159770E+01  0.00000000000E+00 0.  1.
</event>
<event>
 5    1  0.3454171E+002  0.1578261E+01  0.7818608E-02  0.3377302E+00
         11   -1    0    0    0    0  0.00000000000E+00  0.00000000000E+00  0.39999999674E+01  0.40000000000E+01  0.51100000000E-03 0.  1.
    9000002   -1    0    0    0    0 -0.00000000000E+00 -0.00000000000E+00  0.00000000000E+00  0.93800000000E+00  0.93800000000E+00 0.  1.
         11    1    1    2    0    0  0.89980108004E-01 -0.15901401747E+00  0.22136470223E+01  0.22211743016E+01  0.51100000000E-03 0.  1.
    9000002    1    1    2    0    0  0.13439044010E+00  0.18197879490E+00  0.50322743038E-01  0.96620569790E+00  0.93800000000E+00 0.  1.
         22    1    1    2    0    0 -0.22437054811E+00 -0.22964777430E-01  0.17360302021E+01  0.17506200005E+01  0.00000000000E+00 0.  1.
</event>
<event>
 5    1  0.3454171E+002  0.1599655E+01  0.7818608E-02  0.3353738E+00
         11   -1    0    0    0    0  0.00000000000E+00  0.00000000000E+00  0.39999999674E+01  0.40000000000E+01  0.51100000000E-03 0.  1.
    9000002   -1    0    0    0    0 -0.00000000000E+00 -0.00000000000E+00  0.00000000000E+00  0.93800000000E+00  0.93800000000E+00 0. -1.
         11    1    1    2    0    0  0.10148593811E+00  0.99285014430E-01  0.14642573266E+01  0.14711242943E+01  0.51100000000E-03 0.  1.
    9000002    1    1    2    0    0 -0.25702845947E+00 -0.26034821196E+00  0.89923537233E-01  0.10108288990E+01  0.93800000000E+00 0. -1.
         22    1    1    2    0    0  0.15554252136E+00  0.16106319753E+00  0.24458191035E+01  0.24560468067E+01  0.00000000000E+00 0.  1.
</event>
<event>
 5    1  0.3454171E+002  0.1485989E+01  0.7818608E-02  0.3487233E+00
         11   -1    0    0    0    0  0.00000000000E+00  0.00000000000E+00  0.39999999674E+01  0.40000000000E+01  0.51100000000E-03 0.  1.
    9000002   -1    0    0    0    0 -0.00000000000E+00 -0.00000000000E+00  0.00000000000E+00  0.93800000000E+00  0.93800000000E+00 0.  1.
         11    1    1    2    0    0 -0.18916634272E+00 -0.97416744026E-01  0.20707443354E+00  0.29690740877E+00  0.51100000000E-03 0.  1.
    9000002    1    1    2    0    0  0.28442823649E+00 -0.92744034614E-01  0.15467297446E+00  0.99662862025E+00  0.93800000000E+00 0.  1.
         22    1    1    2    0    0 -0.95261893764E-01  0.19016077864E+00  0.36382525594E+01  0.36444639710E+01  0.00000000000E+00 0.  1.
</event>
<event>
 5    1  0.3454171E+002  0.1599676E+01  0.7818608E-02  0.3353715E+00
         11   -1    0    0    0    0  0.00000000000E+00  0.00000000000E+00  0.39999999674E+01  0.40000000000E+01  0.51100000000E-03 0.  1.
    9000002   -1    0    0    0    0 -0.00000000000E+00 -0.00000000000E+00  0.00000000000E+00  0.93800000000E+00  0.93800000000E+00 0.  1.
         11    1    1    2    0    0 -0.16489160338E-01  0.22685282215E-01  0.40516093962E+00  0.40613072102E+00  0.51100000000E-03 0. -1.
    9000002    1    1    2    0    0  0.15922624146E+00 -0.22639631070E+00  0.51001277057E-01  0.97931272622E+00  0.93800000000E+00 0.  1.
         22    1    1    2    0    0 -0.14273708113E+00  0.20371102848E+00  0.35438377507E+01  0.35525565528E+01  0.00000000000E+00 0.  1.
</event>
<event>
 5    1  0.3454171E+002  0.1599282E+01  0.7818608E-02  0.3354143E+00
         11   -1    0    0    0    0  0.00000000000E+00  0.00000000000E+00  0.39999999674E+01  0.40000000000E+01  0.51100000000E-03 0.  1.
    9000002   -1    0    0    0    0 -0.00000000000E+00 -0.00000000000E+00  0.00000000000E+00  0.93800000000E+00  0.93800000000E+00 0.  1.
         11    1    1    2    0    0 -0.86523723614E-01 -0.70875631648E-02  0.52350885098E+00  0.53065842731E+00  0.51100000000E-03 0.  1.
    9000002    1    1    2    0    0  0.60570397904E+00 -0.67213422764E-01  0.26004644303E+00  0.11484176535E+01  0.93800000000E+00 0.  1.
         22    1    1    2    0    0 -0.51918025542E+00  0.74300985929E-01  0.32164446733E+01  0.32589239192E+01  0.00000000000E+00 0.  1.
</event>
<event>
 5    1  0.3454171E+002  0.1590844E+01  0.7818608E-02  0.3363361E+00
         11   -1    0    0    0    0  0.00000000000E+00  0.00000000000E+00  0.39999999674E+01  0.40000000000E+01  0.51100000000E-03 0.  1.
    9000002   -1    0    0    0    0 -0.00000000000E+00 -0.00000000000E+00  0.00000000000E+00  0.93800000000E+00  0.93800000000E+00 0.  1.
         11    1    1    2    0    0 -0.22420437893E-01 -0.41377791557E-01  0.38691917966E+00  0.38977109997E+00  0.51100000000E-03 0.  1.
    9000002    1    1    2    0    0 -0.26839782368E+00 -0.50938313428E-01  0.56522661580E-01  0.97860661903E+00  0.93800000000E+00 0.  1.
         22    1    1    2    0    0  0.29081826157E+00  0.92316104984E-01  0.35565581261E+01  0.35696222810E+01  0.00000000000E+00 0.  1.
</event>
<event>
 5    1  0.3454171E+002  0.1599675E+01  0.7818608E-02  0.3353716E+00
         11   -1    0    0    0    0  0.00000000000E+00  0.00000000000E+00  0.39999999674E+01  0.40000000000E+01  0.51100000000E-03 0. -1.
    9000002   -1    0    0    0    0 -0.00000000000E+00 -0.00000000000E+00  0.00000000000E+00  0.93800000000E+00  0.93800000000E+00 0.  1.
         11    1    1    2    0    0  0.11520477878E-01 -0.34812738409E-01  0.38583932752E+00  0.38757824494E+00  0.51100000000E-03 0.  1.
    9000002    1    1    2    0    0 -0.11283271365E+00  0.36155349092E+00  0.96507651918E-01  0.10161741361E+01  0.93800000000E+00 0.  1.
         22    1    1    2    0    0  0.10131223577E+00 -0.32674075252E+00  0.35176529879E+01  0.35342476189E+01  0.00000000000E+00 0. -1.
</event>
<event>
 5    1  0.3454171E+002  0.1599235E+01  0.7818608E-02  0.3354194E+00
         11   -1    0    0    0    0  0.00000000000E+00  0.00000000000E+00  0.39999999674E+01  0.40000000000E+01  0.51100000000E-03 0.  1.
    9000002   -1    0    0    0    0 -0.00000000000E+00 -0.00000000000E+00  0.00000000000E+00  0.93800000000E+00  0.93800000000E+00 0. -1.
         11    1    1    2    0    0  0.44317580265E-01  0.54276689170E-02  0.46456174963E+00  0.46670267607E+00  0.51100000000E-03 0.  1.
    9000002    1    1    2    0    0 -0.27962581204E+00  0.53155703012E-01  0.54314877585E-01  0.98173837118E+00  0.93800000000E+00 0. -1.
         22    1    1    2    0    0  0.23530823178E+00 -0.58583371929E-01  0.34811233401E+01  0.34895589528E+01  0.00000000000E+00 0.  1.
</event>
<event>
 5    1  0.3454171E+002  0.1577528E+01  0.7818608E-02  0.3378121E+00
         11   -1    0    0    0    0  0.00000000000E+00  0.00000000000E+00  0.39999999674E+01  0.40000000000E+01  0.51100000000E-03 0. -1.
    9000002   -1    0    0    0    0 -0.00000000000E+00 -0.00000000000E+00  0.00000000000E+00  0.93800000000E+00  0.93800000000E+00 0. -1.
         11    1    1    2    0    0 -0.17985138317E+00  0.31680501780E+00  0.18091225022E+01  0.18454366498E+01  0.51100000000E-03 0. -1.
    9000002    1    1    2    0    0  0.15559198690E-01 -0.55757334283E+00  0.23660337298E+00  0.11166715172E+01  0.93800000000E+00 0. -1.
         22    1    1    2    0    0  0.16429218448E+00  0.24076832503E+00  0.19542740922E+01  0.19758918330E+01  0.00000000000E+00 0. -1.
</event>
<event>
 5    1  0.3454171E+002  0.1599677E+01  0.7818608E-02  0.3353714E+00
         11   -1    0    0    0    0  0.00000000000E+00  0.00000000000E+00  0.39999999674E+01  0.40000000000E+01  0.51100000000E-03 0. -1.
    9000002   -1    0    0    0    0 -0.00000000000E+00 -0.00000000000E+00  0.00000000000E+00  0.93800000000E+00  0.93800000000E+00 0. -1.
         11    1    1    2    0    0 -0.38373841282E+00 -0.22315419046E+00  0.25118194792E+01  0.25507430916E+01  0.51100000000E-03 0. -1.
    9000002    1    1    2    0    0  0.56529973886E+00  0.32865909937E+00  0.30200519097E+00  0.11826376172E+01  0.93800000000E+00 0. -1.
         22    1    1    2    0    0 -0.18156132603E+00 -0.10550490891E+00  0.11861752972E+01  0.12046192911E+01  0.00000000000E+00 0. -1.
</event>
<event>
 5    1  0.3454171E+002  0.1599567E+01  0.7818608E-02  0.3353834E+00
         11   -1    0    0    0    0  0.00000000000E+00  0.00000000000E+00  0.39999999674E+01  0.40000000000E+01  0.51100000000E-03 0.  1.
    9000002   -1    0    0    0    0 -0.00000000000E+00 -0.00000000000E+00  0.00000000000E+00  0.93800000000E+00  0.93800000000E+00 0. -1.
         11    1    1    2    0    0 -0.25343187669E-01  0.35667455546E-02  0.47106787277E+00  0.47176286491E+00  0.51100000000E-03 0.  1.
    9000002    1    1    2    0    0  0.28058592160E+00 -0.37496693717E-01  0.53462634135E-01  0.98124243421E+00  0.93800000000E+00 0. -1.
         22    1    1    2    0    0 -0.25524273393E+00  0.33929948162E-01  0.34754694605E+01  0.34849947009E+01  0.00000000000E+00 0.  1.
</event>
<event>
 5    1  0.3454171E+002  0.1599642E+01  0.7818608E-02  0.3353752E+00
         11   -1    0    0    0    0  0.00000000000E+00  0.00000000000E+00  0.39999999674E+01  0.40000000000E+01  0.51100000000E-03 0.  1.
    9000002   -1    0    0    0    0 -0.00000000000E+00 -0.00000000000E+00  0.00000000000E+00  0.93800000000E+00  0.93800000000E+00 0. -1.
         11    1    1    2    0    0  0.71772538656E-01 -0.32429031158E+00  0.23234187054E+01  0.23470386118E+01  0.51100000000E-03 0.  1.
    9000002    1    1    2    0    0 -0.12332929203E+00  0.52092308357E+00  0.19742634937E+00  0.10979035188E+01  0.93800000000E+00 0. -1.
         22    1    1    2    0    0  0.51556753372E-01 -0.19663277200E+00  0.14791549126E+01  0.14930578694E+01  0.00000000000E+00 0. -1.
</event>
<event>
 5    1  0.3724878E+002  0.1575245E+01  0.7818608E-02  0.3380677E+00
         11   -1    0    0    0    0  0.00000000000E+00  0.00000000000E+00  0.39999999674E+01  0.40000000000E+01  0.51100000000E-03 0.  1.
    9000002   -1    0    0    0    0 -0.00000000000E+00 -0.00000000000E+00  0.00000000000E+00  0.93800000000E+00  0.93800000000E+00 0. -1.
         11    1    1    2    0    0  0.84528949824E-01 -0.11554065768E+00  0.92271227050E+00  0.93375209889E+00  0.51100000000E-03 0.  1.
    9000002    1    1    2    0    0  0.51441432537E-01 -0.46253046781E-01  0.21123112903E-01  0.94078464657E+00  0.93800000000E+00 0. -1.
         22    1    1    2    0    0 -0.13597038236E+00  0.16179370446E+00  0.30561645840E+01  0.30634632545E+01  0.00000000000E+00 0.  1.
</event>
<event>
 5    1  0.3454171E+002  0.1594567E+01  0.7818608E-02  0.3359282E+00
         11   -1    0    0    0    0  0.00000000000E+00  0.00000000000E+00  0.39999999674E+01  0.40000000000E+01  0.51100000000E-03 0. -1.
    9000002   -1    0    0    0    0 -0.00000000000E+00 -0.00000000000E+00  0.00000000000E+00  0.93800000000E+00  0.93800000000E+00 0. -1.
         11    1    1    2    0    0  0.15626935857E+00 -0.46979194903E-01  0.88999489164E+00  0.90483055068E+00  0.51100000000E-03 0. -1.
    9000002    1    1    2    0    0 -0.41212964370E+00  0.36005801826E-01  0.11995553189E+00  0.10321727523E+01  0.93800000000E+00 0. -1.
         22    1    1    2    0    0  0.25586028513E+00  0.10973393077E-01  0.29900495438E+01  0.30009966970E+01  0.00000000000E+00 0. -1.
</event>
<event>
 5    1  0.3454171E+002  0.1599671E+01  0.7818608E-02  0.3353720E+00
         11   -1    0    0    0    0  0.00000000000E+00  0.00000000000E+00  0.39999999674E+01  0.40000000000E+01  0.51100000000E-03 0.  1.
    9000002   -1    0    0    0    0 -0.00000000000E+00 -0.00000000000E+00  0.00000000000E+00  0.93800000000E+00  0.93800000000E+00 0.  1.
         11    1    1    2    0    0  0.18887134047E-02  0.16061003606E-02  0.37095786575E-01  0.37182056147E-01  0.51100000000E-03 0.  1.
    9000002    1    1    2    0    0 -0.17866973802E+00 -0.16890578618E+00  0.40149344286E-01  0.97051945356E+00  0.93800000000E+00 0.  1.
         22    1    1    2    0    0  0.17678102461E+00  0.16729968582E+00  0.39227548365E+01  0.39302984903E+01  0.00000000000E+00 0.  1.
</event>
<event>
 5    1  0.3454171E+002  0.1599624E+01  0.7818608E-02  0.3353772E+00
         11   -1    0    0    0    0  0.00000000000E+00  0.00000000000E+00  0.39999999674E+01  0.40000000000E+01  0.51100000000E-03 0. -1.
    9000002   -1    0    0    0    0 -0.00000000000E+00 -0.00000000000E+00  0.00000000000E+00  0.93800000000E+00  0.93800000000E+00 0.  1.
         11    1    1    2    0    0  0.12393022169E-01  0.32499292860E-01  0.40477905577E+00  0.40627101318E+00  0.51100000000E-03 0. -1.
    9000002    1    1    2    0    0 -0.86267502233E-01 -0.27777345758E+00  0.56432130909E-01  0.98368122940E+00  0.93800000000E+00 0.  1.
         22    1    1    2    0    0  0.73874480064E-01  0.24527416472E+00  0.35387887807E+01  0.35480477574E+01  0.00000000000E+00 0. -1.
</event>
<event>
 5    1  0.3454171E+002  0.1599677E+01  0.7818608E-02  0.3353714E+00
         11   -1    0    0    0    0  0.00000000000E+00  0.00000000000E+00  0.39999999674E+01  0.40000000000E+01  0.51100000000E-03 0.  1.
    9000002   -1    0    0    0    0 -0.00000000000E+00 -0.00000000000E+00  0.00000000000E+00  0.93800000000E+00  0.93800000000E+00 0. -1.
         11    1    1    2    0    0 -0.18265003121E+00 -0.13863789566E+00  0.18479655849E+01  0.18621381700E+01  0.51100000000E-03 0.  1.
    9000002    1    1    2    0    0  0.38094564833E+00  0.28854762466E+00  0.15577526506E+00  0.10641847828E+01  0.93800000000E+00 0. -1.
         22    1    1    2    0    0 -0.19829561711E+00 -0.14990972900E+00  0.19962591174E+01  0.20116770473E+01  0.00000000000E+00 0.  1.
</event>
<event>
 5    1  0.3454171E+002  0.1569473E+01  0.7818608E-02  0.3387178E+00
         11   -1    0    0    0    0  0.00000000000E+00  0.00000000000E+00  0.39999999674E+01  0.40000000000E+01  0.51100000000E-03 0.  1.
    9000002   -1    0    0    0    0 -0.00000000000E+00 -0.00000000000E+00  0.00000000000E+00  0.93800000000E+00  0.93800000000E+00 0. -1.
         11    1    1    2    0    0  0.10772042692E+00  0.13429955557E-01  0.39420026329E+00  0.40887426280E+00  0.51100000000E-03 0.  1.
    9000002    1    1    2    0    0  0.15970752603E+00  0.10223091123E+00  0.46694301100E-01  0.95811377760E+00  0.93800000000E+00 0. -1.
         22    1    1    2    0    0 -0.26742795294E+00 -0.11566086679E+00  0.35591054030E+01  0.35710119596E+01  0.00000000000E+00 0.  1.
</event>
<event>
 5    1  0.3454171E+002  0.1576716E+01  0.7818608E-02  0.3379030E+00
         11   -1    0    0    0    0  0.00000000000E+00  0.00000000000E+00  0.39999999674E+01  0.40000000000E+01  0.51100000000E-03 0. -1.
    9000002   -1    0    0    0    0 -0.00000000000E+00 -0.00000000000E+00  0.00000000000E+00  0.93800000000E+00  0.93800000000E+00 0. -1.
         11    1    1    2    0    0  0.30972998068E-01  0.26045718692E-01  0.29493496862E-01  0.50078274228E-01  0.51100000000E-03 0. -1.
    9000002    1    1    2    0    0  0.46212307714E-01 -0.57989964709E+00  0.25795624046E+00  0.11334922144E+01  0.93800000000E+00 0. -1.
         22    1    1    2    0    0 -0.77185305782E-01  0.55385392840E+00  0.37125502300E+01  0.37544295114E+01  0.00000000000E+00 0. -1.
</event>
<event>
 5    1  0.3454171E+002  0.1550438E+01  0.7818608E-02  0.3408978E+00
         11   -1    0    0    0    0  0.00000000000E+00  0.00000000000E+00  0.39999999674E+01  0.40000000000E+01  0.51100000000E-03 0.  1.
    9000002   -1    0    0    0    0 -0.00000000000E+00 -0.00000000000E+00  0.00000000000E+00  0.93800000000E+00  0.93800000000E+00 0.  1.
         11    1    1    2    0    0 -0.17200079046E+00 -0.25785394285E+00  0.18632061532E+01  0.18888118907E+01  0.51100000000E-03 0.  1.
    9000002    1    1    2    0    0  0.60902896462E-01  0.70057591274E-01  0.42480561776E-01  0.94353899073E+00  0.93800000000E+00 0.  1.
         22    1    1    2    0    0  0.11109789400E+00  0.18779635158E+00  0.20943132523E+01  0.21056491186E+01  0.00000000000E+00 0.  1.
</event>
<event>
 5    1  0.3454171E+002  0.1590833E+01  0.7818608E-02  0.3363374E+00
         11   -1    0    0    0    0  0.00000000000E+00  0.00000000000E+00  0.39999999674E+01  0.40000000000E+01  0.51100000000E-03 0. -1.
    9000002   -1    0    0    0    0 -0.00000000000E+00 -0.00000000000E+00  0.00000000000E+00  0.93800000000E+00  0.93800000000E+00 0. -1.
         11    1    1    2    0    0  0.52419973270E-01  0.19728415096E+00  0.11589176316E+01  0.11767579308E+01  0.51100000000E-03 0. -1.
    9000002    1    1    2    0    0 -0.30900642336E+00 -0.33696995581E+00  0.14984802231E+00  0.10541973964E+01  0.93800000000E+00 0. -1.
         22    1    1    2    0    0  0.25658645009E+00  0.13968580485E+00  0.26912343135E+01  0.27070446728E+01  0.00000000000E+00 0. -1.
</event>
<event>
 5    1  0.3454171E+002  0.1599507E+01  0.7818608E-02  0.3353898E+00
         11   -1    0    0    0    0  0.00000000000E+00  0.00000000000E+00  0.39999999674E+01  0.40000000000E+01  0.51100000000E-03 0.  1.
    9000002   -1    0    0    0    0 -0.00000000000E+00 -0.00000000000E+00  0.00000000000E+00  0.93800000000E+00  0.93800000000E+00 0. -1.
         11    1    1    2    0    0 -0.68957564119E-01  0.12627600601E+00  0.14828888634E+01  0.14898524819E+01  0.51100000000E-03 0.  1.
    9000002    1    1    2    0    0  0.19448886782E+00 -0.29520806982E+00  0.83965758133E-01  0.10059164840E+01  0.93800000000E+00 0. -1.
         22    1    1    2    0    0 -0.12553130370E+00  0.16893206381E+00  0.24331453458E+01  0.24422310342E+01  0.00000000000E+00 0.  1.
</event>
<event>
 5    1  0.3454171E+002  0.1599477E+01  0.7818608E-02  0.3353931E+00
         11   -1    0    0    0    0  0.00000000000E+00  0.00000000000E+00  0.39999999674E+01  0.40000000000E+01  0.51100000000E-03 0.  1.
    9000002   -1    0    0    0    0 -0.00000000000E+00 -0.00000000000E+00  0.00000000000E+00  0.93800000000E+00  0.93800000000E+00 0. -1.
         11    1    1    2    0    0 -0.37409758415E-01  0.76135987768E-01  0.69426603260E+00  0.69942959889E+00  0.51100000000E-03 0.  1.
    9000002    1    1    2    0    0  0.15476829742E+00 -0.37743677213E+00  0.11253121111E+00  0.10290379081E+01  0.93800000000E+00 0. -1.
         22    1    1    2    0    0 -0.11735853900E+00  0.30130078436E+00  0.31932027237E+01  0.32095324930E+01  0.00000000000E+00 0.  1.
</event>
<event>
 5    1  0.3454171E+002  0.1599677E+01  0.7818608E-02  0.3353714E+00
         11   -1    0    0    0    0  0.00000000000E+00  0.00000000000E+00  0.39999999674E+01  0.40000000000E+01  0.51100000000E-03 0. -1.
    9000002   -1    0    0    0    0 -0.00000000000E+00 -0.00000000000E+00  0.00000000000E+00  0.93800000000E+00  0.93800000000E+00 0. -1.
         11    1    1    2    0    0  0.90379953967E-01 -0.16946760376E+00  0.16045479458E+01  0.16160019110E+01  0.51100000000E-03 0. -1.
    9000002    1    1    2    0    0 -0.21781940031E+00  0.40734623178E+00  0.14518104681E+00  0.10556030409E+01  0.93800000000E+00 0. -1.
         22    1    1    2    0    0  0.12743944634E+00 -0.23787862802E+00  0.22502709747E+01  0.22663950480E+01  0.00000000000E+00 0. -1.
</event>
<event>
 5    1  0.3454171E+002  0.1523798E+01  0.7818608E-02  0.3440463E+00
         11   -1    0    0    0    0  0.00000000000E+00  0.00000000000E+00  0.39999999674E+01  0.40000000000E+01  0.51100000000E-03 0. -1.
    9000002   -1    0    0    0    0 -0.00000000000E+00 -0.00000000000E+00  0.00000000000E+00  0.93800000000E+00  0.93800000000E+00 0.  1.
         11    1    1    2    0    0 -0.30208104656E+00  0.16669956281E+00  0.17370646943E+01  0.17709985083E+01  0.51100000000E-03 0. -1.
    9000002    1    1    2    0    0 -0.31352079261E-02 -0.88255609487E-01  0.62612728201E-01  0.94422626307E+00  0.93800000000E+00 0.  1.
         22    1    1    2    0    0  0.30521625449E+00 -0.78443953321E-01  0.22003225449E+01  0.22227752287E+01  0.00000000000E+00 0. -1.
</event>
<event>
 5    1  0.3454171E+002  0.1580607E+01  0.7818608E-02  0.3374685E+00
         11   -1    0    0    0    0  0.00000000000E+00  0.00000000000E+00  0.39999999674E+01  0.40000000000E+01  0.51100000000E-03 0. -1.
    9000002   -1    0    0    0    0 -0.00000000000E+00 -0.00000000000E+00  0.00000000000E+00  0.93800000000E+00  0.93800000000E+00 0.  1.
         11    1    1    2    0    0 -0.15435367028E+00 -0.53313918556E-02  0.19290154854E+01  0.19351884878E+01  0.51100000000E-03 0. -1.
    9000002    1    1    2    0    0  0.25179000335E-01  0.18771482885E+00  0.38110058153E-01  0.95768847522E+00  0.93800000000E+00 0.  1.
         22    1    1    2    0    0  0.12917466995E+00 -0.18238343700E+00  0.20328744238E+01  0.20451230369E+01  0.00000000000E+00 0.  1.
</event>
<event>
 5    1  0.3454171E+002  0.1599659E+01  0.7818608E-02  0.3353734E+00
         11   -1    0    0    0    0  0.00000000000E+00  0.00000000000E+00  0.39999999674E+01  0.40000000000E+01  0.51100000000E-03 0.  1.
    9000002   -1    0    0    0    0 -0.00000000000E+00 -0.00000000000E+00  0.00000000000E+00  0.93800000000E+00  0.93800000000E+00 0.  1.
         11    1    1    2    0    0  0.10185157550E-01 -0.27621677763E-01  0.47996937084E+00  0.48087165916E+00  0.51100000000E-03 0.  1.
    9000002    1    1    2    0    0 -0.63201003097E-01  0.24537656488E+00  0.42674966404E-01  0.97255805901E+00  0.93800000000E+00 0.  1.
         22    1    1    2    0    0  0.53015845547E-01 -0.21775488711E+00  0.34773556301E+01  0.34845702818E+01  0.00000000000E+00 0.  1.
</event>
<event>
 5    1  0.3454171E+002  0.1599533E+01  0.7818608E-02  0.3353871E+00
         11   -1    0    0    0    0  0.00000000000E+00  0.00000000000E+00  0.39999999674E+01  0.40000000000E+01  0.51100000000E-03 0.  1.
    9000002   -1    0    0    0    0 -0.00000000000E+00 -0.00000000000E+00  0.00000000000E+00  0.93800000000E+00  0.93800000000E+00 0.  1.
         11    1    1    2    0    0  0.68383086708E-02 -0.16332011939E-01  0.20485597615E+00  0.20562035202E+00  0.51100000000E-03 0.  1.
    9000002    1    1    2    0    0 -0.84064712925E-02  0.30919909788E+00  0.63995561351E-01  0.98975460734E+00  0.93800000000E+00 0.  1.
         22    1    1    2    0    0  0.15681626216E-02 -0.29286708594E+00  0.37311484299E+01  0.37426250406E+01  0.00000000000E+00 0.  1.
</event>
<event>
 5    1  0.3454171E+002  0.1599672E+01  0.7818608E-02  0.3353720E+00
         11   -1    0    0    0    0  0.00000000000E+00  0.00000000000E+00  0.39999999674E+01  0.40000000000E+01  0.51100000000E-03 0.  1.
    9000002   -1    0    0    0    0 -0.00000000000E+00 -0.00000000000E+00  0.00000000000E+00  0.93800000000E+00  0.93800000000E+00 0.  1.
         11    1    1    2    0    0 -0.91538545414E-01 -0.24602408547E+00  0.18622436955E+01  0.18806538752E+01  0.51100000000E-03 0.  1.
    9000002    1    1    2    0    0  0.19177225867E+00  0.50448635169E+00  0.20080638059E+00  0.11006590211E+01  0.93800000000E+00 0.  1.
         22    1    1    2    0    0 -0.10023371325E+00 -0.25846226622E+00  0.19369498913E+01  0.19566871037E+01  0.00000000000E+00 0.  1.
</event>
<event>
 5    1  0.3454171E+002  0.1580164E+01  0.7818608E-02  0.3375178E+00
         11   -1    0    0    0    0  0.00000000000E+00  0.00000000000E+00  0.39999999674E+01  0.40000000000E+01  0.51100000000E-03 0. -1.
    9000002   -1    0    0    0    0 -0.00000000000E+00 -0.00000000000E+00  0.00000000000E+00  0.93800000000E+00  0.93800000000E+00 0. -1.
         11    1    1    2    0    0 -0.16551214886E-01 -0.82451134140E-01  0.63974542118E+00  0.64524925206E+00  0.51100000000E-03 0. -1.
    9000002    1    1    2    0    0 -0.25035084423E+00 -0.16981634596E+00  0.76517229452E-01  0.98854034969E+00  0.93800000000E+00 0. -1.
         22    1    1    2    0    0  0.26690205912E+00  0.25226748010E+00  0.32837373167E+01  0.33042103983E+01  0.00000000000E+00 0. -1.
</event>
<event>
 5    1  0.3454171E+002  0.1597508E+01  0.7818608E-02  0.3356073E+00
         11   -1    0    0    0    0  0.00000000000E+00  0.00000000000E+00  0.39999999674E+01  0.40000000000E+01  0.51100000000E-03 0. -1.
    9000002   -1    0    0    0    0 -0.00000000000E+00 -0.00000000000E+00  0.00000000000E+00  0.93800000000E+00  0.93800000000E+00 0. -1.
         11    1    1    2    0    0  0.22011393471E-01  0.30185963099E-01  0.78236168933E+00  0.78325332291E+00  0.51100000000E-03 0. -1.
    9000002    1    1    2    0    0 -0.23764509275E+00 -0.33344074129E+00  0.11504697948E+00  0.10299212230E+01  0.93800000000E+00 0. -1.
         22    1    1    2    0    0  0.21563369927E+00  0.30325477820E+00  0.31025912986E+01  0.31248254541E+01  0.00000000000E+00 0. -1.
</event>
<event>
 5    1  0.3454171E+002  0.1599675E+01  0.7818608E-02  0.3353716E+00
         11   -1    0    0    0    0  0.00000000000E+00  0.00000000000E+00  0.39999999674E+01  0.40000000000E+01  0.51100000000E-03 0.  1.
    9000002   -1    0    0    0    0 -0.00000000000E+00 -0.00000000000E+00  0.00000000000E+00  0.93800000000E+00  0.93800000000E+00 0.  1.
         11    1    1    2    0    0 -0.37521930429E-01  0.14295981146E-01  0.45418699209E+00  0.45595872099E+00  0.51100000000E-03 0.  1.
    9000002    1    1    2    0    0  0.31596605243E+00 -0.12419379467E+00  0.77195549065E-01  0.10005307580E+01  0.93800000000E+00 0.  1.
         22    1    1    2    0    0 -0.27844412200E+00  0.10989781352E+00  0.34686174262E+01  0.34815105210E+01  0.00000000000E+00 0.  1.
</event>
<event>
 5    1  0.3454171E+002  0.1596149E+01  0.7818608E-02  0.3357554E+00
         11   -1    0    0    0    0  0.00000000000E+00  0.00000000000E+00  0.39999999674E+01  0.40000000000E+01  0.51100000000E-03 0. -1.
    9000002   -1    0    0    0    0 -0.00000000000E+00 -0.00000000000E+00  0.00000000000E+00  0.93800000000E+00  0.93800000000E+00 0.  1.
         11    1    1    2    0    0 -0.22947118822E-01 -0.71596544185E-01  0.61616605205E+00  0.62073625657E+00  0.51100000000E-03 0. -1.
    9000002    1    1    2    0    0  0.23449168234E+00  0.13761420992E+00  0.51921289275E-01  0.97798969327E+00  0.93800000000E+00 0.  1.
         22    1    1    2    0    0 -0.21154456352E+00 -0.66017665736E-01  0.33319126260E+01  0.33392740502E+01  0.00000000000E+00 0. -1.
</event>
<event>
 5    1  0.3454171E+002  0.1597381E+01  0.7818608E-02  0.3356211E+00
         11   -1    0    0    0    0  0.00000000000E+00  0.00000000000E+00  0.39999999674E+01  0.40000000000E+01  0.51100000000E-03 0. -1.
    9000002   -1    0    0    0    0 -0.00000000000E+00 -0.00000000000E+00  0.00000000000E+00  0.93800000000E+00  0.93800000000E+00 0. -1.
         11    1    1    2    0    0  0.75629161930E-01  0.48969768644E+00  0.23382968521E+01  0.23902209153E+01  0.51100000000E-03 0. -1.
    9000002    1    1    2    0    0 -0.19876795389E+00 -0.73828510319E+00  0.42849679552E+00  0.12837550767E+01  0.93800000000E+00 0. -1.
         22    1    1    2    0    0  0.12313879196E+00  0.24858741675E+00  0.12332063198E+01  0.12640240081E+01  0.00000000000E+00 0. -1.
</event>
<event>
 5    1  0.3454171E+002  0.1599676E+01  0.7818608E-02  0.3353715E+00
         11   -1    0    0    0    0  0.00000000000E+00  0.00000000000E+00  0.39999999674E+01  0.40000000000E+01  0.51100000000E-03 0. -1.
    9000002   -1    0    0    0    0 -0.00000000000E+00 -0.00000000000E+00  0.00000000000E+00  0.93800000000E+00  0.93800000000E+00 0.  1.
         11    1    1    2    0    0 -0.22848370040E+00 -0.20152147341E+00  0.19846238112E+01  0.20078714199E+01  0.51100000000E-03 0. -1.
    9000002    1    1    2    0    0  0.43443426521E+00  0.38069652090E+00  0.23171544748E+00  0.11256993473E+01  0.93800000000E+00 0.  1.
         22    1    1    2    0    0 -0.20595056482E+00 -0.17917504749E+00  0.17836607086E+01  0.18044292328E+01  0.00000000000E+00 0. -1.
</event>
<event>
 5    1  0.3454171E+002  0.1586276E+01  0.7818608E-02  0.3368395E+00
         11   -1    0    0    0    0  0.00000000000E+00  0.00000000000E+00  0.39999999674E+01  0.40000000000E+01  0.51100000000E-03 0.  1.
    9000002   -1    0    0    0    0 -0.00000000000E+00 -0.00000000000E+00  0.00000000000E+00  0.93800000000E+00  0.93800000000E+00 0.  1.
         11    1    1    2    0    0 -0.30852364524E-01 -0.58953624834E-02  0.68027241775E-01  0.74930570797E-01  0.51100000000E-03 0.  1.
    9000002    1    1    2    0    0 -0.33864181297E+00  0.89768168015E-01  0.93171611633E-01  0.10056150112E+01  0.93800000000E+00 0.  1.
         22    1    1    2    0    0  0.36949417749E+00 -0.83872805532E-01  0.38388011140E+01  0.38574544180E+01  0.00000000000E+00 0.  1.
</event>
<event>
 5    1  0.3454171E+002  0.1599669E+01  0.7818608E-02  0.3353723E+00
         11   -1    0    0    0    0  0.00000000000E+00  0.00000000000E+00  0.39999999674E+01  0.40000000000E+01  0.51100000000E-03 0.  1.
    9000002   -1    0    0    0    0 -0.00000000000E+00 -0.00000000000E+00  0.00000000000E+00  0.93800000000E+00  0.93800000000E+00 0. -1.
         11    1    1    2    0    0  0.10888566987E+00  0.37747093081E-01  0.91699544327E+00  0.92420876226E+00  0.51100000000E-03 0.  1.
    9000002    1    1    2    0    0 -0.44788576842E+00 -0.14968943568E+00  0.15198388893E+00  0.10611087085E+01  0.93800000000E+00 0. -1.
         22    1    1    2    0    0  0.33900009855E+00  0.11194234260E+00  0.29310206352E+01  0.29526825293E+01  0.00000000000E+00 0.  1.
</event>
<event>
 5    1  0.3454171E+002  0.1599669E+01  0.7818608E-02  0.3353723E+00
         11   -1    0    0    0    0  0.00000000000E+00  0.00000000000E+00  0.39999999674E+01  0.40000000000E+01  0.51100000000E-03 0. -1.
    9000002   -1    0    0    0    0 -0.00000000000E+00 -0.00000000000E+00  0.00000000000E+00  0.93800000000E+00  0.93800000000E+00 0. -1.
         11    1    1    2    0    0 -0.12334005304E-02  0.16041116384E+00  0.15742205932E+01  0.15823729016E+01  0.51100000000E-03 0. -1.
    9000002    1    1    2    0    0  0.37518900247E-02 -0.38879240364E+00  0.10183245899E+00  0.10204839340E+01  0.93800000000E+00 0. -1.
         22    1    1    2    0    0 -0.25184894943E-02  0.22838123980E+00  0.23239469152E+01  0.23351431644E+01  0.00000000000E+00 0. -1.
</event>
<event>
 5    1  0.3454171E+002  0.1554059E+01  0.7818608E-02  0.3404787E+00
         11   -1    0    0    0    0  0.00000000000E+00  0.00000000000E+00  0.39999999674E+01  0.40000000000E+01  0.51100000000E-03 0. -1.
    9000002   -1    0    0    0    0 -0.00000000000E+00 -0.00000000000E+00  0.00000000000E+00  0.93800000000E+00  0.93800000000E+00 0. -1.
         11    1    1    2    0    0  0.96251559790E-01 -0.20444118095E+00  0.12428113736E+01  0.12631868154E+01  0.51100000000E-03 0. -1.
    9000002    1    1    2    0    0  0.13775674485E+00  0.33899973284E-01  0.47668024778E-01  0.94986439534E+00  0.93800000000E+00 0. -1.
         22    1    1    2    0    0 -0.23400830464E+00  0.17054120767E+00  0.27095205690E+01  0.27249487893E+01  0.00000000000E+00 0. -1.
</event>
<event>
 5    1  0.3454171E+002  0.1544349E+01  0.7818608E-02  0.3416072E+00
         11   -1    0    0    0    0  0.00000000000E+00  0.00000000000E+00  0.39999999674E+01  0.40000000000E+01  0.51100000000E-03 0. -1.
    9000002   -1    0    0    0    0 -0.00000000000E+00 -0.00000000000E+00  0.00000000000E+00  0.93800000000E+00  0.93800000000E+00 0.  1.
         11    1    1    2    0    0  0.28814821429E+00 -0.56229067074E-01  0.18957012856E+01  0.19182999575E+01  0.51100000000E-03 0. -1.
    9000002    1    1    2    0    0 -0.11658655820E-01  0.14266243490E+00  0.55454040602E-01  0.95047758796E+00  0.93800000000E+00 0.  1.
         22    1    1    2    0    0 -0.27648955847E+00 -0.86433367826E-01  0.20488446411E+01  0.20692224546E+01  0.00000000000E+00 0. -1.
</event>
<event>
 5    1  0.3454171E+002  0.1592950E+01  0.7818608E-02  0.3361050E+00
         11   -1    0    0    0    0  0.00000000000E+00  0.00000000000E+00  0.39999999674E+01  0.40000000000E+01  0.51100000000E-03 0.  1.
    9000002   -1    0    0    0    0 -0.00000000000E+00 -0.00000000000E+00  0.00000000000E+00  0.93800000000E+00  0.93800000000E+00 0. -1.
         11    1    1    2    0    0  0.20872524474E+00  0.64501918709E-01  0.11063304583E+01  0.11276941383E+01  0.51100000000E-03 0.  1.
    9000002    1    1    2    0    0 -0.42678606316E+00 -0.13481323638E+00  0.14182750816E+00  0.10489423218E+01  0.93800000000E+00 0. -1.
         22    1    1    2    0    0  0.21806081842E+00  0.70311317668E-01  0.27518420009E+01  0.27613635399E+01  0.00000000000E+00 0.  1.
</event>
<event>
 5    1  0.3454171E+002  0.1599676E+01  0.7818608E-02  0.3353715E+00
         11   -1    0    0    0    0  0.00000000000E+00  0.00000000000E+00  0.39999999674E+01  0.40000000000E+01  0.51100000000E-03 0.  1.
    9000002   -1    0    0    0    0 -0.00000000000E+00 -0.00000000000E+00  0.00000000000E+00  0.93800000000E+00  0.93800000000E+00 0. -1.
         11    1    1    2    0    0 -0.20105235168E-01  0.37082616881E+00  0.23668113417E+01  0.23957697001E+01  0.51100000000E-03 0.  1.
    9000002    1    1    2    0    0  0.33024953194E-01 -0.58950798429E+00  0.24273414157E+00  0.11346251251E+01  0.93800000000E+00 0. -1.
         22    1    1    2    0    0 -0.12919718026E-01  0.21868181548E+00  0.13904544841E+01  0.14076051747E+01  0.00000000000E+00 0. -1.
</event>
<event>
 5    1  0.3454171E+002  0.1599657E+01  0.7818608E-02  0.3353735E+00
         11   -1    0    0    0    0  0.00000000000E+00  0.00000000000E+00  0.39999999674E+01  0.40000000000E+01  0.51100000000E-03 0.  1.
    9000002   -1    0    0    0    0 -0.00000000000E+00 -0.00000000000E+00  0.00000000000E+00  0.93800000000E+00  0.93800000000E+00 0.  1.
         11    1    1    2    0    0  0.24462423246E+00  0.93364068093E-01  0.15961497843E+01  0.16174833104E+01  0.51100000000E-03 0.  1.
    9000002    1    1    2    0    0 -0.56641057875E+00 -0.22914756374E+00  0.26111269964E+00  0.11495013665E+01  0.93800000000E+00 0.  1.
         22    1    1    2    0    0  0.32178634629E+00  0.13578349565E+00  0.21427374834E+01  0.21710153231E+01  0.00000000000E+00 0.  1.
</event>
<event>
 5    1  0.3454171E+002  0.1599562E+01  0.7818608E-02  0.3353839E+00
         11   -1    0    0    0    0  0.00000000000E+00  0.00000000000E+00  0.39999999674E+01  0.40000000000E+01  0.51100000000E-03 0. -1.
    9000002   -1    0    0    0    0 -0.00000000000E+00 -0.00000000000E+00  0.00000000000E+00  0.93800000000E+00  0.93800000000E+00 0.  1.
         11    1    1    2    0    0  0.18646950285E+00  0.12430265406E+00  0.19883882867E+01  0.20009773274E+01  0.51100000000E-03 0. -1.
    9000002    1    1    2    0    0 -0.37031449262E+00 -0.26498363707E+00  0.14104044300E+00  0.10521813332E+01  0.93800000000E+00 0.  1.
         22    1    1    2    0    0  0.18384498977E+00  0.14068098300E+00  0.18705712377E+01  0.18848413394E+01  0.00000000000E+00 0.  1.
</event>
<event>
 5    1  0.3454171E+002  0.1599670E+01  0.7818608E-02  0.3353721E+00
         11   -1    0    0    0    0  0.00000000000E+00  0.00000000000E+00  0.39999999674E+01  0.40000000000E+01  0.51100000000E-03 0.  1.
    9000002   -1    0    0    0    0 -0.00000000000E+00 -0.00000000000E+00  0.00000000000E+00  0.93800000000E+00  0.93800000000E+00 0. -1.
         11    1    1    2    0    0 -0.16720995599E-01 -0.34574785519E+00  0.21495084437E+01  0.21772018698E+01  0.51100000000E-03 0.  1.
    9000002    1    1    2    0    0  0.33232283854E-01  0.59931260509E+00  0.25138621345E+00  0.11416299802E+01  0.93800000000E+00 0. -1.
         22    1    1    2    0    0 -0.16511288254E-01 -0.25356474990E+00  0.15991053102E+01  0.16191681500E+01  0.00000000000E+00 0.  1.
</event>
<event>
 5    1  0.3454171E+002  0.1599308E+01  0.7818608E-02  0.3354115E+00
         11   -1    0    0    0    0  0.00000000000E+00  0.00000000000E+00  0.39999999674E+01  0.40000000000E+01  0.51100000000E-03 0. -1.
    9000002   -1    0    0    0    0 -0.00000000000E+00 -0.00000000000E+00  0.00000000000E+00  0.93800000000E+00  0.93800000000E+00 0. -1.
         11    1    1    2    0    0 -0.65454605760E-01  0.26491818213E-01  0.79145100510E+00  0.79459491343E+00  0.51100000000E-03 0. -1.
    9000002    1    1    2    0    0  0.30371522707E+00 -0.42140840560E-01  0.63050487279E-01  0.98885699347E+00  0.93800000000E+00 0. -1.
         22    1    1    2    0    0 -0.23826062131E+00  0.15649022347E-01  0.31454984750E+01  0.31545480931E+01  0.00000000000E+00 0. -1.
</event>
<event>
 5    1  0.3454171E+002  0.1599606E+01  0.7818608E-02  0.3353791E+00
         11   -1    0    0    0    0  0.00000000000E+00  0.00000000000E+00  0.39999999674E+01  0.40000000000E+01  0.51100000000E-03 0.  1.
    9000002   -1    0    0    0    0 -0.00000000000E+00 -0.00000000000E+00  0.00000000000E+00  0.93800000000E+00  0.93800000000E+00 0.  1.
         11    1    1    2    0    0 -0.53494494917E-02 -0.17451601874E-01  0.14398397514E+00  0.14513724965E+00  0.51100000000E-03 0.  1.
    9000002    1    1    2    0    0  0.23261757553E+00  0.41776935812E+00  0.15602385286E+00  0.10643446884E+01  0.93800000000E+00 0.  1.
         22    1    1    2    0    0 -0.22726812604E+00 -0.40031775625E+00  0.36999921394E+01  0.37285180620E+01  0.00000000000E+00 0.  1.
</event>
<event>
 5    1  0.3454171E+002  0.1590539E+01  0.7818608E-02  0.3363697E+00
         11   -1    0    0    0    0  0.00000000000E+00  0.00000000000E+00  0.39999999674E+01  0.40000000000E+01  0.51100000000E-03 0. -1.
    9000002   -1    0    0    0    0 -0.00000000000E+00 -0.00000000000E+00  0.00000000000E+00  0.93800000000E+00  0.93800000000E+00 0.  1.
         11    1    1    2    0    0  0.47601050818E-01 -0.56223269554E-01  0.23352890855E+00  0.24487329035E+00  0.51100000000E-03 0. -1.
    9000002    1    1    2    0    0 -0.28828913918E+00  0.16673664818E+00  0.81552205197E-01  0.99870240802E+00  0.93800000000E+00 0.  1.
         22    1    1    2    0    0  0.24068808836E+00 -0.11051337863E+00  0.36849188536E+01  0.36944243016E+01  0.00000000000E+00 0. -1.
</event>
<event>
 5    1  0.3454171E+002  0.1599677E+01  0.7818608E-02  0.3353714E+00
         11   -1    0    0    0    0  0.00000000000E+00  0.00000000000E+00  0.39999999674E+01  0.40000000000E+01  0.51100000000E-03 0. -1.
    9000002   -1    0    0    0    0 -0.00000000000E+00 -0.00000000000E+00  0.00000000000E+00  0.93800000000E+00  0.93800000000E+00 0.  1.
         11    1    1    2    0    0 -0.95307770337E-01 -0.15314801087E+00  0.17271679229E+01  0.17365618847E+01  0.51100000000E-03 0. -1.
    9000002    1    1    2    0    0  0.21589159898E+00  0.34450553976E+00  0.11158865046E+00  0.10283915968E+01  0.93800000000E+00 0.  1.
         22    1    1    2    0    0 -0.12058382864E+00 -0.19135752889E+00  0.21612433940E+01  0.21730465185E+01  0.00000000000E+00 0. -1.
</event>
<event>
 5    1  0.3454171E+002  0.1597746E+01  0.7818608E-02  0.3355813E+00
         11   -1    0    0    0    0  0.00000000000E+00  0.00000000000E+00  0.39999999674E+01  0.40000000000E+01  0.51100000000E-03 0. -1.
    9000002   -1    0    0    0    0 -0.00000000000E+00 -0.00000000000E+00  0.00000000000E+00  0.93800000000E+00  0.93800000000E+00 0. -1.
         11    1    1    2    0    0  0.79147112287E-01 -0.13839995134E+00  0.10744630269E+01  0.10862273562E+01  0.51100000000E-03 0. -1.
    9000002    1    1    2    0    0 -0.40512369990E+00  0.37685012694E+00  0.21341550161E+00  0.11097438473E+01  0.93800000000E+00 0. -1.
         22    1    1    2    0    0  0.32597658761E+00 -0.23845017560E+00  0.27121214388E+01  0.27420287965E+01  0.00000000000E+00 0. -1.
</event>
<event>
 5    1  0.3454171E+002  0.1596265E+01  0.7818608E-02  0.3357428E+00
         11   -1    0    0    0    0  0.00000000000E+00  0.00000000000E+00  0.39999999674E+01  0.40000000000E+01  0.51100000000E-03 0.  1.
    9000002   -1    0    0    0    0 -0.00000000000E+00 -0.00000000000E+00  0.00000000000E+00  0.93800000000E+00  0.93800000000E+00 0.  1.
         11    1    1    2    0    0 -0.12869421986E+00 -0.67147099046E-02  0.12016396329E+01  0.12085302470E+01  0.51100000000E-03 0.  1.
    9000002    1    1    2    0    0  0.27997479497E+00  0.18047249893E+00  0.76987454418E-01  0.99836229738E+00  0.93800000000E+00 0.  1.
         22    1    1    2    0    0 -0.15128057512E+00 -0.17375778903E+00  0.27213728800E+01  0.27311074556E+01  0.00000000000E+00 0.  1.
</event>
<event>
 5    1  0.3454171E+002  0.1597299E+01  0.7818608E-02  0.3356300E+00
         11   -1    0    0    0    0  0.00000000000E+00  0.00000000000E+00  0.39999999674E+01  0.40000000000E+01  0.51100000000E-03 0. -1.
    9000002   -1    0    0    0    0 -0.00000000000E+00 -0.00000000000E+00  0.00000000000E+00  0.93800000000E+00  0.93800000000E+00 0. -1.
         11    1    1    2    0    0 -0.28848165301E-01  0.82304835626E-01  0.71382532819E+00  0.71913361964E+00  0.51100000000E-03 0. -1.
    9000002    1    1    2    0    0  0.31220739730E+00 -0.25538966731E+00  0.11177567362E+00  0.10271490361E+01  0.93800000000E+00 0. -1.
         22    1    1    2    0    0 -0.28335923200E+00  0.17308483169E+00  0.31743989656E+01  0.31917173443E+01  0.00000000000E+00 0. -1.
</event>
<event>
 5    1  0.3454171E+002  0.1594057E+01  0.7818608E-02  0.3359840E+00
         11   -1    0    0    0    0  0.00000000000E+00  0.00000000000E+00  0.39999999674E+01  0.40000000000E+01  0.51100000000E-03 0.  1.
    9000002   -1    0    0    0    0 -0.00000000000E+00 -0.00000000000E+00  0.00000000000E+00  0.93800000000E+00  0.93800000000E+00 0.  1.
         11    1    1    2    0    0  0.31647855638E+00  0.15884349590E-01  0.69928248044E+00  0.76772862249E+00  0.51100000000E-03 0.  1.
    9000002    1    1    2    0    0 -0.10426955932E+01 -0.14229057636E+00  0.93309749685E+00  0.16905548340E+01  0.93800000000E+00 0.  1.
         22    1    1    2    0    0  0.72621703682E+00  0.12640622677E+00  0.23676199901E+01  0.24797165435E+01  0.00000000000E+00 0.  1.
</event>
<event>
 5    1  0.3454171E+002  0.1599241E+01  0.7818608E-02  0.3354187E+00
         11   -1    0    0    0    0  0.00000000000E+00  0.00000000000E+00  0.39999999674E+01  0.40000000000E+01  0.51100000000E-03 0.  1.
    9000002   -1    0    0    0    0 -0.00000000000E+00 -0.00000000000E+00  0.00000000000E+00  0.93800000000E+00  0.93800000000E+00 0.  1.
         11    1    1    2    0    0 -0.29922941385E-01  0.12945703066E+00  0.13241200229E+01  0.13307699280E+01  0.51100000000E-03 0.  1.
    9000002    1    1    2    0    0  0.19340490201E-01 -0.39421417840E+00  0.10536599183E+00  0.10230957263E+01  0.93800000000E+00 0.  1.
         22    1    1    2    0    0  0.10582451184E-01  0.26475714774E+00  0.25705139526E+01  0.25841343456E+01  0.00000000000E+00 0.  1.
</event>
<event>
 5    1  0.3454171E+002  0.1599673E+01  0.7818608E-02  0.3353718E+00
         11   -1    0    0    0    0  0.00000000000E+00  0.00000000000E+00  0.39999999674E+01  0.40000000000E+01  0.51100000000E-03 0.  1.
    9000002   -1    0    0    0    0 -0.00000000000E+00 -0.00000000000E+00  0.00000000000E+00  0.93800000000E+00  0.93800000000E+00 0.  1.
         11    1    1    2    0    0  0.72970240128E-02 -0.75051366438E-01  0.66767596098E+00  0.67192068294E+00  0.51100000000E-03 0.  1.
    9000002    1    1    2    0    0 -0.37157007531E-01  0.44292367042E+00  0.13407568001E+00  0.10466051352E+01  0.93800000000E+00 0.  1.
         22    1    1    2    0    0  0.29859983518E-01 -0.36787230398E+00  0.31982483264E+01  0.32194741819E+01  0.00000000000E+00 0.  1.
</event>
<event>
 5    1  0.3454171E+002  0.1599638E+01  0.7818608E-02  0.3353756E+00
         11   -1    0    0    0    0  0.00000000000E+00  0.00000000000E+00  0.39999999674E+01  0.40000000000E+01  0.51100000000E-03 0. -1.
    9000002   -1    0    0    0    0 -0.00000000000E+00 -0.00000000000E+00  0.00000000000E+00  0.93800000000E+00  0.93800000000E+00 0. -1.
         11    1    1    2    0    0 -0.99102916392E-03 -0.17498636242E-03  0.11092487812E-01  0.11149760800E-01  0.51100000000E-03 0. -1.
    9000002    1    1    2    0    0  0.21286503071E+00 -0.10366265745E+00  0.37231348709E-01  0.96813616872E+00  0.93800000000E+00 0. -1.
         22    1    1    2    0    0 -0.21187400155E+00  0.10383764381E+00  0.39516761308E+01  0.39587140705E+01  0.00000000000E+00 0. -1.
</event>
<event>
 5    1  0.3454171E+002  0.1599676E+01  0.7818608E-02  0.3353715E+00
         11   -1    0    0    0    0  0.00000000000E+00  0.00000000000E+00  0.39999999674E+01  0.40000000000E+01  0.51100000000E-03 0. -1.
    9000002   -1    0    0    0    0 -0.00000000000E+00 -0.00000000000E+00  0.00000000000E+00  0.93800000000E+00  0.93800000000E+00 0. -1.
         11    1    1    2    0    0  0.26258699933E-01 -0.81818503254E-01  0.10334366921E+01  0.10370031073E+01  0.51100000000E-03 0. -1.
    9000002    1    1    2    0    0 -0.96258612376E-01  0.31092045372E+00  0.70848294809E-01  0.99538973768E+00  0.93800000000E+00 0. -1.
         22    1    1    2    0    0  0.69999912443E-01 -0.22910195047E+00  0.28957149805E+01  0.29056071551E+01  0.00000000000E+00 0.  1.
</event>
<event>
 5    1  0.3454171E+002  0.1599590E+01  0.7818608E-02  0.3353809E+00
         11   -1    0    0    0    0  0.00000000000E+00  0.00000000000E+00  0.39999999674E+01  0.40000000000E+01  0.51100000000E-03 0.  1.
    9000002   -1    0    0    0    0 -0.00000000000E+00 -0.00000000000E+00  0.00000000000E+00  0.93800000000E+00  0.93800000000E+00 0. -1.
         11    1    1    2    0    0 -0.14386407094E+00  0.58821851006E-02  0.59152660889E+00  0.60879837480E+00  0.51100000000E-03 0.  1.
    9000002    1    1    2    0    0  0.82082590011E+00  0.53349829253E-02  0.50004807191E+00  0.13430099384E+01  0.93800000000E+00 0. -1.
         22    1    1    2    0    0 -0.67696182917E+00 -0.11217168026E-01  0.29084252866E+01  0.29861916868E+01  0.00000000000E+00 0.  1.
</event>
<event>
 5    1  0.3454171E+002  0.1565813E+01  0.7818608E-02  0.3391325E+00
         11   -1    0    0    0    0  0.00000000000E+00  0.00000000000E+00  0.39999999674E+01  0.40000000000E+01  0.51100000000E-03 0. -1.
    9000002   -1    0    0    0    0 -0.00000000000E+00 -0.00000000000E+00  0.00000000000E+00  0.93800000000E+00  0.93800000000E+00 0. -1.
         11    1    1    2    0    0 -0.10026118334E+00  0.15969528818E+00  0.80769469212E+00  0.82941296514E+00  0.51100000000E-03 0. -1.
    9000002    1    1    2    0    0  0.23035713533E+00  0.57401224883E-01  0.63602519017E-01  0.96966416395E+00  0.93800000000E+00 0. -1.
         22    1    1    2    0    0 -0.13009595200E+00 -0.21709651306E+00  0.31287027562E+01  0.31389228709E+01  0.00000000000E+00 0. -1.
</event>
<event>
 5    1  0.3454171E+002  0.1581101E+01  0.7818608E-02  0.3374135E+00
         11   -1    0    0    0    0  0.00000000000E+00  0.00000000000E+00  0.39999999674E+01  0.40000000000E+01  0.51100000000E-03 0. -1.
    9000002   -1    0    0    0    0 -0.00000000000E+00 -0.00000000000E+00  0.00000000000E+00  0.93800000000E+00  0.93800000000E+00 0. -1.
         11    1    1    2    0    0  0.10312018163E+00  0.44953250420E-01  0.18423398863E+01  0.18457711354E+01  0.51100000000E-03 0. -1.
    9000002    1    1    2    0    0 -0.29150681116E+00 -0.42424938136E+00  0.19899853975E+00  0.10883051858E+01  0.93800000000E+00 0. -1.
         22    1    1    2    0    0  0.18838662952E+00  0.37929613094E+00  0.19586615413E+01  0.20039236788E+01  0.00000000000E+00 0. -1.
</event>
<event>
 5    1  0.3454171E+002  0.1599677E+01  0.7818608E-02  0.3353714E+00
         11   -1    0    0    0    0  0.00000000000E+00  0.00000000000E+00  0.39999999674E+01  0.40000000000E+01  0.51100000000E-03 0.  1.
    9000002   -1    0    0    0    0 -0.00000000000E+00 -0.00000000000E+00  0.00000000000E+00  0.93800000000E+00  0.93800000000E+00 0. -1.
         11    1    1    2    0    0 -0.80916344383E-01  0.26144262277E+00  0.14911364532E+01  0.15160434964E+01  0.51100000000E-03 0. -1.
    9000002    1    1    2    0    0  0.19908331070E+00 -0.64502058011E+00  0.32354897358E+00  0.12000890182E+01  0.93800000000E+00 0. -1.
         22    1    1    2    0    0 -0.11816696632E+00  0.38357795735E+00  0.21853145406E+01  0.22218674854E+01  0.00000000000E+00 0.  1.
</event>
<event>
 5    1  0.3454171E+002  0.1599675E+01  0.7818608E-02  0.3353717E+00
         11   -1    0    0    0    0  0.00000000000E+00  0.00000000000E+00  0.39999999674E+01  0.40000000000E+01  0.51100000000E-03 0. -1.
    9000002   -1    0    0    0    0 -0.00000000000E+00 -0.00000000000E+00  0.00000000000E+00  0.93800000000E+00  0.93800000000E+00 0.  1.
         11    1    1    2    0    0 -0.25798812252E+00  0.16267580606E+00  0.20783552352E+01  0.21006146801E+01  0.51100000000E-03 0. -1.
    9000002    1    1    2    0    0  0.46687656636E+00 -0.29716398608E+00  0.21168845938E+00  0.11094756269E+01  0.93800000000E+00 0.  1.
         22    1    1    2    0    0 -0.20888844383E+00  0.13448818002E+00  0.17099562728E+01  0.17279096930E+01  0.00000000000E+00 0.  1.
</event>
<event>
 5    1  0.3454171E+002  0.1599661E+01  0.7818608E-02  0.3353731E+00
         11   -1    0    0    0    0  0.00000000000E+00  0.00000000000E+00  0.39999999674E+01  0.40000000000E+01  0.51100000000E-03 0. -1.
    9000002   -1    0    0    0    0 -0.00000000000E+00 -0.00000000000E+00  0.00000000000E+00  0.93800000000E+00  0.93800000000E+00 0. -1.
         11    1    1    2    0    0  0.14705352126E-01 -0.74517454894E-01  0.10355913189E+01  0.10383731215E+01  0.51100000000E-03 0. -1.
    9000002    1    1    2    0    0 -0.41754552835E-01  0.29072231565E+00  0.57525821289E-01  0.98458931927E+00  0.93800000000E+00 0. -1.
         22    1    1    2    0    0  0.27049200709E-01 -0.21620486076E+00  0.29068828271E+01  0.29150375592E+01  0.00000000000E+00 0. -1.
</event>
<event>
 5    1  0.3454171E+002  0.1599363E+01  0.7818608E-02  0.3354055E+00
         11   -1    0    0    0    0  0.00000000000E+00  0.00000000000E+00  0.39999999674E+01  0.40000000000E+01  0.51100000000E-03 0. -1.
    9000002   -1    0    0    0    0 -0.00000000000E+00 -0.00000000000E+00  0.00000000000E+00  0.93800000000E+00  0.93800000000E+00 0. -1.
         11    1    1    2    0    0  0.25576499574E-01 -0.74558340284E-02  0.38967542104E+00  0.39058538334E+00  0.51100000000E-03 0. -1.
    9000002    1    1    2    0    0 -0.24232170046E+00 -0.52112735035E-01  0.41044378655E-01  0.97106342980E+00  0.93800000000E+00 0. -1.
         22    1    1    2    0    0  0.21674520089E+00  0.59568569063E-01  0.35692801677E+01  0.35763511869E+01  0.00000000000E+00 0. -1.
</event>
<event>
 5    1  0.3454171E+002  0.1599629E+01  0.7818608E-02  0.3353766E+00
         11   -1    0    0    0    0  0.00000000000E+00  0.00000000000E+00  0.39999999674E+01  0.40000000000E+01  0.51100000000E-03 0. -1.
    9000002   -1    0    0    0    0 -0.00000000000E+00 -0.00000000000E+00  0.00000000000E+00  0.93800000000E+00  0.93800000000E+00 0. -1.
         11    1    1    2    0    0  0.53655073451E-01  0.72582290483E-01  0.12682008716E+01  0.12714089695E+01  0.51100000000E-03 0. -1.
    9000002    1    1    2    0    0 -0.17606798540E+00 -0.24779041268E+00  0.61701938570E-01  0.98795301170E+00  0.93800000000E+00 0. -1.
         22    1    1    2    0    0  0.12241291195E+00  0.17520812220E+00  0.26700971572E+01  0.26786380188E+01  0.00000000000E+00 0. -1.
</event>
<event>
 5    1  0.3454171E+002  0.1587006E+01  0.7818608E-02  0.3367588E+00
         11   -1    0    0    0    0  0.00000000000E+00  0.00000000000E+00  0.39999999674E+01  0.40000000000E+01  0.51100000000E-03 0.  1.
    9000002   -1    0    0    0    0 -0.00000000000E+00 -0.00000000000E+00  0.00000000000E+00  0.93800000000E+00  0.93800000000E+00 0.  1.
         11    1    1    2    0    0  0.65596659657E-01  0.61000809071E-01  0.87559369443E+00  0.88016396161E+00  0.51100000000E-03 0.  1.
    9000002    1    1    2    0    0  0.12451529146E+00  0.83332405161E-02  0.19626418195E-01  0.94646853989E+00  0.93800000000E+00 0.  1.
         22    1    1    2    0    0 -0.19011195112E+00 -0.69334049587E-01  0.31047798547E+01  0.31113674985E+01  0.00000000000E+00 0.  1.
</event>
<event>
 5    1  0.3454171E+002  0.1599677E+01  0.7818608E-02  0.3353714E+00
         11   -1    0    0    0    0  0.00000000000E+00  0.00000000000E+00  0.39999999674E+01  0.40000000000E+01  0.51100000000E-03 0. -1.
    9000002   -1    0    0    0    0 -0.00000000000E+00 -0.00000000000E+00  0.00000000000E+00  0.93800000000E+00  0.93800000000E+00 0. -1.
         11    1    1    2    0    0 -0.15395480595E-01 -0.18084428887E+00  0.10465353659E+01  0.10621573381E+01  0.51100000000E-03 0.  1.
    9000002    1    1    2    0    0  0.55466056634E-01  0.64038271401E+00  0.29105014763E+00  0.11737634737E+01  0.93800000000E+00 0. -1.
         22    1    1    2    0    0 -0.40070576039E-01 -0.45953842514E+00  0.26624144538E+01  0.27020791882E+01  0.00000000000E+00 0. -1.
</event>
<event>
 5    1  0.3454171E+002  0.1597896E+01  0.7818608E-02  0.3355650E+00
         11   -1    0    0    0    0  0.00000000000E+00  0.00000000000E+00  0.39999999674E+01  0.40000000000E+01  0.51100000000E-03 0.  1.
    9000002   -1    0    0    0    0 -0.00000000000E+00 -0.00000000000E+00  0.00000000000E+00  0.93800000000E+00  0.93800000000E+00 0.  1.
         11    1    1    2    0    0 -0.93026232696E-02 -0.73039875484E-02  0.35506356187E+00  0.35526086348E+00  0.51100000000E-03 0.  1.
    9000002    1    1    2    0    0 -0.21134440283E+00  0.70811943694E-02  0.30965926727E-01  0.96203923441E+00  0.93800000000E+00 0.  1.
         22    1    1    2    0    0  0.22064702610E+00  0.22279317898E-03  0.36139704788E+01  0.36206999021E+01  0.00000000000E+00 0.  1.
</event>
<event>
 5    1  0.3454171E+002  0.1599657E+01  0.7818608E-02  0.3353735E+00
         11   -1    0    0    0    0  0.00000000000E+00  0.00000000000E+00  0.39999999674E+01  0.40000000000E+01  0.51100000000E-03 0. -1.
    9000002   -1    0    0    0    0 -0.00000000000E+00 -0.00000000000E+00  0.00000000000E+00  0.93800000000E+00  0.93800000000E+00 0.  1.
         11    1    1    2    0    0  0.17397453698E-02 -0.68978514281E-03  0.43594091350E-01  0.43637236841E-01  0.51100000000E-03 0. -1.
    9000002    1    1    2    0    0 -0.22805265809E+00  0.11893805040E+00  0.43985214894E-01  0.97361849501E+00  0.93800000000E+00 0.  1.
         22    1    1    2    0    0  0.22631291272E+00 -0.11824826526E+00  0.39124206611E+01  0.39207442681E+01  0.00000000000E+00 0. -1.
</event>
<event>
 5    1  0.3454171E+002  0.1594765E+01  0.7818608E-02  0.3359065E+00
         11   -1    0    0    0    0  0.00000000000E+00  0.00000000000E+00  0.39999999674E+01  0.40000000000E+01  0.51100000000E-03 0.  1.
    9000002   -1    0    0    0    0 -0.00000000000E+00 -0.00000000000E+00  0.00000000000E+00  0.93800000000E+00  0.93800000000E+00 0.  1.
         11    1    1    2    0    0  0.42840925173E+00 -0.18965405311E+00  0.57328218467E+00  0.74037549338E+00  0.51100000000E-03 0.  1.
    9000002    1    1    2    0    0  0.74878359211E-01 -0.23076326313E+00  0.31684207603E+00  0.10193583047E+01  0.93800000000E+00 0.  1.
         22    1    1    2    0    0 -0.50328761094E+00  0.42041731624E+00  0.31098757067E+01  0.31782662019E+01  0.00000000000E+00 0.  1.
</event>
<event>
 5    1  0.3454171E+002  0.1599675E+01  0.7818608E-02  0.3353716E+00
         11   -1    0    0    0    0  0.00000000000E+00  0.00000000000E+00  0.39999999674E+01  0.40000000000E+01  0.51100000000E-03 0.  1.
    9000002   -1    0    0    0    0 -0.00000000000E+00 -0.00000000000E+00  0.00000000000E+00  0.93800000000E+00  0.93800000000E+00 0. -1.
         11    1    1    2    0    0  0.78873806155E-03 -0.37134677882E-01  0.50255522011E+00  0.50392620173E+00  0.51100000000E-03 0.  1.
    9000002    1    1    2    0    0 -0.39019620280E-03  0.29705760945E+00  0.58853694032E-01  0.98567293403E+00  0.93800000000E+00 0. -1.
         22    1    1    2    0    0 -0.39854185874E-03 -0.25992293157E+00  0.34385910532E+01  0.34484008642E+01  0.00000000000E+00 0.  1.
</event>
<event>
 5    1  0.3454171E+002  0.1585090E+01  0.7818608E-02  0.3369707E+00
         11   -1    0    0    0    0  0.00000000000E+00  0.00000000000E+00  0.39999999674E+01  0.40000000000E+01  0.51100000000E-03 0.  1.
    9000002   -1    0    0    0    0 -0.00000000000E+00 -0.00000000000E+00  0.00000000000E+00  0.93800000000E+00  0.93800000000E+00 0.  1.
         11    1    1    2    0    0  0.23002863419E+00 -0.14946100629E+00  0.11016736697E+01  0.11353135693E+01  0.51100000000E-03 0.  1.
    9000002    1    1    2    0    0 -0.76430793380E+00  0.48846893317E-01  0.44544790511E+00  0.12902792228E+01  0.93800000000E+00 0.  1.
         22    1    1    2    0    0  0.53427929961E+00  0.10061411298E+00  0.24528783925E+01  0.25124072079E+01  0.00000000000E+00 0.  1.
</event>
<event>
 5    1  0.3454171E+002  0.1599425E+01  0.7818608E-02  0.3353988E+00
         11   -1    0    0    0    0  0.00000000000E+00  0.00000000000E+00  0.39999999674E+01  0.40000000000E+01  0.51100000000E-03 0. -1.
    9000002   -1    0    0    0    0 -0.00000000000E+00 -0.00000000000E+00  0.00000000000E+00  0.93800000000E+00  0.93800000000E+00 0.  1.
         11    1    1    2    0    0  0.24765432578E-02 -0.52107122043E-02  0.35872803554E-01  0.36337362921E-01  0.51100000000E-03 0. -1.
    9000002    1    1    2    0    0 -0.23322810595E-01  0.26476187231E+00  0.47179912243E-01  0.97607005212E+00  0.93800000000E+00 0.  1.
         22    1    1    2    0    0  0.20846267338E-01 -0.25955116011E+00  0.39169472516E+01  0.39255925850E+01  0.00000000000E+00 0. -1.
</event>
<event>
 5    1  0.3454171E+002  0.1580382E+01  0.7818608E-02  0.3374935E+00
         11   -1    0    0    0    0  0.00000000000E+00  0.00000000000E+00  0.39999999674E+01  0.40000000000E+01  0.51100000000E-03 0.  1.
    9000002   -1    0    0    0    0 -0.00000000000E+00 -0.00000000000E+00  0.00000000000E+00  0.93800000000E+00  0.93800000000E+00 0.  1.
         11    1    1    2    0    0  0.38982832332E-01 -0.60248150830E-01  0.26267354780E+00  0.27229975162E+00  0.51100000000E-03 0.  1.
    9000002    1    1    2    0    0 -0.10951461411E-01 -0.21288143193E+00  0.44777557589E-01  0.96295766690E+00  0.93800000000E+00 0.  1.
         22    1    1    2    0    0 -0.28031370921E-01  0.27312958276E+00  0.36925488620E+01  0.37027425815E+01  0.00000000000E+00 0.  1.
</event>
<event>
 5    1  0.3454171E+002  0.1598829E+01  0.7818608E-02  0.3354635E+00
         11   -1    0    0    0    0  0.00000000000E+00  0.00000000000E+00  0.39999999674E+01  0.40000000000E+01  0.51100000000E-03 0. -1.
    9000002   -1    0    0    0    0 -0.00000000000E+00 -0.00000000000E+00  0.00000000000E+00  0.93800000000E+00  0.93800000000E+00 0.  1.
         11    1    1    2    0    0  0.59602086311E-01  0.86874969598E-01  0.85484152881E+00  0.86130945051E+00  0.51100000000E-03 0. -1.
    9000002    1    1    2    0    0 -0.26381894164E+00 -0.26433734010E+00  0.94463971633E-01  0.10140227341E+01  0.93800000000E+00 0.  1.
         22    1    1    2    0    0  0.20421685533E+00  0.17746237050E+00  0.30506944669E+01  0.30626678154E+01  0.00000000000E+00 0. -1.
</event>
<event>
 5    1  0.3454171E+002  0.1599677E+01  0.7818608E-02  0.3353714E+00
         11   -1    0    0    0    0  0.00000000000E+00  0.00000000000E+00  0.39999999674E+01  0.40000000000E+01  0.51100000000E-03 0. -1.
    9000002   -1    0    0    0    0 -0.00000000000E+00 -0.00000000000E+00  0.00000000000E+00  0.93800000000E+00  0.93800000000E+00 0.  1.
         11    1    1    2    0    0 -0.26800305279E+00 -0.20129796081E+00  0.20289321693E+01  0.20564319862E+01  0.51100000000E-03 0. -1.
    9000002    1    1    2    0    0  0.49312118751E+00  0.36992219519E+00  0.26608510590E+00  0.11535407317E+01  0.93800000000E+00 0.  1.
         22    1    1    2    0    0 -0.22511813472E+00 -0.16862423438E+00  0.17049826922E+01  0.17280272821E+01  0.00000000000E+00 0. -1.
</event>
<event>
 5    1  0.3454171E+002  0.1599674E+01  0.7818608E-02  0.3353717E+00
         11   -1    0    0    0    0  0.00000000000E+00  0.00000000000E+00  0.39999999674E+01  0.40000000000E+01  0.51100000000E-03 0.  1.
    9000002   -1    0    0    0    0 -0.00000000000E+00 -0.00000000000E+00  0.00000000000E+00  0.93800000000E+00  0.93800000000E+00 0. -1.
         11    1    1    2    0    0  0.72708468220E-02 -0.12061274470E-01  0.20783564169E+00  0.20831287678E+00  0.51100000000E-03 0.  1.
    9000002    1    1    2    0    0 -0.12872878745E+00  0.21772363356E+00  0.42509643298E-01  0.97243290314E+00  0.93800000000E+00 0. -1.
         22    1    1    2    0    0  0.12145794063E+00 -0.20566235909E+00  0.37496546824E+01  0.37572542201E+01  0.00000000000E+00 0.  1.
</event>
<event>
 5    1  0.3454171E+002  0.1599677E+01  0.7818608E-02  0.3353714E+00
         11   -1    0    0    0    0  0.00000000000E+00  0.00000000000E+00  0.39999999674E+01  0.40000000000E+01  0.51100000000E-03 0. -1.
    9000002   -1    0    0    0    0 -0.00000000000E+00 -0.00000000000E+00  0.00000000000E+00  0.93800000000E+00  0.93800000000E+00 0.  1.
         11    1    1    2    0    0 -0.21441929219E+00  0.24509497966E+00  0.20390508915E+01  0.20648912759E+01  0.51100000000E-03 0. -1.
    9000002    1    1    2    0    0  0.39409897439E+00 -0.45032897988E+00  0.24976900507E+00  0.11403239661E+01  0.93800000000E+00 0.  1.
         22    1    1    2    0    0 -0.17967968220E+00  0.20523400022E+00  0.17111800708E+01  0.17327847580E+01  0.00000000000E+00 0.  1.
</event>
<event>
 5    1  0.3454171E+002  0.1599596E+01  0.7818608E-02  0.3353802E+00
         11   -1    0    0    0    0  0.00000000000E+00  0.00000000000E+00  0.39999999674E+01  0.40000000000E+01  0.51100000000E-03 0. -1.
    9000002   -1    0    0    0    0 -0.00000000000E+00 -0.00000000000E+00  0.00000000000E+00  0.93800000000E+00  0.93800000000E+00 0. -1.
         11    1    1    2    0    0  0.80274500459E+00  0.50369800572E+00  0.79175336596E+00  0.12349027804E+01  0.51100000000E-03 0. -1.
    9000002    1    1    2    0    0 -0.10312136004E+01 -0.63516600176E+00  0.29950557178E+01  0.33640808689E+01  0.93800000000E+00 0. -1.
         22    1    1    2    0    0  0.22846859579E+00  0.13146799603E+00  0.21319088359E+00  0.33901635077E+00  0.00000000000E+00 0. -1.
</event>
<event>
 5    1  0.3454171E+002  0.1599672E+01  0.7818608E-02  0.3353720E+00
         11   -1    0    0    0    0  0.00000000000E+00  0.00000000000E+00  0.39999999674E+01  0.40000000000E+01  0.51100000000E-03 0. -1.
    9000002   -1    0    0    0    0 -0.00000000000E+00 -0.00000000000E+00  0.00000000000E+00  0.93800000000E+00  0.93800000000E+00 0. -1.
         11    1    1    2    0    0 -0.14395155519E-01  0.40457372828E-02  0.25701857137E+00  0.25745367669E+00  0.51100000000E-03 0.  1.
    9000002    1    1    2    0    0  0.23802607035E+00 -0.73644720617E-01  0.41240483480E-01  0.97140348595E+00  0.93800000000E+00 0. -1.
         22    1    1    2    0    0 -0.22363091484E+00  0.69598983334E-01  0.37017409125E+01  0.37091428374E+01  0.00000000000E+00 0. -1.
</event>
<event>
 5    1  0.3454171E+002  0.1589072E+01  0.7818608E-02  0.3365310E+00
         11   -1    0    0    0    0  0.00000000000E+00  0.00000000000E+00  0.39999999674E+01  0.40000000000E+01  0.51100000000E-03 0. -1.
    9000002   -1    0    0    0    0 -0.00000000000E+00 -0.00000000000E+00  0.00000000000E+00  0.93800000000E+00  0.93800000000E+00 0. -1.
         11    1    1    2    0    0 -0.82304675219E-01 -0.10301779876E+00  0.19758392494E+01  0.19802342607E+01  0.51100000000E-03 0. -1.
    9000002    1    1    2    0    0  0.25214797516E+00  0.42261902522E+00  0.17512072833E+00  0.10736371414E+01  0.93800000000E+00 0. -1.
         22    1    1    2    0    0 -0.16984329994E+00 -0.31960122646E+00  0.18490399896E+01  0.18841285980E+01  0.00000000000E+00 0. -1.
</event>
<event>
 5    1  0.3454171E+002  0.1599658E+01  0.7818608E-02  0.3353735E+00
         11   -1    0    0    0    0  0.00000000000E+00  0.00000000000E+00  0.39999999674E+01  0.40000000000E+01  0.51100000000E-03 0. -1.
    9000002   -1    0    0    0    0 -0.00000000000E+00 -0.00000000000E+00  0.00000000000E+00  0.93800000000E+00  0.93800000000E+00 0. -1.
         11    1    1    2    0    0  0.13197820619E-01  0.56712206438E-02  0.22073392738E+00  0.22120143090E+00  0.51100000000E-03 0. -1.
    9000002    1    1    2    0    0 -0.23996606068E+00 -0.58887131685E-01  0.40561734204E-01  0.97084533209E+00  0.93800000000E+00 0. -1.
         22    1    1    2    0    0  0.22676824006E+00  0.53215911041E-01  0.37387043058E+01  0.37459532370E+01  0.00000000000E+00 0. -1.
</event>
<event>
 5    1  0.3454171E+002  0.1598395E+01  0.7818608E-02  0.3355107E+00
         11   -1    0    0    0    0  0.00000000000E+00  0.00000000000E+00  0.39999999674E+01  0.40000000000E+01  0.51100000000E-03 0.  1.
    9000002   -1    0    0    0    0 -0.00000000000E+00 -0.00000000000E+00  0.00000000000E+00  0.93800000000E+00  0.93800000000E+00 0.  1.
         11    1    1    2    0    0  0.95576630324E-02  0.59978074060E-02  0.42165888895E-01  0.43652559188E-01  0.51100000000E-03 0.  1.
    9000002    1    1    2    0    0 -0.31631286864E+00  0.47273648433E-01  0.69383302007E-01  0.99345189682E+00  0.93800000000E+00 0.  1.
         22    1    1    2    0    0  0.30675520561E+00 -0.53271455839E-01  0.38884507765E+01  0.39008955440E+01  0.00000000000E+00 0.  1.
</event>
<event>
 5    1  0.3454171E+002  0.1599671E+01  0.7818608E-02  0.3353721E+00
         11   -1    0    0    0    0  0.00000000000E+00  0.00000000000E+00  0.39999999674E+01  0.40000000000E+01  0.51100000000E-03 0. -1.
    9000002   -1    0    0    0    0 -0.00000000000E+00 -0.00000000000E+00  0.00000000000E+00  0.93800000000E+00  0.93800000000E+00 0. -1.
         11    1    1    2    0    0 -0.10718815128E+01 -0.10336305739E+00  0.15777769031E+01  0.19102340475E+01  0.51100000000E-03 0. -1.
    9000002    1    1    2    0    0  0.12880424106E+01  0.12637220879E+00  0.21009463127E+01  0.26398565483E+01  0.93800000000E+00 0. -1.
         22    1    1    2    0    0 -0.21616089777E+00 -0.23009151396E-01  0.32127675155E+00  0.38790940419E+00  0.00000000000E+00 0.  1.
</event>
<event>
 5    1  0.3454171E+002  0.1599673E+01  0.7818608E-02  0.3353719E+00
         11   -1    0    0    0    0  0.00000000000E+00  0.00000000000E+00  0.39999999674E+01  0.40000000000E+01  0.51100000000E-03 0.  1.
    9000002   -1    0    0    0    0 -0.00000000000E+00 -0.00000000000E+00  0.00000000000E+00  0.93800000000E+00  0.93800000000E+00 0.  1.
         11    1    1    2    0    0  0.31861801374E-01 -0.78608268647E-01  0.10415368717E+01  0.10449850480E+01  0.51100000000E-03 0.  1.
    9000002    1    1    2    0    0 -0.11205959851E+00  0.29600663819E+00  0.66938742770E-01  0.99222078125E+00  0.93800000000E+00 0.  1.
         22    1    1    2    0    0  0.80197797135E-01 -0.21739836954E+00  0.28915243529E+01  0.29007941707E+01  0.00000000000E+00 0.  1.
</event>
<event>
 5    1  0.3454171E+002  0.1576727E+01  0.7818608E-02  0.3379017E+00
         11   -1    0    0    0    0  0.00000000000E+00  0.00000000000E+00  0.39999999674E+01  0.40000000000E+01  0.51100000000E-03 0. -1.
    9000002   -1    0    0    0    0 -0.00000000000E+00 -0.00000000000E+00  0.00000000000E+00  0.93800000000E+00  0.93800000000E+00 0. -1.
         11    1    1    2    0    0 -0.15916443971E+00 -0.22013205055E-01  0.17529554875E+01  0.17603042641E+01  0.51100000000E-03 0. -1.
    9000002    1    1    2    0    0  0.82351223921E-01  0.34741569322E+00  0.10434158374E+00  0.10090641972E+01  0.93800000000E+00 0. -1.
         22    1    1    2    0    0  0.76813215788E-01 -0.32540248816E+00  0.21427028962E+01  0.21686315387E+01  0.00000000000E+00 0. -1.
</event>
<event>
 5    1  0.3454171E+002  0.1552216E+01  0.7818608E-02  0.3406917E+00
         11   -1    0    0    0    0  0.00000000000E+00  0.00000000000E+00  0.39999999674E+01  0.40000000000E+01  0.51100000000E-03 0. -1.
    9000002   -1    0    0    0    0 -0.00000000000E+00 -0.00000000000E+00  0.00000000000E+00  0.93800000000E+00  0.93800000000E+00 0.  1.
         11    1    1    2    0    0  0.15634762085E+00 -0.37389441105E-01  0.27970450205E+00  0.32261031979E+00  0.51100000000E-03 0. -1.
    9000002    1    1    2    0    0 -0.31362611161E+00 -0.10182602606E+00  0.11151809417E+00  0.10005049539E+01  0.93800000000E+00 0.  1.
         22    1    1    2    0    0  0.15727849075E+00  0.13921546716E+00  0.36087773711E+01  0.36148847263E+01  0.00000000000E+00 0. -1.
</event>
<event>
 5    1  0.3454171E+002  0.1598673E+01  0.7818608E-02  0.3354805E+00
         11   -1    0    0    0    0  0.00000000000E+00  0.00000000000E+00  0.39999999674E+01  0.40000000000E+01  0.51100000000E-03 0. -1.
    9000002   -1    0    0    0    0 -0.00000000000E+00 -0.00000000000E+00  0.00000000000E+00  0.93800000000E+00  0.93800000000E+00 0.  1.
         11    1    1    2    0    0 -0.50502289528E-01  0.57228200175E-01  0.86521197061E+00  0.86857214056E+00  0.51100000000E-03 0. -1.
    9000002    1    1    2    0    0  0.23297725825E+00 -0.39710043009E+00  0.14506359951E+00  0.10549192397E+01  0.93800000000E+00 0.  1.
         22    1    1    2    0    0 -0.18247496872E+00  0.33987222991E+00  0.29897243972E+01  0.30145086197E+01  0.00000000000E+00 0. -1.
</event>
<event>
 5    1  0.3454171E+002  0.1599320E+01  0.7818608E-02  0.3354102E+00
         11   -1    0    0    0    0  0.00000000000E+00  0.00000000000E+00  0.39999999674E+01  0.40000000000E+01  0.51100000000E-03 0.  1.
    9000002   -1    0    0    0    0 -0.00000000000E+00 -0.00000000000E+00  0.00000000000E+00  0.93800000000E+00  0.93800000000E+00 0.  1.
         11    1    1    2    0    0 -0.46991178829E-01  0.63912123564E-01  0.81124162774E+00  0.81511113974E+00  0.51100000000E-03 0.  1.
    9000002    1    1    2    0    0  0.13867974014E+00 -0.32034584600E+00  0.81983223973E-01  0.10042005678E+01  0.93800000000E+00 0.  1.
         22    1    1    2    0    0 -0.91688561312E-01  0.25643372244E+00  0.31067751156E+01  0.31186882924E+01  0.00000000000E+00 0.  1.
</event>
<event>
 5    1  0.3454171E+002  0.1555319E+01  0.7818608E-02  0.3403334E+00
         11   -1    0    0    0    0  0.00000000000E+00  0.00000000000E+00  0.39999999674E+01  0.40000000000E+01  0.51100000000E-03 0.  1.
    9000002   -1    0    0    0    0 -0.00000000000E+00 -0.00000000000E+00  0.00000000000E+00  0.93800000000E+00  0.93800000000E+00 0.  1.
         11    1    1    2    0    0  0.18274322009E+00 -0.79872350054E-01  0.22094466997E+01  0.22184295474E+01  0.51100000000E-03 0.  1.
    9000002    1    1    2    0    0  0.12268452803E+00  0.11617175164E+00  0.52531165759E-01  0.95454224248E+00  0.93800000000E+00 0.  1.
         22    1    1    2    0    0 -0.30542774812E+00 -0.36299401583E-01  0.17380221019E+01  0.17650282101E+01  0.00000000000E+00 0.  1.
</event>
<event>
 5    1  0.3454171E+002  0.1586999E+01  0.7818608E-02  0.3367596E+00
         11   -1    0    0    0    0  0.00000000000E+00  0.00000000000E+00  0.39999999674E+01  0.40000000000E+01  0.51100000000E-03 0.  1.
    9000002   -1    0    0    0    0 -0.00000000000E+00 -0.00000000000E+00  0.00000000000E+00  0.93800000000E+00  0.93800000000E+00 0. -1.
         11    1    1    2    0    0  0.33155139539E-01  0.59007661008E-01  0.29995519713E+00  0.30749723371E+00  0.51100000000E-03 0.  1.
    9000002    1    1    2    0    0  0.21049090424E+00 -0.83815180551E-01  0.43698049041E-01  0.96596321087E+00  0.93800000000E+00 0. -1.
         22    1    1    2    0    0 -0.24364604378E+00  0.24807519543E-01  0.36563467212E+01  0.36645395554E+01  0.00000000000E+00 0.  1.
</event>
<event>
 5    1  0.3454171E+002  0.1520060E+01  0.7818608E-02  0.3444976E+00
         11   -1    0    0    0    0  0.00000000000E+00  0.00000000000E+00  0.39999999674E+01  0.40000000000E+01  0.51100000000E-03 0.  1.
    9000002   -1    0    0    0    0 -0.00000000000E+00 -0.00000000000E+00  0.00000000000E+00  0.93800000000E+00  0.93800000000E+00 0.  1.
         11    1    1    2    0    0 -0.22060385171E+00 -0.33459108550E+00  0.27412624075E+01  0.27704037796E+01  0.51100000000E-03 0.  1.
    9000002    1    1    2    0    0  0.23271866147E+00  0.41413137619E-01  0.10022674338E+00  0.97250317400E+00  0.93800000000E+00 0.  1.
         22    1    1    2    0    0 -0.12114809755E-01  0.29317794788E+00  0.11585108165E+01  0.11950930464E+01  0.00000000000E+00 0. -1.
</event>
<event>
 5    1  0.3828728E+002  0.1574470E+01  0.7818608E-02  0.3381548E+00
         11   -1    0    0    0    0  0.00000000000E+00  0.00000000000E+00  0.39999999674E+01  0.40000000000E+01  0.51100000000E-03 0.  1.
    9000002   -1    0    0    0    0 -0.00000000000E+00 -0.00000000000E+00  0.00000000000E+00  0.93800000000E+00  0.93800000000E+00 0.  1.
         11    1    1    2    0    0  0.16251898918E+00  0.30926669601E-01  0.19902816597E+01  0.19971455197E+01  0.51100000000E-03 0.  1.
    9000002    1    1    2    0    0  0.35230667241E-01  0.65340073688E-01  0.22190153976E-01  0.94119441566E+00  0.93800000000E+00 0.  1.
         22    1    1    2    0    0 -0.19774965642E+00 -0.96266743289E-01  0.19875281537E+01  0.19996600647E+01  0.00000000000E+00 0.  1.
</event>
<event>
 5    1  0.3454171E+002  0.1554474E+01  0.7818608E-02  0.3404308E+00
         11   -1    0    0    0    0  0.00000000000E+00  0.00000000000E+00  0.39999999674E+01  0.40000000000E+01  0.51100000000E-03 0. -1.
    9000002   -1    0    0    0    0 -0.00000000000E+00 -0.00000000000E+00  0.00000000000E+00  0.93800000000E+00  0.93800000000E+00 0. -1.
         11    1    1    2    0    0  0.33004657878E+00  0.19888141702E+00  0.30343005102E+01  0.30586703662E+01  0.51100000000E-03 0. -1.
    9000002    1    1    2    0    0 -0.60504429195E+00 -0.33365107263E+00  0.39232359083E+00  0.12292938759E+01  0.93800000000E+00 0. -1.
         22    1    1    2    0    0  0.27499771316E+00  0.13476965562E+00  0.57337586636E+00  0.65003575782E+00  0.00000000000E+00 0. -1.
</event>
<event>
 5    1  0.3454171E+002  0.1599676E+01  0.7818608E-02  0.3353715E+00
         11   -1    0    0    0    0  0.00000000000E+00  0.00000000000E+00  0.39999999674E+01  0.40000000000E+01  0.51100000000E-03 0. -1.
    9000002   -1    0    0    0    0 -0.00000000000E+00 -0.00000000000E+00  0.00000000000E+00  0.93800000000E+00  0.93800000000E+00 0. -1.
         11    1    1    2    0    0  0.11352183887E-01  0.18373990196E+00  0.14031073036E+01  0.14151323578E+01  0.51100000000E-03 0. -1.
    9000002    1    1    2    0    0 -0.32794304226E-01 -0.49909543852E+00  0.17126227965E+00  0.10767295350E+01  0.93800000000E+00 0. -1.
         22    1    1    2    0    0  0.21442120338E-01  0.31535553656E+00  0.24256303841E+01  0.24461381072E+01  0.00000000000E+00 0. -1.
</event>
<event>
 5    1  0.3454171E+002  0.1599427E+01  0.7818608E-02  0.3353986E+00
         11   -1    0    0    0    0  0.00000000000E+00  0.00000000000E+00  0.39999999674E+01  0.40000000000E+01  0.51100000000E-03 0. -1.
    9000002   -1    0    0    0    0 -0.00000000000E+00 -0.00000000000E+00  0.00000000000E+00  0.93800000000E+00  0.93800000000E+00 0.  1.
         11    1    1    2    0    0  0.15943559583E+00 -0.52772119534E-01  0.79731687189E+00  0.81481228583E+00  0.51100000000E-03 0. -1.
    9000002    1    1    2    0    0 -0.66414050509E+00  0.27846266740E+00  0.37299782825E+00  0.12399981643E+01  0.93800000000E+00 0.  1.
         22    1    1    2    0    0  0.50470490926E+00 -0.22569054787E+00  0.28296852672E+01  0.28831895498E+01  0.00000000000E+00 0. -1.
</event>
<event>
 5    1  0.3454171E+002  0.1565291E+01  0.7818608E-02  0.3391919E+00
         11   -1    0    0    0    0  0.00000000000E+00  0.00000000000E+00  0.39999999674E+01  0.40000000000E+01  0.51100000000E-03 0.  1.
    9000002   -1    0    0    0    0 -0.00000000000E+00 -0.00000000000E+00  0.00000000000E+00  0.93800000000E+00  0.93800000000E+00 0. -1.
         11    1    1    2    0    0 -0.10177764320E+00  0.37170443873E-01  0.26554974739E+00  0.28680526497E+00  0.51100000000E-03 0.  1.
    9000002    1    1    2    0    0 -0.21605762433E-01  0.14140605088E+00  0.39282569614E-01  0.94965762276E+00  0.93800000000E+00 0. -1.
         22    1    1    2    0    0  0.12338340563E+00 -0.17857649476E+00  0.36951676504E+01  0.37015371123E+01  0.00000000000E+00 0.  1.
</event>
<event>
 5    1  0.3454171E+002  0.1599555E+01  0.7818608E-02  0.3353847E+00
         11   -1    0    0    0    0  0.00000000000E+00  0.00000000000E+00  0.39999999674E+01  0.40000000000E+01  0.51100000000E-03 0. -1.
    9000002   -1    0    0    0    0 -0.00000000000E+00 -0.00000000000E+00  0.00000000000E+00  0.93800000000E+00  0.93800000000E+00 0.  1.
         11    1    1    2    0    0 -0.20668784274E-01  0.51234056905E-02  0.29715788844E+00  0.29792032444E+00  0.51100000000E-03 0. -1.
    9000002    1    1    2    0    0  0.21025327178E+00 -0.13499118253E+00  0.41563935071E-01  0.97159694234E+00  0.93800000000E+00 0.  1.
         22    1    1    2    0    0 -0.18958448751E+00  0.12986777684E+00  0.36612781438E+01  0.36684827332E+01  0.00000000000E+00 0. -1.
</event>
<event>
 5    1  0.3454171E+002  0.1599674E+01  0.7818608E-02  0.3353717E+00
         11   -1    0    0    0    0  0.00000000000E+00  0.00000000000E+00  0.39999999674E+01  0.40000000000E+01  0.51100000000E-03 0. -1.
    9000002   -1    0    0    0    0 -0.00000000000E+00 -0.00000000000E+00  0.00000000000E+00  0.93800000000E+00  0.93800000000E+00 0. -1.
         11    1    1    2    0    0 -0.97316750153E-01 -0.72713821490E-01  0.96017677889E+00  0.96783136833E+00  0.51100000000E-03 0. -1.
    9000002    1    1    2    0    0  0.39554363537E+00  0.29302274942E+00  0.16566909877E+00  0.10721974396E+01  0.93800000000E+00 0. -1.
         22    1    1    2    0    0 -0.29822688522E+00 -0.22030892793E+00  0.28741540897E+01  0.28979711921E+01  0.00000000000E+00 0. -1.
</event>
<event>
 5    1  0.3454171E+002  0.1599370E+01  0.7818608E-02  0.3354048E+00
         11   -1    0    0    0    0  0.00000000000E+00  0.00000000000E+00  0.39999999674E+01  0.40000000000E+01  0.51100000000E-03 0.  1.
    9000002   -1    0    0    0    0 -0.00000000000E+00 -0.00000000000E+00  0.00000000000E+00  0.93800000000E+00  0.93800000000E+00 0. -1.
         11    1    1    2    0    0  0.18631593720E-01 -0.11540939656E-01  0.27025185668E+00  0.27113955214E+00  0.51100000000E-03 0.  1.
    9000002    1    1    2    0    0 -0.12148130282E+00  0.20505133546E+00  0.37934929650E-01  0.96854881962E+00  0.93800000000E+00 0. -1.
         22    1    1    2    0    0  0.10284970910E+00 -0.19351039580E+00  0.36918131810E+01  0.36983116282E+01  0.00000000000E+00 0.  1.
</event>
<event>
 5    1  0.3454171E+002  0.1599675E+01  0.7818608E-02  0.3353716E+00
         11   -1    0    0    0    0  0.00000000000E+00  0.00000000000E+00  0.39999999674E+01  0.40000000000E+01  0.51100000000E-03 0. -1.
    9000002   -1    0    0    0    0 -0.00000000000E+00 -0.00000000000E+00  0.00000000000E+00  0.93800000000E+00  0.93800000000E+00 0.  1.
         11    1    1    2    0    0  0.29359857540E-01 -0.38675856761E-01  0.71634348619E+00  0.71798751692E+00  0.51100000000E-03 0. -1.
    9000002    1    1    2    0    0 -0.16695552099E+00  0.20879755158E+00  0.47544043959E-01  0.97651164850E+00  0.93800000000E+00 0.  1.
         22    1    1    2    0    0  0.13759566345E+00 -0.17012169482E+00  0.32361124372E+01  0.32435008346E+01  0.00000000000E+00 0. -1.
</event>
<event>
 5    1  0.3454171E+002  0.1599676E+01  0.7818608E-02  0.3353716E+00
         11   -1    0    0    0    0  0.00000000000E+00  0.00000000000E+00  0.39999999674E+01  0.40000000000E+01  0.51100000000E-03 0.  1.
    9000002   -1    0    0    0    0 -0.00000000000E+00 -0.00000000000E+00  0.00000000000E+00  0.93800000000E+00  0.93800000000E+00 0. -1.
         11    1    1    2    0    0 -0.15405846108E-01 -0.33853786040E+00  0.21323191272E+01  0.21590809027E+01  0.51100000000E-03 0.  1.
    9000002    1    1    2    0    0  0.24675976027E-01  0.59489887397E+00  0.24710395092E+00  0.11381642837E+01  0.93800000000E+00 0. -1.
         22    1    1    2    0    0 -0.92701299188E-02 -0.25636101357E+00  0.16205768892E+01  0.16407548136E+01  0.00000000000E+00 0.  1.
</event>
<event>
 5    1  0.3454171E+002  0.1599610E+01  0.7818608E-02  0.3353787E+00
         11   -1    0    0    0    0  0.00000000000E+00  0.00000000000E+00  0.39999999674E+01  0.40000000000E+01  0.51100000000E-03 0. -1.
    9000002   -1    0    0    0    0 -0.00000000000E+00 -0.00000000000E+00  0.00000000000E+00  0.93800000000E+00  0.93800000000E+00 0.  1.
         11    1    1    2    0    0 -0.91603016118E-01  0.50958557787E+00  0.23602949547E+01  0.24164149288E+01  0.51100000000E-03 0. -1.
    9000002    1    1    2    0    0  0.12622258507E+00 -0.77422360313E+00  0.45102658018E+00  0.13033124355E+01  0.93800000000E+00 0.  1.
         22    1    1    2    0    0 -0.34619568950E-01  0.26463802526E+00  0.11886784325E+01  0.12182726357E+01  0.00000000000E+00 0. -1.
</event>
<event>
 5    1  0.3454171E+002  0.1599676E+01  0.7818608E-02  0.3353715E+00
         11   -1    0    0    0    0  0.00000000000E+00  0.00000000000E+00  0.39999999674E+01  0.40000000000E+01  0.51100000000E-03 0. -1.
    9000002   -1    0    0    0    0 -0.00000000000E+00 -0.00000000000E+00  0.00000000000E+00  0.93800000000E+00  0.93800000000E+00 0. -1.
         11    1    1    2    0    0 -0.25084390972E-01  0.27269496279E+00  0.20544540857E+01  0.20726248143E+01  0.51100000000E-03 0. -1.
    9000002    1    1    2    0    0  0.48525136161E-01 -0.50688638342E+00  0.17777582702E+00  0.10820058869E+01  0.93800000000E+00 0. -1.
         22    1    1    2    0    0 -0.23440745189E-01  0.23419142063E+00  0.17677700546E+01  0.17833692989E+01  0.00000000000E+00 0.  1.
</event>
<event>
 5    1  0.3454171E+002  0.1599660E+01  0.7818608E-02  0.3353733E+00
         11   -1    0    0    0    0  0.00000000000E+00  0.00000000000E+00  0.39999999674E+01  0.40000000000E+01  0.51100000000E-03 0.  1.
    9000002   -1    0    0    0    0 -0.00000000000E+00 -0.00000000000E+00  0.00000000000E+00  0.93800000000E+00  0.93800000000E+00 0.  1.
         11    1    1    2    0    0 -0.12307435220E-02  0.26393271051E-02  0.70357900934E-01  0.70419998026E-01  0.51100000000E-03 0.  1.
    9000002    1    1    2    0    0  0.13750330937E+00 -0.15961471304E+00  0.29415446466E-01  0.96181769853E+00  0.93800000000E+00 0.  1.
         22    1    1    2    0    0 -0.13627256585E+00  0.15697538594E+00  0.39002266200E+01  0.39057623034E+01  0.00000000000E+00 0.  1.
</event>
<event>
 5    1  0.3454171E+002  0.1599158E+01  0.7818608E-02  0.3354278E+00
         11   -1    0    0    0    0  0.00000000000E+00  0.00000000000E+00  0.39999999674E+01  0.40000000000E+01  0.51100000000E-03 0.  1.
    9000002   -1    0    0    0    0 -0.00000000000E+00 -0.00000000000E+00  0.00000000000E+00  0.93800000000E+00  0.93800000000E+00 0. -1.
         11    1    1    2    0    0 -0.17907358278E-01  0.12950087369E-01  0.22397600794E+00  0.22506419417E+00  0.51100000000E-03 0.  1.
    9000002    1    1    2    0    0  0.28259565021E+00 -0.71298156854E-02  0.53629138018E-01  0.98113771726E+00  0.93800000000E+00 0. -1.
         22    1    1    2    0    0 -0.26468829193E+00 -0.58202716834E-02  0.37223948214E+01  0.37317980886E+01  0.00000000000E+00 0.  1.
</event>
<event>
 5    1  0.3454171E+002  0.1599669E+01  0.7818608E-02  0.3353723E+00
         11   -1    0    0    0    0  0.00000000000E+00  0.00000000000E+00  0.39999999674E+01  0.40000000000E+01  0.51100000000E-03 0.  1.
    9000002   -1    0    0    0    0 -0.00000000000E+00 -0.00000000000E+00  0.00000000000E+00  0.93800000000E+00  0.93800000000E+00 0.  1.
         11    1    1    2    0    0  0.94260437169E-01  0.12939191736E+00  0.12170077861E+01  0.12274915522E+01  0.51100000000E-03 0.  1.
    9000002    1    1    2    0    0 -0.29836583228E+00 -0.39751849070E+00  0.16903808704E+00  0.10749237160E+01  0.93800000000E+00 0.  1.
         22    1    1    2    0    0  0.20410539511E+00  0.26812657334E+00  0.26139540943E+01  0.26355847318E+01  0.00000000000E+00 0.  1.
</event>
<event>
 5    1  0.3454171E+002  0.1599662E+01  0.7818608E-02  0.3353730E+00
         11   -1    0    0    0    0  0.00000000000E+00  0.00000000000E+00  0.39999999674E+01  0.40000000000E+01  0.51100000000E-03 0.  1.
    9000002   -1    0    0    0    0 -0.00000000000E+00 -0.00000000000E+00  0.00000000000E+00  0.93800000000E+00  0.93800000000E+00 0.  1.
         11    1    1    2    0    0 -0.54696545928E-01 -0.10044309371E+00  0.12053537453E+01  0.12107677067E+01  0.51100000000E-03 0.  1.
    9000002    1    1    2    0    0  0.16531701940E+00  0.33276329453E+00  0.92811793652E-01  0.10131728165E+01  0.93800000000E+00 0.  1.
         22    1    1    2    0    0 -0.11062047347E+00 -0.23232020082E+00  0.27018344284E+01  0.27140594768E+01  0.00000000000E+00 0.  1.
</event>
<event>
 5    1  0.3454171E+002  0.1599656E+01  0.7818608E-02  0.3353737E+00
         11   -1    0    0    0    0  0.00000000000E+00  0.00000000000E+00  0.39999999674E+01  0.40000000000E+01  0.51100000000E-03 0.  1.
    9000002   -1    0    0    0    0 -0.00000000000E+00 -0.00000000000E+00  0.00000000000E+00  0.93800000000E+00  0.93800000000E+00 0. -1.
         11    1    1    2    0    0 -0.16763322704E-01 -0.73381027910E-01  0.11501512809E+01  0.11526118229E+01  0.51100000000E-03 0.  1.
    9000002    1    1    2    0    0  0.62070367864E-01  0.26852126658E+00  0.50577588870E-01  0.97895786103E+00  0.93800000000E+00 0. -1.
         22    1    1    2    0    0 -0.45307045161E-01 -0.19514023867E+00  0.27992710976E+01  0.28064303160E+01  0.00000000000E+00 0.  1.
</event>
<event>
 5    1  0.3454171E+002  0.1599417E+01  0.7818608E-02  0.3353996E+00
         11   -1    0    0    0    0  0.00000000000E+00  0.00000000000E+00  0.39999999674E+01  0.40000000000E+01  0.51100000000E-03 0. -1.
    9000002   -1    0    0    0    0 -0.00000000000E+00 -0.00000000000E+00  0.00000000000E+00  0.93800000000E+00  0.93800000000E+00 0.  1.
         11    1    1    2    0    0  0.37060887124E-01  0.85108205006E-01  0.11934707594E+01  0.11970754490E+01  0.51100000000E-03 0. -1.
    9000002    1    1    2    0    0 -0.16317510951E+00 -0.32044153120E+00  0.87006519493E-01  0.10083268447E+01  0.93800000000E+00 0.  1.
         22    1    1    2    0    0  0.12611422239E+00  0.23533332619E+00  0.27195226885E+01  0.27325977063E+01  0.00000000000E+00 0. -1.
</event>
<event>
 5    1  0.3454171E+002  0.1541747E+01  0.7818608E-02  0.3419122E+00
         11   -1    0    0    0    0  0.00000000000E+00  0.00000000000E+00  0.39999999674E+01  0.40000000000E+01  0.51100000000E-03 0.  1.
    9000002   -1    0    0    0    0 -0.00000000000E+00 -0.00000000000E+00  0.00000000000E+00  0.93800000000E+00  0.93800000000E+00 0. -1.
         11    1    1    2    0    0  0.28588557527E+00  0.95995239836E-01  0.32646438713E+01  0.32785432002E+01  0.51100000000E-03 0.  1.
    9000002    1    1    2    0    0 -0.44901004765E+00  0.10025958811E+00  0.19628365601E+00  0.10630302355E+01  0.93800000000E+00 0. -1.
         22    1    1    2    0    0  0.16312447239E+00 -0.19625482795E+00  0.53907244004E+00  0.59642656429E+00  0.00000000000E+00 0. -1.
</event>
<event>
 5    1  0.3454171E+002  0.1599675E+01  0.7818608E-02  0.3353716E+00
         11   -1    0    0    0    0  0.00000000000E+00  0.00000000000E+00  0.39999999674E+01  0.40000000000E+01  0.51100000000E-03 0. -1.
    9000002   -1    0    0    0    0 -0.00000000000E+00 -0.00000000000E+00  0.00000000000E+00  0.93800000000E+00  0.93800000000E+00 0.  1.
         11    1    1    2    0    0 -0.35183841305E+00 -0.12583613536E+00  0.24083078720E+01  0.24371237287E+01  0.51100000000E-03 0. -1.
    9000002    1    1    2    0    0  0.54802777422E+00  0.19554250684E+00  0.23532775836E+00  0.11286250339E+01  0.93800000000E+00 0.  1.
         22    1    1    2    0    0 -0.19618936117E+00 -0.69706371476E-01  0.13563643370E+01  0.13722512374E+01  0.00000000000E+00 0.  1.
</event>
<event>
 5    1  0.3454171E+002  0.1599563E+01  0.7818608E-02  0.3353837E+00
         11   -1    0    0    0    0  0.00000000000E+00  0.00000000000E+00  0.39999999674E+01  0.40000000000E+01  0.51100000000E-03 0.  1.
    9000002   -1    0    0    0    0 -0.00000000000E+00 -0.00000000000E+00  0.00000000000E+00  0.93800000000E+00  0.93800000000E+00 0. -1.
         11    1    1    2    0    0  0.50439000714E-02  0.14207800034E-01  0.16232004792E+00  0.16301951291E+00  0.51100000000E-03 0.  1.
    9000002    1    1    2    0    0 -0.22472215292E+00 -0.40053966781E+00  0.14355913265E+00  0.10542226027E+01  0.93800000000E+00 0. -1.
         22    1    1    2    0    0  0.21967825285E+00  0.38633186778E+00  0.36941207868E+01  0.37207578844E+01  0.00000000000E+00 0.  1.
</event>
<event>
 5    1  0.3454171E+002  0.1599645E+01  0.7818608E-02  0.3353749E+00
         11   -1    0    0    0    0  0.00000000000E+00  0.00000000000E+00  0.39999999674E+01  0.40000000000E+01  0.51100000000E-03 0.  1.
    9000002   -1    0    0    0    0 -0.00000000000E+00 -0.00000000000E+00  0.00000000000E+00  0.93800000000E+00  0.93800000000E+00 0. -1.
         11    1    1    2    0    0  0.16687139184E-01  0.20829527802E-01  0.39238676722E+00  0.39329374016E+00  0.51100000000E-03 0.  1.
    9000002    1    1    2    0    0 -0.14844644543E+00 -0.24534219266E+00  0.54814970824E-01  0.98238374360E+00  0.93800000000E+00 0. -1.
         22    1    1    2    0    0  0.13175930624E+00  0.22451266486E+00  0.35527982293E+01  0.35623225162E+01  0.00000000000E+00 0.  1.
</event>
<event>
 5    1  0.3454171E+002  0.1598549E+01  0.7818608E-02  0.3354940E+00
         11   -1    0    0    0    0  0.00000000000E+00  0.00000000000E+00  0.39999999674E+01  0.40000000000E+01  0.51100000000E-03 0. -1.
    9000002   -1    0    0    0    0 -0.00000000000E+00 -0.00000000000E+00  0.00000000000E+00  0.93800000000E+00  0.93800000000E+00 0.  1.
         11    1    1    2    0    0 -0.15056582161E+00  0.66022986596E-01  0.12204359866E+01  0.12314598491E+01  0.51100000000E-03 0. -1.
    9000002    1    1    2    0    0  0.38410394211E+00 -0.13720935527E+00  0.11327382415E+00  0.10290953332E+01  0.93800000000E+00 0.  1.
         22    1    1    2    0    0 -0.23353812050E+00  0.71186368670E-01  0.26662901566E+01  0.26774448178E+01  0.00000000000E+00 0. -1.
</event>
<event>
 5    1  0.3454171E+002  0.1539960E+01  0.7818608E-02  0.3421223E+00
         11   -1    0    0    0    0  0.00000000000E+00  0.00000000000E+00  0.39999999674E+01  0.40000000000E+01  0.51100000000E-03 0.  1.
    9000002   -1    0    0    0    0 -0.00000000000E+00 -0.00000000000E+00  0.00000000000E+00  0.93800000000E+00  0.93800000000E+00 0. -1.
         11    1    1    2    0    0 -0.15485124973E+00  0.29292033332E+00  0.31523776710E+01  0.31697423354E+01  0.51100000000E-03 0.  1.
    9000002    1    1    2    0    0  0.40688907236E-01 -0.11341392062E+00  0.54693314456E-01  0.94728752932E+00  0.93800000000E+00 0. -1.
         22    1    1    2    0    0  0.11416234249E+00 -0.17950641269E+00  0.79292898188E+00  0.82097013523E+00  0.00000000000E+00 0.  1.
</event>
<event>
 5    1  0.3454171E+002  0.1584773E+01  0.7818608E-02  0.3370058E+00
         11   -1    0    0    0    0  0.00000000000E+00  0.00000000000E+00  0.39999999674E+01  0.40000000000E+01  0.51100000000E-03 0. -1.
    9000002   -1    0    0    0    0 -0.00000000000E+00 -0.00000000000E+00  0.00000000000E+00  0.93800000000E+00  0.93800000000E+00 0.  1.
         11    1    1    2    0    0 -0.35890574834E-01  0.33280587078E-02  0.48389928427E-01  0.60341160338E-01  0.51100000000E-03 0. -1.
    9000002    1    1    2    0    0  0.16893952340E+00  0.27845507812E+00  0.82868678988E-01  0.99638798219E+00  0.93800000000E+00 0.  1.
         22    1    1    2    0    0 -0.13304894856E+00 -0.28178313683E+00  0.38687413599E+01  0.38812708575E+01  0.00000000000E+00 0. -1.
</event>
<event>
 5    1  0.3454171E+002  0.1599677E+01  0.7818608E-02  0.3353714E+00
         11   -1    0    0    0    0  0.00000000000E+00  0.00000000000E+00  0.39999999674E+01  0.40000000000E+01  0.51100000000E-03 0. -1.
    9000002   -1    0    0    0    0 -0.00000000000E+00 -0.00000000000E+00  0.00000000000E+00  0.93800000000E+00  0.93800000000E+00 0.  1.
         11    1    1    2    0    0  0.62368933720E-01 -0.63329158756E-01  0.75586220905E+00  0.76107056600E+00  0.51100000000E-03 0.  1.
    9000002    1    1    2    0    0 -0.32053491538E+00  0.32251915840E+00  0.14052744438E+00  0.10518332578E+01  0.93800000000E+00 0.  1.
         22    1    1    2    0    0  0.25816598166E+00 -0.25918999964E+00  0.31036103139E+01  0.31250961762E+01  0.00000000000E+00 0. -1.
</event>
<event>
 5    1  0.3454171E+002  0.1599364E+01  0.7818608E-02  0.3354054E+00
         11   -1    0    0    0    0  0.00000000000E+00  0.00000000000E+00  0.39999999674E+01  0.40000000000E+01  0.51100000000E-03 0. -1.
    9000002   -1    0    0    0    0 -0.00000000000E+00 -0.00000000000E+00  0.00000000000E+00  0.93800000000E+00  0.93800000000E+00 0. -1.
         11    1    1    2    0    0 -0.22645402501E-01  0.18846629005E+00  0.15075303824E+01  0.15194342604E+01  0.51100000000E-03 0. -1.
    9000002    1    1    2    0    0  0.47806580165E-02 -0.48175873463E+00  0.15869828140E+00  0.10663692970E+01  0.93800000000E+00 0. -1.
         22    1    1    2    0    0  0.17864744484E-01  0.29329244458E+00  0.23337713036E+01  0.23521964426E+01  0.00000000000E+00 0. -1.
</event>
<event>
 5    1  0.3454171E+002  0.1590612E+01  0.7818608E-02  0.3363617E+00
         11   -1    0    0    0    0  0.00000000000E+00  0.00000000000E+00  0.39999999674E+01  0.40000000000E+01  0.51100000000E-03 0.  1.
    9000002   -1    0    0    0    0 -0.00000000000E+00 -0.00000000000E+00  0.00000000000E+00  0.93800000000E+00  0.93800000000E+00 0.  1.
         11    1    1    2    0    0  0.42502870406E-01  0.21219101970E-01  0.10238949660E+01  0.10249965399E+01  0.51100000000E-03 0.  1.
    9000002    1    1    2    0    0  0.13049296248E+00  0.17031523482E+00  0.37364988882E-01  0.96295162644E+00  0.93800000000E+00 0.  1.
         22    1    1    2    0    0 -0.17299583288E+00 -0.19153433679E+00  0.29387400125E+01  0.29500518337E+01  0.00000000000E+00 0.  1.
</event>
<event>
 5    1  0.3454171E+002  0.1598455E+01  0.7818608E-02  0.3355042E+00
         11   -1    0    0    0    0  0.00000000000E+00  0.00000000000E+00  0.39999999674E+01  0.40000000000E+01  0.51100000000E-03 0.  1.
    9000002   -1    0    0    0    0 -0.00000000000E+00 -0.00000000000E+00  0.00000000000E+00  0.93800000000E+00  0.93800000000E+00 0. -1.
         11    1    1    2    0    0 -0.93335966046E-01  0.23764611548E+00  0.18030381885E+01  0.18210256037E+01  0.51100000000E-03 0.  1.
    9000002    1    1    2    0    0  0.19548649812E+00 -0.41780461473E+00  0.14582360301E+00  0.10554071206E+01  0.93800000000E+00 0. -1.
         22    1    1    2    0    0 -0.10215053208E+00  0.18015849925E+00  0.20511381758E+01  0.20615672757E+01  0.00000000000E+00 0.  1.
</event>
<event>
 5    1  0.3454171E+002  0.1599675E+01  0.7818608E-02  0.3353716E+00
         11   -1    0    0    0    0  0.00000000000E+00  0.00000000000E+00  0.39999999674E+01  0.40000000000E+01  0.51100000000E-03 0. -1.
    9000002   -1    0    0    0    0 -0.00000000000E+00 -0.00000000000E+00  0.00000000000E+00  0.93800000000E+00  0.93800000000E+00 0. -1.
         11    1    1    2    0    0  0.28921007154E-01  0.18519088163E+00  0.17363560643E+01  0.17464434518E+01  0.51100000000E-03 0. -1.
    9000002    1    1    2    0    0 -0.60911582003E-01 -0.41261588014E+00  0.11760685665E+00  0.10332654345E+01  0.93800000000E+00 0. -1.
         22    1    1    2    0    0  0.31990574849E-01  0.22742499851E+00  0.21460370464E+01  0.21582911137E+01  0.00000000000E+00 0. -1.
</event>
<event>
 5    1  0.3454171E+002  0.1599245E+01  0.7818608E-02  0.3354184E+00
         11   -1    0    0    0    0  0.00000000000E+00  0.00000000000E+00  0.39999999674E+01  0.40000000000E+01  0.51100000000E-03 0.  1.
    9000002   -1    0    0    0    0 -0.00000000000E+00 -0.00000000000E+00  0.00000000000E+00  0.93800000000E+00  0.93800000000E+00 0.  1.
         11    1    1    2    0    0  0.65372509222E-02  0.40868063871E-02  0.10471905364E+00  0.10500370923E+00  0.51100000000E-03 0.  1.
    9000002    1    1    2    0    0 -0.68751771637E-01 -0.39670372557E+00  0.10973740186E+00  0.10266386654E+01  0.93800000000E+00 0.  1.
         22    1    1    2    0    0  0.62214520715E-01  0.39261691918E+00  0.37855435119E+01  0.38063576253E+01  0.00000000000E+00 0.  1.
</event>
<event>
 5    1  0.3454171E+002  0.1595361E+01  0.7818608E-02  0.3358414E+00
         11   -1    0    0    0    0  0.00000000000E+00  0.00000000000E+00  0.39999999674E+01  0.40000000000E+01  0.51100000000E-03 0. -1.
    9000002   -1    0    0    0    0 -0.00000000000E+00 -0.00000000000E+00  0.00000000000E+00  0.93800000000E+00  0.93800000000E+00 0.  1.
         11    1    1    2    0    0 -0.16228635171E+00 -0.29947543888E+00  0.23456874049E+01  0.23702894467E+01  0.51100000000E-03 0. -1.
    9000002    1    1    2    0    0  0.34637206559E+00  0.39285618448E+00  0.19253588211E+00  0.10914319289E+01  0.93800000000E+00 0.  1.
         22    1    1    2    0    0 -0.18408571388E+00 -0.93380745600E-01  0.14617766803E+01  0.14762786244E+01  0.00000000000E+00 0. -1.
</event>
<event>
 5    1  0.3454171E+002  0.1582289E+01  0.7818608E-02  0.3372814E+00
         11   -1    0    0    0    0  0.00000000000E+00  0.00000000000E+00  0.39999999674E+01  0.40000000000E+01  0.51100000000E-03 0.  1.
    9000002   -1    0    0    0    0 -0.00000000000E+00 -0.00000000000E+00  0.00000000000E+00  0.93800000000E+00  0.93800000000E+00 0.  1.
         11    1    1    2    0    0 -0.69133008104E-01 -0.94541302846E-01  0.10606839118E+01  0.10671307570E+01  0.51100000000E-03 0.  1.
    9000002    1    1    2    0    0  0.92651480291E-01 -0.14484391140E+00  0.32567076696E-01  0.95418481960E+00  0.93800000000E+00 0.  1.
         22    1    1    2    0    0 -0.23518472187E-01  0.23938521424E+00  0.29067489789E+01  0.29166844234E+01  0.00000000000E+00 0.  1.
</event>
<event>
 5    1  0.3454171E+002  0.1599634E+01  0.7818608E-02  0.3353760E+00
         11   -1    0    0    0    0  0.00000000000E+00  0.00000000000E+00  0.39999999674E+01  0.40000000000E+01  0.51100000000E-03 0. -1.
    9000002   -1    0    0    0    0 -0.00000000000E+00 -0.00000000000E+00  0.00000000000E+00  0.93800000000E+00  0.93800000000E+00 0. -1.
         11    1    1    2    0    0 -0.13651642403E+00 -0.95737725581E-01  0.14830443081E+01  0.14923883969E+01  0.51100000000E-03 0. -1.
    9000002    1    1    2    0    0  0.37098420950E+00  0.23642150075E+00  0.13128259209E+00  0.10443196487E+01  0.93800000000E+00 0. -1.
         22    1    1    2    0    0 -0.23446778547E+00 -0.14068377516E+00  0.23856730671E+01  0.24012919544E+01  0.00000000000E+00 0. -1.
</event>
<event>
 5    1  0.3454171E+002  0.1599677E+01  0.7818608E-02  0.3353714E+00
         11   -1    0    0    0    0  0.00000000000E+00  0.00000000000E+00  0.39999999674E+01  0.40000000000E+01  0.51100000000E-03 0. -1.
    9000002   -1    0    0    0    0 -0.00000000000E+00 -0.00000000000E+00  0.00000000000E+00  0.93800000000E+00  0.93800000000E+00 0. -1.
         11    1    1    2    0    0 -0.37802238309E-01  0.11849286464E-01  0.64232325260E+00  0.64354396646E+00  0.51100000000E-03 0.  1.
    9000002    1    1    2    0    0  0.23246679708E+00 -0.75868506040E-01  0.39706349330E-01  0.97016361307E+00  0.93800000000E+00 0. -1.
         22    1    1    2    0    0 -0.19466455878E+00  0.64019219576E-01  0.33179703654E+01  0.33242924205E+01  0.00000000000E+00 0. -1.
</event>
<event>
 5    1  0.5549755E+002  0.1555117E+01  0.7818608E-02  0.3403566E+00
         11   -1    0    0    0    0  0.00000000000E+00  0.00000000000E+00  0.39999999674E+01  0.40000000000E+01  0.51100000000E-03 0. -1.
    9000002   -1    0    0    0    0 -0.00000000000E+00 -0.00000000000E+00  0.00000000000E+00  0.93800000000E+00  0.93800000000E+00 0. -1.
         11    1    1    2    0    0  0.25240425612E-02  0.19355755657E+00  0.32025550622E+01  0.32083999261E+01  0.51100000000E-03 0. -1.
    9000002    1    1    2    0    0  0.50772364922E-01  0.36537098726E-02  0.34752683925E-01  0.94002283572E+00  0.93800000000E+00 0. -1.
         22    1    1    2    0    0 -0.53296407483E-01 -0.19721126644E+00  0.76269222126E+00  0.78957723817E+00  0.00000000000E+00 0. -1.
</event>
<event>
 5    1  0.3454171E+002  0.1575088E+01  0.7818608E-02  0.3380854E+00
         11   -1    0    0    0    0  0.00000000000E+00  0.00000000000E+00  0.39999999674E+01  0.40000000000E+01  0.51100000000E-03 0. -1.
    9000002   -1    0    0    0    0 -0.00000000000E+00 -0.00000000000E+00  0.00000000000E+00  0.93800000000E+00  0.93800000000E+00 0. -1.
         11    1    1    2    0    0  0.13353478595E+00  0.68122498129E-01  0.20690063321E+01  0.20744299644E+01  0.51100000000E-03 0. -1.
    9000002    1    1    2    0    0  0.10508186152E+00 -0.14484803076E+00  0.39702607419E-01  0.95574235371E+00  0.93800000000E+00 0. -1.
         22    1    1    2    0    0 -0.23861664747E+00  0.76725532626E-01  0.18912910279E+01  0.19078276819E+01  0.00000000000E+00 0. -1.
</event>
<event>
 5    1  0.3454171E+002  0.1581505E+01  0.7818608E-02  0.3373685E+00
         11   -1    0    0    0    0  0.00000000000E+00  0.00000000000E+00  0.39999999674E+01  0.40000000000E+01  0.51100000000E-03 0.  1.
    9000002   -1    0    0    0    0 -0.00000000000E+00 -0.00000000000E+00  0.00000000000E+00  0.93800000000E+00  0.93800000000E+00 0.  1.
         11    1    1    2    0    0 -0.28398786941E+00 -0.27973937576E+00  0.25502400132E+01  0.25812066198E+01  0.51100000000E-03 0.  1.
    9000002    1    1    2    0    0  0.52578524290E+00  0.21613705925E+00  0.24170143107E+00  0.11231335325E+01  0.93800000000E+00 0.  1.
         22    1    1    2    0    0 -0.24179737349E+00  0.63602316516E-01  0.12080585231E+01  0.12336598477E+01  0.00000000000E+00 0.  1.
</event>
<event>
 5    1  0.3454171E+002  0.1596775E+01  0.7818608E-02  0.3356871E+00
         11   -1    0    0    0    0  0.00000000000E+00  0.00000000000E+00  0.39999999674E+01  0.40000000000E+01  0.51100000000E-03 0. -1.
    9000002   -1    0    0    0    0 -0.00000000000E+00 -0.00000000000E+00  0.00000000000E+00  0.93800000000E+00  0.93800000000E+00 0. -1.
         11    1    1    2    0    0  0.30487172081E-01 -0.13652702185E+00  0.13662868427E+01  0.13734296825E+01  0.51100000000E-03 0. -1.
    9000002    1    1    2    0    0 -0.20885933276E+00  0.50109155053E+00  0.20601213567E+00  0.11031772128E+01  0.93800000000E+00 0. -1.
         22    1    1    2    0    0  0.17837216068E+00 -0.36456452868E+00  0.24277009890E+01  0.24613931046E+01  0.00000000000E+00 0. -1.
</event>
<event>
 5    1  0.4219291E+002  0.1579246E+01  0.7818608E-02  0.3376202E+00
         11   -1    0    0    0    0  0.00000000000E+00  0.00000000000E+00  0.39999999674E+01  0.40000000000E+01  0.51100000000E-03 0. -1.
    9000002   -1    0    0    0    0 -0.00000000000E+00 -0.00000000000E+00  0.00000000000E+00  0.93800000000E+00  0.93800000000E+00 0.  1.
         11    1    1    2    0    0  0.10568796219E+00 -0.68776124603E-01  0.97574690564E+00  0.98386095850E+00  0.51100000000E-03 0. -1.
    9000002    1    1    2    0    0  0.96703105559E-01 -0.12820873260E-01  0.21332592547E-01  0.94330002911E+00  0.93800000000E+00 0.  1.
         22    1    1    2    0    0 -0.20239106775E+00  0.81596997864E-01  0.30029204692E+01  0.30108390124E+01  0.00000000000E+00 0. -1.
</event>
<event>
 5    1  0.3454171E+002  0.1599676E+01  0.7818608E-02  0.3353715E+00
         11   -1    0    0    0    0  0.00000000000E+00  0.00000000000E+00  0.39999999674E+01  0.40000000000E+01  0.51100000000E-03 0.  1.
    9000002   -1    0    0    0    0 -0.00000000000E+00 -0.00000000000E+00  0.00000000000E+00  0.93800000000E+00  0.93800000000E+00 0.  1.
         11    1    1    2    0    0  0.95901171059E-01  0.89032308605E-01  0.11238834814E+01  0.11314760835E+01  0.51100000000E-03 0.  1.
    9000002    1    1    2    0    0 -0.32764885247E+00 -0.30917911617E+00  0.13784833051E+00  0.10496626404E+01  0.93800000000E+00 0.  1.
         22    1    1    2    0    0  0.23174768141E+00  0.22014680757E+00  0.27382681554E+01  0.27568612761E+01  0.00000000000E+00 0.  1.
</event>
<event>
 5    1  0.3454171E+002  0.1599676E+01  0.7818608E-02  0.3353715E+00
         11   -1    0    0    0    0  0.00000000000E+00  0.00000000000E+00  0.39999999674E+01  0.40000000000E+01  0.51100000000E-03 0. -1.
    9000002   -1    0    0    0    0 -0.00000000000E+00 -0.00000000000E+00  0.00000000000E+00  0.93800000000E+00  0.93800000000E+00 0. -1.
         11    1    1    2    0    0  0.24381717412E+00 -0.99393583531E-01  0.20650362516E+01  0.20817542796E+01  0.51100000000E-03 0. -1.
    9000002    1    1    2    0    0 -0.45514466462E+00  0.18333574720E+00  0.16456622395E+00  0.10713051405E+01  0.93800000000E+00 0. -1.
         22    1    1    2    0    0  0.21132749050E+00 -0.83942163670E-01  0.17703974918E+01  0.17849405799E+01  0.00000000000E+00 0. -1.
</event>
<event>
 5    1  0.3454171E+002  0.1584890E+01  0.7818608E-02  0.3369929E+00
         11   -1    0    0    0    0  0.00000000000E+00  0.00000000000E+00  0.39999999674E+01  0.40000000000E+01  0.51100000000E-03 0. -1.
    9000002   -1    0    0    0    0 -0.00000000000E+00 -0.00000000000E+00  0.00000000000E+00  0.93800000000E+00  0.93800000000E+00 0.  1.
         11    1    1    2    0    0 -0.16604451306E+00  0.15165616738E+00  0.13151651231E+01  0.13342525756E+01  0.51100000000E-03 0. -1.
    9000002    1    1    2    0    0  0.79251476356E-01 -0.45351496708E+00  0.15717491355E+00  0.10566478010E+01  0.93800000000E+00 0.  1.
         22    1    1    2    0    0  0.86793036704E-01  0.30185879969E+00  0.25276599308E+01  0.25470996234E+01  0.00000000000E+00 0. -1.
</event>
<event>
 5    1  0.3454171E+002  0.1599676E+01  0.7818608E-02  0.3353715E+00
         11   -1    0    0    0    0  0.00000000000E+00  0.00000000000E+00  0.39999999674E+01  0.40000000000E+01  0.51100000000E-03 0.  1.
    9000002   -1    0    0    0    0 -0.00000000000E+00 -0.00000000000E+00  0.00000000000E+00  0.93800000000E+00  0.93800000000E+00 0.  1.
         11    1    1    2    0    0  0.95251978640E-02  0.11717276983E+00  0.10153202243E+01  0.10221035204E+01  0.51100000000E-03 0.  1.
    9000002    1    1    2    0    0 -0.37805068543E-01 -0.44818189776E+00  0.13739230424E+00  0.10492935156E+01  0.93800000000E+00 0.  1.
         22    1    1    2    0    0  0.28279870679E-01  0.33100912793E+00  0.28472874388E+01  0.28666029640E+01  0.00000000000E+00 0.  1.
</event>
<event>
 5    1  0.3454171E+002  0.1527947E+01  0.7818608E-02  0.3435483E+00
         11   -1    0    0    0    0  0.00000000000E+00  0.00000000000E+00  0.39999999674E+01  0.40000000000E+01  0.51100000000E-03 0. -1.
    9000002   -1    0    0    0    0 -0.00000000000E+00 -0.00000000000E+00  0.00000000000E+00  0.93800000000E+00  0.93800000000E+00 0.  1.
         11    1    1    2    0    0  0.58828010741E-01 -0.24372318893E+00  0.14910387407E+01  0.15119717309E+01  0.51100000000E-03 0. -1.
    9000002    1    1    2    0    0 -0.58879715996E-01 -0.17625909600E+00  0.78389707935E-01  0.95943891738E+00  0.93800000000E+00 0.  1.
         22    1    1    2    0    0  0.51705254761E-04  0.41998228493E+00  0.24305715188E+01  0.24665893518E+01  0.00000000000E+00 0. -1.
</event>
<event>
 5    1  0.3454171E+002  0.1599657E+01  0.7818608E-02  0.3353736E+00
         11   -1    0    0    0    0  0.00000000000E+00  0.00000000000E+00  0.39999999674E+01  0.40000000000E+01  0.51100000000E-03 0.  1.
    9000002   -1    0    0    0    0 -0.00000000000E+00 -0.00000000000E+00  0.00000000000E+00  0.93800000000E+00  0.93800000000E+00 0. -1.
         11    1    1    2    0    0 -0.42121284942E-01  0.44807115837E-01  0.49874971631E+00  0.50252703501E+00  0.51100000000E-03 0.  1.
    9000002    1    1    2    0    0  0.34420990604E+00 -0.36296582154E+00  0.17131773103E+00  0.10767629321E+01  0.93800000000E+00 0. -1.
         22    1    1    2    0    0 -0.30208862109E+00  0.31815870570E+00  0.33299325200E+01  0.33587100329E+01  0.00000000000E+00 0.  1.
</event>
<event>
 5    1  0.3454171E+002  0.1599562E+01  0.7818608E-02  0.3353839E+00
         11   -1    0    0    0    0  0.00000000000E+00  0.00000000000E+00  0.39999999674E+01  0.40000000000E+01  0.51100000000E-03 0. -1.
    9000002   -1    0    0    0    0 -0.00000000000E+00 -0.00000000000E+00  0.00000000000E+00  0.93800000000E+00  0.93800000000E+00 0.  1.
         11    1    1    2    0    0 -0.32695714879E-01 -0.63810681140E-02  0.52407813293E+00  0.52513605698E+00  0.51100000000E-03 0. -1.
    9000002    1    1    2    0    0  0.29152024496E+00  0.42877913248E-03  0.56739383039E-01  0.98389409728E+00  0.93800000000E+00 0.  1.
         22    1    1    2    0    0 -0.25882453008E+00  0.59522889815E-02  0.34191824514E+01  0.34289698457E+01  0.00000000000E+00 0. -1.
</event>
<event>
 5    1  0.3454171E+002  0.1599676E+01  0.7818608E-02  0.3353715E+00
         11   -1    0    0    0    0  0.00000000000E+00  0.00000000000E+00  0.39999999674E+01  0.40000000000E+01  0.51100000000E-03 0.  1.
    9000002   -1    0    0    0    0 -0.00000000000E+00 -0.00000000000E+00  0.00000000000E+00  0.93800000000E+00  0.93800000000E+00 0. -1.
         11    1    1    2    0    0 -0.22409142988E+00  0.61192994322E-01  0.17647928461E+01  0.17800156186E+01  0.51100000000E-03 0.  1.
    9000002    1    1    2    0    0  0.48464416903E+00 -0.13082907711E+00  0.17256409290E+00  0.10777841083E+01  0.93800000000E+00 0. -1.
         22    1    1    2    0    0 -0.26055273915E+00  0.69636082791E-01  0.20626430283E+01  0.20802002731E+01  0.00000000000E+00 0.  1.
</event>
<event>
 5    1  0.3454171E+002  0.1594291E+01  0.7818608E-02  0.3359584E+00
         11   -1    0    0    0    0  0.00000000000E+00  0.00000000000E+00  0.39999999674E+01  0.40000000000E+01  0.51100000000E-03 0.  1.
    9000002   -1    0    0    0    0 -0.00000000000E+00 -0.00000000000E+00  0.00000000000E+00  0.93800000000E+00  0.93800000000E+00 0.  1.
         11    1    1    2    0    0  0.45817320157E-01 -0.29443361897E-01  0.19191705256E+00  0.19949575076E+00  0.51100000000E-03 0.  1.
    9000002    1    1    2    0    0 -0.19249525698E+00  0.32520534348E+00  0.10049382639E+00  0.10162460079E+01  0.93800000000E+00 0.  1.
         22    1    1    2    0    0  0.14667793682E+00 -0.29576198159E+00  0.37075890884E+01  0.37222582414E+01  0.00000000000E+00 0.  1.
</event>
<event>
 5    1  0.3454171E+002  0.1599378E+01  0.7818608E-02  0.3354038E+00
         11   -1    0    0    0    0  0.00000000000E+00  0.00000000000E+00  0.39999999674E+01  0.40000000000E+01  0.51100000000E-03 0.  1.
    9000002   -1    0    0    0    0 -0.00000000000E+00 -0.00000000000E+00  0.00000000000E+00  0.93800000000E+00  0.93800000000E+00 0.  1.
         11    1    1    2    0    0 -0.68320428610E-02  0.31625931782E-02  0.78216823388E-01  0.78579968103E-01  0.51100000000E-03 0.  1.
    9000002    1    1    2    0    0  0.22250405804E+00 -0.42010475151E+00  0.15435204761E+00  0.10628568166E+01  0.93800000000E+00 0.  1.
         22    1    1    2    0    0 -0.21567201518E+00  0.41694215834E+00  0.37674310964E+01  0.37965632153E+01  0.00000000000E+00 0.  1.
</event>
<event>
 5    1  0.3454171E+002  0.1599677E+01  0.7818608E-02  0.3353714E+00
         11   -1    0    0    0    0  0.00000000000E+00  0.00000000000E+00  0.39999999674E+01  0.40000000000E+01  0.51100000000E-03 0.  1.
    9000002   -1    0    0    0    0 -0.00000000000E+00 -0.00000000000E+00  0.00000000000E+00  0.93800000000E+00  0.93800000000E+00 0.  1.
         11    1    1    2    0    0 -0.11454855089E+00  0.82521363572E-01  0.15617481203E+01  0.15681162579E+01  0.51100000000E-03 0.  1.
    9000002    1    1    2    0    0  0.28602179493E+00 -0.20833804881E+00  0.83992986759E-01  0.10060377883E+01  0.93800000000E+00 0.  1.
         22    1    1    2    0    0 -0.17147324404E+00  0.12581668523E+00  0.23542588603E+01  0.23638459538E+01  0.00000000000E+00 0. -1.
</event>
<event>
 5    1  0.3454171E+002  0.1599665E+01  0.7818608E-02  0.3353727E+00
         11   -1    0    0    0    0  0.00000000000E+00  0.00000000000E+00  0.39999999674E+01  0.40000000000E+01  0.51100000000E-03 0. -1.
    9000002   -1    0    0    0    0 -0.00000000000E+00 -0.00000000000E+00  0.00000000000E+00  0.93800000000E+00  0.93800000000E+00 0. -1.
         11    1    1    2    0    0  0.21491959936E-01 -0.58090770074E-02  0.36829093763E+00  0.36896358299E+00  0.51100000000E-03 0. -1.
    9000002    1    1    2    0    0 -0.24772164715E+00  0.81832071428E-01  0.45261145032E-01  0.97465638747E+00  0.93800000000E+00 0. -1.
         22    1    1    2    0    0  0.22622968722E+00 -0.76022994421E-01  0.35864478847E+01  0.35943800295E+01  0.00000000000E+00 0.  1.
</event>
<event>
 5    1  0.3454171E+002  0.1598943E+01  0.7818608E-02  0.3354511E+00
         11   -1    0    0    0    0  0.00000000000E+00  0.00000000000E+00  0.39999999674E+01  0.40000000000E+01  0.51100000000E-03 0.  1.
    9000002   -1    0    0    0    0 -0.00000000000E+00 -0.00000000000E+00  0.00000000000E+00  0.93800000000E+00  0.93800000000E+00 0. -1.
         11    1    1    2    0    0 -0.13715562524E-01  0.33994200455E-01  0.52625690132E+00  0.52753228302E+00  0.51100000000E-03 0.  1.
    9000002    1    1    2    0    0  0.22783543718E+00 -0.14542847498E+00  0.49176845061E-01  0.97740513087E+00  0.93800000000E+00 0. -1.
         22    1    1    2    0    0 -0.21411987465E+00  0.11143427452E+00  0.34245662210E+01  0.34330625861E+01  0.00000000000E+00 0.  1.
</event>
<event>
 5    1  0.3454171E+002  0.1599675E+01  0.7818608E-02  0.3353716E+00
         11   -1    0    0    0    0  0.00000000000E+00  0.00000000000E+00  0.39999999674E+01  0.40000000000E+01  0.51100000000E-03 0. -1.
    9000002   -1    0    0    0    0 -0.00000000000E+00 -0.00000000000E+00  0.00000000000E+00  0.93800000000E+00  0.93800000000E+00 0.  1.
         11    1    1    2    0    0 -0.23147309504E+00 -0.13395583669E+00  0.20456549896E+01  0.20630629068E+01  0.51100000000E-03 0. -1.
    9000002    1    1    2    0    0  0.43442582790E+00  0.24752590964E+00  0.17113741085E+00  0.10766275537E+01  0.93800000000E+00 0.  1.
         22    1    1    2    0    0 -0.20295273286E+00 -0.11357007294E+00  0.17832075669E+01  0.17983095395E+01  0.00000000000E+00 0. -1.
</event>
<event>
 5    1  0.3454171E+002  0.1598765E+01  0.7818608E-02  0.3354705E+00
         11   -1    0    0    0    0  0.00000000000E+00  0.00000000000E+00  0.39999999674E+01  0.40000000000E+01  0.51100000000E-03 0.  1.
    9000002   -1    0    0    0    0 -0.00000000000E+00 -0.00000000000E+00  0.00000000000E+00  0.93800000000E+00  0.93800000000E+00 0. -1.
         11    1    1    2    0    0 -0.20711868093E+00  0.58221536581E-01  0.12088899873E+01  0.12278856452E+01  0.51100000000E-03 0.  1.
    9000002    1    1    2    0    0  0.65811963503E+00 -0.76901680107E-01  0.31173111422E+00  0.11899813486E+01  0.93800000000E+00 0. -1.
         22    1    1    2    0    0 -0.45100095410E+00  0.18680143526E-01  0.24793788659E+01  0.25201330062E+01  0.00000000000E+00 0. -1.
</event>
<event>
 5    1  0.3454171E+002  0.1599436E+01  0.7818608E-02  0.3353975E+00
         11   -1    0    0    0    0  0.00000000000E+00  0.00000000000E+00  0.39999999674E+01  0.40000000000E+01  0.51100000000E-03 0. -1.
    9000002   -1    0    0    0    0 -0.00000000000E+00 -0.00000000000E+00  0.00000000000E+00  0.93800000000E+00  0.93800000000E+00 0.  1.
         11    1    1    2    0    0 -0.30696902021E-02  0.22114699545E-01  0.42306520312E+00  0.42365423419E+00  0.51100000000E-03 0. -1.
    9000002    1    1    2    0    0  0.13427150009E+00 -0.18448782966E+00  0.34713074365E-01  0.96597804973E+00  0.93800000000E+00 0.  1.
         22    1    1    2    0    0 -0.13120180989E+00  0.16237313012E+00  0.35422216899E+01  0.35483677161E+01  0.00000000000E+00 0. -1.
</event>
<event>
 5    1  0.3454171E+002  0.1599650E+01  0.7818608E-02  0.3353744E+00
         11   -1    0    0    0    0  0.00000000000E+00  0.00000000000E+00  0.39999999674E+01  0.40000000000E+01  0.51100000000E-03 0. -1.
    9000002   -1    0    0    0    0 -0.00000000000E+00 -0.00000000000E+00  0.00000000000E+00  0.93800000000E+00  0.93800000000E+00 0.  1.
         11    1    1    2    0    0  0.30538810283E-01  0.20081506452E-01  0.33991420426E+00  0.34187397270E+00  0.51100000000E-03 0. -1.
    9000002    1    1    2    0    0 -0.35538559805E+00 -0.26779238269E+00  0.13441102219E+00  0.10468629358E+01  0.93800000000E+00 0.  1.
         22    1    1    2    0    0  0.32484678777E+00  0.24771087624E+00  0.35256747409E+01  0.35492630915E+01  0.00000000000E+00 0. -1.
</event>
<event>
 5    1  0.3454171E+002  0.1557909E+01  0.7818608E-02  0.3400354E+00
         11   -1    0    0    0    0  0.00000000000E+00  0.00000000000E+00  0.39999999674E+01  0.40000000000E+01  0.51100000000E-03 0. -1.
    9000002   -1    0    0    0    0 -0.00000000000E+00 -0.00000000000E+00  0.00000000000E+00  0.93800000000E+00  0.93800000000E+00 0.  1.
         11    1    1    2    0    0  0.24108929248E-01  0.20011248050E+00  0.22132807670E+01  0.22224397089E+01  0.51100000000E-03 0. -1.
    9000002    1    1    2    0    0 -0.49689941983E-01  0.79190260510E-01  0.36861631133E-01  0.94336788558E+00  0.93800000000E+00 0.  1.
         22    1    1    2    0    0  0.25581012735E-01 -0.27930274101E+00  0.17498575693E+01  0.17721924055E+01  0.00000000000E+00 0. -1.
</event>
