<event>
 5    1  0.2675386E-003  0.2624952E+03  0.7818608E-02  0.1194698E+00
         11   -1    0    0    0    0  0.00000000000E+00  0.00000000000E+00  0.99981251166E+03  0.99981251166E+03  0.51100000000E-03 0.  1.
          2   -1    0    0  501    0 -0.00000000000E+00 -0.00000000000E+00 -0.12366390839E+03  0.12366390842E+03  0.25500000000E-02 0.  1.
         11    1    1    2    0    0 -0.72037634974E+02  0.30844962718E+03  0.48375891749E+03  0.57823289738E+03  0.51100000000E-03 0.  1.
         22    1    1    2    0    0  0.40521279109E+01 -0.91197023623E+02 -0.36359774039E+00  0.91287726785E+02  0.00000000000E+00 0.  1.
          2    1    1    2  501    0  0.67985507063E+02 -0.21725260355E+03  0.39275328352E+03  0.45395579591E+03  0.25500000000E-02 0.  1.
<mgrwt>
<rscale>  0 0.15479790E+03</rscale>
<asrwt>0</asrwt>
<pdfrwt beam="1">  1       11 0.10000000E+01 0.26249524E+03</pdfrwt>
<pdfrwt beam="2">  1        2 0.19021649E-01 0.15479790E+03</pdfrwt>
<totfact> 0.35721791E+02</totfact>
</mgrwt>
</event>
<event>
 5    1  0.2675386E-003  0.4550027E+03  0.7818608E-02  0.1026241E+00
         11   -1    0    0    0    0  0.00000000000E+00  0.00000000000E+00  0.10000307891E+04  0.10000307891E+04  0.51100000000E-03 0. -1.
          2   -1    0    0  501    0 -0.00000000000E+00 -0.00000000000E+00 -0.82291251751E+03  0.82291251752E+03  0.25500000000E-02 0. -1.
         11    1    1    2    0    0  0.44932324491E+03 -0.37100010913E+02  0.87819146080E+03  0.98716160331E+03  0.51100000000E-03 0. -1.
         22    1    1    2    0    0 -0.23238239135E+02  0.10713314015E+02 -0.63737553181E+02  0.68682359749E+02  0.00000000000E+00 0. -1.
          2    1    1    2  501    0 -0.42608500578E+03  0.26386696899E+02 -0.63733563604E+03  0.76709934356E+03  0.25500000000E-02 0. -1.
<mgrwt>
<rscale>  0 0.45500268E+03</rscale>
<asrwt>0</asrwt>
<pdfrwt beam="1">  1       11 0.10000000E+01 0.45085229E+03</pdfrwt>
<pdfrwt beam="2">  1        2 0.12660582E+00 0.45500268E+03</pdfrwt>
<totfact> 0.41922713E+01</totfact>
</mgrwt>
</event>
<event>
 5    1  0.2675386E-003  0.5823333E+03  0.7818608E-02  0.9942752E-01
         11   -1    0    0    0    0  0.00000000000E+00  0.00000000000E+00  0.10003701199E+04  0.10003701199E+04  0.51100000000E-03 0. -1.
          2   -1    0    0  501    0 -0.00000000000E+00 -0.00000000000E+00 -0.38749075675E+03  0.38749075675E+03  0.25500000000E-02 0. -1.
         11    1    1    2    0    0  0.13665446736E+03 -0.56947611513E+03  0.79074473909E+02  0.59095707254E+03  0.51100000000E-03 0. -1.
         22    1    1    2    0    0 -0.81639161352E+01  0.79168982847E+01  0.28255865375E+02  0.30458508388E+02  0.00000000000E+00 0. -1.
          2    1    1    2  501    0 -0.12849055123E+03  0.56155921685E+03  0.50554902383E+03  0.76644529569E+03  0.25500000000E-02 0. -1.
<mgrwt>
<rscale>  0 0.58233328E+03</rscale>
<asrwt>0</asrwt>
<pdfrwt beam="1">  1       11 0.10000000E+01 0.11372194E+02</pdfrwt>
<pdfrwt beam="2">  1        2 0.59636025E-01 0.58233328E+03</pdfrwt>
<totfact> 0.10212497E+02</totfact>
</mgrwt>
</event>
<event>
 5    1  0.2675386E-003  0.1236181E+03  0.7818608E-02  0.1237245E+00
         11   -1    0    0    0    0  0.00000000000E+00  0.00000000000E+00  0.10002376817E+04  0.10002376817E+04  0.51100000000E-03 0. -1.
          2   -1    0    0  501    0 -0.00000000000E+00 -0.00000000000E+00 -0.14783440300E+02  0.14783440520E+02  0.25500000000E-02 0. -1.
         11    1    1    2    0    0 -0.69993989210E+02  0.90198174639E+02  0.58042890799E+03  0.59155100073E+03  0.51100000000E-03 0. -1.
         22    1    1    2    0    0  0.25513330387E+02 -0.33065247043E+02  0.77501220144E+02  0.88037944735E+02  0.00000000000E+00 0.  1.
          2    1    1    2  501    0  0.44480658822E+02 -0.57132927595E+02  0.32752411328E+03  0.33543217677E+03  0.25500000000E-02 0. -1.
<mgrwt>
<rscale>  0 0.12361805E+03</rscale>
<asrwt>0</asrwt>
<pdfrwt beam="1">  1       11 0.10000000E+01 0.11417035E+03</pdfrwt>
<pdfrwt beam="2">  1        2 0.22749160E-02 0.12361805E+03</pdfrwt>
<totfact> 0.51885710E+03</totfact>
</mgrwt>
</event>
<event>
 5    1  0.2675386E-003  0.1606974E+03  0.7818608E-02  0.1396583E+00
         11   -1    0    0    0    0  0.00000000000E+00  0.00000000000E+00  0.10002777409E+04  0.10002777409E+04  0.51100000000E-03 0. -1.
          2   -1    0    0  501    0 -0.00000000000E+00 -0.00000000000E+00 -0.32993549670E+02  0.32993549769E+02  0.25500000000E-02 0. -1.
         11    1    1    2    0    0 -0.16008307314E+03 -0.50006797380E+02  0.40420541505E+03  0.43761774147E+03  0.51100000000E-03 0. -1.
         22    1    1    2    0    0  0.61065800191E+01  0.21786220841E+02  0.19135082367E+02  0.29632433502E+02  0.00000000000E+00 0.  1.
          2    1    1    2  501    0  0.15397649312E+03  0.28220576540E+02  0.54394369381E+03  0.56602111570E+03  0.25500000000E-02 0. -1.
<mgrwt>
<rscale>  0 0.60298555E+02</rscale>
<asrwt>0</asrwt>
<pdfrwt beam="1">  1       11 0.10000000E+01 0.16069740E+03</pdfrwt>
<pdfrwt beam="2">  1        2 0.50773404E-02 0.60298555E+02</pdfrwt>
<totfact> 0.16688098E+03</totfact>
</mgrwt>
</event>
<event>
 5    1  0.2675386E-003  0.3513918E+03  0.7818608E-02  0.1062045E+00
         11   -1    0    0    0    0  0.00000000000E+00  0.00000000000E+00  0.10001235065E+04  0.10001235065E+04  0.51100000000E-03 0. -1.
          2   -1    0    0  501    0 -0.00000000000E+00 -0.00000000000E+00 -0.53092976272E+03  0.53092976273E+03  0.25500000000E-02 0. -1.
         11    1    1    2    0    0 -0.23431229001E+03  0.25882527512E+03  0.90571260220E+03  0.97067403905E+03  0.51100000000E-03 0. -1.
         22    1    1    2    0    0  0.14517949580E+02 -0.62553921668E+01 -0.28314602985E+02  0.32428652968E+02  0.00000000000E+00 0. -1.
          2    1    1    2  501    0  0.21979434043E+03 -0.25256988295E+03 -0.40820425541E+03  0.52795057724E+03  0.25500000000E-02 0. -1.
<mgrwt>
<rscale>  0 0.35139176E+03</rscale>
<asrwt>0</asrwt>
<pdfrwt beam="1">  1       11 0.10000000E+01 0.34913145E+03</pdfrwt>
<pdfrwt beam="2">  1        2 0.81691588E-01 0.35139176E+03</pdfrwt>
<totfact> 0.72087197E+01</totfact>
</mgrwt>
</event>
<event>
 5    1  0.2675386E-003  0.1174774E+03  0.7818608E-02  0.1251530E+00
         11   -1    0    0    0    0  0.00000000000E+00  0.00000000000E+00  0.99998354221E+03  0.99998354221E+03  0.51100000000E-03 0. -1.
          2   -1    0    0  501    0 -0.00000000000E+00 -0.00000000000E+00 -0.14023302228E+02  0.14023302460E+02  0.25500000000E-02 0. -1.
         11    1    1    2    0    0  0.43238309322E+02  0.58393444282E+02  0.34663334351E+03  0.35416665647E+03  0.51100000000E-03 0. -1.
         22    1    1    2    0    0  0.38169196063E+02  0.22875218658E+02  0.24786236221E+03  0.25182516506E+03  0.00000000000E+00 0. -1.
          2    1    1    2  501    0 -0.81407505386E+02 -0.81268662941E+02  0.39146453426E+03  0.40801502313E+03  0.25500000000E-02 0. -1.
<mgrwt>
<rscale>  0 0.11502946E+03</rscale>
<asrwt>0</asrwt>
<pdfrwt beam="1">  1       11 0.10000000E+01 0.11747742E+03</pdfrwt>
<pdfrwt beam="2">  1        2 0.21573956E-02 0.11502946E+03</pdfrwt>
<totfact> 0.55284690E+03</totfact>
</mgrwt>
</event>
<event>
 5    1  0.2675386E-003  0.1306144E+03  0.7818608E-02  0.1226547E+00
         11   -1    0    0    0    0  0.00000000000E+00  0.00000000000E+00  0.10003809372E+04  0.10003809372E+04  0.51100000000E-03 0. -1.
          2   -1    0    0  501    0 -0.00000000000E+00 -0.00000000000E+00 -0.49055717037E+02  0.49055717103E+02  0.25500000000E-02 0. -1.
         11    1    1    2    0    0 -0.91153321514E+02 -0.92130585375E+02  0.48468906002E+03  0.50171750785E+03  0.51100000000E-03 0. -1.
         22    1    1    2    0    0 -0.50943697765E+02  0.10015254198E+03  0.33687851039E+03  0.35512381330E+03  0.00000000000E+00 0. -1.
          2    1    1    2  501    0  0.14209701928E+03 -0.80219566020E+01  0.12975764975E+03  0.19259533315E+03  0.25500000000E-02 0. -1.
<mgrwt>
<rscale>  0 0.13061443E+03</rscale>
<asrwt>0</asrwt>
<pdfrwt beam="1">  1       11 0.10000000E+01 0.11236455E+03</pdfrwt>
<pdfrwt beam="2">  1        2 0.75499081E-02 0.13061443E+03</pdfrwt>
<totfact> 0.10765383E+03</totfact>
</mgrwt>
</event>
<event>
 5    1  0.2675386E-003  0.1932144E+03  0.7818608E-02  0.1272490E+00
         11   -1    0    0    0    0  0.00000000000E+00  0.00000000000E+00  0.10001212874E+04  0.10001212874E+04  0.51100000000E-03 0. -1.
          2   -1    0    0  501    0 -0.00000000000E+00 -0.00000000000E+00 -0.56596627585E+02  0.56596627642E+02  0.25500000000E-02 0. -1.
         11    1    1    2    0    0  0.19641405912E+03 -0.34623940019E+01  0.31760102637E+03  0.37344461804E+03  0.51100000000E-03 0. -1.
         22    1    1    2    0    0 -0.11037491465E+02 -0.54667662943E+02  0.48045519073E+02  0.73612169459E+02  0.00000000000E+00 0.  1.
          2    1    1    2  501    0 -0.18537656766E+03  0.58130056945E+02  0.57787811434E+03  0.60966112751E+03  0.25500000000E-02 0. -1.
<mgrwt>
<rscale>  0 0.10380614E+03</rscale>
<asrwt>0</asrwt>
<pdfrwt beam="1">  1       11 0.10000000E+01 0.19321444E+03</pdfrwt>
<pdfrwt beam="2">  1        2 0.87082293E-02 0.10380614E+03</pdfrwt>
<totfact> 0.88714725E+02</totfact>
</mgrwt>
</event>
<event>
 5    1  0.2675386E-003  0.5108863E+02  0.7818608E-02  0.1597702E+00
         11   -1    0    0    0    0  0.00000000000E+00  0.00000000000E+00  0.10002877678E+04  0.10002877678E+04  0.51100000000E-03 0.  1.
          2   -1    0    0  501    0 -0.00000000000E+00 -0.00000000000E+00 -0.14235468080E+02  0.14235468308E+02  0.25500000000E-02 0.  1.
         11    1    1    2    0    0  0.26244887870E+02 -0.50594135140E+02  0.26085462882E+03  0.26700879766E+03  0.51100000000E-03 0.  1.
         22    1    1    2    0    0 -0.22523332178E+01  0.32526019537E+02  0.13670921101E+02  0.35354052606E+02  0.00000000000E+00 0.  1.
          2    1    1    2  501    0 -0.23992554652E+02  0.18068115602E+02  0.71152674976E+03  0.71216038580E+03  0.25500000000E-02 0.  1.
<mgrwt>
<rscale>  0 0.30034971E+02</rscale>
<asrwt>0</asrwt>
<pdfrwt beam="1">  1       11 0.10000000E+01 0.51088627E+02</pdfrwt>
<pdfrwt beam="2">  1        2 0.21907022E-02 0.30034971E+02</pdfrwt>
<totfact> 0.44806980E+03</totfact>
</mgrwt>
</event>
<event>
 5    1  0.2675386E-003  0.2079488E+03  0.7818608E-02  0.1143201E+00
         11   -1    0    0    0    0  0.00000000000E+00  0.00000000000E+00  0.10001198693E+04  0.10001198693E+04  0.51100000000E-03 0.  1.
          2   -1    0    0  501    0 -0.00000000000E+00 -0.00000000000E+00 -0.19721231236E+03  0.19721231238E+03  0.25500000000E-02 0.  1.
         11    1    1    2    0    0  0.14690100293E+03  0.13183511615E+03  0.93193338374E+03  0.95260707233E+03  0.51100000000E-03 0.  1.
         22    1    1    2    0    0 -0.81713792348E+02 -0.54893852362E+02 -0.28845810835E+02  0.10257952861E+03  0.00000000000E+00 0.  1.
          2    1    1    2  501    0 -0.65187210581E+02 -0.76941263790E+02 -0.10018001601E+03  0.14214558070E+03  0.25500000000E-02 0.  1.
<mgrwt>
<rscale>  0 0.20794883E+03</rscale>
<asrwt>0</asrwt>
<pdfrwt beam="1">  1       11 0.10000000E+01 0.19738390E+03</pdfrwt>
<pdfrwt beam="2">  1        2 0.30343992E-01 0.20794883E+03</pdfrwt>
<totfact> 0.21352134E+02</totfact>
</mgrwt>
</event>
<event>
 5    1  0.2675386E-003  0.6959837E+02  0.7818608E-02  0.1361464E+00
         11   -1    0    0    0    0  0.00000000000E+00  0.00000000000E+00  0.10001726432E+04  0.10001726432E+04  0.51100000000E-03 0. -1.
          2   -1    0    0  501    0 -0.00000000000E+00 -0.00000000000E+00 -0.28226374470E+02  0.28226374585E+02  0.25500000000E-02 0. -1.
         11    1    1    2    0    0 -0.60323758459E+02 -0.35510699391E+02  0.28650478197E+02  0.75636072790E+02  0.51100000000E-03 0. -1.
         22    1    1    2    0    0 -0.18966717673E+02  0.45937296998E+02  0.25178302840E+03  0.25664112107E+03  0.00000000000E+00 0. -1.
          2    1    1    2  501    0  0.79290476132E+02 -0.10426597607E+02  0.69151276214E+03  0.69612182393E+03  0.25500000000E-02 0. -1.
<mgrwt>
<rscale>  0 0.69598375E+02</rscale>
<asrwt>0</asrwt>
<pdfrwt beam="1">  1       11 0.10000000E+01 0.49698809E+02</pdfrwt>
<pdfrwt beam="2">  1        2 0.43432687E-02 0.69598375E+02</pdfrwt>
<totfact> 0.20682895E+03</totfact>
</mgrwt>
</event>
<event>
 5    1  0.2675386E-003  0.2060000E+03  0.7818608E-02  0.1275501E+00
         11   -1    0    0    0    0  0.00000000000E+00  0.00000000000E+00  0.10002599989E+04  0.10002599989E+04  0.51100000000E-03 0.  1.
          2   -1    0    0  501    0 -0.00000000000E+00 -0.00000000000E+00 -0.57631771093E+03  0.57631771094E+03  0.25500000000E-02 0.  1.
         11    1    1    2    0    0  0.20190763809E+03 -0.45864377988E+02  0.96302503963E+03  0.98503170631E+03  0.51100000000E-03 0.  1.
         22    1    1    2    0    0 -0.49367770283E+02  0.12053128331E+02 -0.29968010692E+02  0.58996070294E+02  0.00000000000E+00 0.  1.
          2    1    1    2  501    0 -0.15253986780E+03  0.33811249657E+02 -0.50911474099E+03  0.53254993322E+03  0.25500000000E-02 0.  1.
<mgrwt>
<rscale>  0 0.10231559E+03</rscale>
<asrwt>0</asrwt>
<pdfrwt beam="1">  1       11 0.10000000E+01 0.20600004E+03</pdfrwt>
<pdfrwt beam="2">  1        2 0.88687313E-01 0.10231559E+03</pdfrwt>
<totfact> 0.67293015E+01</totfact>
</mgrwt>
</event>
<event>
 5    1  0.2675386E-003  0.7426356E+02  0.7818608E-02  0.1476620E+00
         11   -1    0    0    0    0  0.00000000000E+00  0.00000000000E+00  0.10003014672E+04  0.10003014672E+04  0.51100000000E-03 0. -1.
          2   -1    0    0  501    0 -0.00000000000E+00 -0.00000000000E+00 -0.92389273268E+01  0.92389276787E+01  0.25500000000E-02 0. -1.
         11    1    1    2    0    0  0.85091369693E+02 -0.41961792168E-02  0.31963949811E+03  0.33077174905E+03  0.51100000000E-03 0. -1.
         22    1    1    2    0    0 -0.17327657538E+02  0.20483700643E+02  0.13019858198E+03  0.13293419597E+03  0.00000000000E+00 0.  1.
          2    1    1    2  501    0 -0.67763712154E+02 -0.20479504463E+02  0.54122445981E+03  0.54583444990E+03  0.25500000000E-02 0. -1.
<mgrwt>
<rscale>  0 0.44637023E+02</rscale>
<asrwt>0</asrwt>
<pdfrwt beam="1">  1       11 0.10000000E+01 0.74263561E+02</pdfrwt>
<pdfrwt beam="2">  1        2 0.14218019E-02 0.44637023E+02</pdfrwt>
<totfact> 0.84451950E+03</totfact>
</mgrwt>
</event>
<event>
 5    1  0.2675386E-003  0.3522724E+03  0.7818608E-02  0.1061686E+00
         11   -1    0    0    0    0  0.00000000000E+00  0.00000000000E+00  0.10002730220E+04  0.10002730220E+04  0.51100000000E-03 0. -1.
          2   -1    0    0  501    0 -0.00000000000E+00 -0.00000000000E+00 -0.16728987072E+03  0.16728987073E+03  0.25500000000E-02 0. -1.
         11    1    1    2    0    0  0.20498149504E+03  0.28438507278E+03  0.71455708691E+03  0.79591715233E+03  0.51100000000E-03 0. -1.
         22    1    1    2    0    0 -0.11516447976E+02 -0.16775553183E+02 -0.13103094494E+01  0.20390308223E+02  0.00000000000E+00 0. -1.
          2    1    1    2  501    0 -0.19346504706E+03 -0.26760951959E+03  0.11973637383E+03  0.35125543218E+03  0.25500000000E-02 0. -1.
<mgrwt>
<rscale>  0 0.35227237E+03</rscale>
<asrwt>0</asrwt>
<pdfrwt beam="1">  1       11 0.10000000E+01 0.35055996E+03</pdfrwt>
<pdfrwt beam="2">  1        2 0.25743929E-01 0.35227237E+03</pdfrwt>
<totfact> 0.25858750E+02</totfact>
</mgrwt>
</event>
<event>
 5    1  0.2675386E-003  0.2679928E+03  0.7818608E-02  0.1301466E+00
         11   -1    0    0    0    0  0.00000000000E+00  0.00000000000E+00  0.10001863887E+04  0.10001863887E+04  0.51100000000E-03 0. -1.
          2   -1    0    0  501    0 -0.00000000000E+00 -0.00000000000E+00 -0.11971998111E+03  0.11971998114E+03  0.25500000000E-02 0. -1.
         11    1    1    2    0    0  0.29090525001E+02 -0.27809575684E+03  0.64044799262E+03  0.69882554323E+03  0.51100000000E-03 0. -1.
         22    1    1    2    0    0 -0.25100405342E+01  0.30508746601E+02 -0.37378728219E+02  0.48314110215E+02  0.00000000000E+00 0. -1.
          2    1    1    2  501    0 -0.26580484466E+02  0.24758701024E+03  0.27739714317E+03  0.37276671638E+03  0.25500000000E-02 0. -1.
<mgrwt>
<rscale>  0 0.90574558E+02</rscale>
<asrwt>0</asrwt>
<pdfrwt beam="1">  1       11 0.10000000E+01 0.26799285E+03</pdfrwt>
<pdfrwt beam="2">  1        2 0.18421891E-01 0.90574558E+02</pdfrwt>
<totfact> 0.36326187E+02</totfact>
</mgrwt>
</event>
<event>
 5    1  0.2675386E-003  0.1837640E+03  0.7818608E-02  0.1164209E+00
         11   -1    0    0    0    0  0.00000000000E+00  0.00000000000E+00  0.10002257006E+04  0.10002257006E+04  0.51100000000E-03 0. -1.
          2   -1    0    0  501    0 -0.00000000000E+00 -0.00000000000E+00 -0.71961695920E+02  0.71961695965E+02  0.25500000000E-02 0. -1.
         11    1    1    2    0    0  0.14490134458E+03  0.10731997830E+03  0.87471589403E+02  0.20041271506E+03  0.51100000000E-03 0. -1.
         22    1    1    2    0    0  0.27896392763E+02 -0.20618353310E+01  0.10761732175E+03  0.11119329043E+03  0.00000000000E+00 0. -1.
          2    1    1    2  501    0 -0.17279773735E+03 -0.10525814297E+03  0.73317509352E+03  0.76058139108E+03  0.25500000000E-02 0. -1.
<mgrwt>
<rscale>  0 0.18376402E+03</rscale>
<asrwt>0</asrwt>
<pdfrwt beam="1">  1       11 0.10000000E+01 0.27972485E+02</pdfrwt>
<pdfrwt beam="2">  1        2 0.11073529E-01 0.18376402E+03</pdfrwt>
<totfact> 0.68212494E+02</totfact>
</mgrwt>
</event>
<event>
 5    1  0.2675386E-003  0.2044263E+03  0.7818608E-02  0.1146057E+00
         11   -1    0    0    0    0  0.00000000000E+00  0.00000000000E+00  0.10001805422E+04  0.10001805422E+04  0.51100000000E-03 0. -1.
          2   -1    0    0  501    0 -0.00000000000E+00 -0.00000000000E+00 -0.90352725545E+02  0.90352725581E+02  0.25500000000E-02 0. -1.
         11    1    1    2    0    0  0.20088212422E+03 -0.14391071080E+03  0.23786657023E+03  0.34299333193E+03  0.51100000000E-03 0. -1.
         22    1    1    2    0    0 -0.14993829733E+03 -0.23694343853E+02  0.33397379820E+03  0.36685339418E+03  0.00000000000E+00 0. -1.
          2    1    1    2  501    0 -0.50943826888E+02  0.16760505466E+03  0.33798744818E+03  0.38068654163E+03  0.25500000000E-02 0. -1.
<mgrwt>
<rscale>  0 0.20442631E+03</rscale>
<asrwt>0</asrwt>
<pdfrwt beam="1">  1       11 0.10000000E+01 0.15179893E+03</pdfrwt>
<pdfrwt beam="2">  1        2 0.13902929E-01 0.20442631E+03</pdfrwt>
<totfact> 0.52049138E+02</totfact>
</mgrwt>
</event>
<event>
 5    1  0.2675386E-003  0.2173541E+03  0.7818608E-02  0.1135871E+00
         11   -1    0    0    0    0  0.00000000000E+00  0.00000000000E+00  0.10003089762E+04  0.10003089762E+04  0.51100000000E-03 0. -1.
          2   -1    0    0  501    0 -0.00000000000E+00 -0.00000000000E+00 -0.10631373386E+03  0.10631373389E+03  0.25500000000E-02 0. -1.
         11    1    1    2    0    0 -0.12349802526E+03 -0.17569922148E+03  0.86026529517E+03  0.88666699316E+03  0.51100000000E-03 0. -1.
         22    1    1    2    0    0  0.12415801412E+02  0.83174949043E+01  0.92659210157E+01  0.17583803299E+02  0.00000000000E+00 0. -1.
          2    1    1    2  501    0  0.11108222385E+03  0.16738172658E+03  0.24464026149E+02  0.20237191364E+03  0.25500000000E-02 0. -1.
<mgrwt>
<rscale>  0 0.21735411E+03</rscale>
<asrwt>0</asrwt>
<pdfrwt beam="1">  1       11 0.10000000E+01 0.21476028E+03</pdfrwt>
<pdfrwt beam="2">  1        2 0.16361012E-01 0.21735411E+03</pdfrwt>
<totfact> 0.43020061E+02</totfact>
</mgrwt>
</event>
<event>
 5    1  0.2675386E-003  0.1927277E+03  0.7818608E-02  0.1156024E+00
         11   -1    0    0    0    0  0.00000000000E+00  0.00000000000E+00  0.10000035155E+04  0.10000035155E+04  0.51100000000E-03 0.  1.
         -2   -1    0    0    0  501 -0.00000000000E+00 -0.00000000000E+00 -0.23708290033E+03  0.23708290035E+03  0.25500000000E-02 0.  1.
         11    1    1    2    0    0 -0.56055630089E+02 -0.17573568013E+03  0.95044692299E+03  0.96818108655E+03  0.51100000000E-03 0.  1.
         22    1    1    2    0    0  0.27557215582E+02  0.59376719680E+02 -0.32786273591E+02  0.73211574949E+02  0.00000000000E+00 0. -1.
         -2    1    1    2    0  501  0.28498414507E+02  0.11635896045E+03 -0.15474003421E+03  0.19569375437E+03  0.25500000000E-02 0.  1.
<mgrwt>
<rscale>  0 0.19272768E+03</rscale>
<asrwt>0</asrwt>
<pdfrwt beam="1">  1       11 0.10000000E+01 0.18445938E+03</pdfrwt>
<pdfrwt beam="2">  1       -2 0.36474420E-01 0.19272768E+03</pdfrwt>
<totfact> 0.57260986E+01</totfact>
</mgrwt>
</event>
<event>
 5    1  0.3552936E-003  0.1932904E+03  0.7818608E-02  0.1155527E+00
         11   -1    0    0    0    0  0.00000000000E+00  0.00000000000E+00  0.10002778175E+04  0.10002778175E+04  0.51100000000E-03 0. -1.
         -2   -1    0    0    0  501 -0.00000000000E+00 -0.00000000000E+00 -0.26849684081E+03  0.26849684083E+03  0.25500000000E-02 0.  1.
         11    1    1    2    0    0  0.19182403330E+03  0.10719822298E+02  0.95463424667E+03  0.97377508659E+03  0.51100000000E-03 0. -1.
         22    1    1    2    0    0 -0.10150998276E+02  0.42425193422E+01 -0.12813324973E+02  0.16888547399E+02  0.00000000000E+00 0.  1.
         -2    1    1    2    0  501 -0.18167303502E+03 -0.14962341640E+02 -0.21003994504E+03  0.27811102431E+03  0.25500000000E-02 0.  1.
<mgrwt>
<rscale>  0 0.19329037E+03</rscale>
<asrwt>0</asrwt>
<pdfrwt beam="1">  1       11 0.10000000E+01 0.19212333E+03</pdfrwt>
<pdfrwt beam="2">  1       -2 0.41318681E-01 0.19329037E+03</pdfrwt>
<totfact> 0.45210615E+01</totfact>
</mgrwt>
</event>
<event>
 5    1  0.2675386E-003  0.3025909E+03  0.7818608E-02  0.1083953E+00
         11   -1    0    0    0    0  0.00000000000E+00  0.00000000000E+00  0.10002453213E+04  0.10002453213E+04  0.51100000000E-03 0. -1.
          2   -1    0    0  501    0 -0.00000000000E+00 -0.00000000000E+00 -0.28222984546E+03  0.28222984547E+03  0.25500000000E-02 0. -1.
         11    1    1    2    0    0 -0.22696266759E+03 -0.19153672936E+03  0.88734760878E+03  0.93572653590E+03  0.51100000000E-03 0. -1.
         22    1    1    2    0    0  0.17880910284E+02  0.40997516362E+02 -0.29896506196E+02  0.53798925483E+02  0.00000000000E+00 0.  1.
          2    1    1    2  501    0  0.20908175731E+03  0.15053921299E+03 -0.13943562672E+03  0.29294970540E+03  0.25500000000E-02 0. -1.
<mgrwt>
<rscale>  0 0.30259088E+03</rscale>
<asrwt>0</asrwt>
<pdfrwt beam="1">  1       11 0.10000000E+01 0.29698211E+03</pdfrwt>
<pdfrwt beam="2">  1        2 0.43430627E-01 0.30259088E+03</pdfrwt>
<totfact> 0.14499355E+02</totfact>
</mgrwt>
</event>
<event>
 5    1  0.2675386E-003  0.1214284E+03  0.7818608E-02  0.1240759E+00
         11   -1    0    0    0    0  0.00000000000E+00  0.00000000000E+00  0.10003114097E+04  0.10003114097E+04  0.51100000000E-03 0. -1.
          2   -1    0    0  501    0 -0.00000000000E+00 -0.00000000000E+00 -0.14302832059E+02  0.14302832286E+02  0.25500000000E-02 0. -1.
         11    1    1    2    0    0  0.13305324213E+02 -0.11687198616E+03  0.50434253555E+03  0.51787786781E+03  0.51100000000E-03 0. -1.
         22    1    1    2    0    0 -0.39370135403E+01  0.18645446042E+02  0.41801529376E+02  0.45940402610E+02  0.00000000000E+00 0.  1.
          2    1    1    2  501    0 -0.93683106730E+01  0.98226540121E+02  0.43986451273E+03  0.45079597158E+03  0.25500000000E-02 0. -1.
<mgrwt>
<rscale>  0 0.12142837E+03</rscale>
<asrwt>0</asrwt>
<pdfrwt beam="1">  1       11 0.10000000E+01 0.11762692E+03</pdfrwt>
<pdfrwt beam="2">  1        2 0.22011209E-02 0.12142837E+03</pdfrwt>
<totfact> 0.54145417E+03</totfact>
</mgrwt>
</event>
<event>
 5    1  0.2675386E-003  0.6165409E+02  0.7818608E-02  0.1467131E+00
         11   -1    0    0    0    0  0.00000000000E+00  0.00000000000E+00  0.10004355128E+04  0.10004355128E+04  0.51100000000E-03 0. -1.
          2   -1    0    0  501    0 -0.00000000000E+00 -0.00000000000E+00 -0.87142865243E+01  0.87142868974E+01  0.25500000000E-02 0. -1.
         11    1    1    2    0    0 -0.67807302554E+02 -0.45162980946E+02  0.38587421374E+03  0.39438107707E+03  0.51100000000E-03 0. -1.
         22    1    1    2    0    0  0.21646459369E+02  0.46342887372E+02  0.20560136589E+03  0.21186824696E+03  0.00000000000E+00 0. -1.
          2    1    1    2  501    0  0.46160843185E+02 -0.11799064263E+01  0.40024564661E+03  0.40290047563E+03  0.25500000000E-02 0. -1.
<mgrwt>
<rscale>  0 0.46175920E+02</rscale>
<asrwt>0</asrwt>
<pdfrwt beam="1">  1       11 0.10000000E+01 0.61654087E+02</pdfrwt>
<pdfrwt beam="2">  1        2 0.13412433E-02 0.46175920E+02</pdfrwt>
<totfact> 0.91797338E+03</totfact>
</mgrwt>
</event>
<event>
 5    1  0.2675386E-003  0.7218655E+02  0.7818608E-02  0.1370527E+00
         11   -1    0    0    0    0  0.00000000000E+00  0.00000000000E+00  0.10005110721E+04  0.10005110721E+04  0.51100000000E-03 0. -1.
          2   -1    0    0  501    0 -0.00000000000E+00 -0.00000000000E+00 -0.14085179377E+02  0.14085179608E+02  0.25500000000E-02 0. -1.
         11    1    1    2    0    0  0.79255974834E+02 -0.23131852120E+02  0.26161212061E+03  0.27433099310E+03  0.51100000000E-03 0. -1.
         22    1    1    2    0    0 -0.31517089721E+02  0.70172419497E+02  0.27775169917E+03  0.28820739372E+03  0.00000000000E+00 0. -1.
          2    1    1    2  501    0 -0.47738885113E+02 -0.47040567376E+02  0.44706207299E+03  0.45205786493E+03  0.25500000000E-02 0. -1.
<mgrwt>
<rscale>  0 0.67021013E+02</rscale>
<asrwt>0</asrwt>
<pdfrwt beam="1">  1       11 0.10000000E+01 0.72186546E+02</pdfrwt>
<pdfrwt beam="2">  1        2 0.21680581E-02 0.67021013E+02</pdfrwt>
<totfact> 0.51268992E+03</totfact>
</mgrwt>
</event>
<event>
 5    1  0.2675386E-003  0.2419483E+03  0.7818608E-02  0.1118502E+00
         11   -1    0    0    0    0  0.00000000000E+00  0.00000000000E+00  0.10003227727E+04  0.10003227727E+04  0.51100000000E-03 0. -1.
          2   -1    0    0  501    0 -0.00000000000E+00 -0.00000000000E+00 -0.73560261933E+02  0.73560261977E+02  0.25500000000E-02 0.  1.
         11    1    1    2    0    0  0.97760583197E+02  0.20915597751E+03  0.71837857658E+03  0.75456685181E+03  0.51100000000E-03 0. -1.
         22    1    1    2    0    0 -0.37782405304E+02 -0.35589738743E+02  0.79577285548E+02  0.95008862900E+02  0.00000000000E+00 0. -1.
          2    1    1    2  501    0 -0.59978177894E+02 -0.17356623876E+03  0.12880664868E+03  0.22430732002E+03  0.25500000000E-02 0.  1.
<mgrwt>
<rscale>  0 0.24194826E+03</rscale>
<asrwt>0</asrwt>
<pdfrwt beam="1">  1       11 0.10000000E+01 0.23087519E+03</pdfrwt>
<pdfrwt beam="2">  1        2 0.11320616E-01 0.24194826E+03</pdfrwt>
<totfact> 0.67250149E+02</totfact>
</mgrwt>
</event>
<event>
 5    1  0.2675386E-003  0.1335496E+03  0.7818608E-02  0.1222282E+00
         11   -1    0    0    0    0  0.00000000000E+00  0.00000000000E+00  0.10002409749E+04  0.10002409749E+04  0.51100000000E-03 0. -1.
         -2   -1    0    0    0  501 -0.00000000000E+00 -0.00000000000E+00 -0.22960449314E+02  0.22960449456E+02  0.25500000000E-02 0.  1.
         11    1    1    2    0    0 -0.11191115719E+03 -0.69174328749E+02  0.73378855040E+03  0.74548965892E+03  0.51100000000E-03 0. -1.
         22    1    1    2    0    0  0.22118487264E+02  0.16389586344E+02  0.71788821425E+02  0.76886155457E+02  0.00000000000E+00 0. -1.
         -2    1    1    2    0  501  0.89792669921E+02  0.52784742405E+02  0.17170315372E+03  0.20082560994E+03  0.25500000000E-02 0.  1.
<mgrwt>
<rscale>  0 0.13354955E+03</rscale>
<asrwt>0</asrwt>
<pdfrwt beam="1">  1       11 0.10000000E+01 0.13156441E+03</pdfrwt>
<pdfrwt beam="2">  1       -2 0.35332279E-02 0.13354955E+03</pdfrwt>
<totfact> 0.24738371E+03</totfact>
</mgrwt>
</event>
<event>
 5    1  0.2675386E-003  0.1416843E+03  0.7818608E-02  0.1211080E+00
         11   -1    0    0    0    0  0.00000000000E+00  0.00000000000E+00  0.10000613745E+04  0.10000613745E+04  0.51100000000E-03 0. -1.
         -2   -1    0    0    0  501 -0.00000000000E+00 -0.00000000000E+00 -0.22577168457E+02  0.22577168601E+02  0.25500000000E-02 0.  1.
         11    1    1    2    0    0  0.12483493974E+03  0.59414582066E+02  0.66952064322E+03  0.68364592183E+03  0.51100000000E-03 0. -1.
         22    1    1    2    0    0 -0.31186335993E+02 -0.84763079860E+01  0.10317295631E+03  0.10811611472E+03  0.00000000000E+00 0.  1.
         -2    1    1    2    0  501 -0.93648603744E+02 -0.50938274080E+02  0.20479060649E+03  0.23087650652E+03  0.25500000000E-02 0.  1.
<mgrwt>
<rscale>  0 0.14168430E+03</rscale>
<asrwt>0</asrwt>
<pdfrwt beam="1">  1       11 0.10000000E+01 0.13825287E+03</pdfrwt>
<pdfrwt beam="2">  1       -2 0.34736236E-02 0.14168430E+03</pdfrwt>
<totfact> 0.25518458E+03</totfact>
</mgrwt>
</event>
<event>
 5    1  0.2675386E-003  0.8186559E+02  0.7818608E-02  0.1397887E+00
         11   -1    0    0    0    0  0.00000000000E+00  0.00000000000E+00  0.99994896935E+03  0.99994896935E+03  0.51100000000E-03 0.  1.
          2   -1    0    0  501    0 -0.00000000000E+00 -0.00000000000E+00 -0.19221467836E+02  0.19221468006E+02  0.25500000000E-02 0.  1.
         11    1    1    2    0    0  0.31448008161E+02 -0.11134204253E+03  0.27116953568E+03  0.29482019051E+03  0.51100000000E-03 0.  1.
         22    1    1    2    0    0 -0.43720507918E+02  0.52624085853E+02  0.20225853000E+03  0.21351648691E+03  0.00000000000E+00 0.  1.
          2    1    1    2  501    0  0.12272499757E+02  0.58717956674E+02  0.50729943584E+03  0.51083375994E+03  0.25500000000E-02 0.  1.
<mgrwt>
<rscale>  0 0.59986771E+02</rscale>
<asrwt>0</asrwt>
<pdfrwt beam="1">  1       11 0.10000000E+01 0.81865590E+02</pdfrwt>
<pdfrwt beam="2">  1        2 0.29569979E-02 0.59986771E+02</pdfrwt>
<totfact> 0.33532623E+03</totfact>
</mgrwt>
</event>
<event>
 5    1  0.2675386E-003  0.1726993E+03  0.7818608E-02  0.1175062E+00
         11   -1    0    0    0    0  0.00000000000E+00  0.00000000000E+00  0.10002522465E+04  0.10002522465E+04  0.51100000000E-03 0. -1.
          2   -1    0    0  501    0 -0.00000000000E+00 -0.00000000000E+00 -0.87820257336E+02  0.87820257373E+02  0.25500000000E-02 0. -1.
         11    1    1    2    0    0  0.90324774914E+02 -0.14589105350E+03  0.89858261789E+03  0.91481882667E+03  0.51100000000E-03 0. -1.
         22    1    1    2    0    0 -0.25283631608E+01  0.12061805729E+02 -0.17075741284E+01  0.12441687471E+02  0.00000000000E+00 0.  1.
          2    1    1    2  501    0 -0.87796411753E+02  0.13382924777E+03  0.15556945371E+02  0.16081198970E+03  0.25500000000E-02 0. -1.
<mgrwt>
<rscale>  0 0.17269925E+03</rscale>
<asrwt>0</asrwt>
<pdfrwt beam="1">  1       11 0.10000000E+01 0.17158894E+03</pdfrwt>
<pdfrwt beam="2">  1        2 0.13514216E-01 0.17269925E+03</pdfrwt>
<totfact> 0.53465399E+02</totfact>
</mgrwt>
</event>
<event>
 5    1  0.2675386E-003  0.4974433E+02  0.7818608E-02  0.1601747E+00
         11   -1    0    0    0    0  0.00000000000E+00  0.00000000000E+00  0.10004130996E+04  0.10004130996E+04  0.51100000000E-03 0. -1.
          2   -1    0    0  501    0 -0.00000000000E+00 -0.00000000000E+00 -0.48976152234E+01  0.48976158872E+01  0.25500000000E-02 0. -1.
         11    1    1    2    0    0  0.24553894474E+02 -0.58213352074E+02  0.34808298416E+03  0.35377033787E+03  0.51100000000E-03 0. -1.
         22    1    1    2    0    0 -0.80025432615E+01  0.15786113380E+02  0.66154518345E+02  0.68481109597E+02  0.00000000000E+00 0. -1.
          2    1    1    2  501    0 -0.16551351213E+02  0.42427238694E+02  0.58127798191E+03  0.58305926806E+03  0.25500000000E-02 0. -1.
<mgrwt>
<rscale>  0 0.29671650E+02</rscale>
<asrwt>0</asrwt>
<pdfrwt beam="1">  1       11 0.10000000E+01 0.49744326E+02</pdfrwt>
<pdfrwt beam="2">  1        2 0.75379056E-03 0.29671650E+02</pdfrwt>
<totfact> 0.18069662E+04</totfact>
</mgrwt>
</event>
<event>
 5    1  0.2675386E-003  0.1823282E+03  0.7818608E-02  0.1165569E+00
         11   -1    0    0    0    0  0.00000000000E+00  0.00000000000E+00  0.10001872246E+04  0.10001872246E+04  0.51100000000E-03 0.  1.
          2   -1    0    0  501    0 -0.00000000000E+00 -0.00000000000E+00 -0.39514609018E+02  0.39514609101E+02  0.25500000000E-02 0.  1.
         11    1    1    2    0    0 -0.15088601850E+03  0.95860851377E+02  0.57617112632E+03  0.60326533152E+03  0.51100000000E-03 0.  1.
         22    1    1    2    0    0 -0.12659148780E+02 -0.10205166965E+02  0.68988826137E+02  0.70879176154E+02  0.00000000000E+00 0. -1.
          2    1    1    2  501    0  0.16354516728E+03 -0.85655684412E+02  0.31551266309E+03  0.36555732599E+03  0.25500000000E-02 0.  1.
<mgrwt>
<rscale>  0 0.18232817E+03</rscale>
<asrwt>0</asrwt>
<pdfrwt beam="1">  1       11 0.10000000E+01 0.16260365E+02</pdfrwt>
<pdfrwt beam="2">  1        2 0.60803086E-02 0.18232817E+03</pdfrwt>
<totfact> 0.14527832E+03</totfact>
</mgrwt>
</event>
<event>
 5    1  0.2675386E-003  0.2424054E+03  0.7818608E-02  0.1427703E+00
         11   -1    0    0    0    0  0.00000000000E+00  0.00000000000E+00  0.10005016983E+04  0.10005016983E+04  0.51100000000E-03 0.  1.
          2   -1    0    0  501    0 -0.00000000000E+00 -0.00000000000E+00 -0.41321953201E+03  0.41321953202E+03  0.25500000000E-02 0.  1.
         11    1    1    2    0    0  0.32486205125E+02  0.24139967895E+03 -0.35609916907E+03  0.43143455672E+03  0.51100000000E-03 0.  1.
         22    1    1    2    0    0  0.11377160955E+02 -0.30316398849E+01  0.44650739867E+01  0.12592359489E+02  0.00000000000E+00 0.  1.
          2    1    1    2  501    0 -0.43863366080E+02 -0.23836803906E+03  0.93891626133E+03  0.96969431406E+03  0.25500000000E-02 0.  1.
<mgrwt>
<rscale>  0 0.53423934E+02</rscale>
<asrwt>0</asrwt>
<pdfrwt beam="1">  1       11 0.10000000E+01 0.24240543E+03</pdfrwt>
<pdfrwt beam="2">  1        2 0.63604128E-01 0.53423934E+02</pdfrwt>
<totfact> 0.96772273E+01</totfact>
</mgrwt>
</event>
<event>
 5    1  0.2675386E-003  0.2416022E+03  0.7818608E-02  0.1118730E+00
         11   -1    0    0    0    0  0.00000000000E+00  0.00000000000E+00  0.10001756906E+04  0.10001756906E+04  0.51100000000E-03 0. -1.
          2   -1    0    0  501    0 -0.00000000000E+00 -0.00000000000E+00 -0.66674540865E+02  0.66674540914E+02  0.25500000000E-02 0. -1.
         11    1    1    2    0    0  0.18004970473E+02  0.23266131988E+03  0.25038972203E+03  0.34227252538E+03  0.51100000000E-03 0. -1.
         22    1    1    2    0    0  0.52637350232E+01 -0.49958626419E+02  0.84829472810E+02  0.98588086082E+02  0.00000000000E+00 0. -1.
          2    1    1    2  501    0 -0.23268705496E+02 -0.18270269347E+03  0.59828195494E+03  0.62598962010E+03  0.25500000000E-02 0. -1.
<mgrwt>
<rscale>  0 0.24160221E+03</rscale>
<asrwt>0</asrwt>
<pdfrwt beam="1">  1       11 0.10000000E+01 0.23335707E+03</pdfrwt>
<pdfrwt beam="2">  1        2 0.10259424E-01 0.24160221E+03</pdfrwt>
<totfact> 0.75946066E+02</totfact>
</mgrwt>
</event>
<event>
 5    1  0.2675386E-003  0.2591516E+03  0.7818608E-02  0.1260056E+00
         11   -1    0    0    0    0  0.00000000000E+00  0.00000000000E+00  0.10000456580E+04  0.10000456580E+04  0.51100000000E-03 0. -1.
          2   -1    0    0  501    0 -0.00000000000E+00 -0.00000000000E+00 -0.35222566044E+03  0.35222566045E+03  0.25500000000E-02 0. -1.
         11    1    1    2    0    0  0.54459255911E+02 -0.30648303030E+03 -0.23903684730E+03  0.39247455049E+03  0.51100000000E-03 0. -1.
         22    1    1    2    0    0  0.41923612964E+02  0.25289652028E+03  0.63981913409E+03  0.68926247804E+03  0.00000000000E+00 0. -1.
          2    1    1    2  501    0 -0.96382868875E+02  0.53586510020E+02  0.24703771079E+03  0.27053428993E+03  0.25500000000E-02 0. -1.
<mgrwt>
<rscale>  0 0.11027770E+03</rscale>
<asrwt>0</asrwt>
<pdfrwt beam="1">  1       11 0.10000000E+01 0.25915157E+03</pdfrwt>
<pdfrwt beam="2">  1        2 0.54191036E-01 0.11027770E+03</pdfrwt>
<totfact> 0.11424880E+02</totfact>
</mgrwt>
</event>
<event>
 5    1  0.2675386E-003  0.6052501E+02  0.7818608E-02  0.1649914E+00
         11   -1    0    0    0    0  0.00000000000E+00  0.00000000000E+00  0.99985008754E+03  0.99985008754E+03  0.51100000000E-03 0. -1.
          2   -1    0    0  501    0 -0.00000000000E+00 -0.00000000000E+00 -0.72858868879E+01  0.72858873341E+01  0.25500000000E-02 0. -1.
         11    1    1    2    0    0  0.48415635595E+02 -0.59035424566E+02  0.31840389509E+03  0.32742983299E+03  0.51100000000E-03 0. -1.
         22    1    1    2    0    0 -0.39408621352E+02  0.34869923122E+02  0.29399236555E+03  0.29866446386E+03  0.00000000000E+00 0. -1.
          2    1    1    2  501    0 -0.90070142431E+01  0.24165501444E+02  0.38016794002E+03  0.38104167802E+03  0.25500000000E-02 0. -1.
<mgrwt>
<rscale>  0 0.25789490E+02</rscale>
<asrwt>0</asrwt>
<pdfrwt beam="1">  1       11 0.10000000E+01 0.60525009E+02</pdfrwt>
<pdfrwt beam="2">  1        2 0.11207376E-02 0.25789490E+02</pdfrwt>
<totfact> 0.10404414E+04</totfact>
</mgrwt>
</event>
<event>
 5    1  0.2675386E-003  0.1527509E+03  0.7818608E-02  0.1504453E+00
         11   -1    0    0    0    0  0.00000000000E+00  0.00000000000E+00  0.10002529417E+04  0.10002529417E+04  0.51100000000E-03 0.  1.
          2   -1    0    0  501    0 -0.00000000000E+00 -0.00000000000E+00 -0.45592658986E+02  0.45592659057E+02  0.25500000000E-02 0.  1.
         11    1    1    2    0    0 -0.91441197596E+02 -0.13160814435E+03  0.77301436181E+03  0.78945132835E+03  0.51100000000E-03 0.  1.
         22    1    1    2    0    0  0.80612431258E+02  0.92566687447E+02  0.78822117726E+02  0.14587625558E+03  0.00000000000E+00 0.  1.
          2    1    1    2  501    0  0.10828766338E+02  0.39041456898E+02  0.10282380321E+03  0.11051801685E+03  0.25500000000E-02 0.  1.
<mgrwt>
<rscale>  0 0.40515399E+02</rscale>
<asrwt>0</asrwt>
<pdfrwt beam="1">  1       11 0.10000000E+01 0.15275093E+03</pdfrwt>
<pdfrwt beam="2">  1        2 0.70160292E-02 0.40515399E+02</pdfrwt>
<totfact> 0.10724222E+03</totfact>
</mgrwt>
</event>
<event>
 5    1  0.2675386E-003  0.5102623E+02  0.7818608E-02  0.1611332E+00
         11   -1    0    0    0    0  0.00000000000E+00  0.00000000000E+00  0.10001906401E+04  0.10001906401E+04  0.51100000000E-03 0.  1.
          2   -1    0    0  501    0 -0.00000000000E+00 -0.00000000000E+00 -0.11194227112E+02  0.11194227402E+02  0.25500000000E-02 0.  1.
         11    1    1    2    0    0  0.53995643906E+02  0.37026285072E+02  0.11492228864E+03  0.13226340301E+03  0.51100000000E-03 0.  1.
         22    1    1    2    0    0 -0.15262899434E+02 -0.57072287139E+01  0.35409994155E+02  0.38979433613E+02  0.00000000000E+00 0. -1.
          2    1    1    2  501    0 -0.38732744472E+02 -0.31319056358E+02  0.83866413017E+03  0.84014203087E+03  0.25500000000E-02 0.  1.
<mgrwt>
<rscale>  0 0.28835298E+02</rscale>
<asrwt>0</asrwt>
<pdfrwt beam="1">  1       11 0.10000000E+01 0.51026229E+02</pdfrwt>
<pdfrwt beam="2">  1        2 0.17225171E-02 0.28835298E+02</pdfrwt>
<totfact> 0.60748038E+03</totfact>
</mgrwt>
</event>
<event>
 5    1  0.2675386E-003  0.1885539E+03  0.7818608E-02  0.1184689E+00
         11   -1    0    0    0    0  0.00000000000E+00  0.00000000000E+00  0.10005375477E+04  0.10005375477E+04  0.51100000000E-03 0.  1.
          2   -1    0    0  501    0 -0.00000000000E+00 -0.00000000000E+00 -0.48904079636E+03  0.48904079637E+03  0.25500000000E-02 0.  1.
         11    1    1    2    0    0  0.13491102448E+03 -0.13503347660E+03  0.75992544807E+03  0.78353156347E+03  0.51100000000E-03 0.  1.
         22    1    1    2    0    0 -0.16626301978E+03 -0.25536652003E+02 -0.42994665108E+03  0.46168131337E+03  0.00000000000E+00 0.  1.
          2    1    1    2  501    0  0.31351995294E+02  0.16057012860E+03  0.18151795432E+03  0.24436546718E+03  0.25500000000E-02 0.  1.
<mgrwt>
<rscale>  0 0.16360230E+03</rscale>
<asrwt>0</asrwt>
<pdfrwt beam="1">  1       11 0.10000000E+01 0.18855390E+03</pdfrwt>
<pdfrwt beam="2">  1        2 0.75277487E-01 0.16360230E+03</pdfrwt>
<totfact> 0.80037868E+01</totfact>
</mgrwt>
</event>
<event>
 5    1  0.2675386E-003  0.1104830E+03  0.7818608E-02  0.1259678E+00
         11   -1    0    0    0    0  0.00000000000E+00  0.00000000000E+00  0.10002348749E+04  0.10002348749E+04  0.51100000000E-03 0.  1.
          2   -1    0    0  501    0 -0.00000000000E+00 -0.00000000000E+00 -0.11781279477E+02  0.11781279753E+02  0.25500000000E-02 0.  1.
         11    1    1    2    0    0 -0.10388787186E+03  0.18249298992E+02  0.53483000457E+03  0.54513196625E+03  0.51100000000E-03 0.  1.
         22    1    1    2    0    0  0.41728451582E+02  0.30523172315E+01  0.12692708999E+03  0.13364530102E+03  0.00000000000E+00 0.  1.
          2    1    1    2  501    0  0.62159420283E+02 -0.21301616224E+02  0.32669650086E+03  0.33323888738E+03  0.25500000000E-02 0.  1.
<mgrwt>
<rscale>  0 0.11048295E+03</rscale>
<asrwt>0</asrwt>
<pdfrwt beam="1">  1       11 0.10000000E+01 0.10547856E+03</pdfrwt>
<pdfrwt beam="2">  1        2 0.18129302E-02 0.11048295E+03</pdfrwt>
<totfact> 0.69668059E+03</totfact>
</mgrwt>
</event>
<event>
 5    1  0.2997565E-003  0.9468807E+03  0.7818608E-02  0.9368804E-01
         11   -1    0    0    0    0  0.00000000000E+00  0.00000000000E+00  0.10003420814E+04  0.10003420814E+04  0.51100000000E-03 0. -1.
          2   -1    0    0  501    0 -0.00000000000E+00 -0.00000000000E+00 -0.14437485287E+04  0.14437485287E+04  0.25500000000E-02 0.  1.
         11    1    1    2    0    0  0.31291996005E+02  0.94456230523E+03  0.53212468421E+03  0.10845892388E+04  0.51100000000E-03 0. -1.
         22    1    1    2    0    0 -0.49138246445E+01 -0.14717978231E+02 -0.25787011863E+02  0.30095423849E+02  0.00000000000E+00 0. -1.
          2    1    1    2  501    0 -0.26378171361E+02 -0.92984432699E+03 -0.94974411958E+03  0.13294059474E+04  0.25500000000E-02 0.  1.
<mgrwt>
<rscale>  0 0.94688066E+03</rscale>
<asrwt>0</asrwt>
<pdfrwt beam="1">  1       11 0.10000000E+01 0.94508049E+03</pdfrwt>
<pdfrwt beam="2">  1        2 0.22219113E+00 0.94688066E+03</pdfrwt>
<totfact> 0.16839074E+01</totfact>
</mgrwt>
</event>
<event>
 5    1  0.2675386E-003  0.1703674E+03  0.7818608E-02  0.1177465E+00
         11   -1    0    0    0    0  0.00000000000E+00  0.00000000000E+00  0.10003699896E+04  0.10003699896E+04  0.51100000000E-03 0. -1.
          2   -1    0    0  501    0 -0.00000000000E+00 -0.00000000000E+00 -0.68095932481E+02  0.68095932529E+02  0.25500000000E-02 0. -1.
         11    1    1    2    0    0  0.16660036404E+03 -0.12702641445E+02  0.87182636802E+03  0.88769265761E+03  0.51100000000E-03 0. -1.
         22    1    1    2    0    0 -0.43277727846E+02 -0.44087802009E+01  0.29246707377E+02  0.52419165987E+02  0.00000000000E+00 0.  1.
          2    1    1    2  501    0 -0.12332263619E+03  0.17111421645E+02  0.31200981745E+02  0.12835409856E+03  0.25500000000E-02 0. -1.
<mgrwt>
<rscale>  0 0.17036740E+03</rscale>
<asrwt>0</asrwt>
<pdfrwt beam="1">  1       11 0.10000000E+01 0.16708393E+03</pdfrwt>
<pdfrwt beam="2">  1        2 0.10480173E-01 0.17036740E+03</pdfrwt>
<totfact> 0.72699644E+02</totfact>
</mgrwt>
</event>
<event>
 5    1  0.2675386E-003  0.4694207E+03  0.7818608E-02  0.1236678E+00
         11   -1    0    0    0    0  0.00000000000E+00  0.00000000000E+00  0.99980457220E+03  0.99980457220E+03  0.51100000000E-03 0.  1.
          2   -1    0    0  501    0 -0.00000000000E+00 -0.00000000000E+00 -0.31459583587E+03  0.31459583588E+03  0.25500000000E-02 0.  1.
         11    1    1    2    0    0 -0.16329524312E+01  0.46825366208E+03  0.65262265478E+03  0.80323127935E+03  0.51100000000E-03 0.  1.
         22    1    1    2    0    0  0.32425171650E+02  0.45479699971E+01  0.17499841296E+02  0.37125735454E+02  0.00000000000E+00 0. -1.
          2    1    1    2  501    0 -0.30792219219E+02 -0.47280163208E+03  0.15086240250E+02  0.47404339328E+03  0.25500000000E-02 0.  1.
<mgrwt>
<rscale>  0 0.12397596E+03</rscale>
<asrwt>0</asrwt>
<pdfrwt beam="1">  1       11 0.10000000E+01 0.46942069E+03</pdfrwt>
<pdfrwt beam="2">  1        2 0.48389899E-01 0.12397596E+03</pdfrwt>
<totfact> 0.12877333E+02</totfact>
</mgrwt>
</event>
<event>
 5    1  0.2675386E-003  0.1693312E+03  0.7818608E-02  0.1477951E+00
         11   -1    0    0    0    0  0.00000000000E+00  0.00000000000E+00  0.10002655668E+04  0.10002655668E+04  0.51100000000E-03 0. -1.
          2   -1    0    0  501    0 -0.00000000000E+00 -0.00000000000E+00 -0.42091401943E+02  0.42091402021E+02  0.25500000000E-02 0. -1.
         11    1    1    2    0    0 -0.20250170615E+02  0.17167090837E+03  0.71231535226E+03  0.73298985754E+03  0.51100000000E-03 0. -1.
         22    1    1    2    0    0  0.90359173238E+00 -0.11621089471E+02 -0.37309479849E+01  0.12238716084E+02  0.00000000000E+00 0. -1.
          2    1    1    2  501    0  0.19346578883E+02 -0.16004981890E+03  0.24958976063E+03  0.29712839525E+03  0.25500000000E-02 0. -1.
<mgrwt>
<rscale>  0 0.44426929E+02</rscale>
<asrwt>0</asrwt>
<pdfrwt beam="1">  1       11 0.10000000E+01 0.16933116E+03</pdfrwt>
<pdfrwt beam="2">  1        2 0.64773198E-02 0.44426929E+02</pdfrwt>
<totfact> 0.11934952E+03</totfact>
</mgrwt>
</event>
<event>
 5    1  0.2675386E-003  0.2751476E+03  0.7818608E-02  0.1098369E+00
         11   -1    0    0    0    0  0.00000000000E+00  0.00000000000E+00  0.99984877828E+03  0.99984877828E+03  0.51100000000E-03 0. -1.
          2   -1    0    0  501    0 -0.00000000000E+00 -0.00000000000E+00 -0.27794479208E+03  0.27794479209E+03  0.25500000000E-02 0. -1.
         11    1    1    2    0    0 -0.12205938030E+03 -0.23497487641E+03  0.90786971978E+03  0.94569504226E+03  0.51100000000E-03 0. -1.
         22    1    1    2    0    0  0.23794440694E+02  0.49553140255E+01 -0.23688846773E+02  0.33939534565E+02  0.00000000000E+00 0.  1.
          2    1    1    2  501    0  0.98264939609E+02  0.23001956238E+03 -0.16227688680E+03  0.29815899355E+03  0.25500000000E-02 0. -1.
<mgrwt>
<rscale>  0 0.27514756E+03</rscale>
<asrwt>0</asrwt>
<pdfrwt beam="1">  1       11 0.10000000E+01 0.26478611E+03</pdfrwt>
<pdfrwt beam="2">  1        2 0.42754270E-01 0.27514756E+03</pdfrwt>
<totfact> 0.14743886E+02</totfact>
</mgrwt>
</event>
<event>
 5    1  0.2675386E-003  0.7367594E+02  0.7818608E-02  0.1598342E+00
         11   -1    0    0    0    0  0.00000000000E+00  0.00000000000E+00  0.99999943435E+03  0.99999943435E+03  0.51100000000E-03 0. -1.
          2   -1    0    0  501    0 -0.00000000000E+00 -0.00000000000E+00 -0.73653859324E+01  0.73653863739E+01  0.25500000000E-02 0. -1.
         11    1    1    2    0    0 -0.10383840318E+02 -0.70354768997E+02  0.26474963171E+03  0.27413497615E+03  0.51100000000E-03 0. -1.
         22    1    1    2    0    0 -0.12126191336E+02 -0.13125614399E+01  0.68184473895E+02  0.69266801674E+02  0.00000000000E+00 0. -1.
          2    1    1    2  501    0  0.22510031654E+02  0.71667330437E+02  0.65969994281E+03  0.66396304289E+03  0.25500000000E-02 0. -1.
<mgrwt>
<rscale>  0 0.29977101E+02</rscale>
<asrwt>0</asrwt>
<pdfrwt beam="1">  1       11 0.10000000E+01 0.73675940E+02</pdfrwt>
<pdfrwt beam="2">  1        2 0.11331357E-02 0.29977101E+02</pdfrwt>
<totfact> 0.10581090E+04</totfact>
</mgrwt>
</event>
<event>
 5    1  0.2675386E-003  0.1455635E+03  0.7818608E-02  0.1206033E+00
         11   -1    0    0    0    0  0.00000000000E+00  0.00000000000E+00  0.10003572646E+04  0.10003572646E+04  0.51100000000E-03 0.  1.
          2   -1    0    0  501    0 -0.00000000000E+00 -0.00000000000E+00 -0.31995474574E+02  0.31995474676E+02  0.25500000000E-02 0.  1.
         11    1    1    2    0    0  0.12844101290E+03  0.66069136673E+02  0.78529581422E+03  0.79846837160E+03  0.51100000000E-03 0.  1.
         22    1    1    2    0    0 -0.10939371027E+02 -0.11025210191E+02  0.24310873116E+02  0.28848633415E+02  0.00000000000E+00 0.  1.
          2    1    1    2  501    0 -0.11750164187E+03 -0.55043926482E+02  0.15875510266E+03  0.20503573423E+03  0.25500000000E-02 0.  1.
<mgrwt>
<rscale>  0 0.14556355E+03</rscale>
<asrwt>0</asrwt>
<pdfrwt beam="1">  1       11 0.10000000E+01 0.14443761E+03</pdfrwt>
<pdfrwt beam="2">  1        2 0.49241392E-02 0.14556355E+03</pdfrwt>
<totfact> 0.18802689E+03</totfact>
</mgrwt>
</event>
<event>
 5    1  0.2675386E-003  0.4152174E+02  0.7818608E-02  0.1631581E+00
         11   -1    0    0    0    0  0.00000000000E+00  0.00000000000E+00  0.99991387934E+03  0.99991387934E+03  0.51100000000E-03 0. -1.
          2   -1    0    0  501    0 -0.00000000000E+00 -0.00000000000E+00 -0.51828128182E+01  0.51828134455E+01  0.25500000000E-02 0. -1.
         11    1    1    2    0    0  0.44409917955E+01 -0.42672196506E+02  0.23885279820E+03  0.24267529328E+03  0.51100000000E-03 0. -1.
         22    1    1    2    0    0 -0.17567139976E+02  0.27861914339E+01  0.26984872656E+02  0.32319508379E+02  0.00000000000E+00 0.  1.
          2    1    1    2  501    0  0.13126148180E+02  0.39886005072E+02  0.72889339567E+03  0.73010189113E+03  0.25500000000E-02 0. -1.
<mgrwt>
<rscale>  0 0.27176002E+02</rscale>
<asrwt>0</asrwt>
<pdfrwt beam="1">  1       11 0.10000000E+01 0.41521743E+02</pdfrwt>
<pdfrwt beam="2">  1        2 0.79728718E-03 0.27176002E+02</pdfrwt>
<totfact> 0.16449807E+04</totfact>
</mgrwt>
</event>
<event>
 5    1  0.2675386E-003  0.1144111E+03  0.7818608E-02  0.1252613E+00
         11   -1    0    0    0    0  0.00000000000E+00  0.00000000000E+00  0.10001076036E+04  0.10001076036E+04  0.51100000000E-03 0.  1.
          2   -1    0    0  501    0 -0.00000000000E+00 -0.00000000000E+00 -0.14467690460E+02  0.14467690685E+02  0.25500000000E-02 0.  1.
         11    1    1    2    0    0 -0.83369556764E+01  0.10906460694E+03  0.29712931564E+03  0.31662347280E+03  0.51100000000E-03 0.  1.
         22    1    1    2    0    0 -0.11498270302E+02 -0.57763768146E+02  0.32296004279E+03  0.32828654004E+03  0.00000000000E+00 0.  1.
          2    1    1    2  501    0  0.19835225978E+02 -0.51300838792E+02  0.36555055471E+03  0.36966528144E+03  0.25500000000E-02 0.  1.
<mgrwt>
<rscale>  0 0.11441111E+03</rscale>
<asrwt>0</asrwt>
<pdfrwt beam="1">  1       11 0.10000000E+01 0.10938284E+03</pdfrwt>
<pdfrwt beam="2">  1        2 0.22260380E-02 0.11441111E+03</pdfrwt>
<totfact> 0.52955315E+03</totfact>
</mgrwt>
</event>
<event>
 5    1  0.2675386E-003  0.3321679E+03  0.7818608E-02  0.1070182E+00
         11   -1    0    0    0    0  0.00000000000E+00  0.00000000000E+00  0.10002768230E+04  0.10002768230E+04  0.51100000000E-03 0. -1.
          2   -1    0    0  501    0 -0.00000000000E+00 -0.00000000000E+00 -0.14613659005E+03  0.14613659007E+03  0.25500000000E-02 0. -1.
         11    1    1    2    0    0  0.32226460848E+03  0.46878870055E+02  0.71616322085E+03  0.78672858422E+03  0.51100000000E-03 0. -1.
         22    1    1    2    0    0 -0.49089896429E+02  0.14291430782E+02  0.11021066936E+02  0.52302264211E+02  0.00000000000E+00 0.  1.
          2    1    1    2  501    0 -0.27317471205E+03 -0.61170300837E+02  0.12695594512E+03  0.30738256459E+03  0.25500000000E-02 0. -1.
<mgrwt>
<rscale>  0 0.33216791E+03</rscale>
<asrwt>0</asrwt>
<pdfrwt beam="1">  1       11 0.10000000E+01 0.32565642E+03</pdfrwt>
<pdfrwt beam="2">  1        2 0.22488775E-01 0.33216791E+03</pdfrwt>
<totfact> 0.30115947E+02</totfact>
</mgrwt>
</event>
<event>
 5    1  0.2675386E-003  0.4606295E+03  0.7818608E-02  0.1024599E+00
         11   -1    0    0    0    0  0.00000000000E+00  0.00000000000E+00  0.10001678413E+04  0.10001678413E+04  0.51100000000E-03 0. -1.
          2   -1    0    0  501    0 -0.00000000000E+00 -0.00000000000E+00 -0.22575549938E+03  0.22575549940E+03  0.25500000000E-02 0. -1.
         11    1    1    2    0    0  0.31702013249E+02  0.44800265626E+03  0.55995714746E+03  0.71781850398E+03  0.51100000000E-03 0. -1.
         22    1    1    2    0    0  0.11617608505E+02 -0.66109496427E+02 -0.17096022902E+01  0.67144300467E+02  0.00000000000E+00 0.  1.
          2    1    1    2  501    0 -0.43319621754E+02 -0.38189315983E+03  0.21616479671E+03  0.44096053621E+03  0.25500000000E-02 0. -1.
<mgrwt>
<rscale>  0 0.46062945E+03</rscale>
<asrwt>0</asrwt>
<pdfrwt beam="1">  1       11 0.10000000E+01 0.44912292E+03</pdfrwt>
<pdfrwt beam="2">  1        2 0.34737444E-01 0.46062945E+03</pdfrwt>
<totfact> 0.18564120E+02</totfact>
</mgrwt>
</event>
<event>
 5    1  0.2675386E-003  0.1956860E+03  0.7818608E-02  0.1153431E+00
         11   -1    0    0    0    0  0.00000000000E+00  0.00000000000E+00  0.10008282136E+04  0.10008282136E+04  0.51100000000E-03 0. -1.
         -2   -1    0    0    0  501 -0.00000000000E+00 -0.00000000000E+00 -0.83660562725E+02  0.83660562764E+02  0.25500000000E-02 0.  1.
         11    1    1    2    0    0 -0.14526625811E+03  0.10787395516E+03  0.86254969104E+03  0.88132346245E+03  0.51100000000E-03 0. -1.
         22    1    1    2    0    0  0.87749520003E+02 -0.91150017004E+02  0.71276710065E+01  0.12672453415E+03  0.00000000000E+00 0.  1.
         -2    1    1    2    0  501  0.57516738107E+02 -0.16723938153E+02  0.47490288783E+02  0.76440779725E+02  0.25500000000E-02 0.  1.
<mgrwt>
<rscale>  0 0.19568603E+03</rscale>
<asrwt>0</asrwt>
<pdfrwt beam="1">  1       11 0.10000000E+01 0.18093943E+03</pdfrwt>
<pdfrwt beam="2">  1       -2 0.12881515E-01 0.19568603E+03</pdfrwt>
<totfact> 0.34746072E+02</totfact>
</mgrwt>
</event>
<event>
 5    1  0.2675386E-003  0.6964795E+02  0.7818608E-02  0.1536612E+00
         11   -1    0    0    0    0  0.00000000000E+00  0.00000000000E+00  0.10003298426E+04  0.10003298426E+04  0.51100000000E-03 0. -1.
          2   -1    0    0  501    0 -0.00000000000E+00 -0.00000000000E+00 -0.20340893555E+02  0.20340893715E+02  0.25500000000E-02 0. -1.
         11    1    1    2    0    0 -0.56164861688E+02  0.23946816263E+02  0.37063108028E+02  0.71425595374E+02  0.51100000000E-03 0. -1.
         22    1    1    2    0    0 -0.13523606154E+02 -0.13361254371E+02  0.49219014155E+02  0.52762888437E+02  0.00000000000E+00 0.  1.
          2    1    1    2  501    0  0.69688467842E+02 -0.10585561892E+02  0.89370682684E+03  0.89648225248E+03  0.25500000000E-02 0. -1.
<mgrwt>
<rscale>  0 0.36387685E+02</rscale>
<asrwt>0</asrwt>
<pdfrwt beam="1">  1       11 0.10000000E+01 0.69647953E+02</pdfrwt>
<pdfrwt beam="2">  1        2 0.31304004E-02 0.36387685E+02</pdfrwt>
<totfact> 0.29144297E+03</totfact>
</mgrwt>
</event>
<event>
 5    1  0.2675386E-003  0.1679337E+03  0.7818608E-02  0.1427226E+00
         11   -1    0    0    0    0  0.00000000000E+00  0.00000000000E+00  0.10002168302E+04  0.10002168302E+04  0.51100000000E-03 0.  1.
         -2   -1    0    0    0  501 -0.00000000000E+00 -0.00000000000E+00 -0.12460401684E+03  0.12460401687E+03  0.25500000000E-02 0. -1.
         11    1    1    2    0    0  0.15384139787E+03 -0.66480479275E+02  0.91236974263E+03  0.92763429060E+03  0.51100000000E-03 0.  1.
         22    1    1    2    0    0 -0.22070258877E+01 -0.16913891989E+02 -0.15104113989E+02  0.22783436196E+02  0.00000000000E+00 0. -1.
         -2    1    1    2    0  501 -0.15163437198E+03  0.83394371264E+02 -0.21652815332E+02  0.17440312022E+03  0.25500000000E-02 0. -1.
<mgrwt>
<rscale>  0 0.53520953E+02</rscale>
<asrwt>0</asrwt>
<pdfrwt beam="1">  1       11 0.10000000E+01 0.16793375E+03</pdfrwt>
<pdfrwt beam="2">  1       -2 0.19174005E-01 0.53520953E+02</pdfrwt>
<totfact> 0.17068536E+02</totfact>
</mgrwt>
</event>
<event>
 5    1  0.2675386E-003  0.1380891E+03  0.7818608E-02  0.1428874E+00
         11   -1    0    0    0    0  0.00000000000E+00  0.00000000000E+00  0.10001420863E+04  0.10001420863E+04  0.51100000000E-03 0.  1.
          2   -1    0    0  501    0 -0.00000000000E+00 -0.00000000000E+00 -0.37283072006E+02  0.37283072093E+02  0.25500000000E-02 0.  1.
         11    1    1    2    0    0 -0.11178115406E+03 -0.84807838034E+02  0.81477130795E+03  0.82676458563E+03  0.51100000000E-03 0.  1.
         22    1    1    2    0    0  0.19667950111E+02 -0.57296044658E+01  0.16826315421E+02  0.26510026774E+02  0.00000000000E+00 0. -1.
          2    1    1    2  501    0  0.92113203950E+02  0.90537442500E+02  0.13126139094E+03  0.18415054601E+03  0.25500000000E-02 0.  1.
<mgrwt>
<rscale>  0 0.53186724E+02</rscale>
<asrwt>0</asrwt>
<pdfrwt beam="1">  1       11 0.10000000E+01 0.13808911E+03</pdfrwt>
<pdfrwt beam="2">  1        2 0.57366721E-02 0.53186724E+02</pdfrwt>
<totfact> 0.14127414E+03</totfact>
</mgrwt>
</event>
<event>
 5    1  0.2675386E-003  0.5192727E+02  0.7818608E-02  0.1516817E+00
         11   -1    0    0    0    0  0.00000000000E+00  0.00000000000E+00  0.99987555040E+03  0.99987555040E+03  0.51100000000E-03 0. -1.
          2   -1    0    0  501    0 -0.00000000000E+00 -0.00000000000E+00 -0.87203589892E+01  0.87203593620E+01  0.25500000000E-02 0. -1.
         11    1    1    2    0    0  0.38686490211E+02  0.39786007408E+02  0.11850204644E+03  0.13085222933E+03  0.51100000000E-03 0. -1.
         22    1    1    2    0    0  0.12025515224E+02 -0.26468703116E+02  0.12858927109E+03  0.13183476742E+03  0.00000000000E+00 0. -1.
          2    1    1    2  501    0 -0.50712005435E+02 -0.13317304292E+02  0.74406387388E+03  0.74590891301E+03  0.25500000000E-02 0. -1.
<mgrwt>
<rscale>  0 0.38854221E+02</rscale>
<asrwt>0</asrwt>
<pdfrwt beam="1">  1       11 0.10000000E+01 0.51927274E+02</pdfrwt>
<pdfrwt beam="2">  1        2 0.13414267E-02 0.38854221E+02</pdfrwt>
<totfact> 0.89018183E+03</totfact>
</mgrwt>
</event>
<event>
 5    1  0.2675386E-003  0.2084718E+03  0.7818608E-02  0.1142782E+00
         11   -1    0    0    0    0  0.00000000000E+00  0.00000000000E+00  0.10001178656E+04  0.10001178656E+04  0.51100000000E-03 0. -1.
          2   -1    0    0  501    0 -0.00000000000E+00 -0.00000000000E+00 -0.50755548432E+02  0.50755548496E+02  0.25500000000E-02 0. -1.
         11    1    1    2    0    0 -0.20134002808E+03  0.43884400987E+02  0.67832801109E+03  0.70893761234E+03  0.51100000000E-03 0. -1.
         22    1    1    2    0    0  0.10158718442E+02  0.47106001430E+01  0.15449612854E+02  0.19080876590E+02  0.00000000000E+00 0.  1.
          2    1    1    2  501    0  0.19118130964E+03 -0.48595001130E+02  0.25558469324E+03  0.32285492519E+03  0.25500000000E-02 0. -1.
<mgrwt>
<rscale>  0 0.20847181E+03</rscale>
<asrwt>0</asrwt>
<pdfrwt beam="1">  1       11 0.10000000E+01 0.20606709E+03</pdfrwt>
<pdfrwt beam="2">  1        2 0.78094661E-02 0.20847181E+03</pdfrwt>
<totfact> 0.10621969E+03</totfact>
</mgrwt>
</event>
<event>
 5    1  0.2675386E-003  0.8742162E+02  0.7818608E-02  0.1309219E+00
         11   -1    0    0    0    0  0.00000000000E+00  0.00000000000E+00  0.10002354627E+04  0.10002354627E+04  0.51100000000E-03 0. -1.
          2   -1    0    0  501    0 -0.00000000000E+00 -0.00000000000E+00 -0.71805088259E+01  0.71805092786E+01  0.25500000000E-02 0. -1.
         11    1    1    2    0    0 -0.32892977172E+02 -0.74799613901E+02  0.44697164948E+03  0.45437934111E+03  0.51100000000E-03 0. -1.
         22    1    1    2    0    0  0.63307512657E+01  0.20789182207E+02  0.73789312298E+02  0.76922890727E+02  0.00000000000E+00 0. -1.
          2    1    1    2  501    0  0.26562225906E+02  0.54010431694E+02  0.47229399212E+03  0.47611374016E+03  0.25500000000E-02 0. -1.
<mgrwt>
<rscale>  0 0.87421621E+02</rscale>
<asrwt>0</asrwt>
<pdfrwt beam="1">  1       11 0.10000000E+01 0.81712526E+02</pdfrwt>
<pdfrwt beam="2">  1        2 0.11049538E-02 0.87421621E+02</pdfrwt>
<totfact> 0.13238920E+04</totfact>
</mgrwt>
</event>
<event>
 5    1  0.2675386E-003  0.2295597E+03  0.7818608E-02  0.1126950E+00
         11   -1    0    0    0    0  0.00000000000E+00  0.00000000000E+00  0.10000535036E+04  0.10000535036E+04  0.51100000000E-03 0.  1.
         -2   -1    0    0    0  501 -0.00000000000E+00 -0.00000000000E+00 -0.54480254838E+02  0.54480254897E+02  0.25500000000E-02 0.  1.
         11    1    1    2    0    0  0.14889325672E+03 -0.17200118269E+03  0.57809213277E+03  0.62124401222E+03  0.51100000000E-03 0.  1.
         22    1    1    2    0    0 -0.87072965642E+01  0.92422627072E+01  0.97075920299E+01  0.15983547054E+02  0.00000000000E+00 0.  1.
         -2    1    1    2    0  501 -0.14018596016E+03  0.16275891998E+03  0.35777352396E+03  0.41730619923E+03  0.25500000000E-02 0.  1.
<mgrwt>
<rscale>  0 0.22955965E+03</rscale>
<asrwt>0</asrwt>
<pdfrwt beam="1">  1       11 0.10000000E+01 0.22749419E+03</pdfrwt>
<pdfrwt beam="2">  1       -2 0.83820259E-02 0.22955965E+03</pdfrwt>
<totfact> 0.69486976E+02</totfact>
</mgrwt>
</event>
<event>
 5    1  0.3595704E-003  0.2458136E+03  0.7818608E-02  0.1115979E+00
         11   -1    0    0    0    0  0.00000000000E+00  0.00000000000E+00  0.10001160030E+04  0.10001160030E+04  0.51100000000E-03 0. -1.
          2   -1    0    0  501    0 -0.00000000000E+00 -0.00000000000E+00 -0.40015928109E+03  0.40015928110E+03  0.25500000000E-02 0. -1.
         11    1    1    2    0    0  0.14779014540E+03  0.19322840748E+03  0.94545762788E+03  0.97625266742E+03  0.51100000000E-03 0. -1.
         22    1    1    2    0    0 -0.97384384543E+01 -0.42526577001E+01 -0.25058565319E+02  0.27218632899E+02  0.00000000000E+00 0. -1.
          2    1    1    2  501    0 -0.13805170695E+03 -0.18897574978E+03 -0.32044234069E+03  0.39680398374E+03  0.25500000000E-02 0. -1.
<mgrwt>
<rscale>  0 0.24581355E+03</rscale>
<asrwt>0</asrwt>
<pdfrwt beam="1">  1       11 0.10000000E+01 0.24326764E+03</pdfrwt>
<pdfrwt beam="2">  1        2 0.61570106E-01 0.24581355E+03</pdfrwt>
<totfact> 0.99303372E+01</totfact>
</mgrwt>
</event>
<event>
 5    1  0.2675386E-003  0.2286373E+03  0.7818608E-02  0.1355406E+00
         11   -1    0    0    0    0  0.00000000000E+00  0.00000000000E+00  0.10002855071E+04  0.10002855071E+04  0.51100000000E-03 0. -1.
          2   -1    0    0  501    0 -0.00000000000E+00 -0.00000000000E+00 -0.10356690726E+03  0.10356690730E+03  0.25500000000E-02 0.  1.
         11    1    1    2    0    0  0.21946799147E+03  0.10249796134E+03  0.76981317112E+03  0.80702190168E+03  0.51100000000E-03 0. -1.
         22    1    1    2    0    0 -0.16926003965E+03 -0.51736702767E+02  0.34944308700E+02  0.18040718430E+03  0.00000000000E+00 0.  1.
          2    1    1    2  501    0 -0.50207951820E+02 -0.50761258573E+02  0.91961120012E+02  0.11642332841E+03  0.25500000000E-02 0.  1.
<mgrwt>
<rscale>  0 0.71397085E+02</rscale>
<asrwt>0</asrwt>
<pdfrwt beam="1">  1       11 0.10000000E+01 0.22863730E+03</pdfrwt>
<pdfrwt beam="2">  1        2 0.15937919E-01 0.71397085E+02</pdfrwt>
<totfact> 0.42353013E+02</totfact>
</mgrwt>
</event>
<event>
 5    1  0.2675386E-003  0.1302200E+03  0.7818608E-02  0.1227130E+00
         11   -1    0    0    0    0  0.00000000000E+00  0.00000000000E+00  0.99973142368E+03  0.99973142368E+03  0.51100000000E-03 0.  1.
         -2   -1    0    0    0  501 -0.00000000000E+00 -0.00000000000E+00 -0.17755847589E+02  0.17755847772E+02  0.25500000000E-02 0. -1.
         11    1    1    2    0    0 -0.91125793343E+02  0.90039425798E+02  0.61199889528E+03  0.62526286971E+03  0.51100000000E-03 0.  1.
         22    1    1    2    0    0  0.69552309005E+01 -0.11519429776E+02  0.61894771300E+02  0.63340628458E+02  0.00000000000E+00 0. -1.
         -2    1    1    2    0  501  0.84170562443E+02 -0.78519996022E+02  0.30808190951E+03  0.32888377329E+03  0.25500000000E-02 0. -1.
<mgrwt>
<rscale>  0 0.13021996E+03</rscale>
<asrwt>0</asrwt>
<pdfrwt beam="1">  1       11 0.10000000E+01 0.12810546E+03</pdfrwt>
<pdfrwt beam="2">  1       -2 0.27309351E-02 0.13021996E+03</pdfrwt>
<totfact> 0.36032711E+03</totfact>
</mgrwt>
</event>
<event>
 5    1  0.2675386E-003  0.3459506E+03  0.7818608E-02  0.1064289E+00
         11   -1    0    0    0    0  0.00000000000E+00  0.00000000000E+00  0.10004368403E+04  0.10004368404E+04  0.51100000000E-03 0. -1.
          2   -1    0    0  501    0 -0.00000000000E+00 -0.00000000000E+00 -0.15814080100E+04  0.15814080100E+04  0.25500000000E-02 0. -1.
         11    1    1    2    0    0 -0.52458456794E+02 -0.52257274507E+02  0.41421469523E+03  0.42078085290E+03  0.51100000000E-03 0. -1.
         22    1    1    2    0    0  0.26692914615E+01  0.34771093342E+03 -0.15186320525E+04  0.15579323891E+04  0.00000000000E+00 0. -1.
          2    1    1    2  501    0  0.49789165333E+02 -0.29545365892E+03  0.52344618763E+03  0.60313160827E+03  0.25500000000E-02 0. -1.
<mgrwt>
<rscale>  0 0.34595058E+03</rscale>
<asrwt>0</asrwt>
<pdfrwt beam="1">  1       11 0.10000000E+01 0.74045340E+02</pdfrwt>
<pdfrwt beam="2">  1        2 0.24339981E+00 0.34595058E+03</pdfrwt>
<totfact> 0.15176267E+01</totfact>
</mgrwt>
</event>
<event>
 5    1  0.2675386E-003  0.1438784E+03  0.7818608E-02  0.1208204E+00
         11   -1    0    0    0    0  0.00000000000E+00  0.00000000000E+00  0.10004074538E+04  0.10004074538E+04  0.51100000000E-03 0.  1.
          2   -1    0    0  501    0 -0.00000000000E+00 -0.00000000000E+00 -0.40213114247E+02  0.40213114328E+02  0.25500000000E-02 0.  1.
         11    1    1    2    0    0  0.32346503332E+02  0.13760621253E+03  0.84379528587E+03  0.85555376831E+03  0.51100000000E-03 0.  1.
         22    1    1    2    0    0  0.14728520588E+01 -0.41230925132E+02  0.26783372052E+02  0.49188489496E+02  0.00000000000E+00 0.  1.
          2    1    1    2  501    0 -0.33819355391E+02 -0.96375287395E+02  0.89615681663E+02  0.13587831036E+03  0.25500000000E-02 0.  1.
<mgrwt>
<rscale>  0 0.14387835E+03</rscale>
<asrwt>0</asrwt>
<pdfrwt beam="1">  1       11 0.10000000E+01 0.14135687E+03</pdfrwt>
<pdfrwt beam="2">  1        2 0.61891536E-02 0.14387835E+03</pdfrwt>
<totfact> 0.13960789E+03</totfact>
</mgrwt>
</event>
<event>
 5    1  0.2675386E-003  0.1234902E+03  0.7818608E-02  0.1237448E+00
         11   -1    0    0    0    0  0.00000000000E+00  0.00000000000E+00  0.10003881847E+04  0.10003881847E+04  0.51100000000E-03 0. -1.
          2   -1    0    0  501    0 -0.00000000000E+00 -0.00000000000E+00 -0.14212627730E+02  0.14212627959E+02  0.25500000000E-02 0. -1.
         11    1    1    2    0    0 -0.84558085865E+02  0.76035598621E+02  0.42068755705E+03  0.43578607458E+03  0.51100000000E-03 0. -1.
         22    1    1    2    0    0  0.24327893336E+02 -0.11297369738E+02  0.61010140477E+02  0.66646186674E+02  0.00000000000E+00 0. -1.
          2    1    1    2  501    0  0.60230192529E+02 -0.64738228883E+02  0.50447785941E+03  0.51216855137E+03  0.25500000000E-02 0. -1.
<mgrwt>
<rscale>  0 0.12349017E+03</rscale>
<asrwt>0</asrwt>
<pdfrwt beam="1">  1       11 0.10000000E+01 0.11371673E+03</pdfrwt>
<pdfrwt beam="2">  1        2 0.21874069E-02 0.12349017E+03</pdfrwt>
<totfact> 0.54714147E+03</totfact>
</mgrwt>
</event>
<event>
 5    1  0.2675386E-003  0.2326870E+03  0.7818608E-02  0.1124763E+00
         11   -1    0    0    0    0  0.00000000000E+00  0.00000000000E+00  0.10004438848E+04  0.10004438848E+04  0.51100000000E-03 0. -1.
         -2   -1    0    0    0  501 -0.00000000000E+00 -0.00000000000E+00 -0.51786928481E+03  0.51786928482E+03  0.25500000000E-02 0.  1.
         11    1    1    2    0    0 -0.32199468599E+02  0.22599165751E+03  0.96023282125E+03  0.98699346808E+03  0.51100000000E-03 0. -1.
         22    1    1    2    0    0 -0.63605372324E+01 -0.59497826407E+02 -0.95633959158E+02  0.11281091226E+03  0.00000000000E+00 0.  1.
         -2    1    1    2    0  501  0.38560005831E+02 -0.16649383110E+03 -0.38202426211E+03  0.41850878926E+03  0.25500000000E-02 0.  1.
<mgrwt>
<rscale>  0 0.23268702E+03</rscale>
<asrwt>0</asrwt>
<pdfrwt beam="1">  1       11 0.10000000E+01 0.22827403E+03</pdfrwt>
<pdfrwt beam="2">  1       -2 0.79707561E-01 0.23268702E+03</pdfrwt>
<totfact> 0.11699539E+01</totfact>
</mgrwt>
</event>
<event>
 5    1  0.2675386E-003  0.8996945E+02  0.7818608E-02  0.1302926E+00
         11   -1    0    0    0    0  0.00000000000E+00  0.00000000000E+00  0.10000357883E+04  0.10000357883E+04  0.51100000000E-03 0. -1.
          2   -1    0    0  501    0 -0.00000000000E+00 -0.00000000000E+00 -0.78621572355E+01  0.78621576490E+01  0.25500000000E-02 0. -1.
         11    1    1    2    0    0  0.52104282042E+02  0.70112887621E+02  0.48166928469E+03  0.48952627410E+03  0.51100000000E-03 0. -1.
         22    1    1    2    0    0 -0.23356921065E+02 -0.17119807033E+02  0.13636286795E+03  0.13940396447E+03  0.00000000000E+00 0.  1.
          2    1    1    2  501    0 -0.28747360977E+02 -0.52993080587E+02  0.37414147838E+03  0.37896770734E+03  0.25500000000E-02 0. -1.
<mgrwt>
<rscale>  0 0.89969453E+02</rscale>
<asrwt>0</asrwt>
<pdfrwt beam="1">  1       11 0.10000000E+01 0.87353768E+02</pdfrwt>
<pdfrwt beam="2">  1        2 0.12096059E-02 0.89969453E+02</pdfrwt>
<totfact> 0.11752665E+04</totfact>
</mgrwt>
</event>
<event>
 5    1  0.2675386E-003  0.1830686E+03  0.7818608E-02  0.1269120E+00
         11   -1    0    0    0    0  0.00000000000E+00  0.00000000000E+00  0.99994989566E+03  0.99994989566E+03  0.51100000000E-03 0. -1.
          2   -1    0    0  501    0 -0.00000000000E+00 -0.00000000000E+00 -0.57920409633E+03  0.57920409634E+03  0.25500000000E-02 0.  1.
         11    1    1    2    0    0 -0.18604897477E+03 -0.35774293026E+01  0.96184848651E+03  0.97968338253E+03  0.51100000000E-03 0. -1.
         22    1    1    2    0    0  0.11293904941E+03 -0.72495299269E+02 -0.18831234831E+03  0.23124086538E+03  0.00000000000E+00 0.  1.
          2    1    1    2  501    0  0.73109925364E+02  0.76072728572E+02 -0.35279033887E+03  0.36822974408E+03  0.25500000000E-02 0.  1.
<mgrwt>
<rscale>  0 0.10550887E+03</rscale>
<asrwt>0</asrwt>
<pdfrwt beam="1">  1       11 0.10000000E+01 0.18306856E+03</pdfrwt>
<pdfrwt beam="2">  1        2 0.89103855E-01 0.10550887E+03</pdfrwt>
<totfact> 0.66899660E+01</totfact>
</mgrwt>
</event>
<event>
 5    1  0.2675386E-003  0.5869729E+02  0.7818608E-02  0.1487584E+00
         11   -1    0    0    0    0  0.00000000000E+00  0.00000000000E+00  0.10004537812E+04  0.10004537812E+04  0.51100000000E-03 0.  1.
          2   -1    0    0  501    0 -0.00000000000E+00 -0.00000000000E+00 -0.79613552492E+01  0.79613556576E+01  0.25500000000E-02 0.  1.
         11    1    1    2    0    0  0.23162813708E+02 -0.38035615784E+02  0.20827492884E+03  0.21298279271E+03  0.51100000000E-03 0.  1.
         22    1    1    2    0    0 -0.29354486495E+02  0.80533411265E+02  0.41747734605E+03  0.42618616903E+03  0.00000000000E+00 0.  1.
          2    1    1    2  501    0  0.61916727865E+01 -0.42497795481E+02  0.36674015102E+03  0.36924617508E+03  0.25500000000E-02 0.  1.
<mgrwt>
<rscale>  0 0.42946472E+02</rscale>
<asrwt>0</asrwt>
<pdfrwt beam="1">  1       11 0.10000000E+01 0.58697287E+02</pdfrwt>
<pdfrwt beam="2">  1        2 0.12253797E-02 0.42946472E+02</pdfrwt>
<totfact> 0.10221506E+04</totfact>
</mgrwt>
</event>
<event>
 5    1  0.2675386E-003  0.2296102E+03  0.7818608E-02  0.1126914E+00
         11   -1    0    0    0    0  0.00000000000E+00  0.00000000000E+00  0.10001629982E+04  0.10001629982E+04  0.51100000000E-03 0.  1.
          2   -1    0    0  501    0 -0.00000000000E+00 -0.00000000000E+00 -0.10918102263E+03  0.10918102266E+03  0.25500000000E-02 0.  1.
         11    1    1    2    0    0  0.21206519868E+03 -0.66217604077E+02  0.84688182713E+03  0.87553712012E+03  0.51100000000E-03 0.  1.
         22    1    1    2    0    0 -0.70457507881E+02  0.24796399442E+02 -0.12593972870E+02  0.75747805214E+02  0.00000000000E+00 0.  1.
          2    1    1    2  501    0 -0.14160769080E+03  0.41421204635E+02  0.56694121337E+02  0.15805909555E+03  0.25500000000E-02 0.  1.
<mgrwt>
<rscale>  0 0.22961020E+03</rscale>
<asrwt>0</asrwt>
<pdfrwt beam="1">  1       11 0.10000000E+01 0.22216305E+03</pdfrwt>
<pdfrwt beam="2">  1        2 0.16799818E-01 0.22961020E+03</pdfrwt>
<totfact> 0.41783410E+02</totfact>
</mgrwt>
</event>
<event>
 5    1  0.2675386E-003  0.1387596E+03  0.7818608E-02  0.1215008E+00
         11   -1    0    0    0    0  0.00000000000E+00  0.00000000000E+00  0.10002161008E+04  0.10002161008E+04  0.51100000000E-03 0.  1.
          2   -1    0    0  501    0 -0.00000000000E+00 -0.00000000000E+00 -0.26244947922E+02  0.26244948046E+02  0.25500000000E-02 0.  1.
         11    1    1    2    0    0  0.93905787798E+02 -0.10061138626E+03  0.75344642099E+03  0.76591282620E+03  0.51100000000E-03 0.  1.
         22    1    1    2    0    0 -0.11970077495E+02  0.67659110683E+01  0.16308549663E+02  0.21331411110E+02  0.00000000000E+00 0. -1.
          2    1    1    2  501    0 -0.81935710303E+02  0.93845475192E+02  0.20421618226E+03  0.23921681157E+03  0.25500000000E-02 0.  1.
<mgrwt>
<rscale>  0 0.13875957E+03</rscale>
<asrwt>0</asrwt>
<pdfrwt beam="1">  1       11 0.10000000E+01 0.13762612E+03</pdfrwt>
<pdfrwt beam="2">  1        2 0.40385567E-02 0.13875957E+03</pdfrwt>
<totfact> 0.24314089E+03</totfact>
</mgrwt>
</event>
<event>
 5    1  0.2675386E-003  0.1662454E+03  0.7818608E-02  0.1205168E+00
         11   -1    0    0    0    0  0.00000000000E+00  0.00000000000E+00  0.10002053740E+04  0.10002053740E+04  0.51100000000E-03 0.  1.
          2   -1    0    0  501    0 -0.00000000000E+00 -0.00000000000E+00 -0.22793397612E+03  0.22793397613E+03  0.25500000000E-02 0.  1.
         11    1    1    2    0    0  0.23363039880E+03 -0.77304700946E+02 -0.12075742533E+03  0.27411956479E+03  0.51100000000E-03 0.  1.
         22    1    1    2    0    0 -0.15493426136E+03 -0.45958099980E+02  0.27541229685E+03  0.31932539134E+03  0.00000000000E+00 0.  1.
          2    1    1    2  501    0 -0.78696137434E+02  0.12326280093E+03  0.61761652634E+03  0.63469439398E+03  0.25500000000E-02 0.  1.
<mgrwt>
<rscale>  0 0.14624227E+03</rscale>
<asrwt>0</asrwt>
<pdfrwt beam="1">  1       11 0.10000000E+01 0.16624544E+03</pdfrwt>
<pdfrwt beam="2">  1        2 0.35073966E-01 0.14624227E+03</pdfrwt>
<totfact> 0.18153869E+02</totfact>
</mgrwt>
</event>
<event>
 5    1  0.2675386E-003  0.1811559E+03  0.7818608E-02  0.1166689E+00
         11   -1    0    0    0    0  0.00000000000E+00  0.00000000000E+00  0.99989523580E+03  0.99989523580E+03  0.51100000000E-03 0.  1.
          2   -1    0    0  501    0 -0.00000000000E+00 -0.00000000000E+00 -0.65029157781E+03  0.65029157782E+03  0.25500000000E-02 0.  1.
         11    1    1    2    0    0  0.75794886245E+02  0.15196860930E+03  0.97983168617E+03  0.99443926724E+03  0.51100000000E-03 0.  1.
         22    1    1    2    0    0  0.11085296743E+01 -0.60282432309E+02 -0.24803562207E+03  0.25525843825E+03  0.00000000000E+00 0.  1.
          2    1    1    2  501    0 -0.76903415920E+02 -0.91686176987E+02 -0.38219240612E+03  0.40048910813E+03  0.25500000000E-02 0.  1.
<mgrwt>
<rscale>  0 0.18115595E+03</rscale>
<asrwt>0</asrwt>
<pdfrwt beam="1">  1       11 0.10000000E+01 0.16982144E+03</pdfrwt>
<pdfrwt beam="2">  1        2 0.10003437E+00 0.18115595E+03</pdfrwt>
<totfact> 0.57847686E+01</totfact>
</mgrwt>
</event>
<event>
 5    1  0.2675386E-003  0.1327576E+03  0.7818608E-02  0.1223420E+00
         11   -1    0    0    0    0  0.00000000000E+00  0.00000000000E+00  0.99998427000E+03  0.99998427000E+03  0.51100000000E-03 0.  1.
          2   -1    0    0  501    0 -0.00000000000E+00 -0.00000000000E+00 -0.22405760362E+02  0.22405760507E+02  0.25500000000E-02 0.  1.
         11    1    1    2    0    0  0.26109967509E+02  0.12559193297E+03  0.73266024104E+03  0.74380514440E+03  0.51100000000E-03 0.  1.
         22    1    1    2    0    0 -0.19176893180E+02 -0.25123992979E+02  0.49210311694E+02  0.58486092639E+02  0.00000000000E+00 0.  1.
          2    1    1    2  501    0 -0.69330743296E+01 -0.10046793999E+03  0.19570795691E+03  0.22009879348E+03  0.25500000000E-02 0.  1.
<mgrwt>
<rscale>  0 0.13275760E+03</rscale>
<asrwt>0</asrwt>
<pdfrwt beam="1">  1       11 0.10000000E+01 0.12827729E+03</pdfrwt>
<pdfrwt beam="2">  1        2 0.34469857E-02 0.13275760E+03</pdfrwt>
<totfact> 0.29890122E+03</totfact>
</mgrwt>
</event>
<event>
 5    1  0.2675386E-003  0.4057639E+02  0.7818608E-02  0.1504012E+00
         11   -1    0    0    0    0  0.00000000000E+00  0.00000000000E+00  0.99959175049E+03  0.99959175049E+03  0.51100000000E-03 0. -1.
          2   -1    0    0  501    0 -0.00000000000E+00 -0.00000000000E+00 -0.63252402271E+01  0.63252407411E+01  0.25500000000E-02 0. -1.
         11    1    1    2    0    0  0.17911712020E+02 -0.36127267684E+02  0.14500316736E+03  0.15050557280E+03  0.51100000000E-03 0. -1.
         22    1    1    2    0    0 -0.43410809059E+02 -0.13749170868E+00  0.16193532414E+03  0.16765311346E+03  0.00000000000E+00 0.  1.
          2    1    1    2  501    0  0.25499097038E+02  0.36264759393E+02  0.68632801876E+03  0.68775830497E+03  0.25500000000E-02 0. -1.
<mgrwt>
<rscale>  0 0.40576392E+02</rscale>
<asrwt>0</asrwt>
<pdfrwt beam="1">  1       11 0.10000000E+01 0.40323821E+02</pdfrwt>
<pdfrwt beam="2">  1        2 0.97271662E-03 0.40576392E+02</pdfrwt>
<totfact> 0.13754388E+04</totfact>
</mgrwt>
</event>
<event>
 5    1  0.2675386E-003  0.2241941E+03  0.7818608E-02  0.1360300E+00
         11   -1    0    0    0    0  0.00000000000E+00  0.00000000000E+00  0.10002376858E+04  0.10002376858E+04  0.51100000000E-03 0. -1.
          2   -1    0    0  501    0 -0.00000000000E+00 -0.00000000000E+00 -0.56409921729E+03  0.56409921730E+03  0.25500000000E-02 0. -1.
         11    1    1    2    0    0  0.21578385319E+03 -0.62240566915E+02  0.96223485070E+03  0.98809537362E+03  0.51100000000E-03 0. -1.
         22    1    1    2    0    0 -0.11297316612E+02  0.18665561446E+02 -0.24453570090E+02  0.32772086245E+02  0.00000000000E+00 0. -1.
          2    1    1    2  501    0 -0.20448653658E+03  0.43575005469E+02 -0.50164281212E+03  0.54346944321E+03  0.25500000000E-02 0. -1.
<mgrwt>
<rscale>  0 0.69939298E+02</rscale>
<asrwt>0</asrwt>
<pdfrwt beam="1">  1       11 0.10000000E+01 0.22419412E+03</pdfrwt>
<pdfrwt beam="2">  1        2 0.86805120E-01 0.69939298E+02</pdfrwt>
<totfact> 0.69422232E+01</totfact>
</mgrwt>
</event>
<event>
 5    1  0.2675386E-003  0.8702405E+02  0.7818608E-02  0.1393594E+00
         11   -1    0    0    0    0  0.00000000000E+00  0.00000000000E+00  0.10002876167E+04  0.10002876167E+04  0.51100000000E-03 0. -1.
         -2   -1    0    0    0  501 -0.00000000000E+00 -0.00000000000E+00 -0.17020105656E+02  0.17020105847E+02  0.25500000000E-02 0.  1.
         11    1    1    2    0    0  0.47336604760E+02  0.96982344553E+02  0.63740340803E+03  0.64647461967E+03  0.51100000000E-03 0. -1.
         22    1    1    2    0    0 -0.37842802484E+01 -0.42620944896E+02  0.45341454467E+02  0.62343509799E+02  0.00000000000E+00 0.  1.
         -2    1    1    2    0  501 -0.43552324511E+02 -0.54361399656E+02  0.30052264855E+03  0.30848959309E+03  0.25500000000E-02 0.  1.
<mgrwt>
<rscale>  0 0.61021611E+02</rscale>
<asrwt>0</asrwt>
<pdfrwt beam="1">  1       11 0.10000000E+01 0.87024052E+02</pdfrwt>
<pdfrwt beam="2">  1       -2 0.26192309E-02 0.61021611E+02</pdfrwt>
<totfact> 0.34860699E+03</totfact>
</mgrwt>
</event>
<event>
 5    1  0.2675386E-003  0.1238409E+03  0.7818608E-02  0.1236892E+00
         11   -1    0    0    0    0  0.00000000000E+00  0.00000000000E+00  0.10003037186E+04  0.10003037186E+04  0.51100000000E-03 0. -1.
          2   -1    0    0  501    0 -0.00000000000E+00 -0.00000000000E+00 -0.17255707799E+02  0.17255707987E+02  0.25500000000E-02 0. -1.
         11    1    1    2    0    0  0.23434274051E+01 -0.12147368903E+03  0.66961131043E+03  0.68054438197E+03  0.51100000000E-03 0. -1.
         22    1    1    2    0    0 -0.10246052494E+01  0.12793092105E+02  0.17139342433E+02  0.21411914454E+02  0.00000000000E+00 0.  1.
          2    1    1    2  501    0 -0.13188221557E+01  0.10868059692E+03  0.29629735792E+03  0.31560313014E+03  0.25500000000E-02 0. -1.
<mgrwt>
<rscale>  0 0.12384093E+03</rscale>
<asrwt>0</asrwt>
<pdfrwt beam="1">  1       11 0.10000000E+01 0.12149629E+03</pdfrwt>
<pdfrwt beam="2">  1        2 0.26555305E-02 0.12384093E+03</pdfrwt>
<totfact> 0.42105249E+03</totfact>
</mgrwt>
</event>
<event>
 5    1  0.2675386E-003  0.2647882E+03  0.7818608E-02  0.1379907E+00
         11   -1    0    0    0    0  0.00000000000E+00  0.00000000000E+00  0.10003703861E+04  0.10003703861E+04  0.51100000000E-03 0. -1.
          2   -1    0    0  501    0 -0.00000000000E+00 -0.00000000000E+00 -0.13641414355E+03  0.13641414358E+03  0.25500000000E-02 0. -1.
         11    1    1    2    0    0  0.14421156931E+03  0.22276178605E+03  0.81090054848E+03  0.85321714092E+03  0.51100000000E-03 0. -1.
         22    1    1    2    0    0  0.10823901702E+02 -0.11380508651E+02  0.78446885014E+01  0.17555966590E+02  0.00000000000E+00 0. -1.
          2    1    1    2  501    0 -0.15503547101E+03 -0.21138127740E+03  0.45211005608E+02  0.26601142220E+03  0.25500000000E-02 0. -1.
<mgrwt>
<rscale>  0 0.64488113E+02</rscale>
<asrwt>0</asrwt>
<pdfrwt beam="1">  1       11 0.10000000E+01 0.26478824E+03</pdfrwt>
<pdfrwt beam="2">  1        2 0.20994564E-01 0.64488113E+02</pdfrwt>
<totfact> 0.30981964E+02</totfact>
</mgrwt>
</event>
<event>
 5    1  0.4289628E-003  0.1651265E+03  0.7818608E-02  0.1183028E+00
         11   -1    0    0    0    0  0.00000000000E+00  0.00000000000E+00  0.99990617615E+03  0.99990617615E+03  0.51100000000E-03 0.  1.
          2   -1    0    0  501    0 -0.00000000000E+00 -0.00000000000E+00 -0.13743480287E+04  0.13743480287E+04  0.25500000000E-02 0. -1.
         11    1    1    2    0    0 -0.91257322289E+02  0.13556918287E+03  0.98821109287E+03  0.10016327003E+04  0.51100000000E-03 0.  1.
         22    1    1    2    0    0  0.13315480102E+02 -0.17206717348E+02 -0.12480458989E+03  0.12668685326E+03  0.00000000000E+00 0. -1.
          2    1    1    2  501    0  0.77941842188E+02 -0.11836246553E+03 -0.12378483556E+04  0.12459346513E+04  0.25500000000E-02 0. -1.
<mgrwt>
<rscale>  0 0.16512645E+03</rscale>
<asrwt>0</asrwt>
<pdfrwt beam="1">  1       11 0.10000000E+01 0.16342247E+03</pdfrwt>
<pdfrwt beam="2">  1        2 0.21141831E+00 0.16512645E+03</pdfrwt>
<totfact> 0.20706245E+01</totfact>
</mgrwt>
</event>
<event>
 5    1  0.2675386E-003  0.1758836E+03  0.7818608E-02  0.1171847E+00
         11   -1    0    0    0    0  0.00000000000E+00  0.00000000000E+00  0.10003293159E+04  0.10003293159E+04  0.51100000000E-03 0.  1.
          2   -1    0    0  501    0 -0.00000000000E+00 -0.00000000000E+00 -0.53340251091E+02  0.53340251152E+02  0.25500000000E-02 0.  1.
         11    1    1    2    0    0 -0.82938739391E+02  0.14784701404E+03  0.81845206150E+03  0.83582375596E+03  0.51100000000E-03 0.  1.
         22    1    1    2    0    0  0.76878106523E+02 -0.95101680544E+02  0.81918162513E+02  0.14719089053E+03  0.00000000000E+00 0.  1.
          2    1    1    2  501    0  0.60606328677E+01 -0.52745333500E+02  0.46618840806E+02  0.70654920574E+02  0.25500000000E-02 0.  1.
<mgrwt>
<rscale>  0 0.17588359E+03</rscale>
<asrwt>0</asrwt>
<pdfrwt beam="1">  1       11 0.10000000E+01 0.16952160E+03</pdfrwt>
<pdfrwt beam="2">  1        2 0.82088947E-02 0.17588359E+03</pdfrwt>
<totfact> 0.98714516E+02</totfact>
</mgrwt>
</event>
<event>
 5    1  0.2675386E-003  0.1711316E+03  0.7818608E-02  0.1176673E+00
         11   -1    0    0    0    0  0.00000000000E+00  0.00000000000E+00  0.10001566083E+04  0.10001566083E+04  0.51100000000E-03 0. -1.
          2   -1    0    0  501    0 -0.00000000000E+00 -0.00000000000E+00 -0.20410125789E+03  0.20410125790E+03  0.25500000000E-02 0. -1.
         11    1    1    2    0    0 -0.16602413939E+03  0.18143626487E+02  0.95572363318E+03  0.97020661153E+03  0.51100000000E-03 0. -1.
         22    1    1    2    0    0  0.38063892412E+02 -0.11208802091E+02 -0.58948341268E+02  0.71059159072E+02  0.00000000000E+00 0. -1.
          2    1    1    2  501    0  0.12796024698E+03 -0.69348243958E+01 -0.10071994152E+03  0.16299209558E+03  0.25500000000E-02 0. -1.
<mgrwt>
<rscale>  0 0.17113161E+03</rscale>
<asrwt>0</asrwt>
<pdfrwt beam="1">  1       11 0.10000000E+01 0.16701259E+03</pdfrwt>
<pdfrwt beam="2">  1        2 0.31405110E-01 0.17113161E+03</pdfrwt>
<totfact> 0.20502305E+02</totfact>
</mgrwt>
</event>
<event>
 5    1  0.2675386E-003  0.3104439E+03  0.7818608E-02  0.1080133E+00
         11   -1    0    0    0    0  0.00000000000E+00  0.00000000000E+00  0.10002330260E+04  0.10002330260E+04  0.51100000000E-03 0. -1.
          2   -1    0    0  501    0 -0.00000000000E+00 -0.00000000000E+00 -0.22604375783E+03  0.22604375784E+03  0.25500000000E-02 0. -1.
         11    1    1    2    0    0 -0.17069115284E+03 -0.24236773115E+03  0.85546353979E+03  0.90537034117E+03  0.51100000000E-03 0. -1.
         22    1    1    2    0    0  0.61261835578E+02  0.31693903001E+02 -0.40634276167E+02  0.80054109111E+02  0.00000000000E+00 0.  1.
          2    1    1    2  501    0  0.10942931726E+03  0.21067382814E+03 -0.40639995461E+02  0.24085233355E+03  0.25500000000E-02 0. -1.
<mgrwt>
<rscale>  0 0.31044394E+03</rscale>
<asrwt>0</asrwt>
<pdfrwt beam="1">  1       11 0.10000000E+01 0.29644154E+03</pdfrwt>
<pdfrwt beam="2">  1        2 0.34784065E-01 0.31044394E+03</pdfrwt>
<totfact> 0.18475607E+02</totfact>
</mgrwt>
</event>
<event>
 5    1  0.2675386E-003  0.3483023E+03  0.7818608E-02  0.1063314E+00
         11   -1    0    0    0    0  0.00000000000E+00  0.00000000000E+00  0.10000860348E+04  0.10000860348E+04  0.51100000000E-03 0.  1.
          2   -1    0    0  501    0 -0.00000000000E+00 -0.00000000000E+00 -0.12251366062E+03  0.12251366065E+03  0.25500000000E-02 0.  1.
         11    1    1    2    0    0 -0.30423025298E+03 -0.16597442327E+03  0.36936855848E+03  0.50649450935E+03  0.51100000000E-03 0.  1.
         22    1    1    2    0    0  0.14527082179E+02  0.12136377502E+01  0.15601100337E+02  0.21351893708E+02  0.00000000000E+00 0. -1.
          2    1    1    2  501    0  0.28970317080E+03  0.16476078552E+03  0.49260271537E+03  0.59475329239E+03  0.25500000000E-02 0.  1.
<mgrwt>
<rscale>  0 0.34830229E+03</rscale>
<asrwt>0</asrwt>
<pdfrwt beam="1">  1       11 0.10000000E+01 0.34655977E+03</pdfrwt>
<pdfrwt beam="2">  1        2 0.18849877E-01 0.34830229E+03</pdfrwt>
<totfact> 0.36967249E+02</totfact>
</mgrwt>
</event>
<event>
 5    1  0.2675386E-003  0.2495880E+03  0.7818608E-02  0.1178034E+00
         11   -1    0    0    0    0  0.00000000000E+00  0.00000000000E+00  0.10002355090E+04  0.10002355090E+04  0.51100000000E-03 0. -1.
          2   -1    0    0  501    0 -0.00000000000E+00 -0.00000000000E+00 -0.11699958268E+04  0.11699958268E+04  0.25500000000E-02 0. -1.
         11    1    1    2    0    0 -0.68365386548E+02 -0.24257785039E+03  0.96193855914E+03  0.99440617010E+03  0.51100000000E-03 0. -1.
         22    1    1    2    0    0  0.10037862964E+03  0.57232052127E+02 -0.61947712166E+03  0.63016131374E+03  0.00000000000E+00 0. -1.
          2    1    1    2  501    0 -0.32013243096E+02  0.18534579826E+03 -0.51222175530E+03  0.54566385190E+03  0.25500000000E-02 0. -1.
<mgrwt>
<rscale>  0 0.16982178E+03</rscale>
<asrwt>0</asrwt>
<pdfrwt beam="1">  1       11 0.10000000E+01 0.24958803E+03</pdfrwt>
<pdfrwt beam="2">  1        2 0.18004174E+00 0.16982178E+03</pdfrwt>
<totfact> 0.26741258E+01</totfact>
</mgrwt>
</event>
<event>
 5    1  0.2675386E-003  0.1219665E+03  0.7818608E-02  0.1239888E+00
         11   -1    0    0    0    0  0.00000000000E+00  0.00000000000E+00  0.10002413320E+04  0.10002413320E+04  0.51100000000E-03 0.  1.
         -2   -1    0    0    0  501 -0.00000000000E+00 -0.00000000000E+00 -0.16255476372E+02  0.16255476572E+02  0.25500000000E-02 0. -1.
         11    1    1    2    0    0  0.10456475163E+03 -0.59099801906E+02  0.64847624504E+03  0.65950588644E+03  0.51100000000E-03 0.  1.
         22    1    1    2    0    0 -0.89477231333E+02  0.44800990101E+02  0.29408699604E+03  0.31064523959E+03  0.00000000000E+00 0. -1.
         -2    1    1    2    0  501 -0.15087520293E+02  0.14298811805E+02  0.41422614546E+02  0.46345682538E+02  0.25500000000E-02 0. -1.
<mgrwt>
<rscale>  0 0.12196647E+03</rscale>
<asrwt>0</asrwt>
<pdfrwt beam="1">  1       11 0.10000000E+01 0.12011067E+03</pdfrwt>
<pdfrwt beam="2">  1       -2 0.25014460E-02 0.12196647E+03</pdfrwt>
<totfact> 0.40654118E+03</totfact>
</mgrwt>
</event>
<event>
 5    1  0.2675386E-003  0.1091544E+03  0.7818608E-02  0.1262144E+00
         11   -1    0    0    0    0  0.00000000000E+00  0.00000000000E+00  0.10002594638E+04  0.10002594638E+04  0.51100000000E-03 0.  1.
          2   -1    0    0  501    0 -0.00000000000E+00 -0.00000000000E+00 -0.11854881880E+02  0.11854882154E+02  0.25500000000E-02 0.  1.
         11    1    1    2    0    0  0.41347115106E+01 -0.10760870714E+03  0.44377495870E+03  0.45665407439E+03  0.51100000000E-03 0.  1.
         22    1    1    2    0    0 -0.76147118249E+01  0.18913313921E+02  0.10308932957E+03  0.10508618916E+03  0.00000000000E+00 0.  1.
          2    1    1    2  501    0  0.34800003143E+01  0.88695393219E+02  0.44154029370E+03  0.45037408245E+03  0.25500000000E-02 0.  1.
<mgrwt>
<rscale>  0 0.10915442E+03</rscale>
<asrwt>0</asrwt>
<pdfrwt beam="1">  1       11 0.10000000E+01 0.10768817E+03</pdfrwt>
<pdfrwt beam="2">  1        2 0.18243012E-02 0.10915442E+03</pdfrwt>
<totfact> 0.68971661E+03</totfact>
</mgrwt>
</event>
<event>
 5    1  0.2675386E-003  0.1258878E+03  0.7818608E-02  0.1233688E+00
         11   -1    0    0    0    0  0.00000000000E+00  0.00000000000E+00  0.10002221066E+04  0.10002221066E+04  0.51100000000E-03 0.  1.
         -2   -1    0    0    0  501 -0.00000000000E+00 -0.00000000000E+00 -0.20113866548E+02  0.20113866710E+02  0.25500000000E-02 0. -1.
         11    1    1    2    0    0  0.11331063393E+03  0.47560902139E+02  0.73066026642E+03  0.74092223890E+03  0.51100000000E-03 0.  1.
         22    1    1    2    0    0 -0.77410918477E+02 -0.18492137467E+02  0.16330832193E+03  0.18167007860E+03  0.00000000000E+00 0.  1.
         -2    1    1    2    0  501 -0.35899715457E+02 -0.29068764672E+02  0.86139651748E+02  0.97743655851E+02  0.25500000000E-02 0. -1.
<mgrwt>
<rscale>  0 0.12588782E+03</rscale>
<asrwt>0</asrwt>
<pdfrwt beam="1">  1       11 0.10000000E+01 0.12288751E+03</pdfrwt>
<pdfrwt beam="2">  1       -2 0.30951282E-02 0.12588782E+03</pdfrwt>
<totfact> 0.29879858E+03</totfact>
</mgrwt>
</event>
<event>
 5    1  0.2675386E-003  0.2998904E+03  0.7818608E-02  0.1085295E+00
         11   -1    0    0    0    0  0.00000000000E+00  0.00000000000E+00  0.10001662840E+04  0.10001662840E+04  0.51100000000E-03 0. -1.
          2   -1    0    0  501    0 -0.00000000000E+00 -0.00000000000E+00 -0.89288662242E+02  0.89288662278E+02  0.25500000000E-02 0.  1.
         11    1    1    2    0    0 -0.14489898075E+03  0.25465293893E+03  0.51906185903E+03  0.59604450122E+03  0.51100000000E-03 0. -1.
         22    1    1    2    0    0  0.40910854108E+02 -0.13421276460E+03  0.17000131678E+03  0.22042507088E+03  0.00000000000E+00 0.  1.
          2    1    1    2  501    0  0.10398812665E+03 -0.12044017433E+03  0.22181444590E+03  0.27298537413E+03  0.25500000000E-02 0.  1.
<mgrwt>
<rscale>  0 0.29989044E+03</rscale>
<asrwt>0</asrwt>
<pdfrwt beam="1">  1       11 0.10000000E+01 0.29299118E+03</pdfrwt>
<pdfrwt beam="2">  1        2 0.13739001E-01 0.29989044E+03</pdfrwt>
<totfact> 0.53575303E+02</totfact>
</mgrwt>
</event>
<event>
 5    1  0.2675386E-003  0.1716680E+03  0.7818608E-02  0.1176119E+00
         11   -1    0    0    0    0  0.00000000000E+00  0.00000000000E+00  0.10000009942E+04  0.10000009942E+04  0.51100000000E-03 0. -1.
          2   -1    0    0  501    0 -0.00000000000E+00 -0.00000000000E+00 -0.12626755264E+03  0.12626755267E+03  0.25500000000E-02 0. -1.
         11    1    1    2    0    0  0.15340333573E+03  0.58108578544E+02  0.93096879445E+03  0.94531057677E+03  0.51100000000E-03 0. -1.
         22    1    1    2    0    0 -0.34022595390E+02  0.80708487196E+01 -0.15268458902E+02  0.38154966038E+02  0.00000000000E+00 0. -1.
          2    1    1    2  501    0 -0.11938074034E+03 -0.66179427263E+02 -0.41966894025E+02  0.14280300402E+03  0.25500000000E-02 0. -1.
<mgrwt>
<rscale>  0 0.17166800E+03</rscale>
<asrwt>0</asrwt>
<pdfrwt beam="1">  1       11 0.10000000E+01 0.16404021E+03</pdfrwt>
<pdfrwt beam="2">  1        2 0.19425796E-01 0.17166800E+03</pdfrwt>
<totfact> 0.34990309E+02</totfact>
</mgrwt>
</event>
<event>
 5    1  0.2675386E-003  0.1519144E+03  0.7818608E-02  0.1215432E+00
         11   -1    0    0    0    0  0.00000000000E+00  0.00000000000E+00  0.99989911844E+03  0.99989911844E+03  0.51100000000E-03 0. -1.
          2   -1    0    0  501    0 -0.00000000000E+00 -0.00000000000E+00 -0.27092715135E+02  0.27092715255E+02  0.25500000000E-02 0. -1.
         11    1    1    2    0    0  0.30995690276E+02  0.45412625909E+02  0.22465184835E+03  0.23128227855E+03  0.51100000000E-03 0. -1.
         22    1    1    2    0    0 -0.22749567590E+02  0.92790225441E+02  0.52100949692E+03  0.52969657790E+03  0.00000000000E+00 0. -1.
          2    1    1    2  501    0 -0.82461226868E+01 -0.13820285135E+03  0.22714505804E+03  0.26601297724E+03  0.25500000000E-02 0. -1.
<mgrwt>
<rscale>  0 0.13844864E+03</rscale>
<asrwt>0</asrwt>
<pdfrwt beam="1">  1       11 0.10000000E+01 0.15191438E+03</pdfrwt>
<pdfrwt beam="2">  1        2 0.41676894E-02 0.13844864E+03</pdfrwt>
<totfact> 0.23317788E+03</totfact>
</mgrwt>
</event>
<event>
 5    1  0.2675386E-003  0.1670986E+03  0.7818608E-02  0.1180908E+00
         11   -1    0    0    0    0  0.00000000000E+00  0.00000000000E+00  0.10002877201E+04  0.10002877201E+04  0.51100000000E-03 0. -1.
         -2   -1    0    0    0  501 -0.00000000000E+00 -0.00000000000E+00 -0.66932034778E+02  0.66932034827E+02  0.25500000000E-02 0.  1.
         11    1    1    2    0    0 -0.15827783234E+03  0.42762367525E+02  0.87499497264E+03  0.89022283415E+03  0.51100000000E-03 0. -1.
         22    1    1    2    0    0  0.41054293637E+02 -0.17485583321E+02  0.24621442426E+01  0.44690746295E+02  0.00000000000E+00 0. -1.
         -2    1    1    2    0  501  0.11722353871E+03 -0.25276784204E+02  0.55898568432E+02  0.13230617448E+03  0.25500000000E-02 0.  1.
<mgrwt>
<rscale>  0 0.16709859E+03</rscale>
<asrwt>0</asrwt>
<pdfrwt beam="1">  1       11 0.10000000E+01 0.16395271E+03</pdfrwt>
<pdfrwt beam="2">  1       -2 0.10300199E-01 0.16709859E+03</pdfrwt>
<totfact> 0.49313030E+02</totfact>
</mgrwt>
</event>
<event>
 5    1  0.2675386E-003  0.1836767E+03  0.7818608E-02  0.1367908E+00
         11   -1    0    0    0    0  0.00000000000E+00  0.00000000000E+00  0.99990139877E+03  0.99990139877E+03  0.51100000000E-03 0. -1.
         -2   -1    0    0    0  501 -0.00000000000E+00 -0.00000000000E+00 -0.39436596229E+02  0.39436596311E+02  0.25500000000E-02 0.  1.
         11    1    1    2    0    0  0.12595169855E+03 -0.14089372065E+03  0.52549988770E+03  0.55844874685E+03  0.51100000000E-03 0. -1.
         22    1    1    2    0    0  0.83137388388E+01  0.23568088700E+02  0.35270162888E+02  0.43226814000E+02  0.00000000000E+00 0.  1.
         -2    1    1    2    0  501 -0.13426543739E+03  0.11732563195E+03  0.39969475195E+03  0.43766243423E+03  0.25500000000E-02 0.  1.
<mgrwt>
<rscale>  0 0.67752110E+02</rscale>
<asrwt>0</asrwt>
<pdfrwt beam="1">  1       11 0.10000000E+01 0.18367668E+03</pdfrwt>
<pdfrwt beam="2">  1       -2 0.60665703E-02 0.67752110E+02</pdfrwt>
<totfact> 0.10380131E+03</totfact>
</mgrwt>
</event>
<event>
 5    1  0.2675386E-003  0.9092109E+02  0.7818608E-02  0.1300636E+00
         11   -1    0    0    0    0  0.00000000000E+00  0.00000000000E+00  0.10007220600E+04  0.10007220600E+04  0.51100000000E-03 0. -1.
          2   -1    0    0  501    0 -0.00000000000E+00 -0.00000000000E+00 -0.77698100842E+01  0.77698105026E+01  0.25500000000E-02 0. -1.
         11    1    1    2    0    0 -0.71533033724E+02  0.43852324878E+02  0.41065163632E+03  0.41913573902E+03  0.51100000000E-03 0. -1.
         22    1    1    2    0    0  0.48810650986E+02 -0.37809524873E+02  0.31302287520E+03  0.31905385160E+03  0.00000000000E+00 0. -1.
          2    1    1    2  501    0  0.22722382738E+02 -0.60428000048E+01  0.26927773837E+03  0.27030227986E+03  0.25500000000E-02 0. -1.
<mgrwt>
<rscale>  0 0.90921093E+02</rscale>
<asrwt>0</asrwt>
<pdfrwt beam="1">  1       11 0.10000000E+01 0.83904758E+02</pdfrwt>
<pdfrwt beam="2">  1        2 0.11962185E-02 0.90921093E+02</pdfrwt>
<totfact> 0.11951637E+04</totfact>
</mgrwt>
</event>
<event>
 5    1  0.2675386E-003  0.2405884E+03  0.7818608E-02  0.1119401E+00
         11   -1    0    0    0    0  0.00000000000E+00  0.00000000000E+00  0.10001860456E+04  0.10001860456E+04  0.51100000000E-03 0.  1.
          2   -1    0    0  501    0 -0.00000000000E+00 -0.00000000000E+00 -0.19023375196E+03  0.19023375197E+03  0.25500000000E-02 0.  1.
         11    1    1    2    0    0  0.44164662758E+02  0.22719759428E+03  0.90320679106E+03  0.93239035371E+03  0.51100000000E-03 0.  1.
         22    1    1    2    0    0 -0.10254175091E+01 -0.10774430886E+03 -0.14835144710E+02  0.10876566136E+03  0.00000000000E+00 0. -1.
          2    1    1    2  501    0 -0.43139245248E+02 -0.11945328543E+03 -0.78419352706E+02  0.14926378250E+03  0.25500000000E-02 0.  1.
<mgrwt>
<rscale>  0 0.24058843E+03</rscale>
<asrwt>0</asrwt>
<pdfrwt beam="1">  1       11 0.10000000E+01 0.23145035E+03</pdfrwt>
<pdfrwt beam="2">  1        2 0.29272175E-01 0.24058843E+03</pdfrwt>
<totfact> 0.22265034E+02</totfact>
</mgrwt>
</event>
<event>
 5    1  0.2675386E-003  0.1563445E+03  0.7818608E-02  0.1192887E+00
         11   -1    0    0    0    0  0.00000000000E+00  0.00000000000E+00  0.10000336370E+04  0.10000336370E+04  0.51100000000E-03 0. -1.
          2   -1    0    0  501    0 -0.00000000000E+00 -0.00000000000E+00 -0.32484670015E+02  0.32484670115E+02  0.25500000000E-02 0.  1.
         11    1    1    2    0    0 -0.14911485050E+03  0.35647007541E+02  0.74455764832E+03  0.76017895226E+03  0.51100000000E-03 0. -1.
         22    1    1    2    0    0  0.18521472786E+02 -0.11374551275E+02  0.18757673798E+02  0.28710201971E+02  0.00000000000E+00 0.  1.
          2    1    1    2  501    0  0.13059337772E+03 -0.24272456267E+02  0.20423364490E+03  0.24362915292E+03  0.25500000000E-02 0.  1.
<mgrwt>
<rscale>  0 0.15634448E+03</rscale>
<asrwt>0</asrwt>
<pdfrwt beam="1">  1       11 0.10000000E+01 0.15331650E+03</pdfrwt>
<pdfrwt beam="2">  1        2 0.49978095E-02 0.15634448E+03</pdfrwt>
<totfact> 0.18547246E+03</totfact>
</mgrwt>
</event>
<event>
 5    1  0.2675386E-003  0.2635169E+03  0.7818608E-02  0.1105048E+00
         11   -1    0    0    0    0  0.00000000000E+00  0.00000000000E+00  0.99982798234E+03  0.99982798234E+03  0.51100000000E-03 0. -1.
         -2   -1    0    0    0  501 -0.00000000000E+00 -0.00000000000E+00 -0.66364328616E+02  0.66364328665E+02  0.25500000000E-02 0.  1.
         11    1    1    2    0    0 -0.83282919986E+02 -0.23744151636E+03  0.44927038756E+03  0.51493533535E+03  0.51100000000E-03 0. -1.
         22    1    1    2    0    0 -0.34256662346E-01  0.59090527714E+02  0.17509906518E+03  0.18480090440E+03  0.00000000000E+00 0.  1.
         -2    1    1    2    0  501  0.83317176648E+02  0.17835098864E+03  0.30909420097E+03  0.36645607125E+03  0.25500000000E-02 0.  1.
<mgrwt>
<rscale>  0 0.26351686E+03</rscale>
<asrwt>0</asrwt>
<pdfrwt beam="1">  1       11 0.10000000E+01 0.25162389E+03</pdfrwt>
<pdfrwt beam="2">  1       -2 0.10208140E-01 0.26351686E+03</pdfrwt>
<totfact> 0.51240115E+02</totfact>
</mgrwt>
</event>
<event>
 5    1  0.2675386E-003  0.3610855E+03  0.7818608E-02  0.1058155E+00
         11   -1    0    0    0    0  0.00000000000E+00  0.00000000000E+00  0.10002745956E+04  0.10002745956E+04  0.51100000000E-03 0. -1.
         -2   -1    0    0    0  501 -0.00000000000E+00 -0.00000000000E+00 -0.22968160123E+03  0.22968160124E+03  0.25500000000E-02 0.  1.
         11    1    1    2    0    0  0.59956840662E+02 -0.36180475967E+03  0.74690314474E+03  0.83208281708E+03  0.51100000000E-03 0. -1.
         22    1    1    2    0    0  0.12058579038E+02  0.92023935731E+01  0.34650296394E+02  0.37825076551E+02  0.00000000000E+00 0. -1.
         -2    1    1    2    0  501 -0.72015419700E+02  0.35260236609E+03 -0.10960446757E+02  0.36004830322E+03  0.25500000000E-02 0.  1.
<mgrwt>
<rscale>  0 0.36108545E+03</rscale>
<asrwt>0</asrwt>
<pdfrwt beam="1">  1       11 0.10000000E+01 0.15168829E+02</pdfrwt>
<pdfrwt beam="2">  1       -2 0.35345333E-01 0.36108545E+03</pdfrwt>
<totfact> 0.60974077E+01</totfact>
</mgrwt>
</event>
<event>
 5    1  0.2675386E-003  0.3836985E+03  0.7818608E-02  0.1049575E+00
         11   -1    0    0    0    0  0.00000000000E+00  0.00000000000E+00  0.99999760633E+03  0.99999760633E+03  0.51100000000E-03 0. -1.
         -2   -1    0    0    0  501 -0.00000000000E+00 -0.00000000000E+00 -0.18110192870E+03  0.18110192872E+03  0.25500000000E-02 0. -1.
         11    1    1    2    0    0 -0.37719220879E+03  0.14800023505E+02  0.67098530656E+03  0.76987939619E+03  0.51100000000E-03 0. -1.
         22    1    1    2    0    0  0.44160570890E+02 -0.88655821079E+01 -0.38223579010E+01  0.45203594850E+02  0.00000000000E+00 0. -1.
         -2    1    1    2    0  501  0.33303163790E+03 -0.59344413971E+01  0.15173272898E+03  0.36601654400E+03  0.25500000000E-02 0. -1.
<mgrwt>
<rscale>  0 0.38369848E+03</rscale>
<asrwt>0</asrwt>
<pdfrwt beam="1">  1       11 0.10000000E+01 0.37748245E+03</pdfrwt>
<pdfrwt beam="2">  1       -2 0.27861768E-01 0.38369848E+03</pdfrwt>
<totfact> 0.94692835E+01</totfact>
</mgrwt>
</event>
<event>
 5    1  0.2675386E-003  0.1771866E+03  0.7818608E-02  0.1459399E+00
         11   -1    0    0    0    0  0.00000000000E+00  0.00000000000E+00  0.10004726281E+04  0.10004726281E+04  0.51100000000E-03 0. -1.
         -2   -1    0    0    0  501 -0.00000000000E+00 -0.00000000000E+00 -0.45437755967E+03  0.45437755968E+03  0.25500000000E-02 0.  1.
         11    1    1    2    0    0  0.17701266625E+03 -0.10693814032E+02  0.97027961541E+03  0.98635205365E+03  0.51100000000E-03 0. -1.
         22    1    1    2    0    0 -0.88548840524E+01 -0.91396602050E+01 -0.10813153086E+01  0.12771515299E+02  0.00000000000E+00 0. -1.
         -2    1    1    2    0  501 -0.16815778220E+03  0.19833474237E+02 -0.42310323169E+03  0.45572661880E+03  0.25500000000E-02 0.  1.
<mgrwt>
<rscale>  0 0.47484907E+02</rscale>
<asrwt>0</asrwt>
<pdfrwt beam="1">  1       11 0.10000000E+01 0.17718663E+03</pdfrwt>
<pdfrwt beam="2">  1       -2 0.69937277E-01 0.47484907E+02</pdfrwt>
<totfact> 0.15853770E+01</totfact>
</mgrwt>
</event>
<event>
 5    1  0.2675386E-003  0.1163200E+03  0.7818608E-02  0.1457856E+00
         11   -1    0    0    0    0  0.00000000000E+00  0.00000000000E+00  0.10005126059E+04  0.10005126059E+04  0.51100000000E-03 0. -1.
          2   -1    0    0  501    0 -0.00000000000E+00 -0.00000000000E+00 -0.20704909793E+02  0.20704909950E+02  0.25500000000E-02 0. -1.
         11    1    1    2    0    0  0.73909293661E+02  0.89474270768E+02  0.33993732446E+03  0.35920135492E+03  0.51100000000E-03 0. -1.
         22    1    1    2    0    0 -0.10724187491E+03 -0.55280365551E+02  0.49439561674E+03  0.50890447473E+03  0.00000000000E+00 0. -1.
          2    1    1    2  501    0  0.33332581254E+02 -0.34193905217E+02  0.14547475493E+03  0.15311168621E+03  0.25500000000E-02 0. -1.
<mgrwt>
<rscale>  0 0.47752321E+02</rscale>
<asrwt>0</asrwt>
<pdfrwt beam="1">  1       11 0.10000000E+01 0.11632001E+03</pdfrwt>
<pdfrwt beam="2">  1        2 0.31870035E-02 0.47752321E+02</pdfrwt>
<totfact> 0.29541760E+03</totfact>
</mgrwt>
</event>
<event>
 5    1  0.2675386E-003  0.3989916E+03  0.7818608E-02  0.1044129E+00
         11   -1    0    0    0    0  0.00000000000E+00  0.00000000000E+00  0.10004260634E+04  0.10004260634E+04  0.51100000000E-03 0.  1.
          2   -1    0    0  501    0 -0.00000000000E+00 -0.00000000000E+00 -0.11599560601E+04  0.11599560601E+04  0.25500000000E-02 0.  1.
         11    1    1    2    0    0  0.19304962521E+03 -0.32988375843E+03  0.92710918715E+03  0.10028075073E+04  0.51100000000E-03 0.  1.
         22    1    1    2    0    0 -0.91931223745E+02  0.79194462867E+02 -0.24168329463E+03  0.27043285258E+03  0.00000000000E+00 0.  1.
          2    1    1    2  501    0 -0.10111840146E+03  0.25068929557E+03 -0.84495588918E+03  0.88714176358E+03  0.25500000000E-02 0.  1.
<mgrwt>
<rscale>  0 0.39899157E+03</rscale>
<asrwt>0</asrwt>
<pdfrwt beam="1">  1       11 0.10000000E+01 0.38221911E+03</pdfrwt>
<pdfrwt beam="2">  1        2 0.17853081E+00 0.39899157E+03</pdfrwt>
<totfact> 0.25804241E+01</totfact>
</mgrwt>
</event>
<event>
 5    1  0.2675386E-003  0.1372820E+03  0.7818608E-02  0.1437915E+00
         11   -1    0    0    0    0  0.00000000000E+00  0.00000000000E+00  0.10002252396E+04  0.10002252396E+04  0.51100000000E-03 0. -1.
          2   -1    0    0  501    0 -0.00000000000E+00 -0.00000000000E+00 -0.36393096925E+02  0.36393097015E+02  0.25500000000E-02 0. -1.
         11    1    1    2    0    0  0.11565619823E+03 -0.80490190956E+02  0.80310216857E+03  0.81536992843E+03  0.51100000000E-03 0. -1.
         22    1    1    2    0    0 -0.78434452921E+01  0.17576721872E+02  0.20520875214E+01  0.19356442055E+02  0.00000000000E+00 0. -1.
          2    1    1    2  501    0 -0.10781275294E+03  0.62913469084E+02  0.15867788658E+03  0.20189196612E+03  0.25500000000E-02 0. -1.
<mgrwt>
<rscale>  0 0.51403453E+02</rscale>
<asrwt>0</asrwt>
<pdfrwt beam="1">  1       11 0.10000000E+01 0.13728196E+03</pdfrwt>
<pdfrwt beam="2">  1        2 0.56001989E-02 0.51403453E+02</pdfrwt>
<totfact> 0.14511346E+03</totfact>
</mgrwt>
</event>
<event>
 5    1  0.2675386E-003  0.3058556E+03  0.7818608E-02  0.1082350E+00
         11   -1    0    0    0    0  0.00000000000E+00  0.00000000000E+00  0.10002012682E+04  0.10002012682E+04  0.51100000000E-03 0. -1.
          2   -1    0    0  501    0 -0.00000000000E+00 -0.00000000000E+00 -0.17203387819E+03  0.17203387821E+03  0.25500000000E-02 0.  1.
         11    1    1    2    0    0  0.42958760133E+02  0.29136456756E+03  0.81445857287E+03  0.86607247573E+03  0.51100000000E-03 0. -1.
         22    1    1    2    0    0 -0.46350457358E+02 -0.68252636227E+02 -0.13869438692E+01  0.82514912971E+02  0.00000000000E+00 0.  1.
          2    1    1    2  501    0  0.33916972256E+01 -0.22311193133E+03  0.15095760994E+02  0.22364775769E+03  0.25500000000E-02 0.  1.
<mgrwt>
<rscale>  0 0.30585560E+03</rscale>
<asrwt>0</asrwt>
<pdfrwt beam="1">  1       11 0.10000000E+01 0.29451446E+03</pdfrwt>
<pdfrwt beam="2">  1        2 0.26472077E-01 0.30585560E+03</pdfrwt>
<totfact> 0.24998608E+02</totfact>
</mgrwt>
</event>
<event>
 5    1  0.2675386E-003  0.1965112E+03  0.7818608E-02  0.1152716E+00
         11   -1    0    0    0    0  0.00000000000E+00  0.00000000000E+00  0.10001678562E+04  0.10001678562E+04  0.51100000000E-03 0. -1.
          2   -1    0    0  501    0 -0.00000000000E+00 -0.00000000000E+00 -0.83844206159E+03  0.83844206159E+03  0.25500000000E-02 0. -1.
         11    1    1    2    0    0 -0.12585919557E+03 -0.13606461040E+03  0.97984472478E+03  0.99722103868E+03  0.51100000000E-03 0. -1.
         22    1    1    2    0    0  0.32110665847E+02  0.54167444095E+02 -0.16700414929E+03  0.17848135124E+03  0.00000000000E+00 0.  1.
          2    1    1    2  501    0  0.93748529719E+02  0.81897166303E+02 -0.65111478085E+03  0.66290752788E+03  0.25500000000E-02 0. -1.
<mgrwt>
<rscale>  0 0.19651123E+03</rscale>
<asrwt>0</asrwt>
<pdfrwt beam="1">  1       11 0.10000000E+01 0.18534863E+03</pdfrwt>
<pdfrwt beam="2">  1        2 0.12901273E+00 0.19651123E+03</pdfrwt>
<totfact> 0.42228517E+01</totfact>
</mgrwt>
</event>
<event>
 5    1  0.2675386E-003  0.1405714E+03  0.7818608E-02  0.1212562E+00
         11   -1    0    0    0    0  0.00000000000E+00  0.00000000000E+00  0.10002616933E+04  0.10002616933E+04  0.51100000000E-03 0. -1.
          2   -1    0    0  501    0 -0.00000000000E+00 -0.00000000000E+00 -0.33807446966E+02  0.33807447062E+02  0.25500000000E-02 0. -1.
         11    1    1    2    0    0  0.36109733962E+02  0.13152954895E+03  0.81925119643E+03  0.83052781891E+03  0.51100000000E-03 0. -1.
         22    1    1    2    0    0 -0.27322303458E+02 -0.75082474883E+02  0.62812030384E+02  0.10163285621E+03  0.00000000000E+00 0. -1.
          2    1    1    2  501    0 -0.87874305047E+01 -0.56447074068E+02  0.84391019537E+02  0.10190846526E+03  0.25500000000E-02 0. -1.
<mgrwt>
<rscale>  0 0.14057145E+03</rscale>
<asrwt>0</asrwt>
<pdfrwt beam="1">  1       11 0.10000000E+01 0.13639624E+03</pdfrwt>
<pdfrwt beam="2">  1        2 0.52025067E-02 0.14057145E+03</pdfrwt>
<totfact> 0.17450328E+03</totfact>
</mgrwt>
</event>
<event>
 5    1  0.2675386E-003  0.4598864E+02  0.7818608E-02  0.1580000E+00
         11   -1    0    0    0    0  0.00000000000E+00  0.00000000000E+00  0.99990546148E+03  0.99990546148E+03  0.51100000000E-03 0.  1.
          2   -1    0    0  501    0 -0.00000000000E+00 -0.00000000000E+00 -0.72016607023E+01  0.72016611537E+01  0.25500000000E-02 0.  1.
         11    1    1    2    0    0  0.28928342493E+02 -0.58582088761E+02  0.18938482121E+03  0.20033801593E+03  0.51100000000E-03 0.  1.
         22    1    1    2    0    0 -0.11039722625E+02  0.18860603528E+02  0.11405694473E+03  0.11613175484E+03  0.00000000000E+00 0. -1.
          2    1    1    2  501    0 -0.17888619868E+02  0.39721485233E+02  0.68926203485E+03  0.69063735187E+03  0.25500000000E-02 0.  1.
<mgrwt>
<rscale>  0 0.31702299E+02</rscale>
<asrwt>0</asrwt>
<pdfrwt beam="1">  1       11 0.10000000E+01 0.45988638E+02</pdfrwt>
<pdfrwt beam="2">  1        2 0.11078431E-02 0.31702299E+02</pdfrwt>
<totfact> 0.11023695E+04</totfact>
</mgrwt>
</event>
<event>
 5    1  0.2675386E-003  0.1470778E+03  0.7818608E-02  0.1204110E+00
         11   -1    0    0    0    0  0.00000000000E+00  0.00000000000E+00  0.10006839293E+04  0.10006839293E+04  0.51100000000E-03 0. -1.
         -2   -1    0    0    0  501 -0.00000000000E+00 -0.00000000000E+00 -0.24258583016E+02  0.24258583150E+02  0.25500000000E-02 0.  1.
         11    1    1    2    0    0 -0.10067471272E+02 -0.14545766089E+03  0.66131487675E+03  0.67719764567E+03  0.51100000000E-03 0. -1.
         22    1    1    2    0    0  0.34847545563E+01  0.16713152268E+02  0.24899945350E+02  0.30190731218E+02  0.00000000000E+00 0. -1.
         -2    1    1    2    0  501  0.65827167154E+01  0.12874450862E+03  0.29021052419E+03  0.31755413557E+03  0.25500000000E-02 0.  1.
<mgrwt>
<rscale>  0 0.14707782E+03</rscale>
<asrwt>0</asrwt>
<pdfrwt beam="1">  1       11 0.10000000E+01 0.14580564E+03</pdfrwt>
<pdfrwt beam="2">  1       -2 0.37346421E-02 0.14707782E+03</pdfrwt>
<totfact> 0.23004577E+03</totfact>
</mgrwt>
</event>
<event>
 5    1  0.2675386E-003  0.3350189E+03  0.7818608E-02  0.1068938E+00
         11   -1    0    0    0    0  0.00000000000E+00  0.00000000000E+00  0.10003387234E+04  0.10003387234E+04  0.51100000000E-03 0. -1.
          2   -1    0    0  501    0 -0.00000000000E+00 -0.00000000000E+00 -0.44807771526E+03  0.44807771527E+03  0.25500000000E-02 0.  1.
         11    1    1    2    0    0 -0.24783983274E+03  0.20476370781E+03  0.90591840044E+03  0.96127046506E+03  0.51100000000E-03 0. -1.
         22    1    1    2    0    0  0.89755604884E+02 -0.13233012587E+03 -0.14861651823E+03  0.21829842032E+03  0.00000000000E+00 0.  1.
          2    1    1    2  501    0  0.15808422785E+03 -0.72433581933E+02 -0.20504087405E+03  0.26884755332E+03  0.25500000000E-02 0.  1.
<mgrwt>
<rscale>  0 0.33501888E+03</rscale>
<asrwt>0</asrwt>
<pdfrwt beam="1">  1       11 0.10000000E+01 0.32148524E+03</pdfrwt>
<pdfrwt beam="2">  1        2 0.68958381E-01 0.33501888E+03</pdfrwt>
<totfact> 0.87367536E+01</totfact>
</mgrwt>
</event>
<event>
 5    1  0.2675386E-003  0.2208063E+03  0.7818608E-02  0.1538706E+00
         11   -1    0    0    0    0  0.00000000000E+00  0.00000000000E+00  0.10001134017E+04  0.10001134017E+04  0.51100000000E-03 0. -1.
         -2   -1    0    0    0  501 -0.00000000000E+00 -0.00000000000E+00 -0.13534999284E+03  0.13534999287E+03  0.25500000000E-02 0. -1.
         11    1    1    2    0    0 -0.10524537760E+02  0.22268485590E+03  0.85197390727E+03  0.88065819114E+03  0.51100000000E-03 0. -1.
         22    1    1    2    0    0  0.40273562442E+02 -0.20216475235E+03 -0.18549261300E+02  0.20697009933E+03  0.00000000000E+00 0. -1.
         -2    1    1    2    0  501 -0.29749024683E+02 -0.20520103554E+02  0.31338762919E+02  0.47835104131E+02  0.25500000000E-02 0. -1.
<mgrwt>
<rscale>  0 0.36139717E+02</rscale>
<asrwt>0</asrwt>
<pdfrwt beam="1">  1       11 0.10000000E+01 0.22080626E+03</pdfrwt>
<pdfrwt beam="2">  1       -2 0.20825437E-01 0.36139717E+02</pdfrwt>
<totfact> 0.14598447E+02</totfact>
</mgrwt>
</event>
<event>
 5    1  0.2675386E-003  0.1263472E+03  0.7818608E-02  0.1232979E+00
         11   -1    0    0    0    0  0.00000000000E+00  0.00000000000E+00  0.10002391356E+04  0.10002391356E+04  0.51100000000E-03 0.  1.
          2   -1    0    0  501    0 -0.00000000000E+00 -0.00000000000E+00 -0.21528813220E+02  0.21528813371E+02  0.25500000000E-02 0. -1.
         11    1    1    2    0    0 -0.12231208036E+03 -0.26166697405E+02  0.75107890756E+03  0.76142265953E+03  0.51100000000E-03 0.  1.
         22    1    1    2    0    0  0.12803388948E+02 -0.26969387193E+01  0.24783339448E+02  0.28025241501E+02  0.00000000000E+00 0. -1.
          2    1    1    2  501    0  0.10950869142E+03  0.28863636125E+02  0.20284807533E+03  0.23232004791E+03  0.25500000000E-02 0. -1.
<mgrwt>
<rscale>  0 0.12634718E+03</rscale>
<asrwt>0</asrwt>
<pdfrwt beam="1">  1       11 0.10000000E+01 0.12507974E+03</pdfrwt>
<pdfrwt beam="2">  1        2 0.33129171E-02 0.12634718E+03</pdfrwt>
<totfact> 0.31360906E+03</totfact>
</mgrwt>
</event>
<event>
 5    1  0.2675386E-003  0.1333852E+03  0.7818608E-02  0.1222517E+00
         11   -1    0    0    0    0  0.00000000000E+00  0.00000000000E+00  0.10002449969E+04  0.10002449969E+04  0.51100000000E-03 0.  1.
          2   -1    0    0  501    0 -0.00000000000E+00 -0.00000000000E+00 -0.38376033576E+02  0.38376033661E+02  0.25500000000E-02 0.  1.
         11    1    1    2    0    0 -0.32055655740E+02  0.18442595632E+02  0.19535419511E+03  0.19882393203E+03  0.51100000000E-03 0.  1.
         22    1    1    2    0    0 -0.98074316150E+02 -0.86852529527E+02  0.12298058868E+03  0.17968349553E+03  0.00000000000E+00 0.  1.
          2    1    1    2  501    0  0.13012997189E+03  0.68409933895E+02  0.64353417949E+03  0.66011360296E+03  0.25500000000E-02 0.  1.
<mgrwt>
<rscale>  0 0.13338516E+03</rscale>
<asrwt>0</asrwt>
<pdfrwt beam="1">  1       11 0.10000000E+01 0.36982353E+02</pdfrwt>
<pdfrwt beam="2">  1        2 0.59054515E-02 0.13338516E+03</pdfrwt>
<totfact> 0.14747370E+03</totfact>
</mgrwt>
</event>
<event>
 5    1  0.2675386E-003  0.7752508E+02  0.7818608E-02  0.1504169E+00
         11   -1    0    0    0    0  0.00000000000E+00  0.00000000000E+00  0.10000385815E+04  0.10000385815E+04  0.51100000000E-03 0. -1.
          2   -1    0    0  501    0 -0.00000000000E+00 -0.00000000000E+00 -0.19257985625E+02  0.19257985794E+02  0.25500000000E-02 0. -1.
         11    1    1    2    0    0 -0.85229623366E+02  0.24279930457E+02  0.10732495786E+03  0.13918423151E+03  0.51100000000E-03 0. -1.
         22    1    1    2    0    0  0.17736767610E+02  0.11639334213E+02  0.73186088127E+02  0.76198887928E+02  0.00000000000E+00 0.  1.
          2    1    1    2  501    0  0.67492855756E+02 -0.35919264670E+02  0.80026954991E+03  0.80391344787E+03  0.25500000000E-02 0. -1.
<mgrwt>
<rscale>  0 0.40554618E+02</rscale>
<asrwt>0</asrwt>
<pdfrwt beam="1">  1       11 0.10000000E+01 0.77525085E+02</pdfrwt>
<pdfrwt beam="2">  1        2 0.29628813E-02 0.40554618E+02</pdfrwt>
<totfact> 0.31759102E+03</totfact>
</mgrwt>
</event>
<event>
 5    1  0.2675386E-003  0.1946419E+03  0.7818608E-02  0.1154340E+00
         11   -1    0    0    0    0  0.00000000000E+00  0.00000000000E+00  0.10002187718E+04  0.10002187718E+04  0.51100000000E-03 0. -1.
         -2   -1    0    0    0  501 -0.00000000000E+00 -0.00000000000E+00 -0.57895823949E+02  0.57895824005E+02  0.25500000000E-02 0.  1.
         11    1    1    2    0    0  0.19158277471E+03  0.53873932916E+00  0.78442249742E+03  0.80747935222E+03  0.51100000000E-03 0. -1.
         22    1    1    2    0    0 -0.41043132104E+02  0.83181447337E+01  0.20497115270E+02  0.46624692589E+02  0.00000000000E+00 0.  1.
         -2    1    1    2    0  501 -0.15053964261E+03 -0.88568840628E+01  0.13740333512E+03  0.20401055096E+03  0.25500000000E-02 0.  1.
<mgrwt>
<rscale>  0 0.19464191E+03</rscale>
<asrwt>0</asrwt>
<pdfrwt beam="1">  1       11 0.10000000E+01 0.19158353E+03</pdfrwt>
<pdfrwt beam="2">  1       -2 0.89089982E-02 0.19464191E+03</pdfrwt>
<totfact> 0.62537588E+02</totfact>
</mgrwt>
</event>
<event>
 5    1  0.2675386E-003  0.1080589E+03  0.7818608E-02  0.1264207E+00
         11   -1    0    0    0    0  0.00000000000E+00  0.00000000000E+00  0.10001718499E+04  0.10001718499E+04  0.51100000000E-03 0. -1.
         -2   -1    0    0    0  501 -0.00000000000E+00 -0.00000000000E+00 -0.15535192986E+02  0.15535193195E+02  0.25500000000E-02 0. -1.
         11    1    1    2    0    0 -0.48932893200E+02  0.94750630747E+02  0.23178538071E+03  0.25514030018E+03  0.51100000000E-03 0. -1.
         22    1    1    2    0    0  0.10017518256E+02 -0.13853037881E+02  0.84359921279E+02  0.86074698075E+02  0.00000000000E+00 0.  1.
         -2    1    1    2    0  501  0.38915374944E+02 -0.80897592866E+02  0.66849135491E+03  0.67449204483E+03  0.25500000000E-02 0. -1.
<mgrwt>
<rscale>  0 0.10805890E+03</rscale>
<asrwt>0</asrwt>
<pdfrwt beam="1">  1       11 0.10000000E+01 0.10664015E+03</pdfrwt>
<pdfrwt beam="2">  1       -2 0.23904404E-02 0.10805890E+03</pdfrwt>
<totfact> 0.42807679E+03</totfact>
</mgrwt>
</event>
<event>
 5    1  0.2675386E-003  0.7786192E+02  0.7818608E-02  0.1335231E+00
         11   -1    0    0    0    0  0.00000000000E+00  0.00000000000E+00  0.10000996914E+04  0.10000996914E+04  0.51100000000E-03 0.  1.
         -2   -1    0    0    0  501 -0.00000000000E+00 -0.00000000000E+00 -0.57460479315E+01  0.57460484973E+01  0.25500000000E-02 0. -1.
         11    1    1    2    0    0 -0.63381976126E+02 -0.30891725028E+02  0.37026141796E+03  0.37691523079E+03  0.51100000000E-03 0.  1.
         22    1    1    2    0    0  0.23742757429E+02  0.55111988214E+01  0.10898610777E+03  0.11167839329E+03  0.00000000000E+00 0. -1.
         -2    1    1    2    0  501  0.39639218697E+02  0.25380526207E+02  0.51510611778E+03  0.51725211585E+03  0.25500000000E-02 0. -1.
<mgrwt>
<rscale>  0 0.77861925E+02</rscale>
<asrwt>0</asrwt>
<pdfrwt beam="1">  1       11 0.10000000E+01 0.70509422E+02</pdfrwt>
<pdfrwt beam="2">  1       -2 0.88409552E-03 0.77861925E+02</pdfrwt>
<totfact> 0.16862993E+04</totfact>
</mgrwt>
</event>
<event>
 5    1  0.2675386E-003  0.1080278E+03  0.7818608E-02  0.1264266E+00
         11   -1    0    0    0    0  0.00000000000E+00  0.00000000000E+00  0.99998737433E+03  0.99998737433E+03  0.51100000000E-03 0. -1.
         -2   -1    0    0    0  501 -0.00000000000E+00 -0.00000000000E+00 -0.11293838347E+02  0.11293838635E+02  0.25500000000E-02 0. -1.
         11    1    1    2    0    0 -0.68090837907E+02  0.79167908412E+02  0.50099321827E+03  0.51175983105E+03  0.51100000000E-03 0. -1.
         22    1    1    2    0    0  0.75677524885E+01 -0.13529509736E+02  0.37941627921E+02  0.40986407999E+02  0.00000000000E+00 0.  1.
         -2    1    1    2    0  501  0.60523085419E+02 -0.65638398676E+02  0.44975868980E+03  0.45853497392E+03  0.25500000000E-02 0. -1.
<mgrwt>
<rscale>  0 0.10802783E+03</rscale>
<asrwt>0</asrwt>
<pdfrwt beam="1">  1       11 0.10000000E+01 0.10442184E+03</pdfrwt>
<pdfrwt beam="2">  1       -2 0.17374916E-02 0.10802783E+03</pdfrwt>
<totfact> 0.67854297E+03</totfact>
</mgrwt>
</event>
<event>
 5    1  0.2675386E-003  0.1858355E+03  0.7818608E-02  0.1162272E+00
         11   -1    0    0    0    0  0.00000000000E+00  0.00000000000E+00  0.10001108675E+04  0.10001108675E+04  0.51100000000E-03 0. -1.
          2   -1    0    0  501    0 -0.00000000000E+00 -0.00000000000E+00 -0.12615223785E+03  0.12615223787E+03  0.25500000000E-02 0. -1.
         11    1    1    2    0    0 -0.33639867112E+02 -0.18074217299E+03  0.91721595225E+03  0.93545950037E+03  0.51100000000E-03 0. -1.
         22    1    1    2    0    0 -0.46426687535E+01  0.20036731614E+02 -0.32093980432E+01  0.20816465183E+02  0.00000000000E+00 0.  1.
          2    1    1    2  501    0  0.38282535865E+02  0.16070544138E+03 -0.40047924555E+02  0.16998713983E+03  0.25500000000E-02 0. -1.
<mgrwt>
<rscale>  0 0.18583546E+03</rscale>
<asrwt>0</asrwt>
<pdfrwt beam="1">  1       11 0.10000000E+01 0.18384606E+03</pdfrwt>
<pdfrwt beam="2">  1        2 0.19410188E-01 0.18583546E+03</pdfrwt>
<totfact> 0.35108930E+02</totfact>
</mgrwt>
</event>
<event>
 5    1  0.2675386E-003  0.1725485E+03  0.7818608E-02  0.1293028E+00
         11   -1    0    0    0    0  0.00000000000E+00  0.00000000000E+00  0.10003112594E+04  0.10003112594E+04  0.51100000000E-03 0. -1.
          2   -1    0    0  501    0 -0.00000000000E+00 -0.00000000000E+00 -0.18071974032E+03  0.18071974034E+03  0.25500000000E-02 0. -1.
         11    1    1    2    0    0 -0.25683197550E+02  0.16793675622E+03  0.58659032130E+03  0.61069680347E+03  0.51100000000E-03 0. -1.
         22    1    1    2    0    0  0.11693207150E+03 -0.19125936116E+03 -0.84186557376E+02  0.23945903412E+03  0.00000000000E+00 0. -1.
          2    1    1    2  501    0 -0.91248873955E+02  0.23322604936E+02  0.31718775518E+03  0.33087516217E+03  0.25500000000E-02 0. -1.
<mgrwt>
<rscale>  0 0.94182275E+02</rscale>
<asrwt>0</asrwt>
<pdfrwt beam="1">  1       11 0.10000000E+01 0.17254847E+03</pdfrwt>
<pdfrwt beam="2">  1        2 0.27811690E-01 0.94182275E+02</pdfrwt>
<totfact> 0.23099751E+02</totfact>
</mgrwt>
</event>
<event>
 5    1  0.2675386E-003  0.1563068E+03  0.7818608E-02  0.1192931E+00
         11   -1    0    0    0    0  0.00000000000E+00  0.00000000000E+00  0.10001836778E+04  0.10001836778E+04  0.51100000000E-03 0.  1.
          2   -1    0    0  501    0 -0.00000000000E+00 -0.00000000000E+00 -0.48530668549E+02  0.48530668616E+02  0.25500000000E-02 0.  1.
         11    1    1    2    0    0 -0.15173795797E+03  0.89796451949E+01  0.84717872018E+03  0.86070716614E+03  0.51100000000E-03 0.  1.
         22    1    1    2    0    0  0.97077964187E+02  0.11808913599E+02  0.67257091528E+02  0.11868908093E+03  0.00000000000E+00 0.  1.
          2    1    1    2  501    0  0.54659993781E+02 -0.20788558794E+02  0.37217197527E+02  0.69318099333E+02  0.25500000000E-02 0.  1.
<mgrwt>
<rscale>  0 0.15630682E+03</rscale>
<asrwt>0</asrwt>
<pdfrwt beam="1">  1       11 0.10000000E+01 0.15200343E+03</pdfrwt>
<pdfrwt beam="2">  1        2 0.74676279E-02 0.15630682E+03</pdfrwt>
<totfact> 0.11045883E+03</totfact>
</mgrwt>
</event>
<event>
 5    1  0.2675386E-003  0.2104529E+03  0.7818608E-02  0.1141208E+00
         11   -1    0    0    0    0  0.00000000000E+00  0.00000000000E+00  0.10003276243E+04  0.10003276243E+04  0.51100000000E-03 0. -1.
          2   -1    0    0  501    0 -0.00000000000E+00 -0.00000000000E+00 -0.11116403762E+03  0.11116403765E+03  0.25500000000E-02 0. -1.
         11    1    1    2    0    0  0.13783469120E+03 -0.14602201576E+03  0.87808001450E+03  0.90074710272E+03  0.51100000000E-03 0. -1.
         22    1    1    2    0    0 -0.64129482138E+02  0.83504948253E+02 -0.23887277078E+02  0.10796420179E+03  0.00000000000E+00 0. -1.
          2    1    1    2  501    0 -0.73705209062E+02  0.62517067511E+02  0.34970849254E+02  0.10278035745E+03  0.25500000000E-02 0. -1.
<mgrwt>
<rscale>  0 0.21045290E+03</rscale>
<asrwt>0</asrwt>
<pdfrwt beam="1">  1       11 0.10000000E+01 0.20080048E+03</pdfrwt>
<pdfrwt beam="2">  1        2 0.17107762E-01 0.21045290E+03</pdfrwt>
<totfact> 0.40786317E+02</totfact>
</mgrwt>
</event>
<event>
 5    1  0.2675386E-003  0.1739456E+03  0.7818608E-02  0.1445030E+00
         11   -1    0    0    0    0  0.00000000000E+00  0.00000000000E+00  0.10002434377E+04  0.10002434377E+04  0.51100000000E-03 0. -1.
          2   -1    0    0  501    0 -0.00000000000E+00 -0.00000000000E+00 -0.19656820425E+03  0.19656820426E+03  0.25500000000E-02 0. -1.
         11    1    1    2    0    0  0.15863578926E+03 -0.72330829119E+02  0.94845353034E+03  0.96434493917E+03  0.51100000000E-03 0. -1.
         22    1    1    2    0    0 -0.12732716856E+02 -0.67376988998E+01 -0.20878839356E+02  0.25366209765E+02  0.00000000000E+00 0. -1.
          2    1    1    2  501    0 -0.14590307241E+03  0.79068528018E+02 -0.12389945749E+03  0.20710049308E+03  0.25500000000E-02 0. -1.
<mgrwt>
<rscale>  0 0.50057720E+02</rscale>
<asrwt>0</asrwt>
<pdfrwt beam="1">  1       11 0.10000000E+01 0.17394564E+03</pdfrwt>
<pdfrwt beam="2">  1        2 0.30248623E-01 0.50057720E+02</pdfrwt>
<totfact> 0.20770537E+02</totfact>
</mgrwt>
</event>
<event>
 5    1  0.2675386E-003  0.1131154E+03  0.7818608E-02  0.1254907E+00
         11   -1    0    0    0    0  0.00000000000E+00  0.00000000000E+00  0.10000361469E+04  0.10000361469E+04  0.51100000000E-03 0. -1.
         -2   -1    0    0    0  501 -0.00000000000E+00 -0.00000000000E+00 -0.19724578753E+02  0.19724578918E+02  0.25500000000E-02 0.  1.
         11    1    1    2    0    0 -0.89697054576E+02  0.97493356499E+02  0.47124347267E+03  0.48951090559E+03  0.51100000000E-03 0. -1.
         22    1    1    2    0    0  0.36653839929E+02 -0.10012619738E+02  0.22793865880E+03  0.23108394300E+03  0.00000000000E+00 0. -1.
         -2    1    1    2    0  501  0.53043214647E+02 -0.87480736761E+02  0.28112943667E+03  0.29916587722E+03  0.25500000000E-02 0.  1.
<mgrwt>
<rscale>  0 0.11311535E+03</rscale>
<asrwt>0</asrwt>
<pdfrwt beam="1">  1       11 0.10000000E+01 0.37996796E+02</pdfrwt>
<pdfrwt beam="2">  1       -2 0.30346602E-02 0.11311535E+03</pdfrwt>
<totfact> 0.30399936E+03</totfact>
</mgrwt>
</event>
<event>
 5    1  0.2675386E-003  0.3677292E+03  0.7818608E-02  0.1272830E+00
         11   -1    0    0    0    0  0.00000000000E+00  0.00000000000E+00  0.10002961066E+04  0.10002961066E+04  0.51100000000E-03 0. -1.
          2   -1    0    0  501    0 -0.00000000000E+00 -0.00000000000E+00 -0.15281211980E+03  0.15281211982E+03  0.25500000000E-02 0. -1.
         11    1    1    2    0    0  0.28010330771E+03  0.23442630746E+03  0.47803690521E+03  0.60160854330E+03  0.51100000000E-03 0. -1.
         22    1    1    2    0    0  0.22352232749E+02 -0.18800318776E+02  0.24171348536E+01  0.29307282983E+02  0.00000000000E+00 0.  1.
          2    1    1    2  501    0 -0.30245554046E+03 -0.21562598869E+03  0.36702994670E+03  0.52219240011E+03  0.25500000000E-02 0. -1.
<mgrwt>
<rscale>  0 0.10363603E+03</rscale>
<asrwt>0</asrwt>
<pdfrwt beam="1">  1       11 0.10000000E+01 0.36772922E+03</pdfrwt>
<pdfrwt beam="2">  1        2 0.23516518E-01 0.10363603E+03</pdfrwt>
<totfact> 0.27806175E+02</totfact>
</mgrwt>
</event>
<event>
 5    1  0.2675386E-003  0.4469586E+02  0.7818608E-02  0.1541523E+00
         11   -1    0    0    0    0  0.00000000000E+00  0.00000000000E+00  0.99998878821E+03  0.99998878821E+03  0.51100000000E-03 0. -1.
          2   -1    0    0  501    0 -0.00000000000E+00 -0.00000000000E+00 -0.61479821757E+01  0.61479827045E+01  0.25500000000E-02 0. -1.
         11    1    1    2    0    0  0.58374598502E+02  0.34998836560E+02  0.29501172097E+03  0.30276133805E+03  0.51100000000E-03 0. -1.
         22    1    1    2    0    0 -0.27156209738E+02 -0.92572657418E+01  0.13092698682E+03  0.13403369940E+03  0.00000000000E+00 0. -1.
          2    1    1    2  501    0 -0.31218388764E+02 -0.25741570818E+02  0.56790209824E+03  0.56934173346E+03  0.25500000000E-02 0. -1.
<mgrwt>
<rscale>  0 0.35809989E+02</rscale>
<asrwt>0</asrwt>
<pdfrwt beam="1">  1       11 0.10000000E+01 0.44695864E+02</pdfrwt>
<pdfrwt beam="2">  1        2 0.94583282E-03 0.35809989E+02</pdfrwt>
<totfact> 0.13926988E+04</totfact>
</mgrwt>
</event>
<event>
 5    1  0.2675386E-003  0.7694923E+02  0.7818608E-02  0.1641284E+00
         11   -1    0    0    0    0  0.00000000000E+00  0.00000000000E+00  0.10007006251E+04  0.10007006251E+04  0.51100000000E-03 0. -1.
          2   -1    0    0  501    0 -0.00000000000E+00 -0.00000000000E+00 -0.17747557191E+02  0.17747557374E+02  0.25500000000E-02 0. -1.
         11    1    1    2    0    0  0.78101696149E+02  0.55515518961E+02  0.15838392000E+03  0.18511432657E+03  0.51100000000E-03 0. -1.
         22    1    1    2    0    0 -0.52722261205E+02 -0.48140790679E+02  0.31118691920E+03  0.31927178271E+03  0.00000000000E+00 0. -1.
          2    1    1    2  501    0 -0.25379434944E+02 -0.73747282821E+01  0.51338222873E+03  0.51406207322E+03  0.25500000000E-02 0. -1.
<mgrwt>
<rscale>  0 0.26429195E+02</rscale>
<asrwt>0</asrwt>
<pdfrwt beam="1">  1       11 0.10000000E+01 0.76949228E+02</pdfrwt>
<pdfrwt beam="2">  1        2 0.27323063E-02 0.26429195E+02</pdfrwt>
<totfact> 0.33046201E+03</totfact>
</mgrwt>
</event>
<event>
 5    1  0.2675386E-003  0.1857149E+03  0.7818608E-02  0.1162384E+00
         11   -1    0    0    0    0  0.00000000000E+00  0.00000000000E+00  0.10001446439E+04  0.10001446439E+04  0.51100000000E-03 0.  1.
         -2   -1    0    0    0  501 -0.00000000000E+00 -0.00000000000E+00 -0.49022342208E+02  0.49022342274E+02  0.25500000000E-02 0.  1.
         11    1    1    2    0    0  0.16322751726E+03  0.45079612930E+02  0.77477463091E+03  0.79306438742E+03  0.51100000000E-03 0.  1.
         22    1    1    2    0    0 -0.84276994238E+02 -0.38903797470E+02  0.14230817972E+03  0.16990507712E+03  0.00000000000E+00 0.  1.
         -2    1    1    2    0  501 -0.78950523020E+02 -0.61758154594E+01  0.34039491099E+02  0.86197521673E+02  0.25500000000E-02 0.  1.
<mgrwt>
<rscale>  0 0.18571494E+03</rscale>
<asrwt>0</asrwt>
<pdfrwt beam="1">  1       11 0.10000000E+01 0.16933811E+03</pdfrwt>
<pdfrwt beam="2">  1       -2 0.75429895E-02 0.18571494E+03</pdfrwt>
<totfact> 0.80833408E+02</totfact>
</mgrwt>
</event>
<event>
 5    1  0.2675386E-003  0.2256340E+03  0.7818608E-02  0.1129751E+00
         11   -1    0    0    0    0  0.00000000000E+00  0.00000000000E+00  0.10003140182E+04  0.10003140182E+04  0.51100000000E-03 0. -1.
          2   -1    0    0  501    0 -0.00000000000E+00 -0.00000000000E+00 -0.67631111265E+02  0.67631111313E+02  0.25500000000E-02 0. -1.
         11    1    1    2    0    0  0.20325749881E+03 -0.94277316991E+02  0.73355032326E+03  0.76700580185E+03  0.51100000000E-03 0. -1.
         22    1    1    2    0    0 -0.10243043098E+02  0.77637997589E+01  0.48500195582E+01  0.13737510994E+02  0.00000000000E+00 0.  1.
          2    1    1    2  501    0 -0.19301445571E+03  0.86513517233E+02  0.19428256415E+03  0.28720181670E+03  0.25500000000E-02 0. -1.
<mgrwt>
<rscale>  0 0.22563398E+03</rscale>
<asrwt>0</asrwt>
<pdfrwt beam="1">  1       11 0.10000000E+01 0.22405763E+03</pdfrwt>
<pdfrwt beam="2">  1        2 0.10408053E-01 0.22563398E+03</pdfrwt>
<totfact> 0.74358431E+02</totfact>
</mgrwt>
</event>
<event>
 5    1  0.2675386E-003  0.3659792E+03  0.7818608E-02  0.1119573E+00
         11   -1    0    0    0    0  0.00000000000E+00  0.00000000000E+00  0.10013512868E+04  0.10013512868E+04  0.51100000000E-03 0. -1.
          2   -1    0    0  501    0 -0.00000000000E+00 -0.00000000000E+00 -0.12932431599E+04  0.12932431599E+04  0.25500000000E-02 0. -1.
         11    1    1    2    0    0  0.36701333719E+03  0.44476727766E+02  0.92341799355E+03  0.99467470049E+03  0.51100000000E-03 0. -1.
         22    1    1    2    0    0 -0.86639273393E+02 -0.13191194733E+03 -0.30510221729E+03  0.34350325840E+03  0.00000000000E+00 0. -1.
          2    1    1    2  501    0 -0.28037406379E+03  0.87435219561E+02 -0.91020764935E+03  0.95641648784E+03  0.25500000000E-02 0. -1.
<mgrwt>
<rscale>  0 0.24033061E+03</rscale>
<asrwt>0</asrwt>
<pdfrwt beam="1">  1       11 0.10000000E+01 0.36597916E+03</pdfrwt>
<pdfrwt beam="2">  1        2 0.19922933E+00 0.24033061E+03</pdfrwt>
<totfact> 0.22298525E+01</totfact>
</mgrwt>
</event>
<event>
 5    1  0.2675386E-003  0.7471672E+02  0.7818608E-02  0.1344750E+00
         11   -1    0    0    0    0  0.00000000000E+00  0.00000000000E+00  0.10003409200E+04  0.10003409200E+04  0.51100000000E-03 0. -1.
          2   -1    0    0  501    0 -0.00000000000E+00 -0.00000000000E+00 -0.99611160314E+01  0.99611163578E+01  0.25500000000E-02 0. -1.
         11    1    1    2    0    0 -0.55752625214E+01  0.41389470781E+02  0.22103179478E+03  0.22494271748E+03  0.51100000000E-03 0. -1.
         22    1    1    2    0    0 -0.55326377514E+02 -0.70890858525E+02  0.45737966036E+03  0.46613589819E+03  0.00000000000E+00 0. -1.
          2    1    1    2  501    0  0.60901640035E+02  0.29501387744E+02  0.31196834886E+03  0.31922342072E+03  0.25500000000E-02 0. -1.
<mgrwt>
<rscale>  0 0.74716721E+02</rscale>
<asrwt>0</asrwt>
<pdfrwt beam="1">  1       11 0.10000000E+01 0.41763283E+02</pdfrwt>
<pdfrwt beam="2">  1        2 0.15330018E-02 0.74716721E+02</pdfrwt>
<totfact> 0.82878256E+03</totfact>
</mgrwt>
</event>
<event>
 5    1  0.2675386E-003  0.1058045E+03  0.7818608E-02  0.1268543E+00
         11   -1    0    0    0    0  0.00000000000E+00  0.00000000000E+00  0.10003966367E+04  0.10003966367E+04  0.51100000000E-03 0.  1.
         -2   -1    0    0    0  501 -0.00000000000E+00 -0.00000000000E+00 -0.10838225110E+02  0.10838225410E+02  0.25500000000E-02 0. -1.
         11    1    1    2    0    0  0.14322653149E+02 -0.99527917748E+02  0.41434506663E+03  0.42637164428E+03  0.51100000000E-03 0.  1.
         22    1    1    2    0    0  0.77423883637E+01  0.32478634548E+02  0.13755550286E+03  0.14154971793E+03  0.00000000000E+00 0. -1.
         -2    1    1    2    0  501 -0.22065041512E+02  0.67049283200E+02  0.43765784206E+03  0.44331349986E+03  0.25500000000E-02 0. -1.
<mgrwt>
<rscale>  0 0.10580450E+03</rscale>
<asrwt>0</asrwt>
<pdfrwt beam="1">  1       11 0.10000000E+01 0.10055324E+03</pdfrwt>
<pdfrwt beam="2">  1       -2 0.16680806E-02 0.10580450E+03</pdfrwt>
<totfact> 0.71744767E+03</totfact>
</mgrwt>
</event>
<event>
 5    1  0.2675386E-003  0.1834447E+03  0.7818608E-02  0.1164510E+00
         11   -1    0    0    0    0  0.00000000000E+00  0.00000000000E+00  0.10000659974E+04  0.10000659974E+04  0.51100000000E-03 0. -1.
          2   -1    0    0  501    0 -0.00000000000E+00 -0.00000000000E+00 -0.64307926827E+02  0.64307926878E+02  0.25500000000E-02 0. -1.
         11    1    1    2    0    0 -0.27468694685E+02 -0.17519484469E+03  0.83789963214E+03  0.85645989768E+03  0.51100000000E-03 0. -1.
         22    1    1    2    0    0  0.90830484108E+01  0.26182130777E+02 -0.16953191717E+01  0.27764723077E+02  0.00000000000E+00 0.  1.
          2    1    1    2  501    0  0.18385646275E+02  0.14901271392E+03  0.99553757598E+02  0.18014930351E+03  0.25500000000E-02 0. -1.
<mgrwt>
<rscale>  0 0.18344473E+03</rscale>
<asrwt>0</asrwt>
<pdfrwt beam="1">  1       11 0.10000000E+01 0.17733517E+03</pdfrwt>
<pdfrwt beam="2">  1        2 0.98941799E-02 0.18344473E+03</pdfrwt>
<totfact> 0.78349093E+02</totfact>
</mgrwt>
</event>
<event>
 5    1  0.2675386E-003  0.2079429E+03  0.7818608E-02  0.1143205E+00
         11   -1    0    0    0    0  0.00000000000E+00  0.00000000000E+00  0.10002224454E+04  0.10002224454E+04  0.51100000000E-03 0. -1.
          2   -1    0    0  501    0 -0.00000000000E+00 -0.00000000000E+00 -0.60443102732E+03  0.60443102733E+03  0.25500000000E-02 0. -1.
         11    1    1    2    0    0  0.12240115913E+03 -0.15216274279E+03  0.97233762405E+03  0.99175400135E+03  0.51100000000E-03 0. -1.
         22    1    1    2    0    0 -0.35341467157E+02  0.95122452768E+02 -0.33098464756E+03  0.34619089711E+03  0.00000000000E+00 0.  1.
          2    1    1    2  501    0 -0.87059691975E+02  0.57040290020E+02 -0.24556155837E+03  0.26670857430E+03  0.25500000000E-02 0. -1.
<mgrwt>
<rscale>  0 0.20794286E+03</rscale>
<asrwt>0</asrwt>
<pdfrwt beam="1">  1       11 0.10000000E+01 0.19528324E+03</pdfrwt>
<pdfrwt beam="2">  1        2 0.93010071E-01 0.20794286E+03</pdfrwt>
<totfact> 0.62760329E+01</totfact>
</mgrwt>
</event>
<event>
 5    1  0.2675386E-003  0.6429289E+02  0.7818608E-02  0.1545897E+00
         11   -1    0    0    0    0  0.00000000000E+00  0.00000000000E+00  0.10000504723E+04  0.10000504723E+04  0.51100000000E-03 0. -1.
          2   -1    0    0  501    0 -0.00000000000E+00 -0.00000000000E+00 -0.82829889426E+01  0.82829893351E+01  0.25500000000E-02 0. -1.
         11    1    1    2    0    0 -0.72205699582E+01  0.72039786741E+02  0.42535912890E+03  0.43147683141E+03  0.51100000000E-03 0. -1.
         22    1    1    2    0    0 -0.22288356625E+02 -0.52655313539E+02  0.18057851986E+03  0.18941476901E+03  0.00000000000E+00 0. -1.
          2    1    1    2  501    0  0.29508926583E+02 -0.19384473202E+02  0.38582983461E+03  0.38744186123E+03  0.25500000000E-02 0. -1.
<mgrwt>
<rscale>  0 0.35306296E+02</rscale>
<asrwt>0</asrwt>
<pdfrwt beam="1">  1       11 0.10000000E+01 0.64292893E+02</pdfrwt>
<pdfrwt beam="2">  1        2 0.12743703E-02 0.35306296E+02</pdfrwt>
<totfact> 0.93595006E+03</totfact>
</mgrwt>
</event>
<event>
 5    1  0.2675386E-003  0.2009398E+03  0.7818608E-02  0.1148949E+00
         11   -1    0    0    0    0  0.00000000000E+00  0.00000000000E+00  0.10006336809E+04  0.10006336809E+04  0.51100000000E-03 0. -1.
          2   -1    0    0  501    0 -0.00000000000E+00 -0.00000000000E+00 -0.75313880010E+02  0.75313880053E+02  0.25500000000E-02 0. -1.
         11    1    1    2    0    0  0.25977935040E+02  0.19710674578E+03  0.83012279997E+03  0.85359814044E+03  0.51100000000E-03 0. -1.
         22    1    1    2    0    0  0.41729815692E+00 -0.14124003277E+02  0.15651313829E+02  0.21086138359E+02  0.00000000000E+00 0.  1.
          2    1    1    2  501    0 -0.26395233197E+02 -0.18298274250E+03  0.79545687044E+02  0.20126328210E+03  0.25500000000E-02 0. -1.
<mgrwt>
<rscale>  0 0.20093978E+03</rscale>
<asrwt>0</asrwt>
<pdfrwt beam="1">  1       11 0.10000000E+01 0.19881127E+03</pdfrwt>
<pdfrwt beam="2">  1        2 0.11594093E-01 0.20093978E+03</pdfrwt>
<totfact> 0.64763866E+02</totfact>
</mgrwt>
</event>
<event>
 5    1  0.2675386E-003  0.2201542E+03  0.7818608E-02  0.1591714E+00
         11   -1    0    0    0    0  0.00000000000E+00  0.00000000000E+00  0.99976313706E+03  0.99976313706E+03  0.51100000000E-03 0. -1.
          2   -1    0    0  501    0 -0.00000000000E+00 -0.00000000000E+00 -0.15663190996E+03  0.15663190998E+03  0.25500000000E-02 0. -1.
         11    1    1    2    0    0  0.21786683615E+03  0.40225456099E+02  0.81048660752E+03  0.84022174846E+03  0.51100000000E-03 0. -1.
         22    1    1    2    0    0 -0.19860498919E+03 -0.63982725650E+02 -0.61219133772E+02  0.21745232409E+03  0.00000000000E+00 0. -1.
          2    1    1    2  501    0 -0.19261846960E+02  0.23757269551E+02  0.93863753352E+02  0.98720974492E+02  0.25500000000E-02 0. -1.
<mgrwt>
<rscale>  0 0.30584745E+02</rscale>
<asrwt>0</asrwt>
<pdfrwt beam="1">  1       11 0.10000000E+01 0.22015415E+03</pdfrwt>
<pdfrwt beam="2">  1        2 0.24091508E-01 0.30584745E+02</pdfrwt>
<totfact> 0.25881452E+02</totfact>
</mgrwt>
</event>
<event>
 5    1  0.3729596E-003  0.1742783E+03  0.7818608E-02  0.1173458E+00
         11   -1    0    0    0    0  0.00000000000E+00  0.00000000000E+00  0.10000718997E+04  0.10000718997E+04  0.51100000000E-03 0. -1.
          2   -1    0    0  501    0 -0.00000000000E+00 -0.00000000000E+00 -0.10036467769E+04  0.10036467769E+04  0.25500000000E-02 0. -1.
         11    1    1    2    0    0 -0.17083812598E+03  0.23224543600E+02  0.98496159269E+03  0.99993718992E+03  0.51100000000E-03 0. -1.
         22    1    1    2    0    0  0.19200721598E+02 -0.76979957546E+01 -0.85249650036E+02  0.87723598193E+02  0.00000000000E+00 0.  1.
          2    1    1    2  501    0  0.15163740439E+03 -0.15526547845E+02 -0.90328681986E+03  0.91605788848E+03  0.25500000000E-02 0. -1.
<mgrwt>
<rscale>  0 0.17427829E+03</rscale>
<asrwt>0</asrwt>
<pdfrwt beam="1">  1       11 0.10000000E+01 0.17240953E+03</pdfrwt>
<pdfrwt beam="2">  1        2 0.15441829E+00 0.17427829E+03</pdfrwt>
<totfact> 0.33381491E+01</totfact>
</mgrwt>
</event>
<event>
 5    1  0.2675386E-003  0.1854972E+03  0.7818608E-02  0.1162586E+00
         11   -1    0    0    0    0  0.00000000000E+00  0.00000000000E+00  0.99983585981E+03  0.99983585981E+03  0.51100000000E-03 0.  1.
          2   -1    0    0  501    0 -0.00000000000E+00 -0.00000000000E+00 -0.14629249107E+03  0.14629249110E+03  0.25500000000E-02 0. -1.
         11    1    1    2    0    0 -0.92800532671E+02 -0.14839228166E+03  0.92938839852E+03  0.94572459174E+03  0.51100000000E-03 0.  1.
         22    1    1    2    0    0  0.58569627179E+02  0.84087169984E+02 -0.75955725408E+02  0.12755518651E+03  0.00000000000E+00 0. -1.
          2    1    1    2  501    0  0.34230905492E+02  0.64305111672E+02  0.11069562520E+00  0.72848572656E+02  0.25500000000E-02 0. -1.
<mgrwt>
<rscale>  0 0.18549716E+03</rscale>
<asrwt>0</asrwt>
<pdfrwt beam="1">  1       11 0.10000000E+01 0.17502059E+03</pdfrwt>
<pdfrwt beam="2">  1        2 0.22502842E-01 0.18549716E+03</pdfrwt>
<totfact> 0.29683854E+02</totfact>
</mgrwt>
</event>
<event>
 5    1  0.2675386E-003  0.2375962E+03  0.7818608E-02  0.1308202E+00
         11   -1    0    0    0    0  0.00000000000E+00  0.00000000000E+00  0.10001706830E+04  0.10001706830E+04  0.51100000000E-03 0. -1.
          2   -1    0    0  501    0 -0.00000000000E+00 -0.00000000000E+00 -0.77941845814E+02  0.77941845856E+02  0.25500000000E-02 0. -1.
         11    1    1    2    0    0  0.20196986392E+03  0.15180466389E+03  0.56493856235E+03  0.61886352384E+03  0.51100000000E-03 0. -1.
         22    1    1    2    0    0 -0.28030577034E+02 -0.16378319419E+02 -0.72259857283E+01  0.33259246317E+02  0.00000000000E+00 0. -1.
          2    1    1    2  501    0 -0.17393928689E+03 -0.13542634447E+03  0.36451626061E+03  0.42598975874E+03  0.25500000000E-02 0. -1.
<mgrwt>
<rscale>  0 0.87826594E+02</rscale>
<asrwt>0</asrwt>
<pdfrwt beam="1">  1       11 0.10000000E+01 0.23759619E+03</pdfrwt>
<pdfrwt beam="2">  1        2 0.11993100E-01 0.87826594E+02</pdfrwt>
<totfact> 0.59598465E+02</totfact>
</mgrwt>
</event>
<event>
 5    1  0.2675386E-003  0.4613695E+02  0.7818608E-02  0.1657301E+00
         11   -1    0    0    0    0  0.00000000000E+00  0.00000000000E+00  0.10003025959E+04  0.10003025959E+04  0.51100000000E-03 0.  1.
          2   -1    0    0  501    0 -0.00000000000E+00 -0.00000000000E+00 -0.40966607662E+01  0.40966615598E+01  0.25500000000E-02 0.  1.
         11    1    1    2    0    0 -0.40303849423E+02  0.32630890703E+02  0.24620511148E+03  0.25160709892E+03  0.51100000000E-03 0.  1.
         22    1    1    2    0    0  0.13422886337E+02  0.33284421767E+01  0.72616370054E+02  0.73921509757E+02  0.00000000000E+00 0.  1.
          2    1    1    2  501    0  0.26880963086E+02 -0.35959332880E+02  0.67738445364E+03  0.67887064882E+03  0.25500000000E-02 0.  1.
<mgrwt>
<rscale>  0 0.25259577E+02</rscale>
<asrwt>0</asrwt>
<pdfrwt beam="1">  1       11 0.10000000E+01 0.46136952E+02</pdfrwt>
<pdfrwt beam="2">  1        2 0.63044626E-03 0.25259577E+02</pdfrwt>
<totfact> 0.22021298E+04</totfact>
</mgrwt>
</event>
<event>
 5    1  0.2675386E-003  0.1604026E+03  0.7818608E-02  0.1188243E+00
         11   -1    0    0    0    0  0.00000000000E+00  0.00000000000E+00  0.10004226518E+04  0.10004226518E+04  0.51100000000E-03 0. -1.
          2   -1    0    0  501    0 -0.00000000000E+00 -0.00000000000E+00 -0.24483977475E+02  0.24483977608E+02  0.25500000000E-02 0. -1.
         11    1    1    2    0    0  0.13340686098E+03 -0.68706271213E+02  0.53723081511E+03  0.55779466738E+03  0.51100000000E-03 0. -1.
         22    1    1    2    0    0 -0.30834552957E+02 -0.84232048865E+01  0.94326188818E+02  0.99594929256E+02  0.00000000000E+00 0. -1.
          2    1    1    2  501    0 -0.10257230803E+03  0.77129476100E+02  0.34438167035E+03  0.36751703272E+03  0.25500000000E-02 0. -1.
<mgrwt>
<rscale>  0 0.16040262E+03</rscale>
<asrwt>0</asrwt>
<pdfrwt beam="1">  1       11 0.10000000E+01 0.15005980E+03</pdfrwt>
<pdfrwt beam="2">  1        2 0.37683577E-02 0.16040262E+03</pdfrwt>
<totfact> 0.27008954E+03</totfact>
</mgrwt>
</event>
<event>
 5    1  0.2675386E-003  0.2156598E+03  0.7818608E-02  0.1137161E+00
         11   -1    0    0    0    0  0.00000000000E+00  0.00000000000E+00  0.10000392249E+04  0.10000392249E+04  0.51100000000E-03 0.  1.
          2   -1    0    0  501    0 -0.00000000000E+00 -0.00000000000E+00 -0.10650788775E+03  0.10650788778E+03  0.25500000000E-02 0.  1.
         11    1    1    2    0    0 -0.21318550122E+03  0.65320967814E+01  0.86272442554E+03  0.88869801431E+03  0.51100000000E-03 0.  1.
         22    1    1    2    0    0  0.14405481379E+02 -0.85558200987E+01  0.50294751873E+00  0.16762246494E+02  0.00000000000E+00 0. -1.
          2    1    1    2  501    0  0.19878001984E+03  0.20237233173E+01  0.30303964071E+02  0.20108685186E+03  0.25500000000E-02 0.  1.
<mgrwt>
<rscale>  0 0.21565983E+03</rscale>
<asrwt>0</asrwt>
<pdfrwt beam="1">  1       11 0.10000000E+01 0.21328555E+03</pdfrwt>
<pdfrwt beam="2">  1        2 0.16386471E-01 0.21565983E+03</pdfrwt>
<totfact> 0.42930022E+02</totfact>
</mgrwt>
</event>
<event>
 5    1  0.2675386E-003  0.1587153E+03  0.7818608E-02  0.1190155E+00
         11   -1    0    0    0    0  0.00000000000E+00  0.00000000000E+00  0.10000940397E+04  0.10000940397E+04  0.51100000000E-03 0. -1.
         -2   -1    0    0    0  501 -0.00000000000E+00 -0.00000000000E+00 -0.64658442328E+02  0.64658442378E+02  0.25500000000E-02 0.  1.
         11    1    1    2    0    0  0.15667519870E+03  0.57468294709E+01  0.88417078516E+03  0.89796331844E+03  0.51100000000E-03 0. -1.
         22    1    1    2    0    0 -0.16102183920E+02  0.18063616370E+00  0.13752206333E+02  0.21176310714E+02  0.00000000000E+00 0.  1.
         -2    1    1    2    0  501 -0.14057301478E+03 -0.59274656346E+01  0.37512605901E+02  0.14561285294E+03  0.25500000000E-02 0.  1.
<mgrwt>
<rscale>  0 0.15871529E+03</rscale>
<asrwt>0</asrwt>
<pdfrwt beam="1">  1       11 0.10000000E+01 0.15678056E+03</pdfrwt>
<pdfrwt beam="2">  1       -2 0.99483878E-02 0.15871529E+03</pdfrwt>
<totfact> 0.51944402E+02</totfact>
</mgrwt>
</event>
<event>
 5    1  0.2675386E-003  0.1751032E+03  0.7818608E-02  0.1172628E+00
         11   -1    0    0    0    0  0.00000000000E+00  0.00000000000E+00  0.10001624208E+04  0.10001624208E+04  0.51100000000E-03 0. -1.
          2   -1    0    0  501    0 -0.00000000000E+00 -0.00000000000E+00 -0.26021965189E+03  0.26021965190E+03  0.25500000000E-02 0. -1.
         11    1    1    2    0    0 -0.15921171689E+03  0.29988562532E+02  0.96315370975E+03  0.97668457205E+03  0.51100000000E-03 0. -1.
         22    1    1    2    0    0  0.50512677174E+02  0.45538003040E+01 -0.11836775478E+03  0.12877574704E+03  0.00000000000E+00 0.  1.
          2    1    1    2  501    0  0.10869903972E+03 -0.34542362836E+02 -0.10484318607E+03  0.15492175360E+03  0.25500000000E-02 0. -1.
<mgrwt>
<rscale>  0 0.17510325E+03</rscale>
<asrwt>0</asrwt>
<pdfrwt beam="1">  1       11 0.10000000E+01 0.16201137E+03</pdfrwt>
<pdfrwt beam="2">  1        2 0.40040294E-01 0.17510325E+03</pdfrwt>
<totfact> 0.15780881E+02</totfact>
</mgrwt>
</event>
<event>
 5    1  0.2675386E-003  0.1512166E+03  0.7818608E-02  0.1397966E+00
         11   -1    0    0    0    0  0.00000000000E+00  0.00000000000E+00  0.10003315215E+04  0.10003315215E+04  0.51100000000E-03 0.  1.
          2   -1    0    0  501    0 -0.00000000000E+00 -0.00000000000E+00 -0.52670579495E+02  0.52670579557E+02  0.25500000000E-02 0. -1.
         11    1    1    2    0    0  0.40710158822E+02 -0.14861940580E+03  0.84331408809E+03  0.85727690742E+03  0.51100000000E-03 0.  1.
         22    1    1    2    0    0 -0.20328463065E+02  0.12341617186E+02  0.15881243346E+01  0.23834514139E+02  0.00000000000E+00 0.  1.
          2    1    1    2  501    0 -0.20381695757E+02  0.13627778862E+03  0.10275872961E+03  0.17189067953E+03  0.25500000000E-02 0. -1.
<mgrwt>
<rscale>  0 0.59968036E+02</rscale>
<asrwt>0</asrwt>
<pdfrwt beam="1">  1       11 0.10000000E+01 0.15121663E+03</pdfrwt>
<pdfrwt beam="2">  1        2 0.81058522E-02 0.59968036E+02</pdfrwt>
<totfact> 0.93079429E+02</totfact>
</mgrwt>
</event>
<event>
 5    1  0.4402347E-003  0.1758013E+03  0.7818608E-02  0.1171930E+00
         11   -1    0    0    0    0  0.00000000000E+00  0.00000000000E+00  0.10001725933E+04  0.10001725933E+04  0.51100000000E-03 0. -1.
          2   -1    0    0  501    0 -0.00000000000E+00 -0.00000000000E+00 -0.66435883015E+03  0.66435883016E+03  0.25500000000E-02 0. -1.
         11    1    1    2    0    0  0.15257666555E+03  0.83596241361E+02  0.98075121741E+03  0.99606270932E+03  0.51100000000E-03 0. -1.
         22    1    1    2    0    0 -0.12789502141E+02 -0.54210647268E+01 -0.30750313021E+02  0.33742274059E+02  0.00000000000E+00 0. -1.
          2    1    1    2  501    0 -0.13978716341E+03 -0.78175176635E+02 -0.61418714123E+03  0.63472644009E+03  0.25500000000E-02 0. -1.
<mgrwt>
<rscale>  0 0.17580131E+03</rscale>
<asrwt>0</asrwt>
<pdfrwt beam="1">  1       11 0.10000000E+01 0.17397693E+03</pdfrwt>
<pdfrwt beam="2">  1        2 0.10222669E+00 0.17580131E+03</pdfrwt>
<totfact> 0.56434748E+01</totfact>
</mgrwt>
</event>
<event>
 5    1  0.2675386E-003  0.1516962E+03  0.7818608E-02  0.1198404E+00
         11   -1    0    0    0    0  0.00000000000E+00  0.00000000000E+00  0.10001088059E+04  0.10001088059E+04  0.51100000000E-03 0. -1.
          2   -1    0    0  501    0 -0.00000000000E+00 -0.00000000000E+00 -0.34823657104E+02  0.34823657198E+02  0.25500000000E-02 0. -1.
         11    1    1    2    0    0  0.27530176481E+02 -0.14681546080E+03  0.78606262602E+03  0.80012945338E+03  0.51100000000E-03 0. -1.
         22    1    1    2    0    0  0.39521163458E+01  0.16660386178E+02  0.13916912835E+02  0.22065089034E+02  0.00000000000E+00 0.  1.
          2    1    1    2  501    0 -0.31482292827E+02  0.13015507463E+03  0.16530560996E+03  0.21273792070E+03  0.25500000000E-02 0. -1.
<mgrwt>
<rscale>  0 0.15169621E+03</rscale>
<asrwt>0</asrwt>
<pdfrwt beam="1">  1       11 0.10000000E+01 0.14937433E+03</pdfrwt>
<pdfrwt beam="2">  1        2 0.53580685E-02 0.15169621E+03</pdfrwt>
<totfact> 0.16894078E+03</totfact>
</mgrwt>
</event>
<event>
 5    1  0.2675386E-003  0.1120331E+03  0.7818608E-02  0.1256851E+00
         11   -1    0    0    0    0  0.00000000000E+00  0.00000000000E+00  0.10003279461E+04  0.10003279461E+04  0.51100000000E-03 0.  1.
          2   -1    0    0  501    0 -0.00000000000E+00 -0.00000000000E+00 -0.12410153464E+02  0.12410153726E+02  0.25500000000E-02 0.  1.
         11    1    1    2    0    0  0.13272866245E+01  0.11079335487E+03  0.49420164234E+03  0.50647032733E+03  0.51100000000E-03 0.  1.
         22    1    1    2    0    0  0.32312497954E+01 -0.14912613143E+02  0.49474745987E+02  0.51774293781E+02  0.00000000000E+00 0. -1.
          2    1    1    2  501    0 -0.45585364198E+01 -0.95880741722E+02  0.44424140428E+03  0.45449347869E+03  0.25500000000E-02 0.  1.
<mgrwt>
<rscale>  0 0.11203312E+03</rscale>
<asrwt>0</asrwt>
<pdfrwt beam="1">  1       11 0.10000000E+01 0.11080130E+03</pdfrwt>
<pdfrwt beam="2">  1        2 0.19098805E-02 0.11203312E+03</pdfrwt>
<totfact> 0.65017376E+03</totfact>
</mgrwt>
</event>
<event>
 5    1  0.2675386E-003  0.3093252E+02  0.7818608E-02  0.1723911E+00
         11   -1    0    0    0    0  0.00000000000E+00  0.00000000000E+00  0.10000848085E+04  0.10000848085E+04  0.51100000000E-03 0. -1.
         -2   -1    0    0    0  501 -0.00000000000E+00 -0.00000000000E+00 -0.55946115522E+01  0.55946121333E+01  0.25500000000E-02 0. -1.
         11    1    1    2    0    0 -0.17812400673E+02  0.30815869991E+02  0.10109030459E+03  0.10717345353E+03  0.51100000000E-03 0. -1.
         22    1    1    2    0    0  0.14419687694E+02 -0.24299447785E+00  0.20502178153E+02  0.25066426721E+02  0.00000000000E+00 0.  1.
         -2    1    1    2    0  501  0.33927129793E+01 -0.30572875513E+02  0.87289771423E+03  0.87343954040E+03  0.25500000000E-02 0. -1.
<mgrwt>
<rscale>  0 0.21121088E+02</rscale>
<asrwt>0</asrwt>
<pdfrwt beam="1">  1       11 0.10000000E+01 0.30932519E+02</pdfrwt>
<pdfrwt beam="2">  1       -2 0.86078249E-03 0.21121088E+02</pdfrwt>
<totfact> 0.13370535E+04</totfact>
</mgrwt>
</event>
<event>
 5    1  0.2675386E-003  0.1778008E+03  0.7818608E-02  0.1169949E+00
         11   -1    0    0    0    0  0.00000000000E+00  0.00000000000E+00  0.10002604678E+04  0.10002604678E+04  0.51100000000E-03 0. -1.
          2   -1    0    0  501    0 -0.00000000000E+00 -0.00000000000E+00 -0.33029953409E+02  0.33029953508E+02  0.25500000000E-02 0. -1.
         11    1    1    2    0    0  0.17239061209E+03  0.12668980156E+02  0.61353103728E+03  0.63741615911E+03  0.51100000000E-03 0. -1.
         22    1    1    2    0    0 -0.33500162305E+02 -0.17906097515E+02  0.92538953148E+02  0.10003173023E+03  0.00000000000E+00 0. -1.
          2    1    1    2  501    0 -0.13889044978E+03  0.52371173589E+01  0.26116052398E+03  0.29584253198E+03  0.25500000000E-02 0. -1.
<mgrwt>
<rscale>  0 0.17780076E+03</rscale>
<asrwt>0</asrwt>
<pdfrwt beam="1">  1       11 0.10000000E+01 0.17285551E+03</pdfrwt>
<pdfrwt beam="2">  1        2 0.50828547E-02 0.17780076E+03</pdfrwt>
<totfact> 0.18323139E+03</totfact>
</mgrwt>
</event>
<event>
 5    1  0.2675386E-003  0.1755935E+03  0.7818608E-02  0.1221858E+00
         11   -1    0    0    0    0  0.00000000000E+00  0.00000000000E+00  0.10000752687E+04  0.10000752687E+04  0.51100000000E-03 0.  1.
          2   -1    0    0  501    0 -0.00000000000E+00 -0.00000000000E+00 -0.55833649247E+03  0.55833649247E+03  0.25500000000E-02 0.  1.
         11    1    1    2    0    0 -0.13007572284E+03 -0.12211367152E+03  0.97141985132E+03  0.98766794521E+03  0.51100000000E-03 0.  1.
         22    1    1    2    0    0  0.24807147842E+02  0.98961745500E+02 -0.30360125739E+03  0.32028509979E+03  0.00000000000E+00 0.  1.
          2    1    1    2  501    0  0.10526857500E+03  0.23151926024E+02 -0.22607981767E+03  0.25045871621E+03  0.25500000000E-02 0.  1.
<mgrwt>
<rscale>  0 0.13384575E+03</rscale>
<asrwt>0</asrwt>
<pdfrwt beam="1">  1       11 0.10000000E+01 0.17559347E+03</pdfrwt>
<pdfrwt beam="2">  1        2 0.85904385E-01 0.13384575E+03</pdfrwt>
<totfact> 0.69358275E+01</totfact>
</mgrwt>
</event>
<event>
 5    1  0.2675386E-003  0.1098581E+03  0.7818608E-02  0.1260833E+00
         11   -1    0    0    0    0  0.00000000000E+00  0.00000000000E+00  0.10001748600E+04  0.10001748600E+04  0.51100000000E-03 0. -1.
          2   -1    0    0  501    0 -0.00000000000E+00 -0.00000000000E+00 -0.12095799250E+02  0.12095799519E+02  0.25500000000E-02 0.  1.
         11    1    1    2    0    0  0.38767191002E+02  0.99746899634E+02  0.57250922599E+03  0.58242523377E+03  0.51100000000E-03 0. -1.
         22    1    1    2    0    0 -0.70000522412E+01 -0.22745082340E+02  0.57813450266E+02  0.62519873110E+02  0.00000000000E+00 0. -1.
          2    1    1    2  501    0 -0.31767138761E+02 -0.77001817293E+02  0.35775638449E+03  0.36732555264E+03  0.25500000000E-02 0.  1.
<mgrwt>
<rscale>  0 0.10985810E+03</rscale>
<asrwt>0</asrwt>
<pdfrwt beam="1">  1       11 0.10000000E+01 0.10701560E+03</pdfrwt>
<pdfrwt beam="2">  1        2 0.18612176E-02 0.10985810E+03</pdfrwt>
<totfact> 0.67174082E+03</totfact>
</mgrwt>
</event>
<event>
 5    1  0.3996799E-003  0.1997155E+03  0.7818608E-02  0.1149979E+00
         11   -1    0    0    0    0  0.00000000000E+00  0.00000000000E+00  0.10000735423E+04  0.10000735423E+04  0.51100000000E-03 0. -1.
          2   -1    0    0  501    0 -0.00000000000E+00 -0.00000000000E+00 -0.73277629920E+03  0.73277629920E+03  0.25500000000E-02 0. -1.
         11    1    1    2    0    0 -0.85088260781E+02 -0.17545497182E+03  0.97664592371E+03  0.99592254697E+03  0.51100000000E-03 0. -1.
         22    1    1    2    0    0  0.18152813466E+02  0.96204941421E+01 -0.87099737766E+02  0.89489903694E+02  0.00000000000E+00 0. -1.
          2    1    1    2  501    0  0.66935447315E+02  0.16583447768E+03 -0.62224894288E+03  0.64743739081E+03  0.25500000000E-02 0. -1.
<mgrwt>
<rscale>  0 0.19971551E+03</rscale>
<asrwt>0</asrwt>
<pdfrwt beam="1">  1       11 0.10000000E+01 0.19499861E+03</pdfrwt>
<pdfrwt beam="2">  1        2 0.11274310E+00 0.19971551E+03</pdfrwt>
<totfact> 0.49978358E+01</totfact>
</mgrwt>
</event>
<event>
 5    1  0.2675386E-003  0.1464266E+03  0.7818608E-02  0.1735651E+00
         11   -1    0    0    0    0  0.00000000000E+00  0.00000000000E+00  0.10001106062E+04  0.10001106062E+04  0.51100000000E-03 0.  1.
          2   -1    0    0  501    0 -0.00000000000E+00 -0.00000000000E+00 -0.35074019210E+02  0.35074019303E+02  0.25500000000E-02 0.  1.
         11    1    1    2    0    0 -0.14098691072E+03  0.30685499233E+02  0.66133041106E+03  0.67688759884E+03  0.51100000000E-03 0.  1.
         22    1    1    2    0    0  0.14597736499E+03 -0.50564138231E+02  0.20070107406E+03  0.25327266788E+03  0.00000000000E+00 0.  1.
          2    1    1    2  501    0 -0.49904542691E+01  0.19878638999E+02  0.10300510184E+03  0.10502435877E+03  0.25500000000E-02 0.  1.
<mgrwt>
<rscale>  0 0.20495486E+02</rscale>
<asrwt>0</asrwt>
<pdfrwt beam="1">  1       11 0.10000000E+01 0.14642658E+03</pdfrwt>
<pdfrwt beam="2">  1        2 0.53965996E-02 0.20495486E+02</pdfrwt>
<totfact> 0.13649625E+03</totfact>
</mgrwt>
</event>
<event>
 5    1  0.2675386E-003  0.1431017E+03  0.7818608E-02  0.1222017E+00
         11   -1    0    0    0    0  0.00000000000E+00  0.00000000000E+00  0.10001967372E+04  0.10001967372E+04  0.51100000000E-03 0.  1.
          2   -1    0    0  501    0 -0.00000000000E+00 -0.00000000000E+00 -0.29939541224E+02  0.29939541332E+02  0.25500000000E-02 0.  1.
         11    1    1    2    0    0 -0.77038492100E+02 -0.20809399700E+02  0.46564367058E+03  0.47243199334E+03  0.51100000000E-03 0.  1.
         22    1    1    2    0    0 -0.56485984860E+02  0.28306788602E+02  0.33899321126E+03  0.34483088326E+03  0.00000000000E+00 0.  1.
          2    1    1    2  501    0  0.13352447696E+03 -0.74973889019E+01  0.16562031411E+03  0.21287340191E+03  0.25500000000E-02 0.  1.
<mgrwt>
<rscale>  0 0.13373480E+03</rscale>
<asrwt>0</asrwt>
<pdfrwt beam="1">  1       11 0.10000000E+01 0.14310170E+03</pdfrwt>
<pdfrwt beam="2">  1        2 0.46069893E-02 0.13373480E+03</pdfrwt>
<totfact> 0.20373661E+03</totfact>
</mgrwt>
</event>
<event>
 5    1  0.2675386E-003  0.5275781E+02  0.7818608E-02  0.1478719E+00
         11   -1    0    0    0    0  0.00000000000E+00  0.00000000000E+00  0.10003453428E+04  0.10003453428E+04  0.51100000000E-03 0. -1.
          2   -1    0    0  501    0 -0.00000000000E+00 -0.00000000000E+00 -0.80885320755E+01  0.80885324775E+01  0.25500000000E-02 0. -1.
         11    1    1    2    0    0 -0.46975727516E+02  0.66498797826E+02  0.33758583275E+03  0.34726503360E+03  0.51100000000E-03 0. -1.
         22    1    1    2    0    0  0.12643806903E+02 -0.34994600017E+02  0.15823718500E+03  0.16255305165E+03  0.00000000000E+00 0. -1.
          2    1    1    2  501    0  0.34331920613E+02 -0.31504197809E+02  0.49643379297E+03  0.49861579002E+03  0.25500000000E-02 0. -1.
<mgrwt>
<rscale>  0 0.44306308E+02</rscale>
<asrwt>0</asrwt>
<pdfrwt beam="1">  1       11 0.10000000E+01 0.52757810E+02</pdfrwt>
<pdfrwt beam="2">  1        2 0.12448193E-02 0.44306308E+02</pdfrwt>
<totfact> 0.10065448E+04</totfact>
</mgrwt>
</event>
<event>
 5    1  0.2675386E-003  0.2055013E+03  0.7818608E-02  0.1333898E+00
         11   -1    0    0    0    0  0.00000000000E+00  0.00000000000E+00  0.10000404650E+04  0.10000404650E+04  0.51100000000E-03 0.  1.
          2   -1    0    0  501    0 -0.00000000000E+00 -0.00000000000E+00 -0.43599055893E+03  0.43599055893E+03  0.25500000000E-02 0.  1.
         11    1    1    2    0    0 -0.12550311283E+03 -0.16560241931E+03  0.95591845632E+03  0.97824091498E+03  0.51100000000E-03 0.  1.
         22    1    1    2    0    0  0.10406398863E+03  0.90277514066E+02 -0.33124445440E+03  0.35875093288E+03  0.00000000000E+00 0.  1.
          2    1    1    2  501    0  0.21439124193E+02  0.75324905241E+02 -0.60624095840E+02  0.99039176080E+02  0.25500000000E-02 0.  1.
<mgrwt>
<rscale>  0 0.78316521E+02</rscale>
<asrwt>0</asrwt>
<pdfrwt beam="1">  1       11 0.10000000E+01 0.20550135E+03</pdfrwt>
<pdfrwt beam="2">  1        2 0.67078183E-01 0.78316521E+02</pdfrwt>
<totfact> 0.91366202E+01</totfact>
</mgrwt>
</event>
<event>
 5    1  0.2675386E-003  0.2310676E+03  0.7818608E-02  0.1125891E+00
         11   -1    0    0    0    0  0.00000000000E+00  0.00000000000E+00  0.10002639959E+04  0.10002639959E+04  0.51100000000E-03 0. -1.
          2   -1    0    0  501    0 -0.00000000000E+00 -0.00000000000E+00 -0.24060581576E+03  0.24060581578E+03  0.25500000000E-02 0. -1.
         11    1    1    2    0    0 -0.14062278201E+03  0.16494021021E+03  0.92928294450E+03  0.95422577554E+03  0.51100000000E-03 0. -1.
         22    1    1    2    0    0  0.68602214904E+02 -0.62363584265E+02 -0.12046923791E+03  0.15201420268E+03  0.00000000000E+00 0. -1.
          2    1    1    2  501    0  0.72020567109E+02 -0.10257662595E+03 -0.49155526430E+02  0.13462983348E+03  0.25500000000E-02 0. -1.
<mgrwt>
<rscale>  0 0.23106762E+03</rscale>
<asrwt>0</asrwt>
<pdfrwt beam="1">  1       11 0.10000000E+01 0.21674879E+03</pdfrwt>
<pdfrwt beam="2">  1        2 0.37026050E-01 0.23106762E+03</pdfrwt>
<totfact> 0.17211912E+02</totfact>
</mgrwt>
</event>
<event>
 5    1  0.2675386E-003  0.1314798E+03  0.7818608E-02  0.1225276E+00
         11   -1    0    0    0    0  0.00000000000E+00  0.00000000000E+00  0.10000756271E+04  0.10000756271E+04  0.51100000000E-03 0. -1.
         -2   -1    0    0    0  501 -0.00000000000E+00 -0.00000000000E+00 -0.18860685900E+02  0.18860686072E+02  0.25500000000E-02 0.  1.
         11    1    1    2    0    0  0.88199087632E+02  0.92764023865E+02  0.65184130328E+03  0.66429009314E+03  0.51100000000E-03 0. -1.
         22    1    1    2    0    0 -0.25571058486E+02 -0.94936794597E+01  0.66566648408E+02  0.71938360157E+02  0.00000000000E+00 0.  1.
         -2    1    1    2    0  501 -0.62628029146E+02 -0.83270344405E+02  0.26280698952E+03  0.28270785988E+03  0.25500000000E-02 0.  1.
<mgrwt>
<rscale>  0 0.13147984E+03</rscale>
<asrwt>0</asrwt>
<pdfrwt beam="1">  1       11 0.10000000E+01 0.12800095E+03</pdfrwt>
<pdfrwt beam="2">  1       -2 0.29018634E-02 0.13147984E+03</pdfrwt>
<totfact> 0.33001578E+03</totfact>
</mgrwt>
</event>
<event>
 5    1  0.2675386E-003  0.3031464E+03  0.7818608E-02  0.1083678E+00
         11   -1    0    0    0    0  0.00000000000E+00  0.00000000000E+00  0.10002142116E+04  0.10002142116E+04  0.51100000000E-03 0. -1.
          2   -1    0    0  501    0 -0.00000000000E+00 -0.00000000000E+00 -0.10542289647E+03  0.10542289650E+03  0.25500000000E-02 0. -1.
         11    1    1    2    0    0  0.12721471831E+03 -0.26533665113E+03  0.65857843724E+03  0.72132702776E+03  0.51100000000E-03 0. -1.
         22    1    1    2    0    0 -0.13518917993E+02  0.23837919003E+02 -0.69820473395E+00  0.27413409418E+02  0.00000000000E+00 0.  1.
          2    1    1    2  501    0 -0.11369580032E+03  0.24149873213E+03  0.23691108259E+03  0.35689667088E+03  0.25500000000E-02 0. -1.
<mgrwt>
<rscale>  0 0.30314636E+03</rscale>
<asrwt>0</asrwt>
<pdfrwt beam="1">  1       11 0.10000000E+01 0.29425690E+03</pdfrwt>
<pdfrwt beam="2">  1        2 0.16222381E-01 0.30314636E+03</pdfrwt>
<totfact> 0.43931711E+02</totfact>
</mgrwt>
</event>
<event>
 5    1  0.2675386E-003  0.1511741E+03  0.7818608E-02  0.1465864E+00
         11   -1    0    0    0    0  0.00000000000E+00  0.00000000000E+00  0.10002770449E+04  0.10002770449E+04  0.51100000000E-03 0.  1.
          2   -1    0    0  501    0 -0.00000000000E+00 -0.00000000000E+00 -0.61162664298E+02  0.61162664351E+02  0.25500000000E-02 0.  1.
         11    1    1    2    0    0  0.19737605784E+02 -0.15604524115E+03  0.83480785257E+03  0.84949622782E+03  0.51100000000E-03 0.  1.
         22    1    1    2    0    0 -0.18521075853E+02  0.10967426333E+03  0.16238927479E+02  0.11240630344E+03  0.00000000000E+00 0.  1.
          2    1    1    2  501    0 -0.12165299312E+01  0.46370977816E+02  0.88067600586E+02  0.99537178020E+02  0.25500000000E-02 0.  1.
<mgrwt>
<rscale>  0 0.46386933E+02</rscale>
<asrwt>0</asrwt>
<pdfrwt beam="1">  1       11 0.10000000E+01 0.15117406E+03</pdfrwt>
<pdfrwt beam="2">  1        2 0.94122473E-02 0.46386933E+02</pdfrwt>
<totfact> 0.76143541E+02</totfact>
</mgrwt>
</event>
<event>
 5    1  0.2675386E-003  0.1442578E+03  0.7818608E-02  0.1207712E+00
         11   -1    0    0    0    0  0.00000000000E+00  0.00000000000E+00  0.10003789455E+04  0.10003789455E+04  0.51100000000E-03 0. -1.
          2   -1    0    0  501    0 -0.00000000000E+00 -0.00000000000E+00 -0.22465400658E+02  0.22465400803E+02  0.25500000000E-02 0. -1.
         11    1    1    2    0    0  0.54519957340E+02 -0.13614974297E+03  0.46885743666E+03  0.49126008811E+03  0.51100000000E-03 0. -1.
         22    1    1    2    0    0 -0.11051556673E+02  0.94460459854E+00  0.37273919694E+02  0.38889256512E+02  0.00000000000E+00 0. -1.
          2    1    1    2  501    0 -0.43468400668E+02  0.13520513837E+03  0.47178218854E+03  0.49269500173E+03  0.25500000000E-02 0. -1.
<mgrwt>
<rscale>  0 0.14425781E+03</rscale>
<asrwt>0</asrwt>
<pdfrwt beam="1">  1       11 0.10000000E+01 0.11091852E+02</pdfrwt>
<pdfrwt beam="2">  1        2 0.34575251E-02 0.14425781E+03</pdfrwt>
<totfact> 0.30005030E+03</totfact>
</mgrwt>
</event>
<event>
 5    1  0.2675386E-003  0.3843085E+03  0.7818608E-02  0.1049353E+00
         11   -1    0    0    0    0  0.00000000000E+00  0.00000000000E+00  0.10004060336E+04  0.10004060336E+04  0.51100000000E-03 0. -1.
          2   -1    0    0  501    0 -0.00000000000E+00 -0.00000000000E+00 -0.71662431451E+03  0.71662431451E+03  0.25500000000E-02 0.  1.
         11    1    1    2    0    0  0.32747164962E+03  0.18875514019E+03  0.90826205718E+03  0.98377139050E+03  0.51100000000E-03 0. -1.
         22    1    1    2    0    0 -0.39112699717E+02 -0.38033673469E+02 -0.13387302925E+03  0.14456262157E+03  0.00000000000E+00 0. -1.
          2    1    1    2  501    0 -0.28835894990E+03 -0.15072146672E+03 -0.49060730887E+03  0.58869633602E+03  0.25500000000E-02 0.  1.
<mgrwt>
<rscale>  0 0.38430848E+03</rscale>
<asrwt>0</asrwt>
<pdfrwt beam="1">  1       11 0.10000000E+01 0.37797643E+03</pdfrwt>
<pdfrwt beam="2">  1        2 0.11029466E+00 0.38430848E+03</pdfrwt>
<totfact> 0.50303545E+01</totfact>
</mgrwt>
</event>
<event>
 5    1  0.2675386E-003  0.3755536E+03  0.7818608E-02  0.1052590E+00
         11   -1    0    0    0    0  0.00000000000E+00  0.00000000000E+00  0.10000501190E+04  0.10000501190E+04  0.51100000000E-03 0.  1.
          2   -1    0    0  501    0 -0.00000000000E+00 -0.00000000000E+00 -0.42850950807E+03  0.42850950808E+03  0.25500000000E-02 0.  1.
         11    1    1    2    0    0 -0.22551569523E+03 -0.29820721393E+03  0.87124429913E+03  0.94807779217E+03  0.51100000000E-03 0.  1.
         22    1    1    2    0    0  0.77811211737E+01  0.19989413972E+02 -0.25130197280E+02  0.33040117025E+02  0.00000000000E+00 0. -1.
          2    1    1    2  501    0  0.21773457405E+03  0.27821779995E+03 -0.27457349094E+03  0.44744171786E+03  0.25500000000E-02 0.  1.
<mgrwt>
<rscale>  0 0.37555358E+03</rscale>
<asrwt>0</asrwt>
<pdfrwt beam="1">  1       11 0.10000000E+01 0.37387815E+03</pdfrwt>
<pdfrwt beam="2">  1        2 0.65927842E-01 0.37555358E+03</pdfrwt>
<totfact> 0.91727472E+01</totfact>
</mgrwt>
</event>
<event>
 5    1  0.2675386E-003  0.1575821E+03  0.7818608E-02  0.1191454E+00
         11   -1    0    0    0    0  0.00000000000E+00  0.00000000000E+00  0.99981151399E+03  0.99981151399E+03  0.51100000000E-03 0. -1.
         -2   -1    0    0    0  501 -0.00000000000E+00 -0.00000000000E+00 -0.31150697002E+02  0.31150697106E+02  0.25500000000E-02 0.  1.
         11    1    1    2    0    0  0.14991875773E+03  0.36217443777E+02  0.72179328933E+03  0.73808731846E+03  0.51100000000E-03 0. -1.
         22    1    1    2    0    0 -0.16938977955E+02  0.38337523296E+01  0.16950624265E+02  0.24268298129E+02  0.00000000000E+00 0.  1.
         -2    1    1    2    0  501 -0.13297977978E+03 -0.40051196107E+02  0.22991690339E+03  0.26860659450E+03  0.25500000000E-02 0.  1.
<mgrwt>
<rscale>  0 0.15758213E+03</rscale>
<asrwt>0</asrwt>
<pdfrwt beam="1">  1       11 0.10000000E+01 0.15423144E+03</pdfrwt>
<pdfrwt beam="2">  1       -2 0.47915115E-02 0.15758213E+03</pdfrwt>
<totfact> 0.15953769E+03</totfact>
</mgrwt>
</event>
<event>
 5    1  0.2898403E-003  0.1596810E+03  0.7818608E-02  0.1189057E+00
         11   -1    0    0    0    0  0.00000000000E+00  0.00000000000E+00  0.10002629701E+04  0.10002629701E+04  0.51100000000E-03 0. -1.
         -2   -1    0    0    0  501 -0.00000000000E+00 -0.00000000000E+00 -0.10572592506E+03  0.10572592509E+03  0.25500000000E-02 0. -1.
         11    1    1    2    0    0  0.12298040197E+02  0.15538543420E+03  0.92953858630E+03  0.94251676822E+03  0.51100000000E-03 0. -1.
         22    1    1    2    0    0 -0.74430214075E+01 -0.10929490767E+02 -0.10472790939E+02  0.16868067054E+02  0.00000000000E+00 0.  1.
         -2    1    1    2    0  501 -0.48550187891E+01 -0.14445594343E+03 -0.24528750279E+02  0.14660405996E+03  0.25500000000E-02 0. -1.
<mgrwt>
<rscale>  0 0.15968102E+03</rscale>
<asrwt>0</asrwt>
<pdfrwt beam="1">  1       11 0.10000000E+01 0.15587134E+03</pdfrwt>
<pdfrwt beam="2">  1       -2 0.16269804E-01 0.15968102E+03</pdfrwt>
<totfact> 0.23497940E+02</totfact>
</mgrwt>
</event>
<event>
 5    1  0.2675386E-003  0.2439068E+03  0.7818608E-02  0.1352920E+00
         11   -1    0    0    0    0  0.00000000000E+00  0.00000000000E+00  0.10003497277E+04  0.10003497277E+04  0.51100000000E-03 0. -1.
          2   -1    0    0  501    0 -0.00000000000E+00 -0.00000000000E+00 -0.32698836077E+03  0.32698836078E+03  0.25500000000E-02 0. -1.
         11    1    1    2    0    0  0.73434534948E+02  0.23282943546E+03  0.92720077407E+03  0.95880313536E+03  0.51100000000E-03 0. -1.
         22    1    1    2    0    0 -0.21260953972E+02  0.18890775458E+01 -0.38700689247E+01  0.21692722542E+02  0.00000000000E+00 0.  1.
          2    1    1    2  501    0 -0.52173580976E+02 -0.23471851300E+03 -0.24996933818E+03  0.34684223061E+03  0.25500000000E-02 0. -1.
<mgrwt>
<rscale>  0 0.72153455E+02</rscale>
<asrwt>0</asrwt>
<pdfrwt beam="1">  1       11 0.10000000E+01 0.24390682E+03</pdfrwt>
<pdfrwt beam="2">  1        2 0.50323494E-01 0.72153455E+02</pdfrwt>
<totfact> 0.12331417E+02</totfact>
</mgrwt>
</event>
<event>
 5    1  0.2675386E-003  0.1674883E+03  0.7818608E-02  0.1180493E+00
         11   -1    0    0    0    0  0.00000000000E+00  0.00000000000E+00  0.10000212383E+04  0.10000212383E+04  0.51100000000E-03 0. -1.
          2   -1    0    0  501    0 -0.00000000000E+00 -0.00000000000E+00 -0.46759248035E+02  0.46759248105E+02  0.25500000000E-02 0.  1.
         11    1    1    2    0    0 -0.16044301875E+03  0.38013075080E+02  0.80929587077E+03  0.82592176542E+03  0.51100000000E-03 0. -1.
         22    1    1    2    0    0  0.13778664699E+03 -0.42317481895E+02  0.11945661386E+03  0.18720526691E+03  0.00000000000E+00 0.  1.
          2    1    1    2  501    0  0.22656371763E+02  0.43044068146E+01  0.24509505663E+02  0.33653454115E+02  0.25500000000E-02 0.  1.
<mgrwt>
<rscale>  0 0.16748830E+03</rscale>
<asrwt>0</asrwt>
<pdfrwt beam="1">  1       11 0.10000000E+01 0.16488468E+03</pdfrwt>
<pdfrwt beam="2">  1        2 0.71938830E-02 0.16748830E+03</pdfrwt>
<totfact> 0.11635149E+03</totfact>
</mgrwt>
</event>
<event>
 5    1  0.2675386E-003  0.4611033E+03  0.7818608E-02  0.1092074E+00
         11   -1    0    0    0    0  0.00000000000E+00  0.00000000000E+00  0.10000600972E+04  0.10000600972E+04  0.51100000000E-03 0. -1.
          2   -1    0    0  501    0 -0.00000000000E+00 -0.00000000000E+00 -0.10981968357E+04  0.10981968357E+04  0.25500000000E-02 0. -1.
         11    1    1    2    0    0  0.10430673076E+03 -0.46814827567E+03  0.86528237755E+03  0.98932112835E+03  0.51100000000E-03 0. -1.
         22    1    1    2    0    0 -0.11395837596E+03  0.13711112064E+03 -0.55604866729E+03  0.58393158096E+03  0.00000000000E+00 0. -1.
          2    1    1    2  501    0  0.96516452022E+01  0.33103715503E+03 -0.40737044878E+03  0.52500422361E+03  0.25500000000E-02 0. -1.
<mgrwt>
<rscale>  0 0.28671999E+03</rscale>
<asrwt>0</asrwt>
<pdfrwt beam="1">  1       11 0.10000000E+01 0.46110328E+03</pdfrwt>
<pdfrwt beam="2">  1        2 0.16896351E+00 0.28671999E+03</pdfrwt>
<totfact> 0.28578467E+01</totfact>
</mgrwt>
</event>
<event>
 5    1  0.2675386E-003  0.1561148E+03  0.7818608E-02  0.1193154E+00
         11   -1    0    0    0    0  0.00000000000E+00  0.00000000000E+00  0.10001005588E+04  0.10001005588E+04  0.51100000000E-03 0.  1.
          2   -1    0    0  501    0 -0.00000000000E+00 -0.00000000000E+00 -0.43591918853E+02  0.43591918928E+02  0.25500000000E-02 0.  1.
         11    1    1    2    0    0 -0.14940443597E+03  0.15266725362E+02  0.82793983344E+03  0.84145060829E+03  0.51100000000E-03 0.  1.
         22    1    1    2    0    0  0.11898790283E+03 -0.28875411481E+02  0.10646552084E+03  0.16225540834E+03  0.00000000000E+00 0.  1.
          2    1    1    2  501    0  0.30416533142E+02  0.13608686119E+02  0.22103285626E+02  0.39986461062E+02  0.25500000000E-02 0.  1.
<mgrwt>
<rscale>  0 0.15611482E+03</rscale>
<asrwt>0</asrwt>
<pdfrwt beam="1">  1       11 0.10000000E+01 0.15018242E+03</pdfrwt>
<pdfrwt beam="2">  1        2 0.67071233E-02 0.15611482E+03</pdfrwt>
<totfact> 0.12665631E+03</totfact>
</mgrwt>
</event>
<event>
 5    1  0.2675386E-003  0.2153854E+03  0.7818608E-02  0.1137371E+00
         11   -1    0    0    0    0  0.00000000000E+00  0.00000000000E+00  0.10008881910E+04  0.10008881910E+04  0.51100000000E-03 0. -1.
          2   -1    0    0  501    0 -0.00000000000E+00 -0.00000000000E+00 -0.13584224981E+04  0.13584224981E+04  0.25500000000E-02 0. -1.
         11    1    1    2    0    0  0.14012499626E+03 -0.15166865804E+03  0.98153999416E+03  0.10030250029E+04  0.51100000000E-03 0. -1.
         22    1    1    2    0    0 -0.64940939806E+02  0.61656143555E+02 -0.39908486741E+03  0.40900799148E+03  0.00000000000E+00 0. -1.
          2    1    1    2  501    0 -0.75184056458E+02  0.90012514483E+02 -0.93998943382E+03  0.94727769466E+03  0.25500000000E-02 0. -1.
<mgrwt>
<rscale>  0 0.21538542E+03</rscale>
<asrwt>0</asrwt>
<pdfrwt beam="1">  1       11 0.10000000E+01 0.20649067E+03</pdfrwt>
<pdfrwt beam="2">  1        2 0.20917369E+00 0.21538542E+03</pdfrwt>
<totfact> 0.20701378E+01</totfact>
</mgrwt>
</event>
<event>
 5    1  0.2675386E-003  0.1101154E+03  0.7818608E-02  0.1321798E+00
         11   -1    0    0    0    0  0.00000000000E+00  0.00000000000E+00  0.10002215661E+04  0.10002215661E+04  0.51100000000E-03 0. -1.
          2   -1    0    0  501    0 -0.00000000000E+00 -0.00000000000E+00 -0.33761370199E+02  0.33761370296E+02  0.25500000000E-02 0. -1.
         11    1    1    2    0    0 -0.14516814901E+03 -0.50316510843E+02  0.49335546113E+03  0.51672541430E+03  0.51100000000E-03 0. -1.
         22    1    1    2    0    0  0.56210727961E+02  0.26108185954E+02  0.38456850892E+02  0.72939788129E+02  0.00000000000E+00 0. -1.
          2    1    1    2  501    0  0.88957421054E+02  0.24208324889E+02  0.43464788385E+03  0.44431773394E+03  0.25500000000E-02 0. -1.
<mgrwt>
<rscale>  0 0.82611990E+02</rscale>
<asrwt>0</asrwt>
<pdfrwt beam="1">  1       11 0.10000000E+01 0.11011544E+03</pdfrwt>
<pdfrwt beam="2">  1        2 0.51952076E-02 0.82611990E+02</pdfrwt>
<totfact> 0.16703775E+03</totfact>
</mgrwt>
</event>
<event>
 5    1  0.2675386E-003  0.1615312E+03  0.7818608E-02  0.1186979E+00
         11   -1    0    0    0    0  0.00000000000E+00  0.00000000000E+00  0.99989028142E+03  0.99989028142E+03  0.51100000000E-03 0. -1.
         -2   -1    0    0    0  501 -0.00000000000E+00 -0.00000000000E+00 -0.30923229489E+02  0.30923229595E+02  0.25500000000E-02 0.  1.
         11    1    1    2    0    0 -0.37530972603E+02  0.14147723755E+03  0.71500604940E+03  0.72983425059E+03  0.51100000000E-03 0. -1.
         22    1    1    2    0    0  0.26994214619E+02 -0.62443623889E+02  0.17920324762E+03  0.19168123994E+03  0.00000000000E+00 0.  1.
         -2    1    1    2    0  501  0.10536757983E+02 -0.79033613657E+02  0.74757754898E+02  0.10929802048E+03  0.25500000000E-02 0.  1.
<mgrwt>
<rscale>  0 0.16153119E+03</rscale>
<asrwt>0</asrwt>
<pdfrwt beam="1">  1       11 0.10000000E+01 0.14637070E+03</pdfrwt>
<pdfrwt beam="2">  1       -2 0.47568978E-02 0.16153119E+03</pdfrwt>
<totfact> 0.16162986E+03</totfact>
</mgrwt>
</event>
<event>
 5    1  0.2675386E-003  0.9901123E+02  0.7818608E-02  0.1282389E+00
         11   -1    0    0    0    0  0.00000000000E+00  0.00000000000E+00  0.10001289427E+04  0.10001289427E+04  0.51100000000E-03 0.  1.
          2   -1    0    0  501    0 -0.00000000000E+00 -0.00000000000E+00 -0.46967114294E+02  0.46967114364E+02  0.25500000000E-02 0.  1.
         11    1    1    2    0    0 -0.51926755755E+02  0.81815690990E+02  0.40937773748E+02  0.10519551595E+03  0.51100000000E-03 0.  1.
         22    1    1    2    0    0 -0.75484851812E+02 -0.23414902410E+02  0.18312015210E+03  0.19944726274E+03  0.00000000000E+00 0.  1.
          2    1    1    2  501    0  0.12741160757E+03 -0.58400788580E+02  0.72910390260E+03  0.74245327843E+03  0.25500000000E-02 0.  1.
<mgrwt>
<rscale>  0 0.99011227E+02</rscale>
<asrwt>0</asrwt>
<pdfrwt beam="1">  1       11 0.10000000E+01 0.79033034E+02</pdfrwt>
<pdfrwt beam="2">  1        2 0.72266414E-02 0.99011227E+02</pdfrwt>
<totfact> 0.11153246E+03</totfact>
</mgrwt>
</event>
<event>
 5    1  0.2675386E-003  0.1008637E+03  0.7818608E-02  0.1291329E+00
         11   -1    0    0    0    0  0.00000000000E+00  0.00000000000E+00  0.10001072172E+04  0.10001072172E+04  0.51100000000E-03 0.  1.
          2   -1    0    0  501    0 -0.00000000000E+00 -0.00000000000E+00 -0.31100991016E+02  0.31100991120E+02  0.25500000000E-02 0.  1.
         11    1    1    2    0    0  0.89500584962E+02  0.50530876397E+02  0.54388201440E+03  0.55350823821E+03  0.51100000000E-03 0.  1.
         22    1    1    2    0    0  0.28132009620E+02 -0.84804856032E+02  0.23608373277E+03  0.25242583555E+03  0.00000000000E+00 0. -1.
          2    1    1    2  501    0 -0.11763259458E+03  0.34273979636E+02  0.18904047896E+03  0.22527413451E+03  0.25500000000E-02 0.  1.
<mgrwt>
<rscale>  0 0.94932007E+02</rscale>
<asrwt>0</asrwt>
<pdfrwt beam="1">  1       11 0.10000000E+01 0.10086368E+03</pdfrwt>
<pdfrwt beam="2">  1        2 0.47852807E-02 0.94932007E+02</pdfrwt>
<totfact> 0.18808857E+03</totfact>
</mgrwt>
</event>
<event>
 5    1  0.2675386E-003  0.1828900E+03  0.7818608E-02  0.1599664E+00
         11   -1    0    0    0    0  0.00000000000E+00  0.00000000000E+00  0.10001060710E+04  0.10001060710E+04  0.51100000000E-03 0.  1.
          2   -1    0    0  501    0 -0.00000000000E+00 -0.00000000000E+00 -0.14897027870E+03  0.14897027872E+03  0.25500000000E-02 0.  1.
         11    1    1    2    0    0  0.69564470512E+02 -0.17124527287E+03  0.91379873721E+03  0.93230482738E+03  0.51100000000E-03 0.  1.
         22    1    1    2    0    0 -0.58966637998E+02  0.14333139235E+03 -0.87458233980E+02  0.17796037514E+03  0.00000000000E+00 0.  1.
          2    1    1    2  501    0 -0.10597832514E+02  0.27913880515E+02  0.24795289054E+02  0.38811147177E+02  0.25500000000E-02 0.  1.
<mgrwt>
<rscale>  0 0.29857977E+02</rscale>
<asrwt>0</asrwt>
<pdfrwt beam="1">  1       11 0.10000000E+01 0.18288997E+03</pdfrwt>
<pdfrwt beam="2">  1        2 0.22920935E-01 0.29857977E+02</pdfrwt>
<totfact> 0.27243465E+02</totfact>
</mgrwt>
</event>
<event>
 5    1  0.2675386E-003  0.1499092E+03  0.7818608E-02  0.1200585E+00
         11   -1    0    0    0    0  0.00000000000E+00  0.00000000000E+00  0.10001572197E+04  0.10001572197E+04  0.51100000000E-03 0. -1.
          2   -1    0    0  501    0 -0.00000000000E+00 -0.00000000000E+00 -0.45009085242E+02  0.45009085315E+02  0.25500000000E-02 0.  1.
         11    1    1    2    0    0  0.51686690709E+02  0.13165384131E+03  0.85089516279E+03  0.86256989629E+03  0.51100000000E-03 0. -1.
         22    1    1    2    0    0 -0.16051390642E+02 -0.12990974990E+02 -0.34885474265E-01  0.20649789097E+02  0.00000000000E+00 0.  1.
          2    1    1    2  501    0 -0.35635300067E+02 -0.11866286632E+03  0.10428785715E+03  0.16194661963E+03  0.25500000000E-02 0.  1.
<mgrwt>
<rscale>  0 0.14990919E+03</rscale>
<asrwt>0</asrwt>
<pdfrwt beam="1">  1       11 0.10000000E+01 0.14143637E+03</pdfrwt>
<pdfrwt beam="2">  1        2 0.69255631E-02 0.14990919E+03</pdfrwt>
<totfact> 0.12123214E+03</totfact>
</mgrwt>
</event>
<event>
 5    1  0.2675386E-003  0.2485614E+03  0.7818608E-02  0.1114217E+00
         11   -1    0    0    0    0  0.00000000000E+00  0.00000000000E+00  0.10001191180E+04  0.10001191180E+04  0.51100000000E-03 0. -1.
         -2   -1    0    0    0  501 -0.00000000000E+00 -0.00000000000E+00 -0.57286122918E+02  0.57286122975E+02  0.25500000000E-02 0. -1.
         11    1    1    2    0    0 -0.79241118873E+02 -0.21393958070E+03  0.40298826553E+03  0.46308621364E+03  0.51100000000E-03 0. -1.
         22    1    1    2    0    0  0.85409127703E+02  0.13689139273E+03  0.43576179296E+03  0.46467441580E+03  0.00000000000E+00 0. -1.
         -2    1    1    2    0  501 -0.61680088292E+01  0.77048187969E+02  0.10408293659E+03  0.12964461153E+03  0.25500000000E-02 0. -1.
<mgrwt>
<rscale>  0 0.24856141E+03</rscale>
<asrwt>0</asrwt>
<pdfrwt beam="1">  1       11 0.10000000E+01 0.22814327E+03</pdfrwt>
<pdfrwt beam="2">  1       -2 0.88142992E-02 0.24856141E+03</pdfrwt>
<totfact> 0.64492309E+02</totfact>
</mgrwt>
</event>
<event>
 5    1  0.2675386E-003  0.1177671E+03  0.7818608E-02  0.1364407E+00
         11   -1    0    0    0    0  0.00000000000E+00  0.00000000000E+00  0.10001636095E+04  0.10001636095E+04  0.51100000000E-03 0.  1.
          2   -1    0    0  501    0 -0.00000000000E+00 -0.00000000000E+00 -0.38239754319E+02  0.38239754404E+02  0.25500000000E-02 0.  1.
         11    1    1    2    0    0 -0.13928323355E+02 -0.12792728234E+03  0.72778247612E+03  0.73907152584E+03  0.51100000000E-03 0.  1.
         22    1    1    2    0    0  0.28192546324E+02  0.28560133002E+02 -0.45517848223E+01  0.40388359838E+02  0.00000000000E+00 0.  1.
          2    1    1    2  501    0 -0.14264222969E+02  0.99367149333E+02  0.23869316384E+03  0.25894347819E+03  0.25500000000E-02 0.  1.
<mgrwt>
<rscale>  0 0.68746770E+02</rscale>
<asrwt>0</asrwt>
<pdfrwt beam="1">  1       11 0.10000000E+01 0.11776714E+03</pdfrwt>
<pdfrwt beam="2">  1        2 0.58840015E-02 0.68746770E+02</pdfrwt>
<totfact> 0.14019847E+03</totfact>
</mgrwt>
</event>
<event>
 5    1  0.2675386E-003  0.1675897E+03  0.7818608E-02  0.1180385E+00
         11   -1    0    0    0    0  0.00000000000E+00  0.00000000000E+00  0.99984936367E+03  0.99984936367E+03  0.51100000000E-03 0.  1.
          2   -1    0    0  501    0 -0.00000000000E+00 -0.00000000000E+00 -0.27557850968E+03  0.27557850969E+03  0.25500000000E-02 0. -1.
         11    1    1    2    0    0  0.94936399597E+02 -0.13226742664E+03  0.96691905759E+03  0.98053049725E+03  0.51100000000E-03 0.  1.
         22    1    1    2    0    0 -0.48054142397E+02  0.35344376472E+02 -0.94650676182E+02  0.11188018614E+03  0.00000000000E+00 0. -1.
          2    1    1    2  501    0 -0.46882257200E+02  0.96923050165E+02 -0.14799752742E+03  0.18301718996E+03  0.25500000000E-02 0. -1.
<mgrwt>
<rscale>  0 0.16758971E+03</rscale>
<asrwt>0</asrwt>
<pdfrwt beam="1">  1       11 0.10000000E+01 0.16281152E+03</pdfrwt>
<pdfrwt beam="2">  1        2 0.42390306E-01 0.16758971E+03</pdfrwt>
<totfact> 0.14842740E+02</totfact>
</mgrwt>
</event>
<event>
 5    1  0.2675386E-003  0.2856186E+03  0.7818608E-02  0.1092659E+00
         11   -1    0    0    0    0  0.00000000000E+00  0.00000000000E+00  0.10003111225E+04  0.10003111225E+04  0.51100000000E-03 0. -1.
          2   -1    0    0  501    0 -0.00000000000E+00 -0.00000000000E+00 -0.49466624027E+03  0.49466624028E+03  0.25500000000E-02 0. -1.
         11    1    1    2    0    0  0.14182994044E+03 -0.24195043211E+03  0.93675498484E+03  0.97783722839E+03  0.51100000000E-03 0. -1.
         22    1    1    2    0    0 -0.10812371936E+01  0.32791937685E+02 -0.62074794896E+02  0.70212252580E+02  0.00000000000E+00 0.  1.
          2    1    1    2  501    0 -0.14074870324E+03  0.20915849443E+03 -0.36903530768E+03  0.44692788185E+03  0.25500000000E-02 0. -1.
<mgrwt>
<rscale>  0 0.28561862E+03</rscale>
<asrwt>0</asrwt>
<pdfrwt beam="1">  1       11 0.10000000E+01 0.28045631E+03</pdfrwt>
<pdfrwt beam="2">  1        2 0.76126174E-01 0.28561862E+03</pdfrwt>
<totfact> 0.78384647E+01</totfact>
</mgrwt>
</event>
<event>
 5    1  0.2675386E-003  0.1088724E+03  0.7818608E-02  0.1262672E+00
         11   -1    0    0    0    0  0.00000000000E+00  0.00000000000E+00  0.10001939593E+04  0.10001939593E+04  0.51100000000E-03 0. -1.
          2   -1    0    0  501    0 -0.00000000000E+00 -0.00000000000E+00 -0.11852523135E+02  0.11852523409E+02  0.25500000000E-02 0. -1.
         11    1    1    2    0    0 -0.82455222508E+02  0.69448528987E+02  0.54214349675E+03  0.55275811434E+03  0.51100000000E-03 0. -1.
         22    1    1    2    0    0  0.10286198929E+02 -0.80075697146E+01  0.36137374843E+02  0.38416622986E+02  0.00000000000E+00 0. -1.
          2    1    1    2  501    0  0.72169023579E+02 -0.61440959273E+02  0.41006056462E+03  0.42087174543E+03  0.25500000000E-02 0. -1.
<mgrwt>
<rscale>  0 0.10887242E+03</rscale>
<asrwt>0</asrwt>
<pdfrwt beam="1">  1       11 0.10000000E+01 0.10780520E+03</pdfrwt>
<pdfrwt beam="2">  1        2 0.18238187E-02 0.10887242E+03</pdfrwt>
<totfact> 0.68973482E+03</totfact>
</mgrwt>
</event>
<event>
 5    1  0.2675386E-003  0.1347979E+03  0.7818608E-02  0.1220505E+00
         11   -1    0    0    0    0  0.00000000000E+00  0.00000000000E+00  0.10002759845E+04  0.10002759845E+04  0.51100000000E-03 0. -1.
          2   -1    0    0  501    0 -0.00000000000E+00 -0.00000000000E+00 -0.21728693796E+02  0.21728693946E+02  0.25500000000E-02 0. -1.
         11    1    1    2    0    0  0.18667134330E+02  0.12984065689E+03  0.70439714560E+03  0.71650708078E+03  0.51100000000E-03 0. -1.
         22    1    1    2    0    0 -0.26239466042E+02 -0.10360784540E+03  0.22939081117E+03  0.25306765786E+03  0.00000000000E+00 0.  1.
          2    1    1    2  501    0  0.75723317117E+01 -0.26232811488E+02  0.44759333922E+02  0.52429939784E+02  0.25500000000E-02 0. -1.
<mgrwt>
<rscale>  0 0.13479792E+03</rscale>
<asrwt>0</asrwt>
<pdfrwt beam="1">  1       11 0.10000000E+01 0.13117568E+03</pdfrwt>
<pdfrwt beam="2">  1        2 0.33437985E-02 0.13479792E+03</pdfrwt>
<totfact> 0.31174122E+03</totfact>
</mgrwt>
</event>
<event>
 5    1  0.2675386E-003  0.1639379E+03  0.7818608E-02  0.1184321E+00
         11   -1    0    0    0    0  0.00000000000E+00  0.00000000000E+00  0.99998789183E+03  0.99998789183E+03  0.51100000000E-03 0. -1.
          2   -1    0    0  501    0 -0.00000000000E+00 -0.00000000000E+00 -0.11000901840E+03  0.11000901843E+03  0.25500000000E-02 0.  1.
         11    1    1    2    0    0  0.64251973663E+02  0.14571937671E+03  0.92811703712E+03  0.94168130886E+03  0.51100000000E-03 0. -1.
         22    1    1    2    0    0 -0.29110425158E+02 -0.25660175736E+02 -0.10531542260E+02  0.40209138937E+02  0.00000000000E+00 0. -1.
          2    1    1    2  501    0 -0.35141548505E+02 -0.12005920097E+03 -0.27606621433E+02  0.12810646245E+03  0.25500000000E-02 0.  1.
<mgrwt>
<rscale>  0 0.16393786E+03</rscale>
<asrwt>0</asrwt>
<pdfrwt beam="1">  1       11 0.10000000E+01 0.15925594E+03</pdfrwt>
<pdfrwt beam="2">  1        2 0.16924259E-01 0.16393786E+03</pdfrwt>
<totfact> 0.40945183E+02</totfact>
</mgrwt>
</event>
<event>
 5    1  0.2675386E-003  0.1438854E+03  0.7818608E-02  0.1208194E+00
         11   -1    0    0    0    0  0.00000000000E+00  0.00000000000E+00  0.10003345530E+04  0.10003345530E+04  0.51100000000E-03 0. -1.
          2   -1    0    0  501    0 -0.00000000000E+00 -0.00000000000E+00 -0.21601037688E+02  0.21601037839E+02  0.25500000000E-02 0. -1.
         11    1    1    2    0    0  0.11418274434E+03 -0.83982728965E+02  0.60693631260E+03  0.62326758733E+03  0.51100000000E-03 0. -1.
         22    1    1    2    0    0 -0.29758507763E+02  0.12678009344E+02  0.65633612273E+02  0.73171522912E+02  0.00000000000E+00 0.  1.
          2    1    1    2  501    0 -0.84424236572E+02  0.71304719620E+02  0.30616359042E+03  0.32549648058E+03  0.25500000000E-02 0. -1.
<mgrwt>
<rscale>  0 0.14388543E+03</rscale>
<asrwt>0</asrwt>
<pdfrwt beam="1">  1       11 0.10000000E+01 0.14174201E+03</pdfrwt>
<pdfrwt beam="2">  1        2 0.33243483E-02 0.14388543E+03</pdfrwt>
<totfact> 0.31617015E+03</totfact>
</mgrwt>
</event>
<event>
 5    1  0.2675386E-003  0.8388633E+02  0.7818608E-02  0.1318371E+00
         11   -1    0    0    0    0  0.00000000000E+00  0.00000000000E+00  0.10001815439E+04  0.10001815439E+04  0.51100000000E-03 0. -1.
          2   -1    0    0  501    0 -0.00000000000E+00 -0.00000000000E+00 -0.12503983325E+02  0.12503983585E+02  0.25500000000E-02 0. -1.
         11    1    1    2    0    0 -0.21135238519E+02 -0.74830352122E+02  0.13423333122E+03  0.15512855030E+03  0.51100000000E-03 0. -1.
         22    1    1    2    0    0  0.60702442237E+01  0.15037839414E+02  0.78164236939E+02  0.79828769347E+02  0.00000000000E+00 0. -1.
          2    1    1    2  501    0  0.15064994295E+02  0.59792512707E+02  0.77527999239E+03  0.77772820782E+03  0.25500000000E-02 0. -1.
<mgrwt>
<rscale>  0 0.83886331E+02</rscale>
<asrwt>0</asrwt>
<pdfrwt beam="1">  1       11 0.10000000E+01 0.77757867E+02</pdfrwt>
<pdfrwt beam="2">  1        2 0.19240389E-02 0.83886331E+02</pdfrwt>
<totfact> 0.62006806E+03</totfact>
</mgrwt>
</event>
<event>
 5    1  0.2675386E-003  0.2875372E+03  0.7818608E-02  0.1091642E+00
         11   -1    0    0    0    0  0.00000000000E+00  0.00000000000E+00  0.99987847106E+03  0.99987847106E+03  0.51100000000E-03 0.  1.
          2   -1    0    0  501    0 -0.00000000000E+00 -0.00000000000E+00 -0.82284263187E+02  0.82284263226E+02  0.25500000000E-02 0.  1.
         11    1    1    2    0    0 -0.13016809739E+02 -0.28529365806E+03  0.43372296730E+03  0.51930484402E+03  0.51100000000E-03 0.  1.
         22    1    1    2    0    0 -0.64340859035E+01  0.21644328235E+02  0.48673826881E+02  0.53656461208E+02  0.00000000000E+00 0. -1.
          2    1    1    2  501    0  0.19450895642E+02  0.26364932982E+03  0.43519741370E+03  0.50920142906E+03  0.25500000000E-02 0.  1.
<mgrwt>
<rscale>  0 0.28753718E+03</rscale>
<asrwt>0</asrwt>
<pdfrwt beam="1">  1       11 0.10000000E+01 0.28559060E+03</pdfrwt>
<pdfrwt beam="2">  1        2 0.12657579E-01 0.28753718E+03</pdfrwt>
<totfact> 0.59086676E+02</totfact>
</mgrwt>
</event>
<event>
 5    1  0.2675386E-003  0.1302262E+03  0.7818608E-02  0.1227121E+00
         11   -1    0    0    0    0  0.00000000000E+00  0.00000000000E+00  0.10001704749E+04  0.10001704749E+04  0.51100000000E-03 0. -1.
          2   -1    0    0  501    0 -0.00000000000E+00 -0.00000000000E+00 -0.17957293793E+02  0.17957293974E+02  0.25500000000E-02 0.  1.
         11    1    1    2    0    0 -0.10131251589E+03 -0.64242270167E+02  0.65605098406E+03  0.66692892338E+03  0.51100000000E-03 0. -1.
         22    1    1    2    0    0  0.42938017671E+02  0.27955096193E+02  0.75208920106E+02  0.91002980326E+02  0.00000000000E+00 0.  1.
          2    1    1    2  501    0  0.58374498222E+02  0.36287173974E+02  0.25095327694E+03  0.26019586517E+03  0.25500000000E-02 0.  1.
<mgrwt>
<rscale>  0 0.13022615E+03</rscale>
<asrwt>0</asrwt>
<pdfrwt beam="1">  1       11 0.10000000E+01 0.11996372E+03</pdfrwt>
<pdfrwt beam="2">  1        2 0.27631315E-02 0.13022615E+03</pdfrwt>
<totfact> 0.40128949E+03</totfact>
</mgrwt>
</event>
<event>
 5    1  0.2675386E-003  0.1686173E+03  0.7818608E-02  0.1436608E+00
         11   -1    0    0    0    0  0.00000000000E+00  0.00000000000E+00  0.10001586360E+04  0.10001586360E+04  0.51100000000E-03 0. -1.
         -2   -1    0    0    0  501 -0.00000000000E+00 -0.00000000000E+00 -0.86616546335E+02  0.86616546372E+02  0.25500000000E-02 0.  1.
         11    1    1    2    0    0  0.47143799738E+01 -0.16712059639E+03  0.78198698248E+03  0.79965940242E+03  0.51100000000E-03 0. -1.
         22    1    1    2    0    0  0.14249443976E+02 -0.68834857930E+01 -0.39392606766E+02  0.42452402737E+02  0.00000000000E+00 0. -1.
         -2    1    1    2    0  501 -0.18963823950E+02  0.17400408218E+03  0.17094771393E+03  0.24466337719E+03  0.25500000000E-02 0.  1.
<mgrwt>
<rscale>  0 0.51656166E+02</rscale>
<asrwt>0</asrwt>
<pdfrwt beam="1">  1       11 0.10000000E+01 0.16861725E+03</pdfrwt>
<pdfrwt beam="2">  1       -2 0.13327736E-01 0.51656166E+02</pdfrwt>
<totfact> 0.30550916E+02</totfact>
</mgrwt>
</event>
<event>
 5    1  0.2675386E-003  0.5036274E+02  0.7818608E-02  0.1569172E+00
         11   -1    0    0    0    0  0.00000000000E+00  0.00000000000E+00  0.10001363756E+04  0.10001363757E+04  0.51100000000E-03 0.  1.
          2   -1    0    0  501    0 -0.00000000000E+00 -0.00000000000E+00 -0.81135559410E+01  0.81135563417E+01  0.25500000000E-02 0.  1.
         11    1    1    2    0    0 -0.63787583187E+02 -0.17878376145E+02  0.20682776971E+03  0.21717784976E+03  0.51100000000E-03 0.  1.
         22    1    1    2    0    0  0.20959358191E+02 -0.40438917520E+01  0.50797640502E+02  0.55100345161E+02  0.00000000000E+00 0.  1.
          2    1    1    2  501    0  0.42828224996E+02  0.21922267897E+02  0.73439740950E+03  0.73597173707E+03  0.25500000000E-02 0.  1.
<mgrwt>
<rscale>  0 0.32787769E+02</rscale>
<asrwt>0</asrwt>
<pdfrwt beam="1">  1       11 0.10000000E+01 0.50362736E+02</pdfrwt>
<pdfrwt beam="2">  1        2 0.12484096E-02 0.32787769E+02</pdfrwt>
<totfact> 0.94815849E+03</totfact>
</mgrwt>
</event>
<event>
 5    1  0.2675386E-003  0.1606325E+03  0.7818608E-02  0.1187985E+00
         11   -1    0    0    0    0  0.00000000000E+00  0.00000000000E+00  0.10003174812E+04  0.10003174812E+04  0.51100000000E-03 0.  1.
         -2   -1    0    0    0  501 -0.00000000000E+00 -0.00000000000E+00 -0.62559936136E+02  0.62559936188E+02  0.25500000000E-02 0. -1.
         11    1    1    2    0    0  0.13754970013E+03 -0.80087625725E+02  0.87670120888E+03  0.89103252323E+03  0.51100000000E-03 0.  1.
         22    1    1    2    0    0 -0.13164720133E+02  0.15559790415E+02  0.55375287649E+01  0.21120633484E+02  0.00000000000E+00 0. -1.
         -2    1    1    2    0  501 -0.12438498000E+03  0.64527835310E+02  0.55518807449E+02  0.15072426071E+03  0.25500000000E-02 0. -1.
<mgrwt>
<rscale>  0 0.16063247E+03</rscale>
<asrwt>0</asrwt>
<pdfrwt beam="1">  1       11 0.10000000E+01 0.15916642E+03</pdfrwt>
<pdfrwt beam="2">  1       -2 0.96276609E-02 0.16063247E+03</pdfrwt>
<totfact> 0.54734092E+02</totfact>
</mgrwt>
</event>
<event>
 5    1  0.2675386E-003  0.1664774E+03  0.7818608E-02  0.1181572E+00
         11   -1    0    0    0    0  0.00000000000E+00  0.00000000000E+00  0.10001046333E+04  0.10001046333E+04  0.51100000000E-03 0. -1.
          2   -1    0    0  501    0 -0.00000000000E+00 -0.00000000000E+00 -0.27293662776E+02  0.27293662895E+02  0.25500000000E-02 0.  1.
         11    1    1    2    0    0  0.10148933035E+03  0.12716650919E+03  0.43613335155E+03  0.46549297049E+03  0.51100000000E-03 0. -1.
         22    1    1    2    0    0 -0.15188850344E+01 -0.15008057066E+02  0.32754766705E+02  0.36061385589E+02  0.00000000000E+00 0. -1.
          2    1    1    2  501    0 -0.99970445316E+02 -0.11215845213E+03  0.50392285227E+03  0.52584394012E+03  0.25500000000E-02 0.  1.
<mgrwt>
<rscale>  0 0.16647741E+03</rscale>
<asrwt>0</asrwt>
<pdfrwt beam="1">  1       11 0.10000000E+01 0.16270044E+03</pdfrwt>
<pdfrwt beam="2">  1        2 0.41994643E-02 0.16647741E+03</pdfrwt>
<totfact> 0.23456133E+03</totfact>
</mgrwt>
</event>
<event>
 5    1  0.2675386E-003  0.2982916E+03  0.7818608E-02  0.1086098E+00
         11   -1    0    0    0    0  0.00000000000E+00  0.00000000000E+00  0.99985473441E+03  0.99985473441E+03  0.51100000000E-03 0. -1.
          2   -1    0    0  501    0 -0.00000000000E+00 -0.00000000000E+00 -0.30240704467E+03  0.30240704468E+03  0.25500000000E-02 0. -1.
         11    1    1    2    0    0 -0.20276781631E+03  0.20538138225E+03  0.89772161647E+03  0.94297423092E+03  0.51100000000E-03 0. -1.
         22    1    1    2    0    0  0.26701169841E+02 -0.53789900033E+02 -0.72480338348E+02  0.94126007370E+02  0.00000000000E+00 0.  1.
          2    1    1    2  501    0  0.17606664647E+03 -0.15159148222E+03 -0.12779358838E+03  0.26516154079E+03  0.25500000000E-02 0. -1.
<mgrwt>
<rscale>  0 0.29829163E+03</rscale>
<asrwt>0</asrwt>
<pdfrwt beam="1">  1       11 0.10000000E+01 0.28861098E+03</pdfrwt>
<pdfrwt beam="2">  1        2 0.46517401E-01 0.29829163E+03</pdfrwt>
<totfact> 0.13457538E+02</totfact>
</mgrwt>
</event>
<event>
 5    1  0.2675386E-003  0.9856621E+02  0.7818608E-02  0.1366233E+00
         11   -1    0    0    0    0  0.00000000000E+00  0.00000000000E+00  0.10001688430E+04  0.10001688430E+04  0.51100000000E-03 0. -1.
          2   -1    0    0  501    0 -0.00000000000E+00 -0.00000000000E+00 -0.22820293635E+02  0.22820293778E+02  0.25500000000E-02 0. -1.
         11    1    1    2    0    0 -0.10148102563E+03  0.23503416201E+02  0.60570066783E+03  0.61459263594E+03  0.51100000000E-03 0. -1.
         22    1    1    2    0    0  0.91041075512E+02  0.43918688072E+02  0.22076365093E+03  0.24280427954E+03  0.00000000000E+00 0. -1.
          2    1    1    2  501    0  0.10439950115E+02 -0.67422104273E+02  0.15088423059E+03  0.16559222129E+03  0.25500000000E-02 0. -1.
<mgrwt>
<rscale>  0 0.68225602E+02</rscale>
<asrwt>0</asrwt>
<pdfrwt beam="1">  1       11 0.10000000E+01 0.98566210E+02</pdfrwt>
<pdfrwt beam="2">  1        2 0.35114071E-02 0.68225602E+02</pdfrwt>
<totfact> 0.27196888E+03</totfact>
</mgrwt>
</event>
<event>
 5    1  0.2675386E-003  0.1767920E+03  0.7818608E-02  0.1170944E+00
         11   -1    0    0    0    0  0.00000000000E+00  0.00000000000E+00  0.10001656871E+04  0.10001656871E+04  0.51100000000E-03 0. -1.
          2   -1    0    0  501    0 -0.00000000000E+00 -0.00000000000E+00 -0.31028112764E+02  0.31028112869E+02  0.25500000000E-02 0. -1.
         11    1    1    2    0    0 -0.56176722130E+02  0.16166473217E+03  0.55799422850E+03  0.58365132466E+03  0.51100000000E-03 0. -1.
         22    1    1    2    0    0 -0.40157704899E+01 -0.13091827370E+02  0.15642513411E+02  0.20789674897E+02  0.00000000000E+00 0.  1.
          2    1    1    2  501    0  0.60192492620E+02 -0.14857290480E+03  0.39550083246E+03  0.42675280045E+03  0.25500000000E-02 0. -1.
<mgrwt>
<rscale>  0 0.17679201E+03</rscale>
<asrwt>0</asrwt>
<pdfrwt beam="1">  1       11 0.10000000E+01 0.17114704E+03</pdfrwt>
<pdfrwt beam="2">  1        2 0.47743466E-02 0.17679201E+03</pdfrwt>
<totfact> 0.19889028E+03</totfact>
</mgrwt>
</event>
<event>
 5    1  0.2675386E-003  0.1151837E+03  0.7818608E-02  0.1266324E+00
         11   -1    0    0    0    0  0.00000000000E+00  0.00000000000E+00  0.10002561013E+04  0.10002561013E+04  0.51100000000E-03 0. -1.
          2   -1    0    0  501    0 -0.00000000000E+00 -0.00000000000E+00 -0.14743295295E+02  0.14743295515E+02  0.25500000000E-02 0. -1.
         11    1    1    2    0    0 -0.37657935755E+02  0.63901793162E+02  0.17803720183E+03  0.19286991608E+03  0.51100000000E-03 0. -1.
         22    1    1    2    0    0 -0.38734907662E+02  0.10948219238E+02  0.12490490539E+03  0.13123068226E+03  0.00000000000E+00 0. -1.
          2    1    1    2  501    0  0.76392843417E+02 -0.74850012400E+02  0.68257069877E+03  0.69089879845E+03  0.25500000000E-02 0. -1.
<mgrwt>
<rscale>  0 0.10695041E+03</rscale>
<asrwt>0</asrwt>
<pdfrwt beam="1">  1       11 0.10000000E+01 0.11518367E+03</pdfrwt>
<pdfrwt beam="2">  1        2 0.22687801E-02 0.10695041E+03</pdfrwt>
<totfact> 0.51200688E+03</totfact>
</mgrwt>
</event>
<event>
 5    1  0.2675386E-003  0.2017814E+03  0.7818608E-02  0.1394882E+00
         11   -1    0    0    0    0  0.00000000000E+00  0.00000000000E+00  0.10002088499E+04  0.10002088499E+04  0.51100000000E-03 0.  1.
          2   -1    0    0  501    0 -0.00000000000E+00 -0.00000000000E+00 -0.35228313820E+03  0.35228313821E+03  0.25500000000E-02 0. -1.
         11    1    1    2    0    0 -0.16045252859E+03 -0.12262718895E+03  0.95554601392E+03  0.97665276640E+03  0.51100000000E-03 0.  1.
         22    1    1    2    0    0 -0.65761810197E+01  0.17040063094E+02 -0.23647378057E+02  0.29879899532E+02  0.00000000000E+00 0.  1.
          2    1    1    2  501    0  0.16702870961E+03  0.10558712586E+03 -0.28397292413E+03  0.34595932221E+03  0.25500000000E-02 0. -1.
<mgrwt>
<rscale>  0 0.60708607E+02</rscale>
<asrwt>0</asrwt>
<pdfrwt beam="1">  1       11 0.10000000E+01 0.20178137E+03</pdfrwt>
<pdfrwt beam="2">  1        2 0.54208723E-01 0.60708607E+02</pdfrwt>
<totfact> 0.11410755E+02</totfact>
</mgrwt>
</event>
<event>
 5    1  0.2675386E-003  0.2107358E+03  0.7818608E-02  0.1140985E+00
         11   -1    0    0    0    0  0.00000000000E+00  0.00000000000E+00  0.10002464286E+04  0.10002464286E+04  0.51100000000E-03 0. -1.
          2   -1    0    0  501    0 -0.00000000000E+00 -0.00000000000E+00 -0.54983878461E+02  0.54983878520E+02  0.25500000000E-02 0. -1.
         11    1    1    2    0    0  0.24492426444E+02  0.20841903701E+03  0.31486899929E+03  0.37839246908E+03  0.51100000000E-03 0. -1.
         22    1    1    2    0    0 -0.31378403189E+02  0.50417674296E+01  0.10468816664E+03  0.10940583092E+03  0.00000000000E+00 0. -1.
          2    1    1    2  501    0  0.68859767452E+01 -0.21346080444E+03  0.52570538422E+03  0.56743200713E+03  0.25500000000E-02 0. -1.
<mgrwt>
<rscale>  0 0.21073578E+03</rscale>
<asrwt>0</asrwt>
<pdfrwt beam="1">  1       11 0.10000000E+01 0.31780869E+02</pdfrwt>
<pdfrwt beam="2">  1        2 0.84611425E-02 0.21073578E+03</pdfrwt>
<totfact> 0.96010940E+02</totfact>
</mgrwt>
</event>
<event>
 5    1  0.2675386E-003  0.1861663E+03  0.7818608E-02  0.1404185E+00
         11   -1    0    0    0    0  0.00000000000E+00  0.00000000000E+00  0.10000987454E+04  0.10000987454E+04  0.51100000000E-03 0. -1.
         -2   -1    0    0    0  501 -0.00000000000E+00 -0.00000000000E+00 -0.48323893085E+02  0.48323893153E+02  0.25500000000E-02 0.  1.
         11    1    1    2    0    0  0.27667999979E+02  0.18769007300E+03  0.71244077043E+03  0.73726856239E+03  0.51100000000E-03 0. -1.
         22    1    1    2    0    0 -0.15241881500E+02 -0.10290131077E+02  0.99513698841E+01  0.20910081583E+02  0.00000000000E+00 0.  1.
         -2    1    1    2    0  501 -0.12426118480E+02 -0.17739994192E+03  0.22938271199E+03  0.29024399457E+03  0.25500000000E-02 0.  1.
<mgrwt>
<rscale>  0 0.58511946E+02</rscale>
<asrwt>0</asrwt>
<pdfrwt beam="1">  1       11 0.10000000E+01 0.18616634E+03</pdfrwt>
<pdfrwt beam="2">  1       -2 0.74351790E-02 0.58511946E+02</pdfrwt>
<totfact> 0.75532710E+02</totfact>
</mgrwt>
</event>
<event>
 5    1  0.2675386E-003  0.1539817E+03  0.7818608E-02  0.1672577E+00
         11   -1    0    0    0    0  0.00000000000E+00  0.00000000000E+00  0.10002927153E+04  0.10002927153E+04  0.51100000000E-03 0. -1.
          2   -1    0    0  501    0 -0.00000000000E+00 -0.00000000000E+00 -0.53776364419E+03  0.53776364420E+03  0.25500000000E-02 0. -1.
         11    1    1    2    0    0  0.11995971752E+03  0.96276276494E+02  0.92143389465E+03  0.93418407044E+03  0.51100000000E-03 0. -1.
         22    1    1    2    0    0 -0.14319681190E+03 -0.89472979558E+02 -0.51542845837E+03  0.54238108071E+03  0.00000000000E+00 0. -1.
          2    1    1    2  501    0  0.23237094377E+02 -0.68032969358E+01  0.56523634822E+02  0.61491208349E+02  0.25500000000E-02 0. -1.
<mgrwt>
<rscale>  0 0.24212547E+02</rscale>
<asrwt>0</asrwt>
<pdfrwt beam="1">  1       11 0.10000000E+01 0.15398168E+03</pdfrwt>
<pdfrwt beam="2">  1        2 0.82757083E-01 0.24212547E+02</pdfrwt>
<totfact> 0.74253031E+01</totfact>
</mgrwt>
</event>
<event>
 5    1  0.2675386E-003  0.8986327E+02  0.7818608E-02  0.1408930E+00
         11   -1    0    0    0    0  0.00000000000E+00  0.00000000000E+00  0.10002019009E+04  0.10002019009E+04  0.51100000000E-03 0.  1.
          2   -1    0    0  501    0 -0.00000000000E+00 -0.00000000000E+00 -0.21723514960E+02  0.21723515110E+02  0.25500000000E-02 0.  1.
         11    1    1    2    0    0  0.22215592245E+02  0.72479226231E+02  0.30089976410E+03  0.31030217338E+03  0.51100000000E-03 0.  1.
         22    1    1    2    0    0 -0.19984131870E+02  0.30789777040E+02  0.12810180898E+02  0.38877713814E+02  0.00000000000E+00 0.  1.
          2    1    1    2  501    0 -0.22314603750E+01 -0.10326900327E+03  0.66476844099E+03  0.67274552885E+03  0.25500000000E-02 0.  1.
<mgrwt>
<rscale>  0 0.57433224E+02</rscale>
<asrwt>0</asrwt>
<pdfrwt beam="1">  1       11 0.10000000E+01 0.89863271E+02</pdfrwt>
<pdfrwt beam="2">  1        2 0.33427539E-02 0.57433224E+02</pdfrwt>
<totfact> 0.28417901E+03</totfact>
</mgrwt>
</event>
<event>
 5    1  0.2675386E-003  0.1566334E+03  0.7818608E-02  0.1192551E+00
         11   -1    0    0    0    0  0.00000000000E+00  0.00000000000E+00  0.10002038972E+04  0.10002038972E+04  0.51100000000E-03 0. -1.
          2   -1    0    0  501    0 -0.00000000000E+00 -0.00000000000E+00 -0.47218054843E+02  0.47218054912E+02  0.25500000000E-02 0. -1.
         11    1    1    2    0    0  0.14241914598E+03 -0.59455853087E+02  0.84057698219E+03  0.85462733082E+03  0.51100000000E-03 0. -1.
         22    1    1    2    0    0 -0.12615345412E+02  0.40803929295E+01  0.15748633853E+01  0.13352031344E+02  0.00000000000E+00 0.  1.
          2    1    1    2  501    0 -0.12980380057E+03  0.55375460157E+02  0.11083399674E+03  0.17944258990E+03  0.25500000000E-02 0. -1.
<mgrwt>
<rscale>  0 0.15663337E+03</rscale>
<asrwt>0</asrwt>
<pdfrwt beam="1">  1       11 0.10000000E+01 0.15433150E+03</pdfrwt>
<pdfrwt beam="2">  1        2 0.72657971E-02 0.15663337E+03</pdfrwt>
<totfact> 0.11438660E+03</totfact>
</mgrwt>
</event>
<event>
 5    1  0.2675386E-003  0.1429215E+03  0.7818608E-02  0.1415788E+00
         11   -1    0    0    0    0  0.00000000000E+00  0.00000000000E+00  0.10001764646E+04  0.10001764646E+04  0.51100000000E-03 0. -1.
          2   -1    0    0  501    0 -0.00000000000E+00 -0.00000000000E+00 -0.31225348023E+02  0.31225348128E+02  0.25500000000E-02 0. -1.
         11    1    1    2    0    0 -0.11508562663E+03 -0.79185114675E+02  0.33363279777E+03  0.36169853136E+03  0.51100000000E-03 0. -1.
         22    1    1    2    0    0 -0.15566190233E+02  0.15377823766E+02  0.44925956263E+01  0.22337572778E+02  0.00000000000E+00 0. -1.
          2    1    1    2  501    0  0.13065181686E+03  0.63807290909E+02  0.63082572317E+03  0.64736570858E+03  0.25500000000E-02 0. -1.
<mgrwt>
<rscale>  0 0.55922104E+02</rscale>
<asrwt>0</asrwt>
<pdfrwt beam="1">  1       11 0.10000000E+01 0.14292149E+03</pdfrwt>
<pdfrwt beam="2">  1        2 0.48047473E-02 0.55922104E+02</pdfrwt>
<totfact> 0.17762002E+03</totfact>
</mgrwt>
</event>
<event>
 5    1  0.2675386E-003  0.1572769E+03  0.7818608E-02  0.1191806E+00
         11   -1    0    0    0    0  0.00000000000E+00  0.00000000000E+00  0.10004304869E+04  0.10004304869E+04  0.51100000000E-03 0.  1.
         -2   -1    0    0    0  501 -0.00000000000E+00 -0.00000000000E+00 -0.27838324567E+02  0.27838324684E+02  0.25500000000E-02 0. -1.
         11    1    1    2    0    0 -0.12251688524E+03  0.86581662108E+02  0.67717263902E+03  0.69359177793E+03  0.51100000000E-03 0.  1.
         22    1    1    2    0    0  0.45037784611E+02 -0.14682705997E+02  0.58693444066E+02  0.75424825318E+02  0.00000000000E+00 0.  1.
         -2    1    1    2    0  501  0.77479100627E+02 -0.71898956111E+02  0.23672607928E+03  0.25925220836E+03  0.25500000000E-02 0. -1.
<mgrwt>
<rscale>  0 0.15727690E+03</rscale>
<asrwt>0</asrwt>
<pdfrwt beam="1">  1       11 0.10000000E+01 0.15002257E+03</pdfrwt>
<pdfrwt beam="2">  1       -2 0.42846627E-02 0.15727690E+03</pdfrwt>
<totfact> 0.18863519E+03</totfact>
</mgrwt>
</event>
<event>
 5    1  0.2675386E-003  0.2742477E+03  0.7818608E-02  0.1098873E+00
         11   -1    0    0    0    0  0.00000000000E+00  0.00000000000E+00  0.10001474272E+04  0.10001474272E+04  0.51100000000E-03 0. -1.
          2   -1    0    0  501    0 -0.00000000000E+00 -0.00000000000E+00 -0.11513658899E+04  0.11513658899E+04  0.25500000000E-02 0. -1.
         11    1    1    2    0    0 -0.18440792250E+03  0.19868763463E+03  0.96486906719E+03  0.10022252116E+04  0.51100000000E-03 0. -1.
         22    1    1    2    0    0  0.32141594078E+02 -0.17955135423E+02 -0.18910165661E+03  0.19265229168E+03  0.00000000000E+00 0. -1.
          2    1    1    2  501    0  0.15226632842E+03 -0.18073249921E+03 -0.92698587327E+03  0.95663581382E+03  0.25500000000E-02 0. -1.
<mgrwt>
<rscale>  0 0.27424765E+03</rscale>
<asrwt>0</asrwt>
<pdfrwt beam="1">  1       11 0.10000000E+01 0.27107759E+03</pdfrwt>
<pdfrwt beam="2">  1        2 0.17715932E+00 0.27424765E+03</pdfrwt>
<totfact> 0.26664479E+01</totfact>
</mgrwt>
</event>
<event>
 5    1  0.2675386E-003  0.2566021E+03  0.7818608E-02  0.1294105E+00
         11   -1    0    0    0    0  0.00000000000E+00  0.00000000000E+00  0.10003551560E+04  0.10003551560E+04  0.51100000000E-03 0. -1.
          2   -1    0    0  501    0 -0.00000000000E+00 -0.00000000000E+00 -0.19871906557E+03  0.19871906559E+03  0.25500000000E-02 0. -1.
         11    1    1    2    0    0  0.11798829093E+03 -0.24842015415E+03 -0.53357988710E+02  0.28014439981E+03  0.51100000000E-03 0. -1.
         22    1    1    2    0    0  0.14579846462E+02  0.30962397330E+02  0.89359435909E+01  0.35370793872E+02  0.00000000000E+00 0. -1.
          2    1    1    2  501    0 -0.13256813740E+03  0.21745775682E+03  0.84605813558E+03  0.88355902793E+03  0.25500000000E-02 0. -1.
<mgrwt>
<rscale>  0 0.93711228E+02</rscale>
<asrwt>0</asrwt>
<pdfrwt beam="1">  1       11 0.10000000E+01 0.25660207E+03</pdfrwt>
<pdfrwt beam="2">  1        2 0.30583021E-01 0.93711228E+02</pdfrwt>
<totfact> 0.20858892E+02</totfact>
</mgrwt>
</event>
<event>
 5    1  0.2675386E-003  0.1103942E+03  0.7818608E-02  0.1259842E+00
         11   -1    0    0    0    0  0.00000000000E+00  0.00000000000E+00  0.10006232494E+04  0.10006232494E+04  0.51100000000E-03 0. -1.
          2   -1    0    0  501    0 -0.00000000000E+00 -0.00000000000E+00 -0.24184562139E+02  0.24184562274E+02  0.25500000000E-02 0. -1.
         11    1    1    2    0    0 -0.15471098411E+02 -0.63556137844E+01  0.98534601416E+02  0.99944066303E+02  0.51100000000E-03 0. -1.
         22    1    1    2    0    0  0.48252395953E+02  0.10167446960E+03  0.13775817385E+03  0.17788565413E+03  0.00000000000E+00 0. -1.
          2    1    1    2  501    0 -0.32781297542E+02 -0.95318855816E+02  0.74014591204E+03  0.74697809128E+03  0.25500000000E-02 0. -1.
<mgrwt>
<rscale>  0 0.11039415E+03</rscale>
<asrwt>0</asrwt>
<pdfrwt beam="1">  1       11 0.10000000E+01 0.16725690E+02</pdfrwt>
<pdfrwt beam="2">  1        2 0.37230207E-02 0.11039415E+03</pdfrwt>
<totfact> 0.26501774E+03</totfact>
</mgrwt>
</event>
<event>
 5    1  0.2675386E-003  0.1158049E+03  0.7818608E-02  0.1250183E+00
         11   -1    0    0    0    0  0.00000000000E+00  0.00000000000E+00  0.10003400551E+04  0.10003400551E+04  0.51100000000E-03 0. -1.
          2   -1    0    0  501    0 -0.00000000000E+00 -0.00000000000E+00 -0.12163273055E+02  0.12163273322E+02  0.25500000000E-02 0. -1.
         11    1    1    2    0    0 -0.73732761279E+02  0.73014156316E+02  0.41822677487E+03  0.43090744056E+03  0.51100000000E-03 0. -1.
         22    1    1    2    0    0  0.46233381631E+02 -0.10812572380E+02  0.21351018146E+03  0.21872593555E+03  0.00000000000E+00 0.  1.
          2    1    1    2  501    0  0.27499379648E+02 -0.62201583936E+02  0.35643982569E+03  0.36286995228E+03  0.25500000000E-02 0. -1.
<mgrwt>
<rscale>  0 0.11580486E+03</rscale>
<asrwt>0</asrwt>
<pdfrwt beam="1">  1       11 0.10000000E+01 0.10376704E+03</pdfrwt>
<pdfrwt beam="2">  1        2 0.18719091E-02 0.11580486E+03</pdfrwt>
<totfact> 0.67092355E+03</totfact>
</mgrwt>
</event>
<event>
 5    1  0.2675386E-003  0.7284678E+02  0.7818608E-02  0.1371739E+00
         11   -1    0    0    0    0  0.00000000000E+00  0.00000000000E+00  0.10002092583E+04  0.10002092583E+04  0.51100000000E-03 0. -1.
          2   -1    0    0  501    0 -0.00000000000E+00 -0.00000000000E+00 -0.12097105056E+02  0.12097105325E+02  0.25500000000E-02 0. -1.
         11    1    1    2    0    0  0.24070004935E+02 -0.60680749837E+02  0.27198550787E+03  0.27970991229E+03  0.51100000000E-03 0. -1.
         22    1    1    2    0    0  0.58063329814E+02  0.18849945154E+02  0.24096501836E+03  0.24857757496E+03  0.00000000000E+00 0. -1.
          2    1    1    2  501    0 -0.82133334749E+02  0.41830804683E+02  0.47516162701E+03  0.48401887638E+03  0.25500000000E-02 0. -1.
<mgrwt>
<rscale>  0 0.66686116E+02</rscale>
<asrwt>0</asrwt>
<pdfrwt beam="1">  1       11 0.10000000E+01 0.72846775E+02</pdfrwt>
<pdfrwt beam="2">  1        2 0.18614825E-02 0.66686116E+02</pdfrwt>
<totfact> 0.62796166E+03</totfact>
</mgrwt>
</event>
<event>
 5    1  0.2675386E-003  0.2706298E+03  0.7818608E-02  0.1100920E+00
         11   -1    0    0    0    0  0.00000000000E+00  0.00000000000E+00  0.10002574722E+04  0.10002574722E+04  0.51100000000E-03 0.  1.
          2   -1    0    0  501    0 -0.00000000000E+00 -0.00000000000E+00 -0.52600861894E+03  0.52600861895E+03  0.25500000000E-02 0.  1.
         11    1    1    2    0    0 -0.13328362652E+03  0.21145714537E+03  0.94814476614E+03  0.98053921236E+03  0.51100000000E-03 0.  1.
         22    1    1    2    0    0  0.12086107823E+03 -0.13222951916E+03 -0.24736944695E+03  0.30542378632E+03  0.00000000000E+00 0.  1.
          2    1    1    2  501    0  0.12422548292E+02 -0.79227626212E+02 -0.22652646595E+03  0.24030309245E+03  0.25500000000E-02 0.  1.
<mgrwt>
<rscale>  0 0.27062980E+03</rscale>
<asrwt>0</asrwt>
<pdfrwt beam="1">  1       11 0.10000000E+01 0.24995730E+03</pdfrwt>
<pdfrwt beam="2">  1        2 0.80945236E-01 0.27062980E+03</pdfrwt>
<totfact> 0.73196517E+01</totfact>
</mgrwt>
</event>
<event>
 5    1  0.2675386E-003  0.2630212E+03  0.7818608E-02  0.1105342E+00
         11   -1    0    0    0    0  0.00000000000E+00  0.00000000000E+00  0.99995392659E+03  0.99995392659E+03  0.51100000000E-03 0. -1.
          2   -1    0    0  501    0 -0.00000000000E+00 -0.00000000000E+00 -0.23612430242E+03  0.23612430243E+03  0.25500000000E-02 0. -1.
         11    1    1    2    0    0 -0.51182625135E+02 -0.25348310926E+03 -0.14048171301E+03  0.29429315229E+03  0.51100000000E-03 0. -1.
         22    1    1    2    0    0  0.76082627962E+01  0.10346663363E+02  0.21269149497E+02  0.24845841219E+02  0.00000000000E+00 0. -1.
          2    1    1    2  501    0  0.43574362338E+02  0.24313644590E+03  0.88304218768E+03  0.91693923551E+03  0.25500000000E-02 0. -1.
<mgrwt>
<rscale>  0 0.26302117E+03</rscale>
<asrwt>0</asrwt>
<pdfrwt beam="1">  1       11 0.10000000E+01 0.25859895E+03</pdfrwt>
<pdfrwt beam="2">  1        2 0.36325141E-01 0.26302117E+03</pdfrwt>
<totfact> 0.17593511E+02</totfact>
</mgrwt>
</event>
<event>
 5    1  0.2675386E-003  0.4814126E+03  0.7818608E-02  0.1330200E+00
         11   -1    0    0    0    0  0.00000000000E+00  0.00000000000E+00  0.10004062091E+04  0.10004062091E+04  0.51100000000E-03 0. -1.
          2   -1    0    0  501    0 -0.00000000000E+00 -0.00000000000E+00 -0.14875605371E+04  0.14875605371E+04  0.25500000000E-02 0. -1.
         11    1    1    2    0    0  0.47993981250E+03 -0.37509466570E+02  0.89633876595E+03  0.10174342077E+04  0.51100000000E-03 0. -1.
         22    1    1    2    0    0 -0.81883774105E+00 -0.13135044655E+02 -0.75293203278E+02  0.76434719554E+02  0.00000000000E+00 0.  1.
          2    1    1    2  501    0 -0.47912097476E+03  0.50644511225E+02 -0.13081998906E+04  0.13940978189E+04  0.25500000000E-02 0. -1.
<mgrwt>
<rscale>  0 0.79596801E+02</rscale>
<asrwt>0</asrwt>
<pdfrwt beam="1">  1       11 0.10000000E+01 0.48141256E+03</pdfrwt>
<pdfrwt beam="2">  1        2 0.22894842E+00 0.79596801E+02</pdfrwt>
<totfact> 0.19087743E+01</totfact>
</mgrwt>
</event>
<event>
 5    1  0.2675386E-003  0.8429984E+02  0.7818608E-02  0.1317274E+00
         11   -1    0    0    0    0  0.00000000000E+00  0.00000000000E+00  0.10001820113E+04  0.10001820113E+04  0.51100000000E-03 0. -1.
          2   -1    0    0  501    0 -0.00000000000E+00 -0.00000000000E+00 -0.35416556178E+02  0.35416556270E+02  0.25500000000E-02 0. -1.
         11    1    1    2    0    0  0.74604763877E+02  0.40974071928E+02  0.23116313294E+02  0.88199259090E+02  0.51100000000E-03 0. -1.
         22    1    1    2    0    0 -0.17013995173E+02  0.20008933948E+01  0.49882605785E+02  0.52742335614E+02  0.00000000000E+00 0.  1.
          2    1    1    2  501    0 -0.57590768704E+02 -0.42974965323E+02  0.89176653607E+03  0.89465697290E+03  0.25500000000E-02 0. -1.
<mgrwt>
<rscale>  0 0.84299844E+02</rscale>
<asrwt>0</asrwt>
<pdfrwt beam="1">  1       11 0.10000000E+01 0.17131246E+02</pdfrwt>
<pdfrwt beam="2">  1        2 0.54496925E-02 0.84299844E+02</pdfrwt>
<totfact> 0.15740564E+03</totfact>
</mgrwt>
</event>
<event>
 5    1  0.2675386E-003  0.1341334E+03  0.7818608E-02  0.1221448E+00
         11   -1    0    0    0    0  0.00000000000E+00  0.00000000000E+00  0.99997431414E+03  0.99997431414E+03  0.51100000000E-03 0. -1.
          2   -1    0    0  501    0 -0.00000000000E+00 -0.00000000000E+00 -0.18915450030E+02  0.18915450202E+02  0.25500000000E-02 0. -1.
         11    1    1    2    0    0 -0.12326892268E+03 -0.41390358225E+02  0.62546665830E+03  0.63884030062E+03  0.51100000000E-03 0. -1.
         22    1    1    2    0    0  0.74773107653E+02  0.90198245029E+01  0.18381178163E+03  0.19864326299E+03  0.00000000000E+00 0. -1.
          2    1    1    2  501    0  0.48495815027E+02  0.32370533722E+02  0.17178042419E+03  0.18140620074E+03  0.25500000000E-02 0. -1.
<mgrwt>
<rscale>  0 0.13413343E+03</rscale>
<asrwt>0</asrwt>
<pdfrwt beam="1">  1       11 0.10000000E+01 0.13003226E+03</pdfrwt>
<pdfrwt beam="2">  1        2 0.29099944E-02 0.13413343E+03</pdfrwt>
<totfact> 0.37542811E+03</totfact>
</mgrwt>
</event>
<event>
 5    1  0.2675386E-003  0.2048177E+03  0.7818608E-02  0.1145737E+00
         11   -1    0    0    0    0  0.00000000000E+00  0.00000000000E+00  0.10003072223E+04  0.10003072223E+04  0.51100000000E-03 0.  1.
          2   -1    0    0  501    0 -0.00000000000E+00 -0.00000000000E+00 -0.55587408332E+03  0.55587408332E+03  0.25500000000E-02 0.  1.
         11    1    1    2    0    0 -0.16993399769E+03  0.95873257224E+02  0.97140470618E+03  0.99080590845E+03  0.51100000000E-03 0.  1.
         22    1    1    2    0    0  0.15171051699E+03 -0.64607827070E+02 -0.46783981371E+03  0.49604873105E+03  0.00000000000E+00 0.  1.
          2    1    1    2  501    0  0.18223480700E+02 -0.31265430154E+02 -0.59131753442E+02  0.69326666177E+02  0.25500000000E-02 0.  1.
<mgrwt>
<rscale>  0 0.20481774E+03</rscale>
<asrwt>0</asrwt>
<pdfrwt beam="1">  1       11 0.10000000E+01 0.19511342E+03</pdfrwt>
<pdfrwt beam="2">  1        2 0.85545361E-01 0.20481774E+03</pdfrwt>
<totfact> 0.69105434E+01</totfact>
</mgrwt>
</event>
<event>
 5    1  0.2675386E-003  0.9089022E+02  0.7818608E-02  0.1589591E+00
         11   -1    0    0    0    0  0.00000000000E+00  0.00000000000E+00  0.10000529693E+04  0.10000529693E+04  0.51100000000E-03 0. -1.
         -2   -1    0    0    0  501 -0.00000000000E+00 -0.00000000000E+00 -0.10063819779E+02  0.10063820102E+02  0.25500000000E-02 0. -1.
         11    1    1    2    0    0 -0.94809779864E+02 -0.18040198417E+02  0.40528477916E+03  0.41661744483E+03  0.51100000000E-03 0. -1.
         22    1    1    2    0    0  0.98881803060E+01 -0.33045393518E+01  0.26643979800E+02  0.28611147297E+02  0.00000000000E+00 0.  1.
         -2    1    1    2    0  501  0.84921599558E+02  0.21344737769E+02  0.55806039060E+03  0.56488819731E+03  0.25500000000E-02 0. -1.
<mgrwt>
<rscale>  0 0.30783071E+02</rscale>
<asrwt>0</asrwt>
<pdfrwt beam="1">  1       11 0.10000000E+01 0.90890216E+02</pdfrwt>
<pdfrwt beam="2">  1       -2 0.15483620E-02 0.30783071E+02</pdfrwt>
<totfact> 0.65254377E+03</totfact>
</mgrwt>
</event>
<event>
 5    1  0.2675386E-003  0.1903851E+03  0.7818608E-02  0.1158114E+00
         11   -1    0    0    0    0  0.00000000000E+00  0.00000000000E+00  0.10002067236E+04  0.10002067236E+04  0.51100000000E-03 0. -1.
          2   -1    0    0  501    0 -0.00000000000E+00 -0.00000000000E+00 -0.29134572353E+03  0.29134572354E+03  0.25500000000E-02 0. -1.
         11    1    1    2    0    0 -0.17047624147E+03 -0.57775831806E+02  0.95981833045E+03  0.97655077857E+03  0.51100000000E-03 0. -1.
         22    1    1    2    0    0  0.71573497030E+02  0.73282045527E+01 -0.14331733014E+03  0.16036310417E+03  0.00000000000E+00 0. -1.
          2    1    1    2  501    0  0.98902744439E+02  0.50447627253E+02 -0.10764000023E+03  0.15463856443E+03  0.25500000000E-02 0. -1.
<mgrwt>
<rscale>  0 0.19038506E+03</rscale>
<asrwt>0</asrwt>
<pdfrwt beam="1">  1       11 0.10000000E+01 0.18000054E+03</pdfrwt>
<pdfrwt beam="2">  1        2 0.44831684E-01 0.19038506E+03</pdfrwt>
<totfact> 0.13989566E+02</totfact>
</mgrwt>
</event>
<event>
 5    1  0.2675386E-003  0.1568766E+03  0.7818608E-02  0.1305065E+00
         11   -1    0    0    0    0  0.00000000000E+00  0.00000000000E+00  0.10000667733E+04  0.10000667733E+04  0.51100000000E-03 0. -1.
          2   -1    0    0  501    0 -0.00000000000E+00 -0.00000000000E+00 -0.59808823519E+02  0.59808823573E+02  0.25500000000E-02 0. -1.
         11    1    1    2    0    0  0.30675643347E+02  0.16881287346E+03  0.80299928389E+03  0.82112522265E+03  0.51100000000E-03 0. -1.
         22    1    1    2    0    0 -0.10888032324E+02 -0.49411367463E+02 -0.62926444207E+01  0.50986565448E+02  0.00000000000E+00 0. -1.
          2    1    1    2  501    0 -0.19787611023E+02 -0.11940150600E+03  0.14355131028E+03  0.18776380874E+03  0.25500000000E-02 0. -1.
<mgrwt>
<rscale>  0 0.89092351E+02</rscale>
<asrwt>0</asrwt>
<pdfrwt beam="1">  1       11 0.10000000E+01 0.15687658E+03</pdfrwt>
<pdfrwt beam="2">  1        2 0.92019716E-02 0.89092351E+02</pdfrwt>
<totfact> 0.82068117E+02</totfact>
</mgrwt>
</event>
<event>
 5    1  0.2675386E-003  0.1909987E+03  0.7818608E-02  0.1157564E+00
         11   -1    0    0    0    0  0.00000000000E+00  0.00000000000E+00  0.99984667557E+03  0.99984667557E+03  0.51100000000E-03 0.  1.
          2   -1    0    0  501    0 -0.00000000000E+00 -0.00000000000E+00 -0.65117140271E+02  0.65117140321E+02  0.25500000000E-02 0.  1.
         11    1    1    2    0    0  0.13399771965E+03  0.12705728998E+03  0.82347457336E+03  0.84392494736E+03  0.51100000000E-03 0.  1.
         22    1    1    2    0    0 -0.21577525181E+02 -0.41640879759E+01  0.25631858652E+02  0.33762722040E+02  0.00000000000E+00 0. -1.
          2    1    1    2  501    0 -0.11242019447E+03 -0.12289320200E+03  0.85623103288E+02  0.18727614649E+03  0.25500000000E-02 0.  1.
<mgrwt>
<rscale>  0 0.19099873E+03</rscale>
<asrwt>0</asrwt>
<pdfrwt beam="1">  1       11 0.10000000E+01 0.18465899E+03</pdfrwt>
<pdfrwt beam="2">  1        2 0.10016485E-01 0.19099873E+03</pdfrwt>
<totfact> 0.77330665E+02</totfact>
</mgrwt>
</event>
<event>
 5    1  0.2675386E-003  0.3437457E+03  0.7818608E-02  0.1065212E+00
         11   -1    0    0    0    0  0.00000000000E+00  0.00000000000E+00  0.10003512868E+04  0.10003512868E+04  0.51100000000E-03 0.  1.
          2   -1    0    0  501    0 -0.00000000000E+00 -0.00000000000E+00 -0.35051886779E+03  0.35051886780E+03  0.25500000000E-02 0.  1.
         11    1    1    2    0    0  0.30229365928E+03  0.13747643144E+03  0.87772244224E+03  0.93844441031E+03  0.51100000000E-03 0.  1.
         22    1    1    2    0    0 -0.71970621952E+02 -0.42090734328E+02 -0.10619742603E+03  0.13501590142E+03  0.00000000000E+00 0.  1.
          2    1    1    2  501    0 -0.23032303733E+03 -0.95385697112E+02 -0.12169259715E+03  0.27740984292E+03  0.25500000000E-02 0.  1.
<mgrwt>
<rscale>  0 0.34374574E+03</rscale>
<asrwt>0</asrwt>
<pdfrwt beam="1">  1       11 0.10000000E+01 0.33208617E+03</pdfrwt>
<pdfrwt beam="2">  1        2 0.53944922E-01 0.34374574E+03</pdfrwt>
<totfact> 0.11449401E+02</totfact>
</mgrwt>
</event>
<event>
 5    1  0.2675386E-003  0.2321663E+03  0.7818608E-02  0.1323848E+00
         11   -1    0    0    0    0  0.00000000000E+00  0.00000000000E+00  0.10004535346E+04  0.10004535346E+04  0.51100000000E-03 0. -1.
          2   -1    0    0  501    0 -0.00000000000E+00 -0.00000000000E+00 -0.28638937057E+03  0.28638937058E+03  0.25500000000E-02 0. -1.
         11    1    1    2    0    0  0.47320439267E+01  0.23417607745E+03  0.92742554681E+03  0.95654533211E+03  0.51100000000E-03 0. -1.
         22    1    1    2    0    0 -0.34257803966E+01 -0.28660897965E+02 -0.80635255985E+02  0.85645942993E+02  0.00000000000E+00 0. -1.
          2    1    1    2  501    0 -0.13062635302E+01 -0.20551517949E+03 -0.13272612685E+03  0.24465163004E+03  0.25500000000E-02 0. -1.
<mgrwt>
<rscale>  0 0.81862440E+02</rscale>
<asrwt>0</asrwt>
<pdfrwt beam="1">  1       11 0.10000000E+01 0.23216629E+03</pdfrwt>
<pdfrwt beam="2">  1        2 0.44079885E-01 0.81862440E+02</pdfrwt>
<totfact> 0.14162843E+02</totfact>
</mgrwt>
</event>
<event>
 5    1  0.2675386E-003  0.2296296E+02  0.7818608E-02  0.1848793E+00
         11   -1    0    0    0    0  0.00000000000E+00  0.00000000000E+00  0.10000367073E+04  0.10000367073E+04  0.51100000000E-03 0.  1.
          2   -1    0    0  501    0 -0.00000000000E+00 -0.00000000000E+00 -0.16231319041E+02  0.16231319242E+02  0.25500000000E-02 0.  1.
         11    1    1    2    0    0 -0.93374566166E+01 -0.31731182140E+02  0.37242907748E+01  0.33285527758E+02  0.51100000000E-03 0.  1.
         22    1    1    2    0    0  0.44289128287E+00  0.10659894011E+02  0.20335075389E+02  0.22963988854E+02  0.00000000000E+00 0. -1.
          2    1    1    2  501    0  0.88945653338E+01  0.21071288129E+02  0.95974602213E+03  0.96001850997E+03  0.25500000000E-02 0.  1.
<mgrwt>
<rscale>  0 0.15652277E+02</rscale>
<asrwt>0</asrwt>
<pdfrwt beam="1">  1       11 0.10000000E+01 0.22962961E+02</pdfrwt>
<pdfrwt beam="2">  1        2 0.24972176E-02 0.15652277E+02</pdfrwt>
<totfact> 0.33743109E+03</totfact>
</mgrwt>
</event>
<event>
 5    1  0.2675386E-003  0.3312434E+03  0.7818608E-02  0.1070588E+00
         11   -1    0    0    0    0  0.00000000000E+00  0.00000000000E+00  0.10002690262E+04  0.10002690262E+04  0.51100000000E-03 0. -1.
          2   -1    0    0  501    0 -0.00000000000E+00 -0.00000000000E+00 -0.11916395663E+03  0.11916395666E+03  0.25500000000E-02 0. -1.
         11    1    1    2    0    0 -0.19536374348E+03  0.26376308746E+03  0.60458963670E+03  0.68794373853E+03  0.51100000000E-03 0. -1.
         22    1    1    2    0    0  0.15651943240E+01 -0.18406078873E+02  0.18040070572E+02  0.25820103001E+02  0.00000000000E+00 0. -1.
          2    1    1    2  501    0  0.19379854916E+03 -0.24535700859E+03  0.25847536234E+03  0.40566914137E+03  0.25500000000E-02 0. -1.
<mgrwt>
<rscale>  0 0.33124339E+03</rscale>
<asrwt>0</asrwt>
<pdfrwt beam="1">  1       11 0.10000000E+01 0.32823461E+03</pdfrwt>
<pdfrwt beam="2">  1        2 0.18337848E-01 0.33124339E+03</pdfrwt>
<totfact> 0.38125965E+02</totfact>
</mgrwt>
</event>
<event>
 5    1  0.2675386E-003  0.1049074E+03  0.7818608E-02  0.1270302E+00
         11   -1    0    0    0    0  0.00000000000E+00  0.00000000000E+00  0.10001756813E+04  0.10001756813E+04  0.51100000000E-03 0. -1.
          2   -1    0    0  501    0 -0.00000000000E+00 -0.00000000000E+00 -0.11851875053E+02  0.11851875327E+02  0.25500000000E-02 0. -1.
         11    1    1    2    0    0  0.11475509628E+02  0.10283811228E+03  0.34423348341E+03  0.35944965678E+03  0.51100000000E-03 0. -1.
         22    1    1    2    0    0  0.25972357914E+01 -0.14993904129E+02  0.69969464374E+02  0.71605088783E+02  0.00000000000E+00 0. -1.
          2    1    1    2  501    0 -0.14072745419E+02 -0.87844208147E+02  0.57412085842E+03  0.58097281102E+03  0.25500000000E-02 0. -1.
<mgrwt>
<rscale>  0 0.10490744E+03</rscale>
<asrwt>0</asrwt>
<pdfrwt beam="1">  1       11 0.10000000E+01 0.10347645E+03</pdfrwt>
<pdfrwt beam="2">  1        2 0.18236857E-02 0.10490744E+03</pdfrwt>
<totfact> 0.68650651E+03</totfact>
</mgrwt>
</event>
<event>
 5    1  0.2675386E-003  0.2059597E+03  0.7818608E-02  0.1144806E+00
         11   -1    0    0    0    0  0.00000000000E+00  0.00000000000E+00  0.99999170719E+03  0.99999170719E+03  0.51100000000E-03 0. -1.
          2   -1    0    0  501    0 -0.00000000000E+00 -0.00000000000E+00 -0.89489788664E+02  0.89489788700E+02  0.25500000000E-02 0. -1.
         11    1    1    2    0    0 -0.17859658282E+03 -0.80265294786E+02  0.85365153884E+03  0.87581973414E+03  0.51100000000E-03 0. -1.
         22    1    1    2    0    0  0.51384951018E+02  0.76517168571E+01 -0.95755690366E+01  0.52826636126E+02  0.00000000000E+00 0. -1.
          2    1    1    2  501    0  0.12721163180E+03  0.72613577928E+02  0.66425948729E+02  0.16083512563E+03  0.25500000000E-02 0. -1.
<mgrwt>
<rscale>  0 0.20595966E+03</rscale>
<asrwt>0</asrwt>
<pdfrwt beam="1">  1       11 0.10000000E+01 0.19580413E+03</pdfrwt>
<pdfrwt beam="2">  1        2 0.13767545E-01 0.20595966E+03</pdfrwt>
<totfact> 0.52677373E+02</totfact>
</mgrwt>
</event>
<event>
 5    1  0.2675386E-003  0.1907153E+03  0.7818608E-02  0.1157818E+00
         11   -1    0    0    0    0  0.00000000000E+00  0.00000000000E+00  0.10000691456E+04  0.10000691456E+04  0.51100000000E-03 0. -1.
          2   -1    0    0  501    0 -0.00000000000E+00 -0.00000000000E+00 -0.36203805262E+02  0.36203805351E+02  0.25500000000E-02 0. -1.
         11    1    1    2    0    0 -0.17913357245E+03  0.62402764900E+02  0.46598672331E+03  0.50311685337E+03  0.51100000000E-03 0. -1.
         22    1    1    2    0    0  0.10253631881E+02 -0.32358160534E+01  0.17600125874E+02  0.20624546130E+02  0.00000000000E+00 0. -1.
          2    1    1    2  501    0  0.16887994056E+03 -0.59166948846E+02  0.48027849115E+03  0.51253155145E+03  0.25500000000E-02 0. -1.
<mgrwt>
<rscale>  0 0.19071525E+03</rscale>
<asrwt>0</asrwt>
<pdfrwt beam="1">  1       11 0.10000000E+01 0.18969180E+03</pdfrwt>
<pdfrwt beam="2">  1        2 0.55702012E-02 0.19071525E+03</pdfrwt>
<totfact> 0.16336321E+03</totfact>
</mgrwt>
</event>
<event>
 5    1  0.2675386E-003  0.3128010E+03  0.7818608E-02  0.1079011E+00
         11   -1    0    0    0    0  0.00000000000E+00  0.00000000000E+00  0.10006437757E+04  0.10006437757E+04  0.51100000000E-03 0. -1.
          2   -1    0    0  501    0 -0.00000000000E+00 -0.00000000000E+00 -0.98558984282E+03  0.98558984282E+03  0.25500000000E-02 0. -1.
         11    1    1    2    0    0 -0.26472115547E+03  0.11280423931E+03  0.91877260705E+03  0.96277992814E+03  0.51100000000E-03 0. -1.
         22    1    1    2    0    0 -0.19888753919E+02  0.18616120549E+02  0.28805587659E+02  0.39646996824E+02  0.00000000000E+00 0.  1.
          2    1    1    2  501    0  0.28460990939E+03 -0.13142035986E+03 -0.93252426180E+03  0.98380669359E+03  0.25500000000E-02 0. -1.
<mgrwt>
<rscale>  0 0.31280095E+03</rscale>
<asrwt>0</asrwt>
<pdfrwt beam="1">  1       11 0.10000000E+01 0.27241925E+02</pdfrwt>
<pdfrwt beam="2">  1        2 0.15172682E+00 0.31280095E+03</pdfrwt>
<totfact> 0.33270410E+01</totfact>
</mgrwt>
</event>
<event>
 5    1  0.2675386E-003  0.1978716E+03  0.7818608E-02  0.1151547E+00
         11   -1    0    0    0    0  0.00000000000E+00  0.00000000000E+00  0.10000143412E+04  0.10000143412E+04  0.51100000000E-03 0.  1.
          2   -1    0    0  501    0 -0.00000000000E+00 -0.00000000000E+00 -0.80774044011E+02  0.80774044051E+02  0.25500000000E-02 0.  1.
         11    1    1    2    0    0  0.15585845361E+03  0.87982408885E+02  0.85382867601E+03  0.87238533333E+03  0.51100000000E-03 0.  1.
         22    1    1    2    0    0 -0.90197823949E+02 -0.42961444035E+02  0.79343655815E+02  0.12758036227E+03  0.00000000000E+00 0.  1.
          2    1    1    2  501    0 -0.65660629657E+02 -0.45020964850E+02 -0.13932034656E+02  0.80822689630E+02  0.25500000000E-02 0.  1.
<mgrwt>
<rscale>  0 0.19787155E+03</rscale>
<asrwt>0</asrwt>
<pdfrwt beam="1">  1       11 0.10000000E+01 0.17897699E+03</pdfrwt>
<pdfrwt beam="2">  1        2 0.12426954E-01 0.19787155E+03</pdfrwt>
<totfact> 0.59487856E+02</totfact>
</mgrwt>
</event>
<event>
 5    1  0.2675386E-003  0.3505090E+03  0.7818608E-02  0.1204051E+00
         11   -1    0    0    0    0  0.00000000000E+00  0.00000000000E+00  0.10003953159E+04  0.10003953159E+04  0.51100000000E-03 0. -1.
          2   -1    0    0  501    0 -0.00000000000E+00 -0.00000000000E+00 -0.18265269917E+03  0.18265269919E+03  0.25500000000E-02 0. -1.
         11    1    1    2    0    0 -0.37461308409E+03 -0.35655825331E+02  0.19958919486E+03  0.42596026500E+03  0.51100000000E-03 0. -1.
         22    1    1    2    0    0  0.42830129505E+02 -0.44489572388E+02  0.14216200820E+02  0.63370674688E+02  0.00000000000E+00 0. -1.
          2    1    1    2  501    0  0.33178295459E+03  0.80145397719E+02  0.60393722102E+03  0.69371707537E+03  0.25500000000E-02 0. -1.
<mgrwt>
<rscale>  0 0.14712529E+03</rscale>
<asrwt>0</asrwt>
<pdfrwt beam="1">  1       11 0.10000000E+01 0.35050905E+03</pdfrwt>
<pdfrwt beam="2">  1        2 0.28111523E-01 0.14712529E+03</pdfrwt>
<totfact> 0.23067136E+02</totfact>
</mgrwt>
</event>
<event>
 5    1  0.2675386E-003  0.2602542E+03  0.7818608E-02  0.1106991E+00
         11   -1    0    0    0    0  0.00000000000E+00  0.00000000000E+00  0.10003555482E+04  0.10003555482E+04  0.51100000000E-03 0. -1.
          2   -1    0    0  501    0 -0.00000000000E+00 -0.00000000000E+00 -0.51766875179E+03  0.51766875179E+03  0.25500000000E-02 0. -1.
         11    1    1    2    0    0 -0.61366406039E+02 -0.23976596459E+03  0.95077035512E+03  0.98245499731E+03  0.51100000000E-03 0. -1.
         22    1    1    2    0    0  0.43378137228E+02  0.42712765168E+02 -0.13600213187E+03  0.14900544611E+03  0.00000000000E+00 0. -1.
          2    1    1    2  501    0  0.17988268810E+02  0.19705319942E+03 -0.33208142679E+03  0.38656385662E+03  0.25500000000E-02 0. -1.
<mgrwt>
<rscale>  0 0.26025422E+03</rscale>
<asrwt>0</asrwt>
<pdfrwt beam="1">  1       11 0.10000000E+01 0.24749455E+03</pdfrwt>
<pdfrwt beam="2">  1        2 0.79669660E-01 0.26025422E+03</pdfrwt>
<totfact> 0.74577448E+01</totfact>
</mgrwt>
</event>
<event>
 5    1  0.2675386E-003  0.5937626E+02  0.7818608E-02  0.1502698E+00
         11   -1    0    0    0    0  0.00000000000E+00  0.00000000000E+00  0.10004876703E+04  0.10004876703E+04  0.51100000000E-03 0. -1.
          2   -1    0    0  501    0 -0.00000000000E+00 -0.00000000000E+00 -0.76273459854E+01  0.76273464117E+01  0.25500000000E-02 0. -1.
         11    1    1    2    0    0  0.35503421829E+02  0.61952972800E+02  0.40218980920E+03  0.40847926070E+03  0.51100000000E-03 0. -1.
         22    1    1    2    0    0 -0.26992171576E+02 -0.73665997097E+01  0.61220148819E+02  0.67310851570E+02  0.00000000000E+00 0. -1.
          2    1    1    2  501    0 -0.85112502534E+01 -0.54586373091E+02  0.52945036631E+03  0.53232490445E+03  0.25500000000E-02 0. -1.
<mgrwt>
<rscale>  0 0.40759151E+02</rscale>
<asrwt>0</asrwt>
<pdfrwt beam="1">  1       11 0.10000000E+01 0.59376260E+02</pdfrwt>
<pdfrwt beam="2">  1        2 0.11740101E-02 0.40759151E+02</pdfrwt>
<totfact> 0.10716937E+04</totfact>
</mgrwt>
</event>
<event>
 5    1  0.2675386E-003  0.2379371E+03  0.7818608E-02  0.1161411E+00
         11   -1    0    0    0    0  0.00000000000E+00  0.00000000000E+00  0.10005229216E+04  0.10005229216E+04  0.51100000000E-03 0.  1.
          2   -1    0    0  501    0 -0.00000000000E+00 -0.00000000000E+00 -0.18401394967E+04  0.18401394967E+04  0.25500000000E-02 0.  1.
         11    1    1    2    0    0  0.66827468825E+01 -0.23820671914E+03  0.96126588582E+03  0.99036316742E+03  0.51100000000E-03 0.  1.
         22    1    1    2    0    0  0.14077247931E+03  0.40918985737E+02 -0.36318503152E+03  0.39165625419E+03  0.00000000000E+00 0. -1.
          2    1    1    2  501    0 -0.14745522620E+03  0.19728773340E+03 -0.14376974294E+04  0.14586429968E+04  0.25500000000E-02 0.  1.
<mgrwt>
<rscale>  0 0.18676543E+03</rscale>
<asrwt>0</asrwt>
<pdfrwt beam="1">  1       11 0.10000000E+01 0.23793706E+03</pdfrwt>
<pdfrwt beam="2">  1        2 0.28324641E+00 0.18676543E+03</pdfrwt>
<totfact> 0.11683427E+01</totfact>
</mgrwt>
</event>
<event>
 5    1  0.2675386E-003  0.1127602E+03  0.7818608E-02  0.1255542E+00
         11   -1    0    0    0    0  0.00000000000E+00  0.00000000000E+00  0.99997252425E+03  0.99997252425E+03  0.51100000000E-03 0.  1.
         -2   -1    0    0    0  501 -0.00000000000E+00 -0.00000000000E+00 -0.22404749601E+02  0.22404749746E+02  0.25500000000E-02 0.  1.
         11    1    1    2    0    0 -0.15067567650E+02  0.13792344228E+03  0.55191167194E+03  0.56908382612E+03  0.51100000000E-03 0.  1.
         22    1    1    2    0    0 -0.13488233434E+02 -0.39037187934E+02  0.21386366145E+03  0.21781528911E+03  0.00000000000E+00 0. -1.
         -2    1    1    2    0  501  0.28555801084E+02 -0.98886254346E+02  0.21179244126E+03  0.23547815877E+03  0.25500000000E-02 0.  1.
<mgrwt>
<rscale>  0 0.11276020E+03</rscale>
<asrwt>0</asrwt>
<pdfrwt beam="1">  1       11 0.10000000E+01 0.41301749E+02</pdfrwt>
<pdfrwt beam="2">  1       -2 0.34467898E-02 0.11276020E+03</pdfrwt>
<totfact> 0.25212256E+03</totfact>
</mgrwt>
</event>
<event>
 5    1  0.2675386E-003  0.1800873E+03  0.7818608E-02  0.1167719E+00
         11   -1    0    0    0    0  0.00000000000E+00  0.00000000000E+00  0.10004409358E+04  0.10004409358E+04  0.51100000000E-03 0. -1.
          2   -1    0    0  501    0 -0.00000000000E+00 -0.00000000000E+00 -0.16768391072E+03  0.16768391074E+03  0.25500000000E-02 0. -1.
         11    1    1    2    0    0 -0.16745590124E+03  0.62944942168E+01  0.94246858232E+03  0.95725029547E+03  0.51100000000E-03 0. -1.
         22    1    1    2    0    0  0.14466556366E+03 -0.27158199143E+02 -0.10184147613E+03  0.17898988616E+03  0.00000000000E+00 0. -1.
          2    1    1    2  501    0  0.22790337584E+02  0.20863704926E+02 -0.78700811341E+01  0.31884664872E+02  0.25500000000E-02 0. -1.
<mgrwt>
<rscale>  0 0.18008734E+03</rscale>
<asrwt>0</asrwt>
<pdfrwt beam="1">  1       11 0.10000000E+01 0.16757416E+03</pdfrwt>
<pdfrwt beam="2">  1        2 0.25808899E-01 0.18008734E+03</pdfrwt>
<totfact> 0.25451396E+02</totfact>
</mgrwt>
</event>
<event>
 5    1  0.2675386E-003  0.1068379E+03  0.7818608E-02  0.1266540E+00
         11   -1    0    0    0    0  0.00000000000E+00  0.00000000000E+00  0.10002507467E+04  0.10002507467E+04  0.51100000000E-03 0.  1.
          2   -1    0    0  501    0 -0.00000000000E+00 -0.00000000000E+00 -0.11290822136E+02  0.11290822423E+02  0.25500000000E-02 0.  1.
         11    1    1    2    0    0 -0.68105246094E+02 -0.78783562696E+02  0.54951003748E+03  0.55929102942E+03  0.51100000000E-03 0.  1.
         22    1    1    2    0    0  0.93372332154E+01  0.26709606482E+02  0.12062962221E+03  0.12390356232E+03  0.00000000000E+00 0. -1.
          2    1    1    2  501    0  0.58768012878E+02  0.52073956214E+02  0.31882026491E+03  0.32834697741E+03  0.25500000000E-02 0.  1.
<mgrwt>
<rscale>  0 0.10683795E+03</rscale>
<asrwt>0</asrwt>
<pdfrwt beam="1">  1       11 0.10000000E+01 0.10414017E+03</pdfrwt>
<pdfrwt beam="2">  1        2 0.17374851E-02 0.10683795E+03</pdfrwt>
<totfact> 0.73495474E+03</totfact>
</mgrwt>
</event>
<event>
 5    1  0.2675386E-003  0.1531088E+03  0.7818608E-02  0.1512120E+00
         11   -1    0    0    0    0  0.00000000000E+00  0.00000000000E+00  0.10000254368E+04  0.10000254368E+04  0.51100000000E-03 0. -1.
          2   -1    0    0  501    0 -0.00000000000E+00 -0.00000000000E+00 -0.62334622037E+02  0.62334622089E+02  0.25500000000E-02 0. -1.
         11    1    1    2    0    0  0.87500866040E+02 -0.12620328654E+03  0.87833937976E+03  0.89166346630E+03  0.51100000000E-03 0. -1.
         22    1    1    2    0    0  0.53472866486E+01  0.86588967959E+01  0.25008769635E+01  0.10479711533E+02  0.00000000000E+00 0. -1.
          2    1    1    2  501    0 -0.92848152689E+02  0.11754438974E+03  0.56850558021E+02  0.16021688104E+03  0.25500000000E-02 0. -1.
<mgrwt>
<rscale>  0 0.39473769E+02</rscale>
<asrwt>0</asrwt>
<pdfrwt beam="1">  1       11 0.10000000E+01 0.15310884E+03</pdfrwt>
<pdfrwt beam="2">  1        2 0.95901855E-02 0.39473769E+02</pdfrwt>
<totfact> 0.73500310E+02</totfact>
</mgrwt>
</event>
<event>
 5    1  0.2675386E-003  0.5162844E+02  0.7818608E-02  0.1467247E+00
         11   -1    0    0    0    0  0.00000000000E+00  0.00000000000E+00  0.10002585029E+04  0.10002585029E+04  0.51100000000E-03 0. -1.
          2   -1    0    0  501    0 -0.00000000000E+00 -0.00000000000E+00 -0.45592912469E+02  0.45592912540E+02  0.25500000000E-02 0. -1.
         11    1    1    2    0    0 -0.83358373149E+02 -0.13827384648E+01  0.80048706877E+01  0.83753258413E+02  0.51100000000E-03 0. -1.
         22    1    1    2    0    0  0.35881167466E+02  0.20380025938E+02  0.53940458388E+02  0.67914480688E+02  0.00000000000E+00 0.  1.
          2    1    1    2  501    0  0.47477205683E+02 -0.18997287473E+02  0.89272026132E+03  0.89418367630E+03  0.25500000000E-02 0. -1.
<mgrwt>
<rscale>  0 0.46156782E+02</rscale>
<asrwt>0</asrwt>
<pdfrwt beam="1">  1       11 0.10000000E+01 0.51628436E+02</pdfrwt>
<pdfrwt beam="2">  1        2 0.70161072E-02 0.46156782E+02</pdfrwt>
<totfact> 0.10857609E+03</totfact>
</mgrwt>
</event>
<event>
 5    1  0.2675386E-003  0.1523410E+03  0.7818608E-02  0.1311056E+00
         11   -1    0    0    0    0  0.00000000000E+00  0.00000000000E+00  0.10001383711E+04  0.10001383711E+04  0.51100000000E-03 0.  1.
         -2   -1    0    0    0  501 -0.00000000000E+00 -0.00000000000E+00 -0.73629447538E+02  0.73629447582E+02  0.25500000000E-02 0. -1.
         11    1    1    2    0    0  0.84751566016E+02 -0.13931488981E+03  0.76187014532E+03  0.77912616744E+03  0.51100000000E-03 0.  1.
         22    1    1    2    0    0 -0.47345327778E+02  0.13880430383E+02 -0.31719871054E+02  0.58654894337E+02  0.00000000000E+00 0. -1.
         -2    1    1    2    0  501 -0.37406238237E+02  0.12543445943E+03  0.19635864926E+03  0.23598675687E+03  0.25500000000E-02 0. -1.
<mgrwt>
<rscale>  0 0.86696097E+02</rscale>
<asrwt>0</asrwt>
<pdfrwt beam="1">  1       11 0.10000000E+01 0.15234101E+03</pdfrwt>
<pdfrwt beam="2">  1       -2 0.11329174E-01 0.86696097E+02</pdfrwt>
<totfact> 0.40801450E+02</totfact>
</mgrwt>
</event>
<event>
 5    1  0.2675386E-003  0.1729318E+03  0.7818608E-02  0.1174825E+00
         11   -1    0    0    0    0  0.00000000000E+00  0.00000000000E+00  0.10000790261E+04  0.10000790261E+04  0.51100000000E-03 0. -1.
          2   -1    0    0  501    0 -0.00000000000E+00 -0.00000000000E+00 -0.20327299866E+03  0.20327299868E+03  0.25500000000E-02 0. -1.
         11    1    1    2    0    0  0.10140819611E+03 -0.13171273559E+03  0.95477105480E+03  0.96913344491E+03  0.51100000000E-03 0. -1.
         22    1    1    2    0    0 -0.66276592085E+02  0.56024861679E+02 -0.59857806917E+02  0.10542451723E+03  0.00000000000E+00 0. -1.
          2    1    1    2  501    0 -0.35131604025E+02  0.75687873913E+02 -0.98107220453E+02  0.12879406264E+03  0.25500000000E-02 0. -1.
<mgrwt>
<rscale>  0 0.17293176E+03</rscale>
<asrwt>0</asrwt>
<pdfrwt beam="1">  1       11 0.10000000E+01 0.16622836E+03</pdfrwt>
<pdfrwt beam="2">  1        2 0.31275239E-01 0.17293176E+03</pdfrwt>
<totfact> 0.20598305E+02</totfact>
</mgrwt>
</event>
<event>
 5    1  0.2675386E-003  0.1684488E+03  0.7818608E-02  0.1179475E+00
         11   -1    0    0    0    0  0.00000000000E+00  0.00000000000E+00  0.99998756517E+03  0.99998756517E+03  0.51100000000E-03 0.  1.
          2   -1    0    0  501    0 -0.00000000000E+00 -0.00000000000E+00 -0.69654387387E+02  0.69654387433E+02  0.25500000000E-02 0.  1.
         11    1    1    2    0    0 -0.12903962108E+03  0.10414462432E+03  0.49797943235E+02  0.17313913981E+03  0.51100000000E-03 0.  1.
         22    1    1    2    0    0  0.11750419365E+02 -0.90041730668E+01  0.43441458031E+02  0.45894528691E+02  0.00000000000E+00 0.  1.
          2    1    1    2  501    0  0.11728920171E+03 -0.95140451251E+02  0.83709377652E+03  0.85060828411E+03  0.25500000000E-02 0.  1.
<mgrwt>
<rscale>  0 0.16844879E+03</rscale>
<asrwt>0</asrwt>
<pdfrwt beam="1">  1       11 0.10000000E+01 0.16582326E+03</pdfrwt>
<pdfrwt beam="2">  1        2 0.10715926E-01 0.16844879E+03</pdfrwt>
<totfact> 0.70701670E+02</totfact>
</mgrwt>
</event>
<event>
 5    1  0.2675386E-003  0.2130882E+03  0.7818608E-02  0.1333981E+00
         11   -1    0    0    0    0  0.00000000000E+00  0.00000000000E+00  0.10004712303E+04  0.10004712303E+04  0.51100000000E-03 0. -1.
          2   -1    0    0  501    0 -0.00000000000E+00 -0.00000000000E+00 -0.11869668383E+04  0.11869668383E+04  0.25500000000E-02 0. -1.
         11    1    1    2    0    0 -0.13953359006E+03 -0.16195811479E+03  0.97534214992E+03  0.99849504912E+03  0.51100000000E-03 0. -1.
         22    1    1    2    0    0  0.15179637852E+03  0.84636252325E+02 -0.82897138447E+03  0.84699409207E+03  0.00000000000E+00 0. -1.
          2    1    1    2  501    0 -0.12262788462E+02  0.77321862461E+02 -0.33286637344E+03  0.34194892742E+03  0.25500000000E-02 0. -1.
<mgrwt>
<rscale>  0 0.78288226E+02</rscale>
<asrwt>0</asrwt>
<pdfrwt beam="1">  1       11 0.10000000E+01 0.21308821E+03</pdfrwt>
<pdfrwt beam="2">  1        2 0.18269633E+00 0.78288226E+02</pdfrwt>
<totfact> 0.27431728E+01</totfact>
</mgrwt>
</event>
<event>
 5    1  0.2675386E-003  0.5311389E+03  0.7818608E-02  0.1005956E+00
         11   -1    0    0    0    0  0.00000000000E+00  0.00000000000E+00  0.10000515056E+04  0.10000515056E+04  0.51100000000E-03 0. -1.
          2   -1    0    0  501    0 -0.00000000000E+00 -0.00000000000E+00 -0.87098574090E+03  0.87098574091E+03  0.25500000000E-02 0. -1.
         11    1    1    2    0    0 -0.42955802623E+03 -0.30187761524E+03  0.83576622767E+03  0.98699310018E+03  0.51100000000E-03 0. -1.
         22    1    1    2    0    0  0.59686488249E+02  0.43705308467E+02 -0.15240446137E+03  0.16941000771E+03  0.00000000000E+00 0. -1.
          2    1    1    2  501    0  0.36987153798E+03  0.25817230677E+03 -0.55429600164E+03  0.71463413858E+03  0.25500000000E-02 0. -1.
<mgrwt>
<rscale>  0 0.53113888E+03</rscale>
<asrwt>0</asrwt>
<pdfrwt beam="1">  1       11 0.10000000E+01 0.52502399E+03</pdfrwt>
<pdfrwt beam="2">  1        2 0.13400470E+00 0.53113888E+03</pdfrwt>
<totfact> 0.38627196E+01</totfact>
</mgrwt>
</event>
<event>
 5    1  0.2675386E-003  0.2163448E+03  0.7818608E-02  0.1422822E+00
         11   -1    0    0    0    0  0.00000000000E+00  0.00000000000E+00  0.10002671440E+04  0.10002671440E+04  0.51100000000E-03 0.  1.
          2   -1    0    0  501    0 -0.00000000000E+00 -0.00000000000E+00 -0.54082685474E+03  0.54082685474E+03  0.25500000000E-02 0.  1.
         11    1    1    2    0    0  0.21434413051E+03  0.31478898490E+02  0.96428577886E+03  0.98832251348E+03  0.51100000000E-03 0.  1.
         22    1    1    2    0    0 -0.12439595970E+02 -0.57235285829E+01 -0.80199696787E+01  0.15868907996E+02  0.00000000000E+00 0. -1.
          2    1    1    2  501    0 -0.20190453454E+03 -0.25755369907E+02 -0.49682551996E+03  0.53690257723E+03  0.25500000000E-02 0.  1.
<mgrwt>
<rscale>  0 0.54428311E+02</rscale>
<asrwt>0</asrwt>
<pdfrwt beam="1">  1       11 0.10000000E+01 0.21634476E+03</pdfrwt>
<pdfrwt beam="2">  1        2 0.83226357E-01 0.54428311E+02</pdfrwt>
<totfact> 0.72970115E+01</totfact>
</mgrwt>
</event>
<event>
 5    1  0.2675386E-003  0.1468573E+03  0.7818608E-02  0.1438224E+00
         11   -1    0    0    0    0  0.00000000000E+00  0.00000000000E+00  0.10000595111E+04  0.10000595111E+04  0.51100000000E-03 0.  1.
          2   -1    0    0  501    0 -0.00000000000E+00 -0.00000000000E+00 -0.36587543047E+02  0.36587543135E+02  0.25500000000E-02 0.  1.
         11    1    1    2    0    0 -0.14157956300E+03  0.48262832613E+02  0.71232406457E+03  0.72785963388E+03  0.51100000000E-03 0.  1.
         22    1    1    2    0    0  0.13802886490E+02  0.11476533843E+02 -0.29243133416E+01  0.18187416337E+02  0.00000000000E+00 0.  1.
          2    1    1    2  501    0  0.12777667651E+03 -0.59739366456E+02  0.25407221684E+03  0.29060000403E+03  0.25500000000E-02 0.  1.
<mgrwt>
<rscale>  0 0.51343967E+02</rscale>
<asrwt>0</asrwt>
<pdfrwt beam="1">  1       11 0.10000000E+01 0.14685729E+03</pdfrwt>
<pdfrwt beam="2">  1        2 0.56291876E-02 0.51343967E+02</pdfrwt>
<totfact> 0.14416005E+03</totfact>
</mgrwt>
</event>
<event>
 5    1  0.2675386E-003  0.1353109E+03  0.7818608E-02  0.1390347E+00
         11   -1    0    0    0    0  0.00000000000E+00  0.00000000000E+00  0.10000499230E+04  0.10000499230E+04  0.51100000000E-03 0. -1.
          2   -1    0    0  501    0 -0.00000000000E+00 -0.00000000000E+00 -0.39900464450E+02  0.39900464532E+02  0.25500000000E-02 0. -1.
         11    1    1    2    0    0 -0.14505253904E+03  0.28299924290E+02  0.77294004335E+03  0.78694182467E+03  0.51100000000E-03 0. -1.
         22    1    1    2    0    0  0.90007519018E+02 -0.16047651395E+00  0.51061779416E+02  0.10348277417E+03  0.00000000000E+00 0. -1.
          2    1    1    2  501    0  0.55045020022E+02 -0.28139447776E+02  0.13614763582E+03  0.14952578874E+03  0.25500000000E-02 0. -1.
<mgrwt>
<rscale>  0 0.61820569E+02</rscale>
<asrwt>0</asrwt>
<pdfrwt beam="1">  1       11 0.10000000E+01 0.13531088E+03</pdfrwt>
<pdfrwt beam="2">  1        2 0.61388393E-02 0.61820569E+02</pdfrwt>
<totfact> 0.13164392E+03</totfact>
</mgrwt>
</event>
<event>
 5    1  0.2675386E-003  0.1788013E+03  0.7818608E-02  0.1168968E+00
         11   -1    0    0    0    0  0.00000000000E+00  0.00000000000E+00  0.10001152013E+04  0.10001152013E+04  0.51100000000E-03 0. -1.
          2   -1    0    0  501    0 -0.00000000000E+00 -0.00000000000E+00 -0.22574361762E+03  0.22574361764E+03  0.25500000000E-02 0. -1.
         11    1    1    2    0    0  0.15099383741E+03 -0.92871940776E+02  0.95522851156E+03  0.97153787657E+03  0.51100000000E-03 0. -1.
         22    1    1    2    0    0 -0.13189683462E+02  0.14311948257E+01 -0.16313502625E+02  0.21027278387E+02  0.00000000000E+00 0. -1.
          2    1    1    2  501    0 -0.13780415394E+03  0.91440745950E+02 -0.16454342524E+03  0.23329366399E+03  0.25500000000E-02 0. -1.
<mgrwt>
<rscale>  0 0.17880132E+03</rscale>
<asrwt>0</asrwt>
<pdfrwt beam="1">  1       11 0.10000000E+01 0.17726911E+03</pdfrwt>
<pdfrwt beam="2">  1        2 0.34733787E-01 0.17880132E+03</pdfrwt>
<totfact> 0.18393766E+02</totfact>
</mgrwt>
</event>
<event>
 5    1  0.2675386E-003  0.2866328E+03  0.7818608E-02  0.1092120E+00
         11   -1    0    0    0    0  0.00000000000E+00  0.00000000000E+00  0.10001065449E+04  0.10001065449E+04  0.51100000000E-03 0.  1.
          2   -1    0    0  501    0 -0.00000000000E+00 -0.00000000000E+00 -0.18863357372E+03  0.18863357374E+03  0.25500000000E-02 0.  1.
         11    1    1    2    0    0  0.17309034815E+03  0.20443361315E+03  0.85756321919E+03  0.89842531449E+03  0.51100000000E-03 0.  1.
         22    1    1    2    0    0 -0.38968281966E+02 -0.57673725238E+02 -0.58768892832E+02  0.91096478235E+02  0.00000000000E+00 0.  1.
          2    1    1    2  501    0 -0.13412206619E+03 -0.14675988791E+03  0.12678644823E+02  0.19921832591E+03  0.25500000000E-02 0.  1.
<mgrwt>
<rscale>  0 0.28663282E+03</rscale>
<asrwt>0</asrwt>
<pdfrwt beam="1">  1       11 0.10000000E+01 0.26786820E+03</pdfrwt>
<pdfrwt beam="2">  1        2 0.29023641E-01 0.28663282E+03</pdfrwt>
<totfact> 0.22537217E+02</totfact>
</mgrwt>
</event>
<event>
 5    1  0.2675386E-003  0.1877559E+03  0.7818608E-02  0.1160501E+00
         11   -1    0    0    0    0  0.00000000000E+00  0.00000000000E+00  0.10001593257E+04  0.10001593257E+04  0.51100000000E-03 0. -1.
         -2   -1    0    0    0  501 -0.00000000000E+00 -0.00000000000E+00 -0.70190765514E+02  0.70190765560E+02  0.25500000000E-02 0.  1.
         11    1    1    2    0    0 -0.87700569626E+02  0.16110864136E+03  0.84425877351E+03  0.86395616838E+03  0.51100000000E-03 0. -1.
         22    1    1    2    0    0  0.20442043182E+02 -0.11044651563E+02  0.87305886099E+01  0.24821052256E+02  0.00000000000E+00 0.  1.
         -2    1    1    2    0  501  0.67258526444E+02 -0.15006398980E+03  0.76979198110E+02  0.18157287067E+03  0.25500000000E-02 0.  1.
<mgrwt>
<rscale>  0 0.18775592E+03</rscale>
<asrwt>0</asrwt>
<pdfrwt beam="1">  1       11 0.10000000E+01 0.18343223E+03</pdfrwt>
<pdfrwt beam="2">  1       -2 0.10800299E-01 0.18775592E+03</pdfrwt>
<totfact> 0.46027312E+02</totfact>
</mgrwt>
</event>
<event>
 5    1  0.2675386E-003  0.1925492E+03  0.7818608E-02  0.1156182E+00
         11   -1    0    0    0    0  0.00000000000E+00  0.00000000000E+00  0.10002988413E+04  0.10002988413E+04  0.51100000000E-03 0. -1.
          2   -1    0    0  501    0 -0.00000000000E+00 -0.00000000000E+00 -0.50229855846E+02  0.50229855911E+02  0.25500000000E-02 0. -1.
         11    1    1    2    0    0 -0.16221162238E+03 -0.87109166852E+02  0.75231450249E+03  0.77451773901E+03  0.51100000000E-03 0. -1.
         22    1    1    2    0    0  0.61382983539E+02  0.64251082107E+02  0.83721610573E+02  0.12208759272E+03  0.00000000000E+00 0. -1.
          2    1    1    2  501    0  0.10082863884E+03  0.22858084746E+02  0.11403287241E+03  0.15392336549E+03  0.25500000000E-02 0. -1.
<mgrwt>
<rscale>  0 0.19254925E+03</rscale>
<asrwt>0</asrwt>
<pdfrwt beam="1">  1       11 0.10000000E+01 0.18412120E+03</pdfrwt>
<pdfrwt beam="2">  1        2 0.77299793E-02 0.19254925E+03</pdfrwt>
<totfact> 0.10710864E+03</totfact>
</mgrwt>
</event>
<event>
 5    1  0.2675386E-003  0.1291420E+03  0.7818608E-02  0.1458689E+00
         11   -1    0    0    0    0  0.00000000000E+00  0.00000000000E+00  0.10002933991E+04  0.10002933991E+04  0.51100000000E-03 0. -1.
         -2   -1    0    0    0  501 -0.00000000000E+00 -0.00000000000E+00 -0.29603788328E+02  0.29603788437E+02  0.25500000000E-02 0.  1.
         11    1    1    2    0    0 -0.13192459981E+03 -0.14142402139E+02  0.78224142243E+03  0.79341398434E+03  0.51100000000E-03 0. -1.
         22    1    1    2    0    0  0.13574049790E+02  0.11124877365E+02  0.51750689353E+01  0.18297515202E+02  0.00000000000E+00 0. -1.
         -2    1    1    2    0  501  0.11835055002E+03  0.30175247740E+01  0.18327311941E+03  0.21818568800E+03  0.25500000000E-02 0.  1.
<mgrwt>
<rscale>  0 0.47607749E+02</rscale>
<asrwt>0</asrwt>
<pdfrwt beam="1">  1       11 0.10000000E+01 0.12914198E+03</pdfrwt>
<pdfrwt beam="2">  1       -2 0.45557651E-02 0.47607749E+02</pdfrwt>
<totfact> 0.15219228E+03</totfact>
</mgrwt>
</event>
<event>
 5    1  0.2675386E-003  0.9817626E+02  0.7818608E-02  0.1284178E+00
         11   -1    0    0    0    0  0.00000000000E+00  0.00000000000E+00  0.10004874769E+04  0.10004874769E+04  0.51100000000E-03 0. -1.
          2   -1    0    0  501    0 -0.00000000000E+00 -0.00000000000E+00 -0.10189409894E+02  0.10189410213E+02  0.25500000000E-02 0. -1.
         11    1    1    2    0    0 -0.90672827729E+02  0.22661412756E+02  0.32491771124E+03  0.33809262103E+03  0.51100000000E-03 0. -1.
         22    1    1    2    0    0  0.37047257840E+02  0.15149638066E+01  0.19052726200E+03  0.19410160225E+03  0.00000000000E+00 0.  1.
          2    1    1    2  501    0  0.53625569889E+02 -0.24176376563E+02  0.47485309379E+03  0.47848266387E+03  0.25500000000E-02 0. -1.
<mgrwt>
<rscale>  0 0.98176256E+02</rscale>
<asrwt>0</asrwt>
<pdfrwt beam="1">  1       11 0.10000000E+01 0.93461811E+02</pdfrwt>
<pdfrwt beam="2">  1        2 0.15683657E-02 0.98176256E+02</pdfrwt>
<totfact> 0.83532614E+03</totfact>
</mgrwt>
</event>
<event>
 5    1  0.2675386E-003  0.1160952E+03  0.7818608E-02  0.1462740E+00
         11   -1    0    0    0    0  0.00000000000E+00  0.00000000000E+00  0.10002937469E+04  0.10002937469E+04  0.51100000000E-03 0.  1.
          2   -1    0    0  501    0 -0.00000000000E+00 -0.00000000000E+00 -0.24023918452E+02  0.24023918588E+02  0.25500000000E-02 0.  1.
         11    1    1    2    0    0 -0.45656185991E+02 -0.11192078962E+03  0.58827306630E+03  0.60056302834E+03  0.51100000000E-03 0.  1.
         22    1    1    2    0    0 -0.12397595777E+01  0.11065408243E+03  0.18642047706E+03  0.21679127573E+03  0.00000000000E+00 0.  1.
          2    1    1    2  501    0  0.46895945569E+02  0.12667071920E+01  0.20157628507E+03  0.20696336141E+03  0.25500000000E-02 0.  1.
<mgrwt>
<rscale>  0 0.46913050E+02</rscale>
<asrwt>0</asrwt>
<pdfrwt beam="1">  1       11 0.10000000E+01 0.11609521E+03</pdfrwt>
<pdfrwt beam="2">  1        2 0.36970730E-02 0.46913050E+02</pdfrwt>
<totfact> 0.24338845E+03</totfact>
</mgrwt>
</event>
<event>
 5    1  0.2675386E-003  0.7325873E+02  0.7818608E-02  0.1353294E+00
         11   -1    0    0    0    0  0.00000000000E+00  0.00000000000E+00  0.10003226983E+04  0.10003226983E+04  0.51100000000E-03 0.  1.
          2   -1    0    0  501    0 -0.00000000000E+00 -0.00000000000E+00 -0.14773813166E+02  0.14773813386E+02  0.25500000000E-02 0.  1.
         11    1    1    2    0    0  0.73052720105E+02  0.54897093128E+01  0.19918177403E+03  0.21222680304E+03  0.51100000000E-03 0.  1.
         22    1    1    2    0    0 -0.31476706196E+02  0.69441770987E+02  0.36569387129E+03  0.37355715772E+03  0.00000000000E+00 0. -1.
          2    1    1    2  501    0 -0.41576013910E+02 -0.74931480299E+02  0.42067323978E+03  0.42931255088E+03  0.25500000000E-02 0.  1.
<mgrwt>
<rscale>  0 0.72038921E+02</rscale>
<asrwt>0</asrwt>
<pdfrwt beam="1">  1       11 0.10000000E+01 0.73258735E+02</pdfrwt>
<pdfrwt beam="2">  1        2 0.22736277E-02 0.72038921E+02</pdfrwt>
<totfact> 0.48589526E+03</totfact>
</mgrwt>
</event>
<event>
 5    1  0.2675386E-003  0.1084162E+03  0.7818608E-02  0.1263531E+00
         11   -1    0    0    0    0  0.00000000000E+00  0.00000000000E+00  0.10001791879E+04  0.10001791879E+04  0.51100000000E-03 0.  1.
          2   -1    0    0  501    0 -0.00000000000E+00 -0.00000000000E+00 -0.11182200648E+02  0.11182200939E+02  0.25500000000E-02 0.  1.
         11    1    1    2    0    0  0.64427076368E+02  0.80097063634E+02  0.50835945246E+03  0.51864797375E+03  0.51100000000E-03 0.  1.
         22    1    1    2    0    0 -0.94498245787E+01 -0.15555585972E+02  0.39353560604E+02  0.43358715061E+02  0.00000000000E+00 0.  1.
          2    1    1    2  501    0 -0.54977251789E+02 -0.64541477662E+02  0.44128397415E+03  0.44935469999E+03  0.25500000000E-02 0.  1.
<mgrwt>
<rscale>  0 0.10841619E+03</rscale>
<asrwt>0</asrwt>
<pdfrwt beam="1">  1       11 0.10000000E+01 0.10279294E+03</pdfrwt>
<pdfrwt beam="2">  1        2 0.17206468E-02 0.10841619E+03</pdfrwt>
<totfact> 0.74619489E+03</totfact>
</mgrwt>
</event>
<event>
 5    1  0.2675386E-003  0.1250889E+03  0.7818608E-02  0.1408916E+00
         11   -1    0    0    0    0  0.00000000000E+00  0.00000000000E+00  0.10001348184E+04  0.10001348184E+04  0.51100000000E-03 0.  1.
          2   -1    0    0  501    0 -0.00000000000E+00 -0.00000000000E+00 -0.27221559659E+02  0.27221559778E+02  0.25500000000E-02 0.  1.
         11    1    1    2    0    0  0.10988155885E+03  0.72527927339E+02  0.69507886097E+03  0.70743825186E+03  0.51100000000E-03 0.  1.
         22    1    1    2    0    0 -0.26006147793E+02  0.43816172344E+01  0.87940914055E+01  0.27800257845E+02  0.00000000000E+00 0. -1.
          2    1    1    2  501    0 -0.83875411059E+02 -0.76909544573E+02  0.26904030633E+03  0.29211786844E+03  0.25500000000E-02 0.  1.
<mgrwt>
<rscale>  0 0.57436314E+02</rscale>
<asrwt>0</asrwt>
<pdfrwt beam="1">  1       11 0.10000000E+01 0.12508892E+03</pdfrwt>
<pdfrwt beam="2">  1        2 0.41884968E-02 0.57436314E+02</pdfrwt>
<totfact> 0.21230150E+03</totfact>
</mgrwt>
</event>
<event>
 5    1  0.2675386E-003  0.1680229E+03  0.7818608E-02  0.1179926E+00
         11   -1    0    0    0    0  0.00000000000E+00  0.00000000000E+00  0.99994368307E+03  0.99994368307E+03  0.51100000000E-03 0. -1.
          2   -1    0    0  501    0 -0.00000000000E+00 -0.00000000000E+00 -0.11646358148E+03  0.11646358151E+03  0.25500000000E-02 0.  1.
         11    1    1    2    0    0  0.90434867429E+02  0.13919267827E+03  0.92788538029E+03  0.94261569363E+03  0.51100000000E-03 0. -1.
         22    1    1    2    0    0 -0.69833215866E+01 -0.28524228420E+02 -0.61600188153E+01  0.30005736438E+02  0.00000000000E+00 0.  1.
          2    1    1    2  501    0 -0.83451545843E+02 -0.11066844985E+03 -0.38245259885E+02  0.14378583451E+03  0.25500000000E-02 0.  1.
<mgrwt>
<rscale>  0 0.16802286E+03</rscale>
<asrwt>0</asrwt>
<pdfrwt beam="1">  1       11 0.10000000E+01 0.16599117E+03</pdfrwt>
<pdfrwt beam="2">  1        2 0.17916465E-01 0.16802286E+03</pdfrwt>
<totfact> 0.38366818E+02</totfact>
</mgrwt>
</event>
<event>
 5    1  0.2675386E-003  0.2154072E+03  0.7818608E-02  0.1137354E+00
         11   -1    0    0    0    0  0.00000000000E+00  0.00000000000E+00  0.10000910907E+04  0.10000910907E+04  0.51100000000E-03 0. -1.
          2   -1    0    0  501    0 -0.00000000000E+00 -0.00000000000E+00 -0.20522976129E+03  0.20522976131E+03  0.25500000000E-02 0. -1.
         11    1    1    2    0    0 -0.20520807715E+03 -0.45281865251E+02  0.92839510729E+03  0.95188144088E+03  0.51100000000E-03 0. -1.
         22    1    1    2    0    0  0.15850235196E+02 -0.24903453157E+01  0.13407358757E+01  0.16100600866E+02  0.00000000000E+00 0.  1.
          2    1    1    2  501    0  0.18935784195E+03  0.47772210567E+02 -0.13487451373E+03  0.23733881029E+03  0.25500000000E-02 0. -1.
<mgrwt>
<rscale>  0 0.21540721E+03</rscale>
<asrwt>0</asrwt>
<pdfrwt beam="1">  1       11 0.10000000E+01 0.21014472E+03</pdfrwt>
<pdfrwt beam="2">  1        2 0.31576685E-01 0.21540721E+03</pdfrwt>
<totfact> 0.20452384E+02</totfact>
</mgrwt>
</event>
<event>
 5    1  0.2675386E-003  0.2251747E+03  0.7818608E-02  0.1130083E+00
         11   -1    0    0    0    0  0.00000000000E+00  0.00000000000E+00  0.10001088758E+04  0.10001088758E+04  0.51100000000E-03 0. -1.
          2   -1    0    0  501    0 -0.00000000000E+00 -0.00000000000E+00 -0.59656381421E+02  0.59656381475E+02  0.25500000000E-02 0. -1.
         11    1    1    2    0    0 -0.14978062292E+03 -0.15674105011E+03  0.68863181180E+03  0.72195274362E+03  0.51100000000E-03 0. -1.
         22    1    1    2    0    0  0.41240595274E+02  0.82292123360E+02  0.84720602324E+02  0.12510140177E+03  0.00000000000E+00 0. -1.
          2    1    1    2  501    0  0.10854002764E+03  0.74448926754E+02  0.16710008026E+03  0.21271111190E+03  0.25500000000E-02 0. -1.
<mgrwt>
<rscale>  0 0.22517468E+03</rscale>
<asrwt>0</asrwt>
<pdfrwt beam="1">  1       11 0.10000000E+01 0.21679943E+03</pdfrwt>
<pdfrwt beam="2">  1        2 0.91789038E-02 0.22517468E+03</pdfrwt>
<totfact> 0.86965482E+02</totfact>
</mgrwt>
</event>
<event>
 5    1  0.2675386E-003  0.4691729E+03  0.7818608E-02  0.1022154E+00
         11   -1    0    0    0    0  0.00000000000E+00  0.00000000000E+00  0.10004929198E+04  0.10004929198E+04  0.51100000000E-03 0.  1.
          2   -1    0    0  501    0 -0.00000000000E+00 -0.00000000000E+00 -0.37003046167E+03  0.37003046167E+03  0.25500000000E-02 0.  1.
         11    1    1    2    0    0  0.15551677369E+03 -0.42757634439E+03  0.75823192138E+03  0.88426389940E+03  0.51100000000E-03 0.  1.
         22    1    1    2    0    0  0.38802475031E+00  0.91221154058E+02 -0.60538401677E+02  0.10948217932E+03  0.00000000000E+00 0.  1.
          2    1    1    2  501    0 -0.15590479844E+03  0.33635519033E+03 -0.67231061552E+02  0.37677730277E+03  0.25500000000E-02 0.  1.
<mgrwt>
<rscale>  0 0.46917294E+03</rscale>
<asrwt>0</asrwt>
<pdfrwt beam="1">  1       11 0.10000000E+01 0.45498022E+03</pdfrwt>
<pdfrwt beam="2">  1        2 0.56955823E-01 0.46917294E+03</pdfrwt>
<totfact> 0.10765968E+02</totfact>
</mgrwt>
</event>
<event>
 5    1  0.2675386E-003  0.7920758E+02  0.7818608E-02  0.1705424E+00
         11   -1    0    0    0    0  0.00000000000E+00  0.00000000000E+00  0.10000034930E+04  0.10000034930E+04  0.51100000000E-03 0.  1.
          2   -1    0    0  501    0 -0.00000000000E+00 -0.00000000000E+00 -0.83633039995E+01  0.83633043882E+01  0.25500000000E-02 0.  1.
         11    1    1    2    0    0 -0.42580999305E+02 -0.72036946998E+02  0.46567243362E+03  0.47313135456E+03  0.51100000000E-03 0.  1.
         22    1    1    2    0    0  0.54250958125E+02  0.53193546598E+02  0.37192336511E+03  0.37960467512E+03  0.00000000000E+00 0.  1.
          2    1    1    2  501    0 -0.11669958820E+02  0.18843400400E+02  0.15404439031E+03  0.15563076775E+03  0.25500000000E-02 0.  1.
<mgrwt>
<rscale>  0 0.22164424E+02</rscale>
<asrwt>0</asrwt>
<pdfrwt beam="1">  1       11 0.10000000E+01 0.79207579E+02</pdfrwt>
<pdfrwt beam="2">  1        2 0.12866666E-02 0.22164424E+02</pdfrwt>
<totfact> 0.84190704E+03</totfact>
</mgrwt>
</event>
<event>
 5    1  0.2675386E-003  0.2119215E+03  0.7818608E-02  0.1140053E+00
         11   -1    0    0    0    0  0.00000000000E+00  0.00000000000E+00  0.10001836580E+04  0.10001836580E+04  0.51100000000E-03 0. -1.
          2   -1    0    0  501    0 -0.00000000000E+00 -0.00000000000E+00 -0.98840689487E+02  0.98840689520E+02  0.25500000000E-02 0. -1.
         11    1    1    2    0    0 -0.19518272363E+03 -0.77885137090E+02  0.85716136126E+03  0.88254631007E+03  0.51100000000E-03 0. -1.
         22    1    1    2    0    0  0.11009227828E+02  0.37796850031E+01 -0.37891546481E+01  0.12241193122E+02  0.00000000000E+00 0.  1.
          2    1    1    2  501    0  0.18417349580E+03  0.74105452087E+02  0.47970761927E+02  0.20423684435E+03  0.25500000000E-02 0. -1.
<mgrwt>
<rscale>  0 0.21192151E+03</rscale>
<asrwt>0</asrwt>
<pdfrwt beam="1">  1       11 0.10000000E+01 0.21014850E+03</pdfrwt>
<pdfrwt beam="2">  1        2 0.15209052E-01 0.21192151E+03</pdfrwt>
<totfact> 0.46843175E+02</totfact>
</mgrwt>
</event>
<event>
 5    1  0.2675386E-003  0.8629333E+02  0.7818608E-02  0.1490197E+00
         11   -1    0    0    0    0  0.00000000000E+00  0.00000000000E+00  0.10000521806E+04  0.10000521806E+04  0.51100000000E-03 0. -1.
          2   -1    0    0  501    0 -0.00000000000E+00 -0.00000000000E+00 -0.99523721778E+01  0.99523725045E+01  0.25500000000E-02 0. -1.
         11    1    1    2    0    0 -0.69544674665E+02 -0.62142300797E+02  0.44137910013E+03  0.45112485784E+03  0.51100000000E-03 0. -1.
         22    1    1    2    0    0 -0.14511943602E+01  0.20937228603E+02  0.66846136292E+02  0.70063395892E+02  0.00000000000E+00 0.  1.
          2    1    1    2  501    0  0.70995869025E+02  0.41205072194E+02  0.48187457197E+03  0.48881629935E+03  0.25500000000E-02 0. -1.
<mgrwt>
<rscale>  0 0.42556749E+02</rscale>
<asrwt>0</asrwt>
<pdfrwt beam="1">  1       11 0.10000000E+01 0.86293328E+02</pdfrwt>
<pdfrwt beam="2">  1        2 0.15312141E-02 0.42556749E+02</pdfrwt>
<totfact> 0.75925392E+03</totfact>
</mgrwt>
</event>
<event>
 5    1  0.2675386E-003  0.1237110E+03  0.7818608E-02  0.1237098E+00
         11   -1    0    0    0    0  0.00000000000E+00  0.00000000000E+00  0.10003260161E+04  0.10003260161E+04  0.51100000000E-03 0.  1.
          2   -1    0    0  501    0 -0.00000000000E+00 -0.00000000000E+00 -0.16949756791E+02  0.16949756983E+02  0.25500000000E-02 0.  1.
         11    1    1    2    0    0 -0.54344726889E+02 -0.10788719480E+03  0.66159009054E+03  0.67252839646E+03  0.51100000000E-03 0.  1.
         22    1    1    2    0    0  0.40665357173E+02  0.51135210699E+02  0.16975704613E+03  0.18189539785E+03  0.00000000000E+00 0.  1.
          2    1    1    2  501    0  0.13679369716E+02  0.56751984097E+02  0.15202912263E+03  0.16285197877E+03  0.25500000000E-02 0.  1.
<mgrwt>
<rscale>  0 0.12371102E+03</rscale>
<asrwt>0</asrwt>
<pdfrwt beam="1">  1       11 0.10000000E+01 0.12080147E+03</pdfrwt>
<pdfrwt beam="2">  1        2 0.26085050E-02 0.12371102E+03</pdfrwt>
<totfact> 0.43126625E+03</totfact>
</mgrwt>
</event>
<event>
 5    1  0.2675386E-003  0.2801059E+03  0.7818608E-02  0.1095631E+00
         11   -1    0    0    0    0  0.00000000000E+00  0.00000000000E+00  0.10003522983E+04  0.10003522983E+04  0.51100000000E-03 0.  1.
          2   -1    0    0  501    0 -0.00000000000E+00 -0.00000000000E+00 -0.12862358033E+03  0.12862358035E+03  0.25500000000E-02 0.  1.
         11    1    1    2    0    0  0.14880555163E+03 -0.22493939861E+03  0.79360053379E+03  0.83817816273E+03  0.51100000000E-03 0.  1.
         22    1    1    2    0    0 -0.81421195141E+02  0.17691528124E+03  0.36398312294E+02  0.19812436724E+03  0.00000000000E+00 0.  1.
          2    1    1    2  501    0 -0.67384356487E+02  0.48024117366E+02  0.41729871929E+02  0.92673348734E+02  0.25500000000E-02 0.  1.
<mgrwt>
<rscale>  0 0.28010587E+03</rscale>
<asrwt>0</asrwt>
<pdfrwt beam="1">  1       11 0.10000000E+01 0.26970507E+03</pdfrwt>
<pdfrwt beam="2">  1        2 0.19795214E-01 0.28010587E+03</pdfrwt>
<totfact> 0.34727958E+02</totfact>
</mgrwt>
</event>
<event>
 5    1  0.2675386E-003  0.1930760E+03  0.7818608E-02  0.1155716E+00
         11   -1    0    0    0    0  0.00000000000E+00  0.00000000000E+00  0.10003881363E+04  0.10003881363E+04  0.51100000000E-03 0. -1.
          2   -1    0    0  501    0 -0.00000000000E+00 -0.00000000000E+00 -0.61514687410E+02  0.61514687463E+02  0.25500000000E-02 0. -1.
         11    1    1    2    0    0  0.10362413843E+03  0.15510096337E+03  0.68945118393E+03  0.71423889976E+03  0.51100000000E-03 0. -1.
         22    1    1    2    0    0  0.31186399601E+02 -0.13308909643E+02  0.87023254136E+02  0.93395745922E+02  0.00000000000E+00 0.  1.
          2    1    1    2  501    0 -0.13481053803E+03 -0.14179205373E+03  0.16239901084E+03  0.25426817810E+03  0.25500000000E-02 0. -1.
<mgrwt>
<rscale>  0 0.19307600E+03</rscale>
<asrwt>0</asrwt>
<pdfrwt beam="1">  1       11 0.10000000E+01 0.33907501E+02</pdfrwt>
<pdfrwt beam="2">  1        2 0.94674710E-02 0.19307600E+03</pdfrwt>
<totfact> 0.82988058E+02</totfact>
</mgrwt>
</event>
<event>
 5    1  0.2675386E-003  0.1705576E+03  0.7818608E-02  0.1177268E+00
         11   -1    0    0    0    0  0.00000000000E+00  0.00000000000E+00  0.10000633664E+04  0.10000633664E+04  0.51100000000E-03 0.  1.
          2   -1    0    0  501    0 -0.00000000000E+00 -0.00000000000E+00 -0.35360962817E+02  0.35360962909E+02  0.25500000000E-02 0.  1.
         11    1    1    2    0    0 -0.16746926723E+03  0.70262738289E+01  0.25240034276E+03  0.30298722253E+03  0.51100000000E-03 0.  1.
         22    1    1    2    0    0  0.24756691156E+02  0.81194540870E+01  0.83739571598E+02  0.87699117117E+02  0.00000000000E+00 0.  1.
          2    1    1    2  501    0  0.14271257608E+03 -0.15145727916E+02  0.62856248920E+03  0.64473798963E+03  0.25500000000E-02 0.  1.
<mgrwt>
<rscale>  0 0.17055758E+03</rscale>
<asrwt>0</asrwt>
<pdfrwt beam="1">  1       11 0.10000000E+01 0.16761668E+03</pdfrwt>
<pdfrwt beam="2">  1        2 0.54404927E-02 0.17055758E+03</pdfrwt>
<totfact> 0.16709174E+03</totfact>
</mgrwt>
</event>
<event>
 5    1  0.2675386E-003  0.1800975E+03  0.7818608E-02  0.1167709E+00
         11   -1    0    0    0    0  0.00000000000E+00  0.00000000000E+00  0.10003707462E+04  0.10003707462E+04  0.51100000000E-03 0.  1.
          2   -1    0    0  501    0 -0.00000000000E+00 -0.00000000000E+00 -0.43951787831E+02  0.43951787905E+02  0.25500000000E-02 0.  1.
         11    1    1    2    0    0 -0.65575408410E+02  0.16257638453E+03  0.19640097832E+03  0.26325759112E+03  0.51100000000E-03 0.  1.
         22    1    1    2    0    0  0.69642670411E+01 -0.98467372187E+01  0.21560532924E+02  0.24704571019E+02  0.00000000000E+00 0.  1.
          2    1    1    2  501    0  0.58611141369E+02 -0.15272964732E+03  0.73845744711E+03  0.75636037195E+03  0.25500000000E-02 0.  1.
<mgrwt>
<rscale>  0 0.18009752E+03</rscale>
<asrwt>0</asrwt>
<pdfrwt beam="1">  1       11 0.10000000E+01 0.17530330E+03</pdfrwt>
<pdfrwt beam="2">  1        2 0.67643202E-02 0.18009752E+03</pdfrwt>
<totfact> 0.12649217E+03</totfact>
</mgrwt>
</event>
<event>
 5    1  0.2675386E-003  0.9025443E+02  0.7818608E-02  0.1353767E+00
         11   -1    0    0    0    0  0.00000000000E+00  0.00000000000E+00  0.10001908421E+04  0.10001908421E+04  0.51100000000E-03 0. -1.
          2   -1    0    0  501    0 -0.00000000000E+00 -0.00000000000E+00 -0.29251367898E+02  0.29251368009E+02  0.25500000000E-02 0. -1.
         11    1    1    2    0    0  0.74566771265E+02  0.99782503478E+02  0.65253383688E+03  0.66431706259E+03  0.51100000000E-03 0. -1.
         22    1    1    2    0    0 -0.39262437217E+02 -0.41691800670E+02  0.22530643209E+02  0.61541653396E+02  0.00000000000E+00 0. -1.
          2    1    1    2  501    0 -0.35304334048E+02 -0.58090702807E+02  0.29587499414E+03  0.30358349415E+03  0.25500000000E-02 0. -1.
<mgrwt>
<rscale>  0 0.71894254E+02</rscale>
<asrwt>0</asrwt>
<pdfrwt beam="1">  1       11 0.10000000E+01 0.90254430E+02</pdfrwt>
<pdfrwt beam="2">  1        2 0.45010692E-02 0.71894254E+02</pdfrwt>
<totfact> 0.19818749E+03</totfact>
</mgrwt>
</event>
<event>
 5    1  0.2675386E-003  0.2232113E+03  0.7818608E-02  0.1131511E+00
         11   -1    0    0    0    0  0.00000000000E+00  0.00000000000E+00  0.10001696787E+04  0.10001696787E+04  0.51100000000E-03 0. -1.
          2   -1    0    0  501    0 -0.00000000000E+00 -0.00000000000E+00 -0.24322508018E+03  0.24322508019E+03  0.25500000000E-02 0. -1.
         11    1    1    2    0    0  0.20454943833E+03 -0.83311666600E+02  0.93320244527E+03  0.95898285197E+03  0.51100000000E-03 0. -1.
         22    1    1    2    0    0 -0.82346287547E+01  0.99846571268E+01 -0.16097242244E+02  0.20654871012E+02  0.00000000000E+00 0. -1.
          2    1    1    2  501    0 -0.19631480957E+03  0.73327009474E+02 -0.16016060448E+03  0.26375703594E+03  0.25500000000E-02 0. -1.
<mgrwt>
<rscale>  0 0.22321134E+03</rscale>
<asrwt>0</asrwt>
<pdfrwt beam="1">  1       11 0.10000000E+01 0.22086491E+03</pdfrwt>
<pdfrwt beam="2">  1        2 0.37425591E-01 0.22321134E+03</pdfrwt>
<totfact> 0.17007287E+02</totfact>
</mgrwt>
</event>
<event>
 5    1  0.2675386E-003  0.1468113E+03  0.7818608E-02  0.1204447E+00
         11   -1    0    0    0    0  0.00000000000E+00  0.00000000000E+00  0.10000459299E+04  0.10000459299E+04  0.51100000000E-03 0. -1.
          2   -1    0    0  501    0 -0.00000000000E+00 -0.00000000000E+00 -0.20547356783E+02  0.20547356941E+02  0.25500000000E-02 0. -1.
         11    1    1    2    0    0  0.10790392217E+03 -0.88998578895E+02  0.48233319353E+03  0.50220445343E+03  0.51100000000E-03 0. -1.
         22    1    1    2    0    0 -0.93957815682E+00  0.17179347739E+02  0.43358496055E+02  0.46647314778E+02  0.00000000000E+00 0. -1.
          2    1    1    2  501    0 -0.10696434401E+03  0.71819231156E+02  0.45380688355E+03  0.47174151865E+03  0.25500000000E-02 0. -1.
<mgrwt>
<rscale>  0 0.14681133E+03</rscale>
<asrwt>0</asrwt>
<pdfrwt beam="1">  1       11 0.10000000E+01 0.13987138E+03</pdfrwt>
<pdfrwt beam="2">  1        2 0.31612769E-02 0.14681133E+03</pdfrwt>
<totfact> 0.33890886E+03</totfact>
</mgrwt>
</event>
<event>
 5    1  0.2675386E-003  0.1525578E+03  0.7818608E-02  0.1197365E+00
         11   -1    0    0    0    0  0.00000000000E+00  0.00000000000E+00  0.10002417689E+04  0.10002417689E+04  0.51100000000E-03 0. -1.
          2   -1    0    0  501    0 -0.00000000000E+00 -0.00000000000E+00 -0.24752120036E+02  0.24752120167E+02  0.25500000000E-02 0. -1.
         11    1    1    2    0    0 -0.12132030390E+03  0.90339005253E+02  0.61937260658E+03  0.63757523304E+03  0.51100000000E-03 0. -1.
         22    1    1    2    0    0  0.11347592870E+02 -0.29870343864E+01  0.20872322703E+02  0.23944604682E+02  0.00000000000E+00 0. -1.
          2    1    1    2  501    0  0.10997271103E+03 -0.87351970867E+02  0.33524471962E+03  0.36347405137E+03  0.25500000000E-02 0. -1.
<mgrwt>
<rscale>  0 0.15255775E+03</rscale>
<asrwt>0</asrwt>
<pdfrwt beam="1">  1       11 0.10000000E+01 0.15126054E+03</pdfrwt>
<pdfrwt beam="2">  1        2 0.38089390E-02 0.15255775E+03</pdfrwt>
<totfact> 0.26505224E+03</totfact>
</mgrwt>
</event>
<event>
 5    1  0.2885166E-003  0.1562055E+03  0.7818608E-02  0.1193049E+00
         11   -1    0    0    0    0  0.00000000000E+00  0.00000000000E+00  0.10000242779E+04  0.10000242779E+04  0.51100000000E-03 0. -1.
         -2   -1    0    0    0  501 -0.00000000000E+00 -0.00000000000E+00 -0.86861504276E+02  0.86861504313E+02  0.25500000000E-02 0.  1.
         11    1    1    2    0    0 -0.68539038519E+02  0.13760484124E+03  0.91782546884E+03  0.93061070453E+03  0.51100000000E-03 0. -1.
         22    1    1    2    0    0  0.94767441662E+01 -0.47350178128E+01 -0.23494926400E+01  0.10851229854E+02  0.00000000000E+00 0.  1.
         -2    1    1    2    0  501  0.59062294353E+02 -0.13286982343E+03 -0.23132026153E+01  0.14542384779E+03  0.25500000000E-02 0.  1.
<mgrwt>
<rscale>  0 0.15620550E+03</rscale>
<asrwt>0</asrwt>
<pdfrwt beam="1">  1       11 0.10000000E+01 0.15372928E+03</pdfrwt>
<pdfrwt beam="2">  1       -2 0.13363632E-01 0.15620550E+03</pdfrwt>
<totfact> 0.32395648E+02</totfact>
</mgrwt>
</event>
<event>
 5    1  0.2675386E-003  0.1793886E+03  0.7818608E-02  0.1270637E+00
         11   -1    0    0    0    0  0.00000000000E+00  0.00000000000E+00  0.99966279751E+03  0.99966279751E+03  0.51100000000E-03 0. -1.
          2   -1    0    0  501    0 -0.00000000000E+00 -0.00000000000E+00 -0.12465914567E+04  0.12465914567E+04  0.25500000000E-02 0.  1.
         11    1    1    2    0    0  0.17527966634E+03 -0.47288942882E+02  0.97721791793E+03  0.99393866243E+03  0.51100000000E-03 0. -1.
         22    1    1    2    0    0 -0.11201006566E+03 -0.36179384489E+02 -0.30020720152E+03  0.32245862761E+03  0.00000000000E+00 0. -1.
          2    1    1    2  501    0 -0.63269600681E+02  0.83468327371E+02 -0.92393937555E+03  0.92985696413E+03  0.25500000000E-02 0.  1.
<mgrwt>
<rscale>  0 0.10473779E+03</rscale>
<asrwt>0</asrwt>
<pdfrwt beam="1">  1       11 0.10000000E+01 0.17938859E+03</pdfrwt>
<pdfrwt beam="2">  1        2 0.19171863E+00 0.10473779E+03</pdfrwt>
<totfact> 0.25025085E+01</totfact>
</mgrwt>
</event>
<event>
 5    1  0.2675386E-003  0.1629991E+03  0.7818608E-02  0.1185352E+00
         11   -1    0    0    0    0  0.00000000000E+00  0.00000000000E+00  0.10002191003E+04  0.10002191003E+04  0.51100000000E-03 0. -1.
         -2   -1    0    0    0  501 -0.00000000000E+00 -0.00000000000E+00 -0.10339182383E+03  0.10339182386E+03  0.25500000000E-02 0.  1.
         11    1    1    2    0    0  0.15143796956E+03  0.46998490219E+02  0.92474290155E+03  0.93823864271E+03  0.51100000000E-03 0. -1.
         22    1    1    2    0    0 -0.94628000603E+02 -0.34238978629E+02 -0.35380952607E+02  0.10667041747E+03  0.00000000000E+00 0.  1.
         -2    1    1    2    0  501 -0.56809968959E+02 -0.12759511590E+02  0.74653274913E+01  0.58701863941E+02  0.25500000000E-02 0.  1.
<mgrwt>
<rscale>  0 0.16299911E+03</rscale>
<asrwt>0</asrwt>
<pdfrwt beam="1">  1       11 0.10000000E+01 0.15856329E+03</pdfrwt>
<pdfrwt beam="2">  1       -2 0.15909919E-01 0.16299911E+03</pdfrwt>
<totfact> 0.24402879E+02</totfact>
</mgrwt>
</event>
<event>
 5    1  0.2675386E-003  0.1943841E+03  0.7818608E-02  0.1154566E+00
         11   -1    0    0    0    0  0.00000000000E+00  0.00000000000E+00  0.10002674439E+04  0.10002674439E+04  0.51100000000E-03 0.  1.
          2   -1    0    0  501    0 -0.00000000000E+00 -0.00000000000E+00 -0.32595273121E+03  0.32595273122E+03  0.25500000000E-02 0. -1.
         11    1    1    2    0    0 -0.18670185561E+03 -0.17946583734E+02  0.96139541854E+03  0.97952070604E+03  0.51100000000E-03 0.  1.
         22    1    1    2    0    0  0.84814620558E+02  0.33738610271E+02 -0.13549846468E+03  0.16337578650E+03  0.00000000000E+00 0. -1.
          2    1    1    2  501    0  0.10188723505E+03 -0.15792026537E+02 -0.15158224115E+03  0.18332368261E+03  0.25500000000E-02 0. -1.
<mgrwt>
<rscale>  0 0.19438413E+03</rscale>
<asrwt>0</asrwt>
<pdfrwt beam="1">  1       11 0.10000000E+01 0.18756242E+03</pdfrwt>
<pdfrwt beam="2">  1        2 0.50159984E-01 0.19438413E+03</pdfrwt>
<totfact> 0.12403963E+02</totfact>
</mgrwt>
</event>
<event>
 5    1  0.2675386E-003  0.4741760E+03  0.7818608E-02  0.1039407E+00
         11   -1    0    0    0    0  0.00000000000E+00  0.00000000000E+00  0.10012754534E+04  0.10012754534E+04  0.51100000000E-03 0. -1.
          2   -1    0    0  501    0 -0.00000000000E+00 -0.00000000000E+00 -0.18720558112E+04  0.18720558112E+04  0.25500000000E-02 0. -1.
         11    1    1    2    0    0  0.45024873877E+03  0.13883542698E+03  0.73856878271E+03  0.87606109909E+03  0.51100000000E-03 0. -1.
         22    1    1    2    0    0  0.11640045228E+03 -0.34015387954E+03 -0.12411065938E+04  0.12921297551E+04  0.00000000000E+00 0. -1.
          2    1    1    2  501    0 -0.56664919105E+03  0.20131845256E+03 -0.36824254672E+03  0.70514041033E+03  0.25500000000E-02 0. -1.
<mgrwt>
<rscale>  0 0.41288638E+03</rscale>
<asrwt>0</asrwt>
<pdfrwt beam="1">  1       11 0.10000000E+01 0.47417602E+03</pdfrwt>
<pdfrwt beam="2">  1        2 0.28837592E+00 0.41288638E+03</pdfrwt>
<totfact> 0.10439208E+01</totfact>
</mgrwt>
</event>
<event>
 5    1  0.2675386E-003  0.4150973E+02  0.7818608E-02  0.1497386E+00
         11   -1    0    0    0    0  0.00000000000E+00  0.00000000000E+00  0.10001836656E+04  0.10001836656E+04  0.51100000000E-03 0. -1.
          2   -1    0    0  501    0 -0.00000000000E+00 -0.00000000000E+00 -0.67770199890E+02  0.67770199938E+02  0.25500000000E-02 0. -1.
         11    1    1    2    0    0  0.33846012697E+02 -0.23763340686E+02 -0.58504895406E+02  0.71645458493E+02  0.51100000000E-03 0. -1.
         22    1    1    2    0    0  0.24110502641E+02 -0.27412307032E+01  0.92412945677E+02  0.95545712683E+02  0.00000000000E+00 0. -1.
          2    1    1    2  501    0 -0.57956515338E+02  0.26504571389E+02  0.89850541544E+03  0.90076269436E+03  0.25500000000E-02 0. -1.
<mgrwt>
<rscale>  0 0.41509730E+02</rscale>
<asrwt>0</asrwt>
<pdfrwt beam="1">  1       11 0.10000000E+01 0.24265834E+02</pdfrwt>
<pdfrwt beam="2">  1        2 0.10428099E-01 0.41509730E+02</pdfrwt>
<totfact> 0.66867114E+02</totfact>
</mgrwt>
</event>
<event>
 5    1  0.2675386E-003  0.1977589E+03  0.7818608E-02  0.1151644E+00
         11   -1    0    0    0    0  0.00000000000E+00  0.00000000000E+00  0.10001482827E+04  0.10001482827E+04  0.51100000000E-03 0. -1.
          2   -1    0    0  501    0 -0.00000000000E+00 -0.00000000000E+00 -0.51623498098E+02  0.51623498161E+02  0.25500000000E-02 0. -1.
         11    1    1    2    0    0 -0.23265066854E+02  0.27974670293E+02  0.67040531995E+02  0.76277640526E+02  0.51100000000E-03 0. -1.
         22    1    1    2    0    0  0.19907124847E+03 -0.60654932908E+02  0.28573378965E+03  0.35348575842E+03  0.00000000000E+00 0. -1.
          2    1    1    2  501    0 -0.17580618162E+03  0.32680262615E+02  0.59575046293E+03  0.62200838190E+03  0.25500000000E-02 0. -1.
<mgrwt>
<rscale>  0 0.19775891E+03</rscale>
<asrwt>0</asrwt>
<pdfrwt beam="1">  1       11 0.10000000E+01 0.36384706E+02</pdfrwt>
<pdfrwt beam="2">  1        2 0.79432541E-02 0.19775891E+03</pdfrwt>
<totfact> 0.10363087E+03</totfact>
</mgrwt>
</event>
<event>
 5    1  0.2675386E-003  0.1725831E+03  0.7818608E-02  0.1175181E+00
         11   -1    0    0    0    0  0.00000000000E+00  0.00000000000E+00  0.10002496591E+04  0.10002496591E+04  0.51100000000E-03 0.  1.
          2   -1    0    0  501    0 -0.00000000000E+00 -0.00000000000E+00 -0.39652976323E+02  0.39652976405E+02  0.25500000000E-02 0.  1.
         11    1    1    2    0    0 -0.26917008192E+02 -0.16644670252E+03  0.20792003024E+03  0.26769342368E+03  0.51100000000E-03 0.  1.
         22    1    1    2    0    0  0.45714469576E+01  0.27192519260E+02  0.72548679238E+02  0.77612125922E+02  0.00000000000E+00 0.  1.
          2    1    1    2  501    0  0.22345561234E+02  0.13925418326E+03  0.68012797326E+03  0.69459708586E+03  0.25500000000E-02 0.  1.
<mgrwt>
<rscale>  0 0.17258309E+03</rscale>
<asrwt>0</asrwt>
<pdfrwt beam="1">  1       11 0.10000000E+01 0.16860919E+03</pdfrwt>
<pdfrwt beam="2">  1        2 0.61019808E-02 0.17258309E+03</pdfrwt>
<totfact> 0.14405454E+03</totfact>
</mgrwt>
</event>
<event>
 5    1  0.3294544E-003  0.2947172E+03  0.7818608E-02  0.1087912E+00
         11   -1    0    0    0    0  0.00000000000E+00  0.00000000000E+00  0.10002353325E+04  0.10002353325E+04  0.51100000000E-03 0. -1.
          2   -1    0    0  501    0 -0.00000000000E+00 -0.00000000000E+00 -0.10236959717E+04  0.10236959717E+04  0.25500000000E-02 0. -1.
         11    1    1    2    0    0  0.27294795356E+03 -0.76284285992E+02  0.95807024333E+03  0.99910883732E+03  0.51100000000E-03 0. -1.
         22    1    1    2    0    0 -0.24375773730E+02 -0.11074418567E+02 -0.15553475016E+03  0.15782230387E+03  0.00000000000E+00 0.  1.
          2    1    1    2  501    0 -0.24857217983E+03  0.87358704559E+02 -0.82599613246E+03  0.86700016303E+03  0.25500000000E-02 0. -1.
<mgrwt>
<rscale>  0 0.29471718E+03</rscale>
<asrwt>0</asrwt>
<pdfrwt beam="1">  1       11 0.10000000E+01 0.28340762E+03</pdfrwt>
<pdfrwt beam="2">  1        2 0.15752875E+00 0.29471718E+03</pdfrwt>
<totfact> 0.31626603E+01</totfact>
</mgrwt>
</event>
<event>
 5    1  0.2675386E-003  0.9462799E+02  0.7818608E-02  0.1292016E+00
         11   -1    0    0    0    0  0.00000000000E+00  0.00000000000E+00  0.10004013884E+04  0.10004013884E+04  0.51100000000E-03 0. -1.
          2   -1    0    0  501    0 -0.00000000000E+00 -0.00000000000E+00 -0.86718691683E+01  0.86718695432E+01  0.25500000000E-02 0. -1.
         11    1    1    2    0    0 -0.65130624482E+02 -0.64095827665E+02  0.51464694187E+03  0.52269661195E+03  0.51100000000E-03 0. -1.
         22    1    1    2    0    0  0.24564878790E+01  0.12112837864E+02  0.43856382396E+02  0.45564651329E+02  0.00000000000E+00 0. -1.
          2    1    1    2  501    0  0.62674136603E+02  0.51982989801E+02  0.43322619493E+03  0.44081199463E+03  0.25500000000E-02 0. -1.
<mgrwt>
<rscale>  0 0.94627988E+02</rscale>
<asrwt>0</asrwt>
<pdfrwt beam="1">  1       11 0.10000000E+01 0.91379830E+02</pdfrwt>
<pdfrwt beam="2">  1        2 0.13346692E-02 0.94627988E+02</pdfrwt>
<totfact> 0.10353280E+04</totfact>
</mgrwt>
</event>
<event>
 5    1  0.2675386E-003  0.1305918E+03  0.7818608E-02  0.1226580E+00
         11   -1    0    0    0    0  0.00000000000E+00  0.00000000000E+00  0.99991797051E+03  0.99991797051E+03  0.51100000000E-03 0.  1.
          2   -1    0    0  501    0 -0.00000000000E+00 -0.00000000000E+00 -0.16971877238E+02  0.16971877430E+02  0.25500000000E-02 0.  1.
         11    1    1    2    0    0  0.22426450564E+02 -0.12522167639E+03  0.55864972444E+03  0.57295106993E+03  0.51100000000E-03 0.  1.
         22    1    1    2    0    0 -0.83576335521E+01  0.59080878717E+01  0.26999125763E+02  0.28874007911E+02  0.00000000000E+00 0. -1.
          2    1    1    2  501    0 -0.14068817012E+02  0.11931358852E+03  0.39729724307E+03  0.41506477009E+03  0.25500000000E-02 0.  1.
<mgrwt>
<rscale>  0 0.13059185E+03</rscale>
<asrwt>0</asrwt>
<pdfrwt beam="1">  1       11 0.10000000E+01 0.12721405E+03</pdfrwt>
<pdfrwt beam="2">  1        2 0.26108438E-02 0.13059185E+03</pdfrwt>
<totfact> 0.43330999E+03</totfact>
</mgrwt>
</event>
<event>
 5    1  0.4465926E-003  0.2467760E+03  0.7818608E-02  0.1115359E+00
         11   -1    0    0    0    0  0.00000000000E+00  0.00000000000E+00  0.10007279215E+04  0.10007279215E+04  0.51100000000E-03 0. -1.
          2   -1    0    0  501    0 -0.00000000000E+00 -0.00000000000E+00 -0.13206327489E+04  0.13206327489E+04  0.25500000000E-02 0. -1.
         11    1    1    2    0    0 -0.50054715778E+02 -0.23885323292E+03  0.97401307055E+03  0.10041204126E+04  0.51100000000E-03 0. -1.
         22    1    1    2    0    0  0.61815751977E+01  0.98142348568E+01 -0.34057049781E+02  0.35977961554E+02  0.00000000000E+00 0. -1.
          2    1    1    2  501    0  0.43873140580E+02  0.22903899807E+03 -0.12598608481E+04  0.12812622962E+04  0.25500000000E-02 0. -1.
<mgrwt>
<rscale>  0 0.24677595E+03</rscale>
<asrwt>0</asrwt>
<pdfrwt beam="1">  1       11 0.10000000E+01 0.24404168E+03</pdfrwt>
<pdfrwt beam="2">  1        2 0.20332216E+00 0.24677595E+03</pdfrwt>
<totfact> 0.21520621E+01</totfact>
</mgrwt>
</event>
<event>
 5    1  0.2675386E-003  0.7393597E+03  0.7818608E-02  0.1096771E+00
         11   -1    0    0    0    0  0.00000000000E+00  0.00000000000E+00  0.10006186123E+04  0.10006186123E+04  0.51100000000E-03 0. -1.
          2   -1    0    0  501    0 -0.00000000000E+00 -0.00000000000E+00 -0.11416581882E+04  0.11416581882E+04  0.25500000000E-02 0. -1.
         11    1    1    2    0    0 -0.59357324550E+03 -0.44814227188E+03  0.64559915864E+03  0.98486494874E+03  0.51100000000E-03 0. -1.
         22    1    1    2    0    0  0.83613251394E+02 -0.62764590418E+02 -0.23907390002E+02  0.10724799726E+03  0.00000000000E+00 0.  1.
          2    1    1    2  501    0  0.50995999411E+03  0.51090686230E+03 -0.76273134447E+03  0.10501638545E+04  0.25500000000E-02 0. -1.
<mgrwt>
<rscale>  0 0.27802804E+03</rscale>
<asrwt>0</asrwt>
<pdfrwt beam="1">  1       11 0.10000000E+01 0.73935975E+03</pdfrwt>
<pdfrwt beam="2">  1        2 0.17574837E+00 0.27802804E+03</pdfrwt>
<totfact> 0.26972316E+01</totfact>
</mgrwt>
</event>
<event>
 5    1  0.2675386E-003  0.2021509E+03  0.7818608E-02  0.1198800E+00
         11   -1    0    0    0    0  0.00000000000E+00  0.00000000000E+00  0.10004685571E+04  0.10004685571E+04  0.51100000000E-03 0. -1.
          2   -1    0    0  501    0 -0.00000000000E+00 -0.00000000000E+00 -0.74063813066E+02  0.74063813110E+02  0.25500000000E-02 0. -1.
         11    1    1    2    0    0 -0.37139222185E+02 -0.23385642543E+03  0.51617114093E+03  0.56789153566E+03  0.51100000000E-03 0. -1.
         22    1    1    2    0    0 -0.69694362656E+02  0.89385456912E+02  0.11824107874E+03  0.16379260299E+03  0.00000000000E+00 0.  1.
          2    1    1    2  501    0  0.10683358484E+03  0.14447096852E+03  0.29199252437E+03  0.34284823157E+03  0.25500000000E-02 0. -1.
<mgrwt>
<rscale>  0 0.15136960E+03</rscale>
<asrwt>0</asrwt>
<pdfrwt beam="1">  1       11 0.10000000E+01 0.20215087E+03</pdfrwt>
<pdfrwt beam="2">  1        2 0.11399771E-01 0.15136960E+03</pdfrwt>
<totfact> 0.65211023E+02</totfact>
</mgrwt>
</event>
<event>
 5    1  0.2675386E-003  0.1065675E+03  0.7818608E-02  0.1333748E+00
         11   -1    0    0    0    0  0.00000000000E+00  0.00000000000E+00  0.10001686281E+04  0.10001686281E+04  0.51100000000E-03 0. -1.
          2   -1    0    0  501    0 -0.00000000000E+00 -0.00000000000E+00 -0.43977586851E+02  0.43977586924E+02  0.25500000000E-02 0. -1.
         11    1    1    2    0    0 -0.12363143731E+03 -0.62838870378E+01  0.65392537067E+03  0.66553933763E+03  0.51100000000E-03 0. -1.
         22    1    1    2    0    0  0.42929167568E+02 -0.38448922678E+02 -0.49418472582E+01  0.57841636711E+02  0.00000000000E+00 0. -1.
          2    1    1    2  501    0  0.80702269743E+02  0.44732809716E+02  0.30720751780E+03  0.32076524065E+03  0.25500000000E-02 0. -1.
<mgrwt>
<rscale>  0 0.78367736E+02</rscale>
<asrwt>0</asrwt>
<pdfrwt beam="1">  1       11 0.10000000E+01 0.10656754E+03</pdfrwt>
<pdfrwt beam="2">  1        2 0.67669233E-02 0.78367736E+02</pdfrwt>
<totfact> 0.11893010E+03</totfact>
</mgrwt>
</event>
<event>
 5    1  0.2675386E-003  0.8918907E+03  0.7818608E-02  0.9435776E-01
         11   -1    0    0    0    0  0.00000000000E+00  0.00000000000E+00  0.10000303285E+04  0.10000303285E+04  0.51100000000E-03 0.  1.
          2   -1    0    0  501    0 -0.00000000000E+00 -0.00000000000E+00 -0.10932732496E+04  0.10932732496E+04  0.25500000000E-02 0. -1.
         11    1    1    2    0    0 -0.37084830037E+03  0.76058086914E+03  0.53611802653E+03  0.10017156576E+04  0.51100000000E-03 0.  1.
         22    1    1    2    0    0  0.92772557776E+02 -0.30497351397E+03 -0.39778464996E+03  0.50975309655E+03  0.00000000000E+00 0.  1.
          2    1    1    2  501    0  0.27807574260E+03 -0.45560735516E+03 -0.23157629765E+03  0.58183482393E+03  0.25500000000E-02 0. -1.
<mgrwt>
<rscale>  0 0.89189068E+03</rscale>
<asrwt>0</asrwt>
<pdfrwt beam="1">  1       11 0.10000000E+01 0.84617476E+03</pdfrwt>
<pdfrwt beam="2">  1        2 0.16820098E+00 0.89189068E+03</pdfrwt>
<totfact> 0.27154061E+01</totfact>
</mgrwt>
</event>
<event>
 5    1  0.2675386E-003  0.1783440E+03  0.7818608E-02  0.1534300E+00
         11   -1    0    0    0    0  0.00000000000E+00  0.00000000000E+00  0.10002669283E+04  0.10002669283E+04  0.51100000000E-03 0.  1.
          2   -1    0    0  501    0 -0.00000000000E+00 -0.00000000000E+00 -0.60393061280E+02  0.60393061333E+02  0.25500000000E-02 0.  1.
         11    1    1    2    0    0  0.17268286621E+03 -0.13099414091E+02  0.70221037866E+03  0.72324987579E+03  0.51100000000E-03 0.  1.
         22    1    1    2    0    0 -0.19713020994E+03  0.40423141699E+02  0.18576216157E+03  0.27386480374E+03  0.00000000000E+00 0.  1.
          2    1    1    2  501    0  0.24447343732E+02 -0.27323727607E+02  0.51901326742E+02  0.63545310055E+02  0.25500000000E-02 0.  1.
<mgrwt>
<rscale>  0 0.36664134E+02</rscale>
<asrwt>0</asrwt>
<pdfrwt beam="1">  1       11 0.10000000E+01 0.17834397E+03</pdfrwt>
<pdfrwt beam="2">  1        2 0.92937200E-02 0.36664134E+02</pdfrwt>
<totfact> 0.75808346E+02</totfact>
</mgrwt>
</event>
<event>
 5    1  0.2675386E-003  0.1607755E+03  0.7818608E-02  0.1187824E+00
         11   -1    0    0    0    0  0.00000000000E+00  0.00000000000E+00  0.10001344585E+04  0.10001344585E+04  0.51100000000E-03 0.  1.
          2   -1    0    0  501    0 -0.00000000000E+00 -0.00000000000E+00 -0.49409546328E+02  0.49409546394E+02  0.25500000000E-02 0.  1.
         11    1    1    2    0    0  0.88738836410E+02 -0.13178551755E+03  0.83863530176E+03  0.85355209160E+03  0.51100000000E-03 0.  1.
         22    1    1    2    0    0 -0.90376300903E+01  0.55716185927E+01  0.27764330788E+01  0.10974072719E+02  0.00000000000E+00 0. -1.
          2    1    1    2  501    0 -0.79701206320E+02  0.12621389896E+03  0.10931317729E+03  0.18501784053E+03  0.25500000000E-02 0.  1.
<mgrwt>
<rscale>  0 0.16077546E+03</rscale>
<asrwt>0</asrwt>
<pdfrwt beam="1">  1       11 0.10000000E+01 0.15887732E+03</pdfrwt>
<pdfrwt beam="2">  1        2 0.76024905E-02 0.16077546E+03</pdfrwt>
<totfact> 0.10817784E+03</totfact>
</mgrwt>
</event>
<event>
 5    1  0.2675386E-003  0.1600221E+03  0.7818608E-02  0.1188672E+00
         11   -1    0    0    0    0  0.00000000000E+00  0.00000000000E+00  0.10001171826E+04  0.10001171826E+04  0.51100000000E-03 0. -1.
          2   -1    0    0  501    0 -0.00000000000E+00 -0.00000000000E+00 -0.46484658248E+02  0.46484658318E+02  0.25500000000E-02 0. -1.
         11    1    1    2    0    0 -0.83432463851E+02 -0.13481256492E+03  0.82831018770E+03  0.84334641206E+03  0.51100000000E-03 0. -1.
         22    1    1    2    0    0  0.12378752965E+01  0.13026591560E+02  0.10847362827E+02  0.16996755668E+02  0.00000000000E+00 0. -1.
          2    1    1    2  501    0  0.82194588555E+02  0.12178597336E+03  0.11447497379E+03  0.18625867316E+03  0.25500000000E-02 0. -1.
<mgrwt>
<rscale>  0 0.16002213E+03</rscale>
<asrwt>0</asrwt>
<pdfrwt beam="1">  1       11 0.10000000E+01 0.15854149E+03</pdfrwt>
<pdfrwt beam="2">  1        2 0.71523237E-02 0.16002213E+03</pdfrwt>
<totfact> 0.11686919E+03</totfact>
</mgrwt>
</event>
<event>
 5    1  0.2675386E-003  0.1931518E+03  0.7818608E-02  0.1155649E+00
         11   -1    0    0    0    0  0.00000000000E+00  0.00000000000E+00  0.10004073625E+04  0.10004073625E+04  0.51100000000E-03 0. -1.
          2   -1    0    0  501    0 -0.00000000000E+00 -0.00000000000E+00 -0.83720877157E+03  0.83720877157E+03  0.25500000000E-02 0.  1.
         11    1    1    2    0    0 -0.12858280415E+03 -0.13396105895E+03  0.98043537728E+03  0.99786403476E+03  0.51100000000E-03 0. -1.
         22    1    1    2    0    0  0.56239587626E+02  0.90828177029E+02 -0.51718357599E+03  0.52810178965E+03  0.00000000000E+00 0.  1.
          2    1    1    2  501    0  0.72343216520E+02  0.43132881919E+02 -0.30005321034E+03  0.31165030968E+03  0.25500000000E-02 0.  1.
<mgrwt>
<rscale>  0 0.19315181E+03</rscale>
<asrwt>0</asrwt>
<pdfrwt beam="1">  1       11 0.10000000E+01 0.18568549E+03</pdfrwt>
<pdfrwt beam="2">  1        2 0.12885381E+00 0.19315181E+03</pdfrwt>
<totfact> 0.42323720E+01</totfact>
</mgrwt>
</event>
<event>
 5    1  0.2675386E-003  0.4766148E+03  0.7818608E-02  0.1020070E+00
         11   -1    0    0    0    0  0.00000000000E+00  0.00000000000E+00  0.10003398034E+04  0.10003398034E+04  0.51100000000E-03 0. -1.
          2   -1    0    0  501    0 -0.00000000000E+00 -0.00000000000E+00 -0.64340768903E+03  0.64340768904E+03  0.25500000000E-02 0. -1.
         11    1    1    2    0    0 -0.22199582820E+03 -0.89693126741E+02  0.58467967604E+03  0.63180481820E+03  0.51100000000E-03 0. -1.
         22    1    1    2    0    0  0.54861535440E+03  0.25723929519E+03 -0.22044446273E+03  0.64478416794E+03  0.00000000000E+00 0. -1.
          2    1    1    2  501    0 -0.32661952620E+03 -0.16754616845E+03 -0.73030989889E+01  0.36715850626E+03  0.25500000000E-02 0. -1.
<mgrwt>
<rscale>  0 0.47661478E+03</rscale>
<asrwt>0</asrwt>
<pdfrwt beam="1">  1       11 0.10000000E+01 0.23943058E+03</pdfrwt>
<pdfrwt beam="2">  1        2 0.99019431E-01 0.47661478E+03</pdfrwt>
<totfact> 0.57076622E+01</totfact>
</mgrwt>
</event>
<event>
 5    1  0.2675386E-003  0.1425239E+03  0.7818608E-02  0.1271746E+00
         11   -1    0    0    0    0  0.00000000000E+00  0.00000000000E+00  0.10002799647E+04  0.10002799647E+04  0.51100000000E-03 0.  1.
          2   -1    0    0  501    0 -0.00000000000E+00 -0.00000000000E+00 -0.51487788720E+02  0.51487788784E+02  0.25500000000E-02 0.  1.
         11    1    1    2    0    0  0.14886413168E+03  0.36639414840E+02  0.77757565194E+03  0.79254455453E+03  0.51100000000E-03 0.  1.
         22    1    1    2    0    0 -0.34893617891E+02 -0.67685163188E+02  0.59503262457E+02  0.96641006453E+02  0.00000000000E+00 0.  1.
          2    1    1    2  501    0 -0.11397051379E+03  0.31045748347E+02  0.11171326162E+03  0.16258219254E+03  0.25500000000E-02 0.  1.
<mgrwt>
<rscale>  0 0.10417876E+03</rscale>
<asrwt>0</asrwt>
<pdfrwt beam="1">  1       11 0.10000000E+01 0.14252386E+03</pdfrwt>
<pdfrwt beam="2">  1        2 0.79234157E-02 0.10417876E+03</pdfrwt>
<totfact> 0.99767978E+02</totfact>
</mgrwt>
</event>
<event>
 5    1  0.2675386E-003  0.1800188E+03  0.7818608E-02  0.1249629E+00
         11   -1    0    0    0    0  0.00000000000E+00  0.00000000000E+00  0.10001974684E+04  0.10001974684E+04  0.51100000000E-03 0.  1.
          2   -1    0    0  501    0 -0.00000000000E+00 -0.00000000000E+00 -0.15261678841E+03  0.15261678843E+03  0.25500000000E-02 0.  1.
         11    1    1    2    0    0  0.37227815679E+02  0.18254233028E+03  0.90827806265E+03  0.92718749543E+03  0.51100000000E-03 0.  1.
         22    1    1    2    0    0  0.35169084787E+02 -0.66140537691E+02 -0.45652496991E+02  0.87724487644E+02  0.00000000000E+00 0.  1.
          2    1    1    2  501    0 -0.72396900466E+02 -0.11640179259E+03 -0.15044885670E+02  0.13790227375E+03  0.25500000000E-02 0.  1.
<mgrwt>
<rscale>  0 0.11612546E+03</rscale>
<asrwt>0</asrwt>
<pdfrwt beam="1">  1       11 0.10000000E+01 0.18001882E+03</pdfrwt>
<pdfrwt beam="2">  1        2 0.23484142E-01 0.11612546E+03</pdfrwt>
<totfact> 0.27942303E+02</totfact>
</mgrwt>
</event>
<event>
 5    1  0.2675386E-003  0.3716400E+03  0.7818608E-02  0.1054068E+00
         11   -1    0    0    0    0  0.00000000000E+00  0.00000000000E+00  0.10004659657E+04  0.10004659657E+04  0.51100000000E-03 0. -1.
          2   -1    0    0  501    0 -0.00000000000E+00 -0.00000000000E+00 -0.13284262862E+03  0.13284262864E+03  0.25500000000E-02 0. -1.
         11    1    1    2    0    0 -0.34619438552E+03 -0.74120109535E+02  0.47836411516E+03  0.59512735601E+03  0.51100000000E-03 0. -1.
         22    1    1    2    0    0  0.32422125226E+03  0.41420707760E+02  0.31405694205E+03  0.45328452246E+03  0.00000000000E+00 0. -1.
          2    1    1    2  501    0  0.21973133260E+02  0.32699401775E+02  0.75202279837E+02  0.84896715842E+02  0.25500000000E-02 0. -1.
<mgrwt>
<rscale>  0 0.37164002E+03</rscale>
<asrwt>0</asrwt>
<pdfrwt beam="1">  1       11 0.10000000E+01 0.35404003E+03</pdfrwt>
<pdfrwt beam="2">  1        2 0.20446850E-01 0.37164002E+03</pdfrwt>
<totfact> 0.33685017E+02</totfact>
</mgrwt>
</event>
<event>
 5    1  0.2675386E-003  0.1455227E+03  0.7818608E-02  0.1352128E+00
         11   -1    0    0    0    0  0.00000000000E+00  0.00000000000E+00  0.10003887035E+04  0.10003887035E+04  0.51100000000E-03 0. -1.
          2   -1    0    0  501    0 -0.00000000000E+00 -0.00000000000E+00 -0.41517165112E+02  0.41517165190E+02  0.25500000000E-02 0. -1.
         11    1    1    2    0    0  0.25287871726E+02  0.13829934490E+03  0.69367726720E+03  0.70778127715E+03  0.51100000000E-03 0. -1.
         22    1    1    2    0    0  0.31369604570E+02  0.17696241903E+02  0.34018634735E+02  0.49542674309E+02  0.00000000000E+00 0. -1.
          2    1    1    2  501    0 -0.56657476297E+02 -0.15599558681E+03  0.23117563650E+03  0.28458191728E+03  0.25500000000E-02 0. -1.
<mgrwt>
<rscale>  0 0.72396547E+02</rscale>
<asrwt>0</asrwt>
<pdfrwt beam="1">  1       11 0.10000000E+01 0.14552269E+03</pdfrwt>
<pdfrwt beam="2">  1        2 0.63897387E-02 0.72396547E+02</pdfrwt>
<totfact> 0.12695507E+03</totfact>
</mgrwt>
</event>
<event>
 5    1  0.2675386E-003  0.2258463E+03  0.7818608E-02  0.1129598E+00
         11   -1    0    0    0    0  0.00000000000E+00  0.00000000000E+00  0.10001326737E+04  0.10001326737E+04  0.51100000000E-03 0. -1.
          2   -1    0    0  501    0 -0.00000000000E+00 -0.00000000000E+00 -0.10136192036E+03  0.10136192039E+03  0.25500000000E-02 0.  1.
         11    1    1    2    0    0  0.10348433514E+03  0.19218804014E+03  0.84032056646E+03  0.86820729368E+03  0.51100000000E-03 0. -1.
         22    1    1    2    0    0 -0.26092765128E+02 -0.10327821658E+02  0.10019571663E+02  0.29797451377E+02  0.00000000000E+00 0.  1.
          2    1    1    2  501    0 -0.77391570009E+02 -0.18186021848E+03  0.48430615251E+02  0.20348984907E+03  0.25500000000E-02 0.  1.
<mgrwt>
<rscale>  0 0.22584628E+03</rscale>
<asrwt>0</asrwt>
<pdfrwt beam="1">  1       11 0.10000000E+01 0.21827792E+03</pdfrwt>
<pdfrwt beam="2">  1        2 0.15596210E-01 0.22584628E+03</pdfrwt>
<totfact> 0.45576911E+02</totfact>
</mgrwt>
</event>
<event>
 5    1  0.2675386E-003  0.3079897E+03  0.7818608E-02  0.1081313E+00
         11   -1    0    0    0    0  0.00000000000E+00  0.00000000000E+00  0.10001376304E+04  0.10001376304E+04  0.51100000000E-03 0. -1.
          2   -1    0    0  501    0 -0.00000000000E+00 -0.00000000000E+00 -0.38920515853E+03  0.38920515854E+03  0.25500000000E-02 0. -1.
         11    1    1    2    0    0 -0.29380419020E+03 -0.69365038494E+02  0.91077512046E+03  0.95950181386E+03  0.51100000000E-03 0. -1.
         22    1    1    2    0    0  0.29036192265E+02 -0.98213763721E+01 -0.41038213020E+02  0.51222015023E+02  0.00000000000E+00 0.  1.
          2    1    1    2  501    0  0.26476799794E+03  0.79186414866E+02 -0.25880443558E+03  0.37861896005E+03  0.25500000000E-02 0. -1.
<mgrwt>
<rscale>  0 0.30798969E+03</rscale>
<asrwt>0</asrwt>
<pdfrwt beam="1">  1       11 0.10000000E+01 0.30188145E+03</pdfrwt>
<pdfrwt beam="2">  1        2 0.59885956E-01 0.30798969E+03</pdfrwt>
<totfact> 0.10218419E+02</totfact>
</mgrwt>
</event>
<event>
 5    1  0.2675386E-003  0.7280215E+02  0.7818608E-02  0.1395563E+00
         11   -1    0    0    0    0  0.00000000000E+00  0.00000000000E+00  0.10000348466E+04  0.10000348466E+04  0.51100000000E-03 0. -1.
          2   -1    0    0  501    0 -0.00000000000E+00 -0.00000000000E+00 -0.12029317729E+02  0.12029317999E+02  0.25500000000E-02 0. -1.
         11    1    1    2    0    0  0.55061228824E+02 -0.68346064507E+02  0.38182492351E+03  0.39178207676E+03  0.51100000000E-03 0. -1.
         22    1    1    2    0    0  0.54362696015E+01  0.70717862711E+02  0.31940986312E+03  0.32718989867E+03  0.00000000000E+00 0. -1.
          2    1    1    2  501    0 -0.60497498425E+02 -0.23717982036E+01  0.28677074226E+03  0.29309218920E+03  0.25500000000E-02 0. -1.
<mgrwt>
<rscale>  0 0.60543974E+02</rscale>
<asrwt>0</asrwt>
<pdfrwt beam="1">  1       11 0.10000000E+01 0.72802149E+02</pdfrwt>
<pdfrwt beam="2">  1        2 0.18507287E-02 0.60543974E+02</pdfrwt>
<totfact> 0.62405887E+03</totfact>
</mgrwt>
</event>
<event>
 5    1  0.2675386E-003  0.1531420E+03  0.7818608E-02  0.1282250E+00
         11   -1    0    0    0    0  0.00000000000E+00  0.00000000000E+00  0.10004607710E+04  0.10004607710E+04  0.51100000000E-03 0. -1.
          2   -1    0    0  501    0 -0.00000000000E+00 -0.00000000000E+00 -0.13612718946E+03  0.13612718949E+03  0.25500000000E-02 0.  1.
         11    1    1    2    0    0 -0.84033664636E+02 -0.13462180499E+03  0.92484764724E+03  0.93836445893E+03  0.51100000000E-03 0. -1.
         22    1    1    2    0    0  0.58675474734E+02  0.25802499495E+02 -0.58025087825E+02  0.86460922575E+02  0.00000000000E+00 0. -1.
          2    1    1    2  501    0  0.25358189902E+02  0.10881930550E+03 -0.24889778773E+01  0.11176257899E+03  0.25500000000E-02 0.  1.
<mgrwt>
<rscale>  0 0.99076364E+02</rscale>
<asrwt>0</asrwt>
<pdfrwt beam="1">  1       11 0.10000000E+01 0.15314197E+03</pdfrwt>
<pdfrwt beam="2">  1        2 0.20952294E-01 0.99076364E+02</pdfrwt>
<totfact> 0.31551996E+02</totfact>
</mgrwt>
</event>
<event>
 5    1  0.2675386E-003  0.6166179E+03  0.7818608E-02  0.9871517E-01
         11   -1    0    0    0    0  0.00000000000E+00  0.00000000000E+00  0.10000779818E+04  0.10000779818E+04  0.51100000000E-03 0.  1.
          2   -1    0    0  501    0 -0.00000000000E+00 -0.00000000000E+00 -0.42677373824E+03  0.42677373825E+03  0.25500000000E-02 0.  1.
         11    1    1    2    0    0 -0.53632454991E+03  0.29226145906E+03  0.53006263776E+03  0.80871947129E+03  0.51100000000E-03 0.  1.
         22    1    1    2    0    0  0.16326103167E+02  0.34615571313E+01  0.89661006263E+01  0.18945051672E+02  0.00000000000E+00 0.  1.
          2    1    1    2  501    0  0.51999844674E+03 -0.29572301619E+03  0.34275505204E+02  0.59918719711E+03  0.25500000000E-02 0.  1.
<mgrwt>
<rscale>  0 0.61661790E+03</rscale>
<asrwt>0</asrwt>
<pdfrwt beam="1">  1       11 0.10000000E+01 0.61078702E+03</pdfrwt>
<pdfrwt beam="2">  1        2 0.65662616E-01 0.61661790E+03</pdfrwt>
<totfact> 0.91616084E+01</totfact>
</mgrwt>
</event>
<event>
 5    1  0.2675386E-003  0.1299483E+03  0.7818608E-02  0.1275782E+00
         11   -1    0    0    0    0  0.00000000000E+00  0.00000000000E+00  0.10002525240E+04  0.10002525240E+04  0.51100000000E-03 0. -1.
          2   -1    0    0  501    0 -0.00000000000E+00 -0.00000000000E+00 -0.39568284646E+02  0.39568284728E+02  0.25500000000E-02 0. -1.
         11    1    1    2    0    0 -0.67662971077E+02  0.13043765652E+03  0.74073682085E+03  0.75517103867E+03  0.51100000000E-03 0. -1.
         22    1    1    2    0    0  0.49359061992E+01 -0.80189817365E+02  0.17500679038E+03  0.19256725230E+03  0.00000000000E+00 0.  1.
          2    1    1    2  501    0  0.62727064878E+02 -0.50247839159E+02  0.44940628078E+02  0.92082517704E+02  0.25500000000E-02 0. -1.
<mgrwt>
<rscale>  0 0.10217755E+03</rscale>
<asrwt>0</asrwt>
<pdfrwt beam="1">  1       11 0.10000000E+01 0.12994831E+03</pdfrwt>
<pdfrwt beam="2">  1        2 0.60889655E-02 0.10217755E+03</pdfrwt>
<totfact> 0.13886465E+03</totfact>
</mgrwt>
</event>
<event>
 5    1  0.2675386E-003  0.1893107E+03  0.7818608E-02  0.1397353E+00
         11   -1    0    0    0    0  0.00000000000E+00  0.00000000000E+00  0.10001388331E+04  0.10001388331E+04  0.51100000000E-03 0.  1.
          2   -1    0    0  501    0 -0.00000000000E+00 -0.00000000000E+00 -0.24278414116E+03  0.24278414117E+03  0.25500000000E-02 0.  1.
         11    1    1    2    0    0 -0.71676957060E+02 -0.17540428314E+03  0.94221595028E+03  0.96108019732E+03  0.51100000000E-03 0.  1.
         22    1    1    2    0    0 -0.15954764236E+02  0.10479865533E+02 -0.43856051346E+02  0.47830276218E+02  0.00000000000E+00 0. -1.
          2    1    1    2  501    0  0.87631721296E+02  0.16492441761E+03 -0.14100520698E+03  0.23401250075E+03  0.25500000000E-02 0.  1.
<mgrwt>
<rscale>  0 0.60114170E+02</rscale>
<asrwt>0</asrwt>
<pdfrwt beam="1">  1       11 0.10000000E+01 0.18931072E+03</pdfrwt>
<pdfrwt beam="2">  1        2 0.37356591E-01 0.60114170E+02</pdfrwt>
<totfact> 0.16746200E+02</totfact>
</mgrwt>
</event>
<event>
 5    1  0.2675386E-003  0.3986267E+03  0.7818608E-02  0.1224832E+00
         11   -1    0    0    0    0  0.00000000000E+00  0.00000000000E+00  0.10002952365E+04  0.10002952365E+04  0.51100000000E-03 0.  1.
          2   -1    0    0  501    0 -0.00000000000E+00 -0.00000000000E+00 -0.51681920554E+03  0.51681920555E+03  0.25500000000E-02 0.  1.
         11    1    1    2    0    0 -0.39551608239E+03  0.62047887229E+02  0.79953970416E+03  0.89417372488E+03  0.51100000000E-03 0.  1.
         22    1    1    2    0    0  0.39856082657E+03  0.69701318908E+02 -0.24877375793E+03  0.47497093487E+03  0.00000000000E+00 0.  1.
          2    1    1    2  501    0 -0.30447441826E+01 -0.13174920614E+03 -0.67289915236E+02  0.14796978233E+03  0.25500000000E-02 0.  1.
<mgrwt>
<rscale>  0 0.13178438E+03</rscale>
<asrwt>0</asrwt>
<pdfrwt beam="1">  1       11 0.10000000E+01 0.39862666E+03</pdfrwt>
<pdfrwt beam="2">  1        2 0.79534119E-01 0.13178438E+03</pdfrwt>
<totfact> 0.75576692E+01</totfact>
</mgrwt>
</event>
<event>
 5    1  0.2675386E-003  0.2095179E+03  0.7818608E-02  0.1374563E+00
         11   -1    0    0    0    0  0.00000000000E+00  0.00000000000E+00  0.10002464121E+04  0.10002464121E+04  0.51100000000E-03 0. -1.
         -2   -1    0    0    0  501 -0.00000000000E+00 -0.00000000000E+00 -0.14405308794E+03  0.14405308797E+03  0.25500000000E-02 0. -1.
         11    1    1    2    0    0 -0.10127007697E+03 -0.18128990904E+03  0.87059741611E+03  0.89502040231E+03  0.51100000000E-03 0. -1.
         22    1    1    2    0    0 -0.13278677464E+02 -0.15927936323E+02  0.24342874013E+00  0.20738410938E+02  0.00000000000E+00 0.  1.
         -2    1    1    2    0  501  0.11454875444E+03  0.19721784536E+03 -0.14647520678E+02  0.22854068684E+03  0.25500000000E-02 0. -1.
<mgrwt>
<rscale>  0 0.65914860E+02</rscale>
<asrwt>0</asrwt>
<pdfrwt beam="1">  1       11 0.10000000E+01 0.20951789E+03</pdfrwt>
<pdfrwt beam="2">  1       -2 0.22167474E-01 0.65914860E+02</pdfrwt>
<totfact> 0.13532790E+02</totfact>
</mgrwt>
</event>
<event>
 5    1  0.2675386E-003  0.2064859E+03  0.7818608E-02  0.1148961E+00
         11   -1    0    0    0    0  0.00000000000E+00  0.00000000000E+00  0.10000750195E+04  0.10000750195E+04  0.51100000000E-03 0. -1.
          2   -1    0    0  501    0 -0.00000000000E+00 -0.00000000000E+00 -0.52115868669E+02  0.52115868732E+02  0.25500000000E-02 0. -1.
         11    1    1    2    0    0  0.13443683067E+03 -0.78267908594E+02  0.15613234417E+03  0.22040062580E+03  0.51100000000E-03 0. -1.
         22    1    1    2    0    0  0.45282182391E+02 -0.11574968937E+02  0.85492451291E+02  0.97434158157E+02  0.00000000000E+00 0.  1.
          2    1    1    2  501    0 -0.17971901306E+03  0.89842877531E+02  0.70633435534E+03  0.73435610424E+03  0.25500000000E-02 0. -1.
<mgrwt>
<rscale>  0 0.20092453E+03</rscale>
<asrwt>0</asrwt>
<pdfrwt beam="1">  1       11 0.10000000E+01 0.20648585E+03</pdfrwt>
<pdfrwt beam="2">  1        2 0.80184272E-02 0.20092453E+03</pdfrwt>
<totfact> 0.10249382E+03</totfact>
</mgrwt>
</event>
<event>
 5    1  0.2675386E-003  0.2335772E+03  0.7818608E-02  0.1124147E+00
         11   -1    0    0    0    0  0.00000000000E+00  0.00000000000E+00  0.99975992882E+03  0.99975992882E+03  0.51100000000E-03 0. -1.
         -2   -1    0    0    0  501 -0.00000000000E+00 -0.00000000000E+00 -0.37744361148E+03  0.37744361149E+03  0.25500000000E-02 0.  1.
         11    1    1    2    0    0 -0.12179435829E+02  0.22368829634E+03  0.94929303391E+03  0.97536765212E+03  0.51100000000E-03 0. -1.
         22    1    1    2    0    0 -0.15961207997E+02 -0.14014137152E+02 -0.21200113967E+02  0.30010015546E+02  0.00000000000E+00 0. -1.
         -2    1    1    2    0  501  0.28140643826E+02 -0.20967415919E+03 -0.30577660260E+03  0.37182587265E+03  0.25500000000E-02 0.  1.
<mgrwt>
<rscale>  0 0.23357720E+03</rscale>
<asrwt>0</asrwt>
<pdfrwt beam="1">  1       11 0.10000000E+01 0.22401963E+03</pdfrwt>
<pdfrwt beam="2">  1       -2 0.58054306E-01 0.23357720E+03</pdfrwt>
<totfact> 0.22990390E+01</totfact>
</mgrwt>
</event>
<event>
 5    1  0.2675386E-003  0.1316544E+03  0.7818608E-02  0.1225021E+00
         11   -1    0    0    0    0  0.00000000000E+00  0.00000000000E+00  0.10001895927E+04  0.10001895927E+04  0.51100000000E-03 0. -1.
          2   -1    0    0  501    0 -0.00000000000E+00 -0.00000000000E+00 -0.17631333701E+02  0.17631333885E+02  0.25500000000E-02 0. -1.
         11    1    1    2    0    0  0.12433486155E+03 -0.15131494393E+02  0.35078546914E+03  0.37247626136E+03  0.51100000000E-03 0. -1.
         22    1    1    2    0    0 -0.28711186797E+02  0.19936037534E+02  0.13665558402E+03  0.14105504771E+03  0.00000000000E+00 0.  1.
          2    1    1    2  501    0 -0.95623674756E+02 -0.48045431410E+01  0.49511720588E+03  0.50428961756E+03  0.25500000000E-02 0. -1.
<mgrwt>
<rscale>  0 0.13165439E+03</rscale>
<asrwt>0</asrwt>
<pdfrwt beam="1">  1       11 0.10000000E+01 0.12525229E+03</pdfrwt>
<pdfrwt beam="2">  1        2 0.27130271E-02 0.13165439E+03</pdfrwt>
<totfact> 0.41179331E+03</totfact>
</mgrwt>
</event>
<event>
 5    1  0.2675386E-003  0.1131000E+03  0.7818608E-02  0.1254934E+00
         11   -1    0    0    0    0  0.00000000000E+00  0.00000000000E+00  0.10004250760E+04  0.10004250760E+04  0.51100000000E-03 0. -1.
          2   -1    0    0  501    0 -0.00000000000E+00 -0.00000000000E+00 -0.38181168719E+02  0.38181168805E+02  0.25500000000E-02 0.  1.
         11    1    1    2    0    0 -0.65649551911E+02 -0.68358269922E+02  0.38165126868E+03  0.39324344574E+03  0.51100000000E-03 0. -1.
         22    1    1    2    0    0  0.12689065191E+03 -0.41734285408E+01  0.11866362775E+03  0.17378064219E+03  0.00000000000E+00 0.  1.
          2    1    1    2  501    0 -0.61241100003E+02  0.72531698463E+02  0.46192901082E+03  0.47158215685E+03  0.25500000000E-02 0.  1.
<mgrwt>
<rscale>  0 0.11310003E+03</rscale>
<asrwt>0</asrwt>
<pdfrwt beam="1">  1       11 0.10000000E+01 0.94777195E+02</pdfrwt>
<pdfrwt beam="2">  1        2 0.58765227E-02 0.11310003E+03</pdfrwt>
<totfact> 0.14650771E+03</totfact>
</mgrwt>
</event>
<event>
 5    1  0.2675386E-003  0.3995051E+03  0.7818608E-02  0.1043951E+00
         11   -1    0    0    0    0  0.00000000000E+00  0.00000000000E+00  0.10004246838E+04  0.10004246838E+04  0.51100000000E-03 0.  1.
          2   -1    0    0  501    0 -0.00000000000E+00 -0.00000000000E+00 -0.17009519451E+03  0.17009519453E+03  0.25500000000E-02 0.  1.
         11    1    1    2    0    0  0.23128214457E+03  0.31616593638E+03  0.24563526638E+03  0.46237324081E+03  0.51100000000E-03 0.  1.
         22    1    1    2    0    0 -0.36892230723E+02 -0.47705601515E+02  0.46810663163E+02  0.76341989032E+02  0.00000000000E+00 0. -1.
          2    1    1    2  501    0 -0.19438991385E+03 -0.26846033487E+03  0.53788355977E+03  0.63180464851E+03  0.25500000000E-02 0.  1.
<mgrwt>
<rscale>  0 0.39950510E+03</rscale>
<asrwt>0</asrwt>
<pdfrwt beam="1">  1       11 0.10000000E+01 0.39173012E+03</pdfrwt>
<pdfrwt beam="2">  1        2 0.26179604E-01 0.39950510E+03</pdfrwt>
<totfact> 0.25426111E+02</totfact>
</mgrwt>
</event>
<event>
 5    1  0.2675386E-003  0.1143313E+03  0.7818608E-02  0.1252753E+00
         11   -1    0    0    0    0  0.00000000000E+00  0.00000000000E+00  0.10001150401E+04  0.10001150401E+04  0.51100000000E-03 0.  1.
          2   -1    0    0  501    0 -0.00000000000E+00 -0.00000000000E+00 -0.12501905293E+02  0.12501905553E+02  0.25500000000E-02 0.  1.
         11    1    1    2    0    0  0.68528743328E+02  0.84827715880E+02  0.45797971549E+03  0.47078376123E+03  0.51100000000E-03 0.  1.
         22    1    1    2    0    0 -0.37191721325E+02 -0.20748099262E+02  0.22071875150E+03  0.22478984635E+03  0.00000000000E+00 0.  1.
          2    1    1    2  501    0 -0.31337022003E+02 -0.64079616618E+02  0.30891466787E+03  0.31704333812E+03  0.25500000000E-02 0.  1.
<mgrwt>
<rscale>  0 0.11433128E+03</rscale>
<asrwt>0</asrwt>
<pdfrwt beam="1">  1       11 0.10000000E+01 0.10905018E+03</pdfrwt>
<pdfrwt beam="2">  1        2 0.19235913E-02 0.11433128E+03</pdfrwt>
<totfact> 0.64550089E+03</totfact>
</mgrwt>
</event>
<event>
 5    1  0.2675386E-003  0.8206473E+02  0.7818608E-02  0.1378976E+00
         11   -1    0    0    0    0  0.00000000000E+00  0.00000000000E+00  0.10002139363E+04  0.10002139363E+04  0.51100000000E-03 0.  1.
         -2   -1    0    0    0  501 -0.00000000000E+00 -0.00000000000E+00 -0.12806109484E+02  0.12806109737E+02  0.25500000000E-02 0. -1.
         11    1    1    2    0    0 -0.49542728629E+02  0.86400079395E+02  0.59078584304E+03  0.59912216452E+03  0.51100000000E-03 0.  1.
         22    1    1    2    0    0 -0.72474278953E+01 -0.50545997478E+02  0.16260814752E+03  0.17043718114E+03  0.00000000000E+00 0. -1.
         -2    1    1    2    0  501  0.56790156524E+02 -0.35854081917E+02  0.23401383627E+03  0.24346070040E+03  0.25500000000E-02 0. -1.
<mgrwt>
<rscale>  0 0.64733808E+02</rscale>
<asrwt>0</asrwt>
<pdfrwt beam="1">  1       11 0.10000000E+01 0.82064734E+02</pdfrwt>
<pdfrwt beam="2">  1       -2 0.19705921E-02 0.64733808E+02</pdfrwt>
<totfact> 0.52745701E+03</totfact>
</mgrwt>
</event>
<event>
 5    1  0.2675386E-003  0.1480180E+03  0.7818608E-02  0.1202930E+00
         11   -1    0    0    0    0  0.00000000000E+00  0.00000000000E+00  0.10001991341E+04  0.10001991341E+04  0.51100000000E-03 0. -1.
         -2   -1    0    0    0  501 -0.00000000000E+00 -0.00000000000E+00 -0.29403002131E+02  0.29403002241E+02  0.25500000000E-02 0. -1.
         11    1    1    2    0    0  0.12865655068E+03  0.68494825609E+02  0.74833836377E+03  0.76240039078E+03  0.51100000000E-03 0. -1.
         22    1    1    2    0    0 -0.15493572800E+02 -0.17847882576E+02  0.28782159590E+02  0.37242588810E+02  0.00000000000E+00 0. -1.
         -2    1    1    2    0  501 -0.11316297788E+03 -0.50646943033E+02  0.19367560863E+03  0.22995915678E+03  0.25500000000E-02 0. -1.
<mgrwt>
<rscale>  0 0.14801795E+03</rscale>
<asrwt>0</asrwt>
<pdfrwt beam="1">  1       11 0.10000000E+01 0.14575338E+03</pdfrwt>
<pdfrwt beam="2">  1       -2 0.45244395E-02 0.14801795E+03</pdfrwt>
<totfact> 0.17292160E+03</totfact>
</mgrwt>
</event>
<event>
 5    1  0.2675386E-003  0.1081460E+03  0.7818608E-02  0.1264042E+00
         11   -1    0    0    0    0  0.00000000000E+00  0.00000000000E+00  0.10003927713E+04  0.10003927713E+04  0.51100000000E-03 0.  1.
          2   -1    0    0  501    0 -0.00000000000E+00 -0.00000000000E+00 -0.11510319751E+02  0.11510320033E+02  0.25500000000E-02 0.  1.
         11    1    1    2    0    0  0.41447451626E+02 -0.97887491792E+02  0.51018934209E+03  0.52114586929E+03  0.51100000000E-03 0.  1.
         22    1    1    2    0    0 -0.24742280211E+01  0.13867795261E+02  0.40412829646E+02  0.42797597476E+02  0.00000000000E+00 0.  1.
          2    1    1    2  501    0 -0.38973223605E+02  0.84019696531E+02  0.43828027985E+03  0.44795962460E+03  0.25500000000E-02 0.  1.
<mgrwt>
<rscale>  0 0.10814600E+03</rscale>
<asrwt>0</asrwt>
<pdfrwt beam="1">  1       11 0.10000000E+01 0.10630076E+03</pdfrwt>
<pdfrwt beam="2">  1        2 0.17715139E-02 0.10814600E+03</pdfrwt>
<totfact> 0.71695375E+03</totfact>
</mgrwt>
</event>
<event>
 5    1  0.2675386E-003  0.5943687E+02  0.7818608E-02  0.1404117E+00
         11   -1    0    0    0    0  0.00000000000E+00  0.00000000000E+00  0.10001475397E+04  0.10001475397E+04  0.51100000000E-03 0. -1.
          2   -1    0    0  501    0 -0.00000000000E+00 -0.00000000000E+00 -0.14861245208E+02  0.14861245427E+02  0.25500000000E-02 0. -1.
         11    1    1    2    0    0  0.50990606676E+02  0.51854345370E+02  0.14001353816E+03  0.15777422467E+03  0.51100000000E-03 0. -1.
         22    1    1    2    0    0  0.96898736908E+01 -0.56811770493E+02  0.17594406361E+03  0.18514260568E+03  0.00000000000E+00 0. -1.
          2    1    1    2  501    0 -0.60680480367E+02  0.49574251225E+01  0.66932869271E+03  0.67209195476E+03  0.25500000000E-02 0. -1.
<mgrwt>
<rscale>  0 0.58527569E+02</rscale>
<asrwt>0</asrwt>
<pdfrwt beam="1">  1       11 0.10000000E+01 0.59436875E+02</pdfrwt>
<pdfrwt beam="2">  1        2 0.22866827E-02 0.58527569E+02</pdfrwt>
<totfact> 0.46889958E+03</totfact>
</mgrwt>
</event>
<event>
 5    1  0.2675386E-003  0.6108452E+02  0.7818608E-02  0.1551737E+00
         11   -1    0    0    0    0  0.00000000000E+00  0.00000000000E+00  0.10002040313E+04  0.10002040313E+04  0.51100000000E-03 0. -1.
          2   -1    0    0  501    0 -0.00000000000E+00 -0.00000000000E+00 -0.88964977786E+01  0.88964981440E+01  0.25500000000E-02 0. -1.
         11    1    1    2    0    0 -0.39145410274E+02  0.14012568845E+02  0.79396099184E+02  0.89623968876E+02  0.51100000000E-03 0. -1.
         22    1    1    2    0    0  0.73260166973E+02 -0.79498503219E+01  0.42560774921E+03  0.43194005183E+03  0.00000000000E+00 0. -1.
          2    1    1    2  501    0 -0.34114756699E+02 -0.60627185230E+01  0.48630368508E+03  0.48753650870E+03  0.25500000000E-02 0. -1.
<mgrwt>
<rscale>  0 0.34649288E+02</rscale>
<asrwt>0</asrwt>
<pdfrwt beam="1">  1       11 0.10000000E+01 0.61084521E+02</pdfrwt>
<pdfrwt beam="2">  1        2 0.13689712E-02 0.34649288E+02</pdfrwt>
<totfact> 0.84864493E+03</totfact>
</mgrwt>
</event>
<event>
 5    1  0.2675386E-003  0.1650656E+03  0.7818608E-02  0.1523675E+00
         11   -1    0    0    0    0  0.00000000000E+00  0.00000000000E+00  0.99997252219E+03  0.99997252219E+03  0.51100000000E-03 0.  1.
          2   -1    0    0  501    0 -0.00000000000E+00 -0.00000000000E+00 -0.85706029886E+03  0.85706029887E+03  0.25500000000E-02 0.  1.
         11    1    1    2    0    0 -0.16544178792E+03 -0.20547342849E+01  0.98224766625E+03  0.99608517958E+03  0.51100000000E-03 0.  1.
         22    1    1    2    0    0  0.13741896063E+03 -0.23571853474E+02 -0.48680953874E+03  0.50638239506E+03  0.00000000000E+00 0.  1.
          2    1    1    2  501    0  0.28022827295E+02  0.25626587758E+02 -0.35252590417E+03  0.35456524642E+03  0.25500000000E-02 0.  1.
<mgrwt>
<rscale>  0 0.37973686E+02</rscale>
<asrwt>0</asrwt>
<pdfrwt beam="1">  1       11 0.10000000E+01 0.16506559E+03</pdfrwt>
<pdfrwt beam="2">  1        2 0.13185180E+00 0.37973686E+02</pdfrwt>
<totfact> 0.43955196E+01</totfact>
</mgrwt>
</event>
<event>
 5    1  0.2675386E-003  0.2392509E+03  0.7818608E-02  0.1120293E+00
         11   -1    0    0    0    0  0.00000000000E+00  0.00000000000E+00  0.10002667163E+04  0.10002667163E+04  0.51100000000E-03 0. -1.
         -2   -1    0    0    0  501 -0.00000000000E+00 -0.00000000000E+00 -0.26304750142E+03  0.26304750143E+03  0.25500000000E-02 0. -1.
         11    1    1    2    0    0  0.18617993225E+03  0.14138576725E+03  0.92819882708E+03  0.95718648389E+03  0.51100000000E-03 0. -1.
         22    1    1    2    0    0 -0.93144404439E+02 -0.89761266331E+02 -0.13046957550E+03  0.18372608727E+03  0.00000000000E+00 0. -1.
         -2    1    1    2    0  501 -0.93035527816E+02 -0.51624500921E+02 -0.60510036715E+02  0.12240164656E+03  0.25500000000E-02 0. -1.
<mgrwt>
<rscale>  0 0.23925087E+03</rscale>
<asrwt>0</asrwt>
<pdfrwt beam="1">  1       11 0.10000000E+01 0.23377960E+03</pdfrwt>
<pdfrwt beam="2">  1       -2 0.40479639E-01 0.23925087E+03</pdfrwt>
<totfact> 0.47052771E+01</totfact>
</mgrwt>
</event>
<event>
 5    1  0.2675386E-003  0.1187999E+03  0.7818608E-02  0.1386832E+00
         11   -1    0    0    0    0  0.00000000000E+00  0.00000000000E+00  0.10006153573E+04  0.10006153573E+04  0.51100000000E-03 0.  1.
          2   -1    0    0  501    0 -0.00000000000E+00 -0.00000000000E+00 -0.19321329188E+02  0.19321329356E+02  0.25500000000E-02 0.  1.
         11    1    1    2    0    0 -0.71953227316E+02 -0.88260284143E+02  0.31845069344E+03  0.33819815025E+03  0.51100000000E-03 0.  1.
         22    1    1    2    0    0 -0.28806352645E+02  0.16289892979E+02  0.96490241633E+02  0.10200751588E+03  0.00000000000E+00 0. -1.
          2    1    1    2  501    0  0.10075957996E+03  0.71970391164E+02  0.56635309301E+03  0.57973102049E+03  0.25500000000E-02 0.  1.
<mgrwt>
<rscale>  0 0.62701509E+02</rscale>
<asrwt>0</asrwt>
<pdfrwt beam="1">  1       11 0.10000000E+01 0.11879991E+03</pdfrwt>
<pdfrwt beam="2">  1        2 0.29743413E-02 0.62701509E+02</pdfrwt>
<totfact> 0.33462084E+03</totfact>
</mgrwt>
</event>
<event>
 5    1  0.2675386E-003  0.1342825E+03  0.7818608E-02  0.1221236E+00
         11   -1    0    0    0    0  0.00000000000E+00  0.00000000000E+00  0.99990839316E+03  0.99990839316E+03  0.51100000000E-03 0. -1.
          2   -1    0    0  501    0 -0.00000000000E+00 -0.00000000000E+00 -0.28391765023E+02  0.28391765138E+02  0.25500000000E-02 0. -1.
         11    1    1    2    0    0  0.16706942058E+02 -0.13129723104E+03  0.79795169101E+03  0.80885411910E+03  0.51100000000E-03 0. -1.
         22    1    1    2    0    0  0.23920801290E+01  0.22030225732E+02  0.18951178620E+02  0.29158190345E+02  0.00000000000E+00 0.  1.
          2    1    1    2  501    0 -0.19099022187E+02  0.10926700530E+03  0.15461375850E+03  0.19028784885E+03  0.25500000000E-02 0. -1.
<mgrwt>
<rscale>  0 0.13428245E+03</rscale>
<asrwt>0</asrwt>
<pdfrwt beam="1">  1       11 0.10000000E+01 0.13235590E+03</pdfrwt>
<pdfrwt beam="2">  1        2 0.43675636E-02 0.13428245E+03</pdfrwt>
<totfact> 0.21861963E+03</totfact>
</mgrwt>
</event>
<event>
 5    1  0.2675386E-003  0.2100591E+03  0.7818608E-02  0.1141519E+00
         11   -1    0    0    0    0  0.00000000000E+00  0.00000000000E+00  0.10001109147E+04  0.10001109147E+04  0.51100000000E-03 0. -1.
         -2   -1    0    0    0  501 -0.00000000000E+00 -0.00000000000E+00 -0.21546263703E+03  0.21546263705E+03  0.25500000000E-02 0.  1.
         11    1    1    2    0    0 -0.11803927766E+03 -0.11028883649E+03  0.73790090450E+03  0.75537715307E+03  0.51100000000E-03 0. -1.
         22    1    1    2    0    0  0.35667718083E+02 -0.16535142363E+03  0.31842493969E+02  0.17212560482E+03  0.00000000000E+00 0.  1.
         -2    1    1    2    0  501  0.82371559574E+02  0.27564026013E+03  0.14904879172E+02  0.28807079383E+03  0.25500000000E-02 0.  1.
<mgrwt>
<rscale>  0 0.21005909E+03</rscale>
<asrwt>0</asrwt>
<pdfrwt beam="1">  1       11 0.10000000E+01 0.16154535E+03</pdfrwt>
<pdfrwt beam="2">  1       -2 0.33151774E-01 0.21005909E+03</pdfrwt>
<totfact> 0.68438882E+01</totfact>
</mgrwt>
</event>
<event>
 5    1  0.2675386E-003  0.6736981E+02  0.7818608E-02  0.1610661E+00
         11   -1    0    0    0    0  0.00000000000E+00  0.00000000000E+00  0.10001000706E+04  0.10001000706E+04  0.51100000000E-03 0. -1.
          2   -1    0    0  501    0 -0.00000000000E+00 -0.00000000000E+00 -0.64956145363E+01  0.64956150369E+01  0.25500000000E-02 0. -1.
         11    1    1    2    0    0 -0.75331441713E+02  0.68577703338E+01  0.39472716508E+03  0.40190967887E+03  0.51100000000E-03 0. -1.
         22    1    1    2    0    0  0.12391087288E+02 -0.25216346022E-01  0.32512794067E+02  0.34793985948E+02  0.00000000000E+00 0. -1.
          2    1    1    2  501    0  0.62940354424E+02 -0.68325539878E+01  0.56636449690E+03  0.56989202079E+03  0.25500000000E-02 0. -1.
<mgrwt>
<rscale>  0 0.28892672E+02</rscale>
<asrwt>0</asrwt>
<pdfrwt beam="1">  1       11 0.10000000E+01 0.67369810E+02</pdfrwt>
<pdfrwt beam="2">  1        2 0.99942533E-03 0.28892672E+02</pdfrwt>
<totfact> 0.12385149E+04</totfact>
</mgrwt>
</event>
<event>
 5    1  0.3101243E-003  0.1867633E+03  0.7818608E-02  0.1161413E+00
         11   -1    0    0    0    0  0.00000000000E+00  0.00000000000E+00  0.10000524873E+04  0.10000524873E+04  0.51100000000E-03 0. -1.
          2   -1    0    0  501    0 -0.00000000000E+00 -0.00000000000E+00 -0.59755031458E+03  0.59755031459E+03  0.25500000000E-02 0.  1.
         11    1    1    2    0    0 -0.11324798560E+03  0.14477520858E+03  0.97667422804E+03  0.99381965918E+03  0.51100000000E-03 0. -1.
         22    1    1    2    0    0  0.20098935691E+02 -0.88234123017E+01 -0.65392048867E+02  0.68977821621E+02  0.00000000000E+00 0.  1.
          2    1    1    2  501    0  0.93149049908E+02 -0.13595179628E+03 -0.50878000649E+03  0.53480532105E+03  0.25500000000E-02 0.  1.
<mgrwt>
<rscale>  0 0.18676331E+03</rscale>
<asrwt>0</asrwt>
<pdfrwt beam="1">  1       11 0.10000000E+01 0.18380687E+03</pdfrwt>
<pdfrwt beam="2">  1        2 0.91935640E-01 0.18676331E+03</pdfrwt>
<totfact> 0.63766435E+01</totfact>
</mgrwt>
</event>
<event>
 5    1  0.2675386E-003  0.1626865E+03  0.7818608E-02  0.1185697E+00
         11   -1    0    0    0    0  0.00000000000E+00  0.00000000000E+00  0.10004065818E+04  0.10004065818E+04  0.51100000000E-03 0. -1.
          2   -1    0    0  501    0 -0.00000000000E+00 -0.00000000000E+00 -0.35608547927E+02  0.35608548018E+02  0.25500000000E-02 0. -1.
         11    1    1    2    0    0  0.78746675657E+02  0.13138468937E+03  0.75578149588E+03  0.77114761560E+03  0.51100000000E-03 0. -1.
         22    1    1    2    0    0 -0.69242414412E+02 -0.92583654514E+02  0.11666746057E+03  0.16424841367E+03  0.00000000000E+00 0. -1.
          2    1    1    2  501    0 -0.95042612444E+01 -0.38801034859E+02  0.92349077386E+02  0.10061910052E+03  0.25500000000E-02 0. -1.
<mgrwt>
<rscale>  0 0.16268647E+03</rscale>
<asrwt>0</asrwt>
<pdfrwt beam="1">  1       11 0.10000000E+01 0.15317629E+03</pdfrwt>
<pdfrwt beam="2">  1        2 0.54804653E-02 0.16268647E+03</pdfrwt>
<totfact> 0.16492335E+03</totfact>
</mgrwt>
</event>
<event>
 5    1  0.2675386E-003  0.1963724E+03  0.7818608E-02  0.1266075E+00
         11   -1    0    0    0    0  0.00000000000E+00  0.00000000000E+00  0.10001793652E+04  0.10001793652E+04  0.51100000000E-03 0. -1.
          2   -1    0    0  501    0 -0.00000000000E+00 -0.00000000000E+00 -0.91970516326E+02  0.91970516361E+02  0.25500000000E-02 0. -1.
         11    1    1    2    0    0 -0.49970348347E+02 -0.21354509964E+03  0.66400565463E+03  0.69928681861E+03  0.51100000000E-03 0. -1.
         22    1    1    2    0    0  0.97046420579E+01  0.11432397648E+03 -0.11826496921E+02  0.11534304359E+03  0.00000000000E+00 0. -1.
          2    1    1    2  501    0  0.40265706289E+02  0.99221123168E+02  0.25602969119E+03  0.27752001939E+03  0.25500000000E-02 0. -1.
<mgrwt>
<rscale>  0 0.10708015E+03</rscale>
<asrwt>0</asrwt>
<pdfrwt beam="1">  1       11 0.10000000E+01 0.19637237E+03</pdfrwt>
<pdfrwt beam="2">  1        2 0.14151848E-01 0.10708015E+03</pdfrwt>
<totfact> 0.49547584E+02</totfact>
</mgrwt>
</event>
<event>
 5    1  0.2675386E-003  0.1486697E+03  0.7818608E-02  0.1266592E+00
         11   -1    0    0    0    0  0.00000000000E+00  0.00000000000E+00  0.10001181854E+04  0.10001181854E+04  0.51100000000E-03 0.  1.
          2   -1    0    0  501    0 -0.00000000000E+00 -0.00000000000E+00 -0.60809824773E+02  0.60809824827E+02  0.25500000000E-02 0.  1.
         11    1    1    2    0    0  0.14522013344E+03 -0.67001766430E+02  0.81675382682E+03  0.83226494429E+03  0.51100000000E-03 0.  1.
         22    1    1    2    0    0 -0.52951837756E+02  0.55541445610E+02  0.11103868752E+03  0.13497532897E+03  0.00000000000E+00 0. -1.
          2    1    1    2  501    0 -0.92268295683E+02  0.11460320821E+02  0.11515846306E+02  0.93687737000E+02  0.25500000000E-02 0.  1.
<mgrwt>
<rscale>  0 0.10681125E+03</rscale>
<asrwt>0</asrwt>
<pdfrwt beam="1">  1       11 0.10000000E+01 0.14866969E+03</pdfrwt>
<pdfrwt beam="2">  1        2 0.93564631E-02 0.10681125E+03</pdfrwt>
<totfact> 0.81363365E+02</totfact>
</mgrwt>
</event>
<event>
 5    1  0.2675386E-003  0.1072088E+03  0.7818608E-02  0.1352328E+00
         11   -1    0    0    0    0  0.00000000000E+00  0.00000000000E+00  0.99994092020E+03  0.99994092020E+03  0.51100000000E-03 0. -1.
          2   -1    0    0  501    0 -0.00000000000E+00 -0.00000000000E+00 -0.27426486845E+02  0.27426486963E+02  0.25500000000E-02 0.  1.
         11    1    1    2    0    0 -0.21982664674E+02 -0.12322181531E+03  0.71461465403E+03  0.72549359547E+03  0.51100000000E-03 0. -1.
         22    1    1    2    0    0  0.29285177380E+02  0.39042817562E+02  0.26512385305E+02  0.55541604153E+02  0.00000000000E+00 0.  1.
          2    1    1    2  501    0 -0.73025127061E+01  0.84178997746E+02  0.23138739402E+03  0.24633220754E+03  0.25500000000E-02 0.  1.
<mgrwt>
<rscale>  0 0.72335074E+02</rscale>
<asrwt>0</asrwt>
<pdfrwt beam="1">  1       11 0.10000000E+01 0.10720878E+03</pdfrwt>
<pdfrwt beam="2">  1        2 0.42192101E-02 0.72335074E+02</pdfrwt>
<totfact> 0.21558799E+03</totfact>
</mgrwt>
</event>
<event>
 5    1  0.2675386E-003  0.2639221E+03  0.7818608E-02  0.1104809E+00
         11   -1    0    0    0    0  0.00000000000E+00  0.00000000000E+00  0.10002360241E+04  0.10002360241E+04  0.51100000000E-03 0. -1.
          2   -1    0    0  501    0 -0.00000000000E+00 -0.00000000000E+00 -0.35483678391E+03  0.35483678392E+03  0.25500000000E-02 0.  1.
         11    1    1    2    0    0 -0.68336675930E+02  0.25186945536E+03  0.93059511589E+03  0.96649645294E+03  0.51100000000E-03 0. -1.
         22    1    1    2    0    0  0.12565621710E+02 -0.13291886308E+02 -0.13568757166E+02  0.22774552940E+02  0.00000000000E+00 0. -1.
          2    1    1    2  501    0  0.55771054220E+02 -0.23857756905E+03 -0.27162711852E+03  0.36580180216E+03  0.25500000000E-02 0.  1.
<mgrwt>
<rscale>  0 0.26392214E+03</rscale>
<asrwt>0</asrwt>
<pdfrwt beam="1">  1       11 0.10000000E+01 0.26097533E+03</pdfrwt>
<pdfrwt beam="2">  1        2 0.54603158E-01 0.26392214E+03</pdfrwt>
<totfact> 0.11311314E+02</totfact>
</mgrwt>
</event>
<event>
 5    1  0.2675386E-003  0.2034407E+03  0.7818608E-02  0.1146868E+00
         11   -1    0    0    0    0  0.00000000000E+00  0.00000000000E+00  0.99997383178E+03  0.99997383178E+03  0.51100000000E-03 0. -1.
          2   -1    0    0  501    0 -0.00000000000E+00 -0.00000000000E+00 -0.40025711368E+02  0.40025711449E+02  0.25500000000E-02 0. -1.
         11    1    1    2    0    0 -0.16269669363E+01 -0.19623773500E+03  0.44702779205E+03  0.48820665964E+03  0.51100000000E-03 0. -1.
         22    1    1    2    0    0  0.31127204018E+01  0.51882294268E+02  0.79679993597E+02  0.95133395116E+02  0.00000000000E+00 0. -1.
          2    1    1    2  501    0 -0.14857534655E+01  0.14435544073E+03  0.43324033477E+03  0.45665948847E+03  0.25500000000E-02 0. -1.
<mgrwt>
<rscale>  0 0.20344071E+03</rscale>
<asrwt>0</asrwt>
<pdfrwt beam="1">  1       11 0.10000000E+01 0.19624458E+03</pdfrwt>
<pdfrwt beam="2">  1        2 0.61576404E-02 0.20344071E+03</pdfrwt>
<totfact> 0.14398973E+03</totfact>
</mgrwt>
</event>
<event>
 5    1  0.2675386E-003  0.2198850E+03  0.7818608E-02  0.1133969E+00
         11   -1    0    0    0    0  0.00000000000E+00  0.00000000000E+00  0.10001906309E+04  0.10001906309E+04  0.51100000000E-03 0.  1.
          2   -1    0    0  501    0 -0.00000000000E+00 -0.00000000000E+00 -0.14845640012E+03  0.14845640014E+03  0.25500000000E-02 0.  1.
         11    1    1    2    0    0 -0.19765706159E+03 -0.84259178774E+02  0.89850792628E+03  0.92384220340E+03  0.51100000000E-03 0.  1.
         22    1    1    2    0    0  0.19255197192E+02 -0.52822896826E+01 -0.88505926271E+00  0.19986208572E+02  0.00000000000E+00 0.  1.
          2    1    1    2  501    0  0.17840186439E+03  0.89541468457E+02 -0.45888636194E+02  0.20481861910E+03  0.25500000000E-02 0.  1.
<mgrwt>
<rscale>  0 0.21988504E+03</rscale>
<asrwt>0</asrwt>
<pdfrwt beam="1">  1       11 0.10000000E+01 0.21486722E+03</pdfrwt>
<pdfrwt beam="2">  1        2 0.22843799E-01 0.21988504E+03</pdfrwt>
<totfact> 0.29309050E+02</totfact>
</mgrwt>
</event>
<event>
 5    1  0.2675386E-003  0.1648092E+03  0.7818608E-02  0.1183372E+00
         11   -1    0    0    0    0  0.00000000000E+00  0.00000000000E+00  0.10003012384E+04  0.10003012384E+04  0.51100000000E-03 0. -1.
         -2   -1    0    0    0  501 -0.00000000000E+00 -0.00000000000E+00 -0.25999129802E+02  0.25999129927E+02  0.25500000000E-02 0. -1.
         11    1    1    2    0    0  0.12930875949E+03  0.86133762478E+02  0.53486219828E+03  0.55697158946E+03  0.51100000000E-03 0. -1.
         22    1    1    2    0    0 -0.34583495994E+02 -0.72375066553E+01  0.52966756908E+02  0.63670063885E+02  0.00000000000E+00 0.  1.
         -2    1    1    2    0  501 -0.94725263496E+02 -0.78896255823E+02  0.38647315345E+03  0.40565871502E+03  0.25500000000E-02 0. -1.
<mgrwt>
<rscale>  0 0.16480919E+03</rscale>
<asrwt>0</asrwt>
<pdfrwt beam="1">  1       11 0.10000000E+01 0.15536982E+03</pdfrwt>
<pdfrwt beam="2">  1       -2 0.40010709E-02 0.16480919E+03</pdfrwt>
<totfact> 0.20984859E+03</totfact>
</mgrwt>
</event>
<event>
 5    1  0.2675386E-003  0.8608323E+02  0.7818608E-02  0.1312624E+00
         11   -1    0    0    0    0  0.00000000000E+00  0.00000000000E+00  0.99968743873E+03  0.99968743873E+03  0.51100000000E-03 0.  1.
          2   -1    0    0  501    0 -0.00000000000E+00 -0.00000000000E+00 -0.19206350091E+02  0.19206350260E+02  0.25500000000E-02 0.  1.
         11    1    1    2    0    0 -0.13224078564E+02 -0.11317394462E+02  0.54213380910E+02  0.56939005447E+02  0.51100000000E-03 0.  1.
         22    1    1    2    0    0  0.84789373254E+02  0.23833691211E+02  0.10314683953E+03  0.13563389384E+03  0.00000000000E+00 0.  1.
          2    1    1    2  501    0 -0.71565294689E+02 -0.12516296749E+02  0.82312086820E+03  0.82632088971E+03  0.25500000000E-02 0.  1.
<mgrwt>
<rscale>  0 0.86083229E+02</rscale>
<asrwt>0</asrwt>
<pdfrwt beam="1">  1       11 0.10000000E+01 0.17405745E+02</pdfrwt>
<pdfrwt beam="2">  1        2 0.29538995E-02 0.86083229E+02</pdfrwt>
<totfact> 0.35064552E+03</totfact>
</mgrwt>
</event>
<event>
 5    1  0.2675386E-003  0.2165405E+03  0.7818608E-02  0.1207074E+00
         11   -1    0    0    0    0  0.00000000000E+00  0.00000000000E+00  0.10003840316E+04  0.10003840316E+04  0.51100000000E-03 0.  1.
          2   -1    0    0  501    0 -0.00000000000E+00 -0.00000000000E+00 -0.51377984623E+03  0.51377984623E+03  0.25500000000E-02 0.  1.
         11    1    1    2    0    0  0.19994177084E+03 -0.90250766733E+02  0.95291519376E+03  0.97783908652E+03  0.51100000000E-03 0.  1.
         22    1    1    2    0    0 -0.81664391354E+02  0.51903916119E+02 -0.65949463354E+02  0.11710004714E+03  0.00000000000E+00 0. -1.
          2    1    1    2  501    0 -0.11827737949E+03  0.38346850615E+02 -0.40036154499E+03  0.41922474422E+03  0.25500000000E-02 0.  1.
<mgrwt>
<rscale>  0 0.14475193E+03</rscale>
<asrwt>0</asrwt>
<pdfrwt beam="1">  1       11 0.10000000E+01 0.21654051E+03</pdfrwt>
<pdfrwt beam="2">  1        2 0.79073406E-01 0.14475193E+03</pdfrwt>
<totfact> 0.75947892E+01</totfact>
</mgrwt>
</event>
<event>
 5    1  0.2675386E-003  0.2513550E+03  0.7818608E-02  0.1112451E+00
         11   -1    0    0    0    0  0.00000000000E+00  0.00000000000E+00  0.10005218178E+04  0.10005218178E+04  0.51100000000E-03 0.  1.
          2   -1    0    0  501    0 -0.00000000000E+00 -0.00000000000E+00 -0.74085737886E+02  0.74085737929E+02  0.25500000000E-02 0.  1.
         11    1    1    2    0    0 -0.16686093010E+03  0.17108386478E+03  0.22015025297E+03  0.32492828850E+03  0.51100000000E-03 0.  1.
         22    1    1    2    0    0  0.25422583061E+02 -0.17102369154E+02  0.34658687456E+02  0.46260386686E+02  0.00000000000E+00 0.  1.
          2    1    1    2  501    0  0.14143834704E+03 -0.15398149563E+03  0.67162713950E+03  0.70341888056E+03  0.25500000000E-02 0.  1.
<mgrwt>
<rscale>  0 0.25135500E+03</rscale>
<asrwt>0</asrwt>
<pdfrwt beam="1">  1       11 0.10000000E+01 0.23898183E+03</pdfrwt>
<pdfrwt beam="2">  1        2 0.11403753E-01 0.25135500E+03</pdfrwt>
<totfact> 0.66759730E+02</totfact>
</mgrwt>
</event>
<event>
 5    1  0.2675386E-003  0.2002116E+03  0.7818608E-02  0.1149561E+00
         11   -1    0    0    0    0  0.00000000000E+00  0.00000000000E+00  0.10002136459E+04  0.10002136459E+04  0.51100000000E-03 0. -1.
          2   -1    0    0  501    0 -0.00000000000E+00 -0.00000000000E+00 -0.10567474605E+03  0.10567474608E+03  0.25500000000E-02 0. -1.
         11    1    1    2    0    0 -0.25924675594E+02  0.19571146713E+03  0.88359143759E+03  0.90537776411E+03  0.51100000000E-03 0. -1.
         22    1    1    2    0    0 -0.29393050161E+01 -0.16322412689E+02 -0.68517260414E+01  0.17944548467E+02  0.00000000000E+00 0. -1.
          2    1    1    2  501    0  0.28863980610E+02 -0.17938905444E+03  0.17799188284E+02  0.18256607938E+03  0.25500000000E-02 0. -1.
<mgrwt>
<rscale>  0 0.20021155E+03</rscale>
<asrwt>0</asrwt>
<pdfrwt beam="1">  1       11 0.10000000E+01 0.19742104E+03</pdfrwt>
<pdfrwt beam="2">  1        2 0.16261126E-01 0.20021155E+03</pdfrwt>
<totfact> 0.43206747E+02</totfact>
</mgrwt>
</event>
<event>
 5    1  0.2675386E-003  0.3007872E+03  0.7818608E-02  0.1573915E+00
         11   -1    0    0    0    0  0.00000000000E+00  0.00000000000E+00  0.10013781184E+04  0.10013781184E+04  0.51100000000E-03 0. -1.
          2   -1    0    0  501    0 -0.00000000000E+00 -0.00000000000E+00 -0.15526362169E+04  0.15526362169E+04  0.25500000000E-02 0. -1.
         11    1    1    2    0    0 -0.12172279094E+03 -0.27534270347E+03  0.95643709452E+03  0.10026973412E+04  0.51100000000E-03 0. -1.
         22    1    1    2    0    0  0.89755803278E+02  0.27067594278E+03 -0.14842593646E+04  0.15114057800E+04  0.00000000000E+00 0. -1.
          2    1    1    2  501    0  0.31966987662E+02  0.46667606886E+01 -0.23435828349E+02  0.39911214119E+02  0.25500000000E-02 0. -1.
<mgrwt>
<rscale>  0 0.32305835E+02</rscale>
<asrwt>0</asrwt>
<pdfrwt beam="1">  1       11 0.10000000E+01 0.30078721E+03</pdfrwt>
<pdfrwt beam="2">  1        2 0.23919629E+00 0.32305835E+02</pdfrwt>
<totfact> 0.19163695E+01</totfact>
</mgrwt>
</event>
<event>
 5    1  0.2675386E-003  0.2309342E+03  0.7818608E-02  0.1125984E+00
         11   -1    0    0    0    0  0.00000000000E+00  0.00000000000E+00  0.10002971107E+04  0.10002971107E+04  0.51100000000E-03 0. -1.
          2   -1    0    0  501    0 -0.00000000000E+00 -0.00000000000E+00 -0.12556063740E+03  0.12556063742E+03  0.25500000000E-02 0. -1.
         11    1    1    2    0    0  0.12739553524E+03  0.17933200573E+03  0.86734479078E+03  0.89480532898E+03  0.51100000000E-03 0. -1.
         22    1    1    2    0    0 -0.65525813206E+02 -0.10294717951E+03 -0.30364377824E+02  0.12575273121E+03  0.00000000000E+00 0. -1.
          2    1    1    2  501    0 -0.61869722038E+02 -0.76384826223E+02  0.37756060368E+02  0.10529968795E+03  0.25500000000E-02 0. -1.
<mgrwt>
<rscale>  0 0.23093415E+03</rscale>
<asrwt>0</asrwt>
<pdfrwt beam="1">  1       11 0.10000000E+01 0.21997634E+03</pdfrwt>
<pdfrwt beam="2">  1        2 0.19322760E-01 0.23093415E+03</pdfrwt>
<totfact> 0.35519935E+02</totfact>
</mgrwt>
</event>
<event>
 5    1  0.2675386E-003  0.2337617E+03  0.7818608E-02  0.1124020E+00
         11   -1    0    0    0    0  0.00000000000E+00  0.00000000000E+00  0.10000585741E+04  0.10000585741E+04  0.51100000000E-03 0.  1.
          2   -1    0    0  501    0 -0.00000000000E+00 -0.00000000000E+00 -0.13913496834E+03  0.13913496837E+03  0.25500000000E-02 0.  1.
         11    1    1    2    0    0 -0.14724613014E+03 -0.17506356361E+03  0.87558361917E+03  0.90497256770E+03  0.51100000000E-03 0.  1.
         22    1    1    2    0    0  0.72455949863E+01  0.24526289529E+02  0.93881183614E+01  0.27242875970E+02  0.00000000000E+00 0. -1.
          2    1    1    2  501    0  0.14000053515E+03  0.15053727408E+03 -0.24048131775E+02  0.20697809879E+03  0.25500000000E-02 0.  1.
<mgrwt>
<rscale>  0 0.23376174E+03</rscale>
<asrwt>0</asrwt>
<pdfrwt beam="1">  1       11 0.10000000E+01 0.22875462E+03</pdfrwt>
<pdfrwt beam="2">  1        2 0.21406633E-01 0.23376174E+03</pdfrwt>
<totfact> 0.31598863E+02</totfact>
</mgrwt>
</event>
<event>
 5    1  0.2675386E-003  0.1405027E+03  0.7818608E-02  0.1212654E+00
         11   -1    0    0    0    0  0.00000000000E+00  0.00000000000E+00  0.99986693446E+03  0.99986693446E+03  0.51100000000E-03 0. -1.
          2   -1    0    0  501    0 -0.00000000000E+00 -0.00000000000E+00 -0.21701978113E+02  0.21701978263E+02  0.25500000000E-02 0. -1.
         11    1    1    2    0    0 -0.12293527775E+03 -0.62532956313E+02  0.65199636366E+03  0.66642532317E+03  0.51100000000E-03 0. -1.
         22    1    1    2    0    0  0.40707428956E+02  0.90673456596E+01  0.81579557100E+02  0.91621698665E+02  0.00000000000E+00 0.  1.
          2    1    1    2  501    0  0.82227848792E+02  0.53465610653E+02  0.24458903559E+03  0.26352189089E+03  0.25500000000E-02 0. -1.
<mgrwt>
<rscale>  0 0.14050273E+03</rscale>
<asrwt>0</asrwt>
<pdfrwt beam="1">  1       11 0.10000000E+01 0.13792553E+03</pdfrwt>
<pdfrwt beam="2">  1        2 0.33383215E-02 0.14050273E+03</pdfrwt>
<totfact> 0.31367891E+03</totfact>
</mgrwt>
</event>
<event>
 5    1  0.2675386E-003  0.3491084E+03  0.7818608E-02  0.1305933E+00
         11   -1    0    0    0    0  0.00000000000E+00  0.00000000000E+00  0.10001420129E+04  0.10001420129E+04  0.51100000000E-03 0. -1.
          2   -1    0    0  501    0 -0.00000000000E+00 -0.00000000000E+00 -0.21589972600E+03  0.21589972602E+03  0.25500000000E-02 0. -1.
         11    1    1    2    0    0 -0.36773584782E+03  0.74197228919E+02  0.44512296868E+03  0.58212484898E+03  0.51100000000E-03 0. -1.
         22    1    1    2    0    0  0.28146372682E+03 -0.94977633660E+02  0.14525402282E+02  0.29741144517E+03  0.00000000000E+00 0. -1.
          2    1    1    2  501    0  0.86272121007E+02  0.20780404741E+02  0.32459391594E+03  0.33650544476E+03  0.25500000000E-02 0. -1.
<mgrwt>
<rscale>  0 0.88739529E+02</rscale>
<asrwt>0</asrwt>
<pdfrwt beam="1">  1       11 0.10000000E+01 0.34910840E+03</pdfrwt>
<pdfrwt beam="2">  1        2 0.33220059E-01 0.88739529E+02</pdfrwt>
<totfact> 0.19080035E+02</totfact>
</mgrwt>
</event>
<event>
 5    1  0.2675386E-003  0.2026446E+03  0.7818608E-02  0.1360911E+00
         11   -1    0    0    0    0  0.00000000000E+00  0.00000000000E+00  0.10000779294E+04  0.10000779294E+04  0.51100000000E-03 0. -1.
         -2   -1    0    0    0  501 -0.00000000000E+00 -0.00000000000E+00 -0.14097867345E+03  0.14097867347E+03  0.25500000000E-02 0.  1.
         11    1    1    2    0    0  0.11350850222E+03  0.17532857129E+03  0.71170562534E+03  0.74172042248E+03  0.51100000000E-03 0. -1.
         22    1    1    2    0    0 -0.11696365531E+03 -0.10565431030E+03 -0.68938584758E+02  0.17203446869E+03  0.00000000000E+00 0.  1.
         -2    1    1    2    0  501  0.34551530963E+01 -0.69674260989E+02  0.21633221538E+03  0.22730171171E+03  0.25500000000E-02 0.  1.
<mgrwt>
<rscale>  0 0.69759879E+02</rscale>
<asrwt>0</asrwt>
<pdfrwt beam="1">  1       11 0.10000000E+01 0.20264459E+03</pdfrwt>
<pdfrwt beam="2">  1       -2 0.21690716E-01 0.69759879E+02</pdfrwt>
<totfact> 0.14069528E+02</totfact>
</mgrwt>
</event>
<event>
 5    1  0.2675386E-003  0.2442548E+03  0.7818608E-02  0.1116990E+00
         11   -1    0    0    0    0  0.00000000000E+00  0.00000000000E+00  0.10000608653E+04  0.10000608653E+04  0.51100000000E-03 0. -1.
          2   -1    0    0  501    0 -0.00000000000E+00 -0.00000000000E+00 -0.58772807774E+03  0.58772807775E+03  0.25500000000E-02 0. -1.
         11    1    1    2    0    0  0.55392337748E+01  0.23735715946E+03  0.95957502577E+03  0.98851066476E+03  0.51100000000E-03 0. -1.
         22    1    1    2    0    0  0.23375712462E+02 -0.15942462933E+03 -0.36208926690E+03  0.39632218406E+03  0.00000000000E+00 0. -1.
          2    1    1    2  501    0 -0.28914946236E+02 -0.77932530130E+02 -0.18515297134E+03  0.20295609420E+03  0.25500000000E-02 0. -1.
<mgrwt>
<rscale>  0 0.24425476E+03</rscale>
<asrwt>0</asrwt>
<pdfrwt beam="1">  1       11 0.10000000E+01 0.23742179E+03</pdfrwt>
<pdfrwt beam="2">  1        2 0.90425205E-01 0.24425476E+03</pdfrwt>
<totfact> 0.64604849E+01</totfact>
</mgrwt>
</event>
<event>
 5    1  0.2675386E-003  0.1571201E+03  0.7818608E-02  0.1191987E+00
         11   -1    0    0    0    0  0.00000000000E+00  0.00000000000E+00  0.10000189191E+04  0.10000189191E+04  0.51100000000E-03 0.  1.
          2   -1    0    0  501    0 -0.00000000000E+00 -0.00000000000E+00 -0.46948337938E+02  0.46948338007E+02  0.25500000000E-02 0.  1.
         11    1    1    2    0    0  0.30987454960E+02  0.18413551968E+03  0.32984254065E+03  0.37902798524E+03  0.51100000000E-03 0.  1.
         22    1    1    2    0    0 -0.81671000941E+02 -0.53278392858E+02  0.30324101263E+03  0.31853390916E+03  0.00000000000E+00 0.  1.
          2    1    1    2  501    0  0.50683545981E+02 -0.13085712682E+03  0.31998702786E+03  0.34940536269E+03  0.25500000000E-02 0.  1.
<mgrwt>
<rscale>  0 0.15712006E+03</rscale>
<asrwt>0</asrwt>
<pdfrwt beam="1">  1       11 0.10000000E+01 0.97512766E+02</pdfrwt>
<pdfrwt beam="2">  1        2 0.72229577E-02 0.15712006E+03</pdfrwt>
<totfact> 0.11527429E+03</totfact>
</mgrwt>
</event>
<event>
 5    1  0.2675386E-003  0.3435224E+03  0.7818608E-02  0.1065306E+00
         11   -1    0    0    0    0  0.00000000000E+00  0.00000000000E+00  0.99993782569E+03  0.99993782569E+03  0.51100000000E-03 0.  1.
          2   -1    0    0  501    0 -0.00000000000E+00 -0.00000000000E+00 -0.36774349457E+03  0.36774349458E+03  0.25500000000E-02 0.  1.
         11    1    1    2    0    0  0.32406516741E+03  0.62932217741E+02  0.88277269760E+03  0.94247882331E+03  0.51100000000E-03 0.  1.
         22    1    1    2    0    0 -0.34116083291E+02  0.21999082601E+02 -0.20741858678E+02  0.45586088622E+02  0.00000000000E+00 0. -1.
          2    1    1    2  501    0 -0.28994908412E+03 -0.84931300342E+02 -0.22983650780E+03  0.37961640834E+03  0.25500000000E-02 0.  1.
<mgrwt>
<rscale>  0 0.34352241E+03</rscale>
<asrwt>0</asrwt>
<pdfrwt beam="1">  1       11 0.10000000E+01 0.33011922E+03</pdfrwt>
<pdfrwt beam="2">  1        2 0.56572403E-01 0.34352241E+03</pdfrwt>
<totfact> 0.10868210E+02</totfact>
</mgrwt>
</event>
<event>
 5    1  0.2675386E-003  0.1141287E+03  0.7818608E-02  0.1572291E+00
         11   -1    0    0    0    0  0.00000000000E+00  0.00000000000E+00  0.10002110835E+04  0.10002110835E+04  0.51100000000E-03 0. -1.
          2   -1    0    0  501    0 -0.00000000000E+00 -0.00000000000E+00 -0.20878677311E+02  0.20878677466E+02  0.25500000000E-02 0. -1.
         11    1    1    2    0    0 -0.19914543802E+02 -0.11094816811E+03  0.56685216695E+03  0.57795109156E+03  0.51100000000E-03 0. -1.
         22    1    1    2    0    0  0.52310110314E+02  0.10875537351E+03  0.25200061521E+03  0.27940720995E+03  0.00000000000E+00 0. -1.
          2    1    1    2  501    0 -0.32395566512E+02  0.21927946003E+01  0.16047962406E+03  0.16373145947E+03  0.25500000000E-02 0. -1.
<mgrwt>
<rscale>  0 0.32469695E+02</rscale>
<asrwt>0</asrwt>
<pdfrwt beam="1">  1       11 0.10000000E+01 0.11412868E+03</pdfrwt>
<pdfrwt beam="2">  1        2 0.32127821E-02 0.32469695E+02</pdfrwt>
<totfact> 0.27737936E+03</totfact>
</mgrwt>
</event>
<event>
 5    1  0.2675386E-003  0.1661283E+03  0.7818608E-02  0.1379109E+00
         11   -1    0    0    0    0  0.00000000000E+00  0.00000000000E+00  0.10000301057E+04  0.10000301057E+04  0.51100000000E-03 0. -1.
          2   -1    0    0  501    0 -0.00000000000E+00 -0.00000000000E+00 -0.34557936007E+03  0.34557936008E+03  0.25500000000E-02 0. -1.
         11    1    1    2    0    0  0.14091610517E+03 -0.87026049272E+02  0.95914795255E+03  0.97334252801E+03  0.51100000000E-03 0. -1.
         22    1    1    2    0    0  0.97242695244E+01 -0.23244684747E+02 -0.54995471134E+02  0.60492798183E+02  0.00000000000E+00 0. -1.
          2    1    1    2  501    0 -0.15064037469E+03  0.11027073402E+03 -0.24970173578E+03  0.31177413960E+03  0.25500000000E-02 0. -1.
<mgrwt>
<rscale>  0 0.64698489E+02</rscale>
<asrwt>0</asrwt>
<pdfrwt beam="1">  1       11 0.10000000E+01 0.16612827E+03</pdfrwt>
<pdfrwt beam="2">  1        2 0.53167654E-01 0.64698489E+02</pdfrwt>
<totfact> 0.11643982E+02</totfact>
</mgrwt>
</event>
<event>
 5    1  0.2675386E-003  0.1326302E+03  0.7818608E-02  0.1223604E+00
         11   -1    0    0    0    0  0.00000000000E+00  0.00000000000E+00  0.99991254598E+03  0.99991254598E+03  0.51100000000E-03 0. -1.
          2   -1    0    0  501    0 -0.00000000000E+00 -0.00000000000E+00 -0.18881298738E+02  0.18881298910E+02  0.25500000000E-02 0. -1.
         11    1    1    2    0    0 -0.94535137735E+02 -0.89236463059E+02  0.63597262911E+03  0.64912342708E+03  0.51100000000E-03 0. -1.
         22    1    1    2    0    0  0.55113919825E+02  0.65405590071E+02  0.20146111486E+03  0.21886529229E+03  0.00000000000E+00 0. -1.
          2    1    1    2  501    0  0.39421217910E+02  0.23830872988E+02  0.14359750327E+03  0.15080512551E+03  0.25500000000E-02 0. -1.
<mgrwt>
<rscale>  0 0.13263019E+03</rscale>
<asrwt>0</asrwt>
<pdfrwt beam="1">  1       11 0.10000000E+01 0.13000015E+03</pdfrwt>
<pdfrwt beam="2">  1        2 0.29045611E-02 0.13263019E+03</pdfrwt>
<totfact> 0.37593946E+03</totfact>
</mgrwt>
</event>
<event>
 5    1  0.2675386E-003  0.1446170E+03  0.7818608E-02  0.1207248E+00
         11   -1    0    0    0    0  0.00000000000E+00  0.00000000000E+00  0.10001606900E+04  0.10001606900E+04  0.51100000000E-03 0. -1.
         -2   -1    0    0    0  501 -0.00000000000E+00 -0.00000000000E+00 -0.20426400300E+02  0.20426400459E+02  0.25500000000E-02 0.  1.
         11    1    1    2    0    0  0.35379935936E+02  0.13597792701E+03  0.51959371060E+03  0.53825585050E+03  0.51100000000E-03 0. -1.
         22    1    1    2    0    0 -0.27469280956E+02 -0.98365573690E+02  0.37945876860E+03  0.39296221771E+03  0.00000000000E+00 0.  1.
         -2    1    1    2    0  501 -0.79106549795E+01 -0.37612353319E+02  0.80681810458E+02  0.89369022204E+02  0.25500000000E-02 0.  1.
<mgrwt>
<rscale>  0 0.14461699E+03</rscale>
<asrwt>0</asrwt>
<pdfrwt beam="1">  1       11 0.10000000E+01 0.14050529E+03</pdfrwt>
<pdfrwt beam="2">  1       -2 0.31430280E-02 0.14461699E+03</pdfrwt>
<totfact> 0.29641708E+03</totfact>
</mgrwt>
</event>
<event>
 5    1  0.2675386E-003  0.8284628E+02  0.7818608E-02  0.1602606E+00
         11   -1    0    0    0    0  0.00000000000E+00  0.00000000000E+00  0.10001241494E+04  0.10001241494E+04  0.51100000000E-03 0. -1.
          2   -1    0    0  501    0 -0.00000000000E+00 -0.00000000000E+00 -0.10771564403E+02  0.10771564705E+02  0.25500000000E-02 0. -1.
         11    1    1    2    0    0 -0.88859471172E+02 -0.96225815371E+01  0.25051211012E+03  0.26597916650E+03  0.51100000000E-03 0. -1.
         22    1    1    2    0    0  0.79705544501E+01  0.69458956230E+01  0.38850588449E+02  0.40263425427E+02  0.00000000000E+00 0.  1.
          2    1    1    2  501    0  0.80888916722E+02  0.26766859141E+01  0.69998988641E+03  0.70465312217E+03  0.25500000000E-02 0. -1.
<mgrwt>
<rscale>  0 0.29595302E+02</rscale>
<asrwt>0</asrwt>
<pdfrwt beam="1">  1       11 0.10000000E+01 0.82846285E+02</pdfrwt>
<pdfrwt beam="2">  1        2 0.16573695E-02 0.29595302E+02</pdfrwt>
<totfact> 0.64178096E+03</totfact>
</mgrwt>
</event>
<event>
 5    1  0.2675386E-003  0.1503152E+03  0.7818608E-02  0.1200086E+00
         11   -1    0    0    0    0  0.00000000000E+00  0.00000000000E+00  0.10001924124E+04  0.10001924124E+04  0.51100000000E-03 0.  1.
          2   -1    0    0  501    0 -0.00000000000E+00 -0.00000000000E+00 -0.37632115116E+02  0.37632115202E+02  0.25500000000E-02 0.  1.
         11    1    1    2    0    0 -0.11063645296E+03 -0.86993440600E+02  0.81542992910E+03  0.82748670848E+03  0.51100000000E-03 0.  1.
         22    1    1    2    0    0  0.48984447118E+02  0.98249302372E+01  0.64325308740E+02  0.81447840107E+02  0.00000000000E+00 0.  1.
          2    1    1    2  501    0  0.61652005837E+02  0.77168510363E+02  0.82805059440E+02  0.12888997902E+03  0.25500000000E-02 0.  1.
<mgrwt>
<rscale>  0 0.15031518E+03</rscale>
<asrwt>0</asrwt>
<pdfrwt beam="1">  1       11 0.10000000E+01 0.14074190E+03</pdfrwt>
<pdfrwt beam="2">  1        2 0.57906700E-02 0.15031518E+03</pdfrwt>
<totfact> 0.15262456E+03</totfact>
</mgrwt>
</event>
<event>
 5    1  0.2675386E-003  0.3565531E+02  0.7818608E-02  0.1580603E+00
         11   -1    0    0    0    0  0.00000000000E+00  0.00000000000E+00  0.10002286500E+04  0.10002286500E+04  0.51100000000E-03 0. -1.
          2   -1    0    0  501    0 -0.00000000000E+00 -0.00000000000E+00 -0.60305068168E+01  0.60305073559E+01  0.25500000000E-02 0. -1.
         11    1    1    2    0    0 -0.55521551907E+02  0.22958178868E+02  0.22805635539E+03  0.23583770253E+03  0.51100000000E-03 0. -1.
         22    1    1    2    0    0  0.27604300990E+02 -0.51623663928E+01  0.11286475810E+03  0.11630606640E+03  0.00000000000E+00 0. -1.
          2    1    1    2  501    0  0.27917250918E+02 -0.17795812475E+02  0.65327702966E+03  0.65411538839E+03  0.25500000000E-02 0. -1.
<mgrwt>
<rscale>  0 0.31643370E+02</rscale>
<asrwt>0</asrwt>
<pdfrwt beam="1">  1       11 0.10000000E+01 0.35655309E+02</pdfrwt>
<pdfrwt beam="2">  1        2 0.92798243E-03 0.31643370E+02</pdfrwt>
<totfact> 0.13921730E+04</totfact>
</mgrwt>
</event>
<event>
 5    1  0.2675386E-003  0.3890830E+03  0.7818608E-02  0.1158592E+00
         11   -1    0    0    0    0  0.00000000000E+00  0.00000000000E+00  0.10000435859E+04  0.10000435859E+04  0.51100000000E-03 0.  1.
          2   -1    0    0  501    0 -0.00000000000E+00 -0.00000000000E+00 -0.44681530113E+03  0.44681530114E+03  0.25500000000E-02 0.  1.
         11    1    1    2    0    0  0.19062803647E+03 -0.33429613884E+03  0.76396632060E+03  0.85541656270E+03  0.51100000000E-03 0.  1.
         22    1    1    2    0    0  0.92157823432E+02  0.94464402471E+01  0.30822956209E+02  0.97633776341E+02  0.00000000000E+00 0.  1.
          2    1    1    2  501    0 -0.28278585990E+03  0.32484969859E+03 -0.24156099201E+03  0.49380854803E+03  0.25500000000E-02 0.  1.
<mgrwt>
<rscale>  0 0.18985500E+03</rscale>
<asrwt>0</asrwt>
<pdfrwt beam="1">  1       11 0.10000000E+01 0.38908298E+03</pdfrwt>
<pdfrwt beam="2">  1        2 0.68743810E-01 0.18985500E+03</pdfrwt>
<totfact> 0.88259212E+01</totfact>
</mgrwt>
</event>
<event>
 5    1  0.2675386E-003  0.2082085E+03  0.7818608E-02  0.1142993E+00
         11   -1    0    0    0    0  0.00000000000E+00  0.00000000000E+00  0.10002884407E+04  0.10002884407E+04  0.51100000000E-03 0. -1.
          2   -1    0    0  501    0 -0.00000000000E+00 -0.00000000000E+00 -0.72215419731E+02  0.72215419776E+02  0.25500000000E-02 0. -1.
         11    1    1    2    0    0 -0.15224460142E+03  0.13253402662E+03  0.80655300889E+03  0.83142735283E+03  0.51100000000E-03 0. -1.
         22    1    1    2    0    0  0.98079353226E+02 -0.70769293690E+02  0.45721855679E+02  0.12929942206E+03  0.00000000000E+00 0. -1.
          2    1    1    2  501    0  0.54165248195E+02 -0.61764732926E+02  0.75798156429E+02  0.11177708562E+03  0.25500000000E-02 0. -1.
<mgrwt>
<rscale>  0 0.20820848E+03</rscale>
<asrwt>0</asrwt>
<pdfrwt beam="1">  1       11 0.10000000E+01 0.20185065E+03</pdfrwt>
<pdfrwt beam="2">  1        2 0.11113269E-01 0.20820848E+03</pdfrwt>
<totfact> 0.68321163E+02</totfact>
</mgrwt>
</event>
<event>
 5    1  0.2675386E-003  0.1314341E+03  0.7818608E-02  0.1453760E+00
         11   -1    0    0    0    0  0.00000000000E+00  0.00000000000E+00  0.10002502798E+04  0.10002502798E+04  0.51100000000E-03 0. -1.
          2   -1    0    0  501    0 -0.00000000000E+00 -0.00000000000E+00 -0.26863885484E+02  0.26863885605E+02  0.25500000000E-02 0. -1.
         11    1    1    2    0    0 -0.63643697455E+01 -0.13490034532E+03  0.74109844690E+03  0.75330307073E+03  0.51100000000E-03 0. -1.
         22    1    1    2    0    0 -0.11467740222E+02  0.13713360210E+02  0.11308790569E+02  0.21153109894E+02  0.00000000000E+00 0. -1.
          2    1    1    2  501    0  0.17832109967E+02  0.12118698511E+03  0.22097915684E+03  0.25265798478E+03  0.25500000000E-02 0. -1.
<mgrwt>
<rscale>  0 0.48472342E+02</rscale>
<asrwt>0</asrwt>
<pdfrwt beam="1">  1       11 0.10000000E+01 0.13143414E+03</pdfrwt>
<pdfrwt beam="2">  1        2 0.41339397E-02 0.48472342E+02</pdfrwt>
<totfact> 0.21177223E+03</totfact>
</mgrwt>
</event>
<event>
 5    1  0.2675386E-003  0.1604830E+03  0.7818608E-02  0.1392972E+00
         11   -1    0    0    0    0  0.00000000000E+00  0.00000000000E+00  0.99997694484E+03  0.99997694484E+03  0.51100000000E-03 0. -1.
          2   -1    0    0  501    0 -0.00000000000E+00 -0.00000000000E+00 -0.47525388832E+02  0.47525388900E+02  0.25500000000E-02 0. -1.
         11    1    1    2    0    0  0.28549135210E+02 -0.16297637497E+03  0.78601336215E+03  0.80323929024E+03  0.51100000000E-03 0. -1.
         22    1    1    2    0    0 -0.14061193404E+02  0.18601922514E+02 -0.18212207031E+00  0.23319130550E+02  0.00000000000E+00 0.  1.
          2    1    1    2  501    0 -0.14487941806E+02  0.14437445246E+03  0.16662031593E+03  0.22094391294E+03  0.25500000000E-02 0. -1.
<mgrwt>
<rscale>  0 0.61173603E+02</rscale>
<asrwt>0</asrwt>
<pdfrwt beam="1">  1       11 0.10000000E+01 0.16048299E+03</pdfrwt>
<pdfrwt beam="2">  1        2 0.73114295E-02 0.61173603E+02</pdfrwt>
<totfact> 0.10582016E+03</totfact>
</mgrwt>
</event>
<event>
 5    1  0.2675386E-003  0.3047022E+03  0.7818608E-02  0.1082913E+00
         11   -1    0    0    0    0  0.00000000000E+00  0.00000000000E+00  0.10004954661E+04  0.10004954661E+04  0.51100000000E-03 0. -1.
          2   -1    0    0  501    0 -0.00000000000E+00 -0.00000000000E+00 -0.11438545448E+03  0.11438545451E+03  0.25500000000E-02 0. -1.
         11    1    1    2    0    0 -0.23046137048E+03 -0.20979112010E+03  0.43604000578E+03  0.53596235315E+03  0.51100000000E-03 0. -1.
         22    1    1    2    0    0 -0.26544217224E+02  0.52221057977E+02  0.10878858682E+03  0.12355804703E+03  0.00000000000E+00 0. -1.
          2    1    1    2  501    0  0.25700558770E+03  0.15757006213E+03  0.34128141901E+03  0.45536052042E+03  0.25500000000E-02 0. -1.
<mgrwt>
<rscale>  0 0.30470220E+03</rscale>
<asrwt>0</asrwt>
<pdfrwt beam="1">  1       11 0.10000000E+01 0.58580153E+02</pdfrwt>
<pdfrwt beam="2">  1        2 0.17606481E-01 0.30470220E+03</pdfrwt>
<totfact> 0.39894389E+02</totfact>
</mgrwt>
</event>
<event>
 5    1  0.2675386E-003  0.2710511E+03  0.7818608E-02  0.1200342E+00
         11   -1    0    0    0    0  0.00000000000E+00  0.00000000000E+00  0.10000322284E+04  0.10000322284E+04  0.51100000000E-03 0.  1.
          2   -1    0    0  501    0 -0.00000000000E+00 -0.00000000000E+00 -0.25433695758E+03  0.25433695759E+03  0.25500000000E-02 0.  1.
         11    1    1    2    0    0  0.15656498808E+03 -0.23121919214E+03  0.85538048385E+03  0.89980591377E+03  0.51100000000E-03 0.  1.
         22    1    1    2    0    0  0.19640780680E+02  0.80775041664E+02 -0.89255170338E+02  0.12197070572E+03  0.00000000000E+00 0.  1.
          2    1    1    2  501    0 -0.17620576876E+03  0.15044415048E+03 -0.20430042654E+02  0.23259256653E+03  0.25500000000E-02 0.  1.
<mgrwt>
<rscale>  0 0.15010696E+03</rscale>
<asrwt>0</asrwt>
<pdfrwt beam="1">  1       11 0.10000000E+01 0.27105105E+03</pdfrwt>
<pdfrwt beam="2">  1        2 0.39130023E-01 0.15010696E+03</pdfrwt>
<totfact> 0.16151529E+02</totfact>
</mgrwt>
</event>
<event>
 5    1  0.2675386E-003  0.1453643E+03  0.7818608E-02  0.1206288E+00
         11   -1    0    0    0    0  0.00000000000E+00  0.00000000000E+00  0.10000692920E+04  0.10000692920E+04  0.51100000000E-03 0. -1.
         -2   -1    0    0    0  501 -0.00000000000E+00 -0.00000000000E+00 -0.22144142583E+02  0.22144142730E+02  0.25500000000E-02 0.  1.
         11    1    1    2    0    0  0.58706949593E+02  0.13000450498E+03  0.61352302283E+03  0.62988743184E+03  0.51100000000E-03 0. -1.
         22    1    1    2    0    0 -0.39872816650E+02 -0.83679436933E+02  0.27045483299E+03  0.28589841966E+03  0.00000000000E+00 0.  1.
         -2    1    1    2    0  501 -0.18834132943E+02 -0.46325068045E+02  0.93947293592E+02  0.10642758323E+03  0.25500000000E-02 0.  1.
<mgrwt>
<rscale>  0 0.14536431E+03</rscale>
<asrwt>0</asrwt>
<pdfrwt beam="1">  1       11 0.10000000E+01 0.14264528E+03</pdfrwt>
<pdfrwt beam="2">  1       -2 0.34070271E-02 0.14536431E+03</pdfrwt>
<totfact> 0.26327049E+03</totfact>
</mgrwt>
</event>
<event>
 5    1  0.2675386E-003  0.1340775E+03  0.7818608E-02  0.1221528E+00
         11   -1    0    0    0    0  0.00000000000E+00  0.00000000000E+00  0.10002600999E+04  0.10002600999E+04  0.51100000000E-03 0.  1.
          2   -1    0    0  501    0 -0.00000000000E+00 -0.00000000000E+00 -0.18202411042E+02  0.18202411221E+02  0.25500000000E-02 0.  1.
         11    1    1    2    0    0  0.12574956356E+02 -0.12694705936E+03  0.60425041540E+03  0.61756963164E+03  0.51100000000E-03 0.  1.
         22    1    1    2    0    0 -0.15483170073E+02  0.37538386920E+02  0.76798212814E+02  0.86872461342E+02  0.00000000000E+00 0. -1.
          2    1    1    2  501    0  0.29082137170E+01  0.89408672440E+02  0.30100906062E+03  0.31402041812E+03  0.25500000000E-02 0.  1.
<mgrwt>
<rscale>  0 0.13407746E+03</rscale>
<asrwt>0</asrwt>
<pdfrwt beam="1">  1       11 0.10000000E+01 0.12756836E+03</pdfrwt>
<pdfrwt beam="2">  1        2 0.28010992E-02 0.13407746E+03</pdfrwt>
<totfact> 0.39519377E+03</totfact>
</mgrwt>
</event>
<event>
 5    1  0.2675386E-003  0.2410104E+03  0.7818608E-02  0.1210899E+00
         11   -1    0    0    0    0  0.00000000000E+00  0.00000000000E+00  0.99992763017E+03  0.99992763017E+03  0.51100000000E-03 0. -1.
          2   -1    0    0  501    0 -0.00000000000E+00 -0.00000000000E+00 -0.31253969298E+03  0.31253969299E+03  0.25500000000E-02 0. -1.
         11    1    1    2    0    0  0.30000766979E+02 -0.22493562629E+03  0.70566685214E+03  0.74125689758E+03  0.51100000000E-03 0. -1.
         22    1    1    2    0    0  0.46049494167E+02  0.34464219893E+03  0.12511451608E+03  0.36953003035E+03  0.00000000000E+00 0. -1.
          2    1    1    2  501    0 -0.76050261146E+02 -0.11970657264E+03 -0.14339343102E+03  0.20168039523E+03  0.25500000000E-02 0. -1.
<mgrwt>
<rscale>  0 0.14182139E+03</rscale>
<asrwt>0</asrwt>
<pdfrwt beam="1">  1       11 0.10000000E+01 0.24101038E+03</pdfrwt>
<pdfrwt beam="2">  1        2 0.48079549E-01 0.14182139E+03</pdfrwt>
<totfact> 0.12970995E+02</totfact>
</mgrwt>
</event>
<event>
 5    1  0.2675386E-003  0.2752289E+03  0.7818608E-02  0.1098324E+00
         11   -1    0    0    0    0  0.00000000000E+00  0.00000000000E+00  0.99986829590E+03  0.99986829590E+03  0.51100000000E-03 0.  1.
          2   -1    0    0  501    0 -0.00000000000E+00 -0.00000000000E+00 -0.69622388598E+03  0.69622388598E+03  0.25500000000E-02 0.  1.
         11    1    1    2    0    0  0.26937559929E+03 -0.14783519812E+02  0.95319481862E+03  0.99063723339E+03  0.51100000000E-03 0.  1.
         22    1    1    2    0    0 -0.58500475733E+02  0.26037002244E+02 -0.14750419946E+03  0.16080335819E+03  0.00000000000E+00 0.  1.
          2    1    1    2  501    0 -0.21087512356E+03 -0.11253482432E+02 -0.50204620923E+03  0.54465159030E+03  0.25500000000E-02 0.  1.
<mgrwt>
<rscale>  0 0.27522891E+03</rscale>
<asrwt>0</asrwt>
<pdfrwt beam="1">  1       11 0.10000000E+01 0.26978096E+03</pdfrwt>
<pdfrwt beam="2">  1        2 0.10709726E+00 0.27522891E+03</pdfrwt>
<totfact> 0.52689179E+01</totfact>
</mgrwt>
</event>
<event>
 5    1  0.2675386E-003  0.1024347E+03  0.7818608E-02  0.1275258E+00
         11   -1    0    0    0    0  0.00000000000E+00  0.00000000000E+00  0.10004851081E+04  0.10004851081E+04  0.51100000000E-03 0. -1.
         -2   -1    0    0    0  501 -0.00000000000E+00 -0.00000000000E+00 -0.22909810627E+02  0.22909810769E+02  0.25500000000E-02 0. -1.
         11    1    1    2    0    0  0.57036955362E+02 -0.34200129153E+02  0.39999459170E+03  0.40548555647E+03  0.51100000000E-03 0. -1.
         22    1    1    2    0    0  0.26318445743E+02 -0.76325103339E+02  0.23112420067E+03  0.24481948069E+03  0.00000000000E+00 0. -1.
         -2    1    1    2    0  501 -0.83355401105E+02  0.11052523249E+03  0.34645650511E+03  0.37308988173E+03  0.25500000000E-02 0. -1.
<mgrwt>
<rscale>  0 0.10243466E+03</rscale>
<asrwt>0</asrwt>
<pdfrwt beam="1">  1       11 0.10000000E+01 0.66504610E+02</pdfrwt>
<pdfrwt beam="2">  1       -2 0.35262960E-02 0.10243466E+03</pdfrwt>
<totfact> 0.24131642E+03</totfact>
</mgrwt>
</event>
<event>
 5    1  0.2675386E-003  0.1005862E+03  0.7818608E-02  0.1279068E+00
         11   -1    0    0    0    0  0.00000000000E+00  0.00000000000E+00  0.10000454654E+04  0.10000454654E+04  0.51100000000E-03 0. -1.
          2   -1    0    0  501    0 -0.00000000000E+00 -0.00000000000E+00 -0.99855847151E+01  0.99855850407E+01  0.25500000000E-02 0. -1.
         11    1    1    2    0    0 -0.71809041227E+02  0.68544381191E+02  0.49427178077E+03  0.50414230516E+03  0.51100000000E-03 0. -1.
         22    1    1    2    0    0  0.15976825878E+02 -0.70281861031E+01  0.79827000135E+02  0.81712938483E+02  0.00000000000E+00 0. -1.
          2    1    1    2  501    0  0.55832215349E+02 -0.61516195088E+02  0.41596109980E+03  0.42417580681E+03  0.25500000000E-02 0. -1.
<mgrwt>
<rscale>  0 0.10058619E+03</rscale>
<asrwt>0</asrwt>
<pdfrwt beam="1">  1       11 0.10000000E+01 0.99271701E+02</pdfrwt>
<pdfrwt beam="2">  1        2 0.15363136E-02 0.10058619E+03</pdfrwt>
<totfact> 0.86200203E+03</totfact>
</mgrwt>
</event>
<event>
 5    1  0.2675386E-003  0.1796833E+03  0.7818608E-02  0.1168110E+00
         11   -1    0    0    0    0  0.00000000000E+00  0.00000000000E+00  0.10006082108E+04  0.10006082108E+04  0.51100000000E-03 0.  1.
          2   -1    0    0  501    0 -0.00000000000E+00 -0.00000000000E+00 -0.70979455994E+02  0.70979456040E+02  0.25500000000E-02 0. -1.
         11    1    1    2    0    0 -0.59603981049E+02 -0.16231763985E+03  0.86267745770E+03  0.87983637501E+03  0.51100000000E-03 0.  1.
         22    1    1    2    0    0  0.59661046724E+02  0.97055424534E+02  0.35672676881E+02  0.11938063412E+03  0.00000000000E+00 0.  1.
          2    1    1    2  501    0 -0.57065675579E-01  0.65262215313E+02  0.31278620183E+02  0.72370657667E+02  0.25500000000E-02 0. -1.
<mgrwt>
<rscale>  0 0.17968328E+03</rscale>
<asrwt>0</asrwt>
<pdfrwt beam="1">  1       11 0.10000000E+01 0.17291515E+03</pdfrwt>
<pdfrwt beam="2">  1        2 0.10926558E-01 0.17968328E+03</pdfrwt>
<totfact> 0.69260145E+02</totfact>
</mgrwt>
</event>
<event>
 5    1  0.2675386E-003  0.2438720E+03  0.7818608E-02  0.1117240E+00
         11   -1    0    0    0    0  0.00000000000E+00  0.00000000000E+00  0.10004475109E+04  0.10004475109E+04  0.51100000000E-03 0. -1.
          2   -1    0    0  501    0 -0.00000000000E+00 -0.00000000000E+00 -0.16461456556E+03  0.16461456558E+03  0.25500000000E-02 0. -1.
         11    1    1    2    0    0  0.22882093200E+03  0.70283371409E+02  0.88455452755E+03  0.91637082201E+03  0.51100000000E-03 0. -1.
         22    1    1    2    0    0 -0.18808204717E+02 -0.49159458014E+01 -0.18205784781E+02  0.26633919863E+02  0.00000000000E+00 0. -1.
          2    1    1    2  501    0 -0.21001272728E+03 -0.65367425608E+02 -0.30515797431E+02  0.22205733460E+03  0.25500000000E-02 0. -1.
<mgrwt>
<rscale>  0 0.24387199E+03</rscale>
<asrwt>0</asrwt>
<pdfrwt beam="1">  1       11 0.10000000E+01 0.23937162E+03</pdfrwt>
<pdfrwt beam="2">  1        2 0.25336650E-01 0.24387199E+03</pdfrwt>
<totfact> 0.26146895E+02</totfact>
</mgrwt>
</event>
<event>
 5    1  0.2675386E-003  0.2017269E+03  0.7818608E-02  0.1255579E+00
         11   -1    0    0    0    0  0.00000000000E+00  0.00000000000E+00  0.10002604942E+04  0.10002604942E+04  0.51100000000E-03 0. -1.
         -2   -1    0    0    0  501 -0.00000000000E+00 -0.00000000000E+00 -0.35194350722E+03  0.35194350723E+03  0.25500000000E-02 0.  1.
         11    1    1    2    0    0 -0.13673491970E+03 -0.15108691292E+03  0.94961973549E+03  0.97123701307E+03  0.51100000000E-03 0. -1.
         22    1    1    2    0    0  0.57339261154E+02  0.26117018388E+02 -0.25570137728E+02  0.67997951900E+02  0.00000000000E+00 0.  1.
         -2    1    1    2    0  501  0.79395658549E+02  0.12496989453E+03 -0.27573261077E+03  0.31296903647E+03  0.25500000000E-02 0.  1.
<mgrwt>
<rscale>  0 0.11273961E+03</rscale>
<asrwt>0</asrwt>
<pdfrwt beam="1">  1       11 0.10000000E+01 0.20172691E+03</pdfrwt>
<pdfrwt beam="2">  1       -2 0.54159258E-01 0.11273961E+03</pdfrwt>
<totfact> 0.26603407E+01</totfact>
</mgrwt>
</event>
<event>
 5    1  0.2675386E-003  0.1626416E+03  0.7818608E-02  0.1185746E+00
         11   -1    0    0    0    0  0.00000000000E+00  0.00000000000E+00  0.10004080504E+04  0.10004080504E+04  0.51100000000E-03 0.  1.
          2   -1    0    0  501    0 -0.00000000000E+00 -0.00000000000E+00 -0.24726980813E+02  0.24726980945E+02  0.25500000000E-02 0.  1.
         11    1    1    2    0    0  0.18643279406E+02 -0.15076205179E+03  0.47496553568E+03  0.49866725199E+03  0.51100000000E-03 0.  1.
         22    1    1    2    0    0  0.88653789300E+01  0.77725054623E+02  0.32355969859E+03  0.33288234801E+03  0.00000000000E+00 0.  1.
          2    1    1    2  501    0 -0.27508658336E+02  0.73036997167E+02  0.17715583536E+03  0.19358543139E+03  0.25500000000E-02 0.  1.
<mgrwt>
<rscale>  0 0.16264156E+03</rscale>
<asrwt>0</asrwt>
<pdfrwt beam="1">  1       11 0.10000000E+01 0.15191040E+03</pdfrwt>
<pdfrwt beam="2">  1        2 0.38057031E-02 0.16264156E+03</pdfrwt>
<totfact> 0.26688245E+03</totfact>
</mgrwt>
</event>
<event>
 5    1  0.2675386E-003  0.1533658E+03  0.7818608E-02  0.1424308E+00
         11   -1    0    0    0    0  0.00000000000E+00  0.00000000000E+00  0.10003881767E+04  0.10003881767E+04  0.51100000000E-03 0. -1.
          2   -1    0    0  501    0 -0.00000000000E+00 -0.00000000000E+00 -0.58833633920E+02  0.58833633975E+02  0.25500000000E-02 0. -1.
         11    1    1    2    0    0 -0.52325971316E+02  0.14104676846E+03  0.66829235819E+03  0.68501596637E+03  0.51100000000E-03 0. -1.
         22    1    1    2    0    0  0.10643055085E+03 -0.13976097658E+03  0.12288366607E+03  0.21438513968E+03  0.00000000000E+00 0. -1.
          2    1    1    2  501    0 -0.54104579532E+02 -0.12857918768E+01  0.15037851848E+03  0.15982070459E+03  0.25500000000E-02 0. -1.
<mgrwt>
<rscale>  0 0.54119856E+02</rscale>
<asrwt>0</asrwt>
<pdfrwt beam="1">  1       11 0.10000000E+01 0.15336578E+03</pdfrwt>
<pdfrwt beam="2">  1        2 0.90548416E-02 0.54119856E+02</pdfrwt>
<totfact> 0.80731338E+02</totfact>
</mgrwt>
</event>
<event>
 5    1  0.2675386E-003  0.1448961E+03  0.7818608E-02  0.1216842E+00
         11   -1    0    0    0    0  0.00000000000E+00  0.00000000000E+00  0.10001666028E+04  0.10001666028E+04  0.51100000000E-03 0.  1.
          2   -1    0    0  501    0 -0.00000000000E+00 -0.00000000000E+00 -0.53670751975E+02  0.53670752035E+02  0.25500000000E-02 0. -1.
         11    1    1    2    0    0 -0.64322708642E+02 -0.15265675757E+03  0.48682060116E+03  0.51423320992E+03  0.51100000000E-03 0.  1.
         22    1    1    2    0    0  0.12898931629E+03  0.18657550513E+02  0.17279608624E+03  0.21643667741E+03  0.00000000000E+00 0.  1.
          2    1    1    2  501    0 -0.64666607643E+02  0.13399920706E+03  0.28687916341E+03  0.32316746749E+03  0.25500000000E-02 0. -1.
<mgrwt>
<rscale>  0 0.13742110E+03</rscale>
<asrwt>0</asrwt>
<pdfrwt beam="1">  1       11 0.10000000E+01 0.14489614E+03</pdfrwt>
<pdfrwt beam="2">  1        2 0.82584142E-02 0.13742110E+03</pdfrwt>
<totfact> 0.96499265E+02</totfact>
</mgrwt>
</event>
<event>
 5    1  0.2675386E-003  0.3227640E+02  0.7818608E-02  0.1687502E+00
         11   -1    0    0    0    0  0.00000000000E+00  0.00000000000E+00  0.99990069133E+03  0.99990069133E+03  0.51100000000E-03 0.  1.
          2   -1    0    0  501    0 -0.00000000000E+00 -0.00000000000E+00 -0.39785008375E+01  0.39785016547E+01  0.25500000000E-02 0.  1.
         11    1    1    2    0    0 -0.30084912163E+02  0.75738090804E+01  0.13441271881E+03  0.13794652406E+03  0.51100000000E-03 0.  1.
         22    1    1    2    0    0  0.34457427721E+02  0.15260536658E+02  0.17418384493E+03  0.17821394485E+03  0.00000000000E+00 0.  1.
          2    1    1    2  501    0 -0.43725155578E+01 -0.22834345739E+02  0.68732562675E+03  0.68771872407E+03  0.25500000000E-02 0.  1.
<mgrwt>
<rscale>  0 0.23249220E+02</rscale>
<asrwt>0</asrwt>
<pdfrwt beam="1">  1       11 0.10000000E+01 0.32276398E+02</pdfrwt>
<pdfrwt beam="2">  1        2 0.61201631E-03 0.23249220E+02</pdfrwt>
<totfact> 0.22429121E+04</totfact>
</mgrwt>
</event>
<event>
 5    1  0.2675386E-003  0.8965708E+02  0.7818608E-02  0.1525223E+00
         11   -1    0    0    0    0  0.00000000000E+00  0.00000000000E+00  0.99985483757E+03  0.99985483757E+03  0.51100000000E-03 0. -1.
          2   -1    0    0  501    0 -0.00000000000E+00 -0.00000000000E+00 -0.20185494623E+02  0.20185494784E+02  0.25500000000E-02 0. -1.
         11    1    1    2    0    0 -0.47747195168E+02 -0.77740071408E+02  0.10988315649E+03  0.14282024166E+03  0.51100000000E-03 0. -1.
         22    1    1    2    0    0 -0.11749937213E+02  0.10740182790E+02  0.48168713569E+02  0.50731031113E+02  0.00000000000E+00 0.  1.
          2    1    1    2  501    0  0.59497132380E+02  0.66999888618E+02  0.82161747290E+03  0.82648905958E+03  0.25500000000E-02 0. -1.
<mgrwt>
<rscale>  0 0.37778893E+02</rscale>
<asrwt>0</asrwt>
<pdfrwt beam="1">  1       11 0.10000000E+01 0.89657084E+02</pdfrwt>
<pdfrwt beam="2">  1        2 0.31050098E-02 0.37778893E+02</pdfrwt>
<totfact> 0.29604656E+03</totfact>
</mgrwt>
</event>
<event>
 5    1  0.2675386E-003  0.1973568E+03  0.7818608E-02  0.1299902E+00
         11   -1    0    0    0    0  0.00000000000E+00  0.00000000000E+00  0.10000971644E+04  0.10000971644E+04  0.51100000000E-03 0.  1.
          2   -1    0    0  501    0 -0.00000000000E+00 -0.00000000000E+00 -0.65743211313E+02  0.65743211362E+02  0.25500000000E-02 0.  1.
         11    1    1    2    0    0 -0.11864882267E+03 -0.16608831691E+03  0.66434262928E+03  0.69499208716E+03  0.51100000000E-03 0.  1.
         22    1    1    2    0    0 -0.17760857755E+02  0.38248548759E+02 -0.31684932819E+00  0.42172265102E+02  0.00000000000E+00 0. -1.
          2    1    1    2  501    0  0.13640968042E+03  0.12783976815E+03  0.27032817317E+03  0.32867602354E+03  0.25500000000E-02 0.  1.
<mgrwt>
<rscale>  0 0.91229109E+02</rscale>
<asrwt>0</asrwt>
<pdfrwt beam="1">  1       11 0.10000000E+01 0.19735685E+03</pdfrwt>
<pdfrwt beam="2">  1        2 0.10115323E-01 0.91229109E+02</pdfrwt>
<totfact> 0.73260065E+02</totfact>
</mgrwt>
</event>
<event>
 5    1  0.2675386E-003  0.1691910E+03  0.7818608E-02  0.1178694E+00
         11   -1    0    0    0    0  0.00000000000E+00  0.00000000000E+00  0.10002872226E+04  0.10002872226E+04  0.51100000000E-03 0.  1.
         -2   -1    0    0    0  501 -0.00000000000E+00 -0.00000000000E+00 -0.91057566569E+02  0.91057566604E+02  0.25500000000E-02 0. -1.
         11    1    1    2    0    0  0.14425623262E+03 -0.77267772137E+02  0.90750832169E+03  0.92214506624E+03  0.51100000000E-03 0.  1.
         22    1    1    2    0    0 -0.37814911499E+02  0.37795039565E+02 -0.12159423697E+02  0.54829591755E+02  0.00000000000E+00 0. -1.
         -2    1    1    2    0  501 -0.10644132112E+03  0.39472732572E+02  0.13880758022E+02  0.11437013119E+03  0.25500000000E-02 0. -1.
<mgrwt>
<rscale>  0 0.16919097E+03</rscale>
<asrwt>0</asrwt>
<pdfrwt beam="1">  1       11 0.10000000E+01 0.16364648E+03</pdfrwt>
<pdfrwt beam="2">  1       -2 0.14012880E-01 0.16919097E+03</pdfrwt>
<totfact> 0.30101905E+02</totfact>
</mgrwt>
</event>
<event>
 5    1  0.2675386E-003  0.3496588E+03  0.7818608E-02  0.1486986E+00
         11   -1    0    0    0    0  0.00000000000E+00  0.00000000000E+00  0.10001475791E+04  0.10001475791E+04  0.51100000000E-03 0. -1.
          2   -1    0    0  501    0 -0.00000000000E+00 -0.00000000000E+00 -0.51107318114E+03  0.51107318115E+03  0.25500000000E-02 0. -1.
         11    1    1    2    0    0 -0.12263934240E+03 -0.33038089018E+03  0.89442157454E+03  0.96134379589E+03  0.51100000000E-03 0. -1.
         22    1    1    2    0    0  0.85963581834E+02  0.30786379867E+03 -0.31003667188E+03  0.44530056574E+03  0.00000000000E+00 0. -1.
          2    1    1    2  501    0  0.36675760564E+02  0.22517091508E+02 -0.95310504727E+02  0.10457639858E+03  0.25500000000E-02 0. -1.
<mgrwt>
<rscale>  0 0.43036390E+02</rscale>
<asrwt>0</asrwt>
<pdfrwt beam="1">  1       11 0.10000000E+01 0.34965877E+03</pdfrwt>
<pdfrwt beam="2">  1        2 0.78638245E-01 0.43036390E+02</pdfrwt>
<totfact> 0.77746433E+01</totfact>
</mgrwt>
</event>
<event>
 5    1  0.2675386E-003  0.2042850E+03  0.7818608E-02  0.1246053E+00
         11   -1    0    0    0    0  0.00000000000E+00  0.00000000000E+00  0.10005313685E+04  0.10005313685E+04  0.51100000000E-03 0.  1.
          2   -1    0    0  501    0 -0.00000000000E+00 -0.00000000000E+00 -0.29098927700E+03  0.29098927701E+03  0.25500000000E-02 0.  1.
         11    1    1    2    0    0 -0.32920501230E+02 -0.20597265677E+03  0.88227779925E+03  0.90659947595E+03  0.51100000000E-03 0.  1.
         22    1    1    2    0    0 -0.81720273489E+02  0.17707865921E+03 -0.26414995924E+02  0.19680652087E+03  0.00000000000E+00 0. -1.
          2    1    1    2  501    0  0.11464077472E+03  0.28893997563E+02 -0.14632071184E+03  0.18811464867E+03  0.25500000000E-02 0.  1.
<mgrwt>
<rscale>  0 0.11822593E+03</rscale>
<asrwt>0</asrwt>
<pdfrwt beam="1">  1       11 0.10000000E+01 0.20428505E+03</pdfrwt>
<pdfrwt beam="2">  1        2 0.44791368E-01 0.11822593E+03</pdfrwt>
<totfact> 0.13968163E+02</totfact>
</mgrwt>
</event>
<event>
 5    1  0.2675386E-003  0.6779889E+03  0.7818608E-02  0.1055615E+00
         11   -1    0    0    0    0  0.00000000000E+00  0.00000000000E+00  0.10008166191E+04  0.10008166191E+04  0.51100000000E-03 0. -1.
          2   -1    0    0  501    0 -0.00000000000E+00 -0.00000000000E+00 -0.21264103750E+04  0.21264103750E+04  0.25500000000E-02 0. -1.
         11    1    1    2    0    0 -0.30439749763E+03 -0.63724862307E+03  0.77187170036E+03  0.10461976706E+04  0.51100000000E-03 0. -1.
         22    1    1    2    0    0  0.31359988217E+03  0.26976470713E+03 -0.14165393249E+04  0.14757037447E+04  0.00000000000E+00 0. -1.
          2    1    1    2  501    0 -0.92023845402E+01  0.36748391594E+03 -0.48092613146E+03  0.60532557874E+03  0.25500000000E-02 0. -1.
<mgrwt>
<rscale>  0 0.36759912E+03</rscale>
<asrwt>0</asrwt>
<pdfrwt beam="1">  1       11 0.10000000E+01 0.67798888E+03</pdfrwt>
<pdfrwt beam="2">  1        2 0.32740720E+00 0.36759912E+03</pdfrwt>
<totfact> 0.77266044E+00</totfact>
</mgrwt>
</event>
<event>
 5    1  0.2675386E-003  0.6420280E+02  0.7818608E-02  0.1380996E+00
         11   -1    0    0    0    0  0.00000000000E+00  0.00000000000E+00  0.99980986381E+03  0.99980986381E+03  0.51100000000E-03 0.  1.
          2   -1    0    0  501    0 -0.00000000000E+00 -0.00000000000E+00 -0.97681558602E+01  0.97681561930E+01  0.25500000000E-02 0.  1.
         11    1    1    2    0    0  0.19128345678E+02 -0.65834154490E+02  0.14259088329E+03  0.15821564241E+03  0.51100000000E-03 0.  1.
         22    1    1    2    0    0 -0.19382491979E+02  0.19866121217E+02  0.16106089667E+03  0.16343486838E+03  0.00000000000E+00 0.  1.
          2    1    1    2  501    0  0.25414630031E+00  0.45968033273E+02  0.68638992799E+03  0.68792750921E+03  0.25500000000E-02 0.  1.
<mgrwt>
<rscale>  0 0.64202805E+02</rscale>
<asrwt>0</asrwt>
<pdfrwt beam="1">  1       11 0.10000000E+01 0.27755067E+02</pdfrwt>
<pdfrwt beam="2">  1        2 0.15025075E-02 0.64202805E+02</pdfrwt>
<totfact> 0.83225737E+03</totfact>
</mgrwt>
</event>
<event>
 5    1  0.2675386E-003  0.2583976E+03  0.7818608E-02  0.1370275E+00
         11   -1    0    0    0    0  0.00000000000E+00  0.00000000000E+00  0.10003254135E+04  0.10003254135E+04  0.51100000000E-03 0.  1.
          2   -1    0    0  501    0 -0.00000000000E+00 -0.00000000000E+00 -0.10357103907E+03  0.10357103910E+03  0.25500000000E-02 0.  1.
         11    1    1    2    0    0 -0.25256753247E+03 -0.68831624206E+02  0.72698578396E+03  0.77268135802E+03  0.51100000000E-03 0.  1.
         22    1    1    2    0    0  0.92316015904E+01  0.14772238801E+02 -0.13322568400E+02  0.21930169536E+02  0.00000000000E+00 0. -1.
          2    1    1    2  501    0  0.24333593088E+03  0.54059385405E+02  0.18309115890E+03  0.30928492508E+03  0.25500000000E-02 0.  1.
<mgrwt>
<rscale>  0 0.67090797E+02</rscale>
<asrwt>0</asrwt>
<pdfrwt beam="1">  1       11 0.10000000E+01 0.25839756E+03</pdfrwt>
<pdfrwt beam="2">  1        2 0.15939191E-01 0.67090797E+02</pdfrwt>
<totfact> 0.42218076E+02</totfact>
</mgrwt>
</event>
<event>
 5    1  0.2675386E-003  0.1813583E+03  0.7818608E-02  0.1166495E+00
         11   -1    0    0    0    0  0.00000000000E+00  0.00000000000E+00  0.99999941300E+03  0.99999941300E+03  0.51100000000E-03 0. -1.
          2   -1    0    0  501    0 -0.00000000000E+00 -0.00000000000E+00 -0.12945131957E+03  0.12945131960E+03  0.25500000000E-02 0. -1.
         11    1    1    2    0    0 -0.53949732956E+02  0.17017497764E+03  0.92343930434E+03  0.94053721112E+03  0.51100000000E-03 0. -1.
         22    1    1    2    0    0  0.57537180053E+02 -0.14916469931E+03 -0.44017229163E+02  0.16582566470E+03  0.00000000000E+00 0. -1.
          2    1    1    2  501    0 -0.35874470972E+01 -0.21010278331E+02 -0.88739817489E+01  0.23087856782E+02  0.25500000000E-02 0. -1.
<mgrwt>
<rscale>  0 0.18135831E+03</rscale>
<asrwt>0</asrwt>
<pdfrwt beam="1">  1       11 0.10000000E+01 0.17852198E+03</pdfrwt>
<pdfrwt beam="2">  1        2 0.19915575E-01 0.18135831E+03</pdfrwt>
<totfact> 0.34067352E+02</totfact>
</mgrwt>
</event>
<event>
 5    1  0.2675386E-003  0.8718434E+02  0.7818608E-02  0.1309817E+00
         11   -1    0    0    0    0  0.00000000000E+00  0.00000000000E+00  0.99999834377E+03  0.99999834377E+03  0.51100000000E-03 0.  1.
          2   -1    0    0  501    0 -0.00000000000E+00 -0.00000000000E+00 -0.77725676912E+01  0.77725681095E+01  0.25500000000E-02 0.  1.
         11    1    1    2    0    0 -0.18553804272E+02 -0.83189838745E+02  0.38527914841E+03  0.39459449454E+03  0.51100000000E-03 0.  1.
         22    1    1    2    0    0  0.26831417561E+01  0.35782419978E+02  0.20288254197E+03  0.20603132447E+03  0.00000000000E+00 0.  1.
          2    1    1    2  501    0  0.15870662516E+02  0.47407418767E+02  0.40406408570E+03  0.40714509287E+03  0.25500000000E-02 0.  1.
<mgrwt>
<rscale>  0 0.87184345E+02</rscale>
<asrwt>0</asrwt>
<pdfrwt beam="1">  1       11 0.10000000E+01 0.85233797E+02</pdfrwt>
<pdfrwt beam="2">  1        2 0.11957777E-02 0.87184345E+02</pdfrwt>
<totfact> 0.11881291E+04</totfact>
</mgrwt>
</event>
<event>
 5    1  0.2675386E-003  0.1756688E+03  0.7818608E-02  0.1172062E+00
         11   -1    0    0    0    0  0.00000000000E+00  0.00000000000E+00  0.10000971937E+04  0.10000971937E+04  0.51100000000E-03 0.  1.
         -2   -1    0    0    0  501 -0.00000000000E+00 -0.00000000000E+00 -0.61356672472E+02  0.61356672525E+02  0.25500000000E-02 0. -1.
         11    1    1    2    0    0 -0.16386827297E+03  0.33516154386E+02  0.84683709798E+03  0.86319708873E+03  0.51100000000E-03 0.  1.
         22    1    1    2    0    0  0.37451269762E+02 -0.23680136231E+02  0.51224890902E+01  0.44604779488E+02  0.00000000000E+00 0. -1.
         -2    1    1    2    0  501  0.12641700321E+03 -0.98360181551E+01  0.86780934197E+02  0.15365199804E+03  0.25500000000E-02 0. -1.
<mgrwt>
<rscale>  0 0.17566875E+03</rscale>
<asrwt>0</asrwt>
<pdfrwt beam="1">  1       11 0.10000000E+01 0.16726071E+03</pdfrwt>
<pdfrwt beam="2">  1       -2 0.94404053E-02 0.17566875E+03</pdfrwt>
<totfact> 0.56747477E+02</totfact>
</mgrwt>
</event>
<event>
 5    1  0.2675386E-003  0.2313250E+03  0.7818608E-02  0.1125711E+00
         11   -1    0    0    0    0  0.00000000000E+00  0.00000000000E+00  0.10002915016E+04  0.10002915016E+04  0.51100000000E-03 0. -1.
          2   -1    0    0  501    0 -0.00000000000E+00 -0.00000000000E+00 -0.61885425784E+02  0.61885425837E+02  0.25500000000E-02 0. -1.
         11    1    1    2    0    0  0.22496032466E+03 -0.38607259687E+02  0.67016034446E+03  0.70796366818E+03  0.51100000000E-03 0. -1.
         22    1    1    2    0    0 -0.25753775081E+02  0.11543805180E+02  0.50519049085E+02  0.57867872688E+02  0.00000000000E+00 0. -1.
          2    1    1    2  501    0 -0.19920654958E+03  0.27063454507E+02  0.21772668228E+03  0.29634538658E+03  0.25500000000E-02 0. -1.
<mgrwt>
<rscale>  0 0.23132501E+03</rscale>
<asrwt>0</asrwt>
<pdfrwt beam="1">  1       11 0.10000000E+01 0.22824914E+03</pdfrwt>
<pdfrwt beam="2">  1        2 0.95236098E-02 0.23132501E+03</pdfrwt>
<totfact> 0.83155759E+02</totfact>
</mgrwt>
</event>
<event>
 5    1  0.2675386E-003  0.1663079E+03  0.7818608E-02  0.1181754E+00
         11   -1    0    0    0    0  0.00000000000E+00  0.00000000000E+00  0.10003138880E+04  0.10003138880E+04  0.51100000000E-03 0. -1.
          2   -1    0    0  501    0 -0.00000000000E+00 -0.00000000000E+00 -0.58768846381E+02  0.58768846436E+02  0.25500000000E-02 0. -1.
         11    1    1    2    0    0  0.79888634971E+02  0.14231159047E+03  0.85722165050E+03  0.87261889784E+03  0.51100000000E-03 0. -1.
         22    1    1    2    0    0 -0.58228586525E+02 -0.12040249799E+03  0.57368999367E+02  0.14552845735E+03  0.00000000000E+00 0. -1.
          2    1    1    2  501    0 -0.21660048446E+02 -0.21909092472E+02  0.26954391718E+02  0.40935379210E+02  0.25500000000E-02 0. -1.
<mgrwt>
<rscale>  0 0.16630793E+03</rscale>
<asrwt>0</asrwt>
<pdfrwt beam="1">  1       11 0.10000000E+01 0.16320166E+03</pdfrwt>
<pdfrwt beam="2">  1        2 0.90441987E-02 0.16630793E+03</pdfrwt>
<totfact> 0.87133409E+02</totfact>
</mgrwt>
</event>
<event>
 5    1  0.2675386E-003  0.3800151E+03  0.7818608E-02  0.1050928E+00
         11   -1    0    0    0    0  0.00000000000E+00  0.00000000000E+00  0.10002642722E+04  0.10002642722E+04  0.51100000000E-03 0. -1.
          2   -1    0    0  501    0 -0.00000000000E+00 -0.00000000000E+00 -0.97734063086E+03  0.97734063086E+03  0.25500000000E-02 0. -1.
         11    1    1    2    0    0  0.37275095867E+03 -0.59445653297E+02  0.92483832348E+03  0.99890088971E+03  0.51100000000E-03 0. -1.
         22    1    1    2    0    0 -0.18169839530E+02 -0.65939984187E+01 -0.44569787409E+02  0.48580755793E+02  0.00000000000E+00 0.  1.
          2    1    1    2  501    0 -0.35458111914E+03  0.66039651716E+02 -0.85734489475E+03  0.93012325754E+03  0.25500000000E-02 0. -1.
<mgrwt>
<rscale>  0 0.38001507E+03</rscale>
<asrwt>0</asrwt>
<pdfrwt beam="1">  1       11 0.10000000E+01 0.37746134E+03</pdfrwt>
<pdfrwt beam="2">  1        2 0.15039983E+00 0.38001507E+03</pdfrwt>
<totfact> 0.33385135E+01</totfact>
</mgrwt>
</event>
<event>
 5    1  0.2675386E-003  0.6178549E+03  0.7818608E-02  0.1240431E+00
         11   -1    0    0    0    0  0.00000000000E+00  0.00000000000E+00  0.10003783813E+04  0.10003783813E+04  0.51100000000E-03 0.  1.
          2   -1    0    0  501    0 -0.00000000000E+00 -0.00000000000E+00 -0.41956944241E+03  0.41956944242E+03  0.25500000000E-02 0. -1.
         11    1    1    2    0    0  0.10904303761E+03  0.61156934409E+03  0.44793043402E+03  0.76586494920E+03  0.51100000000E-03 0.  1.
         22    1    1    2    0    0  0.20447144133E+02 -0.12459635525E+02 -0.78369771380E+01  0.25194174550E+02  0.00000000000E+00 0.  1.
          2    1    1    2  501    0 -0.12949018175E+03 -0.59910970856E+03  0.14071548200E+03  0.62888869997E+03  0.25500000000E-02 0. -1.
<mgrwt>
<rscale>  0 0.12163094E+03</rscale>
<asrwt>0</asrwt>
<pdfrwt beam="1">  1       11 0.10000000E+01 0.61785490E+03</pdfrwt>
<pdfrwt beam="2">  1        2 0.64573567E-01 0.12163094E+03</pdfrwt>
<totfact> 0.94828371E+01</totfact>
</mgrwt>
</event>
<event>
 5    1  0.2675386E-003  0.4502038E+03  0.7818608E-02  0.1122933E+00
         11   -1    0    0    0    0  0.00000000000E+00  0.00000000000E+00  0.10002015458E+04  0.10002015458E+04  0.51100000000E-03 0. -1.
          2   -1    0    0  501    0 -0.00000000000E+00 -0.00000000000E+00 -0.37548549833E+03  0.37548549834E+03  0.25500000000E-02 0. -1.
         11    1    1    2    0    0  0.41535816969E+03  0.18171967112E+03  0.35008618759E+02  0.45471975038E+03  0.51100000000E-03 0. -1.
         22    1    1    2    0    0 -0.28220084385E+03 -0.37577297663E+03  0.35870719340E+03  0.59119666510E+03  0.00000000000E+00 0. -1.
          2    1    1    2  501    0 -0.13315732584E+03  0.19405330551E+03  0.23100023530E+03  0.32977062865E+03  0.25500000000E-02 0. -1.
<mgrwt>
<rscale>  0 0.23534562E+03</rscale>
<asrwt>0</asrwt>
<pdfrwt beam="1">  1       11 0.10000000E+01 0.45020380E+03</pdfrwt>
<pdfrwt beam="2">  1        2 0.57778641E-01 0.23534562E+03</pdfrwt>
<totfact> 0.10643847E+02</totfact>
</mgrwt>
</event>
<event>
 5    1  0.2675386E-003  0.9517428E+02  0.7818608E-02  0.1405808E+00
         11   -1    0    0    0    0  0.00000000000E+00  0.00000000000E+00  0.10003214429E+04  0.10003214429E+04  0.51100000000E-03 0. -1.
          2   -1    0    0  501    0 -0.00000000000E+00 -0.00000000000E+00 -0.18629887107E+02  0.18629887282E+02  0.25500000000E-02 0. -1.
         11    1    1    2    0    0 -0.39559195088E+02  0.10055421532E+03  0.58107199792E+03  0.59103362586E+03  0.51100000000E-03 0. -1.
         22    1    1    2    0    0  0.31617234969E+02 -0.16179178356E+02  0.26483762001E+02  0.44303555264E+02  0.00000000000E+00 0. -1.
          2    1    1    2  501    0  0.79419601190E+01 -0.84375036969E+02  0.37413579586E+03  0.38361414904E+03  0.25500000000E-02 0. -1.
<mgrwt>
<rscale>  0 0.58139891E+02</rscale>
<asrwt>0</asrwt>
<pdfrwt beam="1">  1       11 0.10000000E+01 0.95174275E+02</pdfrwt>
<pdfrwt beam="2">  1        2 0.28670577E-02 0.58139891E+02</pdfrwt>
<totfact> 0.34779169E+03</totfact>
</mgrwt>
</event>
<event>
 5    1  0.2675386E-003  0.1343820E+03  0.7818608E-02  0.1221095E+00
         11   -1    0    0    0    0  0.00000000000E+00  0.00000000000E+00  0.10003540069E+04  0.10003540069E+04  0.51100000000E-03 0. -1.
          2   -1    0    0  501    0 -0.00000000000E+00 -0.00000000000E+00 -0.20184526446E+02  0.20184526607E+02  0.25500000000E-02 0. -1.
         11    1    1    2    0    0 -0.84102031562E+02  0.96405677843E+02  0.28354070939E+03  0.31106677790E+03  0.51100000000E-03 0. -1.
         22    1    1    2    0    0  0.81172431775E+01 -0.31918202470E+02  0.12761477527E+03  0.13179602480E+03  0.00000000000E+00 0. -1.
          2    1    1    2  501    0  0.75984788384E+02 -0.64487475374E+02  0.56901399580E+03  0.57767573081E+03  0.25500000000E-02 0. -1.
<mgrwt>
<rscale>  0 0.13438202E+03</rscale>
<asrwt>0</asrwt>
<pdfrwt beam="1">  1       11 0.10000000E+01 0.12793445E+03</pdfrwt>
<pdfrwt beam="2">  1        2 0.31064110E-02 0.13438202E+03</pdfrwt>
<totfact> 0.34394954E+03</totfact>
</mgrwt>
</event>
<event>
 5    1  0.2675386E-003  0.1919906E+03  0.7818608E-02  0.1156678E+00
         11   -1    0    0    0    0  0.00000000000E+00  0.00000000000E+00  0.10002713134E+04  0.10002713134E+04  0.51100000000E-03 0.  1.
         -2   -1    0    0    0  501 -0.00000000000E+00 -0.00000000000E+00 -0.38952746256E+02  0.38952746340E+02  0.25500000000E-02 0. -1.
         11    1    1    2    0    0  0.18285124453E+03 -0.23247034762E+02  0.62880198102E+03  0.65526096602E+03  0.51100000000E-03 0.  1.
         22    1    1    2    0    0 -0.78954362104E+02 -0.10009434944E+02  0.17624795317E+03  0.19338386975E+03  0.00000000000E+00 0. -1.
         -2    1    1    2    0  501 -0.10389688243E+03  0.33256469707E+02  0.15626863293E+03  0.19057922394E+03  0.25500000000E-02 0. -1.
<mgrwt>
<rscale>  0 0.19199057E+03</rscale>
<asrwt>0</asrwt>
<pdfrwt beam="1">  1       11 0.10000000E+01 0.18432309E+03</pdfrwt>
<pdfrwt beam="2">  1       -2 0.59943559E-02 0.19199057E+03</pdfrwt>
<totfact> 0.11540245E+03</totfact>
</mgrwt>
</event>
<event>
 5    1  0.2675386E-003  0.1968488E+03  0.7818608E-02  0.1319530E+00
         11   -1    0    0    0    0  0.00000000000E+00  0.00000000000E+00  0.10003063200E+04  0.10003063200E+04  0.51100000000E-03 0. -1.
          2   -1    0    0  501    0 -0.00000000000E+00 -0.00000000000E+00 -0.64103885915E+03  0.64103885915E+03  0.25500000000E-02 0. -1.
         11    1    1    2    0    0 -0.84600033578E+02 -0.17809045752E+03  0.97157193129E+03  0.99137550626E+03  0.51100000000E-03 0. -1.
         22    1    1    2    0    0 -0.20602770716E+02  0.28761037650E+02 -0.99786155051E+02  0.10587232022E+03  0.00000000000E+00 0.  1.
          2    1    1    2  501    0  0.10520280429E+03  0.14932941987E+03 -0.51251831534E+03  0.54409735272E+03  0.25500000000E-02 0. -1.
<mgrwt>
<rscale>  0 0.83452436E+02</rscale>
<asrwt>0</asrwt>
<pdfrwt beam="1">  1       11 0.10000000E+01 0.19684884E+03</pdfrwt>
<pdfrwt beam="2">  1        2 0.98651570E-01 0.83452436E+02</pdfrwt>
<totfact> 0.59986266E+01</totfact>
</mgrwt>
</event>
<event>
 5    1  0.2675386E-003  0.1364134E+03  0.7818608E-02  0.1218238E+00
         11   -1    0    0    0    0  0.00000000000E+00  0.00000000000E+00  0.10000756475E+04  0.10000756475E+04  0.51100000000E-03 0.  1.
          2   -1    0    0  501    0 -0.00000000000E+00 -0.00000000000E+00 -0.18645916664E+02  0.18645916839E+02  0.25500000000E-02 0.  1.
         11    1    1    2    0    0 -0.13238104047E+03  0.23135033169E+02  0.55320690882E+03  0.56929592797E+03  0.51100000000E-03 0.  1.
         22    1    1    2    0    0  0.29274676172E+02 -0.91570761315E+01  0.70638786398E+02  0.77011017732E+02  0.00000000000E+00 0. -1.
          2    1    1    2  501    0  0.10310636430E+03 -0.13977957038E+02  0.35758403565E+03  0.37241461867E+03  0.25500000000E-02 0.  1.
<mgrwt>
<rscale>  0 0.13641341E+03</rscale>
<asrwt>0</asrwt>
<pdfrwt beam="1">  1       11 0.10000000E+01 0.13438739E+03</pdfrwt>
<pdfrwt beam="2">  1        2 0.28688195E-02 0.13641341E+03</pdfrwt>
<totfact> 0.38336016E+03</totfact>
</mgrwt>
</event>
<event>
 5    1  0.2675386E-003  0.1779749E+03  0.7818608E-02  0.1169777E+00
         11   -1    0    0    0    0  0.00000000000E+00  0.00000000000E+00  0.99979342347E+03  0.99979342347E+03  0.51100000000E-03 0. -1.
          2   -1    0    0  501    0 -0.00000000000E+00 -0.00000000000E+00 -0.33740762258E+03  0.33740762259E+03  0.25500000000E-02 0. -1.
         11    1    1    2    0    0 -0.14147737442E+03  0.97070207871E+02  0.96824512235E+03  0.98332959362E+03  0.51100000000E-03 0. -1.
         22    1    1    2    0    0  0.19277455065E+02 -0.52811210633E+01 -0.70214174653E+02  0.73003704260E+02  0.00000000000E+00 0.  1.
          2    1    1    2  501    0  0.12219991936E+03 -0.91789086808E+02 -0.23564514680E+03  0.28086774818E+03  0.25500000000E-02 0. -1.
<mgrwt>
<rscale>  0 0.17797494E+03</rscale>
<asrwt>0</asrwt>
<pdfrwt beam="1">  1       11 0.10000000E+01 0.17157643E+03</pdfrwt>
<pdfrwt beam="2">  1        2 0.51898140E-01 0.17797494E+03</pdfrwt>
<totfact> 0.11959423E+02</totfact>
</mgrwt>
</event>
<event>
 5    1  0.2675386E-003  0.1535881E+03  0.7818608E-02  0.1196132E+00
         11   -1    0    0    0    0  0.00000000000E+00  0.00000000000E+00  0.10002907929E+04  0.10002907929E+04  0.51100000000E-03 0.  1.
          2   -1    0    0  501    0 -0.00000000000E+00 -0.00000000000E+00 -0.59519097519E+02  0.59519097574E+02  0.25500000000E-02 0.  1.
         11    1    1    2    0    0 -0.14573281878E+03 -0.37866579259E+02  0.88295226984E+03  0.89569896903E+03  0.51100000000E-03 0.  1.
         22    1    1    2    0    0  0.88422682200E+02  0.78480390766E+01  0.30209484206E+02  0.93769799940E+02  0.00000000000E+00 0.  1.
          2    1    1    2  501    0  0.57310136583E+02  0.30018540183E+02  0.27609941354E+02  0.70341121529E+02  0.25500000000E-02 0.  1.
<mgrwt>
<rscale>  0 0.15358811E+03</rscale>
<asrwt>0</asrwt>
<pdfrwt beam="1">  1       11 0.10000000E+01 0.15057202E+03</pdfrwt>
<pdfrwt beam="2">  1        2 0.91594467E-02 0.15358811E+03</pdfrwt>
<totfact> 0.85379339E+02</totfact>
</mgrwt>
</event>
<event>
 5    1  0.2675386E-003  0.1621537E+03  0.7818608E-02  0.1186286E+00
         11   -1    0    0    0    0  0.00000000000E+00  0.00000000000E+00  0.10001930117E+04  0.10001930117E+04  0.51100000000E-03 0. -1.
         -2   -1    0    0    0  501 -0.00000000000E+00 -0.00000000000E+00 -0.39915060466E+02  0.39915060548E+02  0.25500000000E-02 0.  1.
         11    1    1    2    0    0 -0.35630928314E+02  0.15683120146E+03  0.78508908116E+03  0.80139282138E+03  0.51100000000E-03 0. -1.
         22    1    1    2    0    0  0.88431797201E+01 -0.12254243717E+02  0.16829236482E+02  0.22618388917E+02  0.00000000000E+00 0.  1.
         -2    1    1    2    0  501  0.26787748594E+02 -0.14457695774E+03  0.15835963357E+03  0.21609686193E+03  0.25500000000E-02 0.  1.
<mgrwt>
<rscale>  0 0.16215373E+03</rscale>
<asrwt>0</asrwt>
<pdfrwt beam="1">  1       11 0.10000000E+01 0.16082782E+03</pdfrwt>
<pdfrwt beam="2">  1       -2 0.61419636E-02 0.16215373E+03</pdfrwt>
<totfact> 0.10979962E+03</totfact>
</mgrwt>
</event>
<event>
 5    1  0.2675386E-003  0.1678212E+03  0.7818608E-02  0.1180139E+00
         11   -1    0    0    0    0  0.00000000000E+00  0.00000000000E+00  0.10000616171E+04  0.10000616171E+04  0.51100000000E-03 0.  1.
          2   -1    0    0  501    0 -0.00000000000E+00 -0.00000000000E+00 -0.63407314045E+02  0.63407314096E+02  0.25500000000E-02 0. -1.
         11    1    1    2    0    0  0.11918612728E+03 -0.11419463584E+03  0.86564719849E+03  0.88124390497E+03  0.51100000000E-03 0.  1.
         22    1    1    2    0    0 -0.39131858893E+02  0.28319966665E+02  0.34210718140E+02  0.59192027571E+02  0.00000000000E+00 0.  1.
          2    1    1    2  501    0 -0.80054268391E+02  0.85874669172E+02  0.36796386397E+02  0.12303299863E+03  0.25500000000E-02 0. -1.
<mgrwt>
<rscale>  0 0.16782119E+03</rscale>
<asrwt>0</asrwt>
<pdfrwt beam="1">  1       11 0.10000000E+01 0.16506286E+03</pdfrwt>
<pdfrwt beam="2">  1        2 0.97555722E-02 0.16782119E+03</pdfrwt>
<totfact> 0.79351104E+02</totfact>
</mgrwt>
</event>
<event>
 5    1  0.2675386E-003  0.1885747E+03  0.7818608E-02  0.1159753E+00
         11   -1    0    0    0    0  0.00000000000E+00  0.00000000000E+00  0.10005633038E+04  0.10005633038E+04  0.51100000000E-03 0. -1.
         -2   -1    0    0    0  501 -0.00000000000E+00 -0.00000000000E+00 -0.11439321029E+03  0.11439321032E+03  0.25500000000E-02 0.  1.
         11    1    1    2    0    0  0.16869307000E+03  0.81754399041E+02  0.90613996350E+03  0.92532738373E+03  0.51100000000E-03 0. -1.
         22    1    1    2    0    0 -0.83905790675E+01 -0.95380162804E+01 -0.24779850044E+01  0.12942796504E+02  0.00000000000E+00 0. -1.
         -2    1    1    2    0  501 -0.16030249093E+03 -0.72216382760E+02 -0.17491884973E+02  0.17668633389E+03  0.25500000000E-02 0.  1.
<mgrwt>
<rscale>  0 0.18857468E+03</rscale>
<asrwt>0</asrwt>
<pdfrwt beam="1">  1       11 0.10000000E+01 0.18745969E+03</pdfrwt>
<pdfrwt beam="2">  1       -2 0.17608868E-01 0.18857468E+03</pdfrwt>
<totfact> 0.20724672E+02</totfact>
</mgrwt>
</event>
<event>
 5    1  0.2675386E-003  0.1552257E+03  0.7818608E-02  0.1333708E+00
         11   -1    0    0    0    0  0.00000000000E+00  0.00000000000E+00  0.10003140028E+04  0.10003140028E+04  0.51100000000E-03 0. -1.
          2   -1    0    0  501    0 -0.00000000000E+00 -0.00000000000E+00 -0.98048091297E+02  0.98048091330E+02  0.25500000000E-02 0. -1.
         11    1    1    2    0    0 -0.15006304984E+03 -0.37610011996E+02  0.87102453427E+03  0.88465652726E+03  0.51100000000E-03 0. -1.
         22    1    1    2    0    0  0.49450998015E+01 -0.39268825630E+02 -0.16200269475E+02  0.42766147938E+02  0.00000000000E+00 0. -1.
          2    1    1    2  501    0  0.14511795004E+03  0.76878837626E+02  0.47441646725E+02  0.17093941895E+03  0.25500000000E-02 0. -1.
<mgrwt>
<rscale>  0 0.78381579E+02</rscale>
<asrwt>0</asrwt>
<pdfrwt beam="1">  1       11 0.10000000E+01 0.15522567E+03</pdfrwt>
<pdfrwt beam="2">  1        2 0.15089058E-01 0.78381579E+02</pdfrwt>
<totfact> 0.45300364E+02</totfact>
</mgrwt>
</event>
<event>
 5    1  0.2675386E-003  0.1739865E+03  0.7818608E-02  0.1173753E+00
         11   -1    0    0    0    0  0.00000000000E+00  0.00000000000E+00  0.10001103318E+04  0.10001103318E+04  0.51100000000E-03 0. -1.
         -2   -1    0    0    0  501 -0.00000000000E+00 -0.00000000000E+00 -0.15716777177E+03  0.15716777179E+03  0.25500000000E-02 0.  1.
         11    1    1    2    0    0 -0.98048753228E+02  0.13832403651E+03  0.94195406379E+03  0.95709171733E+03  0.51100000000E-03 0. -1.
         22    1    1    2    0    0  0.22586033642E+02 -0.56730309954E+02 -0.21706172999E+02  0.64804436032E+02  0.00000000000E+00 0. -1.
         -2    1    1    2    0  501  0.75462719586E+02 -0.81593726560E+02 -0.77305330797E+02  0.13538195019E+03  0.25500000000E-02 0.  1.
<mgrwt>
<rscale>  0 0.17398653E+03</rscale>
<asrwt>0</asrwt>
<pdfrwt beam="1">  1       11 0.10000000E+01 0.16954969E+03</pdfrwt>
<pdfrwt beam="2">  1       -2 0.24182324E-01 0.17398653E+03</pdfrwt>
<totfact> 0.12016222E+02</totfact>
</mgrwt>
</event>
<event>
 5    1  0.2675386E-003  0.1389372E+03  0.7818608E-02  0.1214766E+00
         11   -1    0    0    0    0  0.00000000000E+00  0.00000000000E+00  0.10007658194E+04  0.10007658194E+04  0.51100000000E-03 0.  1.
          2   -1    0    0  501    0 -0.00000000000E+00 -0.00000000000E+00 -0.23507577391E+02  0.23507577529E+02  0.25500000000E-02 0.  1.
         11    1    1    2    0    0 -0.12358809480E+03  0.48452400476E+02  0.24213465490E+03  0.27613555256E+03  0.51100000000E-03 0.  1.
         22    1    1    2    0    0  0.21100891736E+02 -0.11985877781E+02  0.67934370663E+02  0.72138669350E+02  0.00000000000E+00 0.  1.
          2    1    1    2  501    0  0.10248720306E+03 -0.36466522694E+02  0.66718921644E+03  0.67599917500E+03  0.25500000000E-02 0.  1.
<mgrwt>
<rscale>  0 0.13893720E+03</rscale>
<asrwt>0</asrwt>
<pdfrwt beam="1">  1       11 0.10000000E+01 0.13274664E+03</pdfrwt>
<pdfrwt beam="2">  1        2 0.36193199E-02 0.13893720E+03</pdfrwt>
<totfact> 0.28128330E+03</totfact>
</mgrwt>
</event>
<event>
 5    1  0.2675386E-003  0.1152321E+03  0.7818608E-02  0.1251176E+00
         11   -1    0    0    0    0  0.00000000000E+00  0.00000000000E+00  0.99999814135E+03  0.99999814135E+03  0.51100000000E-03 0.  1.
          2   -1    0    0  501    0 -0.00000000000E+00 -0.00000000000E+00 -0.14665064586E+02  0.14665064807E+02  0.25500000000E-02 0.  1.
         11    1    1    2    0    0 -0.21403027210E+02  0.11230690307E+03  0.65266523089E+03  0.66260307399E+03  0.51100000000E-03 0.  1.
         22    1    1    2    0    0  0.58922633360E+01 -0.10849371736E+02  0.29089854118E+02  0.31601380459E+02  0.00000000000E+00 0. -1.
          2    1    1    2  501    0  0.15510763874E+02 -0.10145753133E+03  0.30357799176E+03  0.32045875171E+03  0.25500000000E-02 0.  1.
<mgrwt>
<rscale>  0 0.11523212E+03</rscale>
<asrwt>0</asrwt>
<pdfrwt beam="1">  1       11 0.10000000E+01 0.11432817E+03</pdfrwt>
<pdfrwt beam="2">  1        2 0.22561595E-02 0.11523212E+03</pdfrwt>
<totfact> 0.52044500E+03</totfact>
</mgrwt>
</event>
<event>
 5    1  0.2675386E-003  0.2528357E+03  0.7818608E-02  0.1328085E+00
         11   -1    0    0    0    0  0.00000000000E+00  0.00000000000E+00  0.10002272084E+04  0.10002272084E+04  0.51100000000E-03 0. -1.
          2   -1    0    0  501    0 -0.00000000000E+00 -0.00000000000E+00 -0.19590044485E+03  0.19590044487E+03  0.25500000000E-02 0.  1.
         11    1    1    2    0    0 -0.17198188749E+03  0.18794118550E+03  0.87914971144E+03  0.91531626991E+03  0.51100000000E-03 0. -1.
         22    1    1    2    0    0  0.25198068944E+02 -0.41006171349E+01  0.14279936244E+02  0.29251911365E+02  0.00000000000E+00 0.  1.
          2    1    1    2  501    0  0.14678381855E+03 -0.18384056837E+03 -0.89102884159E+02  0.25155947197E+03  0.25500000000E-02 0.  1.
<mgrwt>
<rscale>  0 0.80341648E+02</rscale>
<asrwt>0</asrwt>
<pdfrwt beam="1">  1       11 0.10000000E+01 0.25283569E+03</pdfrwt>
<pdfrwt beam="2">  1        2 0.30145377E-01 0.80341648E+02</pdfrwt>
<totfact> 0.21107218E+02</totfact>
</mgrwt>
</event>
<event>
 5    1  0.2675386E-003  0.1797841E+03  0.7818608E-02  0.1168012E+00
         11   -1    0    0    0    0  0.00000000000E+00  0.00000000000E+00  0.10000845552E+04  0.10000845552E+04  0.51100000000E-03 0. -1.
         -2   -1    0    0    0  501 -0.00000000000E+00 -0.00000000000E+00 -0.62244541788E+02  0.62244541841E+02  0.25500000000E-02 0.  1.
         11    1    1    2    0    0  0.37456674538E+02  0.17414522836E+03  0.83791946691E+03  0.85664379765E+03  0.51100000000E-03 0. -1.
         22    1    1    2    0    0  0.32758061825E+01 -0.97252838305E+01  0.39408184403E+01  0.10992820462E+02  0.00000000000E+00 0. -1.
         -2    1    1    2    0  501 -0.40732480720E+02 -0.16441994453E+03  0.95979728052E+02  0.19469247892E+03  0.25500000000E-02 0.  1.
<mgrwt>
<rscale>  0 0.17978411E+03</rscale>
<asrwt>0</asrwt>
<pdfrwt beam="1">  1       11 0.10000000E+01 0.17812794E+03</pdfrwt>
<pdfrwt beam="2">  1       -2 0.95768928E-02 0.17978411E+03</pdfrwt>
<totfact> 0.55553870E+02</totfact>
</mgrwt>
</event>
<event>
 5    1  0.2675386E-003  0.1585631E+03  0.7818608E-02  0.1190329E+00
         11   -1    0    0    0    0  0.00000000000E+00  0.00000000000E+00  0.10001930216E+04  0.10001930216E+04  0.51100000000E-03 0. -1.
          2   -1    0    0  501    0 -0.00000000000E+00 -0.00000000000E+00 -0.61979492613E+02  0.61979492666E+02  0.25500000000E-02 0. -1.
         11    1    1    2    0    0 -0.15337595894E+03  0.92133438469E+01  0.87991811463E+03  0.89323286938E+03  0.51100000000E-03 0. -1.
         22    1    1    2    0    0  0.18106907155E+02 -0.14050399383E+02  0.49241843415E+01  0.23441872813E+02  0.00000000000E+00 0.  1.
          2    1    1    2  501    0  0.13526905178E+03  0.48370555364E+01  0.53371230005E+02  0.14549777206E+03  0.25500000000E-02 0. -1.
<mgrwt>
<rscale>  0 0.15856307E+03</rscale>
<asrwt>0</asrwt>
<pdfrwt beam="1">  1       11 0.10000000E+01 0.15365243E+03</pdfrwt>
<pdfrwt beam="2">  1        2 0.95371468E-02 0.15856307E+03</pdfrwt>
<totfact> 0.81354396E+02</totfact>
</mgrwt>
</event>
<event>
 5    1  0.2675386E-003  0.7939483E+02  0.7818608E-02  0.1369353E+00
         11   -1    0    0    0    0  0.00000000000E+00  0.00000000000E+00  0.10003585392E+04  0.10003585392E+04  0.51100000000E-03 0.  1.
          2   -1    0    0  501    0 -0.00000000000E+00 -0.00000000000E+00 -0.34433755472E+02  0.34433755566E+02  0.25500000000E-02 0.  1.
         11    1    1    2    0    0 -0.25491237352E+02  0.11683833866E+03  0.58102493019E+03  0.59320398689E+03  0.51100000000E-03 0.  1.
         22    1    1    2    0    0  0.13874920407E+02 -0.55417451129E+02  0.58590341282E+01  0.57427655244E+02  0.00000000000E+00 0.  1.
          2    1    1    2  501    0  0.11616316945E+02 -0.61420887527E+02  0.37904081940E+03  0.38416065263E+03  0.25500000000E-02 0.  1.
<mgrwt>
<rscale>  0 0.67347346E+02</rscale>
<asrwt>0</asrwt>
<pdfrwt beam="1">  1       11 0.10000000E+01 0.79394833E+02</pdfrwt>
<pdfrwt beam="2">  1        2 0.52994001E-02 0.67347346E+02</pdfrwt>
<totfact> 0.15976683E+03</totfact>
</mgrwt>
</event>
<event>
 5    1  0.2675386E-003  0.7366704E+03  0.7818608E-02  0.9656498E-01
         11   -1    0    0    0    0  0.00000000000E+00  0.00000000000E+00  0.10002944441E+04  0.10002944441E+04  0.51100000000E-03 0.  1.
          2   -1    0    0  501    0 -0.00000000000E+00 -0.00000000000E+00 -0.57833232524E+03  0.57833232525E+03  0.25500000000E-02 0.  1.
         11    1    1    2    0    0  0.14551548006E+03 -0.72411836830E+03  0.36406925592E+03  0.82344920266E+03  0.51100000000E-03 0.  1.
         22    1    1    2    0    0 -0.12511464644E+02  0.80102229284E+00  0.13457233680E+02  0.18392268010E+02  0.00000000000E+00 0. -1.
          2    1    1    2  501    0 -0.13300401542E+03  0.72331734601E+03  0.44435629228E+02  0.73678529865E+03  0.25500000000E-02 0.  1.
<mgrwt>
<rscale>  0 0.73667040E+03</rscale>
<asrwt>0</asrwt>
<pdfrwt beam="1">  1       11 0.10000000E+01 0.12537080E+02</pdfrwt>
<pdfrwt beam="2">  1        2 0.89000399E-01 0.73667040E+03</pdfrwt>
<totfact> 0.64218507E+01</totfact>
</mgrwt>
</event>
<event>
 5    1  0.2675386E-003  0.2418986E+03  0.7818608E-02  0.1418954E+00
         11   -1    0    0    0    0  0.00000000000E+00  0.00000000000E+00  0.10004483303E+04  0.10004483303E+04  0.51100000000E-03 0. -1.
          2   -1    0    0  501    0 -0.00000000000E+00 -0.00000000000E+00 -0.74798734762E+02  0.74798734806E+02  0.25500000000E-02 0. -1.
         11    1    1    2    0    0  0.17246825355E+03 -0.17676225454E+03  0.24252060773E+03  0.34613066649E+03  0.51100000000E-03 0. -1.
         22    1    1    2    0    0 -0.12456584227E+02 -0.19987730604E+01  0.17522357306E+02  0.21591539776E+02  0.00000000000E+00 0. -1.
          2    1    1    2  501    0 -0.16001166932E+03  0.17876102760E+03  0.66560663051E+03  0.70752485885E+03  0.25500000000E-02 0. -1.
<mgrwt>
<rscale>  0 0.55242853E+02</rscale>
<asrwt>0</asrwt>
<pdfrwt beam="1">  1       11 0.10000000E+01 0.24189857E+03</pdfrwt>
<pdfrwt beam="2">  1        2 0.11512656E-01 0.55242853E+02</pdfrwt>
<totfact> 0.60777546E+02</totfact>
</mgrwt>
</event>
<event>
 5    1  0.2675386E-003  0.9677669E+02  0.7818608E-02  0.1654048E+00
         11   -1    0    0    0    0  0.00000000000E+00  0.00000000000E+00  0.10001721373E+04  0.10001721373E+04  0.51100000000E-03 0. -1.
          2   -1    0    0  501    0 -0.00000000000E+00 -0.00000000000E+00 -0.18289120325E+02  0.18289120503E+02  0.25500000000E-02 0. -1.
         11    1    1    2    0    0 -0.99672117171E+02  0.53999953297E+02  0.24763828619E+03  0.27235132951E+03  0.51100000000E-03 0. -1.
         22    1    1    2    0    0  0.82219346553E+02 -0.35420593834E+02  0.35877171679E+03  0.36977261146E+03  0.00000000000E+00 0. -1.
          2    1    1    2  501    0  0.17452770618E+02 -0.18579359463E+02  0.37547301401E+03  0.37633731685E+03  0.25500000000E-02 0. -1.
<mgrwt>
<rscale>  0 0.25491014E+02</rscale>
<asrwt>0</asrwt>
<pdfrwt beam="1">  1       11 0.10000000E+01 0.96776687E+02</pdfrwt>
<pdfrwt beam="2">  1        2 0.28141951E-02 0.25491014E+02</pdfrwt>
<totfact> 0.31644080E+03</totfact>
</mgrwt>
</event>
<event>
 5    1  0.2675386E-003  0.3731918E+03  0.7818608E-02  0.1053479E+00
         11   -1    0    0    0    0  0.00000000000E+00  0.00000000000E+00  0.10000403321E+04  0.10000403321E+04  0.51100000000E-03 0. -1.
          2   -1    0    0  501    0 -0.00000000000E+00 -0.00000000000E+00 -0.15641611260E+03  0.15641611262E+03  0.25500000000E-02 0.  1.
         11    1    1    2    0    0  0.35554891683E+03 -0.68905086009E+02  0.62937321058E+03  0.72613606255E+03  0.51100000000E-03 0. -1.
         22    1    1    2    0    0 -0.23814135635E+02 -0.92664758543E+01  0.40187148756E+02  0.47623392949E+02  0.00000000000E+00 0. -1.
          2    1    1    2  501    0 -0.33173478120E+03  0.78171561863E+02  0.17406386018E+03  0.38269698923E+03  0.25500000000E-02 0.  1.
<mgrwt>
<rscale>  0 0.37319182E+03</rscale>
<asrwt>0</asrwt>
<pdfrwt beam="1">  1       11 0.10000000E+01 0.36216425E+03</pdfrwt>
<pdfrwt beam="2">  1        2 0.24064987E-01 0.37319182E+03</pdfrwt>
<totfact> 0.27941367E+02</totfact>
</mgrwt>
</event>
<event>
 5    1  0.2675386E-003  0.1718588E+03  0.7818608E-02  0.1472742E+00
         11   -1    0    0    0    0  0.00000000000E+00  0.00000000000E+00  0.10001028420E+04  0.10001028420E+04  0.51100000000E-03 0.  1.
          2   -1    0    0  501    0 -0.00000000000E+00 -0.00000000000E+00 -0.64823057221E+02  0.64823057271E+02  0.25500000000E-02 0.  1.
         11    1    1    2    0    0  0.18897770417E+03 -0.37243626531E+02  0.13377561930E+03  0.23451135732E+03  0.51100000000E-03 0.  1.
         22    1    1    2    0    0 -0.15460788628E+03  0.66687479384E+02  0.68596744118E+03  0.70633005654E+03  0.00000000000E+00 0.  1.
          2    1    1    2  501    0 -0.34369817890E+02 -0.29443852853E+02  0.11553672432E+03  0.12408448544E+03  0.25500000000E-02 0.  1.
<mgrwt>
<rscale>  0 0.45257318E+02</rscale>
<asrwt>0</asrwt>
<pdfrwt beam="1">  1       11 0.10000000E+01 0.17185877E+03</pdfrwt>
<pdfrwt beam="2">  1        2 0.99738034E-02 0.45257318E+02</pdfrwt>
<totfact> 0.70943802E+02</totfact>
</mgrwt>
</event>
<event>
 5    1  0.2675386E-003  0.1779728E+03  0.7818608E-02  0.1169779E+00
         11   -1    0    0    0    0  0.00000000000E+00  0.00000000000E+00  0.10000624237E+04  0.10000624237E+04  0.51100000000E-03 0. -1.
         -2   -1    0    0    0  501 -0.00000000000E+00 -0.00000000000E+00 -0.20444824549E+03  0.20444824551E+03  0.25500000000E-02 0. -1.
         11    1    1    2    0    0 -0.12614217292E+03  0.11872100506E+03  0.95197552534E+03  0.96760731998E+03  0.51100000000E-03 0. -1.
         22    1    1    2    0    0  0.14546761110E+02  0.62500653624E+00 -0.11823882975E+02  0.18756414918E+02  0.00000000000E+00 0. -1.
         -2    1    1    2    0  501  0.11159541181E+03 -0.11934601159E+03 -0.14453746413E+03  0.21814693434E+03  0.25500000000E-02 0. -1.
<mgrwt>
<rscale>  0 0.17797282E+03</rscale>
<asrwt>0</asrwt>
<pdfrwt beam="1">  1       11 0.10000000E+01 0.17322392E+03</pdfrwt>
<pdfrwt beam="2">  1       -2 0.31455539E-01 0.17797282E+03</pdfrwt>
<totfact> 0.75205675E+01</totfact>
</mgrwt>
</event>
<event>
 5    1  0.2675386E-003  0.1497535E+03  0.7818608E-02  0.1200776E+00
         11   -1    0    0    0    0  0.00000000000E+00  0.00000000000E+00  0.10002021629E+04  0.10002021629E+04  0.51100000000E-03 0. -1.
          2   -1    0    0  501    0 -0.00000000000E+00 -0.00000000000E+00 -0.30797726863E+02  0.30797726969E+02  0.25500000000E-02 0. -1.
         11    1    1    2    0    0  0.13245439498E+03  0.38300089968E+02  0.76657950657E+03  0.77888073769E+03  0.51100000000E-03 0. -1.
         22    1    1    2    0    0 -0.97385196543E+02 -0.37762812877E+02  0.10460373915E+03  0.14782370847E+03  0.00000000000E+00 0. -1.
          2    1    1    2  501    0 -0.35069198438E+02 -0.53727709153E+00  0.98221190325E+02  0.10429544372E+03  0.25500000000E-02 0. -1.
<mgrwt>
<rscale>  0 0.14975351E+03</rscale>
<asrwt>0</asrwt>
<pdfrwt beam="1">  1       11 0.10000000E+01 0.13788061E+03</pdfrwt>
<pdfrwt beam="2">  1        2 0.47390696E-02 0.14975351E+03</pdfrwt>
<totfact> 0.19817742E+03</totfact>
</mgrwt>
</event>
<event>
 5    1  0.2675386E-003  0.8306020E+03  0.7818608E-02  0.1192939E+00
         11   -1    0    0    0    0  0.00000000000E+00  0.00000000000E+00  0.10005035167E+04  0.10005035167E+04  0.51100000000E-03 0.  1.
          2   -1    0    0  501    0 -0.00000000000E+00 -0.00000000000E+00 -0.13969095465E+04  0.13969095465E+04  0.25500000000E-02 0.  1.
         11    1    1    2    0    0 -0.87810046566E+02  0.82831997379E+03  0.64571873820E+03  0.10539341878E+04  0.51100000000E-03 0.  1.
         22    1    1    2    0    0 -0.23144472742E+02 -0.18149036097E+02 -0.47368844810E+02  0.55757166252E+02  0.00000000000E+00 0.  1.
          2    1    1    2  501    0  0.11095451931E+03 -0.81017093770E+03 -0.99475592319E+03  0.12877217092E+04  0.25500000000E-02 0.  1.
<mgrwt>
<rscale>  0 0.15629940E+03</rscale>
<asrwt>0</asrwt>
<pdfrwt beam="1">  1       11 0.10000000E+01 0.83060199E+03</pdfrwt>
<pdfrwt beam="2">  1        2 0.21501737E+00 0.15629940E+03</pdfrwt>
<totfact> 0.20197987E+01</totfact>
</mgrwt>
</event>
<event>
 5    1  0.2675386E-003  0.1516207E+03  0.7818608E-02  0.1278844E+00
         11   -1    0    0    0    0  0.00000000000E+00  0.00000000000E+00  0.99992072106E+03  0.99992072106E+03  0.51100000000E-03 0. -1.
          2   -1    0    0  501    0 -0.00000000000E+00 -0.00000000000E+00 -0.10749714101E+03  0.10749714104E+03  0.25500000000E-02 0. -1.
         11    1    1    2    0    0  0.90508847461E+02  0.12519508319E+03  0.89219591480E+03  0.90547181663E+03  0.51100000000E-03 0. -1.
         22    1    1    2    0    0 -0.66792438750E+02  0.32652947185E+01  0.20063888104E+02  0.69817273146E+02  0.00000000000E+00 0. -1.
          2    1    1    2  501    0 -0.23716408712E+02 -0.12846037791E+03 -0.19836222852E+02  0.13212877234E+03  0.25500000000E-02 0. -1.
<mgrwt>
<rscale>  0 0.10069363E+03</rscale>
<asrwt>0</asrwt>
<pdfrwt beam="1">  1       11 0.10000000E+01 0.15162065E+03</pdfrwt>
<pdfrwt beam="2">  1        2 0.16536710E-01 0.10069363E+03</pdfrwt>
<totfact> 0.41251894E+02</totfact>
</mgrwt>
</event>
<event>
 5    1  0.2675386E-003  0.1064693E+03  0.7818608E-02  0.1387477E+00
         11   -1    0    0    0    0  0.00000000000E+00  0.00000000000E+00  0.10002613547E+04  0.10002613547E+04  0.51100000000E-03 0.  1.
         -2   -1    0    0    0  501 -0.00000000000E+00 -0.00000000000E+00 -0.16671742333E+02  0.16671742528E+02  0.25500000000E-02 0. -1.
         11    1    1    2    0    0  0.11290661023E+03 -0.21422425024E+02  0.59434528506E+03  0.60535373196E+03  0.51100000000E-03 0.  1.
         22    1    1    2    0    0 -0.28112198672E+02 -0.23645606024E+02  0.13124327315E+03  0.13628722297E+03  0.00000000000E+00 0.  1.
         -2    1    1    2    0  501 -0.84794411560E+02  0.45068031047E+02  0.25800105413E+03  0.27529214227E+03  0.25500000000E-02 0. -1.
<mgrwt>
<rscale>  0 0.62538603E+02</rscale>
<asrwt>0</asrwt>
<pdfrwt beam="1">  1       11 0.10000000E+01 0.10646928E+03</pdfrwt>
<pdfrwt beam="2">  1       -2 0.25655537E-02 0.62538603E+02</pdfrwt>
<totfact> 0.36030791E+03</totfact>
</mgrwt>
</event>
<event>
 5    1  0.2675386E-003  0.2724733E+03  0.7818608E-02  0.1099872E+00
         11   -1    0    0    0    0  0.00000000000E+00  0.00000000000E+00  0.10001917741E+04  0.10001917741E+04  0.51100000000E-03 0.  1.
         -2   -1    0    0    0  501 -0.00000000000E+00 -0.00000000000E+00 -0.74365282958E+02  0.74365283001E+02  0.25500000000E-02 0. -1.
         11    1    1    2    0    0 -0.17150755077E+03 -0.20789267010E+03  0.52093254035E+03  0.58651932095E+03  0.51100000000E-03 0.  1.
         22    1    1    2    0    0  0.88012182860E+01  0.87881213256E+01  0.38214352336E+02  0.40187426444E+02  0.00000000000E+00 0.  1.
         -2    1    1    2    0  501  0.16270633249E+03  0.19910454877E+03  0.36667959844E+03  0.44785030969E+03  0.25500000000E-02 0. -1.
<mgrwt>
<rscale>  0 0.27247334E+03</rscale>
<asrwt>0</asrwt>
<pdfrwt beam="1">  1       11 0.10000000E+01 0.26950733E+03</pdfrwt>
<pdfrwt beam="2">  1       -2 0.11443006E-01 0.27247334E+03</pdfrwt>
<totfact> 0.42720575E+02</totfact>
</mgrwt>
</event>
<event>
 5    1  0.2675386E-003  0.2526540E+02  0.7818608E-02  0.1657219E+00
         11   -1    0    0    0    0  0.00000000000E+00  0.00000000000E+00  0.10004005922E+04  0.10004005922E+04  0.51100000000E-03 0.  1.
          2   -1    0    0  501    0 -0.00000000000E+00 -0.00000000000E+00 -0.30229598101E+01  0.30229608856E+01  0.25500000000E-02 0.  1.
         11    1    1    2    0    0 -0.29529717642E+02  0.79167787220E+01  0.16724693896E+03  0.17001828784E+03  0.51100000000E-03 0.  1.
         22    1    1    2    0    0  0.92075008710E+01 -0.23828128125E+02  0.11474505583E+03  0.11755418154E+03  0.00000000000E+00 0.  1.
          2    1    1    2  501    0  0.20322216771E+02  0.15911349403E+02  0.71538563765E+03  0.71585108375E+03  0.25500000000E-02 0.  1.
<mgrwt>
<rscale>  0 0.25265397E+02</rscale>
<asrwt>0</asrwt>
<pdfrwt beam="1">  1       11 0.10000000E+01 0.24988660E+02</pdfrwt>
<pdfrwt beam="2">  1        2 0.46525711E-03 0.25265397E+02</pdfrwt>
<totfact> 0.32859944E+04</totfact>
</mgrwt>
</event>
<event>
 5    1  0.2675386E-003  0.1955503E+03  0.7818608E-02  0.1153548E+00
         11   -1    0    0    0    0  0.00000000000E+00  0.00000000000E+00  0.10001172524E+04  0.10001172524E+04  0.51100000000E-03 0. -1.
          2   -1    0    0  501    0 -0.00000000000E+00 -0.00000000000E+00 -0.25795596705E+03  0.25795596706E+03  0.25500000000E-02 0. -1.
         11    1    1    2    0    0 -0.17493081794E+03  0.70470995029E+02  0.95243292842E+03  0.97092504105E+03  0.51100000000E-03 0. -1.
         22    1    1    2    0    0  0.27354993854E+02 -0.10043423094E+02 -0.65820017486E+02  0.71982225154E+02  0.00000000000E+00 0. -1.
          2    1    1    2  501    0  0.14757582409E+03 -0.60427571935E+02 -0.14445162557E+03  0.21516595326E+03  0.25500000000E-02 0. -1.
<mgrwt>
<rscale>  0 0.19555028E+03</rscale>
<asrwt>0</asrwt>
<pdfrwt beam="1">  1       11 0.10000000E+01 0.18859203E+03</pdfrwt>
<pdfrwt beam="2">  1        2 0.39690185E-01 0.19555028E+03</pdfrwt>
<totfact> 0.15944538E+02</totfact>
</mgrwt>
</event>
<event>
 5    1  0.2675386E-003  0.1642003E+03  0.7818608E-02  0.1184035E+00
         11   -1    0    0    0    0  0.00000000000E+00  0.00000000000E+00  0.10003032719E+04  0.10003032719E+04  0.51100000000E-03 0. -1.
          2   -1    0    0  501    0 -0.00000000000E+00 -0.00000000000E+00 -0.60401874257E+02  0.60401874311E+02  0.25500000000E-02 0. -1.
         11    1    1    2    0    0  0.57135948347E+02 -0.45307352552E+02  0.36434177910E+03  0.37156722781E+03  0.51100000000E-03 0. -1.
         22    1    1    2    0    0 -0.17131741862E+03 -0.38734541591E+02  0.12178937834E+03  0.21373505868E+03  0.00000000000E+00 0. -1.
          2    1    1    2  501    0  0.11418147027E+03  0.84041894143E+02  0.45377024023E+03  0.47540285974E+03  0.25500000000E-02 0. -1.
<mgrwt>
<rscale>  0 0.16420030E+03</rscale>
<asrwt>0</asrwt>
<pdfrwt beam="1">  1       11 0.10000000E+01 0.72919632E+02</pdfrwt>
<pdfrwt beam="2">  1        2 0.92954140E-02 0.16420030E+03</pdfrwt>
<totfact> 0.84151226E+02</totfact>
</mgrwt>
</event>
<event>
 5    1  0.2675386E-003  0.3577860E+03  0.7818608E-02  0.1059464E+00
         11   -1    0    0    0    0  0.00000000000E+00  0.00000000000E+00  0.99963699365E+03  0.99963699365E+03  0.51100000000E-03 0.  1.
          2   -1    0    0  501    0 -0.00000000000E+00 -0.00000000000E+00 -0.14130605647E+04  0.14130605647E+04  0.25500000000E-02 0. -1.
         11    1    1    2    0    0  0.41887411986E+02 -0.33861868240E+03  0.94669655317E+03  0.10063058835E+04  0.51100000000E-03 0.  1.
         22    1    1    2    0    0 -0.30150987963E+02  0.21485574537E+02 -0.92104850870E+02  0.99267394154E+02  0.00000000000E+00 0. -1.
          2    1    1    2  501    0 -0.11736424023E+02  0.31713310786E+03 -0.12680152734E+04  0.13071242807E+04  0.25500000000E-02 0. -1.
<mgrwt>
<rscale>  0 0.35778596E+03</rscale>
<asrwt>0</asrwt>
<pdfrwt beam="1">  1       11 0.10000000E+01 0.34119960E+03</pdfrwt>
<pdfrwt beam="2">  1        2 0.21731501E+00 0.35778596E+03</pdfrwt>
<totfact> 0.18710348E+01</totfact>
</mgrwt>
</event>
<event>
 5    1  0.2675386E-003  0.8801810E+02  0.7818608E-02  0.1380177E+00
         11   -1    0    0    0    0  0.00000000000E+00  0.00000000000E+00  0.10001452776E+04  0.10001452776E+04  0.51100000000E-03 0. -1.
          2   -1    0    0  501    0 -0.00000000000E+00 -0.00000000000E+00 -0.20842059921E+02  0.20842060077E+02  0.25500000000E-02 0. -1.
         11    1    1    2    0    0  0.64261202523E+02 -0.85256444637E+02  0.59880004801E+03  0.60824309367E+03  0.51100000000E-03 0. -1.
         22    1    1    2    0    0 -0.45471063987E+02  0.12449799731E+02  0.33871291290E+02  0.58050663623E+02  0.00000000000E+00 0. -1.
          2    1    1    2  501    0 -0.18790138536E+02  0.72806644906E+02  0.34663187834E+03  0.35469358034E+03  0.25500000000E-02 0. -1.
<mgrwt>
<rscale>  0 0.64417217E+02</rscale>
<asrwt>0</asrwt>
<pdfrwt beam="1">  1       11 0.10000000E+01 0.88018102E+02</pdfrwt>
<pdfrwt beam="2">  1        2 0.32069365E-02 0.64417217E+02</pdfrwt>
<totfact> 0.30416645E+03</totfact>
</mgrwt>
</event>
<event>
 5    1  0.2675386E-003  0.1586670E+03  0.7818608E-02  0.1232034E+00
         11   -1    0    0    0    0  0.00000000000E+00  0.00000000000E+00  0.10000992632E+04  0.10000992632E+04  0.51100000000E-03 0. -1.
          2   -1    0    0  501    0 -0.00000000000E+00 -0.00000000000E+00 -0.11425399268E+03  0.11425399271E+03  0.25500000000E-02 0. -1.
         11    1    1    2    0    0  0.16401095813E+03  0.33454590994E+02  0.81708049445E+03  0.83404996161E+03  0.51100000000E-03 0. -1.
         22    1    1    2    0    0 -0.68669449641E+02  0.74869977610E+02 -0.29415373018E+02  0.10576516927E+03  0.00000000000E+00 0. -1.
          2    1    1    2  501    0 -0.95341508489E+02 -0.10832456860E+03  0.98180149079E+02  0.17453812502E+03  0.25500000000E-02 0. -1.
<mgrwt>
<rscale>  0 0.12696202E+03</rscale>
<asrwt>0</asrwt>
<pdfrwt beam="1">  1       11 0.10000000E+01 0.15866700E+03</pdfrwt>
<pdfrwt beam="2">  1        2 0.17579282E-01 0.12696202E+03</pdfrwt>
<totfact> 0.38821069E+02</totfact>
</mgrwt>
</event>
<event>
 5    1  0.2675386E-003  0.1932173E+03  0.7818608E-02  0.1155591E+00
         11   -1    0    0    0    0  0.00000000000E+00  0.00000000000E+00  0.99981041376E+03  0.99981041376E+03  0.51100000000E-03 0. -1.
          2   -1    0    0  501    0 -0.00000000000E+00 -0.00000000000E+00 -0.80358830153E+02  0.80358830194E+02  0.25500000000E-02 0. -1.
         11    1    1    2    0    0 -0.86409894425E+02 -0.16542523280E+03  0.85703447824E+03  0.87712044463E+03  0.51100000000E-03 0. -1.
         22    1    1    2    0    0  0.15481757037E+02  0.15636649611E+02 -0.73930893717E+01  0.23213086448E+02  0.00000000000E+00 0.  1.
          2    1    1    2  501    0  0.70928137389E+02  0.14978858319E+03  0.69810194737E+02  0.17983571287E+03  0.25500000000E-02 0. -1.
<mgrwt>
<rscale>  0 0.19321729E+03</rscale>
<asrwt>0</asrwt>
<pdfrwt beam="1">  1       11 0.10000000E+01 0.18663381E+03</pdfrwt>
<pdfrwt beam="2">  1        2 0.12360553E-01 0.19321729E+03</pdfrwt>
<totfact> 0.59812751E+02</totfact>
</mgrwt>
</event>
<event>
 5    1  0.2675386E-003  0.3665007E+03  0.7818608E-02  0.1056039E+00
         11   -1    0    0    0    0  0.00000000000E+00  0.00000000000E+00  0.10001418538E+04  0.10001418538E+04  0.51100000000E-03 0. -1.
          2   -1    0    0  501    0 -0.00000000000E+00 -0.00000000000E+00 -0.16067325348E+03  0.16067325350E+03  0.25500000000E-02 0. -1.
         11    1    1    2    0    0  0.33680103456E+03 -0.12238341037E+03  0.16786186218E+03  0.39571484782E+03  0.51100000000E-03 0. -1.
         22    1    1    2    0    0 -0.18629176207E+03  0.98507731272E+02  0.33761857007E+03  0.39798830710E+03  0.00000000000E+00 0. -1.
          2    1    1    2  501    0 -0.15050927249E+03  0.23875679099E+02  0.33398816803E+03  0.36711195234E+03  0.25500000000E-02 0. -1.
<mgrwt>
<rscale>  0 0.36650075E+03</rscale>
<asrwt>0</asrwt>
<pdfrwt beam="1">  1       11 0.10000000E+01 0.35834727E+03</pdfrwt>
<pdfrwt beam="2">  1        2 0.24722468E-01 0.36650075E+03</pdfrwt>
<totfact> 0.27089625E+02</totfact>
</mgrwt>
</event>
<event>
 5    1  0.2675386E-003  0.3098789E+03  0.7818608E-02  0.1080404E+00
         11   -1    0    0    0    0  0.00000000000E+00  0.00000000000E+00  0.10001534655E+04  0.10001534655E+04  0.51100000000E-03 0. -1.
          2   -1    0    0  501    0 -0.00000000000E+00 -0.00000000000E+00 -0.41858167823E+03  0.41858167824E+03  0.25500000000E-02 0. -1.
         11    1    1    2    0    0 -0.16182846193E+03 -0.25689508747E+03  0.91469388160E+03  0.96376783205E+03  0.51100000000E-03 0. -1.
         22    1    1    2    0    0  0.14221406112E+03  0.20539002475E+03 -0.30103745618E+03  0.39119490215E+03  0.00000000000E+00 0. -1.
          2    1    1    2  501    0  0.19614400807E+02  0.51505062725E+02 -0.32084638157E+02  0.63772409532E+02  0.25500000000E-02 0. -1.
<mgrwt>
<rscale>  0 0.30987889E+03</rscale>
<asrwt>0</asrwt>
<pdfrwt beam="1">  1       11 0.10000000E+01 0.30361742E+03</pdfrwt>
<pdfrwt beam="2">  1        2 0.64407062E-01 0.30987889E+03</pdfrwt>
<totfact> 0.94321629E+01</totfact>
</mgrwt>
</event>
<event>
 5    1  0.2675386E-003  0.1839816E+03  0.7818608E-02  0.1164004E+00
         11   -1    0    0    0    0  0.00000000000E+00  0.00000000000E+00  0.10002605262E+04  0.10002605262E+04  0.51100000000E-03 0.  1.
          2   -1    0    0  501    0 -0.00000000000E+00 -0.00000000000E+00 -0.61443509047E+02  0.61443509100E+02  0.25500000000E-02 0.  1.
         11    1    1    2    0    0  0.34477001831E+02 -0.17662763805E+03  0.82711856152E+03  0.84646978741E+03  0.51100000000E-03 0.  1.
         22    1    1    2    0    0 -0.15331137570E+00  0.12864743215E+02 -0.18845434275E+01  0.13002946831E+02  0.00000000000E+00 0.  1.
          2    1    1    2  501    0 -0.34323690455E+02  0.16376289484E+03  0.11358299909E+03  0.20223130109E+03  0.25500000000E-02 0.  1.
<mgrwt>
<rscale>  0 0.18398162E+03</rscale>
<asrwt>0</asrwt>
<pdfrwt beam="1">  1       11 0.10000000E+01 0.17996107E+03</pdfrwt>
<pdfrwt beam="2">  1        2 0.94553100E-02 0.18398162E+03</pdfrwt>
<totfact> 0.82902623E+02</totfact>
</mgrwt>
</event>
<event>
 5    1  0.2675386E-003  0.3943111E+02  0.7818608E-02  0.1512440E+00
         11   -1    0    0    0    0  0.00000000000E+00  0.00000000000E+00  0.10003837051E+04  0.10003837051E+04  0.51100000000E-03 0. -1.
          2   -1    0    0  501    0 -0.00000000000E+00 -0.00000000000E+00 -0.39421707732E+01  0.39421715979E+01  0.25500000000E-02 0. -1.
         11    1    1    2    0    0  0.46337108756E+01 -0.90189788222E+01  0.16836437139E+02  0.19653978510E+02  0.51100000000E-03 0. -1.
         22    1    1    2    0    0  0.64254393771E+01  0.40514444266E+02  0.19075255544E+03  0.19511341285E+03  0.00000000000E+00 0. -1.
          2    1    1    2  501    0 -0.11059150253E+02 -0.31495465444E+02  0.78885254175E+03  0.78955848534E+03  0.25500000000E-02 0. -1.
<mgrwt>
<rscale>  0 0.39431109E+02</rscale>
<asrwt>0</asrwt>
<pdfrwt beam="1">  1       11 0.10000000E+01 0.10139692E+02</pdfrwt>
<pdfrwt beam="2">  1        2 0.60672057E-03 0.39431109E+02</pdfrwt>
<totfact> 0.25693692E+04</totfact>
</mgrwt>
</event>
<event>
 5    1  0.2675386E-003  0.6737231E+02  0.7818608E-02  0.1522267E+00
         11   -1    0    0    0    0  0.00000000000E+00  0.00000000000E+00  0.10004227562E+04  0.10004227562E+04  0.51100000000E-03 0. -1.
          2   -1    0    0  501    0 -0.00000000000E+00 -0.00000000000E+00 -0.75773787745E+01  0.75773792036E+01  0.25500000000E-02 0. -1.
         11    1    1    2    0    0 -0.79617818065E+02  0.11034618550E+02  0.46856992664E+03  0.47541406785E+03  0.51100000000E-03 0. -1.
         22    1    1    2    0    0  0.21231264785E+02  0.40023658926E+01  0.49657932729E+02  0.54154370276E+02  0.00000000000E+00 0. -1.
          2    1    1    2  501    0  0.58386553280E+02 -0.15036984443E+02  0.47461751806E+03  0.47843169727E+03  0.25500000000E-02 0. -1.
<mgrwt>
<rscale>  0 0.38152233E+02</rscale>
<asrwt>0</asrwt>
<pdfrwt beam="1">  1       11 0.10000000E+01 0.67372309E+02</pdfrwt>
<pdfrwt beam="2">  1        2 0.11662434E-02 0.38152233E+02</pdfrwt>
<totfact> 0.10678747E+04</totfact>
</mgrwt>
</event>
<event>
 5    1  0.2675386E-003  0.1984039E+03  0.7818608E-02  0.1272530E+00
         11   -1    0    0    0    0  0.00000000000E+00  0.00000000000E+00  0.10000274570E+04  0.10000274570E+04  0.51100000000E-03 0. -1.
          2   -1    0    0  501    0 -0.00000000000E+00 -0.00000000000E+00 -0.84763490303E+02  0.84763490342E+02  0.25500000000E-02 0. -1.
         11    1    1    2    0    0  0.14154274616E+03 -0.14505255798E+03  0.78797025472E+03  0.81361644274E+03  0.51100000000E-03 0. -1.
         22    1    1    2    0    0  0.17669639628E+02  0.51335299987E+02  0.35618132580E+02  0.64932122696E+02  0.00000000000E+00 0.  1.
          2    1    1    2  501    0 -0.15921238579E+03  0.93717257991E+02  0.91675579413E+02  0.20624238192E+03  0.25500000000E-02 0. -1.
<mgrwt>
<rscale>  0 0.10378622E+03</rscale>
<asrwt>0</asrwt>
<pdfrwt beam="1">  1       11 0.10000000E+01 0.19840394E+03</pdfrwt>
<pdfrwt beam="2">  1        2 0.13040895E-01 0.10378622E+03</pdfrwt>
<totfact> 0.54460556E+02</totfact>
</mgrwt>
</event>
<event>
 5    1  0.2675386E-003  0.7494155E+02  0.7818608E-02  0.1344052E+00
         11   -1    0    0    0    0  0.00000000000E+00  0.00000000000E+00  0.10004069889E+04  0.10004069889E+04  0.51100000000E-03 0. -1.
          2   -1    0    0  501    0 -0.00000000000E+00 -0.00000000000E+00 -0.55750489581E+01  0.55750495413E+01  0.25500000000E-02 0. -1.
         11    1    1    2    0    0 -0.71483305744E+01 -0.72770431720E+02  0.42517481243E+03  0.43141656840E+03  0.51100000000E-03 0. -1.
         22    1    1    2    0    0 -0.25315964896E+01  0.10146198948E+02  0.51742330279E+02  0.52788474846E+02  0.00000000000E+00 0.  1.
          2    1    1    2  501    0  0.96799270640E+01  0.62624232771E+02  0.51791479721E+03  0.52177699517E+03  0.25500000000E-02 0. -1.
<mgrwt>
<rscale>  0 0.74941554E+02</rscale>
<asrwt>0</asrwt>
<pdfrwt beam="1">  1       11 0.10000000E+01 0.73120720E+02</pdfrwt>
<pdfrwt beam="2">  1        2 0.85804893E-03 0.74941554E+02</pdfrwt>
<totfact> 0.18229504E+04</totfact>
</mgrwt>
</event>
<event>
 5    1  0.2675386E-003  0.5340906E+02  0.7818608E-02  0.1530240E+00
         11   -1    0    0    0    0  0.00000000000E+00  0.00000000000E+00  0.99989107265E+03  0.99989107265E+03  0.51100000000E-03 0. -1.
          2   -1    0    0  501    0 -0.00000000000E+00 -0.00000000000E+00 -0.76332020025E+01  0.76332024284E+01  0.25500000000E-02 0. -1.
         11    1    1    2    0    0  0.27878255079E+02  0.18081996758E+02  0.46376920100E+02  0.57052383222E+02  0.51100000000E-03 0. -1.
         22    1    1    2    0    0  0.25759373619E+02  0.21658827585E+01  0.12801453385E+03  0.13059845809E+03  0.00000000000E+00 0.  1.
          2    1    1    2  501    0 -0.53637628698E+02 -0.20247879516E+02  0.81786641670E+03  0.81987343377E+03  0.25500000000E-02 0. -1.
<mgrwt>
<rscale>  0 0.37156934E+02</rscale>
<asrwt>0</asrwt>
<pdfrwt beam="1">  1       11 0.10000000E+01 0.53409056E+02</pdfrwt>
<pdfrwt beam="2">  1        2 0.11742109E-02 0.37156934E+02</pdfrwt>
<totfact> 0.10530101E+04</totfact>
</mgrwt>
</event>
<event>
 5    1  0.2675386E-003  0.1566616E+03  0.7818608E-02  0.1192518E+00
         11   -1    0    0    0    0  0.00000000000E+00  0.00000000000E+00  0.10002313219E+04  0.10002313219E+04  0.51100000000E-03 0.  1.
         -2   -1    0    0    0  501 -0.00000000000E+00 -0.00000000000E+00 -0.38992926748E+02  0.38992926832E+02  0.25500000000E-02 0. -1.
         11    1    1    2    0    0 -0.15048246057E+03 -0.21578334868E+02  0.80036024578E+03  0.81466994452E+03  0.51100000000E-03 0.  1.
         22    1    1    2    0    0  0.37825616531E+02  0.17164292003E+02  0.27065524682E+02  0.49577543427E+02  0.00000000000E+00 0. -1.
         -2    1    1    2    0  501  0.11265684404E+03  0.44140428654E+01  0.13381262468E+03  0.17497676078E+03  0.25500000000E-02 0. -1.
<mgrwt>
<rscale>  0 0.15666160E+03</rscale>
<asrwt>0</asrwt>
<pdfrwt beam="1">  1       11 0.10000000E+01 0.15202169E+03</pdfrwt>
<pdfrwt beam="2">  1       -2 0.60002993E-02 0.15666160E+03</pdfrwt>
<totfact> 0.11347132E+03</totfact>
</mgrwt>
</event>
<event>
 5    1  0.2675386E-003  0.1751567E+03  0.7818608E-02  0.1172575E+00
         11   -1    0    0    0    0  0.00000000000E+00  0.00000000000E+00  0.10002649748E+04  0.10002649748E+04  0.51100000000E-03 0. -1.
          2   -1    0    0  501    0 -0.00000000000E+00 -0.00000000000E+00 -0.10924043422E+03  0.10924043425E+03  0.25500000000E-02 0. -1.
         11    1    1    2    0    0 -0.14550639682E+03 -0.93715271108E+02  0.91632870164E+03  0.93253040326E+03  0.51100000000E-03 0. -1.
         22    1    1    2    0    0  0.19563437814E+02  0.68818406041E+01 -0.10609394726E+02  0.23294786663E+02  0.00000000000E+00 0. -1.
          2    1    1    2  501    0  0.12594295900E+03  0.86833430504E+02 -0.14694766375E+02  0.15368021909E+03  0.25500000000E-02 0. -1.
<mgrwt>
<rscale>  0 0.17515665E+03</rscale>
<asrwt>0</asrwt>
<pdfrwt beam="1">  1       11 0.10000000E+01 0.17307416E+03</pdfrwt>
<pdfrwt beam="2">  1        2 0.16810673E-01 0.17515665E+03</pdfrwt>
<totfact> 0.41364231E+02</totfact>
</mgrwt>
</event>
<event>
 5    1  0.2675386E-003  0.1047481E+03  0.7818608E-02  0.1311490E+00
         11   -1    0    0    0    0  0.00000000000E+00  0.00000000000E+00  0.10002940667E+04  0.10002940667E+04  0.51100000000E-03 0. -1.
          2   -1    0    0  501    0 -0.00000000000E+00 -0.00000000000E+00 -0.37386513552E+02  0.37386513639E+02  0.25500000000E-02 0. -1.
         11    1    1    2    0    0  0.11685636876E+03  0.28730572521E+02  0.67128677900E+03  0.68198738726E+03  0.51100000000E-03 0. -1.
         22    1    1    2    0    0 -0.82562714875E+02  0.50708888393E+02  0.22968366248E+03  0.24928413118E+03  0.00000000000E+00 0. -1.
          2    1    1    2  501    0 -0.34293653883E+02 -0.79439460915E+02  0.61937111680E+02  0.10640906191E+03  0.25500000000E-02 0. -1.
<mgrwt>
<rscale>  0 0.86525618E+02</rscale>
<asrwt>0</asrwt>
<pdfrwt beam="1">  1       11 0.10000000E+01 0.10474805E+03</pdfrwt>
<pdfrwt beam="2">  1        2 0.57534626E-02 0.86525618E+02</pdfrwt>
<totfact> 0.14721522E+03</totfact>
</mgrwt>
</event>
<event>
 5    1  0.2675386E-003  0.1420664E+03  0.7818608E-02  0.1210575E+00
         11   -1    0    0    0    0  0.00000000000E+00  0.00000000000E+00  0.10001690837E+04  0.10001690837E+04  0.51100000000E-03 0. -1.
          2   -1    0    0  501    0 -0.00000000000E+00 -0.00000000000E+00 -0.34749453616E+02  0.34749453710E+02  0.25500000000E-02 0. -1.
         11    1    1    2    0    0  0.24931526156E+02  0.12687250135E+03  0.11602131723E+03  0.17372149737E+03  0.51100000000E-03 0. -1.
         22    1    1    2    0    0 -0.36143165639E+02 -0.47298134878E+02  0.28905503705E+03  0.29512074890E+03  0.00000000000E+00 0.  1.
          2    1    1    2  501    0  0.11211639483E+02 -0.79574366468E+02  0.56034327583E+03  0.56607629118E+03  0.25500000000E-02 0. -1.
<mgrwt>
<rscale>  0 0.14206635E+03</rscale>
<asrwt>0</asrwt>
<pdfrwt beam="1">  1       11 0.10000000E+01 0.12929899E+03</pdfrwt>
<pdfrwt beam="2">  1        2 0.53469736E-02 0.14206635E+03</pdfrwt>
<totfact> 0.16853078E+03</totfact>
</mgrwt>
</event>
<event>
 5    1  0.2675386E-003  0.1946240E+03  0.7818608E-02  0.1383257E+00
         11   -1    0    0    0    0  0.00000000000E+00  0.00000000000E+00  0.10002543207E+04  0.10002543207E+04  0.51100000000E-03 0.  1.
          2   -1    0    0  501    0 -0.00000000000E+00 -0.00000000000E+00 -0.45212851411E+02  0.45212851483E+02  0.25500000000E-02 0.  1.
         11    1    1    2    0    0  0.56211849046E+02 -0.18986727809E+03  0.59663674936E+03  0.62863722921E+03  0.51100000000E-03 0.  1.
         22    1    1    2    0    0  0.15412021197E+02  0.13958437895E+02  0.20471449892E+02  0.29179592981E+02  0.00000000000E+00 0. -1.
          2    1    1    2  501    0 -0.71623870243E+02  0.17590884019E+03  0.33793327006E+03  0.38765035002E+03  0.25500000000E-02 0.  1.
<mgrwt>
<rscale>  0 0.63615316E+02</rscale>
<asrwt>0</asrwt>
<pdfrwt beam="1">  1       11 0.10000000E+01 0.19462401E+03</pdfrwt>
<pdfrwt beam="2">  1        2 0.69575921E-02 0.63615316E+02</pdfrwt>
<totfact> 0.11289526E+03</totfact>
</mgrwt>
</event>
<event>
 5    1  0.2675386E-003  0.7126593E+03  0.7818608E-02  0.9695825E-01
         11   -1    0    0    0    0  0.00000000000E+00  0.00000000000E+00  0.10000915947E+04  0.10000915947E+04  0.51100000000E-03 0. -1.
          2   -1    0    0  501    0 -0.00000000000E+00 -0.00000000000E+00 -0.15534756104E+04  0.15534756104E+04  0.25500000000E-02 0. -1.
         11    1    1    2    0    0 -0.13176707968E+02  0.28891890704E+02  0.14593170865E+03  0.14934667914E+03  0.51100000000E-03 0. -1.
         22    1    1    2    0    0  0.71080902666E+03  0.11282501003E+03  0.59052806376E+03  0.93096850073E+03  0.00000000000E+00 0. -1.
          2    1    1    2  501    0 -0.69763231869E+03 -0.14171690073E+03 -0.12898437881E+04  0.14732520252E+04  0.25500000000E-02 0. -1.
<mgrwt>
<rscale>  0 0.71265933E+03</rscale>
<asrwt>0</asrwt>
<pdfrwt beam="1">  1       11 0.10000000E+01 0.31754795E+02</pdfrwt>
<pdfrwt beam="2">  1        2 0.23901813E+00 0.71265933E+03</pdfrwt>
<totfact> 0.14912702E+01</totfact>
</mgrwt>
</event>
<event>
 5    1  0.2675386E-003  0.1731562E+03  0.7818608E-02  0.1404283E+00
         11   -1    0    0    0    0  0.00000000000E+00  0.00000000000E+00  0.10001356071E+04  0.10001356071E+04  0.51100000000E-03 0.  1.
          2   -1    0    0  501    0 -0.00000000000E+00 -0.00000000000E+00 -0.72130992268E+03  0.72130992269E+03  0.25500000000E-02 0.  1.
         11    1    1    2    0    0 -0.51779916451E+02  0.16534583838E+03  0.98047806702E+03  0.99566944611E+03  0.51100000000E-03 0.  1.
         22    1    1    2    0    0 -0.13729054160E+02 -0.14207012930E+02 -0.53899177627E+02  0.57405988306E+02  0.00000000000E+00 0.  1.
          2    1    1    2  501    0  0.65508970611E+02 -0.15113882545E+03 -0.64775320499E+03  0.66837009536E+03  0.25500000000E-02 0.  1.
<mgrwt>
<rscale>  0 0.58489235E+02</rscale>
<asrwt>0</asrwt>
<pdfrwt beam="1">  1       11 0.10000000E+01 0.17315620E+03</pdfrwt>
<pdfrwt beam="2">  1        2 0.11098580E+00 0.58489235E+02</pdfrwt>
<totfact> 0.52964357E+01</totfact>
</mgrwt>
</event>
<event>
 5    1  0.2675386E-003  0.2946197E+03  0.7818608E-02  0.1087961E+00
         11   -1    0    0    0    0  0.00000000000E+00  0.00000000000E+00  0.10004392529E+04  0.10004392529E+04  0.51100000000E-03 0. -1.
          2   -1    0    0  501    0 -0.00000000000E+00 -0.00000000000E+00 -0.16004772264E+04  0.16004772264E+04  0.25500000000E-02 0.  1.
         11    1    1    2    0    0 -0.28282570629E+03 -0.39287128189E+02  0.96604522974E+03  0.10073615262E+04  0.51100000000E-03 0. -1.
         22    1    1    2    0    0  0.12076924264E+03  0.51427395399E+02 -0.76023296668E+03  0.77148178890E+03  0.00000000000E+00 0.  1.
          2    1    1    2  501    0  0.16205646365E+03 -0.12140267210E+02 -0.80585023661E+03  0.82207316423E+03  0.25500000000E-02 0.  1.
<mgrwt>
<rscale>  0 0.29461974E+03</rscale>
<asrwt>0</asrwt>
<pdfrwt beam="1">  1       11 0.10000000E+01 0.28554134E+03</pdfrwt>
<pdfrwt beam="2">  1        2 0.24633541E+00 0.29461974E+03</pdfrwt>
<totfact> 0.15009601E+01</totfact>
</mgrwt>
</event>
<event>
 5    1  0.2675386E-003  0.1062628E+03  0.7818608E-02  0.1267651E+00
         11   -1    0    0    0    0  0.00000000000E+00  0.00000000000E+00  0.10003127951E+04  0.10003127951E+04  0.51100000000E-03 0. -1.
         -2   -1    0    0    0  501 -0.00000000000E+00 -0.00000000000E+00 -0.11352137155E+02  0.11352137441E+02  0.25500000000E-02 0.  1.
         11    1    1    2    0    0 -0.10247692278E+03  0.59832277734E+01  0.58631839872E+03  0.59523657767E+03  0.51100000000E-03 0. -1.
         22    1    1    2    0    0  0.54776442258E+02 -0.49617867311E+01  0.16142106011E+03  0.17053397491E+03  0.00000000000E+00 0. -1.
         -2    1    1    2    0  501  0.47700480524E+02 -0.10214410424E+01  0.24122119912E+03  0.24589437996E+03  0.25500000000E-02 0.  1.
<mgrwt>
<rscale>  0 0.10626281E+03</rscale>
<asrwt>0</asrwt>
<pdfrwt beam="1">  1       11 0.10000000E+01 0.10265144E+03</pdfrwt>
<pdfrwt beam="2">  1       -2 0.17470289E-02 0.10626281E+03</pdfrwt>
<totfact> 0.67172506E+03</totfact>
</mgrwt>
</event>
<event>
 5    1  0.2675386E-003  0.1526152E+03  0.7818608E-02  0.1718987E+00
         11   -1    0    0    0    0  0.00000000000E+00  0.00000000000E+00  0.10006671582E+04  0.10006671582E+04  0.51100000000E-03 0. -1.
          2   -1    0    0  501    0 -0.00000000000E+00 -0.00000000000E+00 -0.56060065354E+03  0.56060065355E+03  0.25500000000E-02 0. -1.
         11    1    1    2    0    0 -0.12719655043E+03 -0.84769224967E+02  0.92352902531E+03  0.93609328837E+03  0.51100000000E-03 0. -1.
         22    1    1    2    0    0  0.10890602879E+03  0.73675681913E+02 -0.54468070590E+03  0.56032642325E+03  0.00000000000E+00 0. -1.
          2    1    1    2  501    0  0.18290521635E+02  0.11093543054E+02  0.61218185283E+02  0.64848100165E+02  0.25500000000E-02 0. -1.
<mgrwt>
<rscale>  0 0.21391818E+02</rscale>
<asrwt>0</asrwt>
<pdfrwt beam="1">  1       11 0.10000000E+01 0.15261523E+03</pdfrwt>
<pdfrwt beam="2">  1        2 0.86303792E-01 0.21391818E+02</pdfrwt>
<totfact> 0.71242790E+01</totfact>
</mgrwt>
</event>
<event>
 5    1  0.2675386E-003  0.2009336E+03  0.7818608E-02  0.1148954E+00
         11   -1    0    0    0    0  0.00000000000E+00  0.00000000000E+00  0.10002666388E+04  0.10002666388E+04  0.51100000000E-03 0. -1.
          2   -1    0    0  501    0 -0.00000000000E+00 -0.00000000000E+00 -0.41046195284E+02  0.41046195363E+02  0.25500000000E-02 0. -1.
         11    1    1    2    0    0 -0.21709033927E+02 -0.19437857305E+03  0.58090063992E+03  0.61294360693E+03  0.51100000000E-03 0. -1.
         22    1    1    2    0    0 -0.56380078340E+01  0.13151116108E+03  0.23083624355E+03  0.26572983265E+03  0.00000000000E+00 0. -1.
          2    1    1    2  501    0  0.27347041761E+02  0.62867411971E+02  0.14748356004E+03  0.16263939458E+03  0.25500000000E-02 0. -1.
<mgrwt>
<rscale>  0 0.20093362E+03</rscale>
<asrwt>0</asrwt>
<pdfrwt beam="1">  1       11 0.10000000E+01 0.19558710E+03</pdfrwt>
<pdfrwt beam="2">  1        2 0.63164829E-02 0.20093362E+03</pdfrwt>
<totfact> 0.13919318E+03</totfact>
</mgrwt>
</event>
<event>
 5    1  0.2675386E-003  0.1252314E+03  0.7818608E-02  0.1234708E+00
         11   -1    0    0    0    0  0.00000000000E+00  0.00000000000E+00  0.10003128068E+04  0.10003128068E+04  0.51100000000E-03 0. -1.
          2   -1    0    0  501    0 -0.00000000000E+00 -0.00000000000E+00 -0.15556109853E+02  0.15556110062E+02  0.25500000000E-02 0.  1.
         11    1    1    2    0    0  0.12189006875E+03 -0.33711501277E+01  0.55502734243E+03  0.56826393899E+03  0.51100000000E-03 0. -1.
         22    1    1    2    0    0 -0.27983739261E+02  0.12905603070E+02  0.10188628954E+03  0.10644463467E+03  0.00000000000E+00 0.  1.
          2    1    1    2  501    0 -0.93906329493E+02 -0.95344529426E+01  0.32784306496E+03  0.34116034318E+03  0.25500000000E-02 0.  1.
<mgrwt>
<rscale>  0 0.12523138E+03</rscale>
<asrwt>0</asrwt>
<pdfrwt beam="1">  1       11 0.10000000E+01 0.12193668E+03</pdfrwt>
<pdfrwt beam="2">  1        2 0.23939962E-02 0.12523138E+03</pdfrwt>
<totfact> 0.48493379E+03</totfact>
</mgrwt>
</event>
<event>
 5    1  0.2675386E-003  0.1776327E+03  0.7818608E-02  0.1170114E+00
         11   -1    0    0    0    0  0.00000000000E+00  0.00000000000E+00  0.99950553239E+03  0.99950553239E+03  0.51100000000E-03 0.  1.
          2   -1    0    0  501    0 -0.00000000000E+00 -0.00000000000E+00 -0.76288739372E+02  0.76288739415E+02  0.25500000000E-02 0.  1.
         11    1    1    2    0    0  0.59179597126E+02  0.16407343913E+03  0.87432927138E+03  0.89155706095E+03  0.51100000000E-03 0.  1.
         22    1    1    2    0    0  0.37026120180E+01 -0.94407790253E+01 -0.50586717899E+00  0.10153499198E+02  0.00000000000E+00 0. -1.
          2    1    1    2  501    0 -0.62882209144E+02 -0.15463266010E+03  0.49393388815E+02  0.17408371165E+03  0.25500000000E-02 0.  1.
<mgrwt>
<rscale>  0 0.17763265E+03</rscale>
<asrwt>0</asrwt>
<pdfrwt beam="1">  1       11 0.10000000E+01 0.17441995E+03</pdfrwt>
<pdfrwt beam="2">  1        2 0.11730925E-01 0.17763265E+03</pdfrwt>
<totfact> 0.63477534E+02</totfact>
</mgrwt>
</event>
<event>
 5    1  0.2675386E-003  0.3524824E+03  0.7818608E-02  0.1061601E+00
         11   -1    0    0    0    0  0.00000000000E+00  0.00000000000E+00  0.10000272110E+04  0.10000272110E+04  0.51100000000E-03 0. -1.
         -2   -1    0    0    0  501 -0.00000000000E+00 -0.00000000000E+00 -0.17064650722E+03  0.17064650723E+03  0.25500000000E-02 0.  1.
         11    1    1    2    0    0 -0.33765957992E+03  0.44881869827E+02  0.72824217403E+03  0.80396830670E+03  0.51100000000E-03 0. -1.
         22    1    1    2    0    0  0.20175502637E+02 -0.28017390159E+02  0.11212193453E+02  0.36300665834E+02  0.00000000000E+00 0. -1.
         -2    1    1    2    0  501  0.31748407728E+03 -0.16864479667E+02  0.89926336279E+02  0.33040474567E+03  0.25500000000E-02 0.  1.
<mgrwt>
<rscale>  0 0.35248242E+03</rscale>
<asrwt>0</asrwt>
<pdfrwt beam="1">  1       11 0.10000000E+01 0.34062938E+03</pdfrwt>
<pdfrwt beam="2">  1       -2 0.26254022E-01 0.35248242E+03</pdfrwt>
<totfact> 0.10529069E+02</totfact>
</mgrwt>
</event>
<event>
 5    1  0.2675386E-003  0.4517837E+03  0.7818608E-02  0.1303791E+00
         11   -1    0    0    0    0  0.00000000000E+00  0.00000000000E+00  0.10002490921E+04  0.10002490921E+04  0.51100000000E-03 0.  1.
          2   -1    0    0  501    0 -0.00000000000E+00 -0.00000000000E+00 -0.64886848428E+03  0.64886848429E+03  0.25500000000E-02 0.  1.
         11    1    1    2    0    0  0.29359530596E+03 -0.34476605663E+03  0.85318700950E+03  0.96591402861E+03  0.51100000000E-03 0.  1.
         22    1    1    2    0    0 -0.17773436086E+02 -0.25021050522E+00 -0.41976727002E+02  0.45585120877E+02  0.00000000000E+00 0.  1.
          2    1    1    2  501    0 -0.27582186988E+03  0.34501626714E+03 -0.45982967473E+03  0.63761842685E+03  0.25500000000E-02 0.  1.
<mgrwt>
<rscale>  0 0.89613304E+02</rscale>
<asrwt>0</asrwt>
<pdfrwt beam="1">  1       11 0.10000000E+01 0.45178369E+03</pdfrwt>
<pdfrwt beam="2">  1        2 0.99850784E-01 0.89613304E+02</pdfrwt>
<totfact> 0.59058858E+01</totfact>
</mgrwt>
</event>
<event>
 5    1  0.2675386E-003  0.1179547E+03  0.7818608E-02  0.1431812E+00
         11   -1    0    0    0    0  0.00000000000E+00  0.00000000000E+00  0.99991143781E+03  0.99991143781E+03  0.51100000000E-03 0. -1.
          2   -1    0    0  501    0 -0.00000000000E+00 -0.00000000000E+00 -0.20539342941E+02  0.20539343099E+02  0.25500000000E-02 0.  1.
         11    1    1    2    0    0 -0.95343702245E+02 -0.64866276576E+02  0.62767583354E+03  0.63818101461E+03  0.51100000000E-03 0. -1.
         22    1    1    2    0    0 -0.19101290813E+02  0.13610513300E+02  0.41213496269E+02  0.47420013262E+02  0.00000000000E+00 0.  1.
          2    1    1    2  501    0  0.11444499306E+03  0.51255763276E+02  0.31048276506E+03  0.33484975304E+03  0.25500000000E-02 0.  1.
<mgrwt>
<rscale>  0 0.52597988E+02</rscale>
<asrwt>0</asrwt>
<pdfrwt beam="1">  1       11 0.10000000E+01 0.11795472E+03</pdfrwt>
<pdfrwt beam="2">  1        2 0.31596190E-02 0.52597988E+02</pdfrwt>
<totfact> 0.30248542E+03</totfact>
</mgrwt>
</event>
<event>
 5    1  0.2675386E-003  0.1267784E+03  0.7818608E-02  0.1232316E+00
         11   -1    0    0    0    0  0.00000000000E+00  0.00000000000E+00  0.10003887378E+04  0.10003887378E+04  0.51100000000E-03 0.  1.
          2   -1    0    0  501    0 -0.00000000000E+00 -0.00000000000E+00 -0.19247171030E+02  0.19247171199E+02  0.25500000000E-02 0.  1.
         11    1    1    2    0    0  0.58807537588E+02 -0.10595289185E+03  0.71065299432E+03  0.72091054931E+03  0.51100000000E-03 0.  1.
         22    1    1    2    0    0 -0.12121626028E+02  0.18459996768E+01  0.34218774074E+02  0.36349223258E+02  0.00000000000E+00 0.  1.
          2    1    1    2  501    0 -0.46685911560E+02  0.10410689217E+03  0.23626979835E+03  0.26237613641E+03  0.25500000000E-02 0.  1.
<mgrwt>
<rscale>  0 0.12677844E+03</rscale>
<asrwt>0</asrwt>
<pdfrwt beam="1">  1       11 0.10000000E+01 0.12117897E+03</pdfrwt>
<pdfrwt beam="2">  1        2 0.29622543E-02 0.12677844E+03</pdfrwt>
<totfact> 0.36440611E+03</totfact>
</mgrwt>
</event>
<event>
 5    1  0.2675386E-003  0.1484767E+03  0.7818608E-02  0.1413903E+00
         11   -1    0    0    0    0  0.00000000000E+00  0.00000000000E+00  0.10002187066E+04  0.10002187066E+04  0.51100000000E-03 0. -1.
          2   -1    0    0  501    0 -0.00000000000E+00 -0.00000000000E+00 -0.65982474352E+02  0.65982474401E+02  0.25500000000E-02 0. -1.
         11    1    1    2    0    0 -0.35718221624E+02 -0.14710756081E+03  0.88348094898E+03  0.89635652116E+03  0.51100000000E-03 0. -1.
         22    1    1    2    0    0  0.73254836943E+01  0.20077587631E+02 -0.12884689511E+02  0.24955709973E+02  0.00000000000E+00 0. -1.
          2    1    1    2  501    0  0.28392737930E+02  0.12702997318E+03  0.63639972781E+02  0.14488894988E+03  0.25500000000E-02 0. -1.
<mgrwt>
<rscale>  0 0.56331861E+02</rscale>
<asrwt>0</asrwt>
<pdfrwt beam="1">  1       11 0.10000000E+01 0.14847671E+03</pdfrwt>
<pdfrwt beam="2">  1        2 0.10153370E-01 0.56331861E+02</pdfrwt>
<totfact> 0.70602050E+02</totfact>
</mgrwt>
</event>
<event>
 5    1  0.2675386E-003  0.1113147E+03  0.7818608E-02  0.1258155E+00
         11   -1    0    0    0    0  0.00000000000E+00  0.00000000000E+00  0.10001916986E+04  0.10001916986E+04  0.51100000000E-03 0. -1.
         -2   -1    0    0    0  501 -0.00000000000E+00 -0.00000000000E+00 -0.12035324004E+02  0.12035324275E+02  0.25500000000E-02 0.  1.
         11    1    1    2    0    0  0.69049059225E+02  0.83104721495E+02  0.49955450337E+03  0.51110553621E+03  0.51100000000E-03 0. -1.
         22    1    1    2    0    0 -0.42294479502E+02 -0.34975599010E+02  0.28304197843E+03  0.28831385169E+03  0.00000000000E+00 0. -1.
         -2    1    1    2    0  501 -0.26754579723E+02 -0.48129122485E+02  0.20555989275E+03  0.21280763493E+03  0.25500000000E-02 0.  1.
<mgrwt>
<rscale>  0 0.11131467E+03</rscale>
<asrwt>0</asrwt>
<pdfrwt beam="1">  1       11 0.10000000E+01 0.10804706E+03</pdfrwt>
<pdfrwt beam="2">  1       -2 0.18519432E-02 0.11131467E+03</pdfrwt>
<totfact> 0.62146193E+03</totfact>
</mgrwt>
</event>
<event>
 5    1  0.2675386E-003  0.1657288E+03  0.7818608E-02  0.1182377E+00
         11   -1    0    0    0    0  0.00000000000E+00  0.00000000000E+00  0.10000690280E+04  0.10000690280E+04  0.51100000000E-03 0. -1.
          2   -1    0    0  501    0 -0.00000000000E+00 -0.00000000000E+00 -0.10218747228E+03  0.10218747231E+03  0.25500000000E-02 0. -1.
         11    1    1    2    0    0  0.96873032039E+02  0.13000846824E+03  0.92078720540E+03  0.93495222540E+03  0.51100000000E-03 0. -1.
         22    1    1    2    0    0 -0.18459623799E+02 -0.12612735010E+02 -0.12813947482E+02  0.25768896859E+02  0.00000000000E+00 0. -1.
          2    1    1    2  501    0 -0.78413408240E+02 -0.11739573323E+03 -0.10091702222E+02  0.14153537802E+03  0.25500000000E-02 0. -1.
<mgrwt>
<rscale>  0 0.16572885E+03</rscale>
<asrwt>0</asrwt>
<pdfrwt beam="1">  1       11 0.10000000E+01 0.16213139E+03</pdfrwt>
<pdfrwt beam="2">  1        2 0.15722234E-01 0.16572885E+03</pdfrwt>
<totfact> 0.44633865E+02</totfact>
</mgrwt>
</event>
<event>
 5    1  0.2675386E-003  0.1590834E+03  0.7818608E-02  0.1189736E+00
         11   -1    0    0    0    0  0.00000000000E+00  0.00000000000E+00  0.99995058100E+03  0.99995058100E+03  0.51100000000E-03 0.  1.
          2   -1    0    0  501    0 -0.00000000000E+00 -0.00000000000E+00 -0.33858742119E+02  0.33858742215E+02  0.25500000000E-02 0.  1.
         11    1    1    2    0    0 -0.13756615275E+03 -0.70951031695E+02  0.74808639453E+03  0.76393176984E+03  0.51100000000E-03 0.  1.
         22    1    1    2    0    0  0.11586975861E+03  0.46405928228E+02  0.15637247246E+03  0.20007913754E+03  0.00000000000E+00 0.  1.
          2    1    1    2  501    0  0.21696394143E+02  0.24545103467E+02  0.61632971882E+02  0.69798415831E+02  0.25500000000E-02 0.  1.
<mgrwt>
<rscale>  0 0.15908337E+03</rscale>
<asrwt>0</asrwt>
<pdfrwt beam="1">  1       11 0.10000000E+01 0.15478532E+03</pdfrwt>
<pdfrwt beam="2">  1        2 0.52087797E-02 0.15908337E+03</pdfrwt>
<totfact> 0.17594275E+03</totfact>
</mgrwt>
</event>
<event>
 5    1  0.2675386E-003  0.7311651E+02  0.7818608E-02  0.1349805E+00
         11   -1    0    0    0    0  0.00000000000E+00  0.00000000000E+00  0.10002955764E+04  0.10002955764E+04  0.51100000000E-03 0.  1.
          2   -1    0    0  501    0 -0.00000000000E+00 -0.00000000000E+00 -0.58769259007E+01  0.58769264539E+01  0.25500000000E-02 0.  1.
         11    1    1    2    0    0 -0.49835771258E+02 -0.49750461091E+02  0.31199420974E+03  0.31984230394E+03  0.51100000000E-03 0.  1.
         22    1    1    2    0    0  0.10892935224E+02  0.40739116541E+01  0.68693930037E+02  0.69671434734E+02  0.00000000000E+00 0.  1.
          2    1    1    2  501    0  0.38942836035E+02  0.45676549437E+02  0.61373051071E+03  0.61665876417E+03  0.25500000000E-02 0.  1.
<mgrwt>
<rscale>  0 0.73116514E+02</rscale>
<asrwt>0</asrwt>
<pdfrwt beam="1">  1       11 0.10000000E+01 0.70418161E+02</pdfrwt>
<pdfrwt beam="2">  1        2 0.90440971E-03 0.73116514E+02</pdfrwt>
<totfact> 0.16896044E+04</totfact>
</mgrwt>
</event>
<event>
 5    1  0.2675386E-003  0.6765895E+03  0.7818608E-02  0.9758127E-01
         11   -1    0    0    0    0  0.00000000000E+00  0.00000000000E+00  0.99982748939E+03  0.99982748939E+03  0.51100000000E-03 0. -1.
          2   -1    0    0  501    0 -0.00000000000E+00 -0.00000000000E+00 -0.24645607582E+04  0.24645607582E+04  0.25500000000E-02 0. -1.
         11    1    1    2    0    0 -0.54366314737E+03  0.38661820710E+03  0.83409402055E+03  0.10680618386E+04  0.51100000000E-03 0. -1.
         22    1    1    2    0    0  0.12517541102E+02 -0.22841027062E+02 -0.41533487570E+02  0.49024809456E+02  0.00000000000E+00 0.  1.
          2    1    1    2  501    0  0.53114560627E+03 -0.36377718004E+03 -0.22572938017E+04  0.23473015995E+04  0.25500000000E-02 0. -1.
<mgrwt>
<rscale>  0 0.67658950E+03</rscale>
<asrwt>0</asrwt>
<pdfrwt beam="1">  1       11 0.10000000E+01 0.66711562E+03</pdfrwt>
<pdfrwt beam="2">  1        2 0.37909777E+00 0.67658950E+03</pdfrwt>
<totfact> 0.47406300E+00</totfact>
</mgrwt>
</event>
<event>
 5    1  0.2675386E-003  0.1116462E+03  0.7818608E-02  0.1366605E+00
         11   -1    0    0    0    0  0.00000000000E+00  0.00000000000E+00  0.10003619918E+04  0.10003619918E+04  0.51100000000E-03 0.  1.
          2   -1    0    0  501    0 -0.00000000000E+00 -0.00000000000E+00 -0.29684046989E+02  0.29684047098E+02  0.25500000000E-02 0.  1.
         11    1    1    2    0    0 -0.26580942329E+02 -0.11794826337E+03  0.69887258071E+03  0.70925399075E+03  0.51100000000E-03 0.  1.
         22    1    1    2    0    0 -0.37270230695E+02  0.94212435197E+02  0.17876682069E+03  0.20548145713E+03  0.00000000000E+00 0.  1.
          2    1    1    2  501    0  0.63851173024E+02  0.23735828170E+02  0.93038543401E+02  0.11531059101E+03  0.25500000000E-02 0.  1.
<mgrwt>
<rscale>  0 0.68120201E+02</rscale>
<asrwt>0</asrwt>
<pdfrwt beam="1">  1       11 0.10000000E+01 0.11164623E+03</pdfrwt>
<pdfrwt beam="2">  1        2 0.45684295E-02 0.68120201E+02</pdfrwt>
<totfact> 0.19336793E+03</totfact>
</mgrwt>
</event>
<event>
 5    1  0.2675386E-003  0.1222172E+03  0.7818608E-02  0.1239484E+00
         11   -1    0    0    0    0  0.00000000000E+00  0.00000000000E+00  0.10000058980E+04  0.10000058980E+04  0.51100000000E-03 0. -1.
         -2   -1    0    0    0  501 -0.00000000000E+00 -0.00000000000E+00 -0.16116347041E+02  0.16116347242E+02  0.25500000000E-02 0.  1.
         11    1    1    2    0    0 -0.18154449498E+02  0.11959196753E+03  0.63569686669E+03  0.64710302816E+03  0.51100000000E-03 0. -1.
         22    1    1    2    0    0 -0.33687013065E+01 -0.11904720721E+02  0.37700278922E+02  0.39678477223E+02  0.00000000000E+00 0.  1.
         -2    1    1    2    0  501  0.21523150804E+02 -0.10768724681E+03  0.31049240530E+03  0.32934073981E+03  0.25500000000E-02 0.  1.
<mgrwt>
<rscale>  0 0.12221717E+03</rscale>
<asrwt>0</asrwt>
<pdfrwt beam="1">  1       11 0.10000000E+01 0.12096207E+03</pdfrwt>
<pdfrwt beam="2">  1       -2 0.24794526E-02 0.12221717E+03</pdfrwt>
<totfact> 0.41190402E+03</totfact>
</mgrwt>
</event>
<event>
 5    1  0.2675386E-003  0.1701559E+03  0.7818608E-02  0.1177685E+00
         11   -1    0    0    0    0  0.00000000000E+00  0.00000000000E+00  0.10000162423E+04  0.10000162423E+04  0.51100000000E-03 0. -1.
         -2   -1    0    0    0  501 -0.00000000000E+00 -0.00000000000E+00 -0.75426717898E+02  0.75426717941E+02  0.25500000000E-02 0.  1.
         11    1    1    2    0    0 -0.49912128733E+02 -0.15891822422E+03  0.88526794575E+03  0.90080272999E+03  0.51100000000E-03 0. -1.
         22    1    1    2    0    0  0.60680873754E-02  0.11044524521E+02 -0.53958817073E+01  0.12292155959E+02  0.00000000000E+00 0.  1.
         -2    1    1    2    0  501  0.49906060645E+02  0.14787369970E+03  0.44717460323E+02  0.16234807426E+03  0.25500000000E-02 0.  1.
<mgrwt>
<rscale>  0 0.17015588E+03</rscale>
<asrwt>0</asrwt>
<pdfrwt beam="1">  1       11 0.10000000E+01 0.16657197E+03</pdfrwt>
<pdfrwt beam="2">  1       -2 0.11604299E-01 0.17015588E+03</pdfrwt>
<totfact> 0.40830532E+02</totfact>
</mgrwt>
</event>
<event>
 5    1  0.2675386E-003  0.1887521E+03  0.7818608E-02  0.1159592E+00
         11   -1    0    0    0    0  0.00000000000E+00  0.00000000000E+00  0.10000528584E+04  0.10000528584E+04  0.51100000000E-03 0. -1.
          2   -1    0    0  501    0 -0.00000000000E+00 -0.00000000000E+00 -0.50646066165E+02  0.50646066229E+02  0.25500000000E-02 0. -1.
         11    1    1    2    0    0 -0.13878733941E+03 -0.11289238205E+03  0.76921575498E+03  0.78974647401E+03  0.51100000000E-03 0. -1.
         22    1    1    2    0    0  0.32338090145E+02  0.37847682167E+01  0.54033007669E+02  0.63084407443E+02  0.00000000000E+00 0.  1.
          2    1    1    2  501    0  0.10644924927E+03  0.10910761384E+03  0.12615802954E+03  0.19786804313E+03  0.25500000000E-02 0. -1.
<mgrwt>
<rscale>  0 0.18875214E+03</rscale>
<asrwt>0</asrwt>
<pdfrwt beam="1">  1       11 0.10000000E+01 0.17890393E+03</pdfrwt>
<pdfrwt beam="2">  1        2 0.77921141E-02 0.18875214E+03</pdfrwt>
<totfact> 0.10589502E+03</totfact>
</mgrwt>
</event>
<event>
 5    1  0.2675386E-003  0.5354169E+03  0.7818608E-02  0.1004927E+00
         11   -1    0    0    0    0  0.00000000000E+00  0.00000000000E+00  0.10009184734E+04  0.10009184734E+04  0.51100000000E-03 0. -1.
          2   -1    0    0  501    0 -0.00000000000E+00 -0.00000000000E+00 -0.21481853398E+04  0.21481853398E+04  0.25500000000E-02 0. -1.
         11    1    1    2    0    0 -0.52187658725E+03  0.87013559025E+02  0.89397724919E+03  0.10388079004E+04  0.51100000000E-03 0. -1.
         22    1    1    2    0    0  0.14929247463E+02 -0.69913268282E+01 -0.26482465706E+02  0.31194263423E+02  0.00000000000E+00 0. -1.
          2    1    1    2  501    0  0.50694733979E+03 -0.80022232196E+02 -0.20147616499E+04  0.20791016495E+04  0.25500000000E-02 0. -1.
<mgrwt>
<rscale>  0 0.53541694E+03</rscale>
<asrwt>0</asrwt>
<pdfrwt beam="1">  1       11 0.10000000E+01 0.52908084E+03</pdfrwt>
<pdfrwt beam="2">  1        2 0.33079359E+00 0.53541694E+03</pdfrwt>
<totfact> 0.72415407E+00</totfact>
</mgrwt>
</event>
<event>
 5    1  0.2675386E-003  0.7334528E+02  0.7818608E-02  0.1349073E+00
         11   -1    0    0    0    0  0.00000000000E+00  0.00000000000E+00  0.10003766372E+04  0.10003766372E+04  0.51100000000E-03 0.  1.
          2   -1    0    0  501    0 -0.00000000000E+00 -0.00000000000E+00 -0.11665550057E+02  0.11665550336E+02  0.25500000000E-02 0.  1.
         11    1    1    2    0    0  0.18725403818E+02  0.27705295987E+02  0.16949077257E+03  0.17275805672E+03  0.51100000000E-03 0.  1.
         22    1    1    2    0    0 -0.66196626855E+02 -0.44721179661E+02  0.16707417725E+03  0.18519113915E+03  0.00000000000E+00 0.  1.
          2    1    1    2  501    0  0.47471223037E+02  0.17015883674E+02  0.65214613728E+03  0.65409299162E+03  0.25500000000E-02 0.  1.
<mgrwt>
<rscale>  0 0.73345279E+02</rscale>
<asrwt>0</asrwt>
<pdfrwt beam="1">  1       11 0.10000000E+01 0.33439859E+02</pdfrwt>
<pdfrwt beam="2">  1        2 0.17953759E-02 0.73345279E+02</pdfrwt>
<totfact> 0.66814381E+03</totfact>
</mgrwt>
</event>
<event>
 5    1  0.2675386E-003  0.1476242E+03  0.7818608E-02  0.1203423E+00
         11   -1    0    0    0    0  0.00000000000E+00  0.00000000000E+00  0.10001803526E+04  0.10001803526E+04  0.51100000000E-03 0. -1.
         -2   -1    0    0    0  501 -0.00000000000E+00 -0.00000000000E+00 -0.35082323998E+02  0.35082324091E+02  0.25500000000E-02 0.  1.
         11    1    1    2    0    0  0.12531536645E+03  0.72474650417E+02  0.80329549778E+03  0.81623536604E+03  0.51100000000E-03 0. -1.
         22    1    1    2    0    0 -0.45498564729E+02 -0.24728401788E+02  0.38243722406E+02  0.64375426608E+02  0.00000000000E+00 0.  1.
         -2    1    1    2    0  501 -0.79816801716E+02 -0.47746248628E+02  0.12355880841E+03  0.15465188404E+03  0.25500000000E-02 0.  1.
<mgrwt>
<rscale>  0 0.14762420E+03</rscale>
<asrwt>0</asrwt>
<pdfrwt beam="1">  1       11 0.10000000E+01 0.14476366E+03</pdfrwt>
<pdfrwt beam="2">  1       -2 0.53982539E-02 0.14762420E+03</pdfrwt>
<totfact> 0.13256139E+03</totfact>
</mgrwt>
</event>
<event>
 5    1  0.2675386E-003  0.1621740E+03  0.7818608E-02  0.1343988E+00
         11   -1    0    0    0    0  0.00000000000E+00  0.00000000000E+00  0.10000193118E+04  0.10000193118E+04  0.51100000000E-03 0. -1.
          2   -1    0    0  501    0 -0.00000000000E+00 -0.00000000000E+00 -0.45188278947E+03  0.45188278948E+03  0.25500000000E-02 0. -1.
         11    1    1    2    0    0 -0.16148161129E+03 -0.19917853418E+02  0.97546726471E+03  0.98894358595E+03  0.51100000000E-03 0. -1.
         22    1    1    2    0    0  0.30585110624E+02  0.16284253257E+02 -0.34578640823E+02  0.48952102071E+02  0.00000000000E+00 0.  1.
          2    1    1    2  501    0  0.13089650067E+03  0.36336001607E+01 -0.39275210155E+03  0.41400641326E+03  0.25500000000E-02 0. -1.
<mgrwt>
<rscale>  0 0.74962237E+02</rscale>
<asrwt>0</asrwt>
<pdfrwt beam="1">  1       11 0.10000000E+01 0.16217400E+03</pdfrwt>
<pdfrwt beam="2">  1        2 0.69521770E-01 0.74962237E+02</pdfrwt>
<totfact> 0.88009431E+01</totfact>
</mgrwt>
</event>
<event>
 5    1  0.2675386E-003  0.1637742E+03  0.7818608E-02  0.1184500E+00
         11   -1    0    0    0    0  0.00000000000E+00  0.00000000000E+00  0.10001722917E+04  0.10001722917E+04  0.51100000000E-03 0. -1.
          2   -1    0    0  501    0 -0.00000000000E+00 -0.00000000000E+00 -0.56927727625E+02  0.56927727682E+02  0.25500000000E-02 0.  1.
         11    1    1    2    0    0 -0.80539763302E+02  0.14021249705E+03  0.85677536443E+03  0.87190035147E+03  0.51100000000E-03 0. -1.
         22    1    1    2    0    0  0.10527881663E+02 -0.53860056665E+01  0.71453509249E+01  0.13816706886E+02  0.00000000000E+00 0. -1.
          2    1    1    2  501    0  0.70011881639E+02 -0.13482649138E+03  0.79323848725E+02  0.17138296103E+03  0.25500000000E-02 0.  1.
<mgrwt>
<rscale>  0 0.16377422E+03</rscale>
<asrwt>0</asrwt>
<pdfrwt beam="1">  1       11 0.10000000E+01 0.16169786E+03</pdfrwt>
<pdfrwt beam="2">  1        2 0.87596206E-02 0.16377422E+03</pdfrwt>
<totfact> 0.90603412E+02</totfact>
</mgrwt>
</event>
<event>
 5    1  0.2675386E-003  0.3122827E+03  0.7818608E-02  0.1079257E+00
         11   -1    0    0    0    0  0.00000000000E+00  0.00000000000E+00  0.10002027632E+04  0.10002027632E+04  0.51100000000E-03 0. -1.
          2   -1    0    0  501    0 -0.00000000000E+00 -0.00000000000E+00 -0.39203927402E+03  0.39203927403E+03  0.25500000000E-02 0. -1.
         11    1    1    2    0    0  0.26986734987E+03 -0.14395904766E+03  0.90872352444E+03  0.95881752059E+03  0.51100000000E-03 0. -1.
         22    1    1    2    0    0 -0.61793444060E+02  0.69646882805E+01 -0.74308252627E+02  0.96895061897E+02  0.00000000000E+00 0. -1.
          2    1    1    2  501    0 -0.20807390581E+03  0.13699435938E+03 -0.22625178261E+03  0.33652945476E+03  0.25500000000E-02 0. -1.
<mgrwt>
<rscale>  0 0.31228269E+03</rscale>
<asrwt>0</asrwt>
<pdfrwt beam="1">  1       11 0.10000000E+01 0.30586369E+03</pdfrwt>
<pdfrwt beam="2">  1        2 0.60325962E-01 0.31228269E+03</pdfrwt>
<totfact> 0.10135671E+02</totfact>
</mgrwt>
</event>
<event>
 5    1  0.2675386E-003  0.4318861E+03  0.7818608E-02  0.1033266E+00
         11   -1    0    0    0    0  0.00000000000E+00  0.00000000000E+00  0.99988646891E+03  0.99988646891E+03  0.51100000000E-03 0. -1.
          2   -1    0    0  501    0 -0.00000000000E+00 -0.00000000000E+00 -0.16766695055E+03  0.16766695057E+03  0.25500000000E-02 0. -1.
         11    1    1    2    0    0  0.11436803416E+03 -0.36603050842E+03  0.44566019530E+03  0.58793825357E+03  0.51100000000E-03 0. -1.
         22    1    1    2    0    0  0.28534688702E+02  0.16995782099E+03  0.83788570790E+02  0.19162571322E+03  0.00000000000E+00 0. -1.
          2    1    1    2  501    0 -0.14290272286E+03  0.19607268744E+03  0.30277075226E+03  0.38798945268E+03  0.25500000000E-02 0. -1.
<mgrwt>
<rscale>  0 0.43188613E+03</rscale>
<asrwt>0</asrwt>
<pdfrwt beam="1">  1       11 0.10000000E+01 0.38348192E+03</pdfrwt>
<pdfrwt beam="2">  1        2 0.25791986E-01 0.43188613E+03</pdfrwt>
<totfact> 0.25891019E+02</totfact>
</mgrwt>
</event>
<event>
 5    1  0.2675386E-003  0.1556875E+03  0.7818608E-02  0.1193653E+00
         11   -1    0    0    0    0  0.00000000000E+00  0.00000000000E+00  0.10002052782E+04  0.10002052782E+04  0.51100000000E-03 0. -1.
          2   -1    0    0  501    0 -0.00000000000E+00 -0.00000000000E+00 -0.70900326631E+02  0.70900326677E+02  0.25500000000E-02 0. -1.
         11    1    1    2    0    0 -0.10901035183E+03  0.10753356798E+03  0.89968880031E+03  0.91262624467E+03  0.51100000000E-03 0. -1.
         22    1    1    2    0    0  0.33445278436E+02 -0.21204415355E+02 -0.14206292506E+01  0.39626153834E+02  0.00000000000E+00 0. -1.
          2    1    1    2  501    0  0.75565073395E+02 -0.86329152626E+02  0.31036780479E+02  0.11885320635E+03  0.25500000000E-02 0. -1.
<mgrwt>
<rscale>  0 0.15568748E+03</rscale>
<asrwt>0</asrwt>
<pdfrwt beam="1">  1       11 0.10000000E+01 0.15312323E+03</pdfrwt>
<pdfrwt beam="2">  1        2 0.10909981E-01 0.15568748E+03</pdfrwt>
<totfact> 0.68889252E+02</totfact>
</mgrwt>
</event>
<event>
 5    1  0.2675386E-003  0.1705688E+03  0.7818608E-02  0.1486310E+00
         11   -1    0    0    0    0  0.00000000000E+00  0.00000000000E+00  0.10001630763E+04  0.10001630763E+04  0.51100000000E-03 0. -1.
          2   -1    0    0  501    0 -0.00000000000E+00 -0.00000000000E+00 -0.47796266392E+02  0.47796266460E+02  0.25500000000E-02 0. -1.
         11    1    1    2    0    0 -0.12380171647E+03 -0.13208601939E+03  0.67329233536E+03  0.69720595980E+03  0.51100000000E-03 0. -1.
         22    1    1    2    0    0  0.10935656615E+03  0.91438109573E+02  0.12125109832E+03  0.18714062970E+03  0.00000000000E+00 0. -1.
          2    1    1    2  501    0  0.14445150322E+02  0.40647909819E+02  0.15782337627E+03  0.16361275330E+03  0.25500000000E-02 0. -1.
<mgrwt>
<rscale>  0 0.43138323E+02</rscale>
<asrwt>0</asrwt>
<pdfrwt beam="1">  1       11 0.10000000E+01 0.17056879E+03</pdfrwt>
<pdfrwt beam="2">  1        2 0.73544707E-02 0.43138323E+02</pdfrwt>
<totfact> 0.10186857E+03</totfact>
</mgrwt>
</event>
<event>
 5    1  0.2675386E-003  0.2513743E+03  0.7818608E-02  0.1312062E+00
         11   -1    0    0    0    0  0.00000000000E+00  0.00000000000E+00  0.10003151285E+04  0.10003151285E+04  0.51100000000E-03 0. -1.
          2   -1    0    0  501    0 -0.00000000000E+00 -0.00000000000E+00 -0.75469166163E+03  0.75469166164E+03  0.25500000000E-02 0. -1.
         11    1    1    2    0    0 -0.16355968964E+03  0.19110018780E+03  0.95622212372E+03  0.98875265044E+03  0.51100000000E-03 0. -1.
         22    1    1    2    0    0  0.25945317774E+02  0.14308576612E+02 -0.15957656175E+03  0.16230395540E+03  0.00000000000E+00 0. -1.
          2    1    1    2  501    0  0.13761437187E+03 -0.20540876441E+03 -0.55102209509E+03  0.60395018431E+03  0.25500000000E-02 0. -1.
<mgrwt>
<rscale>  0 0.86302036E+02</rscale>
<asrwt>0</asrwt>
<pdfrwt beam="1">  1       11 0.10000000E+01 0.25137427E+03</pdfrwt>
<pdfrwt beam="2">  1        2 0.11614299E+00 0.86302036E+02</pdfrwt>
<totfact> 0.49575762E+01</totfact>
</mgrwt>
</event>
<event>
 5    1  0.2675386E-003  0.1128673E+03  0.7818608E-02  0.1276554E+00
         11   -1    0    0    0    0  0.00000000000E+00  0.00000000000E+00  0.99998492012E+03  0.99998492012E+03  0.51100000000E-03 0.  1.
         -2   -1    0    0    0  501 -0.00000000000E+00 -0.00000000000E+00 -0.11591871423E+02  0.11591871703E+02  0.25500000000E-02 0. -1.
         11    1    1    2    0    0 -0.45859697667E+02 -0.21318579432E+02  0.24835709870E+03  0.25345382652E+03  0.51100000000E-03 0.  1.
         22    1    1    2    0    0 -0.14655789939E+02 -0.60542729333E+02  0.31072031605E+03  0.31690271229E+03  0.00000000000E+00 0.  1.
         -2    1    1    2    0  501  0.60515487606E+02  0.81861308765E+02  0.42931563394E+03  0.44122025301E+03  0.25500000000E-02 0. -1.
<mgrwt>
<rscale>  0 0.10180078E+03</rscale>
<asrwt>0</asrwt>
<pdfrwt beam="1">  1       11 0.10000000E+01 0.11286729E+03</pdfrwt>
<pdfrwt beam="2">  1       -2 0.17833379E-02 0.10180078E+03</pdfrwt>
<totfact> 0.64838454E+03</totfact>
</mgrwt>
</event>
<event>
 5    1  0.2675386E-003  0.1133894E+03  0.7818608E-02  0.1254419E+00
         11   -1    0    0    0    0  0.00000000000E+00  0.00000000000E+00  0.10000751680E+04  0.10000751680E+04  0.51100000000E-03 0. -1.
          2   -1    0    0  501    0 -0.00000000000E+00 -0.00000000000E+00 -0.12599943498E+02  0.12599943756E+02  0.25500000000E-02 0. -1.
         11    1    1    2    0    0 -0.84620198625E+02 -0.71434877965E+02  0.51725918007E+03  0.52898069830E+03  0.51100000000E-03 0. -1.
         22    1    1    2    0    0  0.51693581745E+02  0.27844235197E+02  0.23677397025E+03  0.24394556937E+03  0.00000000000E+00 0. -1.
          2    1    1    2  501    0  0.32926616880E+02  0.43590642768E+02  0.23344207416E+03  0.23974884406E+03  0.25500000000E-02 0. -1.
<mgrwt>
<rscale>  0 0.11338941E+03</rscale>
<asrwt>0</asrwt>
<pdfrwt beam="1">  1       11 0.10000000E+01 0.11074078E+03</pdfrwt>
<pdfrwt beam="2">  1        2 0.19385985E-02 0.11338941E+03</pdfrwt>
<totfact> 0.63806877E+03</totfact>
</mgrwt>
</event>
<event>
 5    1  0.2675386E-003  0.7084253E+02  0.7818608E-02  0.1357251E+00
         11   -1    0    0    0    0  0.00000000000E+00  0.00000000000E+00  0.10003333529E+04  0.10003333529E+04  0.51100000000E-03 0.  1.
          2   -1    0    0  501    0 -0.00000000000E+00 -0.00000000000E+00 -0.97504600502E+01  0.97504603836E+01  0.25500000000E-02 0.  1.
         11    1    1    2    0    0 -0.38981520371E+02 -0.72911758541E+02  0.30273411823E+03  0.31382101556E+03  0.51100000000E-03 0.  1.
         22    1    1    2    0    0 -0.14170424901E+02  0.43936169062E+02  0.24701414357E+03  0.25129101659E+03  0.00000000000E+00 0.  1.
          2    1    1    2  501    0  0.53151945272E+02  0.28975589479E+02  0.44083463100E+03  0.44497178109E+03  0.25500000000E-02 0.  1.
<mgrwt>
<rscale>  0 0.70842525E+02</rscale>
<asrwt>0</asrwt>
<pdfrwt beam="1">  1       11 0.10000000E+01 0.46164791E+02</pdfrwt>
<pdfrwt beam="2">  1        2 0.15005708E-02 0.70842525E+02</pdfrwt>
<totfact> 0.84626195E+03</totfact>
</mgrwt>
</event>
<event>
 5    1  0.2675386E-003  0.9708611E+02  0.7818608E-02  0.1625174E+00
         11   -1    0    0    0    0  0.00000000000E+00  0.00000000000E+00  0.10000989931E+04  0.10000989931E+04  0.51100000000E-03 0. -1.
          2   -1    0    0  501    0 -0.00000000000E+00 -0.00000000000E+00 -0.13569599816E+02  0.13569600056E+02  0.25500000000E-02 0. -1.
         11    1    1    2    0    0  0.83208335005E+02 -0.43145969443E+02  0.27415150985E+03  0.28973134461E+03  0.51100000000E-03 0. -1.
         22    1    1    2    0    0 -0.72838568772E+02  0.68816424982E+02  0.59163205479E+03  0.60005803528E+03  0.00000000000E+00 0. -1.
          2    1    1    2  501    0 -0.10369766234E+02 -0.25670455539E+02  0.12074582862E+03  0.12387921325E+03  0.25500000000E-02 0. -1.
<mgrwt>
<rscale>  0 0.27685815E+02</rscale>
<asrwt>0</asrwt>
<pdfrwt beam="1">  1       11 0.10000000E+01 0.97086105E+02</pdfrwt>
<pdfrwt beam="2">  1        2 0.20878374E-02 0.27685815E+02</pdfrwt>
<totfact> 0.47015943E+03</totfact>
</mgrwt>
</event>
<event>
 5    1  0.2675386E-003  0.2543420E+03  0.7818608E-02  0.1110591E+00
         11   -1    0    0    0    0  0.00000000000E+00  0.00000000000E+00  0.10000836676E+04  0.10000836676E+04  0.51100000000E-03 0.  1.
          2   -1    0    0  501    0 -0.00000000000E+00 -0.00000000000E+00 -0.46463929740E+03  0.46463929740E+03  0.25500000000E-02 0.  1.
         11    1    1    2    0    0  0.12303073704E+03  0.21220806045E+03  0.94846489980E+03  0.97967060246E+03  0.51100000000E-03 0.  1.
         22    1    1    2    0    0 -0.44271598596E+02 -0.11874778952E+03 -0.16044132432E+03  0.20445642692E+03  0.00000000000E+00 0.  1.
          2    1    1    2  501    0 -0.78759138439E+02 -0.93460270931E+02 -0.25257920529E+03  0.28059593561E+03  0.25500000000E-02 0.  1.
<mgrwt>
<rscale>  0 0.25434197E+03</rscale>
<asrwt>0</asrwt>
<pdfrwt beam="1">  1       11 0.10000000E+01 0.24529334E+03</pdfrwt>
<pdfrwt beam="2">  1        2 0.71488948E-01 0.25434197E+03</pdfrwt>
<totfact> 0.84230621E+01</totfact>
</mgrwt>
</event>
<event>
 5    1  0.2675386E-003  0.2363656E+03  0.7818608E-02  0.1122238E+00
         11   -1    0    0    0    0  0.00000000000E+00  0.00000000000E+00  0.10003001603E+04  0.10003001603E+04  0.51100000000E-03 0.  1.
          2   -1    0    0  501    0 -0.00000000000E+00 -0.00000000000E+00 -0.29137294028E+03  0.29137294029E+03  0.25500000000E-02 0.  1.
         11    1    1    2    0    0 -0.18185744441E+03 -0.14007001838E+03  0.93610243768E+03  0.96383583351E+03  0.51100000000E-03 0.  1.
         22    1    1    2    0    0  0.15517413989E+03  0.13964477558E+03 -0.20996311235E+03  0.29608138338E+03  0.00000000000E+00 0.  1.
          2    1    1    2  501    0  0.26683304524E+02  0.42524279314E+00 -0.17212105331E+02  0.31755883678E+02  0.25500000000E-02 0.  1.
<mgrwt>
<rscale>  0 0.23636559E+03</rscale>
<asrwt>0</asrwt>
<pdfrwt beam="1">  1       11 0.10000000E+01 0.22954681E+03</pdfrwt>
<pdfrwt beam="2">  1        2 0.44840060E-01 0.23636559E+03</pdfrwt>
<totfact> 0.13997110E+02</totfact>
</mgrwt>
</event>
<event>
 5    1  0.2675386E-003  0.7777331E+02  0.7818608E-02  0.1389570E+00
         11   -1    0    0    0    0  0.00000000000E+00  0.00000000000E+00  0.10001659025E+04  0.10001659025E+04  0.51100000000E-03 0. -1.
          2   -1    0    0  501    0 -0.00000000000E+00 -0.00000000000E+00 -0.13912012780E+02  0.13912013014E+02  0.25500000000E-02 0. -1.
         11    1    1    2    0    0 -0.71943016546E+02 -0.77411123750E+02  0.51123991251E+03  0.52204839608E+03  0.51100000000E-03 0. -1.
         22    1    1    2    0    0  0.14321093923E+02  0.47328407349E+02  0.10152780076E+03  0.11292903170E+03  0.00000000000E+00 0. -1.
          2    1    1    2  501    0  0.57621922623E+02  0.30082716401E+02  0.37348617647E+03  0.37910048775E+03  0.25500000000E-02 0. -1.
<mgrwt>
<rscale>  0 0.62013766E+02</rscale>
<asrwt>0</asrwt>
<pdfrwt beam="1">  1       11 0.10000000E+01 0.77773315E+02</pdfrwt>
<pdfrwt beam="2">  1        2 0.21406647E-02 0.62013766E+02</pdfrwt>
<totfact> 0.51592373E+03</totfact>
</mgrwt>
</event>
<event>
 5    1  0.2675386E-003  0.2770279E+03  0.7818608E-02  0.1325261E+00
         11   -1    0    0    0    0  0.00000000000E+00  0.00000000000E+00  0.10002079822E+04  0.10002079822E+04  0.51100000000E-03 0.  1.
          2   -1    0    0  501    0 -0.00000000000E+00 -0.00000000000E+00 -0.91013612191E+02  0.91013612227E+02  0.25500000000E-02 0.  1.
         11    1    1    2    0    0 -0.23997644714E+03  0.14201732924E+03  0.59145629438E+03  0.65389461318E+03  0.51100000000E-03 0.  1.
         22    1    1    2    0    0 -0.73345690442E+01 -0.22735264351E+02  0.13232199137E+02  0.27308959010E+02  0.00000000000E+00 0. -1.
          2    1    1    2  501    0  0.24731101619E+03 -0.11928206489E+03  0.30450587649E+03  0.41001802224E+03  0.25500000000E-02 0.  1.
<mgrwt>
<rscale>  0 0.81350739E+02</rscale>
<asrwt>0</asrwt>
<pdfrwt beam="1">  1       11 0.10000000E+01 0.27702794E+03</pdfrwt>
<pdfrwt beam="2">  1        2 0.14005006E-01 0.81350739E+02</pdfrwt>
<totfact> 0.49470023E+02</totfact>
</mgrwt>
</event>
<event>
 5    1  0.2675386E-003  0.9966314E+02  0.7818608E-02  0.1281006E+00
         11   -1    0    0    0    0  0.00000000000E+00  0.00000000000E+00  0.99987400282E+03  0.99987400282E+03  0.51100000000E-03 0.  1.
          2   -1    0    0  501    0 -0.00000000000E+00 -0.00000000000E+00 -0.96164845915E+01  0.96164849296E+01  0.25500000000E-02 0.  1.
         11    1    1    2    0    0 -0.72655439873E+02 -0.63436064590E+02  0.48659327093E+03  0.49606043840E+03  0.51100000000E-03 0.  1.
         22    1    1    2    0    0  0.61143238570E+02  0.40763709389E+02  0.34482281785E+03  0.35256623680E+03  0.00000000000E+00 0.  1.
          2    1    1    2  501    0  0.11512201303E+02  0.22672355201E+02  0.15884142945E+03  0.16086381254E+03  0.25500000000E-02 0.  1.
<mgrwt>
<rscale>  0 0.99663140E+02</rscale>
<asrwt>0</asrwt>
<pdfrwt beam="1">  1       11 0.10000000E+01 0.96451835E+02</pdfrwt>
<pdfrwt beam="2">  1        2 0.14792727E-02 0.99663140E+02</pdfrwt>
<totfact> 0.90645854E+03</totfact>
</mgrwt>
</event>
<event>
 5    1  0.2675386E-003  0.1594113E+03  0.7818608E-02  0.1189363E+00
         11   -1    0    0    0    0  0.00000000000E+00  0.00000000000E+00  0.10002032717E+04  0.10002032717E+04  0.51100000000E-03 0.  1.
          2   -1    0    0  501    0 -0.00000000000E+00 -0.00000000000E+00 -0.37550293436E+02  0.37550293523E+02  0.25500000000E-02 0.  1.
         11    1    1    2    0    0  0.19472023363E+02 -0.15409135720E+03  0.78002881257E+03  0.79534159611E+03  0.51100000000E-03 0.  1.
         22    1    1    2    0    0  0.28174059592E+01  0.13003976296E+02  0.44039207735E+01  0.14015551863E+02  0.00000000000E+00 0. -1.
          2    1    1    2  501    0 -0.22289429323E+02  0.14108738091E+03  0.17822024495E+03  0.22839641728E+03  0.25500000000E-02 0.  1.
<mgrwt>
<rscale>  0 0.15941134E+03</rscale>
<asrwt>0</asrwt>
<pdfrwt beam="1">  1       11 0.10000000E+01 0.15531679E+03</pdfrwt>
<pdfrwt beam="2">  1        2 0.57781424E-02 0.15941134E+03</pdfrwt>
<totfact> 0.15372968E+03</totfact>
</mgrwt>
</event>
<event>
 5    1  0.2675386E-003  0.1288958E+03  0.7818608E-02  0.1229103E+00
         11   -1    0    0    0    0  0.00000000000E+00  0.00000000000E+00  0.99983528368E+03  0.99983528368E+03  0.51100000000E-03 0. -1.
         -2   -1    0    0    0  501 -0.00000000000E+00 -0.00000000000E+00 -0.17406336857E+02  0.17406337044E+02  0.25500000000E-02 0. -1.
         11    1    1    2    0    0 -0.21205124391E+02 -0.11958780886E+03  0.63858657771E+03  0.65003362879E+03  0.51100000000E-03 0. -1.
         22    1    1    2    0    0  0.48068100985E+01  0.18001240268E+02  0.19660995880E+02  0.27086986423E+02  0.00000000000E+00 0. -1.
         -2    1    1    2    0  501  0.16398314293E+02  0.10158656859E+03  0.32418137323E+03  0.34012100551E+03  0.25500000000E-02 0. -1.
<mgrwt>
<rscale>  0 0.12889583E+03</rscale>
<asrwt>0</asrwt>
<pdfrwt beam="1">  1       11 0.10000000E+01 0.12145329E+03</pdfrwt>
<pdfrwt beam="2">  1       -2 0.26774568E-02 0.12889583E+03</pdfrwt>
<totfact> 0.37047581E+03</totfact>
</mgrwt>
</event>
<event>
 5    1  0.2675386E-003  0.2128326E+03  0.7818608E-02  0.1304788E+00
         11   -1    0    0    0    0  0.00000000000E+00  0.00000000000E+00  0.10002088408E+04  0.10002088408E+04  0.51100000000E-03 0.  1.
          2   -1    0    0  501    0 -0.00000000000E+00 -0.00000000000E+00 -0.18600037481E+03  0.18600037482E+03  0.25500000000E-02 0.  1.
         11    1    1    2    0    0  0.21292898450E+03  0.57633879341E+02  0.89358587086E+03  0.92041084581E+03  0.51100000000E-03 0.  1.
         22    1    1    2    0    0 -0.12649347724E+03 -0.35577526375E+02 -0.11012114520E+03  0.17144394648E+03  0.00000000000E+00 0.  1.
          2    1    1    2  501    0 -0.86435507261E+02 -0.22056352966E+02  0.30743740306E+02  0.94354423299E+02  0.25500000000E-02 0.  1.
<mgrwt>
<rscale>  0 0.89205267E+02</rscale>
<asrwt>0</asrwt>
<pdfrwt beam="1">  1       11 0.10000000E+01 0.21283259E+03</pdfrwt>
<pdfrwt beam="2">  1        2 0.28621418E-01 0.89205267E+02</pdfrwt>
<totfact> 0.22367593E+02</totfact>
</mgrwt>
</event>
<event>
 5    1  0.2675386E-003  0.1630539E+03  0.7818608E-02  0.1185291E+00
         11   -1    0    0    0    0  0.00000000000E+00  0.00000000000E+00  0.10000701689E+04  0.10000701689E+04  0.51100000000E-03 0. -1.
          2   -1    0    0  501    0 -0.00000000000E+00 -0.00000000000E+00 -0.34612469354E+02  0.34612469448E+02  0.25500000000E-02 0. -1.
         11    1    1    2    0    0 -0.84067990071E+02 -0.13365576136E+03  0.73870678715E+03  0.75539327961E+03  0.51100000000E-03 0. -1.
         22    1    1    2    0    0 -0.14691120271E+01  0.22607396310E+02  0.36874294080E+02  0.43277779772E+02  0.00000000000E+00 0.  1.
          2    1    1    2  501    0  0.85537102098E+02  0.11104836505E+03  0.18987661830E+03  0.23601157895E+03  0.25500000000E-02 0. -1.
<mgrwt>
<rscale>  0 0.16305389E+03</rscale>
<asrwt>0</asrwt>
<pdfrwt beam="1">  1       11 0.10000000E+01 0.15789645E+03</pdfrwt>
<pdfrwt beam="2">  1        2 0.53253688E-02 0.16305389E+03</pdfrwt>
<totfact> 0.17124762E+03</totfact>
</mgrwt>
</event>
<event>
 5    1  0.2675386E-003  0.1317890E+03  0.7818608E-02  0.1324245E+00
         11   -1    0    0    0    0  0.00000000000E+00  0.00000000000E+00  0.10002009085E+04  0.10002009085E+04  0.51100000000E-03 0.  1.
         -2   -1    0    0    0  501 -0.00000000000E+00 -0.00000000000E+00 -0.52545305261E+02  0.52545305323E+02  0.25500000000E-02 0.  1.
         11    1    1    2    0    0 -0.70506828492E+02  0.13426599119E+03  0.62531374585E+03  0.64344063441E+03  0.51100000000E-03 0.  1.
         22    1    1    2    0    0  0.44815193453E+02 -0.23646044814E+02 -0.15418362842E+02  0.52964732722E+02  0.00000000000E+00 0.  1.
         -2    1    1    2    0  501  0.25691635039E+02 -0.11061994638E+03  0.33776022022E+03  0.35634084668E+03  0.25500000000E-02 0.  1.
<mgrwt>
<rscale>  0 0.81718203E+02</rscale>
<asrwt>0</asrwt>
<pdfrwt beam="1">  1       11 0.10000000E+01 0.13178903E+03</pdfrwt>
<pdfrwt beam="2">  1       -2 0.80855170E-02 0.81718203E+02</pdfrwt>
<totfact> 0.68455456E+02</totfact>
</mgrwt>
</event>
<event>
 5    1  0.2675386E-003  0.1361464E+03  0.7818608E-02  0.1278375E+00
         11   -1    0    0    0    0  0.00000000000E+00  0.00000000000E+00  0.10000151856E+04  0.10000151856E+04  0.51100000000E-03 0. -1.
          2   -1    0    0  501    0 -0.00000000000E+00 -0.00000000000E+00 -0.55731821968E+02  0.55731822027E+02  0.25500000000E-02 0. -1.
         11    1    1    2    0    0 -0.11093256445E+03  0.46918644429E+02  0.17978793193E+03  0.21640492951E+03  0.51100000000E-03 0. -1.
         22    1    1    2    0    0  0.17736386038E+03  0.29051975830E+02  0.21302774367E+03  0.27871629992E+03  0.00000000000E+00 0. -1.
          2    1    1    2  501    0 -0.66431295931E+02 -0.75970620259E+02  0.55146768805E+03  0.56062577821E+03  0.25500000000E-02 0. -1.
<mgrwt>
<rscale>  0 0.10091904E+03</rscale>
<asrwt>0</asrwt>
<pdfrwt beam="1">  1       11 0.10000000E+01 0.13614640E+03</pdfrwt>
<pdfrwt beam="2">  1        2 0.85742564E-02 0.10091904E+03</pdfrwt>
<totfact> 0.90259240E+02</totfact>
</mgrwt>
</event>
<event>
 5    1  0.2675386E-003  0.4018283E+02  0.7818608E-02  0.1696413E+00
         11   -1    0    0    0    0  0.00000000000E+00  0.00000000000E+00  0.10003072026E+04  0.10003072026E+04  0.51100000000E-03 0. -1.
          2   -1    0    0  501    0 -0.00000000000E+00 -0.00000000000E+00 -0.36426073219E+01  0.36426082144E+01  0.25500000000E-02 0. -1.
         11    1    1    2    0    0  0.45268466709E+02  0.98866039705E+01  0.27262635229E+03  0.27653590541E+03  0.51100000000E-03 0. -1.
         22    1    1    2    0    0 -0.65271363216E+01 -0.11038755017E+02  0.34815747618E+02  0.37102478396E+02  0.00000000000E+00 0. -1.
          2    1    1    2  501    0 -0.38741330388E+02  0.11521510465E+01  0.68922249541E+03  0.69031142705E+03  0.25500000000E-02 0. -1.
<mgrwt>
<rscale>  0 0.22700408E+02</rscale>
<asrwt>0</asrwt>
<pdfrwt beam="1">  1       11 0.10000000E+01 0.40182833E+02</pdfrwt>
<pdfrwt beam="2">  1        2 0.56057334E-03 0.22700408E+02</pdfrwt>
<totfact> 0.25012420E+04</totfact>
</mgrwt>
</event>
<event>
 5    1  0.2675386E-003  0.3600746E+03  0.7818608E-02  0.1058554E+00
         11   -1    0    0    0    0  0.00000000000E+00  0.00000000000E+00  0.10000556913E+04  0.10000556913E+04  0.51100000000E-03 0.  1.
          2   -1    0    0  501    0 -0.00000000000E+00 -0.00000000000E+00 -0.15062695376E+03  0.15062695378E+03  0.25500000000E-02 0.  1.
         11    1    1    2    0    0  0.35389008157E+03 -0.28469887761E+02  0.64595758936E+03  0.73709560546E+03  0.51100000000E-03 0.  1.
         22    1    1    2    0    0 -0.13267611052E+02  0.10051358170E+02  0.50851667906E+00  0.16652864417E+02  0.00000000000E+00 0.  1.
          2    1    1    2  501    0 -0.34062247052E+03  0.18418529591E+02  0.20296263152E+03  0.39693417522E+03  0.25500000000E-02 0.  1.
<mgrwt>
<rscale>  0 0.36007462E+03</rscale>
<asrwt>0</asrwt>
<pdfrwt beam="1">  1       11 0.10000000E+01 0.35503341E+03</pdfrwt>
<pdfrwt beam="2">  1        2 0.23174667E-01 0.36007462E+03</pdfrwt>
<totfact> 0.29148095E+02</totfact>
</mgrwt>
</event>
<event>
 5    1  0.2675386E-003  0.7868823E+02  0.7818608E-02  0.1715250E+00
         11   -1    0    0    0    0  0.00000000000E+00  0.00000000000E+00  0.99995383015E+03  0.99995383015E+03  0.51100000000E-03 0. -1.
          2   -1    0    0  501    0 -0.00000000000E+00 -0.00000000000E+00 -0.10905243676E+02  0.10905243974E+02  0.25500000000E-02 0. -1.
         11    1    1    2    0    0  0.44987208092E+02  0.74814867961E+02  0.27579414698E+03  0.28928104824E+03  0.51100000000E-03 0. -1.
         22    1    1    2    0    0 -0.23805445169E+02 -0.70581090249E+02  0.35797679556E+03  0.36564432948E+03  0.00000000000E+00 0. -1.
          2    1    1    2  501    0 -0.21181762923E+02 -0.42337777115E+01  0.35527764393E+03  0.35593369641E+03  0.25500000000E-02 0. -1.
<mgrwt>
<rscale>  0 0.21600740E+02</rscale>
<asrwt>0</asrwt>
<pdfrwt beam="1">  1       11 0.10000000E+01 0.78688234E+02</pdfrwt>
<pdfrwt beam="2">  1        2 0.16776523E-02 0.21600740E+02</pdfrwt>
<totfact> 0.59483900E+03</totfact>
</mgrwt>
</event>
<event>
 5    1  0.2675386E-003  0.1325776E+03  0.7818608E-02  0.1326446E+00
         11   -1    0    0    0    0  0.00000000000E+00  0.00000000000E+00  0.10005877425E+04  0.10005877425E+04  0.51100000000E-03 0.  1.
         -2   -1    0    0    0  501 -0.00000000000E+00 -0.00000000000E+00 -0.52198372189E+02  0.52198372251E+02  0.25500000000E-02 0. -1.
         11    1    1    2    0    0  0.11433682037E+03  0.89871405908E+02  0.84073683415E+03  0.85322224678E+03  0.51100000000E-03 0.  1.
         22    1    1    2    0    0 -0.35409701879E+02 -0.34441294855E+02 -0.68335965285E+01  0.49867302112E+02  0.00000000000E+00 0. -1.
         -2    1    1    2    0  501 -0.78927118488E+02 -0.55430111053E+02  0.11448613264E+03  0.14969656582E+03  0.25500000000E-02 0. -1.
<mgrwt>
<rscale>  0 0.80925393E+02</rscale>
<asrwt>0</asrwt>
<pdfrwt beam="1">  1       11 0.10000000E+01 0.13257764E+03</pdfrwt>
<pdfrwt beam="2">  1       -2 0.80352385E-02 0.80925393E+02</pdfrwt>
<totfact> 0.69056004E+02</totfact>
</mgrwt>
</event>
<event>
 5    1  0.2675386E-003  0.2292233E+03  0.7818608E-02  0.1127188E+00
         11   -1    0    0    0    0  0.00000000000E+00  0.00000000000E+00  0.10004938619E+04  0.10004938619E+04  0.51100000000E-03 0. -1.
          2   -1    0    0  501    0 -0.00000000000E+00 -0.00000000000E+00 -0.33851686453E+03  0.33851686454E+03  0.25500000000E-02 0. -1.
         11    1    1    2    0    0  0.22721504982E+03  0.16651752524E+02  0.94656051281E+03  0.97359168245E+03  0.51100000000E-03 0. -1.
         22    1    1    2    0    0 -0.91501830870E+01 -0.58779640092E+01 -0.14466045383E+02  0.18098143011E+02  0.00000000000E+00 0. -1.
          2    1    1    2  501    0 -0.21806486673E+03 -0.10773788515E+02 -0.27011747006E+03  0.34732090098E+03  0.25500000000E-02 0. -1.
<mgrwt>
<rscale>  0 0.22922325E+03</rscale>
<asrwt>0</asrwt>
<pdfrwt beam="1">  1       11 0.10000000E+01 0.22782441E+03</pdfrwt>
<pdfrwt beam="2">  1        2 0.52105236E-01 0.22922325E+03</pdfrwt>
<totfact> 0.11904582E+02</totfact>
</mgrwt>
</event>
<event>
 5    1  0.2675386E-003  0.1721319E+03  0.7818608E-02  0.1279449E+00
         11   -1    0    0    0    0  0.00000000000E+00  0.00000000000E+00  0.99997063353E+03  0.99997063353E+03  0.51100000000E-03 0. -1.
          2   -1    0    0  501    0 -0.00000000000E+00 -0.00000000000E+00 -0.62998205837E+02  0.62998205888E+02  0.25500000000E-02 0. -1.
         11    1    1    2    0    0 -0.16257886289E+03  0.96455867556E+02  0.69396166104E+03  0.71924850229E+03  0.51100000000E-03 0. -1.
         22    1    1    2    0    0  0.58039631792E+02  0.78284139799E+01 -0.92694145778E+00  0.58572537460E+02  0.00000000000E+00 0. -1.
          2    1    1    2  501    0  0.10453923110E+03 -0.10428428154E+03  0.24393770810E+03  0.28514779967E+03  0.25500000000E-02 0. -1.
<mgrwt>
<rscale>  0 0.10040389E+03</rscale>
<asrwt>0</asrwt>
<pdfrwt beam="1">  1       11 0.10000000E+01 0.17213193E+03</pdfrwt>
<pdfrwt beam="2">  1        2 0.96917468E-02 0.10040389E+03</pdfrwt>
<totfact> 0.77629358E+02</totfact>
</mgrwt>
</event>
<event>
 5    1  0.2675386E-003  0.1976499E+03  0.7818608E-02  0.1151737E+00
         11   -1    0    0    0    0  0.00000000000E+00  0.00000000000E+00  0.10003999875E+04  0.10003999875E+04  0.51100000000E-03 0.  1.
          2   -1    0    0  501    0 -0.00000000000E+00 -0.00000000000E+00 -0.44568430368E+02  0.44568430441E+02  0.25500000000E-02 0.  1.
         11    1    1    2    0    0 -0.16343229481E+03  0.10884491527E+03  0.66459681897E+03  0.69299802478E+03  0.51100000000E-03 0.  1.
         22    1    1    2    0    0  0.49390874714E+01 -0.90563465116E+01  0.16903712557E+02  0.19802714344E+02  0.00000000000E+00 0. -1.
          2    1    1    2  501    0  0.15849320734E+03 -0.99788568763E+02  0.27433102557E+03  0.33216767877E+03  0.25500000000E-02 0.  1.
<mgrwt>
<rscale>  0 0.19764990E+03</rscale>
<asrwt>0</asrwt>
<pdfrwt beam="1">  1       11 0.10000000E+01 0.19636021E+03</pdfrwt>
<pdfrwt beam="2">  1        2 0.68594240E-02 0.19764990E+03</pdfrwt>
<totfact> 0.12499823E+03</totfact>
</mgrwt>
</event>
<event>
 5    1  0.2675386E-003  0.1077665E+03  0.7818608E-02  0.1463616E+00
         11   -1    0    0    0    0  0.00000000000E+00  0.00000000000E+00  0.10001074498E+04  0.10001074498E+04  0.51100000000E-03 0. -1.
          2   -1    0    0  501    0 -0.00000000000E+00 -0.00000000000E+00 -0.15895914987E+02  0.15895915191E+02  0.25500000000E-02 0. -1.
         11    1    1    2    0    0 -0.11102332131E+03 -0.12490099285E+02  0.66926564591E+03  0.67852684932E+03  0.51100000000E-03 0. -1.
         22    1    1    2    0    0  0.13946410182E+02 -0.14741724540E+02  0.47280837198E+02  0.51451903420E+02  0.00000000000E+00 0. -1.
          2    1    1    2  501    0  0.97076911130E+02  0.27231823824E+02  0.26766505175E+03  0.28602461230E+03  0.25500000000E-02 0. -1.
<mgrwt>
<rscale>  0 0.46764785E+02</rscale>
<asrwt>0</asrwt>
<pdfrwt beam="1">  1       11 0.10000000E+01 0.10776649E+03</pdfrwt>
<pdfrwt beam="2">  1        2 0.24457881E-02 0.46764785E+02</pdfrwt>
<totfact> 0.41583298E+03</totfact>
</mgrwt>
</event>
<event>
 5    1  0.2675386E-003  0.1140986E+03  0.7818608E-02  0.1253163E+00
         11   -1    0    0    0    0  0.00000000000E+00  0.00000000000E+00  0.10000881378E+04  0.10000881378E+04  0.51100000000E-03 0. -1.
          2   -1    0    0  501    0 -0.00000000000E+00 -0.00000000000E+00 -0.13686617658E+02  0.13686617895E+02  0.25500000000E-02 0. -1.
         11    1    1    2    0    0 -0.97598133316E+02  0.29931041820E+02  0.27610779377E+03  0.29437523108E+03  0.51100000000E-03 0. -1.
         22    1    1    2    0    0  0.61521741167E+02  0.10714318869E+01  0.29218127630E+03  0.29858997107E+03  0.00000000000E+00 0. -1.
          2    1    1    2  501    0  0.36076392149E+02 -0.31002473706E+02  0.41811245007E+03  0.42080955354E+03  0.25500000000E-02 0. -1.
<mgrwt>
<rscale>  0 0.11409863E+03</rscale>
<asrwt>0</asrwt>
<pdfrwt beam="1">  1       11 0.10000000E+01 0.10208464E+03</pdfrwt>
<pdfrwt beam="2">  1        2 0.21058190E-02 0.11409863E+03</pdfrwt>
<totfact> 0.57072497E+03</totfact>
</mgrwt>
</event>
<event>
 5    1  0.2675386E-003  0.9554224E+02  0.7818608E-02  0.1289959E+00
         11   -1    0    0    0    0  0.00000000000E+00  0.00000000000E+00  0.10000096785E+04  0.10000096785E+04  0.51100000000E-03 0.  1.
         -2   -1    0    0    0  501 -0.00000000000E+00 -0.00000000000E+00 -0.89862509536E+01  0.89862513154E+01  0.25500000000E-02 0. -1.
         11    1    1    2    0    0  0.86659024540E+02  0.33860388092E+02  0.43697758915E+03  0.44677256612E+03  0.51100000000E-03 0.  1.
         22    1    1    2    0    0 -0.26625362717E+02 -0.23665811273E+01  0.12226253818E+03  0.12515046499E+03  0.00000000000E+00 0. -1.
         -2    1    1    2    0  501 -0.60033661823E+02 -0.31493806965E+02  0.43178330026E+03  0.43707289875E+03  0.25500000000E-02 0. -1.
<mgrwt>
<rscale>  0 0.95542240E+02</rscale>
<asrwt>0</asrwt>
<pdfrwt beam="1">  1       11 0.10000000E+01 0.93039352E+02</pdfrwt>
<pdfrwt beam="2">  1       -2 0.13825135E-02 0.95542240E+02</pdfrwt>
<totfact> 0.92512059E+03</totfact>
</mgrwt>
</event>
<event>
 5    1  0.2675386E-003  0.7672223E+02  0.7818608E-02  0.1338619E+00
         11   -1    0    0    0    0  0.00000000000E+00  0.00000000000E+00  0.10001777949E+04  0.10001777949E+04  0.51100000000E-03 0.  1.
          2   -1    0    0  501    0 -0.00000000000E+00 -0.00000000000E+00 -0.13834171078E+02  0.13834171313E+02  0.25500000000E-02 0.  1.
         11    1    1    2    0    0  0.69403349254E+01  0.28061440521E+02  0.16643732932E+03  0.16892897112E+03  0.51100000000E-03 0.  1.
         22    1    1    2    0    0 -0.77766554187E+02  0.66259067971E-01  0.13380537806E+03  0.15476278796E+03  0.00000000000E+00 0.  1.
          2    1    1    2  501    0  0.70826219262E+02 -0.28127699589E+02  0.68610091647E+03  0.69032020715E+03  0.25500000000E-02 0.  1.
<mgrwt>
<rscale>  0 0.76722230E+02</rscale>
<asrwt>0</asrwt>
<pdfrwt beam="1">  1       11 0.10000000E+01 0.28906966E+02</pdfrwt>
<pdfrwt beam="2">  1        2 0.21287124E-02 0.76722230E+02</pdfrwt>
<totfact> 0.53501012E+03</totfact>
</mgrwt>
</event>
<event>
 5    1  0.2675386E-003  0.9943500E+02  0.7818608E-02  0.1281489E+00
         11   -1    0    0    0    0  0.00000000000E+00  0.00000000000E+00  0.10002128645E+04  0.10002128645E+04  0.51100000000E-03 0. -1.
          2   -1    0    0  501    0 -0.00000000000E+00 -0.00000000000E+00 -0.10057531564E+02  0.10057531887E+02  0.25500000000E-02 0. -1.
         11    1    1    2    0    0  0.35962911389E+02 -0.91268750033E+02  0.40390400067E+03  0.41564619267E+03  0.51100000000E-03 0. -1.
         22    1    1    2    0    0 -0.57444758338E+01  0.10634075461E+02  0.46402636113E+02  0.47950883221E+02  0.00000000000E+00 0. -1.
          2    1    1    2  501    0 -0.30218435555E+02  0.80634674573E+02  0.53984869615E+03  0.54667332048E+03  0.25500000000E-02 0. -1.
<mgrwt>
<rscale>  0 0.99434999E+02</rscale>
<asrwt>0</asrwt>
<pdfrwt beam="1">  1       11 0.10000000E+01 0.98098549E+02</pdfrwt>
<pdfrwt beam="2">  1        2 0.15476419E-02 0.99434999E+02</pdfrwt>
<totfact> 0.85207349E+03</totfact>
</mgrwt>
</event>
<event>
 5    1  0.2675386E-003  0.2559974E+03  0.7818608E-02  0.1109572E+00
         11   -1    0    0    0    0  0.00000000000E+00  0.00000000000E+00  0.10002777923E+04  0.10002777923E+04  0.51100000000E-03 0.  1.
          2   -1    0    0  501    0 -0.00000000000E+00 -0.00000000000E+00 -0.78822666348E+02  0.78822666389E+02  0.25500000000E-02 0.  1.
         11    1    1    2    0    0 -0.13370744087E+03 -0.21444397879E+03  0.68683916630E+03  0.73185513604E+03  0.51100000000E-03 0.  1.
         22    1    1    2    0    0  0.12738977411E+02  0.73116036729E+01  0.23449703822E+02  0.27670014512E+02  0.00000000000E+00 0.  1.
          2    1    1    2  501    0  0.12096846346E+03  0.20713237512E+03  0.21116625587E+03  0.31957530817E+03  0.25500000000E-02 0.  1.
<mgrwt>
<rscale>  0 0.25599739E+03</rscale>
<asrwt>0</asrwt>
<pdfrwt beam="1">  1       11 0.10000000E+01 0.25271308E+03</pdfrwt>
<pdfrwt beam="2">  1        2 0.12129932E-01 0.25599739E+03</pdfrwt>
<totfact> 0.61943782E+02</totfact>
</mgrwt>
</event>
<event>
 5    1  0.2675386E-003  0.1242664E+03  0.7818608E-02  0.1236220E+00
         11   -1    0    0    0    0  0.00000000000E+00  0.00000000000E+00  0.10003347089E+04  0.10003347089E+04  0.51100000000E-03 0.  1.
         -2   -1    0    0    0  501 -0.00000000000E+00 -0.00000000000E+00 -0.15459302179E+02  0.15459302389E+02  0.25500000000E-02 0.  1.
         11    1    1    2    0    0  0.43886213787E+02 -0.11260210825E+03  0.39975224824E+03  0.41762075441E+03  0.51100000000E-03 0.  1.
         22    1    1    2    0    0  0.11952383258E+01  0.30366147657E+02  0.13339503541E+03  0.13681289044E+03  0.00000000000E+00 0.  1.
         -2    1    1    2    0  501 -0.45081452113E+02  0.82235960594E+02  0.45172812304E+03  0.46136036641E+03  0.25500000000E-02 0.  1.
<mgrwt>
<rscale>  0 0.12426639E+03</rscale>
<asrwt>0</asrwt>
<pdfrwt beam="1">  1       11 0.10000000E+01 0.12085218E+03</pdfrwt>
<pdfrwt beam="2">  1       -2 0.23791502E-02 0.12426639E+03</pdfrwt>
<totfact> 0.43828692E+03</totfact>
</mgrwt>
</event>
<event>
 5    1  0.2675386E-003  0.2001312E+03  0.7818608E-02  0.1149628E+00
         11   -1    0    0    0    0  0.00000000000E+00  0.00000000000E+00  0.10000945539E+04  0.10000945539E+04  0.51100000000E-03 0. -1.
          2   -1    0    0  501    0 -0.00000000000E+00 -0.00000000000E+00 -0.18377274984E+03  0.18377274986E+03  0.25500000000E-02 0. -1.
         11    1    1    2    0    0 -0.17423078035E+03  0.74107846268E+02  0.93312799991E+03  0.95214295246E+03  0.51100000000E-03 0. -1.
         22    1    1    2    0    0  0.38216947420E+02  0.10543814917E+02 -0.28172081088E+02  0.48635103125E+02  0.00000000000E+00 0.  1.
          2    1    1    2  501    0  0.13601383293E+03 -0.84651661185E+02 -0.88634114763E+02  0.18308924817E+03  0.25500000000E-02 0. -1.
<mgrwt>
<rscale>  0 0.20013118E+03</rscale>
<asrwt>0</asrwt>
<pdfrwt beam="1">  1       11 0.10000000E+01 0.18933657E+03</pdfrwt>
<pdfrwt beam="2">  1        2 0.28275403E-01 0.20013118E+03</pdfrwt>
<totfact> 0.23058978E+02</totfact>
</mgrwt>
</event>
<event>
 5    1  0.2675386E-003  0.1760301E+03  0.7818608E-02  0.1171701E+00
         11   -1    0    0    0    0  0.00000000000E+00  0.00000000000E+00  0.10005589905E+04  0.10005589905E+04  0.51100000000E-03 0. -1.
          2   -1    0    0  501    0 -0.00000000000E+00 -0.00000000000E+00 -0.36760196489E+03  0.36760196490E+03  0.25500000000E-02 0. -1.
         11    1    1    2    0    0  0.15519627869E+03  0.77309413279E+02  0.97135946372E+03  0.98671264209E+03  0.51100000000E-03 0. -1.
         22    1    1    2    0    0 -0.14574741002E+02 -0.18171973232E+02 -0.39157317544E+02  0.45562475829E+02  0.00000000000E+00 0. -1.
          2    1    1    2  501    0 -0.14062153769E+03 -0.59137440047E+02 -0.29924512053E+03  0.33588583752E+03  0.25500000000E-02 0. -1.
<mgrwt>
<rscale>  0 0.17603013E+03</rscale>
<asrwt>0</asrwt>
<pdfrwt beam="1">  1       11 0.10000000E+01 0.17338578E+03</pdfrwt>
<pdfrwt beam="2">  1        2 0.56585760E-01 0.17603013E+03</pdfrwt>
<totfact> 0.10900556E+02</totfact>
</mgrwt>
</event>
<event>
 5    1  0.2675386E-003  0.2406781E+03  0.7818608E-02  0.1119342E+00
         11   -1    0    0    0    0  0.00000000000E+00  0.00000000000E+00  0.10001449569E+04  0.10001449569E+04  0.51100000000E-03 0. -1.
          2   -1    0    0  501    0 -0.00000000000E+00 -0.00000000000E+00 -0.63053386484E+03  0.63053386485E+03  0.25500000000E-02 0.  1.
         11    1    1    2    0    0  0.18325550779E+03 -0.15102424613E+03  0.96220489537E+03  0.99107475234E+03  0.51100000000E-03 0. -1.
         22    1    1    2    0    0 -0.22987686296E+02  0.34522972222E+02 -0.81473823154E+02  0.91423482714E+02  0.00000000000E+00 0.  1.
          2    1    1    2  501    0 -0.16026782150E+03  0.11650127391E+03 -0.51111998019E+03  0.54818058666E+03  0.25500000000E-02 0.  1.
<mgrwt>
<rscale>  0 0.24067810E+03</rscale>
<asrwt>0</asrwt>
<pdfrwt beam="1">  1       11 0.10000000E+01 0.23746769E+03</pdfrwt>
<pdfrwt beam="2">  1        2 0.97019269E-01 0.24067810E+03</pdfrwt>
<totfact> 0.59528389E+01</totfact>
</mgrwt>
</event>
<event>
 5    1  0.2675386E-003  0.1341133E+03  0.7818608E-02  0.1221477E+00
         11   -1    0    0    0    0  0.00000000000E+00  0.00000000000E+00  0.10005207366E+04  0.10005207366E+04  0.51100000000E-03 0. -1.
         -2   -1    0    0    0  501 -0.00000000000E+00 -0.00000000000E+00 -0.21450348979E+02  0.21450349131E+02  0.25500000000E-02 0.  1.
         11    1    1    2    0    0 -0.13003588741E+03 -0.16484998130E+02  0.70220121121E+03  0.71433019550E+03  0.51100000000E-03 0. -1.
         22    1    1    2    0    0  0.68104158632E+02  0.12620760060E+02  0.17693132771E+03  0.19000567026E+03  0.00000000000E+00 0.  1.
         -2    1    1    2    0  501  0.61931728780E+02  0.38642380698E+01  0.99937848658E+02  0.11763521992E+03  0.25500000000E-02 0.  1.
<mgrwt>
<rscale>  0 0.13411330E+03</rscale>
<asrwt>0</asrwt>
<pdfrwt beam="1">  1       11 0.10000000E+01 0.13107665E+03</pdfrwt>
<pdfrwt beam="2">  1       -2 0.33017721E-02 0.13411330E+03</pdfrwt>
<totfact> 0.27352065E+03</totfact>
</mgrwt>
</event>
<event>
 5    1  0.2675386E-003  0.1532923E+03  0.7818608E-02  0.1196485E+00
         11   -1    0    0    0    0  0.00000000000E+00  0.00000000000E+00  0.99994150605E+03  0.99994150605E+03  0.51100000000E-03 0. -1.
          2   -1    0    0  501    0 -0.00000000000E+00 -0.00000000000E+00 -0.32235522458E+02  0.32235522559E+02  0.25500000000E-02 0. -1.
         11    1    1    2    0    0 -0.13516736674E+03  0.66009449252E+02  0.75588270121E+03  0.77070495160E+03  0.51100000000E-03 0. -1.
         22    1    1    2    0    0  0.10518796881E+02 -0.10402886529E+02  0.10104726912E+02  0.17915653545E+02  0.00000000000E+00 0. -1.
          2    1    1    2  501    0  0.12464856986E+03 -0.55606562723E+02  0.20171855547E+03  0.24355642347E+03  0.25500000000E-02 0. -1.
<mgrwt>
<rscale>  0 0.15329235E+03</rscale>
<asrwt>0</asrwt>
<pdfrwt beam="1">  1       11 0.10000000E+01 0.15042428E+03</pdfrwt>
<pdfrwt beam="2">  1        2 0.49590209E-02 0.15329235E+03</pdfrwt>
<totfact> 0.18707899E+03</totfact>
</mgrwt>
</event>
<event>
 5    1  0.2675386E-003  0.8772455E+02  0.7818608E-02  0.1308457E+00
         11   -1    0    0    0    0  0.00000000000E+00  0.00000000000E+00  0.10003179682E+04  0.10003179682E+04  0.51100000000E-03 0. -1.
          2   -1    0    0  501    0 -0.00000000000E+00 -0.00000000000E+00 -0.75071671048E+01  0.75071675379E+01  0.25500000000E-02 0. -1.
         11    1    1    2    0    0 -0.41962621885E+01  0.85441366564E+02  0.50183004124E+03  0.50906897964E+03  0.51100000000E-03 0. -1.
         22    1    1    2    0    0  0.22394282928E+01 -0.24481855584E+02  0.96186183345E+02  0.99278185712E+02  0.00000000000E+00 0. -1.
          2    1    1    2  501    0  0.19568338958E+01 -0.60959510980E+02  0.39479457650E+03  0.39947797038E+03  0.25500000000E-02 0. -1.
<mgrwt>
<rscale>  0 0.87724550E+02</rscale>
<asrwt>0</asrwt>
<pdfrwt beam="1">  1       11 0.10000000E+01 0.85544350E+02</pdfrwt>
<pdfrwt beam="2">  1        2 0.11553160E-02 0.87724550E+02</pdfrwt>
<totfact> 0.12464249E+04</totfact>
</mgrwt>
</event>
<event>
 5    1  0.2675386E-003  0.5286231E+02  0.7818608E-02  0.1606450E+00
         11   -1    0    0    0    0  0.00000000000E+00  0.00000000000E+00  0.99999962319E+03  0.99999962319E+03  0.51100000000E-03 0.  1.
          2   -1    0    0  501    0 -0.00000000000E+00 -0.00000000000E+00 -0.63508109673E+01  0.63508114792E+01  0.25500000000E-02 0.  1.
         11    1    1    2    0    0 -0.66544808961E+02  0.18066518979E+02  0.34460749225E+03  0.35143837927E+03  0.51100000000E-03 0.  1.
         22    1    1    2    0    0  0.37289230596E+02 -0.18350293373E+02  0.17106104476E+03  0.17603721487E+03  0.00000000000E+00 0.  1.
          2    1    1    2  501    0  0.29255578365E+02  0.28377439432E+00  0.47798027521E+03  0.47887484053E+03  0.25500000000E-02 0.  1.
<mgrwt>
<rscale>  0 0.29256955E+02</rscale>
<asrwt>0</asrwt>
<pdfrwt beam="1">  1       11 0.10000000E+01 0.52862311E+02</pdfrwt>
<pdfrwt beam="2">  1        2 0.97704748E-03 0.29256955E+02</pdfrwt>
<totfact> 0.12793804E+04</totfact>
</mgrwt>
</event>
<event>
 5    1  0.2675386E-003  0.1231879E+03  0.7818608E-02  0.1388311E+00
         11   -1    0    0    0    0  0.00000000000E+00  0.00000000000E+00  0.99997483482E+03  0.99997483482E+03  0.51100000000E-03 0. -1.
          2   -1    0    0  501    0 -0.00000000000E+00 -0.00000000000E+00 -0.24625958718E+02  0.24625958850E+02  0.25500000000E-02 0. -1.
         11    1    1    2    0    0 -0.12262851761E+03 -0.16772151026E+02  0.23629608949E+03  0.26674875874E+03  0.51100000000E-03 0. -1.
         22    1    1    2    0    0  0.79371280401E+01 -0.30521042559E+02  0.62353838422E+02  0.69875125806E+02  0.00000000000E+00 0. -1.
          2    1    1    2  501    0  0.11469138957E+03  0.47293193585E+02  0.67669894819E+03  0.68797690913E+03  0.25500000000E-02 0. -1.
<mgrwt>
<rscale>  0 0.62328778E+02</rscale>
<asrwt>0</asrwt>
<pdfrwt beam="1">  1       11 0.10000000E+01 0.12318790E+03</pdfrwt>
<pdfrwt beam="2">  1        2 0.37885136E-02 0.62328778E+02</pdfrwt>
<totfact> 0.24389098E+03</totfact>
</mgrwt>
</event>
<event>
 5    1  0.2675386E-003  0.2027509E+03  0.7818608E-02  0.1147439E+00
         11   -1    0    0    0    0  0.00000000000E+00  0.00000000000E+00  0.10004656901E+04  0.10004656901E+04  0.51100000000E-03 0.  1.
         -2   -1    0    0    0  501 -0.00000000000E+00 -0.00000000000E+00 -0.30318631179E+03  0.30318631180E+03  0.25500000000E-02 0. -1.
         11    1    1    2    0    0 -0.17367455079E+03  0.68283454572E+02  0.95651287299E+03  0.97454725692E+03  0.51100000000E-03 0.  1.
         22    1    1    2    0    0  0.65657163779E+02  0.13344537156E+01 -0.46133965951E+02  0.80255758276E+02  0.00000000000E+00 0. -1.
         -2    1    1    2    0  501  0.10801738701E+03 -0.69617908287E+02 -0.21309952871E+03  0.24884898672E+03  0.25500000000E-02 0. -1.
<mgrwt>
<rscale>  0 0.20275090E+03</rscale>
<asrwt>0</asrwt>
<pdfrwt beam="1">  1       11 0.10000000E+01 0.18661586E+03</pdfrwt>
<pdfrwt beam="2">  1       -2 0.46665768E-01 0.20275090E+03</pdfrwt>
<totfact> 0.35700334E+01</totfact>
</mgrwt>
</event>
<event>
 5    1  0.2675386E-003  0.1008903E+03  0.7818608E-02  0.1422949E+00
         11   -1    0    0    0    0  0.00000000000E+00  0.00000000000E+00  0.99999130317E+03  0.99999130318E+03  0.51100000000E-03 0. -1.
          2   -1    0    0  501    0 -0.00000000000E+00 -0.00000000000E+00 -0.18855054790E+02  0.18855054962E+02  0.25500000000E-02 0. -1.
         11    1    1    2    0    0  0.35437442492E+02 -0.11500884696E+03  0.31135705650E+03  0.33380542812E+03  0.51100000000E-03 0. -1.
         22    1    1    2    0    0  0.45927636820E+01  0.28972595051E+02  0.49453158737E+02  0.57498866522E+02  0.00000000000E+00 0. -1.
          2    1    1    2  501    0 -0.40030206174E+02  0.86036251909E+02  0.62032603315E+03  0.62754206350E+03  0.25500000000E-02 0. -1.
<mgrwt>
<rscale>  0 0.54401767E+02</rscale>
<asrwt>0</asrwt>
<pdfrwt beam="1">  1       11 0.10000000E+01 0.10089034E+03</pdfrwt>
<pdfrwt beam="2">  1        2 0.29007524E-02 0.54401767E+02</pdfrwt>
<totfact> 0.33959886E+03</totfact>
</mgrwt>
</event>
<event>
 5    1  0.2675386E-003  0.1906817E+03  0.7818608E-02  0.1157848E+00
         11   -1    0    0    0    0  0.00000000000E+00  0.00000000000E+00  0.10001868117E+04  0.10001868117E+04  0.51100000000E-03 0.  1.
          2   -1    0    0  501    0 -0.00000000000E+00 -0.00000000000E+00 -0.35627012354E+02  0.35627012445E+02  0.25500000000E-02 0.  1.
         11    1    1    2    0    0 -0.11865699050E+03 -0.14101273500E+03  0.53440573171E+03  0.56529068532E+03  0.51100000000E-03 0.  1.
         22    1    1    2    0    0  0.18397071890E+02  0.47098229911E+01  0.24530363825E+02  0.31022144286E+02  0.00000000000E+00 0. -1.
          2    1    1    2  501    0  0.10025991861E+03  0.13630291201E+03  0.40562370384E+03  0.43950099456E+03  0.25500000000E-02 0.  1.
<mgrwt>
<rscale>  0 0.19068168E+03</rscale>
<asrwt>0</asrwt>
<pdfrwt beam="1">  1       11 0.10000000E+01 0.18429344E+03</pdfrwt>
<pdfrwt beam="2">  1        2 0.54821026E-02 0.19068168E+03</pdfrwt>
<totfact> 0.16680427E+03</totfact>
</mgrwt>
</event>
<event>
 5    1  0.2675386E-003  0.2059902E+03  0.7818608E-02  0.1383733E+00
         11   -1    0    0    0    0  0.00000000000E+00  0.00000000000E+00  0.10001815834E+04  0.10001815834E+04  0.51100000000E-03 0.  1.
          2   -1    0    0  501    0 -0.00000000000E+00 -0.00000000000E+00 -0.80062420439E+03  0.80062420440E+03  0.25500000000E-02 0.  1.
         11    1    1    2    0    0 -0.28658943593E+02 -0.20376522445E+03  0.97105743869E+03  0.99261984212E+03  0.51100000000E-03 0.  1.
         22    1    1    2    0    0  0.10324926086E+02 -0.16625199088E+02 -0.60689971729E+02  0.63767342832E+02  0.00000000000E+00 0.  1.
          2    1    1    2  501    0  0.18334017507E+02  0.22039042354E+03 -0.71081008800E+03  0.74441860280E+03  0.25500000000E-02 0.  1.
<mgrwt>
<rscale>  0 0.63492637E+02</rscale>
<asrwt>0</asrwt>
<pdfrwt beam="1">  1       11 0.10000000E+01 0.20599021E+03</pdfrwt>
<pdfrwt beam="2">  1        2 0.12319532E+00 0.63492637E+02</pdfrwt>
<totfact> 0.46711562E+01</totfact>
</mgrwt>
</event>
<event>
 5    1  0.2675386E-003  0.3190765E+03  0.7818608E-02  0.1076075E+00
         11   -1    0    0    0    0  0.00000000000E+00  0.00000000000E+00  0.10003574820E+04  0.10003574820E+04  0.51100000000E-03 0.  1.
          2   -1    0    0  501    0 -0.00000000000E+00 -0.00000000000E+00 -0.12447424385E+03  0.12447424388E+03  0.25500000000E-02 0.  1.
         11    1    1    2    0    0  0.31633051012E+03  0.25756802755E+02  0.68001740742E+03  0.75043459336E+03  0.51100000000E-03 0.  1.
         22    1    1    2    0    0 -0.20278900821E+02 -0.33493571314E+01  0.41162115511E+01  0.20961755872E+02  0.00000000000E+00 0.  1.
          2    1    1    2  501    0 -0.29605160930E+03 -0.22407445624E+02  0.19174961914E+03  0.35343537661E+03  0.25500000000E-02 0.  1.
<mgrwt>
<rscale>  0 0.31907646E+03</rscale>
<asrwt>0</asrwt>
<pdfrwt beam="1">  1       11 0.10000000E+01 0.31737739E+03</pdfrwt>
<pdfrwt beam="2">  1        2 0.19156729E-01 0.31907646E+03</pdfrwt>
<totfact> 0.36195047E+02</totfact>
</mgrwt>
</event>
<event>
 5    1  0.2675386E-003  0.1887324E+03  0.7818608E-02  0.1391561E+00
         11   -1    0    0    0    0  0.00000000000E+00  0.00000000000E+00  0.99990000376E+03  0.99990000376E+03  0.51100000000E-03 0. -1.
          2   -1    0    0  501    0 -0.00000000000E+00 -0.00000000000E+00 -0.40507389077E+02  0.40507389158E+02  0.25500000000E-02 0. -1.
         11    1    1    2    0    0  0.13600006059E+03 -0.13631424386E+03  0.55154251507E+03  0.58418895529E+03  0.51100000000E-03 0. -1.
         22    1    1    2    0    0 -0.19118322445E+02 -0.60521383244E+01  0.34602954885E+02  0.39993788495E+02  0.00000000000E+00 0. -1.
          2    1    1    2  501    0 -0.11688173815E+03  0.14236638218E+03  0.37324714473E+03  0.41622464913E+03  0.25500000000E-02 0. -1.
<mgrwt>
<rscale>  0 0.61520126E+02</rscale>
<asrwt>0</asrwt>
<pdfrwt beam="1">  1       11 0.10000000E+01 0.18873243E+03</pdfrwt>
<pdfrwt beam="2">  1        2 0.62312827E-02 0.61520126E+02</pdfrwt>
<totfact> 0.12914421E+03</totfact>
</mgrwt>
</event>
<event>
 5    1  0.2675386E-003  0.6985932E+03  0.7818608E-02  0.9719641E-01
         11   -1    0    0    0    0  0.00000000000E+00  0.00000000000E+00  0.10001030002E+04  0.10001030002E+04  0.51100000000E-03 0.  1.
          2   -1    0    0  501    0 -0.00000000000E+00 -0.00000000000E+00 -0.53107125864E+03  0.53107125865E+03  0.25500000000E-02 0.  1.
         11    1    1    2    0    0  0.59902199515E+03 -0.33510783385E+03  0.47123334470E+03  0.83257760968E+03  0.51100000000E-03 0.  1.
         22    1    1    2    0    0 -0.13523417582E+03  0.17716463100E+02  0.63640967755E+01  0.13653811594E+03  0.00000000000E+00 0. -1.
          2    1    1    2  501    0 -0.46378781932E+03  0.31739137075E+03 -0.85656998998E+01  0.56205853325E+03  0.25500000000E-02 0.  1.
<mgrwt>
<rscale>  0 0.69859318E+03</rscale>
<asrwt>0</asrwt>
<pdfrwt beam="1">  1       11 0.10000000E+01 0.68638518E+03</pdfrwt>
<pdfrwt beam="2">  1        2 0.81711684E-01 0.69859318E+03</pdfrwt>
<totfact> 0.71131931E+01</totfact>
</mgrwt>
</event>
<event>
 5    1  0.2675386E-003  0.1808902E+03  0.7818608E-02  0.1166944E+00
         11   -1    0    0    0    0  0.00000000000E+00  0.00000000000E+00  0.10004027974E+04  0.10004027974E+04  0.51100000000E-03 0. -1.
         -2   -1    0    0    0  501 -0.00000000000E+00 -0.00000000000E+00 -0.45371357307E+02  0.45371357378E+02  0.25500000000E-02 0.  1.
         11    1    1    2    0    0  0.84730851620E+02  0.15650409668E+03  0.75667386374E+03  0.77732115986E+03  0.51100000000E-03 0. -1.
         22    1    1    2    0    0 -0.14123394209E+02 -0.13550320154E+02  0.11055935497E+02  0.22479215956E+02  0.00000000000E+00 0.  1.
         -2    1    1    2    0  501 -0.70607457410E+02 -0.14295377653E+03  0.18730164086E+03  0.24597377897E+03  0.25500000000E-02 0.  1.
<mgrwt>
<rscale>  0 0.18089025E+03</rscale>
<asrwt>0</asrwt>
<pdfrwt beam="1">  1       11 0.10000000E+01 0.17796868E+03</pdfrwt>
<pdfrwt beam="2">  1       -2 0.69830202E-02 0.18089025E+03</pdfrwt>
<totfact> 0.90903939E+02</totfact>
</mgrwt>
</event>
<event>
 5    1  0.2675386E-003  0.1688775E+03  0.7818608E-02  0.1179023E+00
         11   -1    0    0    0    0  0.00000000000E+00  0.00000000000E+00  0.10001118295E+04  0.10001118295E+04  0.51100000000E-03 0.  1.
          2   -1    0    0  501    0 -0.00000000000E+00 -0.00000000000E+00 -0.26853298498E+02  0.26853298619E+02  0.25500000000E-02 0.  1.
         11    1    1    2    0    0 -0.11122177991E+03  0.11278888044E+03  0.49877893124E+03  0.52332784956E+03  0.51100000000E-03 0.  1.
         22    1    1    2    0    0  0.61007151245E+02 -0.40708044349E+02  0.14295127322E+03  0.16066761931E+03  0.00000000000E+00 0.  1.
          2    1    1    2  501    0  0.50214628663E+02 -0.72080836090E+02  0.33152832656E+03  0.34296965927E+03  0.25500000000E-02 0.  1.
<mgrwt>
<rscale>  0 0.16887752E+03</rscale>
<asrwt>0</asrwt>
<pdfrwt beam="1">  1       11 0.10000000E+01 0.15840333E+03</pdfrwt>
<pdfrwt beam="2">  1        2 0.41317386E-02 0.16887752E+03</pdfrwt>
<totfact> 0.23997348E+03</totfact>
</mgrwt>
</event>
<event>
 5    1  0.2675386E-003  0.1575440E+03  0.7818608E-02  0.1191498E+00
         11   -1    0    0    0    0  0.00000000000E+00  0.00000000000E+00  0.10001099755E+04  0.10001099755E+04  0.51100000000E-03 0. -1.
         -2   -1    0    0    0  501 -0.00000000000E+00 -0.00000000000E+00 -0.63757749830E+02  0.63757749881E+02  0.25500000000E-02 0. -1.
         11    1    1    2    0    0  0.10204413574E+03  0.11841209913E+03  0.88420762399E+03  0.89791845576E+03  0.51100000000E-03 0. -1.
         22    1    1    2    0    0 -0.35428181959E+01 -0.12043805709E+02  0.34731829817E+01  0.13025659935E+02  0.00000000000E+00 0. -1.
         -2    1    1    2    0  501 -0.98501317545E+02 -0.10636829342E+03  0.48671418725E+02  0.15292360972E+03  0.25500000000E-02 0. -1.
<mgrwt>
<rscale>  0 0.15754396E+03</rscale>
<asrwt>0</asrwt>
<pdfrwt beam="1">  1       11 0.10000000E+01 0.15631517E+03</pdfrwt>
<pdfrwt beam="2">  1       -2 0.98099630E-02 0.15754396E+03</pdfrwt>
<totfact> 0.53080388E+02</totfact>
</mgrwt>
</event>
<event>
 5    1  0.2675386E-003  0.1217219E+03  0.7818608E-02  0.1240283E+00
         11   -1    0    0    0    0  0.00000000000E+00  0.00000000000E+00  0.10002900438E+04  0.10002900438E+04  0.51100000000E-03 0.  1.
          2   -1    0    0  501    0 -0.00000000000E+00 -0.00000000000E+00 -0.15429777501E+02  0.15429777711E+02  0.25500000000E-02 0.  1.
         11    1    1    2    0    0  0.50766564436E+02  0.10659088515E+03  0.35235024933E+03  0.37160403532E+03  0.51100000000E-03 0.  1.
         22    1    1    2    0    0 -0.36182414335E+02 -0.56764791044E+02  0.29116441317E+03  0.29884464878E+03  0.00000000000E+00 0.  1.
          2    1    1    2  501    0 -0.14584150101E+02 -0.49826094110E+02  0.34134560381E+03  0.34527113742E+03  0.25500000000E-02 0.  1.
<mgrwt>
<rscale>  0 0.12172191E+03</rscale>
<asrwt>0</asrwt>
<pdfrwt beam="1">  1       11 0.10000000E+01 0.11806301E+03</pdfrwt>
<pdfrwt beam="2">  1        2 0.23745004E-02 0.12172191E+03</pdfrwt>
<totfact> 0.48874763E+03</totfact>
</mgrwt>
</event>
<event>
 5    1  0.2675386E-003  0.4612918E+02  0.7818608E-02  0.1602717E+00
         11   -1    0    0    0    0  0.00000000000E+00  0.00000000000E+00  0.10004377346E+04  0.10004377346E+04  0.51100000000E-03 0.  1.
          2   -1    0    0  501    0 -0.00000000000E+00 -0.00000000000E+00 -0.53041083023E+01  0.53041089153E+01  0.25500000000E-02 0.  1.
         11    1    1    2    0    0  0.26341915624E+01 -0.60215723370E+02  0.35964428407E+03  0.36465995581E+03  0.51100000000E-03 0.  1.
         22    1    1    2    0    0 -0.10844513766E+02  0.31792346037E+02  0.11639617363E+03  0.12114629991E+03  0.00000000000E+00 0. -1.
          2    1    1    2  501    0  0.82103222036E+01  0.28423377333E+02  0.51909316864E+03  0.51993558784E+03  0.25500000000E-02 0.  1.
<mgrwt>
<rscale>  0 0.29585432E+02</rscale>
<asrwt>0</asrwt>
<pdfrwt beam="1">  1       11 0.10000000E+01 0.46129180E+02</pdfrwt>
<pdfrwt beam="2">  1        2 0.81637388E-03 0.29585432E+02</pdfrwt>
<totfact> 0.16252224E+04</totfact>
</mgrwt>
</event>
<event>
 5    1  0.2675386E-003  0.9496228E+02  0.7818608E-02  0.1435086E+00
         11   -1    0    0    0    0  0.00000000000E+00  0.00000000000E+00  0.10001238770E+04  0.10001238770E+04  0.51100000000E-03 0. -1.
          2   -1    0    0  501    0 -0.00000000000E+00 -0.00000000000E+00 -0.25343854572E+02  0.25343854700E+02  0.25500000000E-02 0. -1.
         11    1    1    2    0    0 -0.95179223487E+02  0.11923710906E+02  0.11580398084E+03  0.15037227618E+03  0.51100000000E-03 0. -1.
         22    1    1    2    0    0  0.77513678833E+02 -0.60780581279E+02  0.35383611846E+03  0.36729095849E+03  0.00000000000E+00 0. -1.
          2    1    1    2  501    0  0.17665544655E+02  0.48856870373E+02  0.50513992313E+03  0.50780449702E+03  0.25500000000E-02 0. -1.
<mgrwt>
<rscale>  0 0.51952529E+02</rscale>
<asrwt>0</asrwt>
<pdfrwt beam="1">  1       11 0.10000000E+01 0.94962280E+02</pdfrwt>
<pdfrwt beam="2">  1        2 0.38995375E-02 0.51952529E+02</pdfrwt>
<totfact> 0.23009431E+03</totfact>
</mgrwt>
</event>
<event>
 5    1  0.2675386E-003  0.1892536E+03  0.7818608E-02  0.1159136E+00
         11   -1    0    0    0    0  0.00000000000E+00  0.00000000000E+00  0.10001978303E+04  0.10001978303E+04  0.51100000000E-03 0.  1.
          2   -1    0    0  501    0 -0.00000000000E+00 -0.00000000000E+00 -0.34542455425E+02  0.34542455519E+02  0.25500000000E-02 0.  1.
         11    1    1    2    0    0 -0.10985669082E+03  0.14562285322E+03  0.46306849457E+03  0.49770165618E+03  0.51100000000E-03 0.  1.
         22    1    1    2    0    0  0.24119580092E+02 -0.52344573033E+01  0.70776425595E+02  0.74956361351E+02  0.00000000000E+00 0. -1.
          2    1    1    2  501    0  0.85737110732E+02 -0.14038839591E+03  0.43181045470E+03  0.46208226828E+03  0.25500000000E-02 0.  1.
<mgrwt>
<rscale>  0 0.18925358E+03</rscale>
<asrwt>0</asrwt>
<pdfrwt beam="1">  1       11 0.10000000E+01 0.18241311E+03</pdfrwt>
<pdfrwt beam="2">  1        2 0.53152751E-02 0.18925358E+03</pdfrwt>
<totfact> 0.17360183E+03</totfact>
</mgrwt>
</event>
<event>
 5    1  0.2675386E-003  0.1583009E+03  0.7818608E-02  0.1190628E+00
         11   -1    0    0    0    0  0.00000000000E+00  0.00000000000E+00  0.10003038266E+04  0.10003038266E+04  0.51100000000E-03 0. -1.
          2   -1    0    0  501    0 -0.00000000000E+00 -0.00000000000E+00 -0.23956479183E+02  0.23956479318E+02  0.25500000000E-02 0. -1.
         11    1    1    2    0    0 -0.85922003581E+02  0.12443586140E+03  0.48905599479E+03  0.51190100639E+03  0.51100000000E-03 0. -1.
         22    1    1    2    0    0  0.14475671475E+02 -0.16073297972E+02  0.29873288291E+02  0.36882371475E+02  0.00000000000E+00 0. -1.
          2    1    1    2  501    0  0.71446332106E+02 -0.10836256343E+03  0.45741806435E+03  0.47547692807E+03  0.25500000000E-02 0. -1.
<mgrwt>
<rscale>  0 0.15830095E+03</rscale>
<asrwt>0</asrwt>
<pdfrwt beam="1">  1       11 0.10000000E+01 0.15121797E+03</pdfrwt>
<pdfrwt beam="2">  1        2 0.36867319E-02 0.15830095E+03</pdfrwt>
<totfact> 0.27777370E+03</totfact>
</mgrwt>
</event>
<event>
 5    1  0.2675386E-003  0.4340121E+03  0.7818608E-02  0.1032600E+00
         11   -1    0    0    0    0  0.00000000000E+00  0.00000000000E+00  0.99967655941E+03  0.99967655941E+03  0.51100000000E-03 0. -1.
          2   -1    0    0  501    0 -0.00000000000E+00 -0.00000000000E+00 -0.11346138897E+04  0.11346138897E+04  0.25500000000E-02 0. -1.
         11    1    1    2    0    0  0.42603218096E+03 -0.34015421545E+02  0.90859914862E+03  0.10040980435E+04  0.51100000000E-03 0. -1.
         22    1    1    2    0    0 -0.17701660293E+02 -0.34590681257E+01 -0.16982408738E+02  0.24773294814E+02  0.00000000000E+00 0. -1.
          2    1    1    2  501    0 -0.40833052066E+03  0.37474489670E+02 -0.10265540701E+04  0.11054191108E+04  0.25500000000E-02 0. -1.
<mgrwt>
<rscale>  0 0.43401209E+03</rscale>
<asrwt>0</asrwt>
<pdfrwt beam="1">  1       11 0.10000000E+01 0.42738796E+03</pdfrwt>
<pdfrwt beam="2">  1        2 0.17449952E+00 0.43401209E+03</pdfrwt>
<totfact> 0.26616418E+01</totfact>
</mgrwt>
</event>
<event>
 5    1  0.2675386E-003  0.3197986E+03  0.7818608E-02  0.1075742E+00
         11   -1    0    0    0    0  0.00000000000E+00  0.00000000000E+00  0.10003223569E+04  0.10003223569E+04  0.51100000000E-03 0.  1.
          2   -1    0    0  501    0 -0.00000000000E+00 -0.00000000000E+00 -0.13940556322E+03  0.13940556324E+03  0.25500000000E-02 0.  1.
         11    1    1    2    0    0 -0.13742234669E+03  0.28592618976E+03  0.72666267484E+03  0.79289175199E+03  0.51100000000E-03 0.  1.
         22    1    1    2    0    0 -0.13672053025E+01 -0.15135104799E+02  0.32139776274E+01  0.15532878027E+02  0.00000000000E+00 0.  1.
          2    1    1    2  501    0  0.13878955199E+03 -0.27079108497E+03  0.13104014123E+03  0.33130329014E+03  0.25500000000E-02 0.  1.
<mgrwt>
<rscale>  0 0.31979862E+03</rscale>
<asrwt>0</asrwt>
<pdfrwt beam="1">  1       11 0.10000000E+01 0.31723601E+03</pdfrwt>
<pdfrwt beam="2">  1        2 0.21453923E-01 0.31979862E+03</pdfrwt>
<totfact> 0.31758383E+02</totfact>
</mgrwt>
</event>
<event>
 5    1  0.2675386E-003  0.5883078E+02  0.7818608E-02  0.1619534E+00
         11   -1    0    0    0    0  0.00000000000E+00  0.00000000000E+00  0.10002756519E+04  0.10002756519E+04  0.51100000000E-03 0. -1.
          2   -1    0    0  501    0 -0.00000000000E+00 -0.00000000000E+00 -0.62321919485E+01  0.62321924702E+01  0.25500000000E-02 0. -1.
         11    1    1    2    0    0 -0.28445760331E+02  0.57014136411E+02  0.32988011195E+03  0.33597717376E+03  0.51100000000E-03 0. -1.
         22    1    1    2    0    0 -0.64926202844E+01 -0.11797213459E+02  0.21750935203E+02  0.25581859701E+02  0.00000000000E+00 0. -1.
          2    1    1    2  501    0  0.34938380615E+02 -0.45216922951E+02  0.64241241278E+03  0.64494881088E+03  0.25500000000E-02 0. -1.
<mgrwt>
<rscale>  0 0.28146125E+02</rscale>
<asrwt>0</asrwt>
<pdfrwt beam="1">  1       11 0.10000000E+01 0.58830775E+02</pdfrwt>
<pdfrwt beam="2">  1        2 0.95906307E-03 0.28146125E+02</pdfrwt>
<totfact> 0.13001813E+04</totfact>
</mgrwt>
</event>
<event>
 5    1  0.2675386E-003  0.1813863E+03  0.7818608E-02  0.1275186E+00
         11   -1    0    0    0    0  0.00000000000E+00  0.00000000000E+00  0.10001434615E+04  0.10001434615E+04  0.51100000000E-03 0. -1.
          2   -1    0    0  501    0 -0.00000000000E+00 -0.00000000000E+00 -0.24594416832E+03  0.24594416834E+03  0.25500000000E-02 0. -1.
         11    1    1    2    0    0  0.10232949980E+03  0.15306338656E+03  0.94011298883E+03  0.95797294252E+03  0.51100000000E-03 0. -1.
         22    1    1    2    0    0  0.10389982792E+02 -0.56947798347E+02 -0.10352435296E+03  0.11860984417E+03  0.00000000000E+00 0. -1.
          2    1    1    2  501    0 -0.11271948260E+03 -0.96115588210E+02 -0.82389342694E+02  0.16950484315E+03  0.25500000000E-02 0. -1.
<mgrwt>
<rscale>  0 0.10246981E+03</rscale>
<asrwt>0</asrwt>
<pdfrwt beam="1">  1       11 0.10000000E+01 0.18138626E+03</pdfrwt>
<pdfrwt beam="2">  1        2 0.37842992E-01 0.10246981E+03</pdfrwt>
<totfact> 0.16661892E+02</totfact>
</mgrwt>
</event>
<event>
 5    1  0.2675386E-003  0.2355342E+03  0.7818608E-02  0.1122804E+00
         11   -1    0    0    0    0  0.00000000000E+00  0.00000000000E+00  0.10001546860E+04  0.10001546860E+04  0.51100000000E-03 0. -1.
         -2   -1    0    0    0  501 -0.00000000000E+00 -0.00000000000E+00 -0.60487477696E+02  0.60487477750E+02  0.25500000000E-02 0. -1.
         11    1    1    2    0    0 -0.10101447733E+03  0.18400988992E+03  0.67238183304E+03  0.70438689200E+03  0.51100000000E-03 0. -1.
         22    1    1    2    0    0  0.72804483578E+02 -0.80084119010E+02  0.62756334698E+02  0.12510921825E+03  0.00000000000E+00 0. -1.
         -2    1    1    2    0  501  0.28209993755E+02 -0.10392577091E+03  0.20452904059E+03  0.23114605352E+03  0.25500000000E-02 0. -1.
<mgrwt>
<rscale>  0 0.23553417E+03</rscale>
<asrwt>0</asrwt>
<pdfrwt beam="1">  1       11 0.10000000E+01 0.20991323E+03</pdfrwt>
<pdfrwt beam="2">  1       -2 0.93072050E-02 0.23553417E+03</pdfrwt>
<totfact> 0.59006631E+02</totfact>
</mgrwt>
</event>
<event>
 5    1  0.2675386E-003  0.1670921E+03  0.7818608E-02  0.1180915E+00
         11   -1    0    0    0    0  0.00000000000E+00  0.00000000000E+00  0.10001734922E+04  0.10001734922E+04  0.51100000000E-03 0. -1.
          2   -1    0    0  501    0 -0.00000000000E+00 -0.00000000000E+00 -0.76456319996E+03  0.76456319996E+03  0.25500000000E-02 0. -1.
         11    1    1    2    0    0 -0.16364312720E+03 -0.25938577126E+01  0.98420524779E+03  0.99772028693E+03  0.51100000000E-03 0. -1.
         22    1    1    2    0    0  0.45501753768E+02 -0.72263199742E+01 -0.15513520433E+03  0.16183189092E+03  0.00000000000E+00 0. -1.
          2    1    1    2  501    0  0.11814137343E+03  0.98201776868E+01 -0.59345975123E+03  0.60518451429E+03  0.25500000000E-02 0. -1.
<mgrwt>
<rscale>  0 0.16709207E+03</rscale>
<asrwt>0</asrwt>
<pdfrwt beam="1">  1       11 0.10000000E+01 0.16366368E+03</pdfrwt>
<pdfrwt beam="2">  1        2 0.11764551E+00 0.16709207E+03</pdfrwt>
<totfact> 0.47713985E+01</totfact>
</mgrwt>
</event>
<event>
 5    1  0.2675386E-003  0.1842050E+03  0.7818608E-02  0.1163794E+00
         11   -1    0    0    0    0  0.00000000000E+00  0.00000000000E+00  0.10001041863E+04  0.10001041863E+04  0.51100000000E-03 0. -1.
          2   -1    0    0  501    0 -0.00000000000E+00 -0.00000000000E+00 -0.33750495488E+02  0.33750495585E+02  0.25500000000E-02 0. -1.
         11    1    1    2    0    0  0.17918130135E+03 -0.23700186975E+02  0.41847801744E+03  0.45584151708E+03  0.51100000000E-03 0. -1.
         22    1    1    2    0    0 -0.30081743819E+02 -0.64148665147E+01  0.68636793597E+02  0.75213504498E+02  0.00000000000E+00 0.  1.
          2    1    1    2  501    0 -0.14909955753E+03  0.30115053490E+02  0.47923887973E+03  0.50279966026E+03  0.25500000000E-02 0. -1.
<mgrwt>
<rscale>  0 0.18420495E+03</rscale>
<asrwt>0</asrwt>
<pdfrwt beam="1">  1       11 0.10000000E+01 0.18074200E+03</pdfrwt>
<pdfrwt beam="2">  1        2 0.51929248E-02 0.18420495E+03</pdfrwt>
<totfact> 0.17862701E+03</totfact>
</mgrwt>
</event>
<event>
 5    1  0.2675386E-003  0.1182723E+03  0.7818608E-02  0.1245975E+00
         11   -1    0    0    0    0  0.00000000000E+00  0.00000000000E+00  0.10002800898E+04  0.10002800898E+04  0.51100000000E-03 0. -1.
          2   -1    0    0  501    0 -0.00000000000E+00 -0.00000000000E+00 -0.15498910076E+02  0.15498910286E+02  0.25500000000E-02 0. -1.
         11    1    1    2    0    0 -0.66834087403E+02 -0.94246900945E+02  0.31253103492E+03  0.33320402363E+03  0.51100000000E-03 0. -1.
         22    1    1    2    0    0  0.42099937406E+01  0.14828891351E+02  0.56100997121E+02  0.58180253900E+02  0.00000000000E+00 0.  1.
          2    1    1    2  501    0  0.62624093662E+02  0.79418009594E+02  0.61614914768E+03  0.62439472255E+03  0.25500000000E-02 0. -1.
<mgrwt>
<rscale>  0 0.11827232E+03</rscale>
<asrwt>0</asrwt>
<pdfrwt beam="1">  1       11 0.10000000E+01 0.11553911E+03</pdfrwt>
<pdfrwt beam="2">  1        2 0.23851155E-02 0.11827232E+03</pdfrwt>
<totfact> 0.48421884E+03</totfact>
</mgrwt>
</event>
<event>
 5    1  0.2675386E-003  0.1090087E+03  0.7818608E-02  0.1444886E+00
         11   -1    0    0    0    0  0.00000000000E+00  0.00000000000E+00  0.10002669812E+04  0.10002669812E+04  0.51100000000E-03 0. -1.
          2   -1    0    0  501    0 -0.00000000000E+00 -0.00000000000E+00 -0.24999622388E+02  0.24999622518E+02  0.25500000000E-02 0. -1.
         11    1    1    2    0    0  0.10366756211E+03  0.44054816515E+02  0.50673046185E+03  0.51909878757E+03  0.51100000000E-03 0. -1.
         22    1    1    2    0    0 -0.70152229459E+02 -0.81272936368E+02  0.15437069771E+03  0.18803440588E+03  0.00000000000E+00 0. -1.
          2    1    1    2  501    0 -0.33515332647E+02  0.37218119853E+02  0.31416619931E+03  0.31813341032E+03  0.25500000000E-02 0. -1.
<mgrwt>
<rscale>  0 0.50084588E+02</rscale>
<asrwt>0</asrwt>
<pdfrwt beam="1">  1       11 0.10000000E+01 0.10900875E+03</pdfrwt>
<pdfrwt beam="2">  1        2 0.38471225E-02 0.50084588E+02</pdfrwt>
<totfact> 0.23310995E+03</totfact>
</mgrwt>
</event>
<event>
 5    1  0.2675386E-003  0.3544570E+03  0.7818608E-02  0.1060800E+00
         11   -1    0    0    0    0  0.00000000000E+00  0.00000000000E+00  0.10001719206E+04  0.10001719206E+04  0.51100000000E-03 0.  1.
          2   -1    0    0  501    0 -0.00000000000E+00 -0.00000000000E+00 -0.16395668962E+03  0.16395668964E+03  0.25500000000E-02 0.  1.
         11    1    1    2    0    0  0.35242459229E+03  0.26724289559E+02  0.70043537049E+03  0.78455528113E+03  0.51100000000E-03 0.  1.
         22    1    1    2    0    0 -0.93093723240E+01 -0.44587524095E+01  0.14299233697E+01  0.10420631793E+02  0.00000000000E+00 0. -1.
          2    1    1    2  501    0 -0.34311521997E+03 -0.22265537150E+02  0.13434993708E+03  0.36915269729E+03  0.25500000000E-02 0.  1.
<mgrwt>
<rscale>  0 0.35445697E+03</rscale>
<asrwt>0</asrwt>
<pdfrwt beam="1">  1       11 0.10000000E+01 0.35343639E+03</pdfrwt>
<pdfrwt beam="2">  1        2 0.25228442E-01 0.35445697E+03</pdfrwt>
<totfact> 0.26459383E+02</totfact>
</mgrwt>
</event>
<event>
 5    1  0.2675386E-003  0.1630326E+03  0.7818608E-02  0.1323191E+00
         11   -1    0    0    0    0  0.00000000000E+00  0.00000000000E+00  0.10001758819E+04  0.10001758819E+04  0.51100000000E-03 0.  1.
          2   -1    0    0  501    0 -0.00000000000E+00 -0.00000000000E+00 -0.88239122694E+02  0.88239122730E+02  0.25500000000E-02 0.  1.
         11    1    1    2    0    0  0.15313755911E+03  0.47892144034E+02  0.82919601033E+03  0.84457728658E+03  0.51100000000E-03 0.  1.
         22    1    1    2    0    0  0.11829401250E+02  0.39617199817E+02  0.53279287660E+01  0.41687457109E+02  0.00000000000E+00 0. -1.
          2    1    1    2  501    0 -0.16496696036E+03 -0.87509343851E+02  0.77412820107E+02  0.20215026093E+03  0.25500000000E-02 0.  1.
<mgrwt>
<rscale>  0 0.82101640E+02</rscale>
<asrwt>0</asrwt>
<pdfrwt beam="1">  1       11 0.10000000E+01 0.16303263E+03</pdfrwt>
<pdfrwt beam="2">  1        2 0.13577637E-01 0.82101640E+02</pdfrwt>
<totfact> 0.51311848E+02</totfact>
</mgrwt>
</event>
<event>
 5    1  0.2675386E-003  0.5204641E+03  0.7818608E-02  0.1132088E+00
         11   -1    0    0    0    0  0.00000000000E+00  0.00000000000E+00  0.10004654577E+04  0.10004654577E+04  0.51100000000E-03 0. -1.
          2   -1    0    0  501    0 -0.00000000000E+00 -0.00000000000E+00 -0.22132312777E+04  0.22132312777E+04  0.25500000000E-02 0. -1.
         11    1    1    2    0    0 -0.26641005434E+03  0.45656442595E+03  0.71178618413E+03  0.88660304760E+03  0.51100000000E-03 0. -1.
         22    1    1    2    0    0  0.82054720290E+02 -0.33212102593E+03 -0.20454998827E+04  0.20739110692E+04  0.00000000000E+00 0. -1.
          2    1    1    2  501    0  0.18435533405E+03 -0.12444340002E+03  0.12094787853E+03  0.25318261853E+03  0.25500000000E-02 0. -1.
<mgrwt>
<rscale>  0 0.22242538E+03</rscale>
<asrwt>0</asrwt>
<pdfrwt beam="1">  1       11 0.10000000E+01 0.52046407E+03</pdfrwt>
<pdfrwt beam="2">  1        2 0.34065560E+00 0.22242538E+03</pdfrwt>
<totfact> 0.73302411E+00</totfact>
</mgrwt>
</event>
<event>
 5    1  0.2675386E-003  0.3523968E+03  0.7818608E-02  0.1061636E+00
         11   -1    0    0    0    0  0.00000000000E+00  0.00000000000E+00  0.10000881205E+04  0.10000881205E+04  0.51100000000E-03 0. -1.
          2   -1    0    0  501    0 -0.00000000000E+00 -0.00000000000E+00 -0.19093831249E+03  0.19093831251E+03  0.25500000000E-02 0. -1.
         11    1    1    2    0    0  0.48234512486E+02  0.34760788209E+03  0.75752746823E+03  0.83486865614E+03  0.51100000000E-03 0. -1.
         22    1    1    2    0    0 -0.77583001267E+01 -0.11637824378E+02  0.25879888192E+01  0.14224199916E+02  0.00000000000E+00 0. -1.
          2    1    1    2  501    0 -0.40476212360E+02 -0.33597005771E+03  0.49034350921E+02  0.34193357691E+03  0.25500000000E-02 0. -1.
<mgrwt>
<rscale>  0 0.35239679E+03</rscale>
<asrwt>0</asrwt>
<pdfrwt beam="1">  1       11 0.10000000E+01 0.35093847E+03</pdfrwt>
<pdfrwt beam="2">  1        2 0.29377713E-01 0.35239679E+03</pdfrwt>
<totfact> 0.22300805E+02</totfact>
</mgrwt>
</event>
<event>
 5    1  0.2675386E-003  0.3991008E+03  0.7818608E-02  0.1234972E+00
         11   -1    0    0    0    0  0.00000000000E+00  0.00000000000E+00  0.99984125950E+03  0.99984125950E+03  0.51100000000E-03 0. -1.
          2   -1    0    0  501    0 -0.00000000000E+00 -0.00000000000E+00 -0.18926397774E+03  0.18926397776E+03  0.25500000000E-02 0. -1.
         11    1    1    2    0    0 -0.39278776435E+03  0.76851478428E+02  0.29276171465E+03  0.49588083158E+03  0.51100000000E-03 0. -1.
         22    1    1    2    0    0 -0.45179207524E+01 -0.38928125225E+02 -0.32534949561E+00  0.39190769242E+02  0.00000000000E+00 0. -1.
          2    1    1    2  501    0  0.39730568510E+03 -0.37923353202E+02  0.51814091660E+03  0.65403363644E+03  0.25500000000E-02 0. -1.
<mgrwt>
<rscale>  0 0.12506206E+03</rscale>
<asrwt>0</asrwt>
<pdfrwt beam="1">  1       11 0.10000000E+01 0.39910075E+03</pdfrwt>
<pdfrwt beam="2">  1        2 0.29112912E-01 0.12506206E+03</pdfrwt>
<totfact> 0.22130384E+02</totfact>
</mgrwt>
</event>
<event>
 5    1  0.2675386E-003  0.1355488E+03  0.7818608E-02  0.1260120E+00
         11   -1    0    0    0    0  0.00000000000E+00  0.00000000000E+00  0.99963827111E+03  0.99963827111E+03  0.51100000000E-03 0. -1.
         -2   -1    0    0    0  501 -0.00000000000E+00 -0.00000000000E+00 -0.75594657815E+02  0.75594657858E+02  0.25500000000E-02 0.  1.
         11    1    1    2    0    0 -0.96390930745E+02  0.10865198751E+03  0.85490834122E+03  0.86715900376E+03  0.51100000000E-03 0. -1.
         22    1    1    2    0    0 -0.61392518990E+01 -0.89451924519E+02  0.16256433922E+02  0.91124139820E+02  0.00000000000E+00 0.  1.
         -2    1    1    2    0  501  0.10253018264E+03 -0.19200062991E+02  0.52878838161E+02  0.11694978539E+03  0.25500000000E-02 0.  1.
<mgrwt>
<rscale>  0 0.11024346E+03</rscale>
<asrwt>0</asrwt>
<pdfrwt beam="1">  1       11 0.10000000E+01 0.13554875E+03</pdfrwt>
<pdfrwt beam="2">  1       -2 0.11625740E-01 0.11024346E+03</pdfrwt>
<totfact> 0.39754505E+02</totfact>
</mgrwt>
</event>
<event>
 5    1  0.2675386E-003  0.8381538E+02  0.7818608E-02  0.1318560E+00
         11   -1    0    0    0    0  0.00000000000E+00  0.00000000000E+00  0.10002100738E+04  0.10002100738E+04  0.51100000000E-03 0.  1.
          2   -1    0    0  501    0 -0.00000000000E+00 -0.00000000000E+00 -0.12207899259E+02  0.12207899525E+02  0.25500000000E-02 0.  1.
         11    1    1    2    0    0  0.45182594857E+00 -0.33940550242E+02  0.18668746774E+03  0.18974819026E+03  0.51100000000E-03 0.  1.
         22    1    1    2    0    0  0.27380224264E+02  0.89312321923E+02  0.23364714389E+03  0.25162940086E+03  0.00000000000E+00 0.  1.
          2    1    1    2  501    0 -0.27832050213E+02 -0.55371771681E+02  0.56766756288E+03  0.57104038218E+03  0.25500000000E-02 0.  1.
<mgrwt>
<rscale>  0 0.83815382E+02</rscale>
<asrwt>0</asrwt>
<pdfrwt beam="1">  1       11 0.10000000E+01 0.33943558E+02</pdfrwt>
<pdfrwt beam="2">  1        2 0.18785329E-02 0.83815382E+02</pdfrwt>
<totfact> 0.64031262E+03</totfact>
</mgrwt>
</event>
<event>
 5    1  0.2675386E-003  0.1576874E+03  0.7818608E-02  0.1300254E+00
         11   -1    0    0    0    0  0.00000000000E+00  0.00000000000E+00  0.10002211797E+04  0.10002211797E+04  0.51100000000E-03 0. -1.
          2   -1    0    0  501    0 -0.00000000000E+00 -0.00000000000E+00 -0.14035846824E+03  0.14035846827E+03  0.25500000000E-02 0.  1.
         11    1    1    2    0    0  0.13132154719E+03 -0.96329835587E+02  0.89015754981E+03  0.90493383706E+03  0.51100000000E-03 0. -1.
         22    1    1    2    0    0 -0.52041431293E+02 -0.77077847879E+01 -0.79974701140E+02  0.95727077360E+02  0.00000000000E+00 0.  1.
          2    1    1    2  501    0 -0.79280115892E+02  0.10403762037E+03  0.49679862816E+02  0.13991873357E+03  0.25500000000E-02 0.  1.
<mgrwt>
<rscale>  0 0.91081259E+02</rscale>
<asrwt>0</asrwt>
<pdfrwt beam="1">  1       11 0.10000000E+01 0.15768738E+03</pdfrwt>
<pdfrwt beam="2">  1        2 0.21598386E-01 0.91081259E+02</pdfrwt>
<totfact> 0.30418446E+02</totfact>
</mgrwt>
</event>
<event>
 5    1  0.2675386E-003  0.1880500E+03  0.7818608E-02  0.1160232E+00
         11   -1    0    0    0    0  0.00000000000E+00  0.00000000000E+00  0.10001442269E+04  0.10001442269E+04  0.51100000000E-03 0. -1.
          2   -1    0    0  501    0 -0.00000000000E+00 -0.00000000000E+00 -0.49513564055E+02  0.49513564120E+02  0.25500000000E-02 0. -1.
         11    1    1    2    0    0  0.50116802806E+02 -0.17515187404E+03  0.76134979567E+03  0.78284314155E+03  0.51100000000E-03 0. -1.
         22    1    1    2    0    0 -0.26176979870E+02  0.26898709449E+02  0.31608240690E+02  0.49069906508E+02  0.00000000000E+00 0.  1.
          2    1    1    2  501    0 -0.23939822936E+02  0.14825316460E+03  0.15767262645E+03  0.21774474293E+03  0.25500000000E-02 0. -1.
<mgrwt>
<rscale>  0 0.18805002E+03</rscale>
<asrwt>0</asrwt>
<pdfrwt beam="1">  1       11 0.10000000E+01 0.18218088E+03</pdfrwt>
<pdfrwt beam="2">  1        2 0.76185698E-02 0.18805002E+03</pdfrwt>
<totfact> 0.10894632E+03</totfact>
</mgrwt>
</event>
<event>
 5    1  0.2675386E-003  0.2819390E+03  0.7818608E-02  0.1094635E+00
         11   -1    0    0    0    0  0.00000000000E+00  0.00000000000E+00  0.99990700246E+03  0.99990700246E+03  0.51100000000E-03 0. -1.
          2   -1    0    0  501    0 -0.00000000000E+00 -0.00000000000E+00 -0.66879264862E+03  0.66879264862E+03  0.25500000000E-02 0. -1.
         11    1    1    2    0    0 -0.27151082015E+03  0.26333874322E+02  0.95012349088E+03  0.98850707955E+03  0.51100000000E-03 0. -1.
         22    1    1    2    0    0  0.24090854176E+03 -0.46297156020E+02 -0.53304500642E+03  0.58678559204E+03  0.00000000000E+00 0. -1.
          2    1    1    2  501    0  0.30602278388E+02  0.19963281698E+02 -0.85964130617E+02  0.93406979493E+02  0.25500000000E-02 0. -1.
<mgrwt>
<rscale>  0 0.28193904E+03</rscale>
<asrwt>0</asrwt>
<pdfrwt beam="1">  1       11 0.10000000E+01 0.27278489E+03</pdfrwt>
<pdfrwt beam="2">  1        2 0.10288161E+00 0.28193904E+03</pdfrwt>
<totfact> 0.55277217E+01</totfact>
</mgrwt>
</event>
<event>
 5    1  0.2675386E-003  0.1231867E+03  0.7818608E-02  0.1373116E+00
         11   -1    0    0    0    0  0.00000000000E+00  0.00000000000E+00  0.10001440858E+04  0.10001440858E+04  0.51100000000E-03 0.  1.
          2   -1    0    0  501    0 -0.00000000000E+00 -0.00000000000E+00 -0.20971205674E+02  0.20971205829E+02  0.25500000000E-02 0.  1.
         11    1    1    2    0    0  0.23103113321E+02  0.11495169809E+03  0.43955233198E+03  0.45492186064E+03  0.51100000000E-03 0.  1.
         22    1    1    2    0    0 -0.31122772322E+02  0.17473474827E+02  0.75990913310E+02  0.83955751353E+02  0.00000000000E+00 0. -1.
          2    1    1    2  501    0  0.80196590012E+01 -0.13242517292E+03  0.46362963480E+03  0.48223767960E+03  0.25500000000E-02 0.  1.
<mgrwt>
<rscale>  0 0.66308626E+02</rscale>
<asrwt>0</asrwt>
<pdfrwt beam="1">  1       11 0.10000000E+01 0.12318675E+03</pdfrwt>
<pdfrwt beam="2">  1        2 0.32268041E-02 0.66308626E+02</pdfrwt>
<totfact> 0.30275007E+03</totfact>
</mgrwt>
</event>
<event>
 5    1  0.2675386E-003  0.1686246E+03  0.7818608E-02  0.1380877E+00
         11   -1    0    0    0    0  0.00000000000E+00  0.00000000000E+00  0.10002418876E+04  0.10002418876E+04  0.51100000000E-03 0.  1.
          2   -1    0    0  501    0 -0.00000000000E+00 -0.00000000000E+00 -0.52193842832E+02  0.52193842894E+02  0.25500000000E-02 0. -1.
         11    1    1    2    0    0 -0.13816558691E+03  0.92908939318E+02  0.67859300641E+03  0.69872045108E+03  0.51100000000E-03 0.  1.
         22    1    1    2    0    0 -0.18899181708E+02 -0.15541158912E+02 -0.79067358811E+01  0.25714259893E+02  0.00000000000E+00 0. -1.
          2    1    1    2  501    0  0.15706476862E+03 -0.77367780406E+02  0.27736177422E+03  0.32800101950E+03  0.25500000000E-02 0. -1.
<mgrwt>
<rscale>  0 0.64233848E+02</rscale>
<asrwt>0</asrwt>
<pdfrwt beam="1">  1       11 0.10000000E+01 0.16862456E+03</pdfrwt>
<pdfrwt beam="2">  1        2 0.80317641E-02 0.64233848E+02</pdfrwt>
<totfact> 0.94648767E+02</totfact>
</mgrwt>
</event>
<event>
 5    1  0.2675386E-003  0.4688918E+03  0.7818608E-02  0.1022233E+00
         11   -1    0    0    0    0  0.00000000000E+00  0.00000000000E+00  0.10004078385E+04  0.10004078385E+04  0.51100000000E-03 0. -1.
          2   -1    0    0  501    0 -0.00000000000E+00 -0.00000000000E+00 -0.88148116371E+03  0.88148116371E+03  0.25500000000E-02 0. -1.
         11    1    1    2    0    0  0.26435876182E+03 -0.33730706950E+03  0.88523090892E+03  0.98351175702E+03  0.51100000000E-03 0. -1.
         22    1    1    2    0    0 -0.39759594273E+02  0.20134213354E+03 -0.36713784279E+03  0.42060631912E+03  0.00000000000E+00 0. -1.
          2    1    1    2  501    0 -0.22459916755E+03  0.13596493597E+03 -0.39916639131E+03  0.47777092610E+03  0.25500000000E-02 0. -1.
<mgrwt>
<rscale>  0 0.46889177E+03</rscale>
<asrwt>0</asrwt>
<pdfrwt beam="1">  1       11 0.10000000E+01 0.42855760E+03</pdfrwt>
<pdfrwt beam="2">  1        2 0.13566779E+00 0.46889177E+03</pdfrwt>
<totfact> 0.38173717E+01</totfact>
</mgrwt>
</event>
<event>
 5    1  0.2675386E-003  0.1622255E+03  0.7818608E-02  0.1657614E+00
         11   -1    0    0    0    0  0.00000000000E+00  0.00000000000E+00  0.10002065038E+04  0.10002065038E+04  0.51100000000E-03 0.  1.
          2   -1    0    0  501    0 -0.00000000000E+00 -0.00000000000E+00 -0.31347752536E+02  0.31347752640E+02  0.25500000000E-02 0.  1.
         11    1    1    2    0    0 -0.10922449445E+03  0.10784320961E+03  0.45132061004E+03  0.47670792011E+03  0.51100000000E-03 0.  1.
         22    1    1    2    0    0  0.11097485189E+03 -0.13301993678E+03  0.47194433242E+03  0.50273370111E+03  0.00000000000E+00 0.  1.
          2    1    1    2  501    0 -0.17503574314E+01  0.25176727163E+02  0.45593808820E+02  0.52112635234E+02  0.25500000000E-02 0.  1.
<mgrwt>
<rscale>  0 0.25237499E+02</rscale>
<asrwt>0</asrwt>
<pdfrwt beam="1">  1       11 0.10000000E+01 0.16222546E+03</pdfrwt>
<pdfrwt beam="2">  1        2 0.48237269E-02 0.25237499E+02</pdfrwt>
<totfact> 0.16092772E+03</totfact>
</mgrwt>
</event>
<event>
 5    1  0.2675386E-003  0.5692998E+02  0.7818608E-02  0.1445010E+00
         11   -1    0    0    0    0  0.00000000000E+00  0.00000000000E+00  0.99962666517E+03  0.99962666517E+03  0.51100000000E-03 0. -1.
          2   -1    0    0  501    0 -0.00000000000E+00 -0.00000000000E+00 -0.20013334485E+02  0.20013334647E+02  0.25500000000E-02 0. -1.
         11    1    1    2    0    0 -0.25251647662E+02 -0.94701823832E+02  0.15646629748E+03  0.18462877184E+03  0.51100000000E-03 0. -1.
         22    1    1    2    0    0  0.12518801862E+02  0.42204339909E+02  0.93259409094E+02  0.10312731981E+03  0.00000000000E+00 0. -1.
          2    1    1    2  501    0  0.12732845801E+02  0.52497483923E+02  0.72988762411E+03  0.73188390816E+03  0.25500000000E-02 0. -1.
<mgrwt>
<rscale>  0 0.50061602E+02</rscale>
<asrwt>0</asrwt>
<pdfrwt beam="1">  1       11 0.10000000E+01 0.56929980E+02</pdfrwt>
<pdfrwt beam="2">  1        2 0.30778250E-02 0.50061602E+02</pdfrwt>
<totfact> 0.31099254E+03</totfact>
</mgrwt>
</event>
<event>
 5    1  0.2675386E-003  0.6050129E+03  0.7818608E-02  0.1283172E+00
         11   -1    0    0    0    0  0.00000000000E+00  0.00000000000E+00  0.10001090523E+04  0.10001090523E+04  0.51100000000E-03 0. -1.
          2   -1    0    0  501    0 -0.00000000000E+00 -0.00000000000E+00 -0.41241610403E+03  0.41241610404E+03  0.25500000000E-02 0. -1.
         11    1    1    2    0    0  0.50603807411E+03  0.34786598565E+03  0.10457557057E+03  0.62291357858E+03  0.51100000000E-03 0. -1.
         22    1    1    2    0    0 -0.72095576733E+01 -0.14377208829E+02 -0.41916236723E+01  0.16620817205E+02  0.00000000000E+00 0. -1.
          2    1    1    2  501    0 -0.49882851643E+03 -0.33348877682E+03  0.48730900136E+03  0.77299076054E+03  0.25500000000E-02 0. -1.
<mgrwt>
<rscale>  0 0.98644686E+02</rscale>
<asrwt>0</asrwt>
<pdfrwt beam="1">  1       11 0.10000000E+01 0.60501288E+03</pdfrwt>
<pdfrwt beam="2">  1        2 0.63455549E-01 0.98644686E+02</pdfrwt>
<totfact> 0.96741014E+01</totfact>
</mgrwt>
</event>
<event>
 5    1  0.2675386E-003  0.1170584E+03  0.7818608E-02  0.1248030E+00
         11   -1    0    0    0    0  0.00000000000E+00  0.00000000000E+00  0.10005927800E+04  0.10005927800E+04  0.51100000000E-03 0.  1.
          2   -1    0    0  501    0 -0.00000000000E+00 -0.00000000000E+00 -0.14035709410E+02  0.14035709642E+02  0.25500000000E-02 0.  1.
         11    1    1    2    0    0 -0.78845200019E+02  0.83456043493E+02  0.59383727133E+03  0.60483401160E+03  0.51100000000E-03 0.  1.
         22    1    1    2    0    0  0.60264271888E+01 -0.18555329873E+02  0.66986312816E+02  0.69769507638E+02  0.00000000000E+00 0.  1.
          2    1    1    2  501    0  0.72818772830E+02 -0.64900713620E+02  0.32573348647E+03  0.34002497044E+03  0.25500000000E-02 0.  1.
<mgrwt>
<rscale>  0 0.11705842E+03</rscale>
<asrwt>0</asrwt>
<pdfrwt beam="1">  1       11 0.10000000E+01 0.11481061E+03</pdfrwt>
<pdfrwt beam="2">  1        2 0.21606199E-02 0.11705842E+03</pdfrwt>
<totfact> 0.55287251E+03</totfact>
</mgrwt>
</event>
<event>
 5    1  0.2675386E-003  0.2526341E+03  0.7818608E-02  0.1356229E+00
         11   -1    0    0    0    0  0.00000000000E+00  0.00000000000E+00  0.99983997836E+03  0.99983997836E+03  0.51100000000E-03 0.  1.
          2   -1    0    0  501    0 -0.00000000000E+00 -0.00000000000E+00 -0.83944198631E+02  0.83944198669E+02  0.25500000000E-02 0.  1.
         11    1    1    2    0    0  0.17978965026E+02 -0.25739633910E+03  0.67236076515E+03  0.72017020008E+03  0.51100000000E-03 0.  1.
         22    1    1    2    0    0  0.99388451096E+01  0.17399043061E+02 -0.71452259788E+00  0.20050383640E+02  0.00000000000E+00 0.  1.
          2    1    1    2  501    0 -0.27917810136E+02  0.23999729604E+03  0.24424953717E+03  0.34356359331E+03  0.25500000000E-02 0.  1.
<mgrwt>
<rscale>  0 0.71149096E+02</rscale>
<asrwt>0</asrwt>
<pdfrwt beam="1">  1       11 0.10000000E+01 0.25263414E+03</pdfrwt>
<pdfrwt beam="2">  1        2 0.12912425E-01 0.71149096E+02</pdfrwt>
<totfact> 0.53980716E+02</totfact>
</mgrwt>
</event>
<event>
 5    1  0.2675386E-003  0.1196183E+03  0.7818608E-02  0.1243728E+00
         11   -1    0    0    0    0  0.00000000000E+00  0.00000000000E+00  0.10001163862E+04  0.10001163862E+04  0.51100000000E-03 0. -1.
          2   -1    0    0  501    0 -0.00000000000E+00 -0.00000000000E+00 -0.16320409126E+02  0.16320409325E+02  0.25500000000E-02 0. -1.
         11    1    1    2    0    0 -0.78987274840E+02  0.84245751333E+02  0.68360996282E+03  0.69329569266E+03  0.51100000000E-03 0. -1.
         22    1    1    2    0    0  0.18422796186E+02 -0.72996073511E+01  0.32019108574E+02  0.37655105904E+02  0.00000000000E+00 0.  1.
          2    1    1    2  501    0  0.60564478654E+02 -0.76946143982E+02  0.26816690568E+03  0.28548599696E+03  0.25500000000E-02 0. -1.
<mgrwt>
<rscale>  0 0.11961826E+03</rscale>
<asrwt>0</asrwt>
<pdfrwt beam="1">  1       11 0.10000000E+01 0.11548306E+03</pdfrwt>
<pdfrwt beam="2">  1        2 0.25111243E-02 0.11961826E+03</pdfrwt>
<totfact> 0.45228201E+03</totfact>
</mgrwt>
</event>
<event>
 5    1  0.2675386E-003  0.2079831E+03  0.7818608E-02  0.1143173E+00
         11   -1    0    0    0    0  0.00000000000E+00  0.00000000000E+00  0.10002908584E+04  0.10002908584E+04  0.51100000000E-03 0.  1.
          2   -1    0    0  501    0 -0.00000000000E+00 -0.00000000000E+00 -0.49738494246E+02  0.49738494312E+02  0.25500000000E-02 0.  1.
         11    1    1    2    0    0  0.12389449586E+03 -0.15993138913E+03  0.67581687014E+03  0.70544761485E+03  0.51100000000E-03 0.  1.
         22    1    1    2    0    0 -0.20664442677E+02  0.21597255729E+02  0.16997794909E+02  0.34385835426E+02  0.00000000000E+00 0.  1.
          2    1    1    2  501    0 -0.10323005318E+03  0.13833413340E+03  0.25773769912E+03  0.31019590245E+03  0.25500000000E-02 0.  1.
<mgrwt>
<rscale>  0 0.20798313E+03</rscale>
<asrwt>0</asrwt>
<pdfrwt beam="1">  1       11 0.10000000E+01 0.20230644E+03</pdfrwt>
<pdfrwt beam="2">  1        2 0.76543015E-02 0.20798313E+03</pdfrwt>
<totfact> 0.10895629E+03</totfact>
</mgrwt>
</event>
<event>
 5    1  0.2675386E-003  0.3268521E+03  0.7818608E-02  0.1072538E+00
         11   -1    0    0    0    0  0.00000000000E+00  0.00000000000E+00  0.10001617203E+04  0.10001617203E+04  0.51100000000E-03 0.  1.
          2   -1    0    0  501    0 -0.00000000000E+00 -0.00000000000E+00 -0.40136396627E+03  0.40136396627E+03  0.25500000000E-02 0.  1.
         11    1    1    2    0    0  0.80507681332E+02 -0.30018759459E+03  0.90301660592E+03  0.95500422473E+03  0.51100000000E-03 0.  1.
         22    1    1    2    0    0  0.19953257862E+02  0.37861138204E+02 -0.63550531615E+02  0.76617676511E+02  0.00000000000E+00 0.  1.
          2    1    1    2  501    0 -0.10046093919E+03  0.26232645638E+03 -0.24066832026E+03  0.36990378534E+03  0.25500000000E-02 0.  1.
<mgrwt>
<rscale>  0 0.32685212E+03</rscale>
<asrwt>0</asrwt>
<pdfrwt beam="1">  1       11 0.10000000E+01 0.31079588E+03</pdfrwt>
<pdfrwt beam="2">  1        2 0.61758287E-01 0.32685212E+03</pdfrwt>
<totfact> 0.98740320E+01</totfact>
</mgrwt>
</event>
<event>
 5    1  0.2675386E-003  0.1051307E+03  0.7818608E-02  0.1269862E+00
         11   -1    0    0    0    0  0.00000000000E+00  0.00000000000E+00  0.10001576277E+04  0.10001576277E+04  0.51100000000E-03 0. -1.
          2   -1    0    0  501    0 -0.00000000000E+00 -0.00000000000E+00 -0.10993440461E+02  0.10993440756E+02  0.25500000000E-02 0. -1.
         11    1    1    2    0    0  0.49919114690E+02 -0.89744244097E+02  0.42113897074E+03  0.43347892687E+03  0.51100000000E-03 0. -1.
         22    1    1    2    0    0 -0.10722329145E+02  0.41913763378E+02  0.22734070914E+03  0.23142067741E+03  0.00000000000E+00 0. -1.
          2    1    1    2  501    0 -0.39196785545E+02  0.47830480719E+02  0.34068450733E+03  0.34625146415E+03  0.25500000000E-02 0. -1.
<mgrwt>
<rscale>  0 0.10513066E+03</rscale>
<asrwt>0</asrwt>
<pdfrwt beam="1">  1       11 0.10000000E+01 0.10269351E+03</pdfrwt>
<pdfrwt beam="2">  1        2 0.16915651E-02 0.10513066E+03</pdfrwt>
<totfact> 0.76061875E+03</totfact>
</mgrwt>
</event>
<event>
 5    1  0.2675386E-003  0.1736879E+03  0.7818608E-02  0.1174056E+00
         11   -1    0    0    0    0  0.00000000000E+00  0.00000000000E+00  0.10001463344E+04  0.10001463344E+04  0.51100000000E-03 0. -1.
         -2   -1    0    0    0  501 -0.00000000000E+00 -0.00000000000E+00 -0.74352864061E+02  0.74352864105E+02  0.25500000000E-02 0.  1.
         11    1    1    2    0    0 -0.31663176881E+02  0.16569674913E+03  0.87841282730E+03  0.89446468047E+03  0.51100000000E-03 0. -1.
         22    1    1    2    0    0 -0.67013835566E+01 -0.29810062166E+02  0.19096733604E+02  0.36031008621E+02  0.00000000000E+00 0. -1.
         -2    1    1    2    0  501  0.38364560438E+02 -0.13588668696E+03  0.28283909464E+02  0.14400350944E+03  0.25500000000E-02 0.  1.
<mgrwt>
<rscale>  0 0.17368795E+03</rscale>
<asrwt>0</asrwt>
<pdfrwt beam="1">  1       11 0.10000000E+01 0.16869490E+03</pdfrwt>
<pdfrwt beam="2">  1       -2 0.11440576E-01 0.17368795E+03</pdfrwt>
<totfact> 0.41813238E+02</totfact>
</mgrwt>
</event>
<event>
 5    1  0.2675386E-003  0.3676261E+03  0.7818608E-02  0.1055604E+00
         11   -1    0    0    0    0  0.00000000000E+00  0.00000000000E+00  0.10002691801E+04  0.10002691801E+04  0.51100000000E-03 0. -1.
          2   -1    0    0  501    0 -0.00000000000E+00 -0.00000000000E+00 -0.17557270335E+03  0.17557270337E+03  0.25500000000E-02 0.  1.
         11    1    1    2    0    0 -0.97370815554E+02  0.35164361289E+03  0.69689197901E+03  0.78663380084E+03  0.51100000000E-03 0. -1.
         22    1    1    2    0    0  0.11904851081E+02 -0.11240697010E+02  0.26132010845E+01  0.16580336801E+02  0.00000000000E+00 0. -1.
          2    1    1    2  501    0  0.85465964473E+02 -0.34040291588E+03  0.12519129669E+03  0.37262774587E+03  0.25500000000E-02 0.  1.
<mgrwt>
<rscale>  0 0.36762609E+03</rscale>
<asrwt>0</asrwt>
<pdfrwt beam="1">  1       11 0.10000000E+01 0.36487574E+03</pdfrwt>
<pdfrwt beam="2">  1        2 0.27018455E-01 0.36762609E+03</pdfrwt>
<totfact> 0.24505356E+02</totfact>
</mgrwt>
</event>
<event>
 5    1  0.2675386E-003  0.1853000E+03  0.7818608E-02  0.1215025E+00
         11   -1    0    0    0    0  0.00000000000E+00  0.00000000000E+00  0.10004279916E+04  0.10004279916E+04  0.51100000000E-03 0. -1.
          2   -1    0    0  501    0 -0.00000000000E+00 -0.00000000000E+00 -0.78956123586E+03  0.78956123587E+03  0.25500000000E-02 0. -1.
         11    1    1    2    0    0  0.16666852812E+03 -0.87687949657E+02  0.97159338249E+03  0.98967735938E+03  0.51100000000E-03 0. -1.
         22    1    1    2    0    0 -0.10297210830E+03 -0.13773975179E+02 -0.53264907922E+03  0.54268593042E+03  0.00000000000E+00 0. -1.
          2    1    1    2  501    0 -0.63696419820E+02  0.10146192484E+03 -0.22807754750E+03  0.25762593769E+03  0.25500000000E-02 0. -1.
<mgrwt>
<rscale>  0 0.13874681E+03</rscale>
<asrwt>0</asrwt>
<pdfrwt beam="1">  1       11 0.10000000E+01 0.18529998E+03</pdfrwt>
<pdfrwt beam="2">  1        2 0.12152294E+00 0.13874681E+03</pdfrwt>
<totfact> 0.46140887E+01</totfact>
</mgrwt>
</event>
<event>
 5    1  0.2675386E-003  0.2079881E+03  0.7818608E-02  0.1143169E+00
         11   -1    0    0    0    0  0.00000000000E+00  0.00000000000E+00  0.10002861829E+04  0.10002861829E+04  0.51100000000E-03 0.  1.
         -2   -1    0    0    0  501 -0.00000000000E+00 -0.00000000000E+00 -0.85344203423E+02  0.85344203461E+02  0.25500000000E-02 0. -1.
         11    1    1    2    0    0  0.46721667465E+02 -0.20117710466E+03  0.83926296193E+03  0.86430171869E+03  0.51100000000E-03 0.  1.
         22    1    1    2    0    0 -0.53221941719E+01  0.13431850717E+02 -0.68092466353E+00  0.14463886853E+02  0.00000000000E+00 0.  1.
         -2    1    1    2    0  501 -0.41399473293E+02  0.18774525395E+03  0.76359942225E+02  0.20686478084E+03  0.25500000000E-02 0. -1.
<mgrwt>
<rscale>  0 0.20798814E+03</rscale>
<asrwt>0</asrwt>
<pdfrwt beam="1">  1       11 0.10000000E+01 0.20653121E+03</pdfrwt>
<pdfrwt beam="2">  1       -2 0.13133635E-01 0.20798814E+03</pdfrwt>
<totfact> 0.33759955E+02</totfact>
</mgrwt>
</event>
<event>
 5    1  0.2675386E-003  0.6120797E+03  0.7818608E-02  0.9880657E-01
         11   -1    0    0    0    0  0.00000000000E+00  0.00000000000E+00  0.99982552604E+03  0.99982552604E+03  0.51100000000E-03 0. -1.
         -2   -1    0    0    0  501 -0.00000000000E+00 -0.00000000000E+00 -0.78837727617E+03  0.78837727618E+03  0.25500000000E-02 0.  1.
         11    1    1    2    0    0 -0.13971143128E+02 -0.27154304936E+03  0.32567965823E+03  0.42426178272E+03  0.51100000000E-03 0. -1.
         22    1    1    2    0    0 -0.55644983053E+03 -0.43324776404E+02  0.25655103096E+03  0.61427345835E+03  0.00000000000E+00 0.  1.
         -2    1    1    2    0  501  0.57042097366E+03  0.31486782576E+03 -0.37078243933E+03  0.74966756113E+03  0.25500000000E-02 0.  1.
<mgrwt>
<rscale>  0 0.61207972E+03</rscale>
<asrwt>0</asrwt>
<pdfrwt beam="1">  1       11 0.10000000E+01 0.27190223E+03</pdfrwt>
<pdfrwt beam="2">  1       -2 0.12126765E+00 0.61207972E+03</pdfrwt>
<totfact> 0.42640910E+00</totfact>
</mgrwt>
</event>
<event>
 5    1  0.2675386E-003  0.2000666E+03  0.7818608E-02  0.1149683E+00
         11   -1    0    0    0    0  0.00000000000E+00  0.00000000000E+00  0.10002411572E+04  0.10002411572E+04  0.51100000000E-03 0. -1.
          2   -1    0    0  501    0 -0.00000000000E+00 -0.00000000000E+00 -0.41722263170E+02  0.41722263248E+02  0.25500000000E-02 0. -1.
         11    1    1    2    0    0 -0.78317669660E+02  0.18207414497E+03  0.59336970420E+03  0.62559752039E+03  0.51100000000E-03 0. -1.
         22    1    1    2    0    0  0.77038338215E+02 -0.15983282255E+03  0.33177156942E+03  0.37623637648E+03  0.00000000000E+00 0. -1.
          2    1    1    2  501    0  0.12793314450E+01 -0.22241322426E+02  0.33377620451E+02  0.40129523616E+02  0.25500000000E-02 0. -1.
<mgrwt>
<rscale>  0 0.20006657E+03</rscale>
<asrwt>0</asrwt>
<pdfrwt beam="1">  1       11 0.10000000E+01 0.19820356E+03</pdfrwt>
<pdfrwt beam="2">  1        2 0.64203575E-02 0.20006657E+03</pdfrwt>
<totfact> 0.13624431E+03</totfact>
</mgrwt>
</event>
<event>
 5    1  0.2675386E-003  0.1405036E+03  0.7818608E-02  0.1212653E+00
         11   -1    0    0    0    0  0.00000000000E+00  0.00000000000E+00  0.10004368587E+04  0.10004368587E+04  0.51100000000E-03 0. -1.
          2   -1    0    0  501    0 -0.00000000000E+00 -0.00000000000E+00 -0.22536283432E+02  0.22536283576E+02  0.25500000000E-02 0. -1.
         11    1    1    2    0    0 -0.80669755687E+02  0.11227152618E+03  0.29525876674E+03  0.32602184653E+03  0.51100000000E-03 0. -1.
         22    1    1    2    0    0  0.14171544353E+02 -0.69040249961E+01  0.67259444524E+02  0.69082060682E+02  0.00000000000E+00 0.  1.
          2    1    1    2  501    0  0.66498211334E+02 -0.10536750118E+03  0.61538236403E+03  0.62786923509E+03  0.25500000000E-02 0. -1.
<mgrwt>
<rscale>  0 0.14050363E+03</rscale>
<asrwt>0</asrwt>
<pdfrwt beam="1">  1       11 0.10000000E+01 0.13824805E+03</pdfrwt>
<pdfrwt beam="2">  1        2 0.34686351E-02 0.14050363E+03</pdfrwt>
<totfact> 0.29801975E+03</totfact>
</mgrwt>
</event>
<event>
 5    1  0.2675386E-003  0.4791575E+02  0.7818608E-02  0.1553001E+00
         11   -1    0    0    0    0  0.00000000000E+00  0.00000000000E+00  0.10004269016E+04  0.10004269016E+04  0.51100000000E-03 0.  1.
          2   -1    0    0  501    0 -0.00000000000E+00 -0.00000000000E+00 -0.74227404764E+01  0.74227409144E+01  0.25500000000E-02 0.  1.
         11    1    1    2    0    0 -0.19881475813E+02 -0.65244797509E+02  0.20366637393E+03  0.21478395785E+03  0.51100000000E-03 0.  1.
         22    1    1    2    0    0 -0.30312730564E+00  0.24852160851E+02  0.14230030047E+03  0.14445448175E+03  0.00000000000E+00 0.  1.
          2    1    1    2  501    0  0.20184603119E+02  0.40392636657E+02  0.64703748668E+03  0.64861120286E+03  0.25500000000E-02 0.  1.
<mgrwt>
<rscale>  0 0.34509388E+02</rscale>
<asrwt>0</asrwt>
<pdfrwt beam="1">  1       11 0.10000000E+01 0.47915747E+02</pdfrwt>
<pdfrwt beam="2">  1        2 0.11424476E-02 0.34509388E+02</pdfrwt>
<totfact> 0.10764966E+04</totfact>
</mgrwt>
</event>
<event>
 5    1  0.2675386E-003  0.1765944E+03  0.7818608E-02  0.1496278E+00
         11   -1    0    0    0    0  0.00000000000E+00  0.00000000000E+00  0.10002551900E+04  0.10002551900E+04  0.51100000000E-03 0. -1.
          2   -1    0    0  501    0 -0.00000000000E+00 -0.00000000000E+00 -0.40550886045E+02  0.40550886125E+02  0.25500000000E-02 0. -1.
         11    1    1    2    0    0  0.17102175882E+03 -0.40433950846E+02  0.37505300905E+03  0.41418366212E+03  0.51100000000E-03 0. -1.
         22    1    1    2    0    0 -0.16057953361E+03  0.80773167757E+02  0.42136413976E+03  0.45810242252E+03  0.00000000000E+00 0. -1.
          2    1    1    2  501    0 -0.10442225212E+02 -0.40339216911E+02  0.16328715519E+03  0.16851999153E+03  0.25500000000E-02 0. -1.
<mgrwt>
<rscale>  0 0.41668843E+02</rscale>
<asrwt>0</asrwt>
<pdfrwt beam="1">  1       11 0.10000000E+01 0.17659437E+03</pdfrwt>
<pdfrwt beam="2">  1        2 0.62401897E-02 0.41668843E+02</pdfrwt>
<totfact> 0.12417067E+03</totfact>
</mgrwt>
</event>
<event>
 5    1  0.2675386E-003  0.1825592E+03  0.7818608E-02  0.1165349E+00
         11   -1    0    0    0    0  0.00000000000E+00  0.00000000000E+00  0.10001556378E+04  0.10001556378E+04  0.51100000000E-03 0.  1.
          2   -1    0    0  501    0 -0.00000000000E+00 -0.00000000000E+00 -0.41793247112E+03  0.41793247113E+03  0.25500000000E-02 0.  1.
         11    1    1    2    0    0  0.15611139425E+03  0.75811522718E+02  0.97216164040E+03  0.98753046002E+03  0.51100000000E-03 0.  1.
         22    1    1    2    0    0 -0.63095195222E+02 -0.57427703665E+02 -0.21989887045E+03  0.23586957844E+03  0.00000000000E+00 0.  1.
          2    1    1    2  501    0 -0.93016199027E+02 -0.18383819054E+02 -0.17003960329E+03  0.19468807046E+03  0.25500000000E-02 0.  1.
<mgrwt>
<rscale>  0 0.18255924E+03</rscale>
<asrwt>0</asrwt>
<pdfrwt beam="1">  1       11 0.10000000E+01 0.17354583E+03</pdfrwt>
<pdfrwt beam="2">  1        2 0.64307308E-01 0.18255924E+03</pdfrwt>
<totfact> 0.94945010E+01</totfact>
</mgrwt>
</event>
<event>
 5    1  0.2675386E-003  0.1311795E+03  0.7818608E-02  0.1225716E+00
         11   -1    0    0    0    0  0.00000000000E+00  0.00000000000E+00  0.10002464593E+04  0.10002464593E+04  0.51100000000E-03 0. -1.
          2   -1    0    0  501    0 -0.00000000000E+00 -0.00000000000E+00 -0.17340052288E+02  0.17340052476E+02  0.25500000000E-02 0. -1.
         11    1    1    2    0    0  0.11636797219E+03 -0.38550835726E+02  0.33976899264E+03  0.36120719850E+03  0.51100000000E-03 0. -1.
         22    1    1    2    0    0 -0.32369526942E+02  0.33839115438E+02  0.21202770145E+03  0.21713732565E+03  0.00000000000E+00 0. -1.
          2    1    1    2  501    0 -0.83998445251E+02  0.47117202875E+01  0.43110971289E+03  0.43924198760E+03  0.25500000000E-02 0. -1.
<mgrwt>
<rscale>  0 0.13117953E+03</rscale>
<asrwt>0</asrwt>
<pdfrwt beam="1">  1       11 0.10000000E+01 0.12258747E+03</pdfrwt>
<pdfrwt beam="2">  1        2 0.26683578E-02 0.13117953E+03</pdfrwt>
<totfact> 0.42095563E+03</totfact>
</mgrwt>
</event>
<event>
 5    1  0.2675386E-003  0.2130816E+03  0.7818608E-02  0.1611545E+00
         11   -1    0    0    0    0  0.00000000000E+00  0.00000000000E+00  0.10002420579E+04  0.10002420579E+04  0.51100000000E-03 0. -1.
          2   -1    0    0  501    0 -0.00000000000E+00 -0.00000000000E+00 -0.14866487733E+03  0.14866487736E+03  0.25500000000E-02 0. -1.
         11    1    1    2    0    0  0.18294763192E+03 -0.15000186085E+03 -0.18951177286E+02  0.23733845328E+03  0.51100000000E-03 0. -1.
         22    1    1    2    0    0 -0.16763153888E+03  0.12559206152E+03  0.53099860307E+03  0.57081802285E+03  0.00000000000E+00 0. -1.
          2    1    1    2  501    0 -0.15316093043E+02  0.24409799326E+02  0.33952975480E+03  0.34075045915E+03  0.25500000000E-02 0. -1.
<mgrwt>
<rscale>  0 0.28817026E+02</rscale>
<asrwt>0</asrwt>
<pdfrwt beam="1">  1       11 0.10000000E+01 0.21308157E+03</pdfrwt>
<pdfrwt beam="2">  1        2 0.22877055E-01 0.28817026E+02</pdfrwt>
<totfact> 0.27250364E+02</totfact>
</mgrwt>
</event>
<event>
 5    1  0.2675386E-003  0.2306488E+03  0.7818608E-02  0.1126184E+00
         11   -1    0    0    0    0  0.00000000000E+00  0.00000000000E+00  0.10003112701E+04  0.10003112701E+04  0.51100000000E-03 0. -1.
          2   -1    0    0  501    0 -0.00000000000E+00 -0.00000000000E+00 -0.47019521192E+03  0.47019521193E+03  0.25500000000E-02 0. -1.
         11    1    1    2    0    0 -0.10570257488E+03  0.19729540612E+03  0.95833245683E+03  0.98412377750E+03  0.51100000000E-03 0. -1.
         22    1    1    2    0    0  0.61601799803E+02 -0.99654631463E+02 -0.27978488074E+03  0.30332393048E+03  0.00000000000E+00 0. -1.
          2    1    1    2  501    0  0.44100775076E+02 -0.97640774657E+02 -0.14843151792E+03  0.18305877405E+03  0.25500000000E-02 0. -1.
<mgrwt>
<rscale>  0 0.23064876E+03</rscale>
<asrwt>0</asrwt>
<pdfrwt beam="1">  1       11 0.10000000E+01 0.22382697E+03</pdfrwt>
<pdfrwt beam="2">  1        2 0.72360239E-01 0.23064876E+03</pdfrwt>
<totfact> 0.83215105E+01</totfact>
</mgrwt>
</event>
<event>
 5    1  0.2675386E-003  0.1441392E+03  0.7818608E-02  0.1207865E+00
         11   -1    0    0    0    0  0.00000000000E+00  0.00000000000E+00  0.10000287123E+04  0.10000287123E+04  0.51100000000E-03 0.  1.
          2   -1    0    0  501    0 -0.00000000000E+00 -0.00000000000E+00 -0.36927036884E+02  0.36927036972E+02  0.25500000000E-02 0.  1.
         11    1    1    2    0    0  0.97830647567E+02  0.10354663869E+03  0.82543299070E+03  0.83763498263E+03  0.51100000000E-03 0.  1.
         22    1    1    2    0    0 -0.10778248938E+02 -0.65449773528E+01  0.56947398001E+01  0.13836091938E+02  0.00000000000E+00 0. -1.
          2    1    1    2  501    0 -0.87052398629E+02 -0.97001661335E+02  0.13197394493E+03  0.18548467472E+03  0.25500000000E-02 0.  1.
<mgrwt>
<rscale>  0 0.14413917E+03</rscale>
<asrwt>0</asrwt>
<pdfrwt beam="1">  1       11 0.10000000E+01 0.14245260E+03</pdfrwt>
<pdfrwt beam="2">  1        2 0.56812456E-02 0.14413917E+03</pdfrwt>
<totfact> 0.15594734E+03</totfact>
</mgrwt>
</event>
<event>
 5    1  0.2675386E-003  0.2168740E+03  0.7818608E-02  0.1136235E+00
         11   -1    0    0    0    0  0.00000000000E+00  0.00000000000E+00  0.99997989836E+03  0.99997989836E+03  0.51100000000E-03 0. -1.
          2   -1    0    0  501    0 -0.00000000000E+00 -0.00000000000E+00 -0.80046275982E+03  0.80046275982E+03  0.25500000000E-02 0. -1.
         11    1    1    2    0    0  0.19358654919E+02  0.21226321164E+03  0.97354580342E+03  0.99660516750E+03  0.51100000000E-03 0. -1.
         22    1    1    2    0    0  0.11040320539E+02 -0.67177983915E+02 -0.27114355624E+03  0.27955965068E+03  0.00000000000E+00 0.  1.
          2    1    1    2  501    0 -0.30398975458E+02 -0.14508522773E+03 -0.50288510864E+03  0.52427784000E+03  0.25500000000E-02 0. -1.
<mgrwt>
<rscale>  0 0.21687401E+03</rscale>
<asrwt>0</asrwt>
<pdfrwt beam="1">  1       11 0.10000000E+01 0.21314415E+03</pdfrwt>
<pdfrwt beam="2">  1        2 0.12314564E+00 0.21687401E+03</pdfrwt>
<totfact> 0.44649760E+01</totfact>
</mgrwt>
</event>
<event>
 5    1  0.2675386E-003  0.4085398E+02  0.7818608E-02  0.1525324E+00
         11   -1    0    0    0    0  0.00000000000E+00  0.00000000000E+00  0.10006342671E+04  0.10006342671E+04  0.51100000000E-03 0. -1.
          2   -1    0    0  501    0 -0.00000000000E+00 -0.00000000000E+00 -0.55206718899E+01  0.55206724788E+01  0.25500000000E-02 0. -1.
         11    1    1    2    0    0 -0.53421064923E+02 -0.17905504856E+02  0.26312079946E+03  0.26908543697E+03  0.51100000000E-03 0. -1.
         22    1    1    2    0    0  0.16232229288E+02  0.30908762592E+02  0.16211597615E+03  0.16583252575E+03  0.00000000000E+00 0. -1.
          2    1    1    2  501    0  0.37188835635E+02 -0.13003257736E+02  0.56987681957E+03  0.57123697683E+03  0.25500000000E-02 0. -1.
<mgrwt>
<rscale>  0 0.37766215E+02</rscale>
<asrwt>0</asrwt>
<pdfrwt beam="1">  1       11 0.10000000E+01 0.40853978E+02</pdfrwt>
<pdfrwt beam="2">  1        2 0.84987286E-03 0.37766215E+02</pdfrwt>
<totfact> 0.16230760E+04</totfact>
</mgrwt>
</event>
<event>
 5    1  0.3576338E-003  0.6743494E+03  0.7818608E-02  0.9762132E-01
         11   -1    0    0    0    0  0.00000000000E+00  0.00000000000E+00  0.99983429611E+03  0.99983429611E+03  0.51100000000E-03 0. -1.
          2   -1    0    0  501    0 -0.00000000000E+00 -0.00000000000E+00 -0.16194818849E+04  0.16194818849E+04  0.25500000000E-02 0. -1.
         11    1    1    2    0    0  0.66248354142E+03  0.11712929570E+03  0.80141966862E+03  0.10463637990E+04  0.51100000000E-03 0. -1.
         22    1    1    2    0    0 -0.10885272951E+02 -0.64169690818E+01 -0.38618849538E+02  0.40633510789E+02  0.00000000000E+00 0. -1.
          2    1    1    2  501    0 -0.65159826847E+03 -0.11071232661E+03 -0.13824484078E+04  0.15323188712E+04  0.25500000000E-02 0. -1.
<mgrwt>
<rscale>  0 0.67434935E+03</rscale>
<asrwt>0</asrwt>
<pdfrwt beam="1">  1       11 0.10000000E+01 0.67275829E+03</pdfrwt>
<pdfrwt beam="2">  1        2 0.24910977E+00 0.67434935E+03</pdfrwt>
<totfact> 0.13778821E+01</totfact>
</mgrwt>
</event>
<event>
 5    1  0.2675386E-003  0.4040583E+02  0.7818608E-02  0.1606161E+00
         11   -1    0    0    0    0  0.00000000000E+00  0.00000000000E+00  0.10001528734E+04  0.10001528734E+04  0.51100000000E-03 0.  1.
         -2   -1    0    0    0  501 -0.00000000000E+00 -0.00000000000E+00 -0.44147045193E+01  0.44147052557E+01  0.25500000000E-02 0.  1.
         11    1    1    2    0    0 -0.24391755728E+02 -0.35291687470E+02  0.20231494769E+03  0.20681344011E+03  0.51100000000E-03 0.  1.
         22    1    1    2    0    0  0.20520937438E+02 -0.54053783450E+01  0.69263457804E+02  0.72441380269E+02  0.00000000000E+00 0.  1.
         -2    1    1    2    0  501  0.38708182909E+01  0.40697065815E+02  0.72415976335E+03  0.72531275823E+03  0.25500000000E-02 0.  1.
<mgrwt>
<rscale>  0 0.29282212E+02</rscale>
<asrwt>0</asrwt>
<pdfrwt beam="1">  1       11 0.10000000E+01 0.40405826E+02</pdfrwt>
<pdfrwt beam="2">  1       -2 0.67928918E-03 0.29282212E+02</pdfrwt>
<totfact> 0.19914662E+04</totfact>
</mgrwt>
</event>
<event>
 5    1  0.2675386E-003  0.9282726E+02  0.7818608E-02  0.1296146E+00
         11   -1    0    0    0    0  0.00000000000E+00  0.00000000000E+00  0.99964999172E+03  0.99964999172E+03  0.51100000000E-03 0.  1.
          2   -1    0    0  501    0 -0.00000000000E+00 -0.00000000000E+00 -0.82022871885E+01  0.82022875849E+01  0.25500000000E-02 0.  1.
         11    1    1    2    0    0 -0.87496500187E+02 -0.11602701199E+02  0.47754161363E+03  0.48562974885E+03  0.51100000000E-03 0.  1.
         22    1    1    2    0    0  0.88907089559E+01  0.93374640504E+01  0.46814044279E+02  0.48557055948E+02  0.00000000000E+00 0. -1.
          2    1    1    2  501    0  0.78605791231E+02  0.22652371486E+01  0.46709204663E+03  0.47366547451E+03  0.25500000000E-02 0.  1.
<mgrwt>
<rscale>  0 0.92827265E+02</rscale>
<asrwt>0</asrwt>
<pdfrwt beam="1">  1       11 0.10000000E+01 0.88262495E+02</pdfrwt>
<pdfrwt beam="2">  1        2 0.12614487E-02 0.92827265E+02</pdfrwt>
<totfact> 0.11150461E+04</totfact>
</mgrwt>
</event>
<event>
 5    1  0.2675386E-003  0.2451000E+03  0.7818608E-02  0.1414089E+00
         11   -1    0    0    0    0  0.00000000000E+00  0.00000000000E+00  0.10001997327E+04  0.10001997327E+04  0.51100000000E-03 0. -1.
          2   -1    0    0  501    0 -0.00000000000E+00 -0.00000000000E+00 -0.20362143019E+03  0.20362143020E+03  0.25500000000E-02 0. -1.
         11    1    1    2    0    0 -0.15415519610E+03  0.19718431722E+03  0.87692599096E+03  0.91194554282E+03  0.51100000000E-03 0. -1.
         22    1    1    2    0    0  0.12633207875E+03 -0.14824992398E+03 -0.11459360838E+03  0.22598568353E+03  0.00000000000E+00 0. -1.
          2    1    1    2  501    0  0.27823117346E+02 -0.48934393237E+02  0.34245919924E+02  0.65889936548E+02  0.25500000000E-02 0. -1.
<mgrwt>
<rscale>  0 0.56291213E+02</rscale>
<asrwt>0</asrwt>
<pdfrwt beam="1">  1       11 0.10000000E+01 0.24509996E+03</pdfrwt>
<pdfrwt beam="2">  1        2 0.31332630E-01 0.56291213E+02</pdfrwt>
<totfact> 0.20083859E+02</totfact>
</mgrwt>
</event>
<event>
 5    1  0.2675386E-003  0.2284720E+03  0.7818608E-02  0.1127720E+00
         11   -1    0    0    0    0  0.00000000000E+00  0.00000000000E+00  0.99998411927E+03  0.99998411927E+03  0.51100000000E-03 0. -1.
          2   -1    0    0  501    0 -0.00000000000E+00 -0.00000000000E+00 -0.73455399824E+02  0.73455399869E+02  0.25500000000E-02 0. -1.
         11    1    1    2    0    0  0.21537484161E+03  0.26533517926E+02  0.76092260717E+03  0.79126074342E+03  0.51100000000E-03 0. -1.
         22    1    1    2    0    0 -0.19421675376E+02 -0.24724806147E+02  0.13993524161E+02  0.34414186492E+02  0.00000000000E+00 0. -1.
          2    1    1    2  501    0 -0.19595316623E+03 -0.18087117787E+01  0.15161258812E+03  0.24776458923E+03  0.25500000000E-02 0. -1.
<mgrwt>
<rscale>  0 0.22847205E+03</rscale>
<asrwt>0</asrwt>
<pdfrwt beam="1">  1       11 0.10000000E+01 0.21700311E+03</pdfrwt>
<pdfrwt beam="2">  1        2 0.11300651E-01 0.22847205E+03</pdfrwt>
<totfact> 0.67223164E+02</totfact>
</mgrwt>
</event>
<event>
 5    1  0.2675386E-003  0.1156924E+03  0.7818608E-02  0.1250377E+00
         11   -1    0    0    0    0  0.00000000000E+00  0.00000000000E+00  0.10001288266E+04  0.10001288266E+04  0.51100000000E-03 0. -1.
          2   -1    0    0  501    0 -0.00000000000E+00 -0.00000000000E+00 -0.15037269876E+02  0.15037270093E+02  0.25500000000E-02 0. -1.
         11    1    1    2    0    0 -0.49781088234E+02 -0.10262091685E+03  0.66715018093E+03  0.67682979635E+03  0.51100000000E-03 0. -1.
         22    1    1    2    0    0  0.96863032401E+01  0.69797148341E+01  0.29965502844E+02  0.32256352092E+02  0.00000000000E+00 0. -1.
          2    1    1    2  501    0  0.40094784994E+02  0.95641202020E+02  0.28797587292E+03  0.30607994821E+03  0.25500000000E-02 0. -1.
<mgrwt>
<rscale>  0 0.11569241E+03</rscale>
<asrwt>0</asrwt>
<pdfrwt beam="1">  1       11 0.10000000E+01 0.11405792E+03</pdfrwt>
<pdfrwt beam="2">  1        2 0.23137241E-02 0.11569241E+03</pdfrwt>
<totfact> 0.50324401E+03</totfact>
</mgrwt>
</event>
<event>
 5    1  0.2675386E-003  0.9749884E+02  0.7818608E-02  0.1285645E+00
         11   -1    0    0    0    0  0.00000000000E+00  0.00000000000E+00  0.10004463513E+04  0.10004463513E+04  0.51100000000E-03 0.  1.
         -2   -1    0    0    0  501 -0.00000000000E+00 -0.00000000000E+00 -0.96549772726E+01  0.96549776093E+01  0.25500000000E-02 0. -1.
         11    1    1    2    0    0  0.93412087357E+02  0.18537901797E+02  0.39058174689E+03  0.40202434363E+03  0.51100000000E-03 0.  1.
         22    1    1    2    0    0 -0.15848965965E+02  0.28134953713E+01  0.72095262837E+02  0.73870375671E+02  0.00000000000E+00 0. -1.
         -2    1    1    2    0  501 -0.77563121392E+02 -0.21351397168E+02  0.52811436427E+03  0.53420660957E+03  0.25500000000E-02 0. -1.
<mgrwt>
<rscale>  0 0.97498839E+02</rscale>
<asrwt>0</asrwt>
<pdfrwt beam="1">  1       11 0.10000000E+01 0.95233822E+02</pdfrwt>
<pdfrwt beam="2">  1       -2 0.14860441E-02 0.97498839E+02</pdfrwt>
<totfact> 0.83695442E+03</totfact>
</mgrwt>
</event>
<event>
 5    1  0.2675386E-003  0.1993314E+03  0.7818608E-02  0.1150304E+00
         11   -1    0    0    0    0  0.00000000000E+00  0.00000000000E+00  0.10002767122E+04  0.10002767122E+04  0.51100000000E-03 0.  1.
         -2   -1    0    0    0  501 -0.00000000000E+00 -0.00000000000E+00 -0.44461445155E+02  0.44461445229E+02  0.25500000000E-02 0. -1.
         11    1    1    2    0    0  0.62423449882E+02  0.18163209815E+03  0.66490972312E+03  0.69209236816E+03  0.51100000000E-03 0.  1.
         22    1    1    2    0    0 -0.23540258268E+02 -0.34167810216E+02  0.32959692088E+02  0.52989851074E+02  0.00000000000E+00 0. -1.
         -2    1    1    2    0  501 -0.38883191614E+02 -0.14746428793E+03  0.25794585182E+03  0.29965593817E+03  0.25500000000E-02 0. -1.
<mgrwt>
<rscale>  0 0.19933143E+03</rscale>
<asrwt>0</asrwt>
<pdfrwt beam="1">  1       11 0.10000000E+01 0.19205964E+03</pdfrwt>
<pdfrwt beam="2">  1       -2 0.68421149E-02 0.19933143E+03</pdfrwt>
<totfact> 0.94435217E+02</totfact>
</mgrwt>
</event>
<event>
 5    1  0.2675386E-003  0.1430329E+03  0.7818608E-02  0.1279823E+00
         11   -1    0    0    0    0  0.00000000000E+00  0.00000000000E+00  0.10002358931E+04  0.10002358931E+04  0.51100000000E-03 0. -1.
          2   -1    0    0  501    0 -0.00000000000E+00 -0.00000000000E+00 -0.41453262351E+02  0.41453262430E+02  0.25500000000E-02 0. -1.
         11    1    1    2    0    0  0.14319694754E+03 -0.69634522725E+02  0.73808086509E+03  0.75506138555E+03  0.51100000000E-03 0. -1.
         22    1    1    2    0    0 -0.46475290778E+02  0.52651934043E+02  0.14998778691E+03  0.16561556399E+03  0.00000000000E+00 0. -1.
          2    1    1    2  501    0 -0.96721656766E+02  0.16982588682E+02  0.70713978782E+02  0.12101220603E+03  0.25500000000E-02 0. -1.
<mgrwt>
<rscale>  0 0.10022537E+03</rscale>
<asrwt>0</asrwt>
<pdfrwt beam="1">  1       11 0.10000000E+01 0.14303291E+03</pdfrwt>
<pdfrwt beam="2">  1        2 0.63789292E-02 0.10022537E+03</pdfrwt>
<totfact> 0.13068217E+03</totfact>
</mgrwt>
</event>
<event>
 5    1  0.2675386E-003  0.1495421E+03  0.7818608E-02  0.1201037E+00
         11   -1    0    0    0    0  0.00000000000E+00  0.00000000000E+00  0.10002314000E+04  0.10002314000E+04  0.51100000000E-03 0.  1.
          2   -1    0    0  501    0 -0.00000000000E+00 -0.00000000000E+00 -0.34918926517E+02  0.34918926610E+02  0.25500000000E-02 0.  1.
         11    1    1    2    0    0 -0.32890857946E+02 -0.14454768853E+03  0.79413102552E+03  0.80784895153E+03  0.51100000000E-03 0.  1.
         22    1    1    2    0    0  0.80011481067E+01  0.12521623525E+02  0.12808462775E+02  0.19618005642E+02  0.00000000000E+00 0. -1.
          2    1    1    2  501    0  0.24889709839E+02  0.13202606500E+03  0.15837298518E+03  0.20768336943E+03  0.25500000000E-02 0.  1.
<mgrwt>
<rscale>  0 0.14954206E+03</rscale>
<asrwt>0</asrwt>
<pdfrwt beam="1">  1       11 0.10000000E+01 0.14824251E+03</pdfrwt>
<pdfrwt beam="2">  1        2 0.53733855E-02 0.14954206E+03</pdfrwt>
<totfact> 0.16812618E+03</totfact>
</mgrwt>
</event>
<event>
 5    1  0.2675386E-003  0.8884207E+02  0.7818608E-02  0.1305680E+00
         11   -1    0    0    0    0  0.00000000000E+00  0.00000000000E+00  0.99997100142E+03  0.99997100142E+03  0.51100000000E-03 0. -1.
          2   -1    0    0  501    0 -0.00000000000E+00 -0.00000000000E+00 -0.29997971767E+02  0.29997971875E+02  0.25500000000E-02 0. -1.
         11    1    1    2    0    0  0.62158856222E+02 -0.30286813553E+02  0.54075645290E+02  0.87779211069E+02  0.51100000000E-03 0. -1.
         22    1    1    2    0    0 -0.13325028414E+03 -0.50601645637E+00  0.70568240750E+03  0.71815287685E+03  0.00000000000E+00 0. -1.
          2    1    1    2  501    0  0.71091427922E+02  0.30792830009E+02  0.21021497686E+03  0.22403688538E+03  0.25500000000E-02 0. -1.
<mgrwt>
<rscale>  0 0.88842069E+02</rscale>
<asrwt>0</asrwt>
<pdfrwt beam="1">  1       11 0.10000000E+01 0.69144915E+02</pdfrwt>
<pdfrwt beam="2">  1        2 0.46149386E-02 0.88842069E+02</pdfrwt>
<totfact> 0.19591873E+03</totfact>
</mgrwt>
</event>
<event>
 5    1  0.2675386E-003  0.1624573E+03  0.7818608E-02  0.1185950E+00
         11   -1    0    0    0    0  0.00000000000E+00  0.00000000000E+00  0.10002824907E+04  0.10002824907E+04  0.51100000000E-03 0. -1.
          2   -1    0    0  501    0 -0.00000000000E+00 -0.00000000000E+00 -0.30764382739E+02  0.30764382845E+02  0.25500000000E-02 0. -1.
         11    1    1    2    0    0  0.11644492164E+03  0.90488017075E+02  0.70785530456E+03  0.72305368625E+03  0.51100000000E-03 0. -1.
         22    1    1    2    0    0 -0.43072726553E+02 -0.60525910588E+01  0.37332299654E+02  0.57320103181E+02  0.00000000000E+00 0. -1.
          2    1    1    2  501    0 -0.73372195082E+02 -0.84435426016E+02  0.22433050370E+03  0.25067308407E+03  0.25500000000E-02 0. -1.
<mgrwt>
<rscale>  0 0.16245732E+03</rscale>
<asrwt>0</asrwt>
<pdfrwt beam="1">  1       11 0.10000000E+01 0.14747034E+03</pdfrwt>
<pdfrwt beam="2">  1        2 0.47343189E-02 0.16245732E+03</pdfrwt>
<totfact> 0.19976681E+03</totfact>
</mgrwt>
</event>
<event>
 5    1  0.2675386E-003  0.7032871E+02  0.7818608E-02  0.1538710E+00
         11   -1    0    0    0    0  0.00000000000E+00  0.00000000000E+00  0.10002682822E+04  0.10002682822E+04  0.51100000000E-03 0.  1.
          2   -1    0    0  501    0 -0.00000000000E+00 -0.00000000000E+00 -0.84927419297E+01  0.84927423125E+01  0.25500000000E-02 0.  1.
         11    1    1    2    0    0  0.57764335344E+02 -0.57027857279E+02  0.30081848783E+03  0.31157769106E+03  0.51100000000E-03 0.  1.
         22    1    1    2    0    0 -0.30971461726E+01  0.18310545285E+02  0.63481144673E+02  0.66141697227E+02  0.00000000000E+00 0.  1.
          2    1    1    2  501    0 -0.54667189172E+02  0.38717311994E+02  0.62747590779E+03  0.63104163625E+03  0.25500000000E-02 0.  1.
<mgrwt>
<rscale>  0 0.36139285E+02</rscale>
<asrwt>0</asrwt>
<pdfrwt beam="1">  1       11 0.10000000E+01 0.70328709E+02</pdfrwt>
<pdfrwt beam="2">  1        2 0.13069262E-02 0.36139285E+02</pdfrwt>
<totfact> 0.90924886E+03</totfact>
</mgrwt>
</event>
<event>
 5    1  0.2675386E-003  0.2606883E+03  0.7818608E-02  0.1106730E+00
         11   -1    0    0    0    0  0.00000000000E+00  0.00000000000E+00  0.99983320107E+03  0.99983320107E+03  0.51100000000E-03 0. -1.
          2   -1    0    0  501    0 -0.00000000000E+00 -0.00000000000E+00 -0.11613447182E+04  0.11613447182E+04  0.25500000000E-02 0. -1.
         11    1    1    2    0    0 -0.12024525046E+03  0.20990460139E+03  0.97016215271E+03  0.99986672336E+03  0.51100000000E-03 0. -1.
         22    1    1    2    0    0  0.75078597815E+02 -0.50249074507E+02 -0.50652285464E+03  0.51451644057E+03  0.00000000000E+00 0. -1.
          2    1    1    2  501    0  0.45166652645E+02 -0.15965552688E+03 -0.62515081516E+03  0.64679475530E+03  0.25500000000E-02 0. -1.
<mgrwt>
<rscale>  0 0.26068832E+03</rscale>
<asrwt>0</asrwt>
<pdfrwt beam="1">  1       11 0.10000000E+01 0.24190672E+03</pdfrwt>
<pdfrwt beam="2">  1        2 0.17863861E+00 0.26068832E+03</pdfrwt>
<totfact> 0.26401480E+01</totfact>
</mgrwt>
</event>
<event>
 5    1  0.2675386E-003  0.1010172E+03  0.7818608E-02  0.1278171E+00
         11   -1    0    0    0    0  0.00000000000E+00  0.00000000000E+00  0.10000780589E+04  0.10000780589E+04  0.51100000000E-03 0. -1.
          2   -1    0    0  501    0 -0.00000000000E+00 -0.00000000000E+00 -0.19790173193E+02  0.19790173357E+02  0.25500000000E-02 0. -1.
         11    1    1    2    0    0 -0.26044463378E+02  0.98888259080E+02  0.14720888020E+03  0.17924189316E+03  0.51100000000E-03 0. -1.
         22    1    1    2    0    0 -0.85391232730E+01 -0.98480056500E+01  0.47311222017E+02  0.49073939829E+02  0.00000000000E+00 0. -1.
          2    1    1    2  501    0  0.34583586651E+02 -0.89040253430E+02  0.78576778350E+03  0.79155239927E+03  0.25500000000E-02 0. -1.
<mgrwt>
<rscale>  0 0.10101725E+03</rscale>
<asrwt>0</asrwt>
<pdfrwt beam="1">  1       11 0.10000000E+01 0.13034563E+02</pdfrwt>
<pdfrwt beam="2">  1        2 0.30448796E-02 0.10101725E+03</pdfrwt>
<totfact> 0.34285467E+03</totfact>
</mgrwt>
</event>
<event>
 5    1  0.2675386E-003  0.1729234E+03  0.7818608E-02  0.1174833E+00
         11   -1    0    0    0    0  0.00000000000E+00  0.00000000000E+00  0.10001837048E+04  0.10001837048E+04  0.51100000000E-03 0. -1.
          2   -1    0    0  501    0 -0.00000000000E+00 -0.00000000000E+00 -0.27743677161E+02  0.27743677278E+02  0.25500000000E-02 0. -1.
         11    1    1    2    0    0 -0.36258856247E+02  0.15569002207E+03  0.44266866686E+03  0.47064810235E+03  0.51100000000E-03 0. -1.
         22    1    1    2    0    0 -0.17693026101E+02 -0.46530029545E+02  0.12357715195E+03  0.13322687156E+03  0.00000000000E+00 0. -1.
          2    1    1    2  501    0  0.53951882348E+02 -0.10915999252E+03  0.40619420882E+03  0.42405240815E+03  0.25500000000E-02 0. -1.
<mgrwt>
<rscale>  0 0.17292340E+03</rscale>
<asrwt>0</asrwt>
<pdfrwt beam="1">  1       11 0.10000000E+01 0.15985654E+03</pdfrwt>
<pdfrwt beam="2">  1        2 0.42690420E-02 0.17292340E+03</pdfrwt>
<totfact> 0.23022660E+03</totfact>
</mgrwt>
</event>
<event>
 5    1  0.2675386E-003  0.1872579E+03  0.7818608E-02  0.1160958E+00
         11   -1    0    0    0    0  0.00000000000E+00  0.00000000000E+00  0.10001675220E+04  0.10001675220E+04  0.51100000000E-03 0.  1.
          2   -1    0    0  501    0 -0.00000000000E+00 -0.00000000000E+00 -0.92964840180E+03  0.92964840180E+03  0.25500000000E-02 0.  1.
         11    1    1    2    0    0 -0.17144929490E+03 -0.63261711425E+02  0.98222345039E+03  0.99907948200E+03  0.51100000000E-03 0.  1.
         22    1    1    2    0    0  0.69161223933E+02  0.43163614882E+02 -0.45912000993E+03  0.46630200092E+03  0.00000000000E+00 0.  1.
          2    1    1    2  501    0  0.10228807097E+03  0.20098096543E+02 -0.45258432025E+03  0.46443444090E+03  0.25500000000E-02 0.  1.
<mgrwt>
<rscale>  0 0.18725795E+03</rscale>
<asrwt>0</asrwt>
<pdfrwt beam="1">  1       11 0.10000000E+01 0.18274820E+03</pdfrwt>
<pdfrwt beam="2">  1        2 0.14304679E+00 0.18725795E+03</pdfrwt>
<totfact> 0.36940606E+01</totfact>
</mgrwt>
</event>
<event>
 5    1  0.2675386E-003  0.3761660E+03  0.7818608E-02  0.1052360E+00
         11   -1    0    0    0    0  0.00000000000E+00  0.00000000000E+00  0.10002069610E+04  0.10002069610E+04  0.51100000000E-03 0. -1.
         -2   -1    0    0    0  501 -0.00000000000E+00 -0.00000000000E+00 -0.32126940798E+03  0.32126940799E+03  0.25500000000E-02 0. -1.
         11    1    1    2    0    0 -0.20849054638E+03 -0.31103535503E+03  0.83430980526E+03  0.91448573043E+03  0.51100000000E-03 0. -1.
         22    1    1    2    0    0  0.20772687314E+01  0.14222473051E+02 -0.31162789077E+01  0.14707310403E+02  0.00000000000E+00 0. -1.
         -2    1    1    2    0  501  0.20641327764E+03  0.29681288198E+03 -0.15225597336E+03  0.39228332813E+03  0.25500000000E-02 0. -1.
<mgrwt>
<rscale>  0 0.37616598E+03</rscale>
<asrwt>0</asrwt>
<pdfrwt beam="1">  1       11 0.10000000E+01 0.37444799E+03</pdfrwt>
<pdfrwt beam="2">  1       -2 0.49436291E-01 0.37616598E+03</pdfrwt>
<totfact> 0.31749560E+01</totfact>
</mgrwt>
</event>
<event>
 5    1  0.2675386E-003  0.1088608E+03  0.7818608E-02  0.1262694E+00
         11   -1    0    0    0    0  0.00000000000E+00  0.00000000000E+00  0.10003166627E+04  0.10003166627E+04  0.51100000000E-03 0.  1.
         -2   -1    0    0    0  501 -0.00000000000E+00 -0.00000000000E+00 -0.11567092593E+02  0.11567092874E+02  0.25500000000E-02 0. -1.
         11    1    1    2    0    0 -0.59569396548E+02  0.87375526269E+02  0.52254408282E+03  0.53313723758E+03  0.51100000000E-03 0.  1.
         22    1    1    2    0    0  0.86811715333E+01 -0.55490294811E+01  0.23240480047E+02  0.25421927153E+02  0.00000000000E+00 0. -1.
         -2    1    1    2    0  501  0.50888225015E+02 -0.81826496788E+02  0.44296500725E+03  0.45332459086E+03  0.25500000000E-02 0. -1.
<mgrwt>
<rscale>  0 0.10886079E+03</rscale>
<asrwt>0</asrwt>
<pdfrwt beam="1">  1       11 0.10000000E+01 0.10574968E+03</pdfrwt>
<pdfrwt beam="2">  1       -2 0.17801162E-02 0.10886079E+03</pdfrwt>
<totfact> 0.65597032E+03</totfact>
</mgrwt>
</event>
<event>
 5    1  0.2675386E-003  0.1923184E+03  0.7818608E-02  0.1495214E+00
         11   -1    0    0    0    0  0.00000000000E+00  0.00000000000E+00  0.10002973103E+04  0.10002973103E+04  0.51100000000E-03 0. -1.
         -2   -1    0    0    0  501 -0.00000000000E+00 -0.00000000000E+00 -0.31817352213E+03  0.31817352214E+03  0.25500000000E-02 0.  1.
         11    1    1    2    0    0  0.19365659294E+03 -0.18948146000E+02  0.95330695138E+03  0.97296251304E+03  0.51100000000E-03 0. -1.
         22    1    1    2    0    0 -0.15200026092E+03  0.15226258960E+02 -0.13782693898E+03  0.20574786364E+03  0.00000000000E+00 0.  1.
         -2    1    1    2    0  501 -0.41656332025E+02  0.37218870398E+01 -0.13335622424E+03  0.13976045575E+03  0.25500000000E-02 0.  1.
<mgrwt>
<rscale>  0 0.41822272E+02</rscale>
<asrwt>0</asrwt>
<pdfrwt beam="1">  1       11 0.10000000E+01 0.19231841E+03</pdfrwt>
<pdfrwt beam="2">  1       -2 0.48964325E-01 0.41822272E+02</pdfrwt>
<totfact> 0.32314445E+01</totfact>
</mgrwt>
</event>
<event>
 5    1  0.2675386E-003  0.1155902E+03  0.7818608E-02  0.1250554E+00
         11   -1    0    0    0    0  0.00000000000E+00  0.00000000000E+00  0.10002127876E+04  0.10002127876E+04  0.51100000000E-03 0. -1.
          2   -1    0    0  501    0 -0.00000000000E+00 -0.00000000000E+00 -0.51174615952E+02  0.51174616015E+02  0.25500000000E-02 0. -1.
         11    1    1    2    0    0 -0.34227366822E+02  0.10554602407E+03  0.34930606380E+03  0.36650539156E+03  0.51100000000E-03 0. -1.
         22    1    1    2    0    0 -0.90915324968E+02 -0.80939475770E+02  0.70856098305E+02  0.14084524031E+03  0.00000000000E+00 0. -1.
          2    1    1    2  501    0  0.12514269179E+03 -0.24606548298E+02  0.52887600952E+03  0.54403677172E+03  0.25500000000E-02 0. -1.
<mgrwt>
<rscale>  0 0.11559025E+03</rscale>
<asrwt>0</asrwt>
<pdfrwt beam="1">  1       11 0.10000000E+01 0.11095709E+03</pdfrwt>
<pdfrwt beam="2">  1        2 0.78746929E-02 0.11559025E+03</pdfrwt>
<totfact> 0.10126217E+03</totfact>
</mgrwt>
</event>
<event>
 5    1  0.2675386E-003  0.1605615E+03  0.7818608E-02  0.1377429E+00
         11   -1    0    0    0    0  0.00000000000E+00  0.00000000000E+00  0.99976632791E+03  0.99976632791E+03  0.51100000000E-03 0.  1.
          2   -1    0    0  501    0 -0.00000000000E+00 -0.00000000000E+00 -0.91870419306E+02  0.91870419341E+02  0.25500000000E-02 0.  1.
         11    1    1    2    0    0 -0.23312733316E+02  0.16544391534E+03  0.88433282150E+03  0.89997761742E+03  0.51100000000E-03 0.  1.
         22    1    1    2    0    0  0.28677516256E+02 -0.10052064287E+03 -0.28409010944E+02  0.10832299610E+03  0.00000000000E+00 0.  1.
          2    1    1    2  501    0 -0.53647829396E+01 -0.64923272477E+02  0.51972098048E+02  0.83336133742E+02  0.25500000000E-02 0.  1.
<mgrwt>
<rscale>  0 0.65144549E+02</rscale>
<asrwt>0</asrwt>
<pdfrwt beam="1">  1       11 0.10000000E+01 0.16056148E+03</pdfrwt>
<pdfrwt beam="2">  1        2 0.14130608E-01 0.65144549E+02</pdfrwt>
<totfact> 0.48380858E+02</totfact>
</mgrwt>
</event>
<event>
 5    1  0.3101135E-003  0.1989701E+03  0.7818608E-02  0.1150611E+00
         11   -1    0    0    0    0  0.00000000000E+00  0.00000000000E+00  0.10004509114E+04  0.10004509114E+04  0.51100000000E-03 0.  1.
          2   -1    0    0  501    0 -0.00000000000E+00 -0.00000000000E+00 -0.91921771774E+03  0.91921771774E+03  0.25500000000E-02 0.  1.
         11    1    1    2    0    0  0.16550874504E+03  0.10657763502E+03  0.97977782667E+03  0.99935805726E+03  0.51100000000E-03 0.  1.
         22    1    1    2    0    0 -0.11387850947E+02 -0.15207995498E+02 -0.64585837792E+02  0.67322334478E+02  0.00000000000E+00 0.  1.
          2    1    1    2  501    0 -0.15412089410E+03 -0.91369639517E+02 -0.83395879522E+03  0.85298823740E+03  0.25500000000E-02 0.  1.
<mgrwt>
<rscale>  0 0.19897008E+03</rscale>
<asrwt>0</asrwt>
<pdfrwt beam="1">  1       11 0.10000000E+01 0.19685512E+03</pdfrwt>
<pdfrwt beam="2">  1        2 0.14148187E+00 0.19897008E+03</pdfrwt>
<totfact> 0.37390035E+01</totfact>
</mgrwt>
</event>
<event>
 5    1  0.2675386E-003  0.1606868E+03  0.7818608E-02  0.1187924E+00
         11   -1    0    0    0    0  0.00000000000E+00  0.00000000000E+00  0.10004239464E+04  0.10004239464E+04  0.51100000000E-03 0.  1.
          2   -1    0    0  501    0 -0.00000000000E+00 -0.00000000000E+00 -0.63531474598E+02  0.63531474649E+02  0.25500000000E-02 0.  1.
         11    1    1    2    0    0  0.15659363960E+03  0.40196993726E+01  0.87947818355E+03  0.89331942847E+03  0.51100000000E-03 0.  1.
         22    1    1    2    0    0 -0.70918909466E+02 -0.18350196139E+02  0.19146931581E+02  0.75715430443E+02  0.00000000000E+00 0. -1.
          2    1    1    2  501    0 -0.85674730134E+02  0.14330496767E+02  0.38267356659E+02  0.94920562120E+02  0.25500000000E-02 0.  1.
<mgrwt>
<rscale>  0 0.16068678E+03</rscale>
<asrwt>0</asrwt>
<pdfrwt beam="1">  1       11 0.10000000E+01 0.15664522E+03</pdfrwt>
<pdfrwt beam="2">  1        2 0.97782164E-02 0.16068678E+03</pdfrwt>
<totfact> 0.78939055E+02</totfact>
</mgrwt>
</event>
<event>
 5    1  0.2675386E-003  0.5724859E+03  0.7818608E-02  0.1047940E+00
         11   -1    0    0    0    0  0.00000000000E+00  0.00000000000E+00  0.10002564720E+04  0.10002564720E+04  0.51100000000E-03 0.  1.
          2   -1    0    0  501    0 -0.00000000000E+00 -0.00000000000E+00 -0.79511643245E+03  0.79511643245E+03  0.25500000000E-02 0.  1.
         11    1    1    2    0    0  0.58047300212E+03 -0.44267180500E+03  0.31876124195E+03  0.79656510249E+03  0.51100000000E-03 0.  1.
         22    1    1    2    0    0 -0.24286885004E+03  0.10156893730E+03 -0.37046767480E+03  0.45447532982E+03  0.00000000000E+00 0.  1.
          2    1    1    2  501    0 -0.33760415208E+03  0.34110286770E+03  0.25684647242E+03  0.54433247217E+03  0.25500000000E-02 0.  1.
<mgrwt>
<rscale>  0 0.38821113E+03</rscale>
<asrwt>0</asrwt>
<pdfrwt beam="1">  1       11 0.10000000E+01 0.57248588E+03</pdfrwt>
<pdfrwt beam="2">  1        2 0.12235697E+00 0.38821113E+03</pdfrwt>
<totfact> 0.44085733E+01</totfact>
</mgrwt>
</event>
<event>
 5    1  0.2675386E-003  0.2316541E+03  0.7818608E-02  0.1390890E+00
         11   -1    0    0    0    0  0.00000000000E+00  0.00000000000E+00  0.10002605396E+04  0.10002605396E+04  0.51100000000E-03 0.  1.
          2   -1    0    0  501    0 -0.00000000000E+00 -0.00000000000E+00 -0.75491361459E+02  0.75491361502E+02  0.25500000000E-02 0.  1.
         11    1    1    2    0    0  0.23846016866E+03 -0.41810903757E+02  0.21737969459E+03  0.32536953657E+03  0.51100000000E-03 0.  1.
         22    1    1    2    0    0 -0.15355018255E+02 -0.58339620096E+01  0.18698857987E+02  0.24888933049E+02  0.00000000000E+00 0. -1.
          2    1    1    2  501    0 -0.22310515041E+03  0.47644865766E+02  0.68869062556E+03  0.72549343147E+03  0.25500000000E-02 0.  1.
<mgrwt>
<rscale>  0 0.61685785E+02</rscale>
<asrwt>0</asrwt>
<pdfrwt beam="1">  1       11 0.10000000E+01 0.23165412E+03</pdfrwt>
<pdfrwt beam="2">  1        2 0.11617081E-01 0.61685785E+02</pdfrwt>
<totfact> 0.60576272E+02</totfact>
</mgrwt>
</event>
<event>
 5    1  0.2675386E-003  0.1381948E+03  0.7818608E-02  0.1408728E+00
         11   -1    0    0    0    0  0.00000000000E+00  0.00000000000E+00  0.10001373294E+04  0.10001373294E+04  0.51100000000E-03 0.  1.
          2   -1    0    0  501    0 -0.00000000000E+00 -0.00000000000E+00 -0.36766611196E+02  0.36766611284E+02  0.25500000000E-02 0.  1.
         11    1    1    2    0    0 -0.11145047065E+03 -0.73329351587E+02  0.58421035060E+03  0.59924964327E+03  0.51100000000E-03 0.  1.
         22    1    1    2    0    0  0.91942561622E+02  0.12739620676E+03  0.31148358965E+03  0.34886280220E+03  0.00000000000E+00 0.  1.
          2    1    1    2  501    0  0.19507909023E+02 -0.54066855177E+02  0.67676777981E+02  0.88791495244E+02  0.25500000000E-02 0.  1.
<mgrwt>
<rscale>  0 0.57478547E+02</rscale>
<asrwt>0</asrwt>
<pdfrwt beam="1">  1       11 0.10000000E+01 0.13819481E+03</pdfrwt>
<pdfrwt beam="2">  1        2 0.56571784E-02 0.57478547E+02</pdfrwt>
<totfact> 0.14486207E+03</totfact>
</mgrwt>
</event>
<event>
 5    1  0.2675386E-003  0.1873786E+03  0.7818608E-02  0.1160847E+00
         11   -1    0    0    0    0  0.00000000000E+00  0.00000000000E+00  0.10001976728E+04  0.10001976728E+04  0.51100000000E-03 0. -1.
          2   -1    0    0  501    0 -0.00000000000E+00 -0.00000000000E+00 -0.54608343869E+02  0.54608343928E+02  0.25500000000E-02 0. -1.
         11    1    1    2    0    0  0.12419147559E+03  0.12877246239E+03  0.79365878183E+03  0.81357245016E+03  0.51100000000E-03 0. -1.
         22    1    1    2    0    0  0.10278903268E+01 -0.19806359084E+02  0.75041891885E+01  0.21205218086E+02  0.00000000000E+00 0. -1.
          2    1    1    2  501    0 -0.12521936592E+03 -0.10896610331E+03  0.14442635792E+03  0.22002834849E+03  0.25500000000E-02 0. -1.
<mgrwt>
<rscale>  0 0.18737861E+03</rscale>
<asrwt>0</asrwt>
<pdfrwt beam="1">  1       11 0.10000000E+01 0.17890184E+03</pdfrwt>
<pdfrwt beam="2">  1        2 0.84029441E-02 0.18737861E+03</pdfrwt>
<totfact> 0.96208088E+02</totfact>
</mgrwt>
</event>
<event>
 5    1  0.2675386E-003  0.6866716E+02  0.7818608E-02  0.1364685E+00
         11   -1    0    0    0    0  0.00000000000E+00  0.00000000000E+00  0.10002204863E+04  0.10002204863E+04  0.51100000000E-03 0. -1.
          2   -1    0    0  501    0 -0.00000000000E+00 -0.00000000000E+00 -0.11962842725E+02  0.11962842997E+02  0.25500000000E-02 0. -1.
         11    1    1    2    0    0  0.66741641800E+02 -0.13296634962E+02  0.17338608256E+03  0.18626320323E+03  0.51100000000E-03 0. -1.
         22    1    1    2    0    0 -0.12704359729E+02 -0.49897172039E+02  0.30809717737E+03  0.31236997173E+03  0.00000000000E+00 0. -1.
          2    1    1    2  501    0 -0.54037282072E+02  0.63193807001E+02  0.50677438359E+03  0.51355015428E+03  0.25500000000E-02 0. -1.
<mgrwt>
<rscale>  0 0.68667164E+02</rscale>
<asrwt>0</asrwt>
<pdfrwt beam="1">  1       11 0.10000000E+01 0.51489111E+02</pdfrwt>
<pdfrwt beam="2">  1        2 0.18408431E-02 0.68667164E+02</pdfrwt>
<totfact> 0.64006842E+03</totfact>
</mgrwt>
</event>
<event>
 5    1  0.2675386E-003  0.2023381E+03  0.7818608E-02  0.1147781E+00
         11   -1    0    0    0    0  0.00000000000E+00  0.00000000000E+00  0.10003014512E+04  0.10003014512E+04  0.51100000000E-03 0. -1.
          2   -1    0    0  501    0 -0.00000000000E+00 -0.00000000000E+00 -0.10515025375E+03  0.10515025378E+03  0.25500000000E-02 0.  1.
         11    1    1    2    0    0  0.19517530318E+03 -0.26870279682E+01  0.88128091787E+03  0.90263872911E+03  0.51100000000E-03 0. -1.
         22    1    1    2    0    0 -0.92360079512E+02 -0.37289285054E+01 -0.19612248206E+02  0.94493012837E+02  0.00000000000E+00 0. -1.
          2    1    1    2  501    0 -0.10281522366E+03  0.64159564735E+01  0.33482527773E+02  0.10831996301E+03  0.25500000000E-02 0.  1.
<mgrwt>
<rscale>  0 0.20233813E+03</rscale>
<asrwt>0</asrwt>
<pdfrwt beam="1">  1       11 0.10000000E+01 0.19519380E+03</pdfrwt>
<pdfrwt beam="2">  1        2 0.16181838E-01 0.20233813E+03</pdfrwt>
<totfact> 0.43471139E+02</totfact>
</mgrwt>
</event>
<event>
 5    1  0.2675386E-003  0.1386661E+03  0.7818608E-02  0.1215135E+00
         11   -1    0    0    0    0  0.00000000000E+00  0.00000000000E+00  0.10000953221E+04  0.10000953221E+04  0.51100000000E-03 0. -1.
          2   -1    0    0  501    0 -0.00000000000E+00 -0.00000000000E+00 -0.29393208535E+02  0.29393208645E+02  0.25500000000E-02 0. -1.
         11    1    1    2    0    0 -0.11716559540E+03  0.67097414168E+02  0.79133587878E+03  0.80277164423E+03  0.51100000000E-03 0. -1.
         22    1    1    2    0    0  0.76379721283E+01 -0.13876597905E+02  0.12692823115E+02  0.20297939459E+02  0.00000000000E+00 0.  1.
          2    1    1    2  501    0  0.10952762327E+03 -0.53220816264E+02  0.16667341171E+03  0.20641894709E+03  0.25500000000E-02 0. -1.
<mgrwt>
<rscale>  0 0.13866615E+03</rscale>
<asrwt>0</asrwt>
<pdfrwt beam="1">  1       11 0.10000000E+01 0.13501792E+03</pdfrwt>
<pdfrwt beam="2">  1        2 0.45224630E-02 0.13866615E+03</pdfrwt>
<totfact> 0.20939476E+03</totfact>
</mgrwt>
</event>
<event>
 5    1  0.2675386E-003  0.1045407E+03  0.7818608E-02  0.1271027E+00
         11   -1    0    0    0    0  0.00000000000E+00  0.00000000000E+00  0.10002000542E+04  0.10002000542E+04  0.51100000000E-03 0.  1.
          2   -1    0    0  501    0 -0.00000000000E+00 -0.00000000000E+00 -0.10658303264E+02  0.10658303569E+02  0.25500000000E-02 0. -1.
         11    1    1    2    0    0  0.82414279790E+02  0.51685879402E+02  0.58466956635E+03  0.59270738603E+03  0.51100000000E-03 0.  1.
         22    1    1    2    0    0 -0.20309116868E+02  0.22358040594E+01  0.53188175002E+02  0.56977548279E+02  0.00000000000E+00 0. -1.
          2    1    1    2  501    0 -0.62105162921E+02 -0.53921683462E+02  0.35168400959E+03  0.36117342346E+03  0.25500000000E-02 0. -1.
<mgrwt>
<rscale>  0 0.10454066E+03</rscale>
<asrwt>0</asrwt>
<pdfrwt beam="1">  1       11 0.10000000E+01 0.97280747E+02</pdfrwt>
<pdfrwt beam="2">  1        2 0.16400670E-02 0.10454066E+03</pdfrwt>
<totfact> 0.79272049E+03</totfact>
</mgrwt>
</event>
<event>
 5    1  0.2675386E-003  0.2244510E+03  0.7818608E-02  0.1130607E+00
         11   -1    0    0    0    0  0.00000000000E+00  0.00000000000E+00  0.10003806807E+04  0.10003806807E+04  0.51100000000E-03 0. -1.
          2   -1    0    0  501    0 -0.00000000000E+00 -0.00000000000E+00 -0.15905038742E+03  0.15905038745E+03  0.25500000000E-02 0. -1.
         11    1    1    2    0    0 -0.21807919487E+03 -0.24090783320E+02  0.90088151646E+03  0.92721432678E+03  0.51100000000E-03 0. -1.
         22    1    1    2    0    0  0.14740147797E+03  0.74559264444E+01 -0.18332908570E+02  0.14872418124E+03  0.00000000000E+00 0.  1.
          2    1    1    2  501    0  0.70677716896E+02  0.16634856876E+02 -0.41218314626E+02  0.83492560124E+02  0.25500000000E-02 0. -1.
<mgrwt>
<rscale>  0 0.22445103E+03</rscale>
<asrwt>0</asrwt>
<pdfrwt beam="1">  1       11 0.10000000E+01 0.21940579E+03</pdfrwt>
<pdfrwt beam="2">  1        2 0.24478605E-01 0.22445103E+03</pdfrwt>
<totfact> 0.27129007E+02</totfact>
</mgrwt>
</event>
<event>
 5    1  0.2675386E-003  0.8137106E+02  0.7818608E-02  0.1482677E+00
         11   -1    0    0    0    0  0.00000000000E+00  0.00000000000E+00  0.10004639946E+04  0.10004639946E+04  0.51100000000E-03 0. -1.
         -2   -1    0    0    0  501 -0.00000000000E+00 -0.00000000000E+00 -0.11536350973E+02  0.11536351255E+02  0.25500000000E-02 0. -1.
         11    1    1    2    0    0  0.69788696690E+02 -0.70451639324E+02  0.53467787643E+03  0.54379621846E+03  0.51100000000E-03 0. -1.
         22    1    1    2    0    0 -0.63441462300E+02  0.27223300916E+02  0.30335021351E+03  0.31110654010E+03  0.00000000000E+00 0. -1.
         -2    1    1    2    0  501 -0.63472343899E+01  0.43228338408E+02  0.15089955365E+03  0.15709758727E+03  0.25500000000E-02 0. -1.
<mgrwt>
<rscale>  0 0.43691837E+02</rscale>
<asrwt>0</asrwt>
<pdfrwt beam="1">  1       11 0.10000000E+01 0.81371060E+02</pdfrwt>
<pdfrwt beam="2">  1       -2 0.17756467E-02 0.43691837E+02</pdfrwt>
<totfact> 0.57441146E+03</totfact>
</mgrwt>
</event>
<event>
 5    1  0.2675386E-003  0.8051348E+02  0.7818608E-02  0.1392157E+00
         11   -1    0    0    0    0  0.00000000000E+00  0.00000000000E+00  0.10004691964E+04  0.10004691964E+04  0.51100000000E-03 0.  1.
          2   -1    0    0  501    0 -0.00000000000E+00 -0.00000000000E+00 -0.13977821793E+02  0.13977822026E+02  0.25500000000E-02 0.  1.
         11    1    1    2    0    0  0.10386232534E+03  0.20610963475E+02  0.48081018751E+03  0.49233183003E+03  0.51100000000E-03 0.  1.
         22    1    1    2    0    0 -0.44316563712E+02  0.14990909119E+02  0.98254094004E+02  0.10882349086E+03  0.00000000000E+00 0. -1.
          2    1    1    2  501    0 -0.59545761630E+02 -0.35601872594E+02  0.40742709306E+03  0.41329169750E+03  0.25500000000E-02 0.  1.
<mgrwt>
<rscale>  0 0.61373376E+02</rscale>
<asrwt>0</asrwt>
<pdfrwt beam="1">  1       11 0.10000000E+01 0.80513480E+02</pdfrwt>
<pdfrwt beam="2">  1        2 0.21514431E-02 0.61373376E+02</pdfrwt>
<totfact> 0.51174575E+03</totfact>
</mgrwt>
</event>
<event>
 5    1  0.2675386E-003  0.1989311E+03  0.7818608E-02  0.1150644E+00
         11   -1    0    0    0    0  0.00000000000E+00  0.00000000000E+00  0.10003637046E+04  0.10003637046E+04  0.51100000000E-03 0. -1.
          2   -1    0    0  501    0 -0.00000000000E+00 -0.00000000000E+00 -0.36452740629E+02  0.36452740718E+02  0.25500000000E-02 0. -1.
         11    1    1    2    0    0  0.80685402702E+02  0.16399646929E+03  0.47915441455E+03  0.51282933724E+03  0.51100000000E-03 0. -1.
         22    1    1    2    0    0 -0.93050581121E+02 -0.12289693497E+03  0.40628439231E+03  0.43454467516E+03  0.00000000000E+00 0.  1.
          2    1    1    2  501    0  0.12365178419E+02 -0.41099534318E+02  0.78472157084E+02  0.89442432896E+02  0.25500000000E-02 0. -1.
<mgrwt>
<rscale>  0 0.19893109E+03</rscale>
<asrwt>0</asrwt>
<pdfrwt beam="1">  1       11 0.10000000E+01 0.18277028E+03</pdfrwt>
<pdfrwt beam="2">  1        2 0.56101535E-02 0.19893109E+03</pdfrwt>
<totfact> 0.16232870E+03</totfact>
</mgrwt>
</event>
<event>
 5    1  0.2675386E-003  0.2548685E+03  0.7818608E-02  0.1110266E+00
         11   -1    0    0    0    0  0.00000000000E+00  0.00000000000E+00  0.10000694036E+04  0.10000694036E+04  0.51100000000E-03 0. -1.
          2   -1    0    0  501    0 -0.00000000000E+00 -0.00000000000E+00 -0.73243499980E+02  0.73243500024E+02  0.25500000000E-02 0. -1.
         11    1    1    2    0    0  0.23830475526E+03  0.64249988524E+02  0.65850585724E+03  0.70324048620E+03  0.51100000000E-03 0. -1.
         22    1    1    2    0    0 -0.39952256786E+02 -0.31405825900E+02  0.33153909844E+02  0.60676935163E+02  0.00000000000E+00 0. -1.
          2    1    1    2  501    0 -0.19835249848E+03 -0.32844162624E+02  0.23516613657E+03  0.30939548230E+03  0.25500000000E-02 0. -1.
<mgrwt>
<rscale>  0 0.25486849E+03</rscale>
<asrwt>0</asrwt>
<pdfrwt beam="1">  1       11 0.10000000E+01 0.24681414E+03</pdfrwt>
<pdfrwt beam="2">  1        2 0.11269013E-01 0.25486849E+03</pdfrwt>
<totfact> 0.67784751E+02</totfact>
</mgrwt>
</event>
<event>
 5    1  0.2675386E-003  0.2243037E+03  0.7818608E-02  0.1291261E+00
         11   -1    0    0    0    0  0.00000000000E+00  0.00000000000E+00  0.10003862005E+04  0.10003862005E+04  0.51100000000E-03 0. -1.
          2   -1    0    0  501    0 -0.00000000000E+00 -0.00000000000E+00 -0.80886067944E+02  0.80886067984E+02  0.25500000000E-02 0. -1.
         11    1    1    2    0    0 -0.23702919657E+03  0.88358696721E+02  0.28301882070E+03  0.37959155968E+03  0.51100000000E-03 0. -1.
         22    1    1    2    0    0  0.39758374948E+02 -0.59668269216E+01  0.12515008754E+02  0.42106494108E+02  0.00000000000E+00 0.  1.
          2    1    1    2  501    0  0.19727082162E+03 -0.82391869800E+02  0.62396630315E+03  0.65957421474E+03  0.25500000000E-02 0. -1.
<mgrwt>
<rscale>  0 0.94962179E+02</rscale>
<asrwt>0</asrwt>
<pdfrwt beam="1">  1       11 0.10000000E+01 0.22430366E+03</pdfrwt>
<pdfrwt beam="2">  1        2 0.12448816E-01 0.94962179E+02</pdfrwt>
<totfact> 0.57268866E+02</totfact>
</mgrwt>
</event>
<event>
 5    1  0.2675386E-003  0.1541946E+03  0.7818608E-02  0.1479813E+00
         11   -1    0    0    0    0  0.00000000000E+00  0.00000000000E+00  0.99992119808E+03  0.99992119808E+03  0.51100000000E-03 0. -1.
          2   -1    0    0  501    0 -0.00000000000E+00 -0.00000000000E+00 -0.10359350049E+03  0.10359350052E+03  0.25500000000E-02 0. -1.
         11    1    1    2    0    0  0.54338583843E+02  0.14400165049E+03  0.91623059548E+03  0.92906816818E+03  0.51100000000E-03 0. -1.
         22    1    1    2    0    0  0.12621782253E+02 -0.52913457184E+00 -0.94436334551E+01  0.15772494523E+02  0.00000000000E+00 0. -1.
          2    1    1    2  501    0 -0.66960366096E+02 -0.14347251592E+03 -0.10459264428E+02  0.15867403590E+03  0.25500000000E-02 0. -1.
<mgrwt>
<rscale>  0 0.44135246E+02</rscale>
<asrwt>0</asrwt>
<pdfrwt beam="1">  1       11 0.10000000E+01 0.15419459E+03</pdfrwt>
<pdfrwt beam="2">  1        2 0.15936205E-01 0.44135246E+02</pdfrwt>
<totfact> 0.41287266E+02</totfact>
</mgrwt>
</event>
<event>
 5    1  0.2675386E-003  0.1086601E+03  0.7818608E-02  0.1263071E+00
         11   -1    0    0    0    0  0.00000000000E+00  0.00000000000E+00  0.10001984730E+04  0.10001984730E+04  0.51100000000E-03 0. -1.
         -2   -1    0    0    0  501 -0.00000000000E+00 -0.00000000000E+00 -0.11840544587E+02  0.11840544861E+02  0.25500000000E-02 0. -1.
         11    1    1    2    0    0 -0.10184549535E+03  0.26694255880E+02  0.57959753262E+03  0.58908266656E+03  0.51100000000E-03 0. -1.
         22    1    1    2    0    0  0.35347678255E+02 -0.20293160829E+02  0.18497318058E+03  0.18941052840E+03  0.00000000000E+00 0. -1.
         -2    1    1    2    0  501  0.66497817097E+02 -0.64010950510E+01  0.22378721521E+03  0.23354582290E+03  0.25500000000E-02 0. -1.
<mgrwt>
<rscale>  0 0.10866008E+03</rscale>
<asrwt>0</asrwt>
<pdfrwt beam="1">  1       11 0.10000000E+01 0.10528575E+03</pdfrwt>
<pdfrwt beam="2">  1       -2 0.18219838E-02 0.10866008E+03</pdfrwt>
<totfact> 0.63422474E+03</totfact>
</mgrwt>
</event>
<event>
 5    1  0.2675386E-003  0.2054509E+03  0.7818608E-02  0.1604607E+00
         11   -1    0    0    0    0  0.00000000000E+00  0.00000000000E+00  0.10002358138E+04  0.10002358138E+04  0.51100000000E-03 0. -1.
          2   -1    0    0  501    0 -0.00000000000E+00 -0.00000000000E+00 -0.35502525165E+03  0.35502525166E+03  0.25500000000E-02 0. -1.
         11    1    1    2    0    0 -0.18679324211E+03 -0.87058357894E+02  0.93550558888E+03  0.95793610423E+03  0.51100000000E-03 0. -1.
         22    1    1    2    0    0  0.17822491139E+03  0.58915356211E+02 -0.30965563938E+03  0.36210737805E+03  0.00000000000E+00 0. -1.
          2    1    1    2  501    0  0.85683307135E+01  0.28143001683E+02  0.19360612642E+02  0.35217583156E+02  0.25500000000E-02 0. -1.
<mgrwt>
<rscale>  0 0.29418444E+02</rscale>
<asrwt>0</asrwt>
<pdfrwt beam="1">  1       11 0.10000000E+01 0.20545086E+03</pdfrwt>
<pdfrwt beam="2">  1        2 0.54632148E-01 0.29418444E+02</pdfrwt>
<totfact> 0.11273183E+02</totfact>
</mgrwt>
</event>
<event>
 5    1  0.2675386E-003  0.1466224E+03  0.7818608E-02  0.1204686E+00
         11   -1    0    0    0    0  0.00000000000E+00  0.00000000000E+00  0.10001394220E+04  0.10001394220E+04  0.51100000000E-03 0. -1.
          2   -1    0    0  501    0 -0.00000000000E+00 -0.00000000000E+00 -0.23496705815E+02  0.23496705954E+02  0.25500000000E-02 0. -1.
         11    1    1    2    0    0  0.39615897347E+02 -0.13698920788E+03  0.65209078957E+03  0.66750120617E+03  0.51100000000E-03 0. -1.
         22    1    1    2    0    0 -0.13208180575E+02  0.25096387745E+02  0.38284505933E+02  0.47644392183E+02  0.00000000000E+00 0.  1.
          2    1    1    2  501    0 -0.26407716772E+02  0.11189282013E+03  0.28626742066E+03  0.30849052958E+03  0.25500000000E-02 0. -1.
<mgrwt>
<rscale>  0 0.14662240E+03</rscale>
<asrwt>0</asrwt>
<pdfrwt beam="1">  1       11 0.10000000E+01 0.14260246E+03</pdfrwt>
<pdfrwt beam="2">  1        2 0.36153817E-02 0.14662240E+03</pdfrwt>
<totfact> 0.28310910E+03</totfact>
</mgrwt>
</event>
<event>
 5    1  0.2675386E-003  0.7020427E+02  0.7818608E-02  0.1550414E+00
         11   -1    0    0    0    0  0.00000000000E+00  0.00000000000E+00  0.10002023428E+04  0.10002023428E+04  0.51100000000E-03 0.  1.
          2   -1    0    0  501    0 -0.00000000000E+00 -0.00000000000E+00 -0.83275159168E+01  0.83275163072E+01  0.25500000000E-02 0.  1.
         11    1    1    2    0    0  0.61250746444E+02  0.51754214525E+02  0.30195013094E+03  0.31241644360E+03  0.51100000000E-03 0.  1.
         22    1    1    2    0    0 -0.40387637341E+01 -0.16767359153E+02  0.54600979316E+02  0.57260133494E+02  0.00000000000E+00 0. -1.
          2    1    1    2  501    0 -0.57211982710E+02 -0.34986855372E+02  0.63532371658E+03  0.63885328196E+03  0.25500000000E-02 0.  1.
<mgrwt>
<rscale>  0 0.34796642E+02</rscale>
<asrwt>0</asrwt>
<pdfrwt beam="1">  1       11 0.10000000E+01 0.70204273E+02</pdfrwt>
<pdfrwt beam="2">  1        2 0.12814155E-02 0.34796642E+02</pdfrwt>
<totfact> 0.92660845E+03</totfact>
</mgrwt>
</event>
<event>
 5    1  0.2675386E-003  0.2312515E+03  0.7818608E-02  0.1125762E+00
         11   -1    0    0    0    0  0.00000000000E+00  0.00000000000E+00  0.99993616074E+03  0.99993616074E+03  0.51100000000E-03 0.  1.
         -2   -1    0    0    0  501 -0.00000000000E+00 -0.00000000000E+00 -0.15249722785E+03  0.15249722787E+03  0.25500000000E-02 0. -1.
         11    1    1    2    0    0  0.67761585645E+02 -0.21713170649E+03  0.88885962603E+03  0.91750163229E+03  0.51100000000E-03 0.  1.
         22    1    1    2    0    0  0.23194615068E+01  0.14731417664E+02 -0.11135301215E+02  0.18611542151E+02  0.00000000000E+00 0. -1.
         -2    1    1    2    0  501 -0.70081047152E+02  0.20240028883E+03 -0.30285391927E+02  0.21632021417E+03  0.25500000000E-02 0. -1.
<mgrwt>
<rscale>  0 0.23125150E+03</rscale>
<asrwt>0</asrwt>
<pdfrwt beam="1">  1       11 0.10000000E+01 0.22745947E+03</pdfrwt>
<pdfrwt beam="2">  1       -2 0.23459614E-01 0.23125150E+03</pdfrwt>
<totfact> 0.12754384E+02</totfact>
</mgrwt>
</event>
<event>
 5    1  0.2675386E-003  0.1863100E+03  0.7818608E-02  0.1397829E+00
         11   -1    0    0    0    0  0.00000000000E+00  0.00000000000E+00  0.10002836613E+04  0.10002836613E+04  0.51100000000E-03 0.  1.
          2   -1    0    0  501    0 -0.00000000000E+00 -0.00000000000E+00 -0.41364772754E+02  0.41364772832E+02  0.25500000000E-02 0.  1.
         11    1    1    2    0    0 -0.88493724960E+02 -0.16273796563E+03  0.58528552370E+03  0.61390058566E+03  0.51100000000E-03 0.  1.
         22    1    1    2    0    0  0.15635651218E+02 -0.11353834833E+02  0.29543988890E+02  0.35301989093E+02  0.00000000000E+00 0. -1.
          2    1    1    2  501    0  0.72858073743E+02  0.17409180046E+03  0.34408937599E+03  0.39244585942E+03  0.25500000000E-02 0.  1.
<mgrwt>
<rscale>  0 0.60000761E+02</rscale>
<asrwt>0</asrwt>
<pdfrwt beam="1">  1       11 0.10000000E+01 0.18631000E+03</pdfrwt>
<pdfrwt beam="2">  1        2 0.63656162E-02 0.60000761E+02</pdfrwt>
<totfact> 0.12545780E+03</totfact>
</mgrwt>
</event>
<event>
 5    1  0.2675386E-003  0.2030360E+03  0.7818608E-02  0.1229550E+00
         11   -1    0    0    0    0  0.00000000000E+00  0.00000000000E+00  0.10000917621E+04  0.10000917621E+04  0.51100000000E-03 0.  1.
          2   -1    0    0  501    0 -0.00000000000E+00 -0.00000000000E+00 -0.64254073181E+02  0.64254073231E+02  0.25500000000E-02 0.  1.
         11    1    1    2    0    0  0.11911073022E+03 -0.18354080042E+03  0.52613991759E+03  0.56982260779E+03  0.51100000000E-03 0.  1.
         22    1    1    2    0    0  0.37295337786E+02  0.72411694033E+02  0.87648519318E+02  0.11965224023E+03  0.00000000000E+00 0.  1.
          2    1    1    2  501    0 -0.15640606800E+03  0.11112910639E+03  0.32204925200E+03  0.37487098730E+03  0.25500000000E-02 0.  1.
<mgrwt>
<rscale>  0 0.12859880E+03</rscale>
<asrwt>0</asrwt>
<pdfrwt beam="1">  1       11 0.10000000E+01 0.20303604E+03</pdfrwt>
<pdfrwt beam="2">  1        2 0.98861488E-02 0.12859880E+03</pdfrwt>
<totfact> 0.76906279E+02</totfact>
</mgrwt>
</event>
<event>
 5    1  0.2675386E-003  0.2240448E+03  0.7818608E-02  0.1130903E+00
         11   -1    0    0    0    0  0.00000000000E+00  0.00000000000E+00  0.10003375227E+04  0.10003375227E+04  0.51100000000E-03 0.  1.
          2   -1    0    0  501    0 -0.00000000000E+00 -0.00000000000E+00 -0.59313057195E+02  0.59313057250E+02  0.25500000000E-02 0. -1.
         11    1    1    2    0    0  0.10064263649E+03  0.19464335538E+03  0.68621553018E+03  0.72035180984E+03  0.51100000000E-03 0.  1.
         22    1    1    2    0    0  0.47623367207E+01 -0.15084868165E+02  0.19042974369E+02  0.24756170370E+02  0.00000000000E+00 0.  1.
          2    1    1    2  501    0 -0.10540497321E+03 -0.17955848721E+03  0.23576596100E+03  0.31454259979E+03  0.25500000000E-02 0. -1.
<mgrwt>
<rscale>  0 0.22404478E+03</rscale>
<asrwt>0</asrwt>
<pdfrwt beam="1">  1       11 0.10000000E+01 0.21912320E+03</pdfrwt>
<pdfrwt beam="2">  1        2 0.91281654E-02 0.22404478E+03</pdfrwt>
<totfact> 0.87549482E+02</totfact>
</mgrwt>
</event>
<event>
 5    1  0.2675386E-003  0.9299001E+02  0.7818608E-02  0.1295768E+00
         11   -1    0    0    0    0  0.00000000000E+00  0.00000000000E+00  0.10003045743E+04  0.10003045743E+04  0.51100000000E-03 0. -1.
          2   -1    0    0  501    0 -0.00000000000E+00 -0.00000000000E+00 -0.98933535749E+01  0.98933539036E+01  0.25500000000E-02 0. -1.
         11    1    1    2    0    0  0.52320597184E+01 -0.91340812086E+02  0.30258198659E+03  0.31611133641E+03  0.51100000000E-03 0. -1.
         22    1    1    2    0    0  0.39617936823E+01  0.93632342024E+01  0.58977929491E+02  0.59847824781E+02  0.00000000000E+00 0.  1.
          2    1    1    2  501    0 -0.91938534008E+01  0.81977577883E+02  0.62885130462E+03  0.63423876698E+03  0.25500000000E-02 0. -1.
<mgrwt>
<rscale>  0 0.92990008E+02</rscale>
<asrwt>0</asrwt>
<pdfrwt beam="1">  1       11 0.10000000E+01 0.91490583E+02</pdfrwt>
<pdfrwt beam="2">  1        2 0.15225180E-02 0.92990008E+02</pdfrwt>
<totfact> 0.86323470E+03</totfact>
</mgrwt>
</event>
<event>
 5    1  0.2675386E-003  0.2099765E+03  0.7818608E-02  0.1141585E+00
         11   -1    0    0    0    0  0.00000000000E+00  0.00000000000E+00  0.10002405082E+04  0.10002405082E+04  0.51100000000E-03 0. -1.
         -2   -1    0    0    0  501 -0.00000000000E+00 -0.00000000000E+00 -0.48884212604E+02  0.48884212670E+02  0.25500000000E-02 0.  1.
         11    1    1    2    0    0 -0.19072291285E+03  0.81082693884E+02  0.64686894528E+03  0.67925625879E+03  0.51100000000E-03 0. -1.
         22    1    1    2    0    0  0.22533671845E+02 -0.12403018007E+02  0.21197422702E+02  0.33330645834E+02  0.00000000000E+00 0. -1.
         -2    1    1    2    0  501  0.16818924100E+03 -0.68679675877E+02  0.28328992758E+03  0.33653781621E+03  0.25500000000E-02 0.  1.
<mgrwt>
<rscale>  0 0.20997651E+03</rscale>
<asrwt>0</asrwt>
<pdfrwt beam="1">  1       11 0.10000000E+01 0.20724293E+03</pdfrwt>
<pdfrwt beam="2">  1       -2 0.75224567E-02 0.20997651E+03</pdfrwt>
<totfact> 0.81823226E+02</totfact>
</mgrwt>
</event>
<event>
 5    1  0.2675386E-003  0.1012192E+03  0.7818608E-02  0.1277753E+00
         11   -1    0    0    0    0  0.00000000000E+00  0.00000000000E+00  0.99998900844E+03  0.99998900844E+03  0.51100000000E-03 0.  1.
          2   -1    0    0  501    0 -0.00000000000E+00 -0.00000000000E+00 -0.98066811897E+01  0.98066815212E+01  0.25500000000E-02 0.  1.
         11    1    1    2    0    0  0.86860699485E+02  0.42366444483E+02  0.50605393332E+03  0.51519926257E+03  0.51100000000E-03 0.  1.
         22    1    1    2    0    0 -0.79260479847E+01 -0.84140370783E+01  0.25634929146E+02  0.28120594747E+02  0.00000000000E+00 0. -1.
          2    1    1    2  501    0 -0.78934651501E+02 -0.33952407405E+02  0.45849346479E+03  0.46647583264E+03  0.25500000000E-02 0.  1.
<mgrwt>
<rscale>  0 0.10121919E+03</rscale>
<asrwt>0</asrwt>
<pdfrwt beam="1">  1       11 0.10000000E+01 0.96642106E+02</pdfrwt>
<pdfrwt beam="2">  1        2 0.15087036E-02 0.10121919E+03</pdfrwt>
<totfact> 0.88433346E+03</totfact>
</mgrwt>
</event>
<event>
 5    1  0.2675386E-003  0.1836033E+03  0.7818608E-02  0.1363275E+00
         11   -1    0    0    0    0  0.00000000000E+00  0.00000000000E+00  0.10005667594E+04  0.10005667594E+04  0.51100000000E-03 0.  1.
          2   -1    0    0  501    0 -0.00000000000E+00 -0.00000000000E+00 -0.17357249653E+04  0.17357249653E+04  0.25500000000E-02 0. -1.
         11    1    1    2    0    0 -0.51444407463E+02 -0.17721446884E+03  0.98434139008E+03  0.10014886256E+04  0.51100000000E-03 0.  1.
         22    1    1    2    0    0  0.59467004985E+02  0.10860915050E+03 -0.57307777244E+03  0.58630231581E+03  0.00000000000E+00 0. -1.
          2    1    1    2  501    0 -0.80225975221E+01  0.68605318335E+02 -0.11464218235E+04  0.11485007833E+04  0.25500000000E-02 0. -1.
<mgrwt>
<rscale>  0 0.69072801E+02</rscale>
<asrwt>0</asrwt>
<pdfrwt beam="1">  1       11 0.10000000E+01 0.18360333E+03</pdfrwt>
<pdfrwt beam="2">  1        2 0.26718595E+00 0.69072801E+02</pdfrwt>
<totfact> 0.14516282E+01</totfact>
</mgrwt>
</event>
<event>
 5    1  0.2675386E-003  0.2674084E+02  0.7818608E-02  0.1637187E+00
         11   -1    0    0    0    0  0.00000000000E+00  0.00000000000E+00  0.10004369349E+04  0.10004369349E+04  0.51100000000E-03 0.  1.
          2   -1    0    0  501    0 -0.00000000000E+00 -0.00000000000E+00 -0.68761569102E+01  0.68761573831E+01  0.25500000000E-02 0.  1.
         11    1    1    2    0    0 -0.15930377185E+02 -0.12849482639E+02  0.41711481374E+02  0.46462176015E+02  0.51100000000E-03 0.  1.
         22    1    1    2    0    0 -0.15065635518E+02  0.22164374472E+02  0.38393609861E+02  0.46822026307E+02  0.00000000000E+00 0.  1.
          2    1    1    2  501    0  0.30996012703E+02 -0.93148918336E+01  0.91345568675E+03  0.91402888995E+03  0.25500000000E-02 0.  1.
<mgrwt>
<rscale>  0 0.26740839E+02</rscale>
<asrwt>0</asrwt>
<pdfrwt beam="1">  1       11 0.10000000E+01 0.20466718E+02</pdfrwt>
<pdfrwt beam="2">  1        2 0.10583325E-02 0.26740839E+02</pdfrwt>
<totfact> 0.11300637E+04</totfact>
</mgrwt>
</event>
<event>
 5    1  0.2675386E-003  0.1870310E+03  0.7818608E-02  0.1161167E+00
         11   -1    0    0    0    0  0.00000000000E+00  0.00000000000E+00  0.10002103417E+04  0.10002103417E+04  0.51100000000E-03 0. -1.
          2   -1    0    0  501    0 -0.00000000000E+00 -0.00000000000E+00 -0.12763557171E+03  0.12763557174E+03  0.25500000000E-02 0. -1.
         11    1    1    2    0    0 -0.14464694224E+03 -0.11460083893E+03  0.91718662009E+03  0.93556794850E+03  0.51100000000E-03 0. -1.
         22    1    1    2    0    0  0.20829246469E+02  0.44639263850E+01 -0.58660186935E+01  0.22095119881E+02  0.00000000000E+00 0. -1.
          2    1    1    2  501    0  0.12381769577E+03  0.11013691255E+03 -0.38745831412E+02  0.17018284505E+03  0.25500000000E-02 0. -1.
<mgrwt>
<rscale>  0 0.18703101E+03</rscale>
<asrwt>0</asrwt>
<pdfrwt beam="1">  1       11 0.10000000E+01 0.18454292E+03</pdfrwt>
<pdfrwt beam="2">  1        2 0.19640372E-01 0.18703101E+03</pdfrwt>
<totfact> 0.34645476E+02</totfact>
</mgrwt>
</event>
<event>
 5    1  0.2675386E-003  0.1273524E+03  0.7818608E-02  0.1405987E+00
         11   -1    0    0    0    0  0.00000000000E+00  0.00000000000E+00  0.10001177414E+04  0.10001177414E+04  0.51100000000E-03 0. -1.
          2   -1    0    0  501    0 -0.00000000000E+00 -0.00000000000E+00 -0.27405289296E+02  0.27405289414E+02  0.25500000000E-02 0. -1.
         11    1    1    2    0    0  0.61776423131E+02  0.11545082310E+03  0.75648647196E+03  0.76773498114E+03  0.51100000000E-03 0. -1.
         22    1    1    2    0    0 -0.26250280848E+02 -0.36666975236E+01  0.45381732785E+02  0.52554957767E+02  0.00000000000E+00 0.  1.
          2    1    1    2  501    0 -0.35526142284E+02 -0.11178412558E+03  0.17084424734E+03  0.20723309188E+03  0.25500000000E-02 0. -1.
<mgrwt>
<rscale>  0 0.58098989E+02</rscale>
<asrwt>0</asrwt>
<pdfrwt beam="1">  1       11 0.10000000E+01 0.12735242E+03</pdfrwt>
<pdfrwt beam="2">  1        2 0.42166947E-02 0.58098989E+02</pdfrwt>
<totfact> 0.21074732E+03</totfact>
</mgrwt>
</event>
<event>
 5    1  0.2675386E-003  0.3957531E+03  0.7818608E-02  0.1045260E+00
         11   -1    0    0    0    0  0.00000000000E+00  0.00000000000E+00  0.10001080998E+04  0.10001080998E+04  0.51100000000E-03 0. -1.
          2   -1    0    0  501    0 -0.00000000000E+00 -0.00000000000E+00 -0.11031154884E+04  0.11031154884E+04  0.25500000000E-02 0. -1.
         11    1    1    2    0    0  0.18820308563E+03 -0.30912144000E+03  0.92949966185E+03  0.99746984289E+03  0.51100000000E-03 0. -1.
         22    1    1    2    0    0 -0.14358017941E+03  0.10077170437E+03 -0.36306315902E+03  0.40321837974E+03  0.00000000000E+00 0.  1.
          2    1    1    2  501    0 -0.44622906218E+02  0.20834973563E+03 -0.66944389138E+03  0.70253536552E+03  0.25500000000E-02 0. -1.
<mgrwt>
<rscale>  0 0.39575313E+03</rscale>
<asrwt>0</asrwt>
<pdfrwt beam="1">  1       11 0.10000000E+01 0.36190671E+03</pdfrwt>
<pdfrwt beam="2">  1        2 0.16972842E+00 0.39575313E+03</pdfrwt>
<totfact> 0.27907446E+01</totfact>
</mgrwt>
</event>
<event>
 5    1  0.2675386E-003  0.3941691E+03  0.7818608E-02  0.1045818E+00
         11   -1    0    0    0    0  0.00000000000E+00  0.00000000000E+00  0.99984565579E+03  0.99984565579E+03  0.51100000000E-03 0.  1.
          2   -1    0    0  501    0 -0.00000000000E+00 -0.00000000000E+00 -0.21908137282E+03  0.21908137283E+03  0.25500000000E-02 0.  1.
         11    1    1    2    0    0 -0.65042622025E+01 -0.58860962510E+02  0.26937539350E+03  0.27580794216E+03  0.51100000000E-03 0.  1.
         22    1    1    2    0    0 -0.38204508090E+03 -0.56790719130E+02  0.22838031681E+03  0.44871059574E+03  0.00000000000E+00 0.  1.
          2    1    1    2  501    0  0.38854934311E+03  0.11565168164E+03  0.28300857266E+03  0.49440849072E+03  0.25500000000E-02 0.  1.
<mgrwt>
<rscale>  0 0.39416912E+03</rscale>
<asrwt>0</asrwt>
<pdfrwt beam="1">  1       11 0.10000000E+01 0.59219240E+02</pdfrwt>
<pdfrwt beam="2">  1        2 0.33699623E-01 0.39416912E+03</pdfrwt>
<totfact> 0.19173820E+02</totfact>
</mgrwt>
</event>
<event>
 5    1  0.2675386E-003  0.1150743E+03  0.7818608E-02  0.1388969E+00
         11   -1    0    0    0    0  0.00000000000E+00  0.00000000000E+00  0.10000211978E+04  0.10000211978E+04  0.51100000000E-03 0. -1.
         -2   -1    0    0    0  501 -0.00000000000E+00 -0.00000000000E+00 -0.32727086516E+02  0.32727086615E+02  0.25500000000E-02 0.  1.
         11    1    1    2    0    0 -0.45817705166E+02 -0.11841343970E+03  0.72137654328E+03  0.73246509952E+03  0.51100000000E-03 0. -1.
         22    1    1    2    0    0  0.34562748565E+02  0.57276964835E+02  0.26039262928E+02  0.71786332285E+02  0.00000000000E+00 0.  1.
         -2    1    1    2    0  501  0.11254956600E+02  0.61136474862E+02  0.21987830504E+03  0.22849685258E+03  0.25500000000E-02 0.  1.
<mgrwt>
<rscale>  0 0.62163837E+02</rscale>
<asrwt>0</asrwt>
<pdfrwt beam="1">  1       11 0.10000000E+01 0.11507435E+03</pdfrwt>
<pdfrwt beam="2">  1       -2 0.50350430E-02 0.62163837E+02</pdfrwt>
<totfact> 0.13556439E+03</totfact>
</mgrwt>
</event>
<event>
 5    1  0.2675386E-003  0.8700786E+02  0.7818608E-02  0.1310264E+00
         11   -1    0    0    0    0  0.00000000000E+00  0.00000000000E+00  0.10000750199E+04  0.10000750199E+04  0.51100000000E-03 0.  1.
          2   -1    0    0  501    0 -0.00000000000E+00 -0.00000000000E+00 -0.72242297094E+01  0.72242301594E+01  0.25500000000E-02 0.  1.
         11    1    1    2    0    0 -0.77341214566E+02 -0.29986518607E+02  0.47385977882E+03  0.48106542668E+03  0.51100000000E-03 0.  1.
         22    1    1    2    0    0  0.23268982217E+02  0.83495155884E+01  0.90996974304E+02  0.94295330088E+02  0.00000000000E+00 0. -1.
          2    1    1    2  501    0  0.54072232349E+02  0.21637003019E+02  0.42799403707E+03  0.43193849329E+03  0.25500000000E-02 0.  1.
<mgrwt>
<rscale>  0 0.87007856E+02</rscale>
<asrwt>0</asrwt>
<pdfrwt beam="1">  1       11 0.10000000E+01 0.82950959E+02</pdfrwt>
<pdfrwt beam="2">  1        2 0.11115033E-02 0.87007856E+02</pdfrwt>
<totfact> 0.13122802E+04</totfact>
</mgrwt>
</event>
<event>
 5    1  0.2675386E-003  0.3143568E+02  0.7818608E-02  0.1597924E+00
         11   -1    0    0    0    0  0.00000000000E+00  0.00000000000E+00  0.10000474268E+04  0.10000474268E+04  0.51100000000E-03 0. -1.
          2   -1    0    0  501    0 -0.00000000000E+00 -0.00000000000E+00 -0.36028759567E+01  0.36028768591E+01  0.25500000000E-02 0. -1.
         11    1    1    2    0    0 -0.43339927808E+02 -0.13586307341E+02  0.25503920158E+03  0.25905198596E+03  0.51100000000E-03 0. -1.
         22    1    1    2    0    0  0.15137883511E+02  0.24334012817E+02  0.17017460280E+03  0.17257084092E+03  0.00000000000E+00 0. -1.
          2    1    1    2  501    0  0.28202044297E+02 -0.10747705477E+02  0.57123074645E+03  0.57202747677E+03  0.25500000000E-02 0. -1.
<mgrwt>
<rscale>  0 0.30014889E+02</rscale>
<asrwt>0</asrwt>
<pdfrwt beam="1">  1       11 0.10000000E+01 0.31435681E+02</pdfrwt>
<pdfrwt beam="2">  1        2 0.55431495E-03 0.30014889E+02</pdfrwt>
<totfact> 0.27218379E+04</totfact>
</mgrwt>
</event>
<event>
 5    1  0.2675386E-003  0.2194271E+03  0.7818608E-02  0.1134311E+00
         11   -1    0    0    0    0  0.00000000000E+00  0.00000000000E+00  0.10001284338E+04  0.10001284338E+04  0.51100000000E-03 0. -1.
          2   -1    0    0  501    0 -0.00000000000E+00 -0.00000000000E+00 -0.62527192246E+02  0.62527192298E+02  0.25500000000E-02 0. -1.
         11    1    1    2    0    0 -0.21558355148E+03 -0.29366285432E+02  0.72569965332E+03  0.75761377576E+03  0.51100000000E-03 0. -1.
         22    1    1    2    0    0  0.24381617737E+02 -0.29179770215E+01  0.15460637436E+02  0.29017394495E+02  0.00000000000E+00 0.  1.
          2    1    1    2  501    0  0.19120193375E+03  0.32284262454E+02  0.19644095083E+03  0.27602445587E+03  0.25500000000E-02 0. -1.
<mgrwt>
<rscale>  0 0.21942709E+03</rscale>
<asrwt>0</asrwt>
<pdfrwt beam="1">  1       11 0.10000000E+01 0.21757446E+03</pdfrwt>
<pdfrwt beam="2">  1        2 0.96208032E-02 0.21942709E+03</pdfrwt>
<totfact> 0.81883816E+02</totfact>
</mgrwt>
</event>
<event>
 5    1  0.2675386E-003  0.2053566E+03  0.7818608E-02  0.1145297E+00
         11   -1    0    0    0    0  0.00000000000E+00  0.00000000000E+00  0.10001621194E+04  0.10001621194E+04  0.51100000000E-03 0. -1.
          2   -1    0    0  501    0 -0.00000000000E+00 -0.00000000000E+00 -0.21547366851E+03  0.21547366852E+03  0.25500000000E-02 0. -1.
         11    1    1    2    0    0 -0.19086312721E+02 -0.20175398448E+03  0.93782282396E+03  0.95946891911E+03  0.51100000000E-03 0. -1.
         22    1    1    2    0    0 -0.91430338065E+01  0.39135848167E+02 -0.26610824274E+02  0.48201095915E+02  0.00000000000E+00 0.  1.
          2    1    1    2  501    0  0.28229346527E+02  0.16261813632E+03 -0.12652354884E+03  0.20796577286E+03  0.25500000000E-02 0. -1.
<mgrwt>
<rscale>  0 0.20535659E+03</rscale>
<asrwt>0</asrwt>
<pdfrwt beam="1">  1       11 0.10000000E+01 0.20265477E+03</pdfrwt>
<pdfrwt beam="2">  1        2 0.33155168E-01 0.20535659E+03</pdfrwt>
<totfact> 0.19379923E+02</totfact>
</mgrwt>
</event>
<event>
 5    1  0.2675386E-003  0.1687873E+03  0.7818608E-02  0.1179118E+00
         11   -1    0    0    0    0  0.00000000000E+00  0.00000000000E+00  0.10002376863E+04  0.10002376863E+04  0.51100000000E-03 0. -1.
          2   -1    0    0  501    0 -0.00000000000E+00 -0.00000000000E+00 -0.67431428796E+02  0.67431428845E+02  0.25500000000E-02 0.  1.
         11    1    1    2    0    0 -0.16635395756E+03  0.60894681547E+01  0.87279965194E+03  0.88853247169E+03  0.51100000000E-03 0. -1.
         22    1    1    2    0    0  0.12695190475E+02  0.59403827854E+01  0.83989848264E+00  0.14041418671E+02  0.00000000000E+00 0. -1.
          2    1    1    2  501    0  0.15365876708E+03 -0.12029850940E+02  0.59166707088E+02  0.16509522479E+03  0.25500000000E-02 0.  1.
<mgrwt>
<rscale>  0 0.16878728E+03</rscale>
<asrwt>0</asrwt>
<pdfrwt beam="1">  1       11 0.10000000E+01 0.16646537E+03</pdfrwt>
<pdfrwt beam="2">  1        2 0.10376531E-01 0.16878728E+03</pdfrwt>
<totfact> 0.73557709E+02</totfact>
</mgrwt>
</event>
<event>
 5    1  0.2675386E-003  0.1345872E+03  0.7818608E-02  0.1321594E+00
         11   -1    0    0    0    0  0.00000000000E+00  0.00000000000E+00  0.10000000022E+04  0.10000000022E+04  0.51100000000E-03 0.  1.
         -2   -1    0    0    0  501 -0.00000000000E+00 -0.00000000000E+00 -0.41013024000E+02  0.41013024079E+02  0.25500000000E-02 0. -1.
         11    1    1    2    0    0 -0.84331973470E+02 -0.98891435949E+02  0.67308745012E+03  0.68552032308E+03  0.51100000000E-03 0.  1.
         22    1    1    2    0    0  0.18949362392E+02 -0.47134697791E+02  0.79454507584E+02  0.94306822904E+02  0.00000000000E+00 0. -1.
         -2    1    1    2    0  501  0.65382611078E+02  0.14602613374E+03  0.20644502047E+03  0.26118588027E+03  0.25500000000E-02 0. -1.
<mgrwt>
<rscale>  0 0.82687269E+02</rscale>
<asrwt>0</asrwt>
<pdfrwt beam="1">  1       11 0.10000000E+01 0.13458717E+03</pdfrwt>
<pdfrwt beam="2">  1       -2 0.63096958E-02 0.82687269E+02</pdfrwt>
<totfact> 0.99711075E+02</totfact>
</mgrwt>
</event>
<event>
 5    1  0.2675386E-003  0.2572918E+03  0.7818608E-02  0.1108781E+00
         11   -1    0    0    0    0  0.00000000000E+00  0.00000000000E+00  0.10004815240E+04  0.10004815240E+04  0.51100000000E-03 0. -1.
          2   -1    0    0  501    0 -0.00000000000E+00 -0.00000000000E+00 -0.17623607526E+03  0.17623607528E+03  0.25500000000E-02 0. -1.
         11    1    1    2    0    0 -0.52452487306E+02 -0.24700642517E+03 -0.56841188338E+02  0.25883268378E+03  0.51100000000E-03 0. -1.
         22    1    1    2    0    0  0.11647786955E+02  0.16650973272E+02  0.39942238011E+02  0.44814152108E+02  0.00000000000E+00 0. -1.
          2    1    1    2  501    0  0.40804700351E+02  0.23035545190E+03  0.84114439905E+03  0.87307076337E+03  0.25500000000E-02 0. -1.
<mgrwt>
<rscale>  0 0.25729177E+03</rscale>
<asrwt>0</asrwt>
<pdfrwt beam="1">  1       11 0.10000000E+01 0.25251436E+03</pdfrwt>
<pdfrwt beam="2">  1        2 0.27126297E-01 0.25729177E+03</pdfrwt>
<totfact> 0.24251983E+02</totfact>
</mgrwt>
</event>
<event>
 5    1  0.2675386E-003  0.2070029E+03  0.7818608E-02  0.1143962E+00
         11   -1    0    0    0    0  0.00000000000E+00  0.00000000000E+00  0.10004681107E+04  0.10004681107E+04  0.51100000000E-03 0.  1.
          2   -1    0    0  501    0 -0.00000000000E+00 -0.00000000000E+00 -0.23476844603E+03  0.23476844605E+03  0.25500000000E-02 0.  1.
         11    1    1    2    0    0 -0.19737095000E+03 -0.38828933602E+02  0.94205801815E+03  0.96329449679E+03  0.51100000000E-03 0.  1.
         22    1    1    2    0    0  0.88384329966E+02  0.32552566781E+01 -0.10333098975E+03  0.13601352845E+03  0.00000000000E+00 0.  1.
          2    1    1    2  501    0  0.10898662004E+03  0.35573676924E+02 -0.73027363684E+02  0.13592853155E+03  0.25500000000E-02 0.  1.
<mgrwt>
<rscale>  0 0.20700294E+03</rscale>
<asrwt>0</asrwt>
<pdfrwt beam="1">  1       11 0.10000000E+01 0.20115412E+03</pdfrwt>
<pdfrwt beam="2">  1        2 0.36135129E-01 0.20700294E+03</pdfrwt>
<totfact> 0.17653115E+02</totfact>
</mgrwt>
</event>
<event>
 5    1  0.2675386E-003  0.1113331E+03  0.7818608E-02  0.1258121E+00
         11   -1    0    0    0    0  0.00000000000E+00  0.00000000000E+00  0.10003848917E+04  0.10003848917E+04  0.51100000000E-03 0. -1.
          2   -1    0    0  501    0 -0.00000000000E+00 -0.00000000000E+00 -0.28096393332E+02  0.28096393448E+02  0.25500000000E-02 0. -1.
         11    1    1    2    0    0 -0.12000046484E+02  0.66767649987E+02  0.40965001370E+03  0.41522891750E+03  0.51100000000E-03 0. -1.
         22    1    1    2    0    0  0.11200641639E+03 -0.83167054145E+02  0.37297682489E+03  0.39821339519E+03  0.00000000000E+00 0. -1.
          2    1    1    2  501    0 -0.10000636991E+03  0.16399404158E+02  0.18966165976E+03  0.21503897244E+03  0.25500000000E-02 0. -1.
<mgrwt>
<rscale>  0 0.11133308E+03</rscale>
<asrwt>0</asrwt>
<pdfrwt beam="1">  1       11 0.10000000E+01 0.67837454E+02</pdfrwt>
<pdfrwt beam="2">  1        2 0.43241856E-02 0.11133308E+03</pdfrwt>
<totfact> 0.21780625E+03</totfact>
</mgrwt>
</event>
<event>
 5    1  0.2675386E-003  0.1152868E+03  0.7818608E-02  0.1555506E+00
         11   -1    0    0    0    0  0.00000000000E+00  0.00000000000E+00  0.10002864075E+04  0.10002864075E+04  0.51100000000E-03 0.  1.
          2   -1    0    0  501    0 -0.00000000000E+00 -0.00000000000E+00 -0.16730573955E+02  0.16730574150E+02  0.25500000000E-02 0.  1.
         11    1    1    2    0    0  0.17615632711E+01 -0.11904466442E+03  0.61576473793E+03  0.62716899454E+03  0.51100000000E-03 0.  1.
         22    1    1    2    0    0 -0.44449317713E+01  0.91426791845E+01  0.61838612907E+01  0.11898997503E+02  0.00000000000E+00 0. -1.
          2    1    1    2  501    0  0.26833685002E+01  0.10990198523E+03  0.36160723435E+03  0.37794898963E+03  0.25500000000E-02 0.  1.
<mgrwt>
<rscale>  0 0.34234443E+02</rscale>
<asrwt>0</asrwt>
<pdfrwt beam="1">  1       11 0.10000000E+01 0.11528683E+03</pdfrwt>
<pdfrwt beam="2">  1        2 0.25746716E-02 0.34234443E+02</pdfrwt>
<totfact> 0.37143071E+03</totfact>
</mgrwt>
</event>
<event>
 5    1  0.2675386E-003  0.1163798E+03  0.7818608E-02  0.1249192E+00
         11   -1    0    0    0    0  0.00000000000E+00  0.00000000000E+00  0.10002203648E+04  0.10002203648E+04  0.51100000000E-03 0. -1.
          2   -1    0    0  501    0 -0.00000000000E+00 -0.00000000000E+00 -0.12455780832E+02  0.12455781093E+02  0.25500000000E-02 0. -1.
         11    1    1    2    0    0 -0.12255614788E+02 -0.10612905981E+03  0.46576186790E+03  0.47785740030E+03  0.51100000000E-03 0. -1.
         22    1    1    2    0    0  0.68142642129E+01  0.46310214879E+02  0.12854084086E+03  0.13679845748E+03  0.00000000000E+00 0. -1.
          2    1    1    2  501    0  0.54413505750E+01  0.59818844931E+02  0.39346187523E+03  0.39802028814E+03  0.25500000000E-02 0. -1.
<mgrwt>
<rscale>  0 0.11637979E+03</rscale>
<asrwt>0</asrwt>
<pdfrwt beam="1">  1       11 0.10000000E+01 0.10683440E+03</pdfrwt>
<pdfrwt beam="2">  1        2 0.19166962E-02 0.11637979E+03</pdfrwt>
<totfact> 0.65008120E+03</totfact>
</mgrwt>
</event>
<event>
 5    1  0.3739294E-003  0.2885343E+03  0.7818608E-02  0.1326580E+00
         11   -1    0    0    0    0  0.00000000000E+00  0.00000000000E+00  0.10001688651E+04  0.10001688651E+04  0.51100000000E-03 0. -1.
          2   -1    0    0  501    0 -0.00000000000E+00 -0.00000000000E+00 -0.10513892185E+04  0.10513892185E+04  0.25500000000E-02 0. -1.
         11    1    1    2    0    0  0.22225186725E+03  0.18451337070E+03  0.95697401903E+03  0.99962010262E+03  0.51100000000E-03 0. -1.
         22    1    1    2    0    0  0.23052501202E+00 -0.22669001967E+02 -0.11951410418E+03  0.12164521318E+03  0.00000000000E+00 0. -1.
          2    1    1    2  501    0 -0.22248239226E+03 -0.16184436873E+03 -0.88868026825E+03  0.93029276776E+03  0.25500000000E-02 0. -1.
<mgrwt>
<rscale>  0 0.80877212E+02</rscale>
<asrwt>0</asrwt>
<pdfrwt beam="1">  1       11 0.10000000E+01 0.28853433E+03</pdfrwt>
<pdfrwt beam="2">  1        2 0.16177950E+00 0.80877212E+02</pdfrwt>
<totfact> 0.32567393E+01</totfact>
</mgrwt>
</event>
<event>
 5    1  0.2675386E-003  0.2917324E+03  0.7818608E-02  0.1089448E+00
         11   -1    0    0    0    0  0.00000000000E+00  0.00000000000E+00  0.10002266476E+04  0.10002266476E+04  0.51100000000E-03 0. -1.
          2   -1    0    0  501    0 -0.00000000000E+00 -0.00000000000E+00 -0.81932170688E+03  0.81932170689E+03  0.25500000000E-02 0. -1.
         11    1    1    2    0    0  0.16776473042E+03  0.23259025824E+03  0.95245160761E+03  0.99468954847E+03  0.51100000000E-03 0. -1.
         22    1    1    2    0    0 -0.12597579470E+03 -0.19079759877E+03 -0.55151473115E+03  0.59702774074E+03  0.00000000000E+00 0. -1.
          2    1    1    2  501    0 -0.41788935723E+02 -0.41792659469E+02 -0.22003193576E+03  0.22783106526E+03  0.25500000000E-02 0. -1.
<mgrwt>
<rscale>  0 0.29173240E+03</rscale>
<asrwt>0</asrwt>
<pdfrwt beam="1">  1       11 0.10000000E+01 0.28678081E+03</pdfrwt>
<pdfrwt beam="2">  1        2 0.12607806E+00 0.29173240E+03</pdfrwt>
<totfact> 0.42852407E+01</totfact>
</mgrwt>
</event>
<event>
 5    1  0.2675386E-003  0.1236234E+03  0.7818608E-02  0.1237237E+00
         11   -1    0    0    0    0  0.00000000000E+00  0.00000000000E+00  0.10001818353E+04  0.10001818353E+04  0.51100000000E-03 0.  1.
          2   -1    0    0  501    0 -0.00000000000E+00 -0.00000000000E+00 -0.15661304468E+02  0.15661304676E+02  0.25500000000E-02 0.  1.
         11    1    1    2    0    0  0.78289752212E+02 -0.80287712258E+02  0.64145425788E+03  0.65118274470E+03  0.51100000000E-03 0.  1.
         22    1    1    2    0    0 -0.60998699626E+01  0.37827263856E+02  0.13610410651E+03  0.14139461840E+03  0.00000000000E+00 0.  1.
          2    1    1    2  501    0 -0.72189882249E+02  0.42460448402E+02  0.20696216642E+03  0.22326577685E+03  0.25500000000E-02 0.  1.
<mgrwt>
<rscale>  0 0.12362336E+03</rscale>
<asrwt>0</asrwt>
<pdfrwt beam="1">  1       11 0.10000000E+01 0.11214010E+03</pdfrwt>
<pdfrwt beam="2">  1        2 0.24098695E-02 0.12362336E+03</pdfrwt>
<totfact> 0.47991472E+03</totfact>
</mgrwt>
</event>
<event>
 5    1  0.2675386E-003  0.1805133E+03  0.7818608E-02  0.1263400E+00
         11   -1    0    0    0    0  0.00000000000E+00  0.00000000000E+00  0.10006949397E+04  0.10006949397E+04  0.51100000000E-03 0. -1.
          2   -1    0    0  501    0 -0.00000000000E+00 -0.00000000000E+00 -0.30263842546E+03  0.30263842547E+03  0.25500000000E-02 0.  1.
         11    1    1    2    0    0  0.12107408673E+03 -0.13485093597E+03  0.93755052263E+03  0.95490559319E+03  0.51100000000E-03 0. -1.
         22    1    1    2    0    0 -0.57446212154E+02 -0.30833584840E+02 -0.11307545591E+03  0.13052523118E+03  0.00000000000E+00 0. -1.
          2    1    1    2  501    0 -0.63627874575E+02  0.16568452081E+03 -0.12641855250E+03  0.21790254079E+03  0.25500000000E-02 0.  1.
<mgrwt>
<rscale>  0 0.10848549E+03</rscale>
<asrwt>0</asrwt>
<pdfrwt beam="1">  1       11 0.10000000E+01 0.18051326E+03</pdfrwt>
<pdfrwt beam="2">  1        2 0.46592113E-01 0.10848549E+03</pdfrwt>
<totfact> 0.13393596E+02</totfact>
</mgrwt>
</event>
<event>
 5    1  0.2675386E-003  0.1591137E+03  0.7818608E-02  0.1189701E+00
         11   -1    0    0    0    0  0.00000000000E+00  0.00000000000E+00  0.99978979058E+03  0.99978979058E+03  0.51100000000E-03 0. -1.
         -2   -1    0    0    0  501 -0.00000000000E+00 -0.00000000000E+00 -0.23438170419E+02  0.23438170558E+02  0.25500000000E-02 0. -1.
         11    1    1    2    0    0 -0.12256206932E+03 -0.72920408578E+02  0.54884415043E+03  0.56707032041E+03  0.51100000000E-03 0. -1.
         22    1    1    2    0    0  0.48167824727E+02  0.39241993098E+02  0.28695459558E+03  0.29360349671E+03  0.00000000000E+00 0. -1.
         -2    1    1    2    0  501  0.74394244593E+02  0.33678415481E+02  0.14055287416E+03  0.16255414402E+03  0.25500000000E-02 0. -1.
<mgrwt>
<rscale>  0 0.15911366E+03</rscale>
<asrwt>0</asrwt>
<pdfrwt beam="1">  1       11 0.10000000E+01 0.14261433E+03</pdfrwt>
<pdfrwt beam="2">  1       -2 0.36051143E-02 0.15911366E+03</pdfrwt>
<totfact> 0.24428197E+03</totfact>
</mgrwt>
</event>
<event>
 5    1  0.2675386E-003  0.2951844E+03  0.7818608E-02  0.1087673E+00
         11   -1    0    0    0    0  0.00000000000E+00  0.00000000000E+00  0.99976874241E+03  0.99976874241E+03  0.51100000000E-03 0. -1.
         -2   -1    0    0    0  501 -0.00000000000E+00 -0.00000000000E+00 -0.12209013925E+03  0.12209013927E+03  0.25500000000E-02 0.  1.
         11    1    1    2    0    0  0.11902431412E+03 -0.28268098916E+03  0.68199232170E+03  0.74778931247E+03  0.51100000000E-03 0. -1.
         22    1    1    2    0    0  0.91802038978E+01  0.21094020034E+02  0.33534503179E+02  0.40666899664E+02  0.00000000000E+00 0. -1.
         -2    1    1    2    0  501 -0.12820451802E+03  0.26158696913E+03  0.16215177828E+03  0.33340266955E+03  0.25500000000E-02 0.  1.
<mgrwt>
<rscale>  0 0.29518437E+03</rscale>
<asrwt>0</asrwt>
<pdfrwt beam="1">  1       11 0.10000000E+01 0.23005083E+02</pdfrwt>
<pdfrwt beam="2">  1       -2 0.18778754E-01 0.29518437E+03</pdfrwt>
<totfact> 0.18847251E+02</totfact>
</mgrwt>
</event>
<event>
 5    1  0.2675386E-003  0.2167746E+03  0.7818608E-02  0.1136311E+00
         11   -1    0    0    0    0  0.00000000000E+00  0.00000000000E+00  0.10007787883E+04  0.10007787883E+04  0.51100000000E-03 0. -1.
         -2   -1    0    0    0  501 -0.00000000000E+00 -0.00000000000E+00 -0.10901506615E+04  0.10901506615E+04  0.25500000000E-02 0.  1.
         11    1    1    2    0    0  0.53955638503E+02  0.20275575117E+03  0.97877378124E+03  0.10010091011E+04  0.51100000000E-03 0. -1.
         22    1    1    2    0    0  0.53137847074E+01 -0.75239723971E+02 -0.33137872954E+03  0.33985454942E+03  0.00000000000E+00 0.  1.
         -2    1    1    2    0  501 -0.59269423211E+02 -0.12751602720E+03 -0.73676692489E+03  0.75006579934E+03  0.25500000000E-02 0.  1.
<mgrwt>
<rscale>  0 0.21677460E+03</rscale>
<asrwt>0</asrwt>
<pdfrwt beam="1">  1       11 0.10000000E+01 0.20981207E+03</pdfrwt>
<pdfrwt beam="2">  1       -2 0.16784610E+00 0.21677460E+03</pdfrwt>
<totfact> 0.19396310E+00</totfact>
</mgrwt>
</event>
<event>
 5    1  0.2675386E-003  0.1750929E+03  0.7818608E-02  0.1330673E+00
         11   -1    0    0    0    0  0.00000000000E+00  0.00000000000E+00  0.10001687793E+04  0.10001687793E+04  0.51100000000E-03 0. -1.
         -2   -1    0    0    0  501 -0.00000000000E+00 -0.00000000000E+00 -0.25987563417E+03  0.25987563419E+03  0.25500000000E-02 0. -1.
         11    1    1    2    0    0 -0.93789044938E+02 -0.14443084303E+03  0.86713513476E+03  0.88407013030E+03  0.51100000000E-03 0. -1.
         22    1    1    2    0    0  0.12590988127E+03  0.21707795151E+03 -0.15109055561E+03  0.29292403662E+03  0.00000000000E+00 0. -1.
         -2    1    1    2    0  501 -0.32120836330E+02 -0.72647108479E+02  0.24248565996E+02  0.83050246576E+02  0.25500000000E-02 0. -1.
<mgrwt>
<rscale>  0 0.79431420E+02</rscale>
<asrwt>0</asrwt>
<pdfrwt beam="1">  1       11 0.10000000E+01 0.17509293E+03</pdfrwt>
<pdfrwt beam="2">  1       -2 0.39987614E-01 0.79431420E+02</pdfrwt>
<totfact> 0.47783471E+01</totfact>
</mgrwt>
</event>
<event>
 5    1  0.2675386E-003  0.7718087E+03  0.7818608E-02  0.1084060E+00
         11   -1    0    0    0    0  0.00000000000E+00  0.00000000000E+00  0.99998599785E+03  0.99998599785E+03  0.51100000000E-03 0.  1.
          2   -1    0    0  501    0 -0.00000000000E+00 -0.00000000000E+00 -0.99376386275E+03  0.99376386276E+03  0.25500000000E-02 0.  1.
         11    1    1    2    0    0 -0.18131522219E+02  0.79714793908E+03  0.44680731692E+03  0.91400785955E+03  0.51100000000E-03 0.  1.
         22    1    1    2    0    0 -0.90407850502E+02 -0.76548355608E+02 -0.31984681844E+03  0.34107948846E+03  0.00000000000E+00 0. -1.
          2    1    1    2  501    0  0.10853937272E+03 -0.72059958347E+03 -0.12073836338E+03  0.73866251260E+03  0.25500000000E-02 0.  1.
<mgrwt>
<rscale>  0 0.30237385E+03</rscale>
<asrwt>0</asrwt>
<pdfrwt beam="1">  1       11 0.10000000E+01 0.77180866E+03</pdfrwt>
<pdfrwt beam="2">  1        2 0.15288460E+00 0.30237385E+03</pdfrwt>
<totfact> 0.32966715E+01</totfact>
</mgrwt>
</event>
<event>
 5    1  0.2675386E-003  0.1498109E+03  0.7818608E-02  0.1200706E+00
         11   -1    0    0    0    0  0.00000000000E+00  0.00000000000E+00  0.10002040905E+04  0.10002040905E+04  0.51100000000E-03 0.  1.
          2   -1    0    0  501    0 -0.00000000000E+00 -0.00000000000E+00 -0.57617107847E+02  0.57617107904E+02  0.25500000000E-02 0.  1.
         11    1    1    2    0    0  0.11118995313E+03 -0.99096153088E+02  0.88480528049E+03  0.89725338541E+03  0.51100000000E-03 0.  1.
         22    1    1    2    0    0 -0.50931518459E+01  0.10175173071E+02  0.43854760718E+01  0.12194537429E+02  0.00000000000E+00 0. -1.
          2    1    1    2  501    0 -0.10609680129E+03  0.88920980018E+02  0.53396226061E+02  0.14837327554E+03  0.25500000000E-02 0.  1.
<mgrwt>
<rscale>  0 0.14981087E+03</rscale>
<asrwt>0</asrwt>
<pdfrwt beam="1">  1       11 0.10000000E+01 0.14894044E+03</pdfrwt>
<pdfrwt beam="2">  1        2 0.88659793E-02 0.14981087E+03</pdfrwt>
<totfact> 0.88779118E+02</totfact>
</mgrwt>
</event>
<event>
 5    1  0.2675386E-003  0.9239127E+03  0.7818608E-02  0.9396173E-01
         11   -1    0    0    0    0  0.00000000000E+00  0.00000000000E+00  0.10005129093E+04  0.10005129093E+04  0.51100000000E-03 0. -1.
          2   -1    0    0  501    0 -0.00000000000E+00 -0.00000000000E+00 -0.83729710024E+03  0.83729710024E+03  0.25500000000E-02 0. -1.
         11    1    1    2    0    0 -0.80809038602E+03  0.40051469325E+03  0.14575383319E+02  0.90201692517E+03  0.51100000000E-03 0. -1.
         22    1    1    2    0    0  0.22732721675E+03 -0.59458385730E+02  0.11460061492E+03  0.26143118416E+03  0.00000000000E+00 0. -1.
          2    1    1    2  501    0  0.58076316927E+03 -0.34105630752E+03  0.34039810774E+02  0.67436190017E+03  0.25500000000E-02 0. -1.
<mgrwt>
<rscale>  0 0.92391272E+03</rscale>
<asrwt>0</asrwt>
<pdfrwt beam="1">  1       11 0.10000000E+01 0.90189961E+03</pdfrwt>
<pdfrwt beam="2">  1        2 0.12888101E+00 0.92391272E+03</pdfrwt>
<totfact> 0.39881206E+01</totfact>
</mgrwt>
</event>
<event>
 5    1  0.2675386E-003  0.1349549E+03  0.7818608E-02  0.1505411E+00
         11   -1    0    0    0    0  0.00000000000E+00  0.00000000000E+00  0.10004278990E+04  0.10004278990E+04  0.51100000000E-03 0.  1.
          2   -1    0    0  501    0 -0.00000000000E+00 -0.00000000000E+00 -0.36032001905E+02  0.36032001995E+02  0.25500000000E-02 0.  1.
         11    1    1    2    0    0 -0.13332612540E+03 -0.23533728172E+02  0.81788497932E+03  0.82901479569E+03  0.51100000000E-03 0.  1.
         22    1    1    2    0    0  0.67585227756E+00  0.12065105184E+02  0.22267760739E+02  0.25335285823E+02  0.00000000000E+00 0. -1.
          2    1    1    2  501    0  0.13265027312E+03  0.11468622988E+02  0.12424315702E+03  0.18210981946E+03  0.25500000000E-02 0.  1.
<mgrwt>
<rscale>  0 0.40383132E+02</rscale>
<asrwt>0</asrwt>
<pdfrwt beam="1">  1       11 0.10000000E+01 0.13495487E+03</pdfrwt>
<pdfrwt beam="2">  1        2 0.55457568E-02 0.40383132E+02</pdfrwt>
<totfact> 0.14323261E+03</totfact>
</mgrwt>
</event>
<event>
 5    1  0.2675386E-003  0.2279288E+03  0.7818608E-02  0.1128106E+00
         11   -1    0    0    0    0  0.00000000000E+00  0.00000000000E+00  0.10000596996E+04  0.10000596997E+04  0.51100000000E-03 0. -1.
         -2   -1    0    0    0  501 -0.00000000000E+00 -0.00000000000E+00 -0.63798853563E+02  0.63798853614E+02  0.25500000000E-02 0.  1.
         11    1    1    2    0    0 -0.20330861265E+03  0.94908742402E+02  0.70211038910E+03  0.73708958739E+03  0.51100000000E-03 0. -1.
         22    1    1    2    0    0  0.13725511306E+02  0.32613050266E+00  0.26797139639E+02  0.30109512028E+02  0.00000000000E+00 0. -1.
         -2    1    1    2    0  501  0.18958310135E+03 -0.95234872905E+02  0.20735331735E+03  0.29665945385E+03  0.25500000000E-02 0.  1.
<mgrwt>
<rscale>  0 0.22792876E+03</rscale>
<asrwt>0</asrwt>
<pdfrwt beam="1">  1       11 0.10000000E+01 0.22437037E+03</pdfrwt>
<pdfrwt beam="2">  1       -2 0.98157939E-02 0.22792876E+03</pdfrwt>
<totfact> 0.54137980E+02</totfact>
</mgrwt>
</event>
<event>
 5    1  0.2675386E-003  0.1518168E+03  0.7818608E-02  0.1293683E+00
         11   -1    0    0    0    0  0.00000000000E+00  0.00000000000E+00  0.10002618696E+04  0.10002618696E+04  0.51100000000E-03 0. -1.
         -2   -1    0    0    0  501 -0.00000000000E+00 -0.00000000000E+00 -0.65027399725E+02  0.65027399775E+02  0.25500000000E-02 0. -1.
         11    1    1    2    0    0  0.38724159173E+01 -0.15576208025E+03  0.82139309366E+03  0.83604033130E+03  0.51100000000E-03 0. -1.
         22    1    1    2    0    0  0.48805059878E+02  0.31471456912E+02  0.61166858962E+02  0.84343174621E+02  0.00000000000E+00 0. -1.
         -2    1    1    2    0  501 -0.52677475795E+02  0.12429062333E+03  0.52674517236E+02  0.14490576344E+03  0.25500000000E-02 0. -1.
<mgrwt>
<rscale>  0 0.93895394E+02</rscale>
<asrwt>0</asrwt>
<pdfrwt beam="1">  1       11 0.10000000E+01 0.15181683E+03</pdfrwt>
<pdfrwt beam="2">  1       -2 0.10006835E-01 0.93895394E+02</pdfrwt>
<totfact> 0.49799658E+02</totfact>
</mgrwt>
</event>
<event>
 5    1  0.2675386E-003  0.1516230E+03  0.7818608E-02  0.1198493E+00
         11   -1    0    0    0    0  0.00000000000E+00  0.00000000000E+00  0.10001300450E+04  0.10001300450E+04  0.51100000000E-03 0. -1.
          2   -1    0    0  501    0 -0.00000000000E+00 -0.00000000000E+00 -0.25343111416E+02  0.25343111544E+02  0.25500000000E-02 0. -1.
         11    1    1    2    0    0 -0.10661516616E+02  0.14441959749E+03  0.66482490964E+03  0.68041373336E+03  0.51100000000E-03 0. -1.
         22    1    1    2    0    0  0.16201482495E+02 -0.30476815991E+02  0.10449762168E+03  0.11005033978E+03  0.00000000000E+00 0. -1.
          2    1    1    2  501    0 -0.55399658795E+01 -0.11394278150E+03  0.20546440226E+03  0.23500908340E+03  0.25500000000E-02 0. -1.
<mgrwt>
<rscale>  0 0.15162305E+03</rscale>
<asrwt>0</asrwt>
<pdfrwt beam="1">  1       11 0.10000000E+01 0.14481260E+03</pdfrwt>
<pdfrwt beam="2">  1        2 0.38994472E-02 0.15162305E+03</pdfrwt>
<totfact> 0.25675081E+03</totfact>
</mgrwt>
</event>
<event>
 5    1  0.2675386E-003  0.3209572E+03  0.7818608E-02  0.1075210E+00
         11   -1    0    0    0    0  0.00000000000E+00  0.00000000000E+00  0.10011853564E+04  0.10011853564E+04  0.51100000000E-03 0. -1.
          2   -1    0    0  501    0 -0.00000000000E+00 -0.00000000000E+00 -0.13209088274E+04  0.13209088275E+04  0.25500000000E-02 0. -1.
         11    1    1    2    0    0 -0.20391270965E+03  0.23670162724E+03  0.95644790721E+03  0.10061812226E+04  0.51100000000E-03 0. -1.
         22    1    1    2    0    0  0.43946650941E+02 -0.63180729958E+02 -0.20304398624E+03  0.21714044560E+03  0.00000000000E+00 0.  1.
          2    1    1    2  501    0  0.15996605870E+03 -0.17352089728E+03 -0.10731273920E+04  0.10987725157E+04  0.25500000000E-02 0. -1.
<mgrwt>
<rscale>  0 0.32095722E+03</rscale>
<asrwt>0</asrwt>
<pdfrwt beam="1">  1       11 0.10000000E+01 0.31242288E+03</pdfrwt>
<pdfrwt beam="2">  1        2 0.20345762E+00 0.32095722E+03</pdfrwt>
<totfact> 0.21133489E+01</totfact>
</mgrwt>
</event>
<event>
 5    1  0.3019957E-003  0.1689220E+03  0.7818608E-02  0.1178977E+00
         11   -1    0    0    0    0  0.00000000000E+00  0.00000000000E+00  0.10000586788E+04  0.10000586788E+04  0.51100000000E-03 0. -1.
         -2   -1    0    0    0  501 -0.00000000000E+00 -0.00000000000E+00 -0.21459334310E+03  0.21459334311E+03  0.25500000000E-02 0.  1.
         11    1    1    2    0    0 -0.15697589703E+03  0.57996397773E+02  0.95840329809E+03  0.97290384735E+03  0.51100000000E-03 0. -1.
         22    1    1    2    0    0  0.19234323675E+02 -0.33073731019E+01 -0.11733812903E+02  0.22772358010E+02  0.00000000000E+00 0. -1.
         -2    1    1    2    0  501  0.13774157335E+03 -0.54689024671E+02 -0.16120414944E+03  0.21897581659E+03  0.25500000000E-02 0.  1.
<mgrwt>
<rscale>  0 0.16892200E+03</rscale>
<asrwt>0</asrwt>
<pdfrwt beam="1">  1       11 0.10000000E+01 0.16734699E+03</pdfrwt>
<pdfrwt beam="2">  1       -2 0.33016297E-01 0.16892200E+03</pdfrwt>
<totfact> 0.68783055E+01</totfact>
</mgrwt>
</event>
<event>
 5    1  0.2675386E-003  0.1475845E+03  0.7818608E-02  0.1203473E+00
         11   -1    0    0    0    0  0.00000000000E+00  0.00000000000E+00  0.10000738922E+04  0.10000738922E+04  0.51100000000E-03 0.  1.
          2   -1    0    0  501    0 -0.00000000000E+00 -0.00000000000E+00 -0.42067942937E+02  0.42067943014E+02  0.25500000000E-02 0.  1.
         11    1    1    2    0    0  0.87847677027E+02 -0.11261061919E+03  0.84306916071E+03  0.85508126845E+03  0.51100000000E-03 0.  1.
         22    1    1    2    0    0 -0.20015495814E+02  0.44693892049E+02  0.56130699556E+02  0.74490398655E+02  0.00000000000E+00 0.  1.
          2    1    1    2  501    0 -0.67832181213E+02  0.67916727144E+02  0.58806088955E+02  0.11257016807E+03  0.25500000000E-02 0.  1.
<mgrwt>
<rscale>  0 0.14758452E+03</rscale>
<asrwt>0</asrwt>
<pdfrwt beam="1">  1       11 0.10000000E+01 0.14282285E+03</pdfrwt>
<pdfrwt beam="2">  1        2 0.64724693E-02 0.14758452E+03</pdfrwt>
<totfact> 0.13204869E+03</totfact>
</mgrwt>
</event>
<event>
 5    1  0.4867842E-003  0.3372040E+03  0.7818608E-02  0.1067993E+00
         11   -1    0    0    0    0  0.00000000000E+00  0.00000000000E+00  0.10002979500E+04  0.10002979500E+04  0.51100000000E-03 0. -1.
          2   -1    0    0  501    0 -0.00000000000E+00 -0.00000000000E+00 -0.78883353776E+03  0.78883353776E+03  0.25500000000E-02 0.  1.
         11    1    1    2    0    0 -0.18215661526E+03 -0.28166971632E+03  0.93366146366E+03  0.99209001118E+03  0.51100000000E-03 0. -1.
         22    1    1    2    0    0  0.13304461912E+01  0.11149816049E+02 -0.33778278663E+02  0.35595794617E+02  0.00000000000E+00 0.  1.
          2    1    1    2  501    0  0.18082616907E+03  0.27051990027E+03 -0.68841877276E+03  0.76144568195E+03  0.25500000000E-02 0.  1.
<mgrwt>
<rscale>  0 0.33720400E+03</rscale>
<asrwt>0</asrwt>
<pdfrwt beam="1">  1       11 0.10000000E+01 0.33543831E+03</pdfrwt>
<pdfrwt beam="2">  1        2 0.12139516E+00 0.33720400E+03</pdfrwt>
<totfact> 0.44758348E+01</totfact>
</mgrwt>
</event>
<event>
 5    1  0.2675386E-003  0.1183053E+03  0.7818608E-02  0.1245919E+00
         11   -1    0    0    0    0  0.00000000000E+00  0.00000000000E+00  0.10002707072E+04  0.10002707072E+04  0.51100000000E-03 0. -1.
         -2   -1    0    0    0  501 -0.00000000000E+00 -0.00000000000E+00 -0.14101373943E+02  0.14101374174E+02  0.25500000000E-02 0.  1.
         11    1    1    2    0    0  0.93489964158E+02  0.67039271714E+02  0.58118884299E+03  0.59246528047E+03  0.51100000000E-03 0. -1.
         22    1    1    2    0    0 -0.20769783409E+02 -0.74716181230E+01  0.11405908054E+03  0.11617522470E+03  0.00000000000E+00 0.  1.
         -2    1    1    2    0  501 -0.72720180749E+02 -0.59567653591E+02  0.29092140971E+03  0.30573157619E+03  0.25500000000E-02 0.  1.
<mgrwt>
<rscale>  0 0.11830533E+03</rscale>
<asrwt>0</asrwt>
<pdfrwt beam="1">  1       11 0.10000000E+01 0.11504189E+03</pdfrwt>
<pdfrwt beam="2">  1       -2 0.21700294E-02 0.11830533E+03</pdfrwt>
<totfact> 0.49800557E+03</totfact>
</mgrwt>
</event>
