<event>
 5    1  0.2226716E-003  0.1460059E+03  0.7818608E-02  0.1205469E+00
         11   -1    0    0    0    0  0.00000000000E+00  0.00000000000E+00  0.10002568006E+04  0.10002568006E+04  0.51100000000E-03 0.  1.
          2   -1    0    0  501    0 -0.00000000000E+00 -0.00000000000E+00 -0.37900355293E+02  0.37900355379E+02  0.25500000000E-02 0.  1.
         11    1    1    2    0    0 -0.57150734994E+02  0.11444595906E+03  0.29355143830E+03  0.32021325860E+03  0.51100000000E-03 0.  1.
         22    1    1    2    0    0  0.31798781820E+02  0.52292389628E+02  0.36826192025E+03  0.37331286938E+03  0.00000000000E+00 0.  1.
          2    1    1    2  501    0  0.25351953175E+02 -0.16673834869E+03  0.30054308675E+03  0.34463102799E+03  0.25500000000E-02 0.  1.
<mgrwt>
<rscale>  0 0.14600587E+03</rscale>
<asrwt>0</asrwt>
<pdfrwt beam="1">  1       11 0.10000000E+01 0.61201769E+02</pdfrwt>
<pdfrwt beam="2">  1        2 0.58323211E-02 0.14600587E+03</pdfrwt>
<totfact> 0.15088557E+03</totfact>
</mgrwt>
</event>
<event>
 5    1  0.2226716E-003  0.5795433E+03  0.7818608E-02  0.9948780E-01
         11   -1    0    0    0    0  0.00000000000E+00  0.00000000000E+00  0.10004506179E+04  0.10004506179E+04  0.51100000000E-03 0.  1.
          2   -1    0    0  501    0 -0.00000000000E+00 -0.00000000000E+00 -0.35583997770E+03  0.35583997771E+03  0.25500000000E-02 0.  1.
         11    1    1    2    0    0 -0.22307767408E+03 -0.53086997094E+03  0.31151917829E+03  0.65469899432E+03  0.51100000000E-03 0.  1.
         22    1    1    2    0    0 -0.13140792356E+02 -0.22982092332E+01  0.53015427026E+02  0.54668068305E+02  0.00000000000E+00 0.  1.
          2    1    1    2  501    0  0.23621846643E+03  0.53316818017E+03  0.28007603492E+03  0.64692353302E+03  0.25500000000E-02 0.  1.
<mgrwt>
<rscale>  0 0.57954326E+03</rscale>
<asrwt>0</asrwt>
<pdfrwt beam="1">  1       11 0.10000000E+01 0.13340247E+02</pdfrwt>
<pdfrwt beam="2">  1        2 0.54769279E-01 0.57954326E+03</pdfrwt>
<totfact> 0.11228094E+02</totfact>
</mgrwt>
</event>
<event>
 5    1  0.2226716E-003  0.3456110E+03  0.7818608E-02  0.1064431E+00
         11   -1    0    0    0    0  0.00000000000E+00  0.00000000000E+00  0.10002084055E+04  0.10002084055E+04  0.51100000000E-03 0.  1.
         -2   -1    0    0    0  501 -0.00000000000E+00 -0.00000000000E+00 -0.22321659939E+03  0.22321659941E+03  0.25500000000E-02 0. -1.
         11    1    1    2    0    0 -0.43013640875E+02 -0.33866533307E+03  0.74531795381E+03  0.81978243052E+03  0.51100000000E-03 0.  1.
         22    1    1    2    0    0 -0.15460951348E+02 -0.29083394309E+01  0.54133142806E+02  0.56372835701E+02  0.00000000000E+00 0.  1.
         -2    1    1    2    0  501  0.58474592224E+02  0.34157367250E+03 -0.22459290495E+02  0.34726973870E+03  0.25500000000E-02 0. -1.
<mgrwt>
<rscale>  0 0.34561096E+03</rscale>
<asrwt>0</asrwt>
<pdfrwt beam="1">  1       11 0.10000000E+01 0.15732115E+02</pdfrwt>
<pdfrwt beam="2">  1       -2 0.34348171E-01 0.34561096E+03</pdfrwt>
<totfact> 0.64329789E+01</totfact>
</mgrwt>
</event>
<event>
 5    1  0.2501311E-003  0.1826025E+03  0.7818608E-02  0.1165308E+00
         11   -1    0    0    0    0  0.00000000000E+00  0.00000000000E+00  0.99983522969E+03  0.99983522969E+03  0.51100000000E-03 0. -1.
          2   -1    0    0  501    0 -0.00000000000E+00 -0.00000000000E+00 -0.10196517838E+04  0.10196517838E+04  0.25500000000E-02 0. -1.
         11    1    1    2    0    0 -0.91580362271E+02 -0.17111475994E+03  0.95542365452E+03  0.97493670741E+03  0.51100000000E-03 0. -1.
         22    1    1    2    0    0 -0.50531621087E+01  0.16288856567E+02  0.23631059707E+02  0.29142550994E+02  0.00000000000E+00 0.  1.
          2    1    1    2  501    0  0.96633524379E+02  0.15482590338E+03 -0.99887126833E+03  0.10154077551E+04  0.25500000000E-02 0. -1.
<mgrwt>
<rscale>  0 0.18260248E+03</rscale>
<asrwt>0</asrwt>
<pdfrwt beam="1">  1       11 0.10000000E+01 0.17054656E+02</pdfrwt>
<pdfrwt beam="2">  1        2 0.15684365E+00 0.18260248E+03</pdfrwt>
<totfact> 0.32585351E+01</totfact>
</mgrwt>
</event>
<event>
 5    1  0.2226716E-003  0.1198504E+03  0.7818608E-02  0.1432868E+00
         11   -1    0    0    0    0  0.00000000000E+00  0.00000000000E+00  0.10003559110E+04  0.10003559110E+04  0.51100000000E-03 0.  1.
          2   -1    0    0  501    0 -0.00000000000E+00 -0.00000000000E+00 -0.16677152627E+03  0.16677152629E+03  0.25500000000E-02 0.  1.
         11    1    1    2    0    0  0.40504668923E+02 -0.88081207346E+02  0.27064684745E+03  0.28748677070E+03  0.51100000000E-03 0.  1.
         22    1    1    2    0    0 -0.24490242198E+02  0.13796201087E+03  0.70991231226E+03  0.72360816711E+03  0.00000000000E+00 0.  1.
          2    1    1    2  501    0 -0.16014426725E+02 -0.49880803520E+02 -0.14697477495E+03  0.15603249951E+03  0.25500000000E-02 0.  1.
<mgrwt>
<rscale>  0 0.52388514E+02</rscale>
<asrwt>0</asrwt>
<pdfrwt beam="1">  1       11 0.10000000E+01 0.11985043E+03</pdfrwt>
<pdfrwt beam="2">  1        2 0.25666289E-01 0.52388514E+02</pdfrwt>
<totfact> 0.24738126E+02</totfact>
</mgrwt>
</event>
<event>
 5    1  0.2226716E-003  0.3511815E+03  0.7818608E-02  0.1174259E+00
         11   -1    0    0    0    0  0.00000000000E+00  0.00000000000E+00  0.99948093670E+03  0.99948093670E+03  0.51100000000E-03 0. -1.
          2   -1    0    0  501    0 -0.00000000000E+00 -0.00000000000E+00 -0.12729807504E+04  0.12729807504E+04  0.25500000000E-02 0. -1.
         11    1    1    2    0    0 -0.27935750963E+03 -0.12078569727E+03  0.40063202464E+02  0.30697697478E+03  0.51100000000E-03 0. -1.
         22    1    1    2    0    0  0.23830962797E+03  0.28934726040E+03  0.77621290881E+03  0.86198596026E+03  0.00000000000E+00 0. -1.
          2    1    1    2  501    0  0.41047881662E+02 -0.16856156312E+03 -0.10897759249E+04  0.11034987520E+04  0.25500000000E-02 0. -1.
<mgrwt>
<rscale>  0 0.17348755E+03</rscale>
<asrwt>0</asrwt>
<pdfrwt beam="1">  1       11 0.10000000E+01 0.35118154E+03</pdfrwt>
<pdfrwt beam="2">  1        2 0.19574153E+00 0.17348755E+03</pdfrwt>
<totfact> 0.23435515E+01</totfact>
</mgrwt>
</event>
<event>
 5    1  0.2226716E-003  0.2509527E+03  0.7818608E-02  0.1115050E+00
         11   -1    0    0    0    0  0.00000000000E+00  0.00000000000E+00  0.10000284068E+04  0.10000284068E+04  0.51100000000E-03 0. -1.
          2   -1    0    0  501    0 -0.00000000000E+00 -0.00000000000E+00 -0.40255740391E+03  0.40255740391E+03  0.25500000000E-02 0. -1.
         11    1    1    2    0    0 -0.14810385866E+03  0.18035937015E+03  0.87731553798E+03  0.90782531829E+03  0.51100000000E-03 0. -1.
         22    1    1    2    0    0 -0.79859369882E-01  0.17575976133E+02  0.66740714280E+02  0.69016260817E+02  0.00000000000E+00 0.  1.
          2    1    1    2  501    0  0.14818371803E+03 -0.19793534628E+03 -0.34658524941E+03  0.42574423156E+03  0.25500000000E-02 0. -1.
<mgrwt>
<rscale>  0 0.24725860E+03</rscale>
<asrwt>0</asrwt>
<pdfrwt beam="1">  1       11 0.10000000E+01 0.25095271E+03</pdfrwt>
<pdfrwt beam="2">  1        2 0.61933666E-01 0.24725860E+03</pdfrwt>
<totfact> 0.98662980E+01</totfact>
</mgrwt>
</event>
<event>
 5    1  0.2226716E-003  0.2952093E+03  0.7818608E-02  0.1087660E+00
         11   -1    0    0    0    0  0.00000000000E+00  0.00000000000E+00  0.10002301389E+04  0.10002301389E+04  0.51100000000E-03 0. -1.
          2   -1    0    0  501    0 -0.00000000000E+00 -0.00000000000E+00 -0.10701900762E+03  0.10701900765E+03  0.25500000000E-02 0. -1.
         11    1    1    2    0    0 -0.28633965263E+03 -0.88829660529E+02  0.24382031777E+03  0.38643169205E+03  0.51100000000E-03 0. -1.
         22    1    1    2    0    0  0.78947583308E+01  0.20030527600E+02  0.85561931187E+02  0.88229208959E+02  0.00000000000E+00 0.  1.
          2    1    1    2  501    0  0.27844489430E+03  0.68799132928E+02  0.56382888227E+03  0.63258824550E+03  0.25500000000E-02 0. -1.
<mgrwt>
<rscale>  0 0.29520931E+03</rscale>
<asrwt>0</asrwt>
<pdfrwt beam="1">  1       11 0.10000000E+01 0.21530194E+02</pdfrwt>
<pdfrwt beam="2">  1        2 0.16468251E-01 0.29520931E+03</pdfrwt>
<totfact> 0.43120960E+02</totfact>
</mgrwt>
</event>
<event>
 5    1  0.2226716E-003  0.2102187E+03  0.7818608E-02  0.1152774E+00
         11   -1    0    0    0    0  0.00000000000E+00  0.00000000000E+00  0.99994467791E+03  0.99994467791E+03  0.51100000000E-03 0.  1.
          2   -1    0    0  501    0 -0.00000000000E+00 -0.00000000000E+00 -0.96920417398E+03  0.96920417399E+03  0.25500000000E-02 0.  1.
         11    1    1    2    0    0  0.21785111343E+03 -0.73659762221E+02  0.27384988631E+03  0.35760121424E+03  0.51100000000E-03 0.  1.
         22    1    1    2    0    0 -0.80622156052E+02  0.21422574984E+03  0.65414738908E+03  0.69303781325E+03  0.00000000000E+00 0.  1.
          2    1    1    2  501    0 -0.13722895738E+03 -0.14056598762E+03 -0.89725677146E+03  0.91850982442E+03  0.25500000000E-02 0.  1.
<mgrwt>
<rscale>  0 0.19644486E+03</rscale>
<asrwt>0</asrwt>
<pdfrwt beam="1">  1       11 0.10000000E+01 0.21021875E+03</pdfrwt>
<pdfrwt beam="2">  1        2 0.14910008E+00 0.19644486E+03</pdfrwt>
<totfact> 0.34839582E+01</totfact>
</mgrwt>
</event>
<event>
 5    1  0.2226716E-003  0.1228440E+03  0.7818608E-02  0.1238478E+00
         11   -1    0    0    0    0  0.00000000000E+00  0.00000000000E+00  0.10003895733E+04  0.10003895733E+04  0.51100000000E-03 0.  1.
          2   -1    0    0  501    0 -0.00000000000E+00 -0.00000000000E+00 -0.17465364834E+02  0.17465365020E+02  0.25500000000E-02 0.  1.
         11    1    1    2    0    0 -0.11323535796E+03  0.26515330735E+02  0.69733210746E+03  0.70696349068E+03  0.51100000000E-03 0.  1.
         22    1    1    2    0    0  0.14325417614E+02 -0.14001977345E+02  0.26065182060E+02  0.32873495026E+02  0.00000000000E+00 0.  1.
          2    1    1    2  501    0  0.98909940346E+02 -0.12513353390E+02  0.25952691892E+03  0.27801795259E+03  0.25500000000E-02 0.  1.
<mgrwt>
<rscale>  0 0.12284398E+03</rscale>
<asrwt>0</asrwt>
<pdfrwt beam="1">  1       11 0.10000000E+01 0.11629836E+03</pdfrwt>
<pdfrwt beam="2">  1        2 0.26880259E-02 0.12284398E+03</pdfrwt>
<totfact> 0.41384572E+03</totfact>
</mgrwt>
</event>
<event>
 5    1  0.2226716E-003  0.1672386E+03  0.7818608E-02  0.1377059E+00
         11   -1    0    0    0    0  0.00000000000E+00  0.00000000000E+00  0.10004866551E+04  0.10004866551E+04  0.51100000000E-03 0. -1.
          2   -1    0    0  501    0 -0.00000000000E+00 -0.00000000000E+00 -0.28711695885E+03  0.28711695887E+03  0.25500000000E-02 0. -1.
         11    1    1    2    0    0 -0.90308011947E+02  0.16037779699E+03  0.62146670596E+03  0.64814924316E+03  0.51100000000E-03 0. -1.
         22    1    1    2    0    0  0.11489918895E+03 -0.99946578174E+02  0.34551392418E+03  0.37758577027E+03  0.00000000000E+00 0. -1.
          2    1    1    2  501    0 -0.24591177000E+02 -0.60431218818E+02 -0.25361093385E+03  0.26186860058E+03  0.25500000000E-02 0. -1.
<mgrwt>
<rscale>  0 0.65243070E+02</rscale>
<asrwt>0</asrwt>
<pdfrwt beam="1">  1       11 0.10000000E+01 0.16723858E+03</pdfrwt>
<pdfrwt beam="2">  1        2 0.44193335E-01 0.65243070E+02</pdfrwt>
<totfact> 0.14092194E+02</totfact>
</mgrwt>
</event>
<event>
 5    1  0.2226716E-003  0.1182577E+03  0.7818608E-02  0.1274459E+00
         11   -1    0    0    0    0  0.00000000000E+00  0.00000000000E+00  0.10003087369E+04  0.10003087369E+04  0.51100000000E-03 0.  1.
          2   -1    0    0  501    0 -0.00000000000E+00 -0.00000000000E+00 -0.73040836123E+03  0.73040836123E+03  0.25500000000E-02 0.  1.
         11    1    1    2    0    0  0.62551110064E+02 -0.13843079126E+03  0.56474645697E+03  0.58481987483E+03  0.51100000000E-03 0.  1.
         22    1    1    2    0    0  0.34265214806E+02  0.10378647676E+03  0.41473975917E+03  0.42889952850E+03  0.00000000000E+00 0.  1.
          2    1    1    2  501    0 -0.96816324870E+02  0.34644314498E+02 -0.70958584049E+03  0.71699769478E+03  0.25500000000E-02 0.  1.
<mgrwt>
<rscale>  0 0.10282815E+03</rscale>
<asrwt>0</asrwt>
<pdfrwt beam="1">  1       11 0.10000000E+01 0.11825767E+03</pdfrwt>
<pdfrwt beam="2">  1        2 0.11240521E+00 0.10282815E+03</pdfrwt>
<totfact> 0.51245845E+01</totfact>
</mgrwt>
</event>
<event>
 5    1  0.2226716E-003  0.5659708E+02  0.7818608E-02  0.1639774E+00
         11   -1    0    0    0    0  0.00000000000E+00  0.00000000000E+00  0.10004229488E+04  0.10004229488E+04  0.51100000000E-03 0. -1.
          2   -1    0    0  501    0 -0.00000000000E+00 -0.00000000000E+00 -0.65739958477E+01  0.65739963423E+01  0.25500000000E-02 0. -1.
         11    1    1    2    0    0  0.46222191480E+02  0.47562247887E+02  0.22325953553E+03  0.23290229414E+03  0.51100000000E-03 0. -1.
         22    1    1    2    0    0 -0.56990869238E+01 -0.11067460771E+02  0.53269576763E+02  0.54704808639E+02  0.00000000000E+00 0. -1.
          2    1    1    2  501    0 -0.40523104557E+02 -0.36494787115E+02  0.71731984070E+03  0.71938984240E+03  0.25500000000E-02 0. -1.
<mgrwt>
<rscale>  0 0.26543464E+02</rscale>
<asrwt>0</asrwt>
<pdfrwt beam="1">  1       11 0.10000000E+01 0.56597079E+02</pdfrwt>
<pdfrwt beam="2">  1        2 0.10118117E-02 0.26543464E+02</pdfrwt>
<totfact> 0.11967026E+04</totfact>
</mgrwt>
</event>
<event>
 5    1  0.2226716E-003  0.1983014E+03  0.7818608E-02  0.1151180E+00
         11   -1    0    0    0    0  0.00000000000E+00  0.00000000000E+00  0.10003543150E+04  0.10003543150E+04  0.51100000000E-03 0. -1.
          2   -1    0    0  501    0 -0.00000000000E+00 -0.00000000000E+00 -0.66817119106E+02  0.66817119155E+02  0.25500000000E-02 0. -1.
         11    1    1    2    0    0  0.44982439997E+02 -0.20541107840E+03  0.72266216732E+03  0.75263386790E+03  0.51100000000E-03 0. -1.
         22    1    1    2    0    0  0.17292287216E+02  0.20189854523E+02  0.66386139212E+02  0.71510648874E+02  0.00000000000E+00 0. -1.
          2    1    1    2  501    0 -0.62274727212E+02  0.18522122388E+03  0.14448888940E+03  0.24302691742E+03  0.25500000000E-02 0. -1.
<mgrwt>
<rscale>  0 0.19830144E+03</rscale>
<asrwt>0</asrwt>
<pdfrwt beam="1">  1       11 0.10000000E+01 0.26582954E+02</pdfrwt>
<pdfrwt beam="2">  1        2 0.10283199E-01 0.19830144E+03</pdfrwt>
<totfact> 0.74999164E+02</totfact>
</mgrwt>
</event>
<event>
 5    1  0.2226716E-003  0.1468966E+03  0.7818608E-02  0.1632919E+00
         11   -1    0    0    0    0  0.00000000000E+00  0.00000000000E+00  0.10002842715E+04  0.10002842715E+04  0.51100000000E-03 0. -1.
          2   -1    0    0  501    0 -0.00000000000E+00 -0.00000000000E+00 -0.84829035752E+03  0.84829035753E+03  0.25500000000E-02 0. -1.
         11    1    1    2    0    0  0.13825001011E+03 -0.25273369458E+02  0.48071794238E+03  0.50084084161E+03  0.51100000000E-03 0. -1.
         22    1    1    2    0    0 -0.14671507027E+03  0.50987004300E+02  0.49744055780E+03  0.52112579575E+03  0.00000000000E+00 0. -1.
          2    1    1    2  501    0  0.84650601528E+01 -0.25713634842E+02 -0.82616458624E+03  0.82660799163E+03  0.25500000000E-02 0. -1.
<mgrwt>
<rscale>  0 0.27071170E+02</rscale>
<asrwt>0</asrwt>
<pdfrwt beam="1">  1       11 0.10000000E+01 0.14689660E+03</pdfrwt>
<pdfrwt beam="2">  1        2 0.13054330E+00 0.27071170E+02</pdfrwt>
<totfact> 0.45123854E+01</totfact>
</mgrwt>
</event>
<event>
 5    1  0.2226716E-003  0.1106524E+03  0.7818608E-02  0.1259366E+00
         11   -1    0    0    0    0  0.00000000000E+00  0.00000000000E+00  0.10002503412E+04  0.10002503412E+04  0.51100000000E-03 0.  1.
          2   -1    0    0  501    0 -0.00000000000E+00 -0.00000000000E+00 -0.22181107944E+03  0.22181107946E+03  0.25500000000E-02 0.  1.
         11    1    1    2    0    0  0.17566669035E+03 -0.49197695175E+02  0.59076822881E+03  0.61829305308E+03  0.51100000000E-03 0.  1.
         22    1    1    2    0    0 -0.69193104779E+02  0.26160997388E+02  0.37762050953E+03  0.38479778164E+03  0.00000000000E+00 0.  1.
          2    1    1    2  501    0 -0.10647358558E+03  0.23036697787E+02 -0.18994947656E+03  0.21897058597E+03  0.25500000000E-02 0.  1.
<mgrwt>
<rscale>  0 0.11065241E+03</rscale>
<asrwt>0</asrwt>
<pdfrwt beam="1">  1       11 0.10000000E+01 0.73973533E+02</pdfrwt>
<pdfrwt beam="2">  1        2 0.34133323E-01 0.11065241E+03</pdfrwt>
<totfact> 0.18611736E+02</totfact>
</mgrwt>
</event>
<event>
 5    1  0.2226716E-003  0.2258495E+03  0.7818608E-02  0.1129596E+00
         11   -1    0    0    0    0  0.00000000000E+00  0.00000000000E+00  0.99988083600E+03  0.99988083600E+03  0.51100000000E-03 0. -1.
          2   -1    0    0  501    0 -0.00000000000E+00 -0.00000000000E+00 -0.69638759380E+02  0.69638759426E+02  0.25500000000E-02 0. -1.
         11    1    1    2    0    0 -0.21827983140E+03 -0.89008769286E+02  0.32664809499E+03  0.40282455706E+03  0.51100000000E-03 0. -1.
         22    1    1    2    0    0  0.17813449244E+01  0.64748418789E+02  0.15544179482E+03  0.16839739458E+03  0.00000000000E+00 0.  1.
          2    1    1    2  501    0  0.21649848648E+03  0.24260350497E+02  0.44815218680E+03  0.49829764378E+03  0.25500000000E-02 0. -1.
<mgrwt>
<rscale>  0 0.22584949E+03</rscale>
<asrwt>0</asrwt>
<pdfrwt beam="1">  1       11 0.10000000E+01 0.64772918E+02</pdfrwt>
<pdfrwt beam="2">  1        2 0.10712378E-01 0.22584949E+03</pdfrwt>
<totfact> 0.71758101E+02</totfact>
</mgrwt>
</event>
<event>
 5    1  0.3594595E-003  0.1621888E+03  0.7818608E-02  0.1186248E+00
         11   -1    0    0    0    0  0.00000000000E+00  0.00000000000E+00  0.99999915140E+03  0.99999915140E+03  0.51100000000E-03 0. -1.
          2   -1    0    0  501    0 -0.00000000000E+00 -0.00000000000E+00 -0.92538514953E+03  0.92538514954E+03  0.25500000000E-02 0. -1.
         11    1    1    2    0    0  0.97990710951E+02 -0.11410662166E+03  0.86853093793E+03  0.88145816162E+03  0.51100000000E-03 0. -1.
         22    1    1    2    0    0 -0.82650761234E+01 -0.21129825494E+02  0.11673796825E+03  0.11892238746E+03  0.00000000000E+00 0. -1.
          2    1    1    2  501    0 -0.89725634828E+02  0.13523644715E+03 -0.91065490432E+03  0.92500375186E+03  0.25500000000E-02 0. -1.
<mgrwt>
<rscale>  0 0.16218879E+03</rscale>
<asrwt>0</asrwt>
<pdfrwt beam="1">  1       11 0.10000000E+01 0.22688786E+02</pdfrwt>
<pdfrwt beam="2">  1        2 0.14236682E+00 0.16218879E+03</pdfrwt>
<totfact> 0.37415965E+01</totfact>
</mgrwt>
</event>
<event>
 5    1  0.3767559E-003  0.3500994E+03  0.7818608E-02  0.1064447E+00
         11   -1    0    0    0    0  0.00000000000E+00  0.00000000000E+00  0.10010127125E+04  0.10010127125E+04  0.51100000000E-03 0. -1.
          2   -1    0    0  501    0 -0.00000000000E+00 -0.00000000000E+00 -0.10962139215E+04  0.10962139215E+04  0.25500000000E-02 0. -1.
         11    1    1    2    0    0 -0.24728403999E+03 -0.22126630490E+03  0.86144673345E+03  0.92314606032E+03  0.51100000000E-03 0. -1.
         22    1    1    2    0    0 -0.72748868606E+01 -0.12444977442E+02  0.80031863964E+02  0.81319743555E+02  0.00000000000E+00 0.  1.
          2    1    1    2  501    0  0.25455892685E+03  0.23371128234E+03 -0.10366798064E+04  0.10927608301E+04  0.25500000000E-02 0. -1.
<mgrwt>
<rscale>  0 0.34557374E+03</rscale>
<asrwt>0</asrwt>
<pdfrwt beam="1">  1       11 0.10000000E+01 0.35009942E+03</pdfrwt>
<pdfrwt beam="2">  1        2 0.16881908E+00 0.34557374E+03</pdfrwt>
<totfact> 0.28335005E+01</totfact>
</mgrwt>
</event>
<event>
 5    1  0.2226716E-003  0.1650886E+03  0.7818608E-02  0.1452254E+00
         11   -1    0    0    0    0  0.00000000000E+00  0.00000000000E+00  0.10000746775E+04  0.10000746775E+04  0.51100000000E-03 0.  1.
          2   -1    0    0  501    0 -0.00000000000E+00 -0.00000000000E+00 -0.31065938042E+03  0.31065938043E+03  0.25500000000E-02 0.  1.
         11    1    1    2    0    0 -0.17541578002E+03  0.11261320910E+03 -0.18914765416E+03  0.28147693657E+03  0.51100000000E-03 0.  1.
         22    1    1    2    0    0  0.12771810385E+03 -0.10258314305E+03  0.93811016564E+03  0.95230556974E+03  0.00000000000E+00 0.  1.
          2    1    1    2  501    0  0.47697676172E+02 -0.10030066058E+02 -0.59547214434E+02  0.76951551581E+02  0.25500000000E-02 0.  1.
<mgrwt>
<rscale>  0 0.48740851E+02</rscale>
<asrwt>0</asrwt>
<pdfrwt beam="1">  1       11 0.10000000E+01 0.16508858E+03</pdfrwt>
<pdfrwt beam="2">  1        2 0.47797319E-01 0.48740851E+02</pdfrwt>
<totfact> 0.12962512E+02</totfact>
</mgrwt>
</event>
<event>
 5    1  0.2226716E-003  0.1397157E+03  0.7818608E-02  0.1213712E+00
         11   -1    0    0    0    0  0.00000000000E+00  0.00000000000E+00  0.10000856426E+04  0.10000856426E+04  0.51100000000E-03 0.  1.
          2   -1    0    0  501    0 -0.00000000000E+00 -0.00000000000E+00 -0.21715995122E+02  0.21715995272E+02  0.25500000000E-02 0.  1.
         11    1    1    2    0    0 -0.26656268096E+02 -0.13588365983E+03  0.65602933412E+03  0.67048446132E+03  0.51100000000E-03 0.  1.
         22    1    1    2    0    0 -0.10273915571E+00  0.15534139175E+02  0.50283989638E+02  0.52628886072E+02  0.00000000000E+00 0.  1.
          2    1    1    2  501    0  0.26759007251E+02  0.12034952065E+03  0.27205632371E+03  0.29868829047E+03  0.25500000000E-02 0.  1.
<mgrwt>
<rscale>  0 0.13971571E+03</rscale>
<asrwt>0</asrwt>
<pdfrwt beam="1">  1       11 0.10000000E+01 0.13847356E+03</pdfrwt>
<pdfrwt beam="2">  1        2 0.33412084E-02 0.13971571E+03</pdfrwt>
<totfact> 0.31314652E+03</totfact>
</mgrwt>
</event>
<event>
 5    1  0.2226716E-003  0.4214312E+02  0.7818608E-02  0.1731715E+00
         11   -1    0    0    0    0  0.00000000000E+00  0.00000000000E+00  0.10003346931E+04  0.10003346931E+04  0.51100000000E-03 0.  1.
         -2   -1    0    0    0  501 -0.00000000000E+00 -0.00000000000E+00 -0.29765568272E+01  0.29765579195E+01  0.25500000000E-02 0.  1.
         11    1    1    2    0    0 -0.38182074680E+01 -0.38493683485E+02  0.20784668462E+03  0.21141567275E+03  0.51100000000E-03 0.  1.
         22    1    1    2    0    0  0.89472140437E+01 -0.48341323901E+01  0.46260246966E+02  0.47364880708E+02  0.00000000000E+00 0.  1.
         -2    1    1    2    0  501 -0.51290065756E+01  0.43327815875E+02  0.74325120468E+03  0.74453069756E+03  0.25500000000E-02 0.  1.
<mgrwt>
<rscale>  0 0.20702173E+02</rscale>
<asrwt>0</asrwt>
<pdfrwt beam="1">  1       11 0.10000000E+01 0.42143123E+02</pdfrwt>
<pdfrwt beam="2">  1       -2 0.45808516E-03 0.20702173E+02</pdfrwt>
<totfact> 0.30934491E+04</totfact>
</mgrwt>
</event>
<event>
 5    1  0.2226716E-003  0.2908473E+03  0.7818608E-02  0.1089908E+00
         11   -1    0    0    0    0  0.00000000000E+00  0.00000000000E+00  0.10002776195E+04  0.10002776195E+04  0.51100000000E-03 0.  1.
          2   -1    0    0  501    0 -0.00000000000E+00 -0.00000000000E+00 -0.86651956572E+03  0.86651956572E+03  0.25500000000E-02 0.  1.
         11    1    1    2    0    0 -0.21849692902E+02  0.29420450583E+03  0.90516288994E+03  0.95202602782E+03  0.51100000000E-03 0.  1.
         22    1    1    2    0    0  0.22084026087E+02 -0.34483628103E+01  0.43850793733E+02  0.49218772082E+02  0.00000000000E+00 0.  1.
          2    1    1    2  501    0 -0.23433318485E+00 -0.29075614302E+03 -0.81525562991E+03  0.86555238531E+03  0.25500000000E-02 0.  1.
<mgrwt>
<rscale>  0 0.29084728E+03</rscale>
<asrwt>0</asrwt>
<pdfrwt beam="1">  1       11 0.10000000E+01 0.22351631E+02</pdfrwt>
<pdfrwt beam="2">  1        2 0.13334771E+00 0.29084728E+03</pdfrwt>
<totfact> 0.39823036E+01</totfact>
</mgrwt>
</event>
<event>
 5    1  0.2226716E-003  0.1849679E+03  0.7818608E-02  0.1454550E+00
         11   -1    0    0    0    0  0.00000000000E+00  0.00000000000E+00  0.99978569242E+03  0.99978569242E+03  0.51100000000E-03 0. -1.
         -2   -1    0    0    0  501 -0.00000000000E+00 -0.00000000000E+00 -0.16849087332E+03  0.16849087334E+03  0.25500000000E-02 0. -1.
         11    1    1    2    0    0 -0.31318664037E+02 -0.20980144108E+03  0.54274972286E+03  0.58273043945E+03  0.51100000000E-03 0. -1.
         22    1    1    2    0    0  0.21505192077E+02  0.16247592444E+03  0.41713293375E+03  0.44817494768E+03  0.00000000000E+00 0. -1.
         -2    1    1    2    0  501  0.98134719601E+01  0.47325516633E+02 -0.12858783750E+03  0.13737117863E+03  0.25500000000E-02 0. -1.
<mgrwt>
<rscale>  0 0.48332275E+02</rscale>
<asrwt>0</asrwt>
<pdfrwt beam="1">  1       11 0.10000000E+01 0.18496795E+03</pdfrwt>
<pdfrwt beam="2">  1       -2 0.25916117E-01 0.48332275E+02</pdfrwt>
<totfact> 0.10252644E+02</totfact>
</mgrwt>
</event>
<event>
 5    1  0.2226716E-003  0.2741619E+03  0.7818608E-02  0.1100641E+00
         11   -1    0    0    0    0  0.00000000000E+00  0.00000000000E+00  0.10003128090E+04  0.10003128090E+04  0.51100000000E-03 0.  1.
         -2   -1    0    0    0  501 -0.00000000000E+00 -0.00000000000E+00 -0.12938052769E+03  0.12938052771E+03  0.25500000000E-02 0. -1.
         11    1    1    2    0    0  0.24326691207E+03 -0.81686940337E+02  0.72525037698E+03  0.76931115684E+03  0.51100000000E-03 0.  1.
         22    1    1    2    0    0  0.14371959545E+02 -0.27404965425E+01  0.80124408380E+02  0.81449274771E+02  0.00000000000E+00 0. -1.
         -2    1    1    2    0  501 -0.25763887162E+03  0.84427436879E+02  0.65557495956E+02  0.27893290510E+03  0.25500000000E-02 0. -1.
<mgrwt>
<rscale>  0 0.27111949E+03</rscale>
<asrwt>0</asrwt>
<pdfrwt beam="1">  1       11 0.10000000E+01 0.27416194E+03</pdfrwt>
<pdfrwt beam="2">  1       -2 0.19910922E-01 0.27111949E+03</pdfrwt>
<totfact> 0.17011558E+02</totfact>
</mgrwt>
</event>
<event>
 5    1  0.2226716E-003  0.2077119E+03  0.7818608E-02  0.1149948E+00
         11   -1    0    0    0    0  0.00000000000E+00  0.00000000000E+00  0.99989282257E+03  0.99989282257E+03  0.51100000000E-03 0. -1.
          2   -1    0    0  501    0 -0.00000000000E+00 -0.00000000000E+00 -0.13918348452E+03  0.13918348455E+03  0.25500000000E-02 0. -1.
         11    1    1    2    0    0  0.16037852951E+02  0.20096645573E+02  0.11081247204E+03  0.11375628269E+03  0.51100000000E-03 0. -1.
         22    1    1    2    0    0  0.18185947960E+03  0.70624140774E+01  0.79912806807E+03  0.81959039599E+03  0.00000000000E+00 0. -1.
          2    1    1    2  501    0 -0.19789733255E+03 -0.27159059650E+02 -0.49231202069E+02  0.20572962844E+03  0.25500000000E-02 0. -1.
<mgrwt>
<rscale>  0 0.19975227E+03</rscale>
<asrwt>0</asrwt>
<pdfrwt beam="1">  1       11 0.10000000E+01 0.20771191E+03</pdfrwt>
<pdfrwt beam="2">  1        2 0.21410548E-01 0.19975227E+03</pdfrwt>
<totfact> 0.31461987E+02</totfact>
</mgrwt>
</event>
<event>
 5    1  0.2226716E-003  0.1419035E+03  0.7818608E-02  0.1210790E+00
         11   -1    0    0    0    0  0.00000000000E+00  0.00000000000E+00  0.10000421401E+04  0.10000421401E+04  0.51100000000E-03 0. -1.
          2   -1    0    0  501    0 -0.00000000000E+00 -0.00000000000E+00 -0.22295676344E+03  0.22295676346E+03  0.25500000000E-02 0. -1.
         11    1    1    2    0    0  0.73586870954E+02  0.14816883501E+03  0.83760881520E+03  0.85379011387E+03  0.51100000000E-03 0. -1.
         22    1    1    2    0    0 -0.22545178854E+02 -0.16440598456E+02  0.12947368839E+03  0.13244626968E+03  0.00000000000E+00 0.  1.
          2    1    1    2  501    0 -0.51041692100E+02 -0.13172823655E+03 -0.18999712692E+03  0.23676252001E+03  0.25500000000E-02 0. -1.
<mgrwt>
<rscale>  0 0.14190350E+03</rscale>
<asrwt>0</asrwt>
<pdfrwt beam="1">  1       11 0.10000000E+01 0.27903017E+02</pdfrwt>
<pdfrwt beam="2">  1        2 0.34302485E-01 0.14190350E+03</pdfrwt>
<totfact> 0.18584777E+02</totfact>
</mgrwt>
</event>
<event>
 5    1  0.2226716E-003  0.2664859E+03  0.7818608E-02  0.1109393E+00
         11   -1    0    0    0    0  0.00000000000E+00  0.00000000000E+00  0.10002999722E+04  0.10002999722E+04  0.51100000000E-03 0.  1.
          2   -1    0    0  501    0 -0.00000000000E+00 -0.00000000000E+00 -0.70079446769E+02  0.70079446815E+02  0.25500000000E-02 0.  1.
         11    1    1    2    0    0 -0.21154615012E+03 -0.95343120173E+02  0.44624716861E+03  0.50296979997E+03  0.51100000000E-03 0.  1.
         22    1    1    2    0    0 -0.15237028831E+02 -0.24045371791E+02  0.11289858817E+03  0.11643211826E+03  0.00000000000E+00 0. -1.
          2    1    1    2  501    0  0.22678317895E+03  0.11938849196E+03  0.37107476863E+03  0.45097750075E+03  0.25500000000E-02 0.  1.
<mgrwt>
<rscale>  0 0.25628933E+03</rscale>
<asrwt>0</asrwt>
<pdfrwt beam="1">  1       11 0.10000000E+01 0.26648595E+03</pdfrwt>
<pdfrwt beam="2">  1        2 0.10784687E-01 0.25628933E+03</pdfrwt>
<totfact> 0.71580925E+02</totfact>
</mgrwt>
</event>
<event>
 5    1  0.2226716E-003  0.2152977E+03  0.7818608E-02  0.1137438E+00
         11   -1    0    0    0    0  0.00000000000E+00  0.00000000000E+00  0.10001609452E+04  0.10001609452E+04  0.51100000000E-03 0. -1.
         -2   -1    0    0    0  501 -0.00000000000E+00 -0.00000000000E+00 -0.11545563402E+03  0.11545563405E+03  0.25500000000E-02 0.  1.
         11    1    1    2    0    0  0.77436821017E+02  0.19425182185E+03  0.84218932327E+03  0.86776326713E+03  0.51100000000E-03 0. -1.
         22    1    1    2    0    0 -0.67065624326E+01  0.10004686815E+02  0.28852634616E+02  0.31265736233E+02  0.00000000000E+00 0. -1.
         -2    1    1    2    0  501 -0.70730258584E+02 -0.20425650866E+03  0.13663353313E+02  0.21658757591E+03  0.25500000000E-02 0.  1.
<mgrwt>
<rscale>  0 0.21529769E+03</rscale>
<asrwt>0</asrwt>
<pdfrwt beam="1">  1       11 0.10000000E+01 0.12044573E+02</pdfrwt>
<pdfrwt beam="2">  1       -2 0.17765264E-01 0.21529769E+03</pdfrwt>
<totfact> 0.20509977E+02</totfact>
</mgrwt>
</event>
<event>
 5    1  0.2226716E-003  0.2426454E+03  0.7818608E-02  0.1121601E+00
         11   -1    0    0    0    0  0.00000000000E+00  0.00000000000E+00  0.10003504105E+04  0.10003504105E+04  0.51100000000E-03 0. -1.
          2   -1    0    0  501    0 -0.00000000000E+00 -0.00000000000E+00 -0.16226269456E+03  0.16226269458E+03  0.25500000000E-02 0. -1.
         11    1    1    2    0    0 -0.17065329971E+03  0.14607116022E+03  0.80599281434E+03  0.83671007483E+03  0.51100000000E-03 0. -1.
         22    1    1    2    0    0 -0.17427069288E+02 -0.13650077691E+01  0.81631355934E+02  0.83481999627E+02  0.00000000000E+00 0. -1.
          2    1    1    2  501    0  0.18808036900E+03 -0.14470615245E+03 -0.49536454361E+02  0.24242103060E+03  0.25500000000E-02 0. -1.
<mgrwt>
<rscale>  0 0.23730591E+03</rscale>
<asrwt>0</asrwt>
<pdfrwt beam="1">  1       11 0.10000000E+01 0.24264539E+03</pdfrwt>
<pdfrwt beam="2">  1        2 0.24972238E-01 0.23730591E+03</pdfrwt>
<totfact> 0.26560238E+02</totfact>
</mgrwt>
</event>
<event>
 5    1  0.2226716E-003  0.1747317E+03  0.7818608E-02  0.1238191E+00
         11   -1    0    0    0    0  0.00000000000E+00  0.00000000000E+00  0.10004394190E+04  0.10004394190E+04  0.51100000000E-03 0. -1.
         -2   -1    0    0    0  501 -0.00000000000E+00 -0.00000000000E+00 -0.54911833367E+03  0.54911833367E+03  0.25500000000E-02 0. -1.
         11    1    1    2    0    0 -0.21911868274E+03 -0.99985337404E+01  0.75219091219E+03  0.78352034829E+03  0.51100000000E-03 0. -1.
         22    1    1    2    0    0  0.11744768016E+03 -0.59267302137E+02  0.20601578745E+03  0.24443623986E+03  0.00000000000E+00 0. -1.
         -2    1    1    2    0  501  0.10167100258E+03  0.69265835878E+02 -0.50688561433E+03  0.52160116450E+03  0.25500000000E-02 0. -1.
<mgrwt>
<rscale>  0 0.12302337E+03</rscale>
<asrwt>0</asrwt>
<pdfrwt beam="1">  1       11 0.10000000E+01 0.17473168E+03</pdfrwt>
<pdfrwt beam="2">  1       -2 0.84516863E-01 0.12302337E+03</pdfrwt>
<totfact> 0.10419140E+01</totfact>
</mgrwt>
</event>
<event>
 5    1  0.2226716E-003  0.1852381E+03  0.7818608E-02  0.1644110E+00
         11   -1    0    0    0    0  0.00000000000E+00  0.00000000000E+00  0.10001412763E+04  0.10001412763E+04  0.51100000000E-03 0.  1.
          2   -1    0    0  501    0 -0.00000000000E+00 -0.00000000000E+00 -0.24992384545E+03  0.24992384546E+03  0.25500000000E-02 0.  1.
         11    1    1    2    0    0 -0.16046844875E+03 -0.11457063965E+03  0.43298099195E+03  0.47576159356E+03  0.51100000000E-03 0.  1.
         22    1    1    2    0    0  0.13429405791E+03  0.11606844146E+03  0.53051379700E+03  0.55942083077E+03  0.00000000000E+00 0. -1.
          2    1    1    2  501    0  0.26174390833E+02 -0.14978018080E+01 -0.21327735813E+03  0.21488269740E+03  0.25500000000E-02 0.  1.
<mgrwt>
<rscale>  0 0.26217211E+02</rscale>
<asrwt>0</asrwt>
<pdfrwt beam="1">  1       11 0.10000000E+01 0.18523805E+03</pdfrwt>
<pdfrwt beam="2">  1        2 0.38455253E-01 0.26217211E+02</pdfrwt>
<totfact> 0.15956224E+02</totfact>
</mgrwt>
</event>
<event>
 5    1  0.2226716E-003  0.1783497E+03  0.7818608E-02  0.1502643E+00
         11   -1    0    0    0    0  0.00000000000E+00  0.00000000000E+00  0.10002140425E+04  0.10002140425E+04  0.51100000000E-03 0. -1.
          2   -1    0    0  501    0 -0.00000000000E+00 -0.00000000000E+00 -0.17035077348E+04  0.17035077349E+04  0.25500000000E-02 0.  1.
         11    1    1    2    0    0  0.12092543270E+03 -0.14466446935E+03  0.53115633973E+03  0.56362915663E+03  0.51100000000E-03 0. -1.
         22    1    1    2    0    0 -0.13324233997E+03  0.10580276279E+03  0.43658203093E+03  0.46856335271E+03  0.00000000000E+00 0. -1.
          2    1    1    2  501    0  0.12316907269E+02  0.38861706560E+02 -0.16710320630E+04  0.16715292680E+04  0.25500000000E-02 0.  1.
<mgrwt>
<rscale>  0 0.40766879E+02</rscale>
<asrwt>0</asrwt>
<pdfrwt beam="1">  1       11 0.10000000E+01 0.17834972E+03</pdfrwt>
<pdfrwt beam="2">  1        2 0.26213420E+00 0.40766879E+02</pdfrwt>
<totfact> 0.15880552E+01</totfact>
</mgrwt>
</event>
<event>
 5    1  0.2226716E-003  0.8431148E+02  0.7818608E-02  0.1317243E+00
         11   -1    0    0    0    0  0.00000000000E+00  0.00000000000E+00  0.10003689967E+04  0.10003689967E+04  0.51100000000E-03 0.  1.
          2   -1    0    0  501    0 -0.00000000000E+00 -0.00000000000E+00 -0.15284989551E+03  0.15284989553E+03  0.25500000000E-02 0. -1.
         11    1    1    2    0    0  0.71766335077E+01 -0.10806784185E+03  0.63284489490E+03  0.64204581107E+03  0.51100000000E-03 0.  1.
         22    1    1    2    0    0 -0.47410902566E+02  0.34139581853E+02  0.34834528108E+03  0.35321061646E+03  0.00000000000E+00 0. -1.
          2    1    1    2  501    0  0.40234269058E+02  0.73928259995E+02 -0.13367107475E+03  0.15796246473E+03  0.25500000000E-02 0. -1.
<mgrwt>
<rscale>  0 0.84311477E+02</rscale>
<asrwt>0</asrwt>
<pdfrwt beam="1">  1       11 0.10000000E+01 0.58423495E+02</pdfrwt>
<pdfrwt beam="2">  1        2 0.23524045E-01 0.84311477E+02</pdfrwt>
<totfact> 0.27617545E+02</totfact>
</mgrwt>
</event>
<event>
 5    1  0.2226716E-003  0.2474227E+03  0.7818608E-02  0.1114945E+00
         11   -1    0    0    0    0  0.00000000000E+00  0.00000000000E+00  0.99998585669E+03  0.99998585669E+03  0.51100000000E-03 0. -1.
          2   -1    0    0  501    0 -0.00000000000E+00 -0.00000000000E+00 -0.74450659203E+03  0.74450659204E+03  0.25500000000E-02 0. -1.
         11    1    1    2    0    0 -0.24579459413E+03  0.14869364130E+02  0.91517837979E+03  0.94772757020E+03  0.51100000000E-03 0. -1.
         22    1    1    2    0    0 -0.91603349397E+00 -0.34665302807E+02  0.40964694981E+02  0.53671487505E+02  0.00000000000E+00 0.  1.
          2    1    1    2  501    0  0.24671062763E+03  0.19795938677E+02 -0.70066381011E+03  0.74309339102E+03  0.25500000000E-02 0. -1.
<mgrwt>
<rscale>  0 0.24742268E+03</rscale>
<asrwt>0</asrwt>
<pdfrwt beam="1">  1       11 0.10000000E+01 0.34677404E+02</pdfrwt>
<pdfrwt beam="2">  1        2 0.11453785E+00 0.24742268E+03</pdfrwt>
<totfact> 0.48675246E+01</totfact>
</mgrwt>
</event>
<event>
 5    1  0.2226716E-003  0.7710185E+02  0.7818608E-02  0.1432743E+00
         11   -1    0    0    0    0  0.00000000000E+00  0.00000000000E+00  0.10001637581E+04  0.10001637581E+04  0.51100000000E-03 0. -1.
          2   -1    0    0  501    0 -0.00000000000E+00 -0.00000000000E+00 -0.77615851561E+03  0.77615851561E+03  0.25500000000E-02 0. -1.
         11    1    1    2    0    0  0.96136801574E+02 -0.55470852882E+02  0.65716658546E+03  0.66647372130E+03  0.51100000000E-03 0. -1.
         22    1    1    2    0    0 -0.51032126018E+02  0.28774042321E+02  0.33490770777E+03  0.33999322952E+03  0.00000000000E+00 0. -1.
          2    1    1    2  501    0 -0.45104675556E+02  0.26696810562E+02 -0.76806905074E+03  0.76985532288E+03  0.25500000000E-02 0. -1.
<mgrwt>
<rscale>  0 0.52413276E+02</rscale>
<asrwt>0</asrwt>
<pdfrwt beam="1">  1       11 0.10000000E+01 0.77101851E+02</pdfrwt>
<pdfrwt beam="2">  1        2 0.11942855E+00 0.52413276E+02</pdfrwt>
<totfact> 0.48812270E+01</totfact>
</mgrwt>
</event>
<event>
 5    1  0.2226716E-003  0.2061962E+03  0.7818608E-02  0.1144614E+00
         11   -1    0    0    0    0  0.00000000000E+00  0.00000000000E+00  0.10000200195E+04  0.10000200195E+04  0.51100000000E-03 0.  1.
          2   -1    0    0  501    0 -0.00000000000E+00 -0.00000000000E+00 -0.25453214531E+03  0.25453214533E+03  0.25500000000E-02 0.  1.
         11    1    1    2    0    0 -0.20278943225E+03 -0.99690345215E+02  0.81320252558E+03  0.84401425721E+03  0.51100000000E-03 0.  1.
         22    1    1    2    0    0  0.16216415471E+02  0.14392633780E+02  0.12631842426E+03  0.12816576901E+03  0.00000000000E+00 0. -1.
          2    1    1    2  501    0  0.18657301678E+03  0.85297711435E+02 -0.19403307570E+03  0.28237213857E+03  0.25500000000E-02 0.  1.
<mgrwt>
<rscale>  0 0.20619623E+03</rscale>
<asrwt>0</asrwt>
<pdfrwt beam="1">  1       11 0.10000000E+01 0.21682252E+02</pdfrwt>
<pdfrwt beam="2">  1        2 0.39159574E-01 0.20619623E+03</pdfrwt>
<totfact> 0.16183783E+02</totfact>
</mgrwt>
</event>
<event>
 5    1  0.2226716E-003  0.1215259E+03  0.7818608E-02  0.1240601E+00
         11   -1    0    0    0    0  0.00000000000E+00  0.00000000000E+00  0.10001058735E+04  0.10001058735E+04  0.51100000000E-03 0. -1.
          2   -1    0    0  501    0 -0.00000000000E+00 -0.00000000000E+00 -0.15407531841E+02  0.15407532052E+02  0.25500000000E-02 0. -1.
         11    1    1    2    0    0 -0.11574940304E+03  0.16607046673E+02  0.34232847602E+03  0.36174922778E+03  0.51100000000E-03 0. -1.
         22    1    1    2    0    0  0.10690757529E+02 -0.89775246774E+01  0.43020089299E+02  0.45228490237E+02  0.00000000000E+00 0.  1.
          2    1    1    2  501    0  0.10505864551E+03 -0.76295219960E+01  0.59934977634E+03  0.60853568754E+03  0.25500000000E-02 0. -1.
<mgrwt>
<rscale>  0 0.12152595E+03</rscale>
<asrwt>0</asrwt>
<pdfrwt beam="1">  1       11 0.10000000E+01 0.11693473E+03</pdfrwt>
<pdfrwt beam="2">  1        2 0.23706404E-02 0.12152595E+03</pdfrwt>
<totfact> 0.48973438E+03</totfact>
</mgrwt>
</event>
<event>
 5    1  0.2226716E-003  0.2287138E+03  0.7818608E-02  0.1300645E+00
         11   -1    0    0    0    0  0.00000000000E+00  0.00000000000E+00  0.99962181151E+03  0.99962181151E+03  0.51100000000E-03 0.  1.
          2   -1    0    0  501    0 -0.00000000000E+00 -0.00000000000E+00 -0.93714544813E+02  0.93714544848E+02  0.25500000000E-02 0.  1.
         11    1    1    2    0    0  0.41064953833E+02  0.22693266729E+03  0.75430075514E+03  0.78876764330E+03  0.51100000000E-03 0.  1.
         22    1    1    2    0    0 -0.35938911421E+02 -0.38178561393E+01  0.43605404863E+02  0.56635790035E+02  0.00000000000E+00 0. -1.
          2    1    1    2  501    0 -0.51260424125E+01 -0.22311481115E+03  0.10800110669E+03  0.24793292302E+03  0.25500000000E-02 0.  1.
<mgrwt>
<rscale>  0 0.90917402E+02</rscale>
<asrwt>0</asrwt>
<pdfrwt beam="1">  1       11 0.10000000E+01 0.22871376E+03</pdfrwt>
<pdfrwt beam="2">  1        2 0.14412169E-01 0.90917402E+02</pdfrwt>
<totfact> 0.48123301E+02</totfact>
</mgrwt>
</event>
<event>
 5    1  0.2226716E-003  0.6489820E+02  0.7818608E-02  0.1378355E+00
         11   -1    0    0    0    0  0.00000000000E+00  0.00000000000E+00  0.10000881106E+04  0.10000881106E+04  0.51100000000E-03 0.  1.
          2   -1    0    0  501    0 -0.00000000000E+00 -0.00000000000E+00 -0.15698610837E+02  0.15698611044E+02  0.25500000000E-02 0.  1.
         11    1    1    2    0    0  0.56031653691E+02  0.29871681879E+02  0.83098928111E+02  0.10458152536E+03  0.51100000000E-03 0.  1.
         22    1    1    2    0    0 -0.11057631610E+02  0.42513914506E+02  0.20073488014E+03  0.20548527015E+03  0.00000000000E+00 0. -1.
          2    1    1    2  501    0 -0.44974022080E+02 -0.72385596385E+02  0.70055569150E+03  0.70571992612E+03  0.25500000000E-02 0.  1.
<mgrwt>
<rscale>  0 0.64898197E+02</rscale>
<asrwt>0</asrwt>
<pdfrwt beam="1">  1       11 0.10000000E+01 0.43928398E+02</pdfrwt>
<pdfrwt beam="2">  1        2 0.24153836E-02 0.64898197E+02</pdfrwt>
<totfact> 0.44224914E+03</totfact>
</mgrwt>
</event>
<event>
 5    1  0.2226716E-003  0.2900603E+03  0.7818608E-02  0.1090318E+00
         11   -1    0    0    0    0  0.00000000000E+00  0.00000000000E+00  0.99987043254E+03  0.99987043254E+03  0.51100000000E-03 0.  1.
          2   -1    0    0  501    0 -0.00000000000E+00 -0.00000000000E+00 -0.27755914778E+03  0.27755914779E+03  0.25500000000E-02 0.  1.
         11    1    1    2    0    0 -0.22315870039E+03 -0.18426147920E+03  0.87570589403E+03  0.92228678355E+03  0.51100000000E-03 0.  1.
         22    1    1    2    0    0  0.64736516642E+01 -0.86841005540E+01  0.15889277978E+02  0.19229948595E+02  0.00000000000E+00 0.  1.
          2    1    1    2  501    0  0.21668504873E+03  0.19294557976E+03 -0.16928388724E+03  0.33591284819E+03  0.25500000000E-02 0.  1.
<mgrwt>
<rscale>  0 0.29006029E+03</rscale>
<asrwt>0</asrwt>
<pdfrwt beam="1">  1       11 0.10000000E+01 0.10831517E+02</pdfrwt>
<pdfrwt beam="2">  1        2 0.42695873E-01 0.29006029E+03</pdfrwt>
<totfact> 0.14768542E+02</totfact>
</mgrwt>
</event>
<event>
 5    1  0.2226716E-003  0.2318015E+03  0.7818608E-02  0.1125378E+00
         11   -1    0    0    0    0  0.00000000000E+00  0.00000000000E+00  0.10000723172E+04  0.10000723172E+04  0.51100000000E-03 0. -1.
          2   -1    0    0  501    0 -0.00000000000E+00 -0.00000000000E+00 -0.69668488066E+02  0.69668488113E+02  0.25500000000E-02 0. -1.
         11    1    1    2    0    0  0.17257898942E+03  0.15176425507E+03  0.20417043567E+03  0.30741090337E+03  0.51100000000E-03 0. -1.
         22    1    1    2    0    0 -0.16960004886E+02 -0.10253562297E+02  0.40972268487E+02  0.45513779128E+02  0.00000000000E+00 0. -1.
          2    1    1    2  501    0 -0.15561898454E+03 -0.14151069277E+03  0.68526112496E+03  0.71681612280E+03  0.25500000000E-02 0. -1.
<mgrwt>
<rscale>  0 0.23180150E+03</rscale>
<asrwt>0</asrwt>
<pdfrwt beam="1">  1       11 0.10000000E+01 0.22981721E+03</pdfrwt>
<pdfrwt beam="2">  1        2 0.10719004E-01 0.23180150E+03</pdfrwt>
<totfact> 0.71792675E+02</totfact>
</mgrwt>
</event>
<event>
 5    1  0.2226716E-003  0.2989286E+03  0.7818608E-02  0.1595420E+00
         11   -1    0    0    0    0  0.00000000000E+00  0.00000000000E+00  0.10000745515E+04  0.10000745515E+04  0.51100000000E-03 0. -1.
          2   -1    0    0  501    0 -0.00000000000E+00 -0.00000000000E+00 -0.53006223386E+03  0.53006223387E+03  0.25500000000E-02 0. -1.
         11    1    1    2    0    0  0.45452206434E+02  0.28718672563E+03  0.36243601798E+03  0.46465254285E+03  0.51100000000E-03 0. -1.
         22    1    1    2    0    0 -0.74166925086E+02 -0.29667859108E+03  0.54611297451E+03  0.62590598344E+03  0.00000000000E+00 0. -1.
          2    1    1    2  501    0  0.28714718651E+02  0.94918654486E+01 -0.43853667489E+03  0.43957825903E+03  0.25500000000E-02 0. -1.
<mgrwt>
<rscale>  0 0.30242860E+02</rscale>
<asrwt>0</asrwt>
<pdfrwt beam="1">  1       11 0.10000000E+01 0.29892859E+03</pdfrwt>
<pdfrwt beam="2">  1        2 0.81554113E-01 0.30242860E+02</pdfrwt>
<totfact> 0.75176707E+01</totfact>
</mgrwt>
</event>
<event>
 5    1  0.2226716E-003  0.1145577E+03  0.7818608E-02  0.1593730E+00
         11   -1    0    0    0    0  0.00000000000E+00  0.00000000000E+00  0.10001656260E+04  0.10001656260E+04  0.51100000000E-03 0. -1.
          2   -1    0    0  501    0 -0.00000000000E+00 -0.00000000000E+00 -0.15105178806E+03  0.15105178809E+03  0.25500000000E-02 0. -1.
         11    1    1    2    0    0  0.14562107601E+02  0.11768951072E+03  0.71261693890E+03  0.72241662323E+03  0.51100000000E-03 0. -1.
         22    1    1    2    0    0 -0.39838089880E+02 -0.10080265416E+03  0.27049228632E+03  0.29140062706E+03  0.00000000000E+00 0.  1.
          2    1    1    2  501    0  0.25275982280E+02 -0.16886856567E+02 -0.13399538726E+03  0.13740016382E+03  0.25500000000E-02 0. -1.
<mgrwt>
<rscale>  0 0.30398046E+02</rscale>
<asrwt>0</asrwt>
<pdfrwt beam="1">  1       11 0.10000000E+01 0.11455765E+03</pdfrwt>
<pdfrwt beam="2">  1        2 0.23242585E-01 0.30398046E+02</pdfrwt>
<totfact> 0.26868999E+02</totfact>
</mgrwt>
</event>
<event>
 5    1  0.2226716E-003  0.1620312E+03  0.7818608E-02  0.1186422E+00
         11   -1    0    0    0    0  0.00000000000E+00  0.00000000000E+00  0.10003216286E+04  0.10003216286E+04  0.51100000000E-03 0.  1.
          2   -1    0    0  501    0 -0.00000000000E+00 -0.00000000000E+00 -0.96699219245E+03  0.96699219246E+03  0.25500000000E-02 0.  1.
         11    1    1    2    0    0 -0.70317767503E+02  0.25680324480E+03  0.32517245815E+03  0.42027327123E+03  0.51100000000E-03 0.  1.
         22    1    1    2    0    0  0.79643760218E+01 -0.10932899929E+03  0.61575052294E+03  0.62543182512E+03  0.00000000000E+00 0.  1.
          2    1    1    2  501    0  0.62353391481E+02 -0.14747424551E+03 -0.90759354498E+03  0.92160872468E+03  0.25500000000E-02 0.  1.
<mgrwt>
<rscale>  0 0.16203117E+03</rscale>
<asrwt>0</asrwt>
<pdfrwt beam="1">  1       11 0.10000000E+01 0.10961871E+03</pdfrwt>
<pdfrwt beam="2">  1        2 0.14881587E+00 0.16203117E+03</pdfrwt>
<totfact> 0.35248204E+01</totfact>
</mgrwt>
</event>
<event>
 5    1  0.2226716E-003  0.2179401E+03  0.7818608E-02  0.1147368E+00
         11   -1    0    0    0    0  0.00000000000E+00  0.00000000000E+00  0.10000499243E+04  0.10000499243E+04  0.51100000000E-03 0.  1.
          2   -1    0    0  501    0 -0.00000000000E+00 -0.00000000000E+00 -0.52317520997E+02  0.52317521059E+02  0.25500000000E-02 0.  1.
         11    1    1    2    0    0  0.21002064891E+02 -0.54367543860E+02  0.11378337422E+03  0.12784198373E+03  0.51100000000E-03 0.  1.
         22    1    1    2    0    0 -0.28784453590E+02 -0.14831962169E+03  0.58084439029E+03  0.60017285900E+03  0.00000000000E+00 0.  1.
          2    1    1    2  501    0  0.77823886988E+01  0.20268716555E+03  0.25310463884E+03  0.32435260267E+03  0.25500000000E-02 0.  1.
<mgrwt>
<rscale>  0 0.20283652E+03</rscale>
<asrwt>0</asrwt>
<pdfrwt beam="1">  1       11 0.10000000E+01 0.21794008E+03</pdfrwt>
<pdfrwt beam="2">  1        2 0.80492510E-02 0.20283652E+03</pdfrwt>
<totfact> 0.10205191E+03</totfact>
</mgrwt>
</event>
<event>
 5    1  0.2226716E-003  0.3714242E+03  0.7818608E-02  0.1054150E+00
         11   -1    0    0    0    0  0.00000000000E+00  0.00000000000E+00  0.99942873854E+03  0.99942873854E+03  0.51100000000E-03 0. -1.
          2   -1    0    0  501    0 -0.00000000000E+00 -0.00000000000E+00 -0.13907839920E+04  0.13907839920E+04  0.25500000000E-02 0. -1.
         11    1    1    2    0    0 -0.29666740534E+02  0.37235269657E+03  0.88052466860E+03  0.95647809079E+03  0.51100000000E-03 0. -1.
         22    1    1    2    0    0  0.18636472576E+02 -0.11384062770E+01  0.53836737956E+02  0.56982527434E+02  0.00000000000E+00 0. -1.
          2    1    1    2  501    0  0.11030267958E+02 -0.37121429029E+03 -0.13257166600E+04  0.13767521123E+04  0.25500000000E-02 0. -1.
<mgrwt>
<rscale>  0 0.37142419E+03</rscale>
<asrwt>0</asrwt>
<pdfrwt beam="1">  1       11 0.10000000E+01 0.18671210E+02</pdfrwt>
<pdfrwt beam="2">  1        2 0.21384453E+00 0.37142419E+03</pdfrwt>
<totfact> 0.19204791E+01</totfact>
</mgrwt>
</event>
<event>
 5    1  0.2226716E-003  0.3125493E+03  0.7818608E-02  0.1079130E+00
         11   -1    0    0    0    0  0.00000000000E+00  0.00000000000E+00  0.10000777106E+04  0.10000777106E+04  0.51100000000E-03 0. -1.
          2   -1    0    0  501    0 -0.00000000000E+00 -0.00000000000E+00 -0.10164258180E+03  0.10164258183E+03  0.25500000000E-02 0. -1.
         11    1    1    2    0    0  0.72764333079E+02  0.30562405162E+03  0.46883165363E+03  0.56436143432E+03  0.51100000000E-03 0. -1.
         22    1    1    2    0    0 -0.10708464147E+02 -0.68401411115E+00  0.22617851678E+02  0.25034102625E+02  0.00000000000E+00 0.  1.
          2    1    1    2  501    0 -0.62055868932E+02 -0.30494003751E+03  0.40698562346E+03  0.51232475546E+03  0.25500000000E-02 0. -1.
<mgrwt>
<rscale>  0 0.31254930E+03</rscale>
<asrwt>0</asrwt>
<pdfrwt beam="1">  1       11 0.10000000E+01 0.10730288E+02</pdfrwt>
<pdfrwt beam="2">  1        2 0.15638535E-01 0.31254930E+03</pdfrwt>
<totfact> 0.45931529E+02</totfact>
</mgrwt>
</event>
<event>
 5    1  0.2226716E-003  0.2038392E+03  0.7818608E-02  0.1146540E+00
         11   -1    0    0    0    0  0.00000000000E+00  0.00000000000E+00  0.10002142331E+04  0.10002142331E+04  0.51100000000E-03 0.  1.
          2   -1    0    0  501    0 -0.00000000000E+00 -0.00000000000E+00 -0.50924022908E+02  0.50924022972E+02  0.25500000000E-02 0.  1.
         11    1    1    2    0    0  0.16918992217E+03 -0.11463947393E+03  0.28891075678E+03  0.35388820852E+03  0.51100000000E-03 0.  1.
         22    1    1    2    0    0  0.95689491517E+01  0.17453301573E+02  0.71008112827E+02  0.73745064994E+02  0.00000000000E+00 0. -1.
          2    1    1    2  501    0 -0.17875887132E+03  0.97186172353E+02  0.58937134063E+03  0.62350498261E+03  0.25500000000E-02 0.  1.
<mgrwt>
<rscale>  0 0.20383921E+03</rscale>
<asrwt>0</asrwt>
<pdfrwt beam="1">  1       11 0.10000000E+01 0.19904334E+02</pdfrwt>
<pdfrwt beam="2">  1        2 0.78361432E-02 0.20383921E+03</pdfrwt>
<totfact> 0.10562064E+03</totfact>
</mgrwt>
</event>
<event>
 5    1  0.2226716E-003  0.1676276E+03  0.7818608E-02  0.1180345E+00
         11   -1    0    0    0    0  0.00000000000E+00  0.00000000000E+00  0.10003767203E+04  0.10003767203E+04  0.51100000000E-03 0. -1.
          2   -1    0    0  501    0 -0.00000000000E+00 -0.00000000000E+00 -0.11148395370E+03  0.11148395373E+03  0.25500000000E-02 0. -1.
         11    1    1    2    0    0 -0.20282825375E+03  0.12921674621E+03  0.40801721699E+03  0.47361832458E+03  0.51100000000E-03 0. -1.
         22    1    1    2    0    0  0.55207772487E+02 -0.81260319721E+02  0.47271274120E+03  0.48281308329E+03  0.00000000000E+00 0. -1.
          2    1    1    2  501    0  0.14762048127E+03 -0.47956426489E+02  0.81628084062E+01  0.15542926616E+03  0.25500000000E-02 0. -1.
<mgrwt>
<rscale>  0 0.16762756E+03</rscale>
<asrwt>0</asrwt>
<pdfrwt beam="1">  1       11 0.10000000E+01 0.98240204E+02</pdfrwt>
<pdfrwt beam="2">  1        2 0.17157838E-01 0.16762756E+03</pdfrwt>
<totfact> 0.40331262E+02</totfact>
</mgrwt>
</event>
<event>
 5    1  0.2226716E-003  0.1662198E+03  0.7818608E-02  0.1181848E+00
         11   -1    0    0    0    0  0.00000000000E+00  0.00000000000E+00  0.99963794616E+03  0.99963794616E+03  0.51100000000E-03 0.  1.
          2   -1    0    0  501    0 -0.00000000000E+00 -0.00000000000E+00 -0.13835492665E+04  0.13835492665E+04  0.25500000000E-02 0.  1.
         11    1    1    2    0    0 -0.15639616083E+03  0.13276391626E+03  0.79229994790E+03  0.81842850880E+03  0.51100000000E-03 0.  1.
         22    1    1    2    0    0  0.49350960125E+02 -0.58968654622E+01  0.18597189642E+03  0.19249892609E+03  0.00000000000E+00 0.  1.
          2    1    1    2  501    0  0.10704520071E+03 -0.12686705080E+03 -0.13621831647E+04  0.13722597778E+04  0.25500000000E-02 0.  1.
<mgrwt>
<rscale>  0 0.16621976E+03</rscale>
<asrwt>0</asrwt>
<pdfrwt beam="1">  1       11 0.10000000E+01 0.49702015E+02</pdfrwt>
<pdfrwt beam="2">  1        2 0.21277666E+00 0.16621976E+03</pdfrwt>
<totfact> 0.20472717E+01</totfact>
</mgrwt>
</event>
<event>
 5    1  0.2226716E-003  0.1732284E+03  0.7818608E-02  0.1178738E+00
         11   -1    0    0    0    0  0.00000000000E+00  0.00000000000E+00  0.10001913251E+04  0.10001913251E+04  0.51100000000E-03 0. -1.
         -2   -1    0    0    0  501 -0.00000000000E+00 -0.00000000000E+00 -0.96622779411E+02  0.96622779445E+02  0.25500000000E-02 0.  1.
         11    1    1    2    0    0  0.12490790407E+03  0.95609181452E+02  0.87148935328E+03  0.88557144994E+03  0.51100000000E-03 0. -1.
         22    1    1    2    0    0  0.52059283775E+01  0.12472854290E+02  0.39684462651E+02  0.41922909731E+02  0.00000000000E+00 0.  1.
         -2    1    1    2    0  501 -0.13011383245E+03 -0.10808203574E+03 -0.76052702859E+01  0.16931974482E+03  0.25500000000E-02 0.  1.
<mgrwt>
<rscale>  0 0.16914886E+03</rscale>
<asrwt>0</asrwt>
<pdfrwt beam="1">  1       11 0.10000000E+01 0.17322836E+03</pdfrwt>
<pdfrwt beam="2">  1       -2 0.14867887E-01 0.16914886E+03</pdfrwt>
<totfact> 0.27322529E+02</totfact>
</mgrwt>
</event>
<event>
 5    1  0.2226716E-003  0.1946973E+03  0.7818608E-02  0.1160848E+00
         11   -1    0    0    0    0  0.00000000000E+00  0.00000000000E+00  0.10000322992E+04  0.10000322992E+04  0.51100000000E-03 0. -1.
          2   -1    0    0  501    0 -0.00000000000E+00 -0.00000000000E+00 -0.36497218270E+02  0.36497218359E+02  0.25500000000E-02 0. -1.
         11    1    1    2    0    0 -0.13013895351E+03 -0.10942797270E+03  0.40810283228E+03  0.44210694424E+03  0.51100000000E-03 0. -1.
         22    1    1    2    0    0 -0.22537350197E+02  0.79939462706E+00  0.87719324239E+02  0.90571800416E+02  0.00000000000E+00 0.  1.
          2    1    1    2  501    0  0.15267630371E+03  0.10862857807E+03  0.46771292441E+03  0.50385077290E+03  0.25500000000E-02 0. -1.
<mgrwt>
<rscale>  0 0.18737722E+03</rscale>
<asrwt>0</asrwt>
<pdfrwt beam="1">  1       11 0.10000000E+01 0.19469729E+03</pdfrwt>
<pdfrwt beam="2">  1        2 0.56151379E-02 0.18737722E+03</pdfrwt>
<totfact> 0.16144921E+03</totfact>
</mgrwt>
</event>
<event>
 5    1  0.2226716E-003  0.1289535E+03  0.7818608E-02  0.1621504E+00
         11   -1    0    0    0    0  0.00000000000E+00  0.00000000000E+00  0.99971907729E+03  0.99971907729E+03  0.51100000000E-03 0.  1.
          2   -1    0    0  501    0 -0.00000000000E+00 -0.00000000000E+00 -0.58362346678E+03  0.58362346679E+03  0.25500000000E-02 0. -1.
         11    1    1    2    0    0 -0.13527682844E+03 -0.51809940277E+01  0.58271316217E+03  0.59823180488E+03  0.51100000000E-03 0.  1.
         22    1    1    2    0    0  0.12116612593E+03 -0.18985061497E+02  0.39970471067E+03  0.41809749863E+03  0.00000000000E+00 0.  1.
          2    1    1    2  501    0  0.14110702512E+02  0.24166055524E+02 -0.56632226232E+03  0.56701324056E+03  0.25500000000E-02 0. -1.
<mgrwt>
<rscale>  0 0.27984106E+02</rscale>
<asrwt>0</asrwt>
<pdfrwt beam="1">  1       11 0.10000000E+01 0.12895355E+03</pdfrwt>
<pdfrwt beam="2">  1        2 0.89763000E-01 0.27984106E+02</pdfrwt>
<totfact> 0.68110908E+01</totfact>
</mgrwt>
</event>
<event>
 5    1  0.2226716E-003  0.9835968E+02  0.7818608E-02  0.1424997E+00
         11   -1    0    0    0    0  0.00000000000E+00  0.00000000000E+00  0.10000732255E+04  0.10000732255E+04  0.51100000000E-03 0. -1.
          2   -1    0    0  501    0 -0.00000000000E+00 -0.00000000000E+00 -0.34571046546E+02  0.34571046640E+02  0.25500000000E-02 0. -1.
         11    1    1    2    0    0  0.16382674968E+02 -0.10891008053E+03  0.80815541932E+02  0.13660508591E+03  0.51100000000E-03 0. -1.
         22    1    1    2    0    0 -0.27080302228E+02  0.12004319733E+02  0.53489899557E+02  0.61144221441E+02  0.00000000000E+00 0. -1.
          2    1    1    2  501    0  0.10697627261E+02  0.96905760795E+02  0.83119673747E+03  0.83689496479E+03  0.25500000000E-02 0. -1.
<mgrwt>
<rscale>  0 0.53977605E+02</rscale>
<asrwt>0</asrwt>
<pdfrwt beam="1">  1       11 0.10000000E+01 0.98359683E+02</pdfrwt>
<pdfrwt beam="2">  1        2 0.53190119E-02 0.53977605E+02</pdfrwt>
<totfact> 0.15558726E+03</totfact>
</mgrwt>
</event>
<event>
 5    1  0.2226716E-003  0.9948496E+02  0.7818608E-02  0.1369745E+00
         11   -1    0    0    0    0  0.00000000000E+00  0.00000000000E+00  0.10006033228E+04  0.10006033228E+04  0.51100000000E-03 0. -1.
          2   -1    0    0  501    0 -0.00000000000E+00 -0.00000000000E+00 -0.21751530705E+02  0.21751530854E+02  0.25500000000E-02 0. -1.
         11    1    1    2    0    0 -0.33640817144E+02  0.10062166052E+03  0.22738667769E+03  0.25092055383E+03  0.51100000000E-03 0. -1.
         22    1    1    2    0    0 -0.33554644011E+02 -0.98224590000E+02  0.37940252724E+03  0.39334496551E+03  0.00000000000E+00 0. -1.
          2    1    1    2  501    0  0.67195461156E+02 -0.23970705190E+01  0.37206258715E+03  0.37808933430E+03  0.25500000000E-02 0. -1.
<mgrwt>
<rscale>  0 0.67238203E+02</rscale>
<asrwt>0</asrwt>
<pdfrwt beam="1">  1       11 0.10000000E+01 0.99484957E+02</pdfrwt>
<pdfrwt beam="2">  1        2 0.33484082E-02 0.67238203E+02</pdfrwt>
<totfact> 0.28891113E+03</totfact>
</mgrwt>
</event>
<event>
 5    1  0.2226716E-003  0.1789194E+03  0.7818608E-02  0.1168853E+00
         11   -1    0    0    0    0  0.00000000000E+00  0.00000000000E+00  0.99999408382E+03  0.99999408382E+03  0.51100000000E-03 0.  1.
          2   -1    0    0  501    0 -0.00000000000E+00 -0.00000000000E+00 -0.39004831933E+02  0.39004832016E+02  0.25500000000E-02 0.  1.
         11    1    1    2    0    0  0.17192769661E+03  0.26833394010E+02  0.47500965173E+03  0.50587877316E+03  0.51100000000E-03 0.  1.
         22    1    1    2    0    0  0.32876820187E+01  0.28102123443E+02  0.12450435747E+03  0.12767878925E+03  0.00000000000E+00 0. -1.
          2    1    1    2  501    0 -0.17521537863E+03 -0.54935517453E+02  0.36147524268E+03  0.40544135342E+03  0.25500000000E-02 0.  1.
<mgrwt>
<rscale>  0 0.17891935E+03</rscale>
<asrwt>0</asrwt>
<pdfrwt beam="1">  1       11 0.10000000E+01 0.28293784E+02</pdfrwt>
<pdfrwt beam="2">  1        2 0.60007077E-02 0.17891935E+03</pdfrwt>
<totfact> 0.14758746E+03</totfact>
</mgrwt>
</event>
<event>
 5    1  0.2226716E-003  0.6264181E+02  0.7818608E-02  0.1655791E+00
         11   -1    0    0    0    0  0.00000000000E+00  0.00000000000E+00  0.10001306614E+04  0.10001306614E+04  0.51100000000E-03 0.  1.
          2   -1    0    0  501    0 -0.00000000000E+00 -0.00000000000E+00 -0.57128172379E+01  0.57128178070E+01  0.25500000000E-02 0.  1.
         11    1    1    2    0    0 -0.41416917804E+02  0.51498922043E+02  0.30073292669E+03  0.30790874175E+03  0.51100000000E-03 0.  1.
         22    1    1    2    0    0  0.10173432821E+02  0.14208093760E+01  0.37599296299E+02  0.38977230749E+02  0.00000000000E+00 0.  1.
          2    1    1    2  501    0  0.31243484983E+02 -0.52919731419E+02  0.65608562122E+03  0.65895750675E+03  0.25500000000E-02 0.  1.
<mgrwt>
<rscale>  0 0.25366650E+02</rscale>
<asrwt>0</asrwt>
<pdfrwt beam="1">  1       11 0.10000000E+01 0.62641814E+02</pdfrwt>
<pdfrwt beam="2">  1        2 0.87900982E-03 0.25366650E+02</pdfrwt>
<totfact> 0.14246649E+04</totfact>
</mgrwt>
</event>
<event>
 5    1  0.2226716E-003  0.2685726E+03  0.7818608E-02  0.1110337E+00
         11   -1    0    0    0    0  0.00000000000E+00  0.00000000000E+00  0.10000441105E+04  0.10000441105E+04  0.51100000000E-03 0. -1.
          2   -1    0    0  501    0 -0.00000000000E+00 -0.00000000000E+00 -0.16011766821E+03  0.16011766823E+03  0.25500000000E-02 0.  1.
         11    1    1    2    0    0 -0.53574592512E+02  0.13952197557E+03  0.45024020794E+03  0.47439736875E+03  0.51100000000E-03 0. -1.
         22    1    1    2    0    0 -0.99733900008E+02  0.63937864901E+02  0.41327607397E+03  0.42992094005E+03  0.00000000000E+00 0. -1.
          2    1    1    2  501    0  0.15330849252E+03 -0.20345984047E+03 -0.23589839615E+02  0.25584346993E+03  0.25500000000E-02 0.  1.
<mgrwt>
<rscale>  0 0.25475361E+03</rscale>
<asrwt>0</asrwt>
<pdfrwt beam="1">  1       11 0.10000000E+01 0.26857259E+03</pdfrwt>
<pdfrwt beam="2">  1        2 0.24634573E-01 0.25475361E+03</pdfrwt>
<totfact> 0.27008403E+02</totfact>
</mgrwt>
</event>
<event>
 5    1  0.2226716E-003  0.1993065E+03  0.7818608E-02  0.1511801E+00
         11   -1    0    0    0    0  0.00000000000E+00  0.00000000000E+00  0.10002870053E+04  0.10002870053E+04  0.51100000000E-03 0.  1.
         -2   -1    0    0    0  501 -0.00000000000E+00 -0.00000000000E+00 -0.14055692182E+03  0.14055692184E+03  0.25500000000E-02 0.  1.
         11    1    1    2    0    0 -0.87091928460E+02 -0.19146356443E+03  0.77602402848E+03  0.80402524419E+03  0.51100000000E-03 0.  1.
         22    1    1    2    0    0  0.75923094429E+02  0.15355836814E+03  0.17035200437E+03  0.24158703211E+03  0.00000000000E+00 0.  1.
         -2    1    1    2    0  501  0.11168834031E+02  0.37905196287E+02 -0.86645949410E+02  0.95231650804E+02  0.25500000000E-02 0.  1.
<mgrwt>
<rscale>  0 0.39516411E+02</rscale>
<asrwt>0</asrwt>
<pdfrwt beam="1">  1       11 0.10000000E+01 0.19930653E+03</pdfrwt>
<pdfrwt beam="2">  1       -2 0.21630347E-01 0.39516411E+02</pdfrwt>
<totfact> 0.13776710E+02</totfact>
</mgrwt>
</event>
<event>
 5    1  0.2226716E-003  0.1844184E+03  0.7818608E-02  0.1213256E+00
         11   -1    0    0    0    0  0.00000000000E+00  0.00000000000E+00  0.10000069097E+04  0.10000069097E+04  0.51100000000E-03 0. -1.
          2   -1    0    0  501    0 -0.00000000000E+00 -0.00000000000E+00 -0.24601568590E+04  0.24601568590E+04  0.25500000000E-02 0. -1.
         11    1    1    2    0    0 -0.27367468714E+03 -0.79964089955E+02  0.53877371419E+03  0.60956476699E+03  0.51100000000E-03 0. -1.
         22    1    1    2    0    0  0.13484860392E+03  0.61454591042E+02  0.41084984482E+03  0.43675898128E+03  0.00000000000E+00 0.  1.
          2    1    1    2  501    0  0.13882608321E+03  0.18509498914E+02 -0.24097735083E+04  0.24138400204E+04  0.25500000000E-02 0. -1.
<mgrwt>
<rscale>  0 0.14005457E+03</rscale>
<asrwt>0</asrwt>
<pdfrwt beam="1">  1       11 0.10000000E+01 0.18441845E+03</pdfrwt>
<pdfrwt beam="2">  1        2 0.37848827E+00 0.14005457E+03</pdfrwt>
<totfact> 0.57358168E+00</totfact>
</mgrwt>
</event>
<event>
 5    1  0.2226716E-003  0.1814545E+03  0.7818608E-02  0.1166403E+00
         11   -1    0    0    0    0  0.00000000000E+00  0.00000000000E+00  0.10000947078E+04  0.10000947078E+04  0.51100000000E-03 0. -1.
          2   -1    0    0  501    0 -0.00000000000E+00 -0.00000000000E+00 -0.58136602757E+02  0.58136602813E+02  0.25500000000E-02 0. -1.
         11    1    1    2    0    0  0.15599730449E+03 -0.39733805908E+02  0.42658458267E+03  0.45594773879E+03  0.51100000000E-03 0. -1.
         22    1    1    2    0    0  0.11593906299E+02 -0.59266082164E+02  0.32305909737E+03  0.32865493691E+03  0.00000000000E+00 0. -1.
          2    1    1    2  501    0 -0.16759121079E+03  0.98999888073E+02  0.19231442500E+03  0.27362863491E+03  0.25500000000E-02 0. -1.
<mgrwt>
<rscale>  0 0.18145445E+03</rscale>
<asrwt>0</asrwt>
<pdfrwt beam="1">  1       11 0.10000000E+01 0.60389462E+02</pdfrwt>
<pdfrwt beam="2">  1        2 0.89449396E-02 0.18145445E+03</pdfrwt>
<totfact> 0.88779137E+02</totfact>
</mgrwt>
</event>
<event>
 5    1  0.2226716E-003  0.3162675E+03  0.7818608E-02  0.1077380E+00
         11   -1    0    0    0    0  0.00000000000E+00  0.00000000000E+00  0.10003201369E+04  0.10003201369E+04  0.51100000000E-03 0. -1.
          2   -1    0    0  501    0 -0.00000000000E+00 -0.00000000000E+00 -0.12355051220E+03  0.12355051222E+03  0.25500000000E-02 0. -1.
         11    1    1    2    0    0  0.11563480738E+03  0.29279064767E+03  0.60922388994E+03  0.68574887540E+03  0.51100000000E-03 0. -1.
         22    1    1    2    0    0 -0.16065152784E+02  0.82815392330E+01  0.51054883785E+02  0.54159709973E+02  0.00000000000E+00 0. -1.
          2    1    1    2  501    0 -0.99569654594E+02 -0.30107218691E+03  0.21649085100E+03  0.38396206378E+03  0.25500000000E-02 0. -1.
<mgrwt>
<rscale>  0 0.31626746E+03</rscale>
<asrwt>0</asrwt>
<pdfrwt beam="1">  1       11 0.10000000E+01 0.18074098E+02</pdfrwt>
<pdfrwt beam="2">  1        2 0.19013856E-01 0.31626746E+03</pdfrwt>
<totfact> 0.36502982E+02</totfact>
</mgrwt>
</event>
<event>
 5    1  0.2226716E-003  0.9919418E+02  0.7818608E-02  0.1594904E+00
         11   -1    0    0    0    0  0.00000000000E+00  0.00000000000E+00  0.10000254080E+04  0.10000254080E+04  0.51100000000E-03 0. -1.
          2   -1    0    0  501    0 -0.00000000000E+00 -0.00000000000E+00 -0.28328800148E+02  0.28328800262E+02  0.25500000000E-02 0. -1.
         11    1    1    2    0    0  0.68705442303E+02  0.57043974535E+02  0.35084979465E+03  0.36203595297E+03  0.51100000000E-03 0. -1.
         22    1    1    2    0    0 -0.65045534782E+02 -0.87112174636E+02  0.62619254193E+03  0.63556003031E+03  0.00000000000E+00 0. -1.
          2    1    1    2  501    0 -0.36599075205E+01  0.30068200101E+02 -0.53457287499E+01  0.30758224961E+02  0.25500000000E-02 0. -1.
<mgrwt>
<rscale>  0 0.30290124E+02</rscale>
<asrwt>0</asrwt>
<pdfrwt beam="1">  1       11 0.10000000E+01 0.99194185E+02</pdfrwt>
<pdfrwt beam="2">  1        2 0.43583876E-02 0.30290124E+02</pdfrwt>
<totfact> 0.18693540E+03</totfact>
</mgrwt>
</event>
<event>
 5    1  0.2226716E-003  0.1413519E+03  0.7818608E-02  0.1325952E+00
         11   -1    0    0    0    0  0.00000000000E+00  0.00000000000E+00  0.10002576593E+04  0.10002576593E+04  0.51100000000E-03 0. -1.
          2   -1    0    0  501    0 -0.00000000000E+00 -0.00000000000E+00 -0.41682145075E+02  0.41682145153E+02  0.25500000000E-02 0. -1.
         11    1    1    2    0    0 -0.11811748412E+03  0.73206294552E+02  0.42299782155E+03  0.44523932739E+03  0.51100000000E-03 0. -1.
         22    1    1    2    0    0  0.70564128463E+02 -0.13890444632E+03  0.46065105291E+03  0.48628503368E+03  0.00000000000E+00 0. -1.
          2    1    1    2  501    0  0.47553355662E+02  0.65698151770E+02  0.74926639708E+02  0.11041544333E+03  0.25500000000E-02 0. -1.
<mgrwt>
<rscale>  0 0.81102212E+02</rscale>
<asrwt>0</asrwt>
<pdfrwt beam="1">  1       11 0.10000000E+01 0.14135194E+03</pdfrwt>
<pdfrwt beam="2">  1        2 0.64142898E-02 0.81102212E+02</pdfrwt>
<totfact> 0.12756240E+03</totfact>
</mgrwt>
</event>
<event>
 5    1  0.2226716E-003  0.1071513E+03  0.7818608E-02  0.1608878E+00
         11   -1    0    0    0    0  0.00000000000E+00  0.00000000000E+00  0.10004954115E+04  0.10004954115E+04  0.51100000000E-03 0.  1.
          2   -1    0    0  501    0 -0.00000000000E+00 -0.00000000000E+00 -0.20161635147E+02  0.20161635308E+02  0.25500000000E-02 0.  1.
         11    1    1    2    0    0  0.94388593749E+00  0.99764368707E+02  0.59223025592E+03  0.60057513785E+03  0.51100000000E-03 0.  1.
         22    1    1    2    0    0  0.88359279675E+01 -0.12711460005E+03  0.34776722365E+03  0.37037580512E+03  0.00000000000E+00 0.  1.
          2    1    1    2  501    0 -0.97798139049E+01  0.27350231343E+02  0.40336296810E+02  0.49706103864E+02  0.25500000000E-02 0.  1.
<mgrwt>
<rscale>  0 0.29046169E+02</rscale>
<asrwt>0</asrwt>
<pdfrwt beam="1">  1       11 0.10000000E+01 0.10715126E+03</pdfrwt>
<pdfrwt beam="2">  1        2 0.31033266E-02 0.29046169E+02</pdfrwt>
<totfact> 0.28520868E+03</totfact>
</mgrwt>
</event>
<event>
 5    1  0.2226716E-003  0.1901413E+03  0.7818608E-02  0.1558084E+00
         11   -1    0    0    0    0  0.00000000000E+00  0.00000000000E+00  0.10003499513E+04  0.10003499513E+04  0.51100000000E-03 0. -1.
          2   -1    0    0  501    0 -0.00000000000E+00 -0.00000000000E+00 -0.72604106037E+02  0.72604106081E+02  0.25500000000E-02 0. -1.
         11    1    1    2    0    0 -0.17692066338E+03 -0.86931126782E+02  0.37970326134E+03  0.42782298747E+03  0.51100000000E-03 0. -1.
         22    1    1    2    0    0  0.17919328682E+03  0.53052623191E+02  0.57318488014E+03  0.60288118372E+03  0.00000000000E+00 0. -1.
          2    1    1    2  501    0 -0.22726234411E+01  0.33878503591E+02 -0.25142296174E+02  0.42249886228E+02  0.25500000000E-02 0. -1.
<mgrwt>
<rscale>  0 0.33954644E+02</rscale>
<asrwt>0</asrwt>
<pdfrwt beam="1">  1       11 0.10000000E+01 0.19014129E+03</pdfrwt>
<pdfrwt beam="2">  1        2 0.11173771E-01 0.33954644E+02</pdfrwt>
<totfact> 0.60733354E+02</totfact>
</mgrwt>
</event>
<event>
 5    1  0.2226716E-003  0.8272755E+02  0.7818608E-02  0.1321485E+00
         11   -1    0    0    0    0  0.00000000000E+00  0.00000000000E+00  0.10002174666E+04  0.10002174666E+04  0.51100000000E-03 0. -1.
          2   -1    0    0  501    0 -0.00000000000E+00 -0.00000000000E+00 -0.28418686231E+02  0.28418686345E+02  0.25500000000E-02 0. -1.
         11    1    1    2    0    0 -0.77924022998E+02 -0.79164335131E+02  0.63674282811E+03  0.64635947774E+03  0.51100000000E-03 0. -1.
         22    1    1    2    0    0  0.77104460221E+02 -0.32873128828E+01  0.25845250725E+03  0.26972875768E+03  0.00000000000E+00 0. -1.
          2    1    1    2  501    0  0.81956277764E+00  0.82451648014E+02  0.76603444962E+02  0.11254791748E+03  0.25500000000E-02 0. -1.
<mgrwt>
<rscale>  0 0.82727553E+02</rscale>
<asrwt>0</asrwt>
<pdfrwt beam="1">  1       11 0.10000000E+01 0.77174505E+02</pdfrwt>
<pdfrwt beam="2">  1        2 0.43730562E-02 0.82727553E+02</pdfrwt>
<totfact> 0.20862814E+03</totfact>
</mgrwt>
</event>
<event>
 5    1  0.2226716E-003  0.1029965E+04  0.7818608E-02  0.9276277E-01
         11   -1    0    0    0    0  0.00000000000E+00  0.00000000000E+00  0.99992254509E+03  0.99992254509E+03  0.51100000000E-03 0. -1.
          2   -1    0    0  501    0 -0.00000000000E+00 -0.00000000000E+00 -0.14134642127E+04  0.14134642127E+04  0.25500000000E-02 0. -1.
         11    1    1    2    0    0 -0.46928967738E+03 -0.87377276669E+03  0.11942502632E+03  0.99898647939E+03  0.51100000000E-03 0. -1.
         22    1    1    2    0    0 -0.54160724880E+01 -0.62200400076E+02  0.14985895407E+03  0.16234509455E+03  0.00000000000E+00 0.  1.
          2    1    1    2  501    0  0.47470574987E+03  0.93597316676E+03 -0.68282564803E+03  0.12520551839E+04  0.25500000000E-02 0. -1.
<mgrwt>
<rscale>  0 0.10299648E+04</rscale>
<asrwt>0</asrwt>
<pdfrwt beam="1">  1       11 0.10000000E+01 0.62435756E+02</pdfrwt>
<pdfrwt beam="2">  1        2 0.21743918E+00 0.10299648E+04</pdfrwt>
<totfact> 0.17438497E+01</totfact>
</mgrwt>
</event>
<event>
 5    1  0.2226716E-003  0.2168658E+03  0.7818608E-02  0.1136242E+00
         11   -1    0    0    0    0  0.00000000000E+00  0.00000000000E+00  0.10002714390E+04  0.10002714390E+04  0.51100000000E-03 0. -1.
         -2   -1    0    0    0  501 -0.00000000000E+00 -0.00000000000E+00 -0.69698763147E+02  0.69698763194E+02  0.25500000000E-02 0.  1.
         11    1    1    2    0    0  0.20491778809E+03 -0.12227998334E+03  0.62091836569E+03  0.66519419048E+03  0.51100000000E-03 0. -1.
         22    1    1    2    0    0 -0.25229933008E+02  0.15947748215E+02  0.11677238978E+03  0.12052664107E+03  0.00000000000E+00 0.  1.
         -2    1    1    2    0  501 -0.17968785509E+03  0.10633223512E+03  0.19288192038E+03  0.28424937064E+03  0.25500000000E-02 0.  1.
<mgrwt>
<rscale>  0 0.21686578E+03</rscale>
<asrwt>0</asrwt>
<pdfrwt beam="1">  1       11 0.10000000E+01 0.29847616E+02</pdfrwt>
<pdfrwt beam="2">  1       -2 0.10725797E-01 0.21686578E+03</pdfrwt>
<totfact> 0.46885183E+02</totfact>
</mgrwt>
</event>
<event>
 5    1  0.2226716E-003  0.2556943E+03  0.7818608E-02  0.1109758E+00
         11   -1    0    0    0    0  0.00000000000E+00  0.00000000000E+00  0.10000763652E+04  0.10000763652E+04  0.51100000000E-03 0. -1.
         -2   -1    0    0    0  501 -0.00000000000E+00 -0.00000000000E+00 -0.19917955462E+03  0.19917955464E+03  0.25500000000E-02 0.  1.
         11    1    1    2    0    0 -0.23368767612E+03 -0.91842115369E+02  0.68694327036E+03  0.73139316432E+03  0.51100000000E-03 0. -1.
         22    1    1    2    0    0 -0.19128010850E+02  0.46313521473E+02  0.19275803472E+03  0.19916446224E+03  0.00000000000E+00 0.  1.
         -2    1    1    2    0  501  0.25281568697E+03  0.45528593896E+02 -0.78804494513E+02  0.26869829326E+03  0.25500000000E-02 0.  1.
<mgrwt>
<rscale>  0 0.25569431E+03</rscale>
<asrwt>0</asrwt>
<pdfrwt beam="1">  1       11 0.10000000E+01 0.50108114E+02</pdfrwt>
<pdfrwt beam="2">  1       -2 0.30645348E-01 0.25569431E+03</pdfrwt>
<totfact> 0.79241471E+01</totfact>
</mgrwt>
</event>
<event>
 5    1  0.2226716E-003  0.2023183E+03  0.7818608E-02  0.1147798E+00
         11   -1    0    0    0    0  0.00000000000E+00  0.00000000000E+00  0.10001768069E+04  0.10001768069E+04  0.51100000000E-03 0.  1.
          2   -1    0    0  501    0 -0.00000000000E+00 -0.00000000000E+00 -0.33805872373E+03  0.33805872374E+03  0.25500000000E-02 0.  1.
         11    1    1    2    0    0  0.26493088227E+03  0.32141520987E+02  0.77655617451E+03  0.82113393665E+03  0.51100000000E-03 0.  1.
         22    1    1    2    0    0 -0.76797219434E+02  0.35524703438E+02  0.15796572440E+03  0.17920096973E+03  0.00000000000E+00 0.  1.
          2    1    1    2  501    0 -0.18813366283E+03 -0.67666224425E+02 -0.27240381576E+03  0.33790062425E+03  0.25500000000E-02 0.  1.
<mgrwt>
<rscale>  0 0.20231835E+03</rscale>
<asrwt>0</asrwt>
<pdfrwt beam="1">  1       11 0.10000000E+01 0.84615705E+02</pdfrwt>
<pdfrwt beam="2">  1        2 0.52018228E-01 0.20231835E+03</pdfrwt>
<totfact> 0.11928311E+02</totfact>
</mgrwt>
</event>
<event>
 5    1  0.2226716E-003  0.2910975E+03  0.7818608E-02  0.1089778E+00
         11   -1    0    0    0    0  0.00000000000E+00  0.00000000000E+00  0.10000027150E+04  0.10000027150E+04  0.51100000000E-03 0. -1.
          2   -1    0    0  501    0 -0.00000000000E+00 -0.00000000000E+00 -0.55445037652E+03  0.55445037652E+03  0.25500000000E-02 0. -1.
         11    1    1    2    0    0 -0.20513766537E+03  0.14795554281E+03  0.67029998415E+03  0.71643169469E+03  0.51100000000E-03 0. -1.
         22    1    1    2    0    0  0.19237676561E+03  0.15179587747E+03  0.20116501898E+03  0.31704601121E+03  0.00000000000E+00 0. -1.
          2    1    1    2  501    0  0.12760899758E+02 -0.29975142028E+03 -0.42591266464E+03  0.52097538563E+03  0.25500000000E-02 0. -1.
<mgrwt>
<rscale>  0 0.29109751E+03</rscale>
<asrwt>0</asrwt>
<pdfrwt beam="1">  1       11 0.10000000E+01 0.24505266E+03</pdfrwt>
<pdfrwt beam="2">  1        2 0.85300287E-01 0.29109751E+03</pdfrwt>
<totfact> 0.68846452E+01</totfact>
</mgrwt>
</event>
<event>
 5    1  0.2226716E-003  0.2874314E+03  0.7818608E-02  0.1092392E+00
         11   -1    0    0    0    0  0.00000000000E+00  0.00000000000E+00  0.10001488511E+04  0.10001488511E+04  0.51100000000E-03 0. -1.
          2   -1    0    0  501    0 -0.00000000000E+00 -0.00000000000E+00 -0.23176144354E+03  0.23176144355E+03  0.25500000000E-02 0. -1.
         11    1    1    2    0    0  0.85247026938E+01 -0.27198991341E+03  0.82839844272E+03  0.87194906012E+03  0.51100000000E-03 0. -1.
         22    1    1    2    0    0  0.66483814438E+01 -0.13727992604E+02  0.50869522648E+02  0.53107128440E+02  0.00000000000E+00 0.  1.
          2    1    1    2  501    0 -0.15173084138E+02  0.28571790601E+03 -0.11088055782E+03  0.30685410606E+03  0.25500000000E-02 0. -1.
<mgrwt>
<rscale>  0 0.28612051E+03</rscale>
<asrwt>0</asrwt>
<pdfrwt beam="1">  1       11 0.10000000E+01 0.28743138E+03</pdfrwt>
<pdfrwt beam="2">  1        2 0.35660913E-01 0.28612051E+03</pdfrwt>
<totfact> 0.17965377E+02</totfact>
</mgrwt>
</event>
<event>
 5    1  0.2226716E-003  0.4961456E+03  0.7818608E-02  0.1179577E+00
         11   -1    0    0    0    0  0.00000000000E+00  0.00000000000E+00  0.10002125697E+04  0.10002125697E+04  0.51100000000E-03 0. -1.
          2   -1    0    0  501    0 -0.00000000000E+00 -0.00000000000E+00 -0.28323133057E+03  0.28323133058E+03  0.25500000000E-02 0. -1.
         11    1    1    2    0    0  0.43598152299E+03 -0.23459740733E+03  0.32823885152E+03  0.59401731925E+03  0.51100000000E-03 0. -1.
         22    1    1    2    0    0 -0.26802738096E+02 -0.50447034546E+02 -0.86975029527E-02  0.57125214569E+02  0.00000000000E+00 0.  1.
          2    1    1    2  501    0 -0.40917878490E+03  0.28504444188E+03  0.38875108515E+03  0.63230136649E+03  0.25500000000E-02 0. -1.
<mgrwt>
<rscale>  0 0.16835203E+03</rscale>
<asrwt>0</asrwt>
<pdfrwt beam="1">  1       11 0.10000000E+01 0.49614556E+03</pdfrwt>
<pdfrwt beam="2">  1        2 0.43583312E-01 0.16835203E+03</pdfrwt>
<totfact> 0.14409854E+02</totfact>
</mgrwt>
</event>
<event>
 5    1  0.2226716E-003  0.1778113E+03  0.7818608E-02  0.1169938E+00
         11   -1    0    0    0    0  0.00000000000E+00  0.00000000000E+00  0.10003234126E+04  0.10003234126E+04  0.51100000000E-03 0.  1.
         -2   -1    0    0    0  501 -0.00000000000E+00 -0.00000000000E+00 -0.13295900980E+03  0.13295900982E+03  0.25500000000E-02 0.  1.
         11    1    1    2    0    0 -0.21302604758E+03  0.19615132589E+02  0.64890411255E+03  0.68325792909E+03  0.51100000000E-03 0.  1.
         22    1    1    2    0    0  0.38749943738E+02 -0.23367967082E+02  0.26561556624E+03  0.26944247820E+03  0.00000000000E+00 0.  1.
         -2    1    1    2    0  501  0.17427610384E+03  0.37528344927E+01 -0.47155275977E+02  0.18058201515E+03  0.25500000000E-02 0.  1.
<mgrwt>
<rscale>  0 0.17781132E+03</rscale>
<asrwt>0</asrwt>
<pdfrwt beam="1">  1       11 0.10000000E+01 0.45250636E+02</pdfrwt>
<pdfrwt beam="2">  1       -2 0.20461847E-01 0.17781132E+03</pdfrwt>
<totfact> 0.16044128E+02</totfact>
</mgrwt>
</event>
<event>
 5    1  0.2226716E-003  0.8955372E+02  0.7818608E-02  0.1303936E+00
         11   -1    0    0    0    0  0.00000000000E+00  0.00000000000E+00  0.10001773732E+04  0.10001773732E+04  0.51100000000E-03 0.  1.
          2   -1    0    0  501    0 -0.00000000000E+00 -0.00000000000E+00 -0.25619528741E+03  0.25619528743E+03  0.25500000000E-02 0.  1.
         11    1    1    2    0    0 -0.25213944538E+02 -0.14258099260E+03  0.71403945329E+03  0.72857218126E+03  0.51100000000E-03 0.  1.
         22    1    1    2    0    0  0.57671753022E+02  0.59535927456E+02  0.26433281900E+03  0.27702418117E+03  0.00000000000E+00 0.  1.
          2    1    1    2  501    0 -0.32457808485E+02  0.83045065140E+02 -0.23439018653E+03  0.25077629817E+03  0.25500000000E-02 0.  1.
<mgrwt>
<rscale>  0 0.89553719E+02</rscale>
<asrwt>0</asrwt>
<pdfrwt beam="1">  1       11 0.10000000E+01 0.82888828E+02</pdfrwt>
<pdfrwt beam="2">  1        2 0.39421650E-01 0.89553719E+02</pdfrwt>
<totfact> 0.15931520E+02</totfact>
</mgrwt>
</event>
<event>
 5    1  0.2226716E-003  0.1553285E+03  0.7818608E-02  0.1331555E+00
         11   -1    0    0    0    0  0.00000000000E+00  0.00000000000E+00  0.10005020860E+04  0.10005020860E+04  0.51100000000E-03 0.  1.
          2   -1    0    0  501    0 -0.00000000000E+00 -0.00000000000E+00 -0.92310245283E+02  0.92310245318E+02  0.25500000000E-02 0.  1.
         11    1    1    2    0    0  0.15621393514E+03  0.79479003204E+01  0.88150340336E+03  0.89527326152E+03  0.51100000000E-03 0.  1.
         22    1    1    2    0    0 -0.11380063539E+02 -0.38665863213E+02  0.28683354089E+02  0.49470088194E+02  0.00000000000E+00 0.  1.
          2    1    1    2  501    0 -0.14483387160E+03  0.30717962892E+02 -0.19949167604E+01  0.14806898158E+03  0.25500000000E-02 0.  1.
<mgrwt>
<rscale>  0 0.79124178E+02</rscale>
<asrwt>0</asrwt>
<pdfrwt beam="1">  1       11 0.10000000E+01 0.15532853E+03</pdfrwt>
<pdfrwt beam="2">  1        2 0.14208706E-01 0.79124178E+02</pdfrwt>
<totfact> 0.48578470E+02</totfact>
</mgrwt>
</event>
<event>
 5    1  0.2226716E-003  0.1592280E+03  0.7818608E-02  0.1189571E+00
         11   -1    0    0    0    0  0.00000000000E+00  0.00000000000E+00  0.10001704850E+04  0.10001704850E+04  0.51100000000E-03 0.  1.
          2   -1    0    0  501    0 -0.00000000000E+00 -0.00000000000E+00 -0.11823542531E+03  0.11823542533E+03  0.25500000000E-02 0.  1.
         11    1    1    2    0    0  0.78233118594E+02  0.14358207475E+03 -0.45795223739E+02  0.16980410935E+03  0.51100000000E-03 0.  1.
         22    1    1    2    0    0 -0.13945528125E+02 -0.60359946196E+02  0.13041063413E+03  0.14437705619E+03  0.00000000000E+00 0.  1.
          2    1    1    2  501    0 -0.64287590470E+02 -0.83222128553E+02  0.79731964928E+03  0.80422474477E+03  0.25500000000E-02 0.  1.
<mgrwt>
<rscale>  0 0.15922805E+03</rscale>
<asrwt>0</asrwt>
<pdfrwt beam="1">  1       11 0.10000000E+01 0.61949987E+02</pdfrwt>
<pdfrwt beam="2">  1        2 0.18193166E-01 0.15922805E+03</pdfrwt>
<totfact> 0.37627704E+02</totfact>
</mgrwt>
</event>
<event>
 5    1  0.2226716E-003  0.4063510E+03  0.7818608E-02  0.1041602E+00
         11   -1    0    0    0    0  0.00000000000E+00  0.00000000000E+00  0.10001532890E+04  0.10001532890E+04  0.51100000000E-03 0. -1.
         -2   -1    0    0    0  501 -0.00000000000E+00 -0.00000000000E+00 -0.21406065752E+03  0.21406065754E+03  0.25500000000E-02 0.  1.
         11    1    1    2    0    0  0.37175745097E+03 -0.15836267042E+03  0.61681543542E+03  0.73738973352E+03  0.51100000000E-03 0. -1.
         22    1    1    2    0    0 -0.16729555119E+01 -0.11738483845E+02  0.51479668971E+02  0.52827522188E+02  0.00000000000E+00 0.  1.
         -2    1    1    2    0  501 -0.37008449546E+03  0.17010115427E+03  0.11779752713E+03  0.42399669087E+03  0.25500000000E-02 0.  1.
<mgrwt>
<rscale>  0 0.40635096E+03</rscale>
<asrwt>0</asrwt>
<pdfrwt beam="1">  1       11 0.10000000E+01 0.11857098E+02</pdfrwt>
<pdfrwt beam="2">  1       -2 0.32937456E-01 0.40635096E+03</pdfrwt>
<totfact> 0.69641816E+01</totfact>
</mgrwt>
</event>
<event>
 5    1  0.2226716E-003  0.1370219E+03  0.7818608E-02  0.1217393E+00
         11   -1    0    0    0    0  0.00000000000E+00  0.00000000000E+00  0.10002524449E+04  0.10002524449E+04  0.51100000000E-03 0.  1.
          2   -1    0    0  501    0 -0.00000000000E+00 -0.00000000000E+00 -0.70888761861E+03  0.70888761862E+03  0.25500000000E-02 0.  1.
         11    1    1    2    0    0  0.29892355944E+02  0.25452142169E+03  0.41124474815E+03  0.48455851032E+03  0.51100000000E-03 0.  1.
         22    1    1    2    0    0 -0.15653324275E+02 -0.12007920111E+03  0.53876421106E+03  0.55220550180E+03  0.00000000000E+00 0.  1.
          2    1    1    2  501    0 -0.14239031669E+02 -0.13444222058E+03 -0.65864413291E+03  0.67237605142E+03  0.25500000000E-02 0.  1.
<mgrwt>
<rscale>  0 0.13702190E+03</rscale>
<asrwt>0</asrwt>
<pdfrwt beam="1">  1       11 0.10000000E+01 0.12109517E+03</pdfrwt>
<pdfrwt beam="2">  1        2 0.10908716E+00 0.13702190E+03</pdfrwt>
<totfact> 0.52628730E+01</totfact>
</mgrwt>
</event>
<event>
 5    1  0.2226716E-003  0.1218770E+03  0.7818608E-02  0.1447558E+00
         11   -1    0    0    0    0  0.00000000000E+00  0.00000000000E+00  0.99994301019E+03  0.99994301019E+03  0.51100000000E-03 0. -1.
          2   -1    0    0  501    0 -0.00000000000E+00 -0.00000000000E+00 -0.24692977700E+02  0.24692977831E+02  0.25500000000E-02 0. -1.
         11    1    1    2    0    0  0.45360619489E+02 -0.11022063857E+03  0.69447785004E+03  0.70463157690E+03  0.51100000000E-03 0. -1.
         22    1    1    2    0    0  0.19614161617E+02 -0.47395057883E+01  0.53150110768E+02  0.56851671266E+02  0.00000000000E+00 0.  1.
          2    1    1    2  501    0 -0.64974781106E+02  0.11496014436E+03  0.22762207168E+03  0.26315273986E+03  0.25500000000E-02 0. -1.
<mgrwt>
<rscale>  0 0.49591464E+02</rscale>
<asrwt>0</asrwt>
<pdfrwt beam="1">  1       11 0.10000000E+01 0.12187695E+03</pdfrwt>
<pdfrwt beam="2">  1        2 0.37987030E-02 0.49591464E+02</pdfrwt>
<totfact> 0.23665200E+03</totfact>
</mgrwt>
</event>
<event>
 5    1  0.2226716E-003  0.1333974E+03  0.7818608E-02  0.1222500E+00
         11   -1    0    0    0    0  0.00000000000E+00  0.00000000000E+00  0.10000168467E+04  0.10000168467E+04  0.51100000000E-03 0. -1.
          2   -1    0    0  501    0 -0.00000000000E+00 -0.00000000000E+00 -0.33907225246E+02  0.33907225341E+02  0.25500000000E-02 0. -1.
         11    1    1    2    0    0 -0.78357918224E+02  0.94590356360E+02  0.50505442308E+03  0.51977617215E+03  0.51100000000E-03 0. -1.
         22    1    1    2    0    0 -0.49970533445E+02 -0.34809122121E+02  0.26750003926E+03  0.27434467408E+03  0.00000000000E+00 0.  1.
          2    1    1    2  501    0  0.12832845167E+03 -0.59781234240E+02  0.19355515907E+03  0.23980322576E+03  0.25500000000E-02 0. -1.
<mgrwt>
<rscale>  0 0.13339742E+03</rscale>
<asrwt>0</asrwt>
<pdfrwt beam="1">  1       11 0.10000000E+01 0.60899337E+02</pdfrwt>
<pdfrwt beam="2">  1        2 0.52165839E-02 0.13339742E+03</pdfrwt>
<totfact> 0.17316646E+03</totfact>
</mgrwt>
</event>
<event>
 5    1  0.2226716E-003  0.2364653E+03  0.7818608E-02  0.1122170E+00
         11   -1    0    0    0    0  0.00000000000E+00  0.00000000000E+00  0.10002652182E+04  0.10002652182E+04  0.51100000000E-03 0. -1.
          2   -1    0    0  501    0 -0.00000000000E+00 -0.00000000000E+00 -0.13053243543E+03  0.13053243545E+03  0.25500000000E-02 0. -1.
         11    1    1    2    0    0  0.15689038590E+03  0.18930804724E+03  0.82730217716E+03  0.86306490038E+03  0.51100000000E-03 0. -1.
         22    1    1    2    0    0 -0.72528629981E+00 -0.13567545693E+02  0.29263410285E+02  0.32263780278E+02  0.00000000000E+00 0.  1.
          2    1    1    2  501    0 -0.15616509960E+03 -0.17574050155E+03  0.13167195360E+02  0.23546897302E+03  0.25500000000E-02 0. -1.
<mgrwt>
<rscale>  0 0.23646529E+03</rscale>
<asrwt>0</asrwt>
<pdfrwt beam="1">  1       11 0.10000000E+01 0.13586918E+02</pdfrwt>
<pdfrwt beam="2">  1        2 0.20087239E-01 0.23646529E+03</pdfrwt>
<totfact> 0.33992588E+02</totfact>
</mgrwt>
</event>
<event>
 5    1  0.2226716E-003  0.4096886E+03  0.7818608E-02  0.1040476E+00
         11   -1    0    0    0    0  0.00000000000E+00  0.00000000000E+00  0.10004370688E+04  0.10004370688E+04  0.51100000000E-03 0. -1.
          2   -1    0    0  501    0 -0.00000000000E+00 -0.00000000000E+00 -0.17998782679E+03  0.17998782680E+03  0.25500000000E-02 0. -1.
         11    1    1    2    0    0  0.10004239620E+03 -0.39687944260E+03  0.50596569532E+03  0.65078649174E+03  0.51100000000E-03 0. -1.
         22    1    1    2    0    0  0.11095802943E+02  0.22079730059E+01  0.25839918656E+02  0.28208037576E+02  0.00000000000E+00 0. -1.
          2    1    1    2  501    0 -0.11113819914E+03  0.39467146959E+03  0.28864362804E+03  0.50143036628E+03  0.25500000000E-02 0. -1.
<mgrwt>
<rscale>  0 0.40968859E+03</rscale>
<asrwt>0</asrwt>
<pdfrwt beam="1">  1       11 0.10000000E+01 0.11313354E+02</pdfrwt>
<pdfrwt beam="2">  1        2 0.27702537E-01 0.40968859E+03</pdfrwt>
<totfact> 0.23865222E+02</totfact>
</mgrwt>
</event>
<event>
 5    1  0.2226716E-003  0.3675840E+03  0.7818608E-02  0.1055621E+00
         11   -1    0    0    0    0  0.00000000000E+00  0.00000000000E+00  0.10003447441E+04  0.10003447441E+04  0.51100000000E-03 0. -1.
          2   -1    0    0  501    0 -0.00000000000E+00 -0.00000000000E+00 -0.10743073869E+04  0.10743073869E+04  0.25500000000E-02 0. -1.
         11    1    1    2    0    0  0.19485274354E+03 -0.32771102917E+03  0.77967316716E+03  0.86790112219E+03  0.51100000000E-03 0. -1.
         22    1    1    2    0    0 -0.43792877960E+02 -0.69023261852E+01  0.14032156889E+03  0.14715842131E+03  0.00000000000E+00 0. -1.
          2    1    1    2  501    0 -0.15105986558E+03  0.33461335536E+03 -0.99395737887E+03  0.10595925876E+04  0.25500000000E-02 0. -1.
<mgrwt>
<rscale>  0 0.36758398E+03</rscale>
<asrwt>0</asrwt>
<pdfrwt beam="1">  1       11 0.10000000E+01 0.44333489E+02</pdfrwt>
<pdfrwt beam="2">  1        2 0.16533503E+00 0.36758398E+03</pdfrwt>
<totfact> 0.29141229E+01</totfact>
</mgrwt>
</event>
<event>
 5    1  0.2226716E-003  0.3111740E+03  0.7818608E-02  0.1079785E+00
         11   -1    0    0    0    0  0.00000000000E+00  0.00000000000E+00  0.10003779352E+04  0.10003779352E+04  0.51100000000E-03 0. -1.
          2   -1    0    0  501    0 -0.00000000000E+00 -0.00000000000E+00 -0.55991800374E+03  0.55991800375E+03  0.25500000000E-02 0. -1.
         11    1    1    2    0    0 -0.21231904076E+03  0.33300013787E+03  0.58843223780E+03  0.70867550075E+03  0.51100000000E-03 0. -1.
         22    1    1    2    0    0  0.40085451479E+01 -0.10958004700E+03  0.29432752448E+03  0.31409002977E+03  0.00000000000E+00 0.  1.
          2    1    1    2  501    0  0.20831049561E+03 -0.22342009087E+03 -0.44229983084E+03  0.53753040840E+03  0.25500000000E-02 0. -1.
<mgrwt>
<rscale>  0 0.31117402E+03</rscale>
<asrwt>0</asrwt>
<pdfrwt beam="1">  1       11 0.10000000E+01 0.10965334E+03</pdfrwt>
<pdfrwt beam="2">  1        2 0.86173785E-01 0.31117402E+03</pdfrwt>
<totfact> 0.67950336E+01</totfact>
</mgrwt>
</event>
<event>
 5    1  0.2226716E-003  0.4863921E+03  0.7818608E-02  0.1017393E+00
         11   -1    0    0    0    0  0.00000000000E+00  0.00000000000E+00  0.10003419848E+04  0.10003419848E+04  0.51100000000E-03 0. -1.
          2   -1    0    0  501    0 -0.00000000000E+00 -0.00000000000E+00 -0.51246373624E+03  0.51246373624E+03  0.25500000000E-02 0. -1.
         11    1    1    2    0    0  0.24402655341E+03 -0.44968198187E+03  0.66565836192E+03  0.83956172994E+03  0.51100000000E-03 0. -1.
         22    1    1    2    0    0  0.85918112190E+00  0.34712039084E+02  0.10771664690E+03  0.11317481995E+03  0.00000000000E+00 0. -1.
          2    1    1    2  501    0 -0.24488573453E+03  0.41496994278E+03 -0.28549676024E+03  0.56006917118E+03  0.25500000000E-02 0. -1.
<mgrwt>
<rscale>  0 0.48639209E+03</rscale>
<asrwt>0</asrwt>
<pdfrwt beam="1">  1       11 0.10000000E+01 0.34722671E+02</pdfrwt>
<pdfrwt beam="2">  1        2 0.78867535E-01 0.48639209E+03</pdfrwt>
<totfact> 0.74619935E+01</totfact>
</mgrwt>
</event>
<event>
 5    1  0.2226716E-003  0.1845217E+03  0.7818608E-02  0.1163497E+00
         11   -1    0    0    0    0  0.00000000000E+00  0.00000000000E+00  0.10001845400E+04  0.10001845400E+04  0.51100000000E-03 0. -1.
          2   -1    0    0  501    0 -0.00000000000E+00 -0.00000000000E+00 -0.23972988975E+03  0.23972988976E+03  0.25500000000E-02 0. -1.
         11    1    1    2    0    0  0.47935615912E+02  0.17547847167E+03 -0.16067761223E+03  0.24270931660E+03  0.51100000000E-03 0. -1.
         22    1    1    2    0    0  0.12693498528E+03  0.11899867085E+01  0.40317983303E+03  0.42269123993E+03  0.00000000000E+00 0. -1.
          2    1    1    2  501    0 -0.17487060119E+03 -0.17666845838E+03  0.51795242950E+03  0.57451387327E+03  0.25500000000E-02 0. -1.
<mgrwt>
<rscale>  0 0.18452169E+03</rscale>
<asrwt>0</asrwt>
<pdfrwt beam="1">  1       11 0.10000000E+01 0.12694056E+03</pdfrwt>
<pdfrwt beam="2">  1        2 0.36888327E-01 0.18452169E+03</pdfrwt>
<totfact> 0.17243337E+02</totfact>
</mgrwt>
</event>
<event>
 5    1  0.2226716E-003  0.1573962E+03  0.7818608E-02  0.1568911E+00
         11   -1    0    0    0    0  0.00000000000E+00  0.00000000000E+00  0.10002169389E+04  0.10002169389E+04  0.51100000000E-03 0.  1.
          2   -1    0    0  501    0 -0.00000000000E+00 -0.00000000000E+00 -0.56020160996E+03  0.56020160997E+03  0.25500000000E-02 0. -1.
         11    1    1    2    0    0  0.20078388072E+02 -0.14372043290E+03  0.22427271217E+03  0.26712722423E+03  0.51100000000E-03 0.  1.
         22    1    1    2    0    0 -0.50889835406E+02  0.15500965549E+03  0.74518358632E+03  0.76283441582E+03  0.00000000000E+00 0.  1.
          2    1    1    2  501    0  0.30811447334E+02 -0.11289222594E+02 -0.52944096956E+03  0.53045690880E+03  0.25500000000E-02 0. -1.
<mgrwt>
<rscale>  0 0.32814507E+02</rscale>
<asrwt>0</asrwt>
<pdfrwt beam="1">  1       11 0.10000000E+01 0.15739622E+03</pdfrwt>
<pdfrwt beam="2">  1        2 0.86203557E-01 0.32814507E+02</pdfrwt>
<totfact> 0.70873692E+01</totfact>
</mgrwt>
</event>
<event>
 5    1  0.2226716E-003  0.2308700E+03  0.7818608E-02  0.1133065E+00
         11   -1    0    0    0    0  0.00000000000E+00  0.00000000000E+00  0.99970475757E+03  0.99970475757E+03  0.51100000000E-03 0. -1.
          2   -1    0    0  501    0 -0.00000000000E+00 -0.00000000000E+00 -0.30329776150E+03  0.30329776151E+03  0.25500000000E-02 0. -1.
         11    1    1    2    0    0  0.11205844584E+03  0.16724100095E+03  0.84798024154E+03  0.87154870072E+03  0.51100000000E-03 0. -1.
         22    1    1    2    0    0  0.28685318883E+02  0.32776177425E+01  0.95574628025E+02  0.99840371693E+02  0.00000000000E+00 0. -1.
          2    1    1    2  501    0 -0.14074376473E+03 -0.17051861869E+03 -0.24714787349E+03  0.33161344667E+03  0.25500000000E-02 0. -1.
<mgrwt>
<rscale>  0 0.22110044E+03</rscale>
<asrwt>0</asrwt>
<pdfrwt beam="1">  1       11 0.10000000E+01 0.23086996E+03</pdfrwt>
<pdfrwt beam="2">  1        2 0.46647416E-01 0.22110044E+03</pdfrwt>
<totfact> 0.13411628E+02</totfact>
</mgrwt>
</event>
<event>
 5    1  0.2226716E-003  0.1941383E+03  0.7818608E-02  0.1154781E+00
         11   -1    0    0    0    0  0.00000000000E+00  0.00000000000E+00  0.10001282651E+04  0.10001282651E+04  0.51100000000E-03 0. -1.
          2   -1    0    0  501    0 -0.00000000000E+00 -0.00000000000E+00 -0.18249959580E+03  0.18249959581E+03  0.25500000000E-02 0. -1.
         11    1    1    2    0    0 -0.57740180026E+02  0.96093007642E+02  0.60519312771E+03  0.61548884339E+03  0.51100000000E-03 0. -1.
         22    1    1    2    0    0 -0.12810348893E+03  0.26856683220E+01  0.30979479629E+03  0.33524697239E+03  0.00000000000E+00 0.  1.
          2    1    1    2  501    0  0.18584366896E+03 -0.98778675964E+02 -0.97359254692E+02  0.23189204514E+03  0.25500000000E-02 0. -1.
<mgrwt>
<rscale>  0 0.19413833E+03</rscale>
<asrwt>0</asrwt>
<pdfrwt beam="1">  1       11 0.10000000E+01 0.11210618E+03</pdfrwt>
<pdfrwt beam="2">  1        2 0.28080461E-01 0.19413833E+03</pdfrwt>
<totfact> 0.23222582E+02</totfact>
</mgrwt>
</event>
<event>
 5    1  0.2226716E-003  0.2363612E+03  0.7818608E-02  0.1122241E+00
         11   -1    0    0    0    0  0.00000000000E+00  0.00000000000E+00  0.10001322619E+04  0.10001322619E+04  0.51100000000E-03 0. -1.
          2   -1    0    0  501    0 -0.00000000000E+00 -0.00000000000E+00 -0.62910192574E+02  0.62910192625E+02  0.25500000000E-02 0. -1.
         11    1    1    2    0    0  0.18015866035E+03  0.14360776222E+03  0.46498066952E+03  0.51892904649E+03  0.51100000000E-03 0. -1.
         22    1    1    2    0    0 -0.57838469199E+01  0.24330424171E+02  0.73438293734E+02  0.77579671384E+02  0.00000000000E+00 0.  1.
          2    1    1    2  501    0 -0.17437481343E+03 -0.16793818639E+03  0.39880310605E+03  0.46653373662E+03  0.25500000000E-02 0. -1.
<mgrwt>
<rscale>  0 0.23636123E+03</rscale>
<asrwt>0</asrwt>
<pdfrwt beam="1">  1       11 0.10000000E+01 0.25008447E+02</pdfrwt>
<pdfrwt beam="2">  1        2 0.96797710E-02 0.23636123E+03</pdfrwt>
<totfact> 0.81569329E+02</totfact>
</mgrwt>
</event>
<event>
 5    1  0.2226716E-003  0.3260703E+03  0.7818608E-02  0.1072889E+00
         11   -1    0    0    0    0  0.00000000000E+00  0.00000000000E+00  0.10003348991E+04  0.10003348991E+04  0.51100000000E-03 0.  1.
         -2   -1    0    0    0  501 -0.00000000000E+00 -0.00000000000E+00 -0.39209106599E+03  0.39209106599E+03  0.25500000000E-02 0. -1.
         11    1    1    2    0    0 -0.15207740909E+03  0.32465513504E+03  0.35446970967E+03  0.50415996483E+03  0.51100000000E-03 0.  1.
         22    1    1    2    0    0 -0.57169333508E+02 -0.80083658163E+02  0.48312493191E+03  0.49304302533E+03  0.00000000000E+00 0. -1.
         -2    1    1    2    0  501  0.20924674260E+03 -0.24457147688E+03 -0.22935080844E+03  0.39522297495E+03  0.25500000000E-02 0. -1.
<mgrwt>
<rscale>  0 0.32607027E+03</rscale>
<asrwt>0</asrwt>
<pdfrwt beam="1">  1       11 0.10000000E+01 0.98395757E+02</pdfrwt>
<pdfrwt beam="2">  1       -2 0.60341902E-01 0.32607027E+03</pdfrwt>
<totfact> 0.21138082E+01</totfact>
</mgrwt>
</event>
<event>
 5    1  0.2226716E-003  0.7951999E+02  0.7818608E-02  0.1330419E+00
         11   -1    0    0    0    0  0.00000000000E+00  0.00000000000E+00  0.99996071572E+03  0.99996071572E+03  0.51100000000E-03 0. -1.
          2   -1    0    0  501    0 -0.00000000000E+00 -0.00000000000E+00 -0.17530743818E+02  0.17530744004E+02  0.25500000000E-02 0. -1.
         11    1    1    2    0    0 -0.11013510729E+02 -0.11472303445E+03  0.53861362038E+03  0.55080604945E+03  0.51100000000E-03 0. -1.
         22    1    1    2    0    0  0.41569847621E+02  0.49537435901E+02  0.28606024951E+03  0.29327883684E+03  0.00000000000E+00 0. -1.
          2    1    1    2  501    0 -0.30556336893E+02  0.65185598550E+02  0.15775610202E+03  0.17340657344E+03  0.25500000000E-02 0. -1.
<mgrwt>
<rscale>  0 0.79519989E+02</rscale>
<asrwt>0</asrwt>
<pdfrwt beam="1">  1       11 0.10000000E+01 0.64668461E+02</pdfrwt>
<pdfrwt beam="2">  1        2 0.26969315E-02 0.79519989E+02</pdfrwt>
<totfact> 0.39199827E+03</totfact>
</mgrwt>
</event>
<event>
 5    1  0.2226716E-003  0.2607073E+03  0.7818608E-02  0.1106719E+00
         11   -1    0    0    0    0  0.00000000000E+00  0.00000000000E+00  0.99944068573E+03  0.99944068573E+03  0.51100000000E-03 0.  1.
          2   -1    0    0  501    0 -0.00000000000E+00 -0.00000000000E+00 -0.38609971754E+04  0.38609971754E+04  0.25500000000E-02 0.  1.
         11    1    1    2    0    0 -0.21745745488E+03  0.74307283119E+02  0.33753558833E+03  0.40833759366E+03  0.51100000000E-03 0.  1.
         22    1    1    2    0    0  0.37976394560E+03  0.12899603919E+03  0.55735148987E+03  0.68665953410E+03  0.00000000000E+00 0.  1.
          2    1    1    2  501    0 -0.16230649072E+03 -0.20330332231E+03 -0.37564435679E+04  0.37654407334E+04  0.25500000000E-02 0.  1.
<mgrwt>
<rscale>  0 0.26070733E+03</rscale>
<asrwt>0</asrwt>
<pdfrwt beam="1">  1       11 0.10000000E+01 0.22980278E+03</pdfrwt>
<pdfrwt beam="2">  1        2 0.59366732E+00 0.26070733E+03</pdfrwt>
<totfact> 0.72130698E-01</totfact>
</mgrwt>
</event>
<event>
 5    1  0.2226716E-003  0.2199382E+03  0.7818608E-02  0.1145732E+00
         11   -1    0    0    0    0  0.00000000000E+00  0.00000000000E+00  0.10003404925E+04  0.10003404925E+04  0.51100000000E-03 0.  1.
          2   -1    0    0  501    0 -0.00000000000E+00 -0.00000000000E+00 -0.82383363102E+03  0.82383363102E+03  0.25500000000E-02 0.  1.
         11    1    1    2    0    0  0.84567336178E+02  0.15048642977E+03  0.78654636464E+03  0.80526578446E+03  0.51100000000E-03 0.  1.
         22    1    1    2    0    0  0.46524809988E+02  0.68901214193E+01  0.18862381732E+03  0.19439901280E+03  0.00000000000E+00 0.  1.
          2    1    1    2  501    0 -0.13109214617E+03 -0.15737655119E+03 -0.79866332047E+03  0.82450932628E+03  0.25500000000E-02 0.  1.
<mgrwt>
<rscale>  0 0.20482317E+03</rscale>
<asrwt>0</asrwt>
<pdfrwt beam="1">  1       11 0.10000000E+01 0.21993823E+03</pdfrwt>
<pdfrwt beam="2">  1        2 0.12678679E+00 0.20482317E+03</pdfrwt>
<totfact> 0.43114045E+01</totfact>
</mgrwt>
</event>
<event>
 5    1  0.2226716E-003  0.1992091E+03  0.7818608E-02  0.1151237E+00
         11   -1    0    0    0    0  0.00000000000E+00  0.00000000000E+00  0.10001147131E+04  0.10001147131E+04  0.51100000000E-03 0.  1.
          2   -1    0    0  501    0 -0.00000000000E+00 -0.00000000000E+00 -0.20704271522E+03  0.20704271523E+03  0.25500000000E-02 0.  1.
         11    1    1    2    0    0 -0.17466047844E+03 -0.67541271689E+02  0.90557112122E+03  0.92473085906E+03  0.51100000000E-03 0.  1.
         22    1    1    2    0    0 -0.10033638588E+02 -0.44666667787E+01  0.34131390395E+02  0.35854941440E+02  0.00000000000E+00 0. -1.
          2    1    1    2  501    0  0.18469411703E+03  0.72007938467E+02 -0.14663051376E+03  0.24657162780E+03  0.25500000000E-02 0.  1.
<mgrwt>
<rscale>  0 0.19823486E+03</rscale>
<asrwt>0</asrwt>
<pdfrwt beam="1">  1       11 0.10000000E+01 0.19920911E+03</pdfrwt>
<pdfrwt beam="2">  1        2 0.31856378E-01 0.19823486E+03</pdfrwt>
<totfact> 0.20232310E+02</totfact>
</mgrwt>
</event>
<event>
 5    1  0.2226716E-003  0.1008592E+03  0.7818608E-02  0.1287564E+00
         11   -1    0    0    0    0  0.00000000000E+00  0.00000000000E+00  0.10003881768E+04  0.10003881768E+04  0.51100000000E-03 0. -1.
          2   -1    0    0  501    0 -0.00000000000E+00 -0.00000000000E+00 -0.98291895923E+01  0.98291899231E+01  0.25500000000E-02 0. -1.
         11    1    1    2    0    0 -0.79444968301E+02 -0.21333304906E+02  0.48980637096E+03  0.49666577687E+03  0.51100000000E-03 0. -1.
         22    1    1    2    0    0 -0.10823808559E+02 -0.13125024218E+02  0.62486543409E+02  0.64761016049E+02  0.00000000000E+00 0. -1.
          2    1    1    2  501    0  0.90268776860E+02  0.34458329123E+02  0.43826607279E+03  0.44879057375E+03  0.25500000000E-02 0. -1.
<mgrwt>
<rscale>  0 0.96622091E+02</rscale>
<asrwt>0</asrwt>
<pdfrwt beam="1">  1       11 0.10000000E+01 0.10085921E+03</pdfrwt>
<pdfrwt beam="2">  1        2 0.15127700E-02 0.96622091E+02</pdfrwt>
<totfact> 0.87545474E+03</totfact>
</mgrwt>
</event>
<event>
 5    1  0.2226716E-003  0.6993007E+02  0.7818608E-02  0.1360331E+00
         11   -1    0    0    0    0  0.00000000000E+00  0.00000000000E+00  0.10000898894E+04  0.10000898894E+04  0.51100000000E-03 0. -1.
          2   -1    0    0  501    0 -0.00000000000E+00 -0.00000000000E+00 -0.10199714364E+02  0.10199714682E+02  0.25500000000E-02 0. -1.
         11    1    1    2    0    0 -0.62576831002E+02  0.16996714358E+02  0.21056748798E+03  0.22032570225E+03  0.51100000000E-03 0. -1.
         22    1    1    2    0    0 -0.49233584629E+01  0.40278330789E+02  0.22930017635E+03  0.23286295167E+03  0.00000000000E+00 0. -1.
          2    1    1    2  501    0  0.67500189464E+02 -0.57275045146E+02  0.55002251071E+03  0.55710095016E+03  0.25500000000E-02 0. -1.
<mgrwt>
<rscale>  0 0.69930073E+02</rscale>
<asrwt>0</asrwt>
<pdfrwt beam="1">  1       11 0.10000000E+01 0.40578115E+02</pdfrwt>
<pdfrwt beam="2">  1        2 0.15693279E-02 0.69930073E+02</pdfrwt>
<totfact> 0.79514873E+03</totfact>
</mgrwt>
</event>
<event>
 5    1  0.2226716E-003  0.3816140E+03  0.7818608E-02  0.1051744E+00
         11   -1    0    0    0    0  0.00000000000E+00  0.00000000000E+00  0.99985523777E+03  0.99985523777E+03  0.51100000000E-03 0.  1.
          2   -1    0    0  501    0 -0.00000000000E+00 -0.00000000000E+00 -0.63035121362E+03  0.63035121362E+03  0.25500000000E-02 0.  1.
         11    1    1    2    0    0 -0.25782865580E+03 -0.26042684222E+03  0.87244394654E+03  0.94628547265E+03  0.51100000000E-03 0.  1.
         22    1    1    2    0    0 -0.14816555963E+02 -0.11245833886E+01  0.28339572861E+02  0.31998850109E+02  0.00000000000E+00 0. -1.
          2    1    1    2  501    0  0.27264521176E+03  0.26155142560E+03 -0.53127949524E+03  0.65192212863E+03  0.25500000000E-02 0.  1.
<mgrwt>
<rscale>  0 0.37781551E+03</rscale>
<asrwt>0</asrwt>
<pdfrwt beam="1">  1       11 0.10000000E+01 0.38161403E+03</pdfrwt>
<pdfrwt beam="2">  1        2 0.96963068E-01 0.37781551E+03</pdfrwt>
<totfact> 0.58891141E+01</totfact>
</mgrwt>
</event>
<event>
 5    1  0.2226716E-003  0.1188565E+03  0.7818608E-02  0.1244996E+00
         11   -1    0    0    0    0  0.00000000000E+00  0.00000000000E+00  0.10003693962E+04  0.10003693962E+04  0.51100000000E-03 0.  1.
          2   -1    0    0  501    0 -0.00000000000E+00 -0.00000000000E+00 -0.28025453701E+03  0.28025453702E+03  0.25500000000E-02 0. -1.
         11    1    1    2    0    0 -0.14094965884E+03  0.75605089530E+02  0.87336510251E+03  0.88789049898E+03  0.51100000000E-03 0.  1.
         22    1    1    2    0    0  0.33250615869E+02 -0.26768015460E+02  0.10246381246E+03  0.11099983320E+03  0.00000000000E+00 0.  1.
          2    1    1    2  501    0  0.10769904297E+03 -0.48837074071E+02 -0.25571405575E+03  0.28173360107E+03  0.25500000000E-02 0. -1.
<mgrwt>
<rscale>  0 0.11885647E+03</rscale>
<asrwt>0</asrwt>
<pdfrwt beam="1">  1       11 0.10000000E+01 0.42686416E+02</pdfrwt>
<pdfrwt beam="2">  1        2 0.43132008E-01 0.11885647E+03</pdfrwt>
<totfact> 0.14536193E+02</totfact>
</mgrwt>
</event>
<event>
 5    1  0.2226716E-003  0.4097658E+03  0.7818608E-02  0.1041899E+00
         11   -1    0    0    0    0  0.00000000000E+00  0.00000000000E+00  0.99978473822E+03  0.99978473822E+03  0.51100000000E-03 0. -1.
          2   -1    0    0  501    0 -0.00000000000E+00 -0.00000000000E+00 -0.30253417532E+03  0.30253417533E+03  0.25500000000E-02 0. -1.
         11    1    1    2    0    0  0.22807410644E+03  0.30248497121E+03  0.70214043716E+03  0.79781962206E+03  0.51100000000E-03 0. -1.
         22    1    1    2    0    0  0.78806629884E+01  0.27269467434E+02  0.84624146722E+02  0.89257912320E+02  0.00000000000E+00 0.  1.
          2    1    1    2  501    0 -0.23595476943E+03 -0.32975443864E+03 -0.89514020984E+02  0.41524137918E+03  0.25500000000E-02 0. -1.
<mgrwt>
<rscale>  0 0.40547829E+03</rscale>
<asrwt>0</asrwt>
<pdfrwt beam="1">  1       11 0.10000000E+01 0.40976584E+03</pdfrwt>
<pdfrwt beam="2">  1        2 0.46533699E-01 0.40547829E+03</pdfrwt>
<totfact> 0.13453286E+02</totfact>
</mgrwt>
</event>
<event>
 5    1  0.4642068E-003  0.1719107E+03  0.7818608E-02  0.1180364E+00
         11   -1    0    0    0    0  0.00000000000E+00  0.00000000000E+00  0.10003316480E+04  0.10003316480E+04  0.51100000000E-03 0. -1.
          2   -1    0    0  501    0 -0.00000000000E+00 -0.00000000000E+00 -0.10065949052E+04  0.10065949052E+04  0.25500000000E-02 0. -1.
         11    1    1    2    0    0 -0.36496657465E+02  0.14676282167E+03  0.87470800123E+03  0.88768542809E+03  0.51100000000E-03 0. -1.
         22    1    1    2    0    0  0.89871857606E+01  0.18573478210E+02  0.11115636661E+03  0.11305521412E+03  0.00000000000E+00 0.  1.
          2    1    1    2  501    0  0.27509471704E+02 -0.16533629988E+03 -0.99212762503E+03  0.10061859110E+04  0.25500000000E-02 0. -1.
<mgrwt>
<rscale>  0 0.16760926E+03</rscale>
<asrwt>0</asrwt>
<pdfrwt beam="1">  1       11 0.10000000E+01 0.17191068E+03</pdfrwt>
<pdfrwt beam="2">  1        2 0.15491211E+00 0.16760926E+03</pdfrwt>
<totfact> 0.33297144E+01</totfact>
</mgrwt>
</event>
<event>
 5    1  0.2226716E-003  0.1855643E+03  0.7818608E-02  0.1162524E+00
         11   -1    0    0    0    0  0.00000000000E+00  0.00000000000E+00  0.10001818478E+04  0.10001818478E+04  0.51100000000E-03 0. -1.
          2   -1    0    0  501    0 -0.00000000000E+00 -0.00000000000E+00 -0.45676170305E+02  0.45676170376E+02  0.25500000000E-02 0. -1.
         11    1    1    2    0    0  0.62632292239E+02 -0.16159896913E+03  0.29783704440E+03  0.34459241993E+03  0.51100000000E-03 0. -1.
         22    1    1    2    0    0  0.59474294054E+01 -0.31367299798E+02  0.17469676410E+03  0.17759008644E+03  0.00000000000E+00 0. -1.
          2    1    1    2  501    0 -0.68579721644E+02  0.19296626893E+03  0.48197186905E+03  0.52367551186E+03  0.25500000000E-02 0. -1.
<mgrwt>
<rscale>  0 0.18556428E+03</rscale>
<asrwt>0</asrwt>
<pdfrwt beam="1">  1       11 0.10000000E+01 0.31926156E+02</pdfrwt>
<pdfrwt beam="2">  1        2 0.70283808E-02 0.18556428E+03</pdfrwt>
<totfact> 0.12066238E+03</totfact>
</mgrwt>
</event>
<event>
 5    1  0.2226716E-003  0.1284898E+03  0.7818608E-02  0.1229714E+00
         11   -1    0    0    0    0  0.00000000000E+00  0.00000000000E+00  0.99996859579E+03  0.99996859579E+03  0.51100000000E-03 0.  1.
          2   -1    0    0  501    0 -0.00000000000E+00 -0.00000000000E+00 -0.14189310888E+03  0.14189310890E+03  0.25500000000E-02 0.  1.
         11    1    1    2    0    0 -0.79832727793E+02 -0.14844132151E+03  0.84526738327E+03  0.86190779065E+03  0.51100000000E-03 0.  1.
         22    1    1    2    0    0  0.74011788497E+02  0.21042758280E+02  0.99475095937E+02  0.12576103222E+03  0.00000000000E+00 0.  1.
          2    1    1    2  501    0  0.58209392960E+01  0.12739856323E+03 -0.86666992299E+02  0.15419288183E+03  0.25500000000E-02 0.  1.
<mgrwt>
<rscale>  0 0.12848984E+03</rscale>
<asrwt>0</asrwt>
<pdfrwt beam="1">  1       11 0.10000000E+01 0.76945062E+02</pdfrwt>
<pdfrwt beam="2">  1        2 0.21829023E-01 0.12848984E+03</pdfrwt>
<totfact> 0.30397969E+02</totfact>
</mgrwt>
</event>
<event>
 5    1  0.2226716E-003  0.1936916E+03  0.7818608E-02  0.1155173E+00
         11   -1    0    0    0    0  0.00000000000E+00  0.00000000000E+00  0.10001063553E+04  0.10001063553E+04  0.51100000000E-03 0.  1.
          2   -1    0    0  501    0 -0.00000000000E+00 -0.00000000000E+00 -0.84917755221E+02  0.84917755260E+02  0.25500000000E-02 0.  1.
         11    1    1    2    0    0  0.15685490437E+03  0.16638847488E+03  0.18303743294E+03  0.29290149787E+03  0.51100000000E-03 0.  1.
         22    1    1    2    0    0 -0.17129724106E+01 -0.11482508208E+03  0.46454812739E+03  0.47853181337E+03  0.00000000000E+00 0.  1.
          2    1    1    2  501    0 -0.15514193195E+03 -0.51563392804E+02  0.26760303976E+03  0.31359079933E+03  0.25500000000E-02 0.  1.
<mgrwt>
<rscale>  0 0.19369162E+03</rscale>
<asrwt>0</asrwt>
<pdfrwt beam="1">  1       11 0.10000000E+01 0.11483786E+03</pdfrwt>
<pdfrwt beam="2">  1        2 0.13065659E-01 0.19369162E+03</pdfrwt>
<totfact> 0.55947716E+02</totfact>
</mgrwt>
</event>
<event>
 5    1  0.2226716E-003  0.1572727E+03  0.7818608E-02  0.1325952E+00
         11   -1    0    0    0    0  0.00000000000E+00  0.00000000000E+00  0.10001159663E+04  0.10001159663E+04  0.51100000000E-03 0. -1.
         -2   -1    0    0    0  501 -0.00000000000E+00 -0.00000000000E+00 -0.67726121563E+03  0.67726121564E+03  0.25500000000E-02 0.  1.
         11    1    1    2    0    0 -0.62248977729E+02  0.14094253339E+03  0.26720991695E+03  0.30844914113E+03  0.51100000000E-03 0. -1.
         22    1    1    2    0    0 -0.15362305248E+02 -0.16448073386E+03  0.70013241442E+03  0.71935756753E+03  0.00000000000E+00 0. -1.
         -2    1    1    2    0  501  0.77611282977E+02  0.23538200470E+02 -0.64448758068E+03  0.64957047330E+03  0.25500000000E-02 0.  1.
<mgrwt>
<rscale>  0 0.81102146E+02</rscale>
<asrwt>0</asrwt>
<pdfrwt beam="1">  1       11 0.10000000E+01 0.15727266E+03</pdfrwt>
<pdfrwt beam="2">  1       -2 0.10420611E+00 0.81102146E+02</pdfrwt>
<totfact> 0.65634277E+00</totfact>
</mgrwt>
</event>
<event>
 5    1  0.2226716E-003  0.1369727E+03  0.7818608E-02  0.1217462E+00
         11   -1    0    0    0    0  0.00000000000E+00  0.00000000000E+00  0.10004272698E+04  0.10004272698E+04  0.51100000000E-03 0.  1.
         -2   -1    0    0    0  501 -0.00000000000E+00 -0.00000000000E+00 -0.46525906278E+02  0.46525906348E+02  0.25500000000E-02 0. -1.
         11    1    1    2    0    0 -0.15136113407E+03  0.95878476306E+01  0.79524760302E+03  0.80958067531E+03  0.51100000000E-03 0.  1.
         22    1    1    2    0    0  0.17547858834E+02  0.69431584807E+01  0.78021112079E+02  0.80270970651E+02  0.00000000000E+00 0.  1.
         -2    1    1    2    0  501  0.13381327524E+03 -0.16531006111E+02  0.80632648457E+02  0.15710153022E+03  0.25500000000E-02 0. -1.
<mgrwt>
<rscale>  0 0.13697265E+03</rscale>
<asrwt>0</asrwt>
<pdfrwt beam="1">  1       11 0.10000000E+01 0.18871534E+02</pdfrwt>
<pdfrwt beam="2">  1       -2 0.71608899E-02 0.13697265E+03</pdfrwt>
<totfact> 0.85742600E+02</totfact>
</mgrwt>
</event>
<event>
 5    1  0.2226716E-003  0.4536420E+03  0.7818608E-02  0.1026642E+00
         11   -1    0    0    0    0  0.00000000000E+00  0.00000000000E+00  0.10002956803E+04  0.10002956803E+04  0.51100000000E-03 0.  1.
          2   -1    0    0  501    0 -0.00000000000E+00 -0.00000000000E+00 -0.28254797415E+03  0.28254797416E+03  0.25500000000E-02 0.  1.
         11    1    1    2    0    0 -0.90907502826E+02  0.42092048729E+03  0.31866799255E+03  0.53571216167E+03  0.51100000000E-03 0.  1.
         22    1    1    2    0    0 -0.65944092140E+02  0.25342427958E+02  0.23668991007E+03  0.24700804738E+03  0.00000000000E+00 0.  1.
          2    1    1    2  501    0  0.15685159497E+03 -0.44626291525E+03  0.16238980355E+03  0.50012344543E+03  0.25500000000E-02 0.  1.
<mgrwt>
<rscale>  0 0.45364196E+03</rscale>
<asrwt>0</asrwt>
<pdfrwt beam="1">  1       11 0.10000000E+01 0.70646033E+02</pdfrwt>
<pdfrwt beam="2">  1        2 0.43481771E-01 0.45364196E+03</pdfrwt>
<totfact> 0.14492431E+02</totfact>
</mgrwt>
</event>
<event>
 5    1  0.2226716E-003  0.1622323E+03  0.7818608E-02  0.1186199E+00
         11   -1    0    0    0    0  0.00000000000E+00  0.00000000000E+00  0.10001361287E+04  0.10001361287E+04  0.51100000000E-03 0. -1.
          2   -1    0    0  501    0 -0.00000000000E+00 -0.00000000000E+00 -0.49366503290E+02  0.49366503356E+02  0.25500000000E-02 0. -1.
         11    1    1    2    0    0  0.77921587555E+02  0.13354016304E+03  0.41642008000E+03  0.44419638897E+03  0.51100000000E-03 0. -1.
         22    1    1    2    0    0 -0.83835152973E+02  0.43788790104E+02  0.27715251440E+03  0.29284690070E+03  0.00000000000E+00 0. -1.
          2    1    1    2  501    0  0.59135654189E+01 -0.17732895314E+03  0.25719703107E+03  0.31245934243E+03  0.25500000000E-02 0. -1.
<mgrwt>
<rscale>  0 0.16223228E+03</rscale>
<asrwt>0</asrwt>
<pdfrwt beam="1">  1       11 0.10000000E+01 0.94582192E+02</pdfrwt>
<pdfrwt beam="2">  1        2 0.75958803E-02 0.16223228E+03</pdfrwt>
<totfact> 0.10835840E+03</totfact>
</mgrwt>
</event>
<event>
 5    1  0.2407170E-003  0.2607471E+03  0.7818608E-02  0.1114972E+00
         11   -1    0    0    0    0  0.00000000000E+00  0.00000000000E+00  0.10000680039E+04  0.10000680039E+04  0.51100000000E-03 0. -1.
          2   -1    0    0  501    0 -0.00000000000E+00 -0.00000000000E+00 -0.10588145411E+04  0.10588145411E+04  0.25500000000E-02 0. -1.
         11    1    1    2    0    0  0.58028077405E+02  0.21198089641E+03  0.75174894266E+03  0.78321748640E+03  0.51100000000E-03 0. -1.
         22    1    1    2    0    0  0.31111518120E+02  0.18780084348E+02  0.21638100561E+03  0.21941138921E+03  0.00000000000E+00 0. -1.
          2    1    1    2  501    0 -0.89139595524E+02 -0.23076098076E+03 -0.10268764854E+04  0.10562536694E+04  0.25500000000E-02 0. -1.
<mgrwt>
<rscale>  0 0.24737926E+03</rscale>
<asrwt>0</asrwt>
<pdfrwt beam="1">  1       11 0.10000000E+01 0.26074713E+03</pdfrwt>
<pdfrwt beam="2">  1        2 0.16290562E+00 0.24737926E+03</pdfrwt>
<totfact> 0.30393069E+01</totfact>
</mgrwt>
</event>
<event>
 5    1  0.2226716E-003  0.9775406E+03  0.7818608E-02  0.9353580E-01
         11   -1    0    0    0    0  0.00000000000E+00  0.00000000000E+00  0.10001989129E+04  0.10001989129E+04  0.51100000000E-03 0.  1.
          2   -1    0    0  501    0 -0.00000000000E+00 -0.00000000000E+00 -0.10617920445E+04  0.10617920445E+04  0.25500000000E-02 0.  1.
         11    1    1    2    0    0 -0.70442323779E+03 -0.57793407349E+03 -0.40373063807E+03  0.99660339120E+03  0.51100000000E-03 0.  1.
         22    1    1    2    0    0 -0.37558639575E+02 -0.31157371171E+02  0.21084796642E+02  0.53160152694E+02  0.00000000000E+00 0.  1.
          2    1    1    2  501    0  0.74198187736E+03  0.60909144466E+03  0.32105270984E+03  0.10122274136E+04  0.25500000000E-02 0.  1.
<mgrwt>
<rscale>  0 0.95996328E+03</rscale>
<asrwt>0</asrwt>
<pdfrwt beam="1">  1       11 0.10000000E+01 0.97754062E+03</pdfrwt>
<pdfrwt beam="2">  1        2 0.16338511E+00 0.95996328E+03</pdfrwt>
<totfact> 0.28297431E+01</totfact>
</mgrwt>
</event>
<event>
 5    1  0.2226716E-003  0.2685367E+03  0.7818608E-02  0.1422219E+00
         11   -1    0    0    0    0  0.00000000000E+00  0.00000000000E+00  0.99994891914E+03  0.99994891914E+03  0.51100000000E-03 0. -1.
         -2   -1    0    0    0  501 -0.00000000000E+00 -0.00000000000E+00 -0.34786547989E+03  0.34786547990E+03  0.25500000000E-02 0. -1.
         11    1    1    2    0    0  0.18362133768E+03 -0.22582865317E+03  0.32998593943E+03  0.44000692775E+03  0.51100000000E-03 0. -1.
         22    1    1    2    0    0 -0.12909753728E+03  0.22400530187E+03  0.58485159656E+03  0.63944971608E+03  0.00000000000E+00 0. -1.
         -2    1    1    2    0  501 -0.54523800397E+02  0.18233512996E+01 -0.26275409674E+03  0.26835775521E+03  0.25500000000E-02 0. -1.
<mgrwt>
<rscale>  0 0.54554280E+02</rscale>
<asrwt>0</asrwt>
<pdfrwt beam="1">  1       11 0.10000000E+01 0.26853667E+03</pdfrwt>
<pdfrwt beam="2">  1       -2 0.53515031E-01 0.54554280E+02</pdfrwt>
<totfact> 0.27239768E+01</totfact>
</mgrwt>
</event>
<event>
 5    1  0.2226716E-003  0.1436024E+03  0.7818608E-02  0.1208562E+00
         11   -1    0    0    0    0  0.00000000000E+00  0.00000000000E+00  0.10002844978E+04  0.10002844978E+04  0.51100000000E-03 0.  1.
         -2   -1    0    0    0  501 -0.00000000000E+00 -0.00000000000E+00 -0.11796891763E+03  0.11796891766E+03  0.25500000000E-02 0.  1.
         11    1    1    2    0    0 -0.15151767973E+03  0.27253030466E+02  0.89348718752E+03  0.90665301478E+03  0.51100000000E-03 0.  1.
         22    1    1    2    0    0  0.98725081158E+01 -0.70692143311E+01  0.53302748611E+02  0.54668301759E+02  0.00000000000E+00 0.  1.
         -2    1    1    2    0  501  0.14164517161E+03 -0.20183816135E+02 -0.64474355994E+02  0.15693209889E+03  0.25500000000E-02 0.  1.
<mgrwt>
<rscale>  0 0.14360245E+03</rscale>
<asrwt>0</asrwt>
<pdfrwt beam="1">  1       11 0.10000000E+01 0.12142496E+02</pdfrwt>
<pdfrwt beam="2">  1       -2 0.18154227E-01 0.14360245E+03</pdfrwt>
<totfact> 0.19500980E+02</totfact>
</mgrwt>
</event>
<event>
 5    1  0.2226716E-003  0.7017472E+02  0.7818608E-02  0.1359500E+00
         11   -1    0    0    0    0  0.00000000000E+00  0.00000000000E+00  0.10004083884E+04  0.10004083884E+04  0.51100000000E-03 0. -1.
          2   -1    0    0  501    0 -0.00000000000E+00 -0.00000000000E+00 -0.12687726336E+02  0.12687726592E+02  0.25500000000E-02 0. -1.
         11    1    1    2    0    0 -0.32763837230E+02  0.61948257159E+02  0.11711658329E+03  0.13648204892E+03  0.51100000000E-03 0. -1.
         22    1    1    2    0    0  0.22509327496E+02  0.11856421220E+02  0.14718296486E+03  0.14936555725E+03  0.00000000000E+00 0. -1.
          2    1    1    2  501    0  0.10254509734E+02 -0.73804678379E+02  0.72342111392E+03  0.72724850883E+03  0.25500000000E-02 0. -1.
<mgrwt>
<rscale>  0 0.70174724E+02</rscale>
<asrwt>0</asrwt>
<pdfrwt beam="1">  1       11 0.10000000E+01 0.25441001E+02</pdfrwt>
<pdfrwt beam="2">  1        2 0.19527550E-02 0.70174724E+02</pdfrwt>
<totfact> 0.59325212E+03</totfact>
</mgrwt>
</event>
<event>
 5    1  0.2226716E-003  0.1030477E+03  0.7818608E-02  0.1578232E+00
         11   -1    0    0    0    0  0.00000000000E+00  0.00000000000E+00  0.10001159772E+04  0.10001159772E+04  0.51100000000E-03 0.  1.
          2   -1    0    0  501    0 -0.00000000000E+00 -0.00000000000E+00 -0.67949056095E+03  0.67949056095E+03  0.25500000000E-02 0.  1.
         11    1    1    2    0    0 -0.15681269572E+02 -0.10314044395E+03  0.43096904824E+03  0.44341647909E+03  0.51100000000E-03 0.  1.
         22    1    1    2    0    0 -0.16194087564E+02  0.10293132070E+03  0.55771818499E+03  0.56736820419E+03  0.00000000000E+00 0.  1.
          2    1    1    2  501    0  0.31875357136E+02  0.20912325009E+00 -0.66806181702E+03  0.66882185483E+03  0.25500000000E-02 0.  1.
<mgrwt>
<rscale>  0 0.31876043E+02</rscale>
<asrwt>0</asrwt>
<pdfrwt beam="1">  1       11 0.10000000E+01 0.10304774E+03</pdfrwt>
<pdfrwt beam="2">  1        2 0.10454913E+00 0.31876043E+02</pdfrwt>
<totfact> 0.57675589E+01</totfact>
</mgrwt>
</event>
<event>
 5    1  0.2226716E-003  0.1842993E+03  0.7818608E-02  0.1458499E+00
         11   -1    0    0    0    0  0.00000000000E+00  0.00000000000E+00  0.99998579898E+03  0.99998579898E+03  0.51100000000E-03 0.  1.
          2   -1    0    0  501    0 -0.00000000000E+00 -0.00000000000E+00 -0.49481569030E+03  0.49481569031E+03  0.25500000000E-02 0.  1.
         11    1    1    2    0    0  0.15408306267E+03 -0.67357983159E+02  0.12604879435E+03  0.21015943152E+03  0.51100000000E-03 0.  1.
         22    1    1    2    0    0 -0.18662907641E+03  0.32567274442E+02  0.81979505882E+03  0.84140060493E+03  0.00000000000E+00 0.  1.
          2    1    1    2  501    0  0.32546013734E+02  0.34790708717E+02 -0.44067374449E+03  0.44324145283E+03  0.25500000000E-02 0.  1.
<mgrwt>
<rscale>  0 0.47640701E+02</rscale>
<asrwt>0</asrwt>
<pdfrwt beam="1">  1       11 0.10000000E+01 0.18429928E+03</pdfrwt>
<pdfrwt beam="2">  1        2 0.76124408E-01 0.47640701E+02</pdfrwt>
<totfact> 0.80344754E+01</totfact>
</mgrwt>
</event>
<event>
 5    1  0.2226716E-003  0.2927979E+03  0.7818608E-02  0.1091413E+00
         11   -1    0    0    0    0  0.00000000000E+00  0.00000000000E+00  0.10002179501E+04  0.10002179501E+04  0.51100000000E-03 0. -1.
          2   -1    0    0  501    0 -0.00000000000E+00 -0.00000000000E+00 -0.11367480009E+03  0.11367480012E+03  0.25500000000E-02 0. -1.
         11    1    1    2    0    0 -0.24523133007E+03  0.27516818881E+02  0.57567559166E+03  0.62633694398E+03  0.51100000000E-03 0. -1.
         22    1    1    2    0    0 -0.42142428214E+02 -0.89568878912E+01  0.15341404903E+03  0.15934892700E+03  0.00000000000E+00 0.  1.
          2    1    1    2  501    0  0.28737375828E+03 -0.18559930990E+02  0.15745350936E+03  0.32820687927E+03  0.25500000000E-02 0. -1.
<mgrwt>
<rscale>  0 0.28797248E+03</rscale>
<asrwt>0</asrwt>
<pdfrwt beam="1">  1       11 0.10000000E+01 0.29279785E+03</pdfrwt>
<pdfrwt beam="2">  1        2 0.17492242E-01 0.28797248E+03</pdfrwt>
<totfact> 0.40134450E+02</totfact>
</mgrwt>
</event>
<event>
 5    1  0.2226716E-003  0.1275153E+03  0.7818608E-02  0.1528465E+00
         11   -1    0    0    0    0  0.00000000000E+00  0.00000000000E+00  0.10003708143E+04  0.10003708143E+04  0.51100000000E-03 0.  1.
          2   -1    0    0  501    0 -0.00000000000E+00 -0.00000000000E+00 -0.18785516909E+02  0.18785517082E+02  0.25500000000E-02 0.  1.
         11    1    1    2    0    0 -0.12564572097E+03  0.11550438681E+02  0.57877253105E+03  0.59236635837E+03  0.51100000000E-03 0.  1.
         22    1    1    2    0    0 -0.43211058694E+01 -0.10066687123E+02  0.36033708990E+02  0.37662160442E+02  0.00000000000E+00 0. -1.
          2    1    1    2  501    0  0.12996682684E+03 -0.14837515580E+01  0.36677905731E+03  0.38912781253E+03  0.25500000000E-02 0.  1.
<mgrwt>
<rscale>  0 0.37375384E+02</rscale>
<asrwt>0</asrwt>
<pdfrwt beam="1">  1       11 0.10000000E+01 0.12751531E+03</pdfrwt>
<pdfrwt beam="2">  1        2 0.28911511E-02 0.37375384E+02</pdfrwt>
<totfact> 0.32403439E+03</totfact>
</mgrwt>
</event>
<event>
 5    1  0.2226716E-003  0.1279080E+03  0.7818608E-02  0.1326132E+00
         11   -1    0    0    0    0  0.00000000000E+00  0.00000000000E+00  0.10003634940E+04  0.10003634940E+04  0.51100000000E-03 0.  1.
          2   -1    0    0  501    0 -0.00000000000E+00 -0.00000000000E+00 -0.45037538804E+02  0.45037538876E+02  0.25500000000E-02 0.  1.
         11    1    1    2    0    0 -0.53117474128E+02 -0.71974141893E+02  0.37823318741E+02  0.97120268738E+02  0.51100000000E-03 0.  1.
         22    1    1    2    0    0  0.74648863116E+01  0.13892900726E+03  0.74254298537E+03  0.75546480971E+03  0.00000000000E+00 0.  1.
          2    1    1    2  501    0  0.45652587816E+02 -0.66954865363E+02  0.17495965113E+03  0.19281595448E+03  0.25500000000E-02 0.  1.
<mgrwt>
<rscale>  0 0.81037724E+02</rscale>
<asrwt>0</asrwt>
<pdfrwt beam="1">  1       11 0.10000000E+01 0.12790801E+03</pdfrwt>
<pdfrwt beam="2">  1        2 0.69313705E-02 0.81037724E+02</pdfrwt>
<totfact> 0.11571786E+03</totfact>
</mgrwt>
</event>
<event>
 5    1  0.2226716E-003  0.2081388E+03  0.7818608E-02  0.1143048E+00
         11   -1    0    0    0    0  0.00000000000E+00  0.00000000000E+00  0.10000550961E+04  0.10000550961E+04  0.51100000000E-03 0.  1.
          2   -1    0    0  501    0 -0.00000000000E+00 -0.00000000000E+00 -0.71799440043E+02  0.71799440089E+02  0.25500000000E-02 0.  1.
         11    1    1    2    0    0 -0.16185370244E+03  0.10389287630E+03  0.80988935295E+03  0.83241282713E+03  0.51100000000E-03 0.  1.
         22    1    1    2    0    0  0.67565456923E+02 -0.41178569432E+02  0.95317215797E+02  0.12387952687E+03  0.00000000000E+00 0. -1.
          2    1    1    2  501    0  0.94288245516E+02 -0.62714306867E+02  0.23049087344E+02  0.11556218223E+03  0.25500000000E-02 0.  1.
<mgrwt>
<rscale>  0 0.20813878E+03</rscale>
<asrwt>0</asrwt>
<pdfrwt beam="1">  1       11 0.10000000E+01 0.19232876E+03</pdfrwt>
<pdfrwt beam="2">  1        2 0.11046676E-01 0.20813878E+03</pdfrwt>
<totfact> 0.68825996E+02</totfact>
</mgrwt>
</event>
<event>
 5    1  0.2226716E-003  0.1972052E+03  0.7818608E-02  0.1152119E+00
         11   -1    0    0    0    0  0.00000000000E+00  0.00000000000E+00  0.10003679655E+04  0.10003679655E+04  0.51100000000E-03 0. -1.
          2   -1    0    0  501    0 -0.00000000000E+00 -0.00000000000E+00 -0.95335328304E+03  0.95335328305E+03  0.25500000000E-02 0. -1.
         11    1    1    2    0    0 -0.17557508614E+03  0.11987420530E+03  0.51896674604E+03  0.56082342985E+03  0.51100000000E-03 0. -1.
         22    1    1    2    0    0  0.71684804853E+02  0.47802996022E+02  0.44586995932E+03  0.45411877114E+03  0.00000000000E+00 0. -1.
          2    1    1    2  501    0  0.10389028129E+03 -0.16767720133E+03 -0.91782202291E+03  0.93877904756E+03  0.25500000000E-02 0. -1.
<mgrwt>
<rscale>  0 0.19720520E+03</rscale>
<asrwt>0</asrwt>
<pdfrwt beam="1">  1       11 0.10000000E+01 0.86161695E+02</pdfrwt>
<pdfrwt beam="2">  1        2 0.14672370E+00 0.19720520E+03</pdfrwt>
<totfact> 0.35608556E+01</totfact>
</mgrwt>
</event>
<event>
 5    1  0.2226716E-003  0.2694532E+03  0.7818608E-02  0.1101593E+00
         11   -1    0    0    0    0  0.00000000000E+00  0.00000000000E+00  0.10008174910E+04  0.10008174910E+04  0.51100000000E-03 0. -1.
          2   -1    0    0  501    0 -0.00000000000E+00 -0.00000000000E+00 -0.18255875679E+04  0.18255875679E+04  0.25500000000E-02 0.  1.
         11    1    1    2    0    0 -0.13001425194E+03 -0.25139604274E+03  0.92579589768E+03  0.96809179326E+03  0.51100000000E-03 0. -1.
         22    1    1    2    0    0  0.74652385985E+01  0.11585426889E+02  0.42735415351E+02  0.44902868825E+02  0.00000000000E+00 0.  1.
          2    1    1    2  501    0  0.12254901334E+03  0.23981061586E+03 -0.17933013899E+04  0.18134103968E+04  0.25500000000E-02 0.  1.
<mgrwt>
<rscale>  0 0.26945318E+03</rscale>
<asrwt>0</asrwt>
<pdfrwt beam="1">  1       11 0.10000000E+01 0.13782304E+02</pdfrwt>
<pdfrwt beam="2">  1        2 0.28108922E+00 0.26945318E+03</pdfrwt>
<totfact> 0.11489516E+01</totfact>
</mgrwt>
</event>
<event>
 5    1  0.2226716E-003  0.2890648E+03  0.7818608E-02  0.1154318E+00
         11   -1    0    0    0    0  0.00000000000E+00  0.00000000000E+00  0.10000648409E+04  0.10000648409E+04  0.51100000000E-03 0. -1.
          2   -1    0    0  501    0 -0.00000000000E+00 -0.00000000000E+00 -0.27266028607E+03  0.27266028608E+03  0.25500000000E-02 0. -1.
         11    1    1    2    0    0  0.14603148330E+03 -0.23756738554E+03  0.58461999050E+03  0.64772215500E+03  0.51100000000E-03 0. -1.
         22    1    1    2    0    0 -0.32531016661E+03  0.16171022698E+03  0.20932520627E+03  0.41927788398E+03  0.00000000000E+00 0. -1.
          2    1    1    2  501    0  0.17927868330E+03  0.75857158557E+02 -0.66540641951E+02  0.20572508799E+03  0.25500000000E-02 0. -1.
<mgrwt>
<rscale>  0 0.19466678E+03</rscale>
<asrwt>0</asrwt>
<pdfrwt beam="1">  1       11 0.10000000E+01 0.28906482E+03</pdfrwt>
<pdfrwt beam="2">  1        2 0.41950455E-01 0.19466678E+03</pdfrwt>
<totfact> 0.15023574E+02</totfact>
</mgrwt>
</event>
<event>
 5    1  0.2226716E-003  0.1247799E+03  0.7818608E-02  0.1235414E+00
         11   -1    0    0    0    0  0.00000000000E+00  0.00000000000E+00  0.10002961112E+04  0.10002961112E+04  0.51100000000E-03 0. -1.
          2   -1    0    0  501    0 -0.00000000000E+00 -0.00000000000E+00 -0.15792305248E+02  0.15792305453E+02  0.25500000000E-02 0. -1.
         11    1    1    2    0    0  0.48860689121E+02 -0.11089923980E+03  0.59015481345E+03  0.60246884746E+03  0.51100000000E-03 0. -1.
         22    1    1    2    0    0 -0.14669131561E+02  0.93820340827E+01  0.46668165429E+02  0.49810878819E+02  0.00000000000E+00 0.  1.
          2    1    1    2  501    0 -0.34191557560E+02  0.10151720572E+03  0.34768082709E+03  0.36380869038E+03  0.25500000000E-02 0. -1.
<mgrwt>
<rscale>  0 0.12477989E+03</rscale>
<asrwt>0</asrwt>
<pdfrwt beam="1">  1       11 0.10000000E+01 0.12118584E+03</pdfrwt>
<pdfrwt beam="2">  1        2 0.24303048E-02 0.12477989E+03</pdfrwt>
<totfact> 0.47496444E+03</totfact>
</mgrwt>
</event>
<event>
 5    1  0.2226716E-003  0.9040044E+02  0.7818608E-02  0.1301885E+00
         11   -1    0    0    0    0  0.00000000000E+00  0.00000000000E+00  0.99987650326E+03  0.99987650326E+03  0.51100000000E-03 0.  1.
          2   -1    0    0  501    0 -0.00000000000E+00 -0.00000000000E+00 -0.83499543111E+01  0.83499547005E+01  0.25500000000E-02 0.  1.
         11    1    1    2    0    0 -0.63586047887E+02 -0.56900468612E+02  0.34423566916E+03  0.35465341495E+03  0.51100000000E-03 0.  1.
         22    1    1    2    0    0  0.66574765036E+01  0.10904120481E+02  0.42754945750E+02  0.44622945028E+02  0.00000000000E+00 0.  1.
          2    1    1    2  501    0  0.56928571384E+02  0.45996348131E+02  0.60453593405E+03  0.60895009799E+03  0.25500000000E-02 0.  1.
<mgrwt>
<rscale>  0 0.90400440E+02</rscale>
<asrwt>0</asrwt>
<pdfrwt beam="1">  1       11 0.10000000E+01 0.85327933E+02</pdfrwt>
<pdfrwt beam="2">  1        2 0.12844497E-02 0.90400440E+02</pdfrwt>
<totfact> 0.10836593E+04</totfact>
</mgrwt>
</event>
<event>
 5    1  0.2226716E-003  0.7476102E+02  0.7818608E-02  0.1437137E+00
         11   -1    0    0    0    0  0.00000000000E+00  0.00000000000E+00  0.10001728237E+04  0.10001728237E+04  0.51100000000E-03 0. -1.
          2   -1    0    0  501    0 -0.00000000000E+00 -0.00000000000E+00 -0.14875794456E+02  0.14875794675E+02  0.25500000000E-02 0. -1.
         11    1    1    2    0    0 -0.73476561607E+01 -0.88497816698E+02  0.22556106032E+03  0.24241213572E+03  0.51100000000E-03 0. -1.
         22    1    1    2    0    0 -0.36834170893E+02  0.61931854881E+02  0.24645536142E+03  0.25677335525E+03  0.00000000000E+00 0. -1.
          2    1    1    2  501    0  0.44181827054E+02  0.26565961816E+02  0.51328060754E+03  0.51586312744E+03  0.25500000000E-02 0. -1.
<mgrwt>
<rscale>  0 0.51553702E+02</rscale>
<asrwt>0</asrwt>
<pdfrwt beam="1">  1       11 0.10000000E+01 0.74761015E+02</pdfrwt>
<pdfrwt beam="2">  1        2 0.22889792E-02 0.51553702E+02</pdfrwt>
<totfact> 0.46003332E+03</totfact>
</mgrwt>
</event>
<event>
 5    1  0.2226716E-003  0.1578299E+03  0.7818608E-02  0.1191169E+00
         11   -1    0    0    0    0  0.00000000000E+00  0.00000000000E+00  0.10002679243E+04  0.10002679243E+04  0.51100000000E-03 0.  1.
          2   -1    0    0  501    0 -0.00000000000E+00 -0.00000000000E+00 -0.26501648160E+03  0.26501648161E+03  0.25500000000E-02 0.  1.
         11    1    1    2    0    0 -0.15918408503E+03 -0.72361215526E+02  0.86245275471E+03  0.88000026849E+03  0.51100000000E-03 0.  1.
         22    1    1    2    0    0  0.15447873788E+02  0.83223956756E+01  0.10407975810E+03  0.10554854391E+03  0.00000000000E+00 0.  1.
          2    1    1    2  501    0  0.14373621124E+03  0.64038819850E+02 -0.23128107012E+03  0.27973559350E+03  0.25500000000E-02 0.  1.
<mgrwt>
<rscale>  0 0.15782992E+03</rscale>
<asrwt>0</asrwt>
<pdfrwt beam="1">  1       11 0.10000000E+01 0.17547053E+02</pdfrwt>
<pdfrwt beam="2">  1        2 0.40782689E-01 0.15782992E+03</pdfrwt>
<totfact> 0.15461325E+02</totfact>
</mgrwt>
</event>
<event>
 5    1  0.2226716E-003  0.1725450E+03  0.7818608E-02  0.1175220E+00
         11   -1    0    0    0    0  0.00000000000E+00  0.00000000000E+00  0.10002502351E+04  0.10002502351E+04  0.51100000000E-03 0.  1.
          2   -1    0    0  501    0 -0.00000000000E+00 -0.00000000000E+00 -0.63218259459E+02  0.63218259511E+02  0.25500000000E-02 0.  1.
         11    1    1    2    0    0  0.30681979262E+01 -0.14633038331E+03  0.74683412005E+03  0.76104086473E+03  0.51100000000E-03 0.  1.
         22    1    1    2    0    0 -0.29427795984E+02 -0.30005960304E+02  0.86498605697E+02  0.96168402388E+02  0.00000000000E+00 0.  1.
          2    1    1    2  501    0  0.26359598058E+02  0.17633634361E+03  0.10369924988E+03  0.20625922748E+03  0.25500000000E-02 0.  1.
<mgrwt>
<rscale>  0 0.17254499E+03</rscale>
<asrwt>0</asrwt>
<pdfrwt beam="1">  1       11 0.10000000E+01 0.42028001E+02</pdfrwt>
<pdfrwt beam="2">  1        2 0.97283196E-02 0.17254499E+03</pdfrwt>
<totfact> 0.79745500E+02</totfact>
</mgrwt>
</event>
<event>
 5    1  0.2226716E-003  0.2012100E+03  0.7818608E-02  0.1148722E+00
         11   -1    0    0    0    0  0.00000000000E+00  0.00000000000E+00  0.10006074807E+04  0.10006074807E+04  0.51100000000E-03 0. -1.
          2   -1    0    0  501    0 -0.00000000000E+00 -0.00000000000E+00 -0.48492650648E+03  0.48492650648E+03  0.25500000000E-02 0. -1.
         11    1    1    2    0    0  0.77583758315E+02  0.20251141633E+03  0.74166687048E+03  0.77272236933E+03  0.51100000000E-03 0. -1.
         22    1    1    2    0    0  0.29881108733E+02 -0.32791896604E+02  0.21960049800E+03  0.22403697879E+03  0.00000000000E+00 0. -1.
          2    1    1    2  501    0 -0.10746486705E+03 -0.16971951972E+03 -0.44558639426E+03  0.48877463906E+03  0.25500000000E-02 0. -1.
<mgrwt>
<rscale>  0 0.20121005E+03</rscale>
<asrwt>0</asrwt>
<pdfrwt beam="1">  1       11 0.10000000E+01 0.44364278E+02</pdfrwt>
<pdfrwt beam="2">  1        2 0.74649396E-01 0.20121005E+03</pdfrwt>
<totfact> 0.80543305E+01</totfact>
</mgrwt>
</event>
<event>
 5    1  0.2226716E-003  0.4246618E+03  0.7818608E-02  0.1041316E+00
         11   -1    0    0    0    0  0.00000000000E+00  0.00000000000E+00  0.10003041933E+04  0.10003041933E+04  0.51100000000E-03 0.  1.
          2   -1    0    0  501    0 -0.00000000000E+00 -0.00000000000E+00 -0.33138124546E+03  0.33138124547E+03  0.25500000000E-02 0.  1.
         11    1    1    2    0    0 -0.27371249007E+03 -0.25710296071E+03  0.66028616580E+03  0.75960402867E+03  0.51100000000E-03 0.  1.
         22    1    1    2    0    0 -0.13510876208E+01 -0.43146693285E+02  0.13818674172E+03  0.14477236672E+03  0.00000000000E+00 0.  1.
          2    1    1    2  501    0  0.27506357769E+03  0.30024965399E+03 -0.12954995967E+03  0.42730904338E+03  0.25500000000E-02 0.  1.
<mgrwt>
<rscale>  0 0.40719753E+03</rscale>
<asrwt>0</asrwt>
<pdfrwt beam="1">  1       11 0.10000000E+01 0.42466184E+03</pdfrwt>
<pdfrwt beam="2">  1        2 0.50997237E-01 0.40719753E+03</pdfrwt>
<totfact> 0.12168625E+02</totfact>
</mgrwt>
</event>
<event>
 5    1  0.2226716E-003  0.6677830E+03  0.7818608E-02  0.9773971E-01
         11   -1    0    0    0    0  0.00000000000E+00  0.00000000000E+00  0.10004130173E+04  0.10004130173E+04  0.51100000000E-03 0. -1.
          2   -1    0    0  501    0 -0.00000000000E+00 -0.00000000000E+00 -0.20326053553E+04  0.20326053553E+04  0.25500000000E-02 0. -1.
         11    1    1    2    0    0 -0.68059662705E+03 -0.43110547470E+02  0.35285358642E+03  0.76783848660E+03  0.51100000000E-03 0. -1.
         22    1    1    2    0    0  0.25295389901E+02 -0.79848520230E+02  0.37439277685E+03  0.38364774767E+03  0.00000000000E+00 0. -1.
          2    1    1    2  501    0  0.65530123715E+03  0.12295906770E+03 -0.17594387013E+04  0.18815321383E+04  0.25500000000E-02 0. -1.
<mgrwt>
<rscale>  0 0.66778304E+03</rscale>
<asrwt>0</asrwt>
<pdfrwt beam="1">  1       11 0.10000000E+01 0.83759435E+02</pdfrwt>
<pdfrwt beam="2">  1        2 0.31283766E+00 0.66778304E+03</pdfrwt>
<totfact> 0.82066234E+00</totfact>
</mgrwt>
</event>
<event>
 5    1  0.2226716E-003  0.2220477E+03  0.7818608E-02  0.1132366E+00
         11   -1    0    0    0    0  0.00000000000E+00  0.00000000000E+00  0.10000754426E+04  0.10000754426E+04  0.51100000000E-03 0.  1.
          2   -1    0    0  501    0 -0.00000000000E+00 -0.00000000000E+00 -0.93280457257E+02  0.93280457291E+02  0.25500000000E-02 0.  1.
         11    1    1    2    0    0 -0.11675458987E+03 -0.21108271588E+03  0.54271161180E+03  0.59390524562E+03  0.51100000000E-03 0.  1.
         22    1    1    2    0    0  0.10894075921E+03 -0.10460835416E+02  0.18291605211E+03  0.21315675034E+03  0.00000000000E+00 0.  1.
          2    1    1    2  501    0  0.78138306559E+01  0.22154355130E+03  0.18116732148E+03  0.28629390397E+03  0.25500000000E-02 0.  1.
<mgrwt>
<rscale>  0 0.22204772E+03</rscale>
<asrwt>0</asrwt>
<pdfrwt beam="1">  1       11 0.10000000E+01 0.10944185E+03</pdfrwt>
<pdfrwt beam="2">  1        2 0.14351922E-01 0.22204772E+03</pdfrwt>
<totfact> 0.50273800E+02</totfact>
</mgrwt>
</event>
<event>
 5    1  0.2226716E-003  0.1866772E+03  0.7818608E-02  0.1161493E+00
         11   -1    0    0    0    0  0.00000000000E+00  0.00000000000E+00  0.10001853838E+04  0.10001853838E+04  0.51100000000E-03 0.  1.
          2   -1    0    0  501    0 -0.00000000000E+00 -0.00000000000E+00 -0.77683094908E+02  0.77683094950E+02  0.25500000000E-02 0.  1.
         11    1    1    2    0    0  0.18450348055E+03 -0.99231076236E+01  0.72740961075E+03  0.75050965631E+03  0.51100000000E-03 0.  1.
         22    1    1    2    0    0 -0.67530135291E+00 -0.25993765481E+02  0.12451136334E+03  0.12719752936E+03  0.00000000000E+00 0.  1.
          2    1    1    2  501    0 -0.18382817920E+03  0.35916873104E+02  0.70581314812E+02  0.20016129308E+03  0.25500000000E-02 0.  1.
<mgrwt>
<rscale>  0 0.18667718E+03</rscale>
<asrwt>0</asrwt>
<pdfrwt beam="1">  1       11 0.10000000E+01 0.26002536E+02</pdfrwt>
<pdfrwt beam="2">  1        2 0.11953461E-01 0.18667718E+03</pdfrwt>
<totfact> 0.62191070E+02</totfact>
</mgrwt>
</event>
<event>
 5    1  0.2226716E-003  0.1325510E+03  0.7818608E-02  0.1223719E+00
         11   -1    0    0    0    0  0.00000000000E+00  0.00000000000E+00  0.10006372417E+04  0.10006372417E+04  0.51100000000E-03 0.  1.
          2   -1    0    0  501    0 -0.00000000000E+00 -0.00000000000E+00 -0.83074838427E+03  0.83074838428E+03  0.25500000000E-02 0.  1.
         11    1    1    2    0    0 -0.14890318900E+03  0.91006733263E+02  0.80382161043E+03  0.82254699963E+03  0.51100000000E-03 0.  1.
         22    1    1    2    0    0  0.48926853125E+02 -0.43722843691E+01  0.17879217049E+03  0.18541735101E+03  0.00000000000E+00 0.  1.
          2    1    1    2  501    0  0.99976335873E+02 -0.86634448894E+02 -0.81272492348E+03  0.82342127536E+03  0.25500000000E-02 0.  1.
<mgrwt>
<rscale>  0 0.13255101E+03</rscale>
<asrwt>0</asrwt>
<pdfrwt beam="1">  1       11 0.10000000E+01 0.49121826E+02</pdfrwt>
<pdfrwt beam="2">  1        2 0.12788888E+00 0.13255101E+03</pdfrwt>
<totfact> 0.43362182E+01</totfact>
</mgrwt>
</event>
<event>
 5    1  0.2226716E-003  0.1540672E+03  0.7818608E-02  0.1195562E+00
         11   -1    0    0    0    0  0.00000000000E+00  0.00000000000E+00  0.10000969303E+04  0.10000969303E+04  0.51100000000E-03 0. -1.
         -2   -1    0    0    0  501 -0.00000000000E+00 -0.00000000000E+00 -0.59762188810E+02  0.59762188865E+02  0.25500000000E-02 0.  1.
         11    1    1    2    0    0  0.19271725020E+03  0.87219486502E+02  0.63044982403E+03  0.66499184805E+03  0.51100000000E-03 0. -1.
         22    1    1    2    0    0 -0.69894457057E+02 -0.15981852248E+02  0.20826860901E+03  0.22026454147E+03  0.00000000000E+00 0. -1.
         -2    1    1    2    0  501 -0.12282279314E+03 -0.71237634254E+02  0.10161630842E+03  0.17460272962E+03  0.25500000000E-02 0.  1.
<mgrwt>
<rscale>  0 0.15406721E+03</rscale>
<asrwt>0</asrwt>
<pdfrwt beam="1">  1       11 0.10000000E+01 0.71698359E+02</pdfrwt>
<pdfrwt beam="2">  1       -2 0.91950738E-02 0.15406721E+03</pdfrwt>
<totfact> 0.58678042E+02</totfact>
</mgrwt>
</event>
<event>
 5    1  0.2226716E-003  0.1484995E+03  0.7818608E-02  0.1202329E+00
         11   -1    0    0    0    0  0.00000000000E+00  0.00000000000E+00  0.99988244031E+03  0.99988244031E+03  0.51100000000E-03 0.  1.
          2   -1    0    0  501    0 -0.00000000000E+00 -0.00000000000E+00 -0.21539955334E+02  0.21539955485E+02  0.25500000000E-02 0.  1.
         11    1    1    2    0    0  0.13678335813E+03 -0.67150282573E+01  0.35164206287E+03  0.37736841289E+03  0.51100000000E-03 0.  1.
         22    1    1    2    0    0 -0.45683853673E+02 -0.24625605672E+02  0.23796377235E+03  0.24355736879E+03  0.00000000000E+00 0.  1.
          2    1    1    2  501    0 -0.91099504461E+02  0.31340633929E+02  0.38873664975E+03  0.40049661411E+03  0.25500000000E-02 0.  1.
<mgrwt>
<rscale>  0 0.14849954E+03</rscale>
<asrwt>0</asrwt>
<pdfrwt beam="1">  1       11 0.10000000E+01 0.13694816E+03</pdfrwt>
<pdfrwt beam="2">  1        2 0.33134496E-02 0.14849954E+03</pdfrwt>
<totfact> 0.31853158E+03</totfact>
</mgrwt>
</event>
<event>
 5    1  0.2226716E-003  0.6845559E+02  0.7818608E-02  0.1365425E+00
         11   -1    0    0    0    0  0.00000000000E+00  0.00000000000E+00  0.10001517585E+04  0.10001517585E+04  0.51100000000E-03 0. -1.
          2   -1    0    0  501    0 -0.00000000000E+00 -0.00000000000E+00 -0.27078729041E+02  0.27078729161E+02  0.25500000000E-02 0. -1.
         11    1    1    2    0    0  0.32889852138E+02  0.20106722160E+02 -0.22907970590E+01  0.38616970377E+02  0.51100000000E-03 0. -1.
         22    1    1    2    0    0  0.58985547586E+02 -0.16911618220E+02  0.24872319265E+03  0.25618064763E+03  0.00000000000E+00 0. -1.
          2    1    1    2  501    0 -0.91875399724E+02 -0.31951039400E+01  0.72664063388E+03  0.73243286967E+03  0.25500000000E-02 0. -1.
<mgrwt>
<rscale>  0 0.68455595E+02</rscale>
<asrwt>0</asrwt>
<pdfrwt beam="1">  1       11 0.10000000E+01 0.38548984E+02</pdfrwt>
<pdfrwt beam="2">  1        2 0.41665904E-02 0.68455595E+02</pdfrwt>
<totfact> 0.21784689E+03</totfact>
</mgrwt>
</event>
<event>
 5    1  0.2742200E-003  0.5540201E+03  0.7818608E-02  0.1000568E+00
         11   -1    0    0    0    0  0.00000000000E+00  0.00000000000E+00  0.99935365458E+03  0.99935365458E+03  0.51100000000E-03 0. -1.
          2   -1    0    0  501    0 -0.00000000000E+00 -0.00000000000E+00 -0.12179314982E+04  0.12179314982E+04  0.25500000000E-02 0. -1.
         11    1    1    2    0    0  0.39687856157E+03 -0.37783278589E+03  0.82557385873E+03  0.99087961072E+03  0.51100000000E-03 0. -1.
         22    1    1    2    0    0  0.13794803116E+02  0.52755147706E+01  0.20940835535E+02  0.25625109600E+02  0.00000000000E+00 0. -1.
          2    1    1    2  501    0 -0.41067336468E+03  0.37255727112E+03 -0.10650925379E+04  0.12007804325E+04  0.25500000000E-02 0. -1.
<mgrwt>
<rscale>  0 0.55402010E+03</rscale>
<asrwt>0</asrwt>
<pdfrwt beam="1">  1       11 0.10000000E+01 0.14769145E+02</pdfrwt>
<pdfrwt beam="2">  1        2 0.18725296E+00 0.55402010E+03</pdfrwt>
<totfact> 0.23474576E+01</totfact>
</mgrwt>
</event>
<event>
 5    1  0.2226716E-003  0.1141868E+03  0.7818608E-02  0.1522069E+00
         11   -1    0    0    0    0  0.00000000000E+00  0.00000000000E+00  0.10001263417E+04  0.10001263417E+04  0.51100000000E-03 0. -1.
          2   -1    0    0  501    0 -0.00000000000E+00 -0.00000000000E+00 -0.57441674245E+02  0.57441674301E+02  0.25500000000E-02 0. -1.
         11    1    1    2    0    0  0.82452482364E+02  0.84774825441E+02  0.49562803913E+03  0.50954129965E+03  0.51100000000E-03 0. -1.
         22    1    1    2    0    0 -0.45877303407E+02 -0.73830903061E+02 -0.11679380910E+02  0.87704829702E+02  0.00000000000E+00 0. -1.
          2    1    1    2  501    0 -0.36575178957E+02 -0.10943922380E+02  0.45873600925E+03  0.46032188666E+03  0.25500000000E-02 0. -1.
<mgrwt>
<rscale>  0 0.38177391E+02</rscale>
<asrwt>0</asrwt>
<pdfrwt beam="1">  1       11 0.10000000E+01 0.11418684E+03</pdfrwt>
<pdfrwt beam="2">  1        2 0.88382969E-02 0.38177391E+02</pdfrwt>
<totfact> 0.80744536E+02</totfact>
</mgrwt>
</event>
<event>
 5    1  0.2226716E-003  0.2585825E+03  0.7818608E-02  0.1329317E+00
         11   -1    0    0    0    0  0.00000000000E+00  0.00000000000E+00  0.10001602008E+04  0.10001602008E+04  0.51100000000E-03 0. -1.
          2   -1    0    0  501    0 -0.00000000000E+00 -0.00000000000E+00 -0.22960626764E+03  0.22960626765E+03  0.25500000000E-02 0. -1.
         11    1    1    2    0    0 -0.17902193408E+03  0.18619488724E+03  0.87424052578E+03  0.91159963023E+03  0.51100000000E-03 0. -1.
         22    1    1    2    0    0 -0.19932321541E+02 -0.14574793823E+02  0.16021283335E+02  0.29434734188E+02  0.00000000000E+00 0. -1.
          2    1    1    2  501    0  0.19895425562E+03 -0.17162009341E+03 -0.11970787600E+03  0.28873210399E+03  0.25500000000E-02 0. -1.
<mgrwt>
<rscale>  0 0.79906577E+02</rscale>
<asrwt>0</asrwt>
<pdfrwt beam="1">  1       11 0.10000000E+01 0.25858248E+03</pdfrwt>
<pdfrwt beam="2">  1        2 0.35329699E-01 0.79906577E+02</pdfrwt>
<totfact> 0.17843829E+02</totfact>
</mgrwt>
</event>
<event>
 5    1  0.2226716E-003  0.1911475E+03  0.7818608E-02  0.1157430E+00
         11   -1    0    0    0    0  0.00000000000E+00  0.00000000000E+00  0.99987600430E+03  0.99987600430E+03  0.51100000000E-03 0. -1.
         -2   -1    0    0    0  501 -0.00000000000E+00 -0.00000000000E+00 -0.56767085245E+02  0.56767085303E+02  0.25500000000E-02 0.  1.
         11    1    1    2    0    0  0.10593919860E+03 -0.17116365123E+03  0.71246006830E+03  0.74035090209E+03  0.51100000000E-03 0. -1.
         22    1    1    2    0    0 -0.85887867275E+01  0.10082800198E+02  0.62561441418E+02  0.63948135779E+02  0.00000000000E+00 0. -1.
         -2    1    1    2    0  501 -0.97350411875E+02  0.16108085103E+03  0.16808740934E+03  0.25234405174E+03  0.25500000000E-02 0.  1.
<mgrwt>
<rscale>  0 0.19114745E+03</rscale>
<asrwt>0</asrwt>
<pdfrwt beam="1">  1       11 0.10000000E+01 0.13245003E+02</pdfrwt>
<pdfrwt beam="2">  1       -2 0.87323146E-02 0.19114745E+03</pdfrwt>
<totfact> 0.64463775E+02</totfact>
</mgrwt>
</event>
<event>
 5    1  0.2226716E-003  0.1583317E+03  0.7818608E-02  0.1330986E+00
         11   -1    0    0    0    0  0.00000000000E+00  0.00000000000E+00  0.10004725593E+04  0.10004725593E+04  0.51100000000E-03 0. -1.
          2   -1    0    0  501    0 -0.00000000000E+00 -0.00000000000E+00 -0.98924706055E+02  0.98924706088E+02  0.25500000000E-02 0. -1.
         11    1    1    2    0    0  0.57851144690E+02 -0.18229327013E+03  0.55312535360E+03  0.58525656603E+03  0.51100000000E-03 0. -1.
         22    1    1    2    0    0 -0.86779490563E+02  0.10843419845E+03  0.39736364571E+03  0.42093529468E+03  0.00000000000E+00 0. -1.
          2    1    1    2  501    0  0.28928345872E+02  0.73859071683E+02 -0.48941146111E+02  0.93205404639E+02  0.25500000000E-02 0. -1.
<mgrwt>
<rscale>  0 0.79322202E+02</rscale>
<asrwt>0</asrwt>
<pdfrwt beam="1">  1       11 0.10000000E+01 0.15833166E+03</pdfrwt>
<pdfrwt beam="2">  1        2 0.15226377E-01 0.79322202E+02</pdfrwt>
<totfact> 0.44857227E+02</totfact>
</mgrwt>
</event>
<event>
 5    1  0.2226716E-003  0.1210151E+03  0.7818608E-02  0.1343712E+00
         11   -1    0    0    0    0  0.00000000000E+00  0.00000000000E+00  0.10002681604E+04  0.10002681604E+04  0.51100000000E-03 0. -1.
          2   -1    0    0  501    0 -0.00000000000E+00 -0.00000000000E+00 -0.64405633481E+02  0.64405633532E+02  0.25500000000E-02 0.  1.
         11    1    1    2    0    0 -0.87870852355E+02  0.14771025905E+03  0.48649566074E+03  0.51596282350E+03  0.51100000000E-03 0. -1.
         22    1    1    2    0    0  0.70145351412E+02 -0.74782059530E+02  0.46144061626E+03  0.47269458331E+03  0.00000000000E+00 0.  1.
          2    1    1    2  501    0  0.17725500943E+02 -0.72928199516E+02 -0.12073750052E+02  0.76016387149E+02  0.25500000000E-02 0.  1.
<mgrwt>
<rscale>  0 0.75051420E+02</rscale>
<asrwt>0</asrwt>
<pdfrwt beam="1">  1       11 0.10000000E+01 0.12101507E+03</pdfrwt>
<pdfrwt beam="2">  1        2 0.99112158E-02 0.75051420E+02</pdfrwt>
<totfact> 0.74141277E+02</totfact>
</mgrwt>
</event>
<event>
 5    1  0.2226716E-003  0.1131238E+03  0.7818608E-02  0.1328769E+00
         11   -1    0    0    0    0  0.00000000000E+00  0.00000000000E+00  0.10002597458E+04  0.10002597458E+04  0.51100000000E-03 0. -1.
          2   -1    0    0  501    0 -0.00000000000E+00 -0.00000000000E+00 -0.10544296189E+03  0.10544296192E+03  0.25500000000E-02 0. -1.
         11    1    1    2    0    0  0.16995856765E+03 -0.48739451760E+02  0.42161663671E+03  0.45718927943E+03  0.51100000000E-03 0. -1.
         22    1    1    2    0    0 -0.91067145509E+02  0.34880698590E+02  0.53720388877E+03  0.54598343037E+03  0.00000000000E+00 0. -1.
          2    1    1    2  501    0 -0.78891422137E+02  0.13858753170E+02 -0.64003741594E+02  0.10252999791E+03  0.25500000000E-02 0. -1.
<mgrwt>
<rscale>  0 0.80099448E+02</rscale>
<asrwt>0</asrwt>
<pdfrwt beam="1">  1       11 0.10000000E+01 0.11312379E+03</pdfrwt>
<pdfrwt beam="2">  1        2 0.16226207E-01 0.80099448E+02</pdfrwt>
<totfact> 0.41726099E+02</totfact>
</mgrwt>
</event>
<event>
 5    1  0.2226716E-003  0.5379515E+02  0.7818608E-02  0.1545667E+00
         11   -1    0    0    0    0  0.00000000000E+00  0.00000000000E+00  0.10003577665E+04  0.10003577665E+04  0.51100000000E-03 0. -1.
          2   -1    0    0  501    0 -0.00000000000E+00 -0.00000000000E+00 -0.67732506921E+01  0.67732511721E+01  0.25500000000E-02 0. -1.
         11    1    1    2    0    0 -0.70527665023E+01 -0.68057140711E+02  0.24922901007E+03  0.25845041183E+03  0.51100000000E-03 0. -1.
         22    1    1    2    0    0 -0.10978398178E+02  0.20445392964E+02  0.11805841764E+03  0.12031761839E+03  0.00000000000E+00 0. -1.
          2    1    1    2  501    0  0.18031164681E+02  0.47611747747E+02  0.62629708810E+03  0.62836298744E+03  0.25500000000E-02 0. -1.
<mgrwt>
<rscale>  0 0.35332617E+02</rscale>
<asrwt>0</asrwt>
<pdfrwt beam="1">  1       11 0.10000000E+01 0.53795148E+02</pdfrwt>
<pdfrwt beam="2">  1        2 0.10424114E-02 0.35332617E+02</pdfrwt>
<totfact> 0.12209351E+04</totfact>
</mgrwt>
</event>
<event>
 5    1  0.2226716E-003  0.2102480E+03  0.7818608E-02  0.1145797E+00
         11   -1    0    0    0    0  0.00000000000E+00  0.00000000000E+00  0.10000522740E+04  0.10000522740E+04  0.51100000000E-03 0.  1.
          2   -1    0    0  501    0 -0.00000000000E+00 -0.00000000000E+00 -0.72572182495E+03  0.72572182495E+03  0.25500000000E-02 0.  1.
         11    1    1    2    0    0  0.10994233351E+03 -0.61910998341E+02  0.54014064522E+03  0.55468207563E+03  0.51100000000E-03 0.  1.
         22    1    1    2    0    0  0.49008721198E+02 -0.67141960594E+02  0.43402917348E+03  0.44191766322E+03  0.00000000000E+00 0.  1.
          2    1    1    2  501    0 -0.15895105471E+03  0.12905295894E+03 -0.69983936969E+03  0.72917436006E+03  0.25500000000E-02 0.  1.
<mgrwt>
<rscale>  0 0.20474400E+03</rscale>
<asrwt>0</asrwt>
<pdfrwt beam="1">  1       11 0.10000000E+01 0.21024796E+03</pdfrwt>
<pdfrwt beam="2">  1        2 0.11165534E+00 0.20474400E+03</pdfrwt>
<totfact> 0.50534195E+01</totfact>
</mgrwt>
</event>
<event>
 5    1  0.2226716E-003  0.1334757E+03  0.7818608E-02  0.1222388E+00
         11   -1    0    0    0    0  0.00000000000E+00  0.00000000000E+00  0.10002701313E+04  0.10002701313E+04  0.51100000000E-03 0. -1.
         -2   -1    0    0    0  501 -0.00000000000E+00 -0.00000000000E+00 -0.26392017131E+02  0.26392017254E+02  0.25500000000E-02 0.  1.
         11    1    1    2    0    0  0.97412524655E+02 -0.85968529917E+02  0.78323723162E+03  0.79393976415E+03  0.51100000000E-03 0. -1.
         22    1    1    2    0    0 -0.18964333753E+02  0.29333695376E+02  0.68593554364E+02  0.76975238482E+02  0.00000000000E+00 0.  1.
         -2    1    1    2    0  501 -0.78448190902E+02  0.56634834541E+02  0.12204732817E+03  0.15574714591E+03  0.25500000000E-02 0.  1.
<mgrwt>
<rscale>  0 0.13347570E+03</rscale>
<asrwt>0</asrwt>
<pdfrwt beam="1">  1       11 0.10000000E+01 0.12992224E+03</pdfrwt>
<pdfrwt beam="2">  1       -2 0.40614070E-02 0.13347570E+03</pdfrwt>
<totfact> 0.20122315E+03</totfact>
</mgrwt>
</event>
<event>
 5    1  0.2226716E-003  0.8496935E+02  0.7818608E-02  0.1380183E+00
         11   -1    0    0    0    0  0.00000000000E+00  0.00000000000E+00  0.10001461260E+04  0.10001461260E+04  0.51100000000E-03 0. -1.
         -2   -1    0    0    0  501 -0.00000000000E+00 -0.00000000000E+00 -0.18894969247E+02  0.18894969419E+02  0.25500000000E-02 0. -1.
         11    1    1    2    0    0  0.78660969877E+02  0.90523475004E+02  0.36256672590E+03  0.38188568766E+03  0.51100000000E-03 0. -1.
         22    1    1    2    0    0 -0.16173350873E+02 -0.74881589301E+02  0.45220727304E+03  0.45865046330E+03  0.00000000000E+00 0. -1.
         -2    1    1    2    0  501 -0.62487619004E+02 -0.15641885703E+02  0.16647715784E+03  0.17850494449E+03  0.25500000000E-02 0. -1.
<mgrwt>
<rscale>  0 0.64415612E+02</rscale>
<asrwt>0</asrwt>
<pdfrwt beam="1">  1       11 0.10000000E+01 0.84969348E+02</pdfrwt>
<pdfrwt beam="2">  1       -2 0.29073431E-02 0.64415612E+02</pdfrwt>
<totfact> 0.30231883E+03</totfact>
</mgrwt>
</event>
<event>
 5    1  0.2226716E-003  0.3657976E+03  0.7818608E-02  0.1056312E+00
         11   -1    0    0    0    0  0.00000000000E+00  0.00000000000E+00  0.10002386436E+04  0.10002386436E+04  0.51100000000E-03 0. -1.
          2   -1    0    0  501    0 -0.00000000000E+00 -0.00000000000E+00 -0.13864529670E+03  0.13864529672E+03  0.25500000000E-02 0. -1.
         11    1    1    2    0    0  0.35040928642E+03 -0.84426012953E+02  0.30145450138E+03  0.46988215126E+03  0.51100000000E-03 0. -1.
         22    1    1    2    0    0 -0.51307869360E+02 -0.76304489313E+01  0.97836039546E+02  0.11073667795E+03  0.00000000000E+00 0. -1.
          2    1    1    2  501    0 -0.29910141706E+03  0.92056461884E+02  0.46230280594E+03  0.55826511107E+03  0.25500000000E-02 0. -1.
<mgrwt>
<rscale>  0 0.36579758E+03</rscale>
<asrwt>0</asrwt>
<pdfrwt beam="1">  1       11 0.10000000E+01 0.36043661E+03</pdfrwt>
<pdfrwt beam="2">  1        2 0.21335135E-01 0.36579758E+03</pdfrwt>
<totfact> 0.32058680E+02</totfact>
</mgrwt>
</event>
<event>
 5    1  0.2226716E-003  0.1578449E+03  0.7818608E-02  0.1191152E+00
         11   -1    0    0    0    0  0.00000000000E+00  0.00000000000E+00  0.10003676770E+04  0.10003676770E+04  0.51100000000E-03 0. -1.
         -2   -1    0    0    0  501 -0.00000000000E+00 -0.00000000000E+00 -0.47920196896E+02  0.47920196964E+02  0.25500000000E-02 0.  1.
         11    1    1    2    0    0 -0.13399544650E+02  0.18131089804E+03  0.64643163124E+03  0.67151101511E+03  0.51100000000E-03 0. -1.
         22    1    1    2    0    0  0.18735326003E+02 -0.29586139977E+02  0.16796627666E+03  0.17157803535E+03  0.00000000000E+00 0.  1.
         -2    1    1    2    0  501 -0.53357813532E+01 -0.15172475807E+03  0.13804957218E+03  0.20519882348E+03  0.25500000000E-02 0.  1.
<mgrwt>
<rscale>  0 0.15784487E+03</rscale>
<asrwt>0</asrwt>
<pdfrwt beam="1">  1       11 0.10000000E+01 0.35019311E+02</pdfrwt>
<pdfrwt beam="2">  1       -2 0.73750484E-02 0.15784487E+03</pdfrwt>
<totfact> 0.82781507E+02</totfact>
</mgrwt>
</event>
<event>
 5    1  0.2226716E-003  0.1356880E+03  0.7818608E-02  0.1735607E+00
         11   -1    0    0    0    0  0.00000000000E+00  0.00000000000E+00  0.10002810115E+04  0.10002810115E+04  0.51100000000E-03 0.  1.
         -2   -1    0    0    0  501 -0.00000000000E+00 -0.00000000000E+00 -0.12970323834E+03  0.12970323836E+03  0.25500000000E-02 0.  1.
         11    1    1    2    0    0  0.13795088291E+03  0.10902955561E+02  0.67446114352E+03  0.68851082392E+03  0.51100000000E-03 0.  1.
         22    1    1    2    0    0 -0.13111292984E+03  0.84206087710E+01  0.30425472490E+03  0.33140978357E+03  0.00000000000E+00 0.  1.
         -2    1    1    2    0  501 -0.68379530729E+01 -0.19323564332E+02 -0.10813809521E+03  0.11006364242E+03  0.25500000000E-02 0.  1.
<mgrwt>
<rscale>  0 0.20497750E+02</rscale>
<asrwt>0</asrwt>
<pdfrwt beam="1">  1       11 0.10000000E+01 0.13568800E+03</pdfrwt>
<pdfrwt beam="2">  1       -2 0.19959951E-01 0.20497750E+02</pdfrwt>
<totfact> 0.15096166E+02</totfact>
</mgrwt>
</event>
<event>
 5    1  0.2226716E-003  0.1550162E+03  0.7818608E-02  0.1199047E+00
         11   -1    0    0    0    0  0.00000000000E+00  0.00000000000E+00  0.10001141131E+04  0.10001141131E+04  0.51100000000E-03 0.  1.
         -2   -1    0    0    0  501 -0.00000000000E+00 -0.00000000000E+00 -0.25410667323E+02  0.25410667450E+02  0.25500000000E-02 0. -1.
         11    1    1    2    0    0 -0.94513510042E+02  0.10553546583E+03  0.56766352495E+03  0.58507470949E+03  0.51100000000E-03 0.  1.
         22    1    1    2    0    0 -0.12876811189E+02  0.85346075545E+00  0.68331744959E+02  0.69539686732E+02  0.00000000000E+00 0. -1.
         -2    1    1    2    0  501  0.10739032123E+03 -0.10638892659E+03  0.33870817589E+03  0.37091038435E+03  0.25500000000E-02 0. -1.
<mgrwt>
<rscale>  0 0.15116641E+03</rscale>
<asrwt>0</asrwt>
<pdfrwt beam="1">  1       11 0.10000000E+01 0.15501621E+03</pdfrwt>
<pdfrwt beam="2">  1       -2 0.39097794E-02 0.15116641E+03</pdfrwt>
<totfact> 0.21545838E+03</totfact>
</mgrwt>
</event>
<event>
 5    1  0.2226716E-003  0.6740719E+02  0.7818608E-02  0.1418165E+00
         11   -1    0    0    0    0  0.00000000000E+00  0.00000000000E+00  0.99993765747E+03  0.99993765747E+03  0.51100000000E-03 0.  1.
          2   -1    0    0  501    0 -0.00000000000E+00 -0.00000000000E+00 -0.96401416124E+01  0.96401419496E+01  0.25500000000E-02 0. -1.
         11    1    1    2    0    0 -0.84850331233E+02 -0.12413361062E+02  0.38502338616E+03  0.39445744781E+03  0.51100000000E-03 0.  1.
         22    1    1    2    0    0  0.36868349169E+02 -0.26749111733E+02  0.19857184126E+03  0.20372914934E+03  0.00000000000E+00 0. -1.
          2    1    1    2  501    0  0.47981982064E+02  0.39162472795E+02  0.40670228843E+03  0.41139120227E+03  0.25500000000E-02 0. -1.
<mgrwt>
<rscale>  0 0.55411072E+02</rscale>
<asrwt>0</asrwt>
<pdfrwt beam="1">  1       11 0.10000000E+01 0.67407191E+02</pdfrwt>
<pdfrwt beam="2">  1        2 0.14830062E-02 0.55411072E+02</pdfrwt>
<totfact> 0.82755173E+03</totfact>
</mgrwt>
</event>
<event>
 5    1  0.2226716E-003  0.1258074E+03  0.7818608E-02  0.1319065E+00
         11   -1    0    0    0    0  0.00000000000E+00  0.00000000000E+00  0.10001532976E+04  0.10001532976E+04  0.51100000000E-03 0. -1.
          2   -1    0    0  501    0 -0.00000000000E+00 -0.00000000000E+00 -0.25166094441E+02  0.25166094571E+02  0.25500000000E-02 0.  1.
         11    1    1    2    0    0 -0.10804566919E+03 -0.90705834775E+02  0.57749160343E+03  0.59447284810E+03  0.51100000000E-03 0. -1.
         22    1    1    2    0    0  0.55208636126E+02 -0.64807804607E+01  0.13394996943E+03  0.14502616429E+03  0.00000000000E+00 0. -1.
          2    1    1    2  501    0  0.52837033067E+02  0.97186615235E+02  0.26354563032E+03  0.28582037980E+03  0.25500000000E-02 0.  1.
<mgrwt>
<rscale>  0 0.83626236E+02</rscale>
<asrwt>0</asrwt>
<pdfrwt beam="1">  1       11 0.10000000E+01 0.12580743E+03</pdfrwt>
<pdfrwt beam="2">  1        2 0.38723003E-02 0.83626236E+02</pdfrwt>
<totfact> 0.24469528E+03</totfact>
</mgrwt>
</event>
<event>
 5    1  0.2226716E-003  0.2222099E+03  0.7818608E-02  0.1210627E+00
         11   -1    0    0    0    0  0.00000000000E+00  0.00000000000E+00  0.10002236086E+04  0.10002236086E+04  0.51100000000E-03 0. -1.
          2   -1    0    0  501    0 -0.00000000000E+00 -0.00000000000E+00 -0.10614706850E+03  0.10614706853E+03  0.25500000000E-02 0. -1.
         11    1    1    2    0    0 -0.15279109095E+03  0.29604766336E+02  0.89541131662E+02  0.17955270514E+03  0.51100000000E-03 0. -1.
         22    1    1    2    0    0  0.21045481734E+03 -0.15939952678E+03  0.70656860567E+03  0.75428020907E+03  0.00000000000E+00 0. -1.
          2    1    1    2  501    0 -0.57663726396E+02  0.12979476044E+03  0.97966802773E+02  0.17253776292E+03  0.25500000000E-02 0. -1.
<mgrwt>
<rscale>  0 0.14202741E+03</rscale>
<asrwt>0</asrwt>
<pdfrwt beam="1">  1       11 0.10000000E+01 0.22220994E+03</pdfrwt>
<pdfrwt beam="2">  1        2 0.16333969E-01 0.14202741E+03</pdfrwt>
<totfact> 0.42436376E+02</totfact>
</mgrwt>
</event>
<event>
 5    1  0.2226716E-003  0.1197476E+03  0.7818608E-02  0.1243514E+00
         11   -1    0    0    0    0  0.00000000000E+00  0.00000000000E+00  0.99997350331E+03  0.99997350331E+03  0.51100000000E-03 0. -1.
         -2   -1    0    0    0  501 -0.00000000000E+00 -0.00000000000E+00 -0.87080039340E+02  0.87080039378E+02  0.25500000000E-02 0.  1.
         11    1    1    2    0    0 -0.19887098439E+02  0.11027995997E+03  0.63868351350E+03  0.64843950888E+03  0.51100000000E-03 0. -1.
         22    1    1    2    0    0 -0.59687502722E+02 -0.18626582926E+02  0.30666349184E+03  0.31297291384E+03  0.00000000000E+00 0.  1.
         -2    1    1    2    0  501  0.79574601161E+02 -0.91653377043E+02 -0.32453541367E+02  0.12564111997E+03  0.25500000000E-02 0.  1.
<mgrwt>
<rscale>  0 0.11974756E+03</rscale>
<asrwt>0</asrwt>
<pdfrwt beam="1">  1       11 0.10000000E+01 0.62526375E+02</pdfrwt>
<pdfrwt beam="2">  1       -2 0.13396574E-01 0.11974756E+03</pdfrwt>
<totfact> 0.31845206E+02</totfact>
</mgrwt>
</event>
<event>
 5    1  0.2226716E-003  0.1341728E+03  0.7818608E-02  0.1221392E+00
         11   -1    0    0    0    0  0.00000000000E+00  0.00000000000E+00  0.10001660821E+04  0.10001660821E+04  0.51100000000E-03 0.  1.
          2   -1    0    0  501    0 -0.00000000000E+00 -0.00000000000E+00 -0.47358921765E+02  0.47358921833E+02  0.25500000000E-02 0.  1.
         11    1    1    2    0    0 -0.80443951304E+02  0.10593651573E+03  0.62154671689E+02  0.14682294739E+03  0.51100000000E-03 0.  1.
         22    1    1    2    0    0  0.41808494825E+01 -0.91073180578E+01  0.44132126110E+02  0.45255577553E+02  0.00000000000E+00 0. -1.
          2    1    1    2  501    0  0.76263101822E+02 -0.96829197677E+02  0.84652036250E+03  0.85544647895E+03  0.25500000000E-02 0.  1.
<mgrwt>
<rscale>  0 0.13417280E+03</rscale>
<asrwt>0</asrwt>
<pdfrwt beam="1">  1       11 0.10000000E+01 0.13301802E+03</pdfrwt>
<pdfrwt beam="2">  1        2 0.72871978E-02 0.13417280E+03</pdfrwt>
<totfact> 0.11278579E+03</totfact>
</mgrwt>
</event>
<event>
 5    1  0.2226716E-003  0.1162556E+03  0.7818608E-02  0.1577349E+00
         11   -1    0    0    0    0  0.00000000000E+00  0.00000000000E+00  0.10000754430E+04  0.10000754430E+04  0.51100000000E-03 0.  1.
          2   -1    0    0  501    0 -0.00000000000E+00 -0.00000000000E+00 -0.74210116045E+02  0.74210116089E+02  0.25500000000E-02 0. -1.
         11    1    1    2    0    0  0.11373427992E+03  0.12085160515E+02  0.41797206810E+03  0.43333842115E+03  0.51100000000E-03 0.  1.
         22    1    1    2    0    0 -0.11809485954E+03  0.19579296326E+02  0.56389756546E+03  0.57646353660E+03  0.00000000000E+00 0. -1.
          2    1    1    2  501    0  0.43605796246E+01 -0.31664456842E+02 -0.56004306586E+02  0.64483601361E+02  0.25500000000E-02 0. -1.
<mgrwt>
<rscale>  0 0.31963299E+02</rscale>
<asrwt>0</asrwt>
<pdfrwt beam="1">  1       11 0.10000000E+01 0.11625560E+03</pdfrwt>
<pdfrwt beam="2">  1        2 0.11417802E-01 0.31963299E+02</pdfrwt>
<totfact> 0.58954069E+02</totfact>
</mgrwt>
</event>
<event>
 5    1  0.2226716E-003  0.2061502E+03  0.7818608E-02  0.1460505E+00
         11   -1    0    0    0    0  0.00000000000E+00  0.00000000000E+00  0.10002946581E+04  0.10002946581E+04  0.51100000000E-03 0.  1.
          2   -1    0    0  501    0 -0.00000000000E+00 -0.00000000000E+00 -0.23984965836E+04  0.23984965836E+04  0.25500000000E-02 0.  1.
         11    1    1    2    0    0 -0.15579244803E+03  0.19151991187E+03  0.10956708884E+03  0.27010388828E+03  0.51100000000E-03 0.  1.
         22    1    1    2    0    0  0.12230852680E+03 -0.15811917635E+03  0.79788630381E+03  0.82254702204E+03  0.00000000000E+00 0.  1.
          2    1    1    2  501    0  0.33483921226E+02 -0.33400735518E+02 -0.23056553181E+04  0.23061403314E+04  0.25500000000E-02 0.  1.
<mgrwt>
<rscale>  0 0.47294631E+02</rscale>
<asrwt>0</asrwt>
<pdfrwt beam="1">  1       11 0.10000000E+01 0.20615015E+03</pdfrwt>
<pdfrwt beam="2">  1        2 0.36910819E+00 0.47294631E+02</pdfrwt>
<totfact> 0.71421786E+00</totfact>
</mgrwt>
</event>
<event>
 5    1  0.2226716E-003  0.1731872E+03  0.7818608E-02  0.1492823E+00
         11   -1    0    0    0    0  0.00000000000E+00  0.00000000000E+00  0.10002907837E+04  0.10002907837E+04  0.51100000000E-03 0. -1.
          2   -1    0    0  501    0 -0.00000000000E+00 -0.00000000000E+00 -0.23749161821E+03  0.23749161822E+03  0.25500000000E-02 0. -1.
         11    1    1    2    0    0 -0.12721917437E+03 -0.13902096327E+03  0.26060877638E+03  0.32160298643E+03  0.51100000000E-03 0. -1.
         22    1    1    2    0    0  0.85608713021E+02  0.14586839616E+03  0.69681027602E+03  0.71704323545E+03  0.00000000000E+00 0. -1.
          2    1    1    2  501    0  0.41610461352E+02 -0.68474328948E+01 -0.19461988688E+03  0.19913618006E+03  0.25500000000E-02 0. -1.
<mgrwt>
<rscale>  0 0.42170106E+02</rscale>
<asrwt>0</asrwt>
<pdfrwt beam="1">  1       11 0.10000000E+01 0.17318723E+03</pdfrwt>
<pdfrwt beam="2">  1        2 0.36547795E-01 0.42170106E+02</pdfrwt>
<totfact> 0.17002324E+02</totfact>
</mgrwt>
</event>
<event>
 5    1  0.2226716E-003  0.1118467E+03  0.7818608E-02  0.1257188E+00
         11   -1    0    0    0    0  0.00000000000E+00  0.00000000000E+00  0.10001870554E+04  0.10001870554E+04  0.51100000000E-03 0.  1.
          2   -1    0    0  501    0 -0.00000000000E+00 -0.00000000000E+00 -0.26016689207E+03  0.26016689208E+03  0.25500000000E-02 0.  1.
         11    1    1    2    0    0  0.67907154177E+02 -0.13260985586E+03  0.64851765920E+03  0.66541108328E+03  0.51100000000E-03 0.  1.
         22    1    1    2    0    0 -0.62882242932E+02  0.21332983721E+02  0.32740138767E+03  0.33406727065E+03  0.00000000000E+00 0.  1.
          2    1    1    2  501    0 -0.50249112455E+01  0.11127687214E+03 -0.23589888358E+03  0.26087559350E+03  0.25500000000E-02 0.  1.
<mgrwt>
<rscale>  0 0.11184669E+03</rscale>
<asrwt>0</asrwt>
<pdfrwt beam="1">  1       11 0.10000000E+01 0.66402354E+02</pdfrwt>
<pdfrwt beam="2">  1        2 0.40033162E-01 0.11184669E+03</pdfrwt>
<totfact> 0.15717388E+02</totfact>
</mgrwt>
</event>
<event>
 5    1  0.2226716E-003  0.1991148E+03  0.7818608E-02  0.1321292E+00
         11   -1    0    0    0    0  0.00000000000E+00  0.00000000000E+00  0.10003741084E+04  0.10003741084E+04  0.51100000000E-03 0. -1.
          2   -1    0    0  501    0 -0.00000000000E+00 -0.00000000000E+00 -0.47437887697E+03  0.47437887698E+03  0.25500000000E-02 0.  1.
         11    1    1    2    0    0  0.17512164989E+03 -0.95136230968E+02  0.95004099677E+03  0.97071952193E+03  0.51100000000E-03 0. -1.
         22    1    1    2    0    0  0.88992896724E+01  0.33260434017E+02  0.33657292067E+01  0.34594536574E+02  0.00000000000E+00 0. -1.
          2    1    1    2  501    0 -0.18402093956E+03  0.61875796951E+02 -0.42741149451E+03  0.46943892691E+03  0.25500000000E-02 0.  1.
<mgrwt>
<rscale>  0 0.82798595E+02</rscale>
<asrwt>0</asrwt>
<pdfrwt beam="1">  1       11 0.10000000E+01 0.19911483E+03</pdfrwt>
<pdfrwt beam="2">  1        2 0.73008667E-01 0.82798595E+02</pdfrwt>
<totfact> 0.83465729E+01</totfact>
</mgrwt>
</event>
<event>
 5    1  0.2226716E-003  0.1831270E+03  0.7818608E-02  0.1715960E+00
         11   -1    0    0    0    0  0.00000000000E+00  0.00000000000E+00  0.10002587100E+04  0.10002587100E+04  0.51100000000E-03 0.  1.
          2   -1    0    0  501    0 -0.00000000000E+00 -0.00000000000E+00 -0.21057001076E+03  0.21057001078E+03  0.25500000000E-02 0. -1.
         11    1    1    2    0    0  0.63784011928E+02 -0.15449923411E+03  0.18249281313E+03  0.24747129200E+03  0.51100000000E-03 0.  1.
         22    1    1    2    0    0 -0.72207649273E+02  0.17434641401E+03  0.77323259861E+03  0.79592667265E+03  0.00000000000E+00 0.  1.
          2    1    1    2  501    0  0.84236373445E+01 -0.19847179900E+02 -0.16603671247E+03  0.16743075616E+03  0.25500000000E-02 0. -1.
<mgrwt>
<rscale>  0 0.21560803E+02</rscale>
<asrwt>0</asrwt>
<pdfrwt beam="1">  1       11 0.10000000E+01 0.18312695E+03</pdfrwt>
<pdfrwt beam="2">  1        2 0.32403766E-01 0.21560803E+02</pdfrwt>
<totfact> 0.18816732E+02</totfact>
</mgrwt>
</event>
<event>
 5    1  0.2226716E-003  0.1418998E+03  0.7818608E-02  0.1474813E+00
         11   -1    0    0    0    0  0.00000000000E+00  0.00000000000E+00  0.10003010558E+04  0.10003010558E+04  0.51100000000E-03 0.  1.
          2   -1    0    0  501    0 -0.00000000000E+00 -0.00000000000E+00 -0.30688635462E+02  0.30688635568E+02  0.25500000000E-02 0.  1.
         11    1    1    2    0    0 -0.10817178544E+03 -0.11572335294E+03  0.32583772252E+03  0.36230270631E+03  0.51100000000E-03 0.  1.
         22    1    1    2    0    0  0.11518896369E+03  0.71350223567E+02  0.50200548374E+03  0.51997005439E+03  0.00000000000E+00 0.  1.
          2    1    1    2  501    0 -0.70171782519E+01  0.44373129371E+02  0.14176921411E+03  0.14871693070E+03  0.25500000000E-02 0.  1.
<mgrwt>
<rscale>  0 0.44924552E+02</rscale>
<asrwt>0</asrwt>
<pdfrwt beam="1">  1       11 0.10000000E+01 0.14189979E+03</pdfrwt>
<pdfrwt beam="2">  1        2 0.47227498E-02 0.44924552E+02</pdfrwt>
<totfact> 0.17726152E+03</totfact>
</mgrwt>
</event>
<event>
 5    1  0.2226716E-003  0.3501405E+03  0.7818608E-02  0.1065232E+00
         11   -1    0    0    0    0  0.00000000000E+00  0.00000000000E+00  0.99980571956E+03  0.99980571956E+03  0.51100000000E-03 0. -1.
         -2   -1    0    0    0  501 -0.00000000000E+00 -0.00000000000E+00 -0.28709184780E+03  0.28709184781E+03  0.25500000000E-02 0.  1.
         11    1    1    2    0    0 -0.13643343181E+03  0.28261963192E+03  0.71490619589E+03  0.78075527958E+03  0.51100000000E-03 0. -1.
         22    1    1    2    0    0 -0.21179309799E+02  0.22807325336E+02  0.13316369197E+03  0.13675271884E+03  0.00000000000E+00 0. -1.
         -2    1    1    2    0  501  0.15761274161E+03 -0.30542695726E+03 -0.13535601611E+03  0.36938956894E+03  0.25500000000E-02 0.  1.
<mgrwt>
<rscale>  0 0.34369667E+03</rscale>
<asrwt>0</asrwt>
<pdfrwt beam="1">  1       11 0.10000000E+01 0.35014053E+03</pdfrwt>
<pdfrwt beam="2">  1       -2 0.44159394E-01 0.34369667E+03</pdfrwt>
<totfact> 0.39743168E+01</totfact>
</mgrwt>
</event>
<event>
 5    1  0.2226716E-003  0.2719483E+03  0.7818608E-02  0.1100170E+00
         11   -1    0    0    0    0  0.00000000000E+00  0.00000000000E+00  0.10006659776E+04  0.10006659776E+04  0.51100000000E-03 0.  1.
          2   -1    0    0  501    0 -0.00000000000E+00 -0.00000000000E+00 -0.91276053184E+02  0.91276053220E+02  0.25500000000E-02 0.  1.
         11    1    1    2    0    0 -0.14637668741E+03 -0.24093352390E+03  0.48605359468E+03  0.56189251148E+03  0.51100000000E-03 0.  1.
         22    1    1    2    0    0  0.32937551009E+02  0.33835524083E+00  0.12982803846E+03  0.13394146603E+03  0.00000000000E+00 0. -1.
          2    1    1    2  501    0  0.11343913641E+03  0.24059516866E+03  0.29350829130E+03  0.39610805334E+03  0.25500000000E-02 0.  1.
<mgrwt>
<rscale>  0 0.27194827E+03</rscale>
<asrwt>0</asrwt>
<pdfrwt beam="1">  1       11 0.10000000E+01 0.32939289E+02</pdfrwt>
<pdfrwt beam="2">  1        2 0.14051821E-01 0.27194827E+03</pdfrwt>
<totfact> 0.51955661E+02</totfact>
</mgrwt>
</event>
<event>
 5    1  0.2226716E-003  0.1852966E+03  0.7818608E-02  0.1162773E+00
         11   -1    0    0    0    0  0.00000000000E+00  0.00000000000E+00  0.10001371009E+04  0.10001371009E+04  0.51100000000E-03 0.  1.
         -2   -1    0    0    0  501 -0.00000000000E+00 -0.00000000000E+00 -0.55124018149E+02  0.55124018208E+02  0.25500000000E-02 0. -1.
         11    1    1    2    0    0 -0.14836353567E+03  0.12513798920E+03  0.61439737381E+03  0.64432552953E+03  0.51100000000E-03 0.  1.
         22    1    1    2    0    0  0.24489390716E+02  0.91418926333E+01  0.15614343032E+03  0.15831637721E+03  0.00000000000E+00 0.  1.
         -2    1    1    2    0  501  0.12387414495E+03 -0.13427988183E+03  0.17447227864E+03  0.25261921240E+03  0.25500000000E-02 0. -1.
<mgrwt>
<rscale>  0 0.18529663E+03</rscale>
<asrwt>0</asrwt>
<pdfrwt beam="1">  1       11 0.10000000E+01 0.26140093E+02</pdfrwt>
<pdfrwt beam="2">  1       -2 0.84817806E-02 0.18529663E+03</pdfrwt>
<totfact> 0.67338349E+02</totfact>
</mgrwt>
</event>
<event>
 5    1  0.2226716E-003  0.9327480E+02  0.7818608E-02  0.1466436E+00
         11   -1    0    0    0    0  0.00000000000E+00  0.00000000000E+00  0.10002844112E+04  0.10002844112E+04  0.51100000000E-03 0.  1.
          2   -1    0    0  501    0 -0.00000000000E+00 -0.00000000000E+00 -0.11244597543E+02  0.11244597832E+02  0.25500000000E-02 0.  1.
         11    1    1    2    0    0  0.83537044621E+02 -0.33201113735E+02  0.45154980118E+03  0.46041065878E+03  0.51100000000E-03 0.  1.
         22    1    1    2    0    0  0.14046621558E+02  0.18179745577E+02  0.93173707718E+02  0.95964319079E+02  0.00000000000E+00 0. -1.
          2    1    1    2  501    0 -0.97583666179E+02  0.15021368158E+02  0.44431630474E+03  0.45515403115E+03  0.25500000000E-02 0.  1.
<mgrwt>
<rscale>  0 0.46291550E+02</rscale>
<asrwt>0</asrwt>
<pdfrwt beam="1">  1       11 0.10000000E+01 0.93274804E+02</pdfrwt>
<pdfrwt beam="2">  1        2 0.17304301E-02 0.46291550E+02</pdfrwt>
<totfact> 0.65478113E+03</totfact>
</mgrwt>
</event>
<event>
 5    1  0.2226716E-003  0.8633720E+02  0.7818608E-02  0.1527385E+00
         11   -1    0    0    0    0  0.00000000000E+00  0.00000000000E+00  0.10002206738E+04  0.10002206738E+04  0.51100000000E-03 0.  1.
          2   -1    0    0  501    0 -0.00000000000E+00 -0.00000000000E+00 -0.15150907841E+02  0.15150908055E+02  0.25500000000E-02 0.  1.
         11    1    1    2    0    0 -0.29875617443E+02  0.98489436968E+02  0.29227563857E+03  0.30986734358E+03  0.51100000000E-03 0.  1.
         22    1    1    2    0    0  0.44175675426E+02 -0.63813239663E+02  0.26672977563E+03  0.27779199604E+03  0.00000000000E+00 0.  1.
          2    1    1    2  501    0 -0.14300057983E+02 -0.34676197305E+02  0.42606435175E+03  0.42771224223E+03  0.25500000000E-02 0.  1.
<mgrwt>
<rscale>  0 0.37509070E+02</rscale>
<asrwt>0</asrwt>
<pdfrwt beam="1">  1       11 0.10000000E+01 0.86337204E+02</pdfrwt>
<pdfrwt beam="2">  1        2 0.23314232E-02 0.37509070E+02</pdfrwt>
<totfact> 0.42836228E+03</totfact>
</mgrwt>
</event>
<event>
 5    1  0.2226716E-003  0.8902745E+02  0.7818608E-02  0.1354822E+00
         11   -1    0    0    0    0  0.00000000000E+00  0.00000000000E+00  0.10003084525E+04  0.10003084525E+04  0.51100000000E-03 0. -1.
          2   -1    0    0  501    0 -0.00000000000E+00 -0.00000000000E+00 -0.88500562106E+02  0.88500562143E+02  0.25500000000E-02 0. -1.
         11    1    1    2    0    0 -0.44431314691E+02 -0.58512022895E+02  0.40546580321E+03  0.41206833914E+03  0.51100000000E-03 0. -1.
         22    1    1    2    0    0  0.27974826743E+02  0.12816820421E+03  0.56758084178E+03  0.58254415408E+03  0.00000000000E+00 0. -1.
          2    1    1    2  501    0  0.16456487948E+02 -0.69656181312E+02 -0.61238754551E+02  0.94196521465E+02  0.25500000000E-02 0. -1.
<mgrwt>
<rscale>  0 0.71573735E+02</rscale>
<asrwt>0</asrwt>
<pdfrwt beam="1">  1       11 0.10000000E+01 0.89027449E+02</pdfrwt>
<pdfrwt beam="2">  1        2 0.13619670E-01 0.71573735E+02</pdfrwt>
<totfact> 0.50748926E+02</totfact>
</mgrwt>
</event>
<event>
 5    1  0.2226716E-003  0.1751075E+03  0.7818608E-02  0.1172624E+00
         11   -1    0    0    0    0  0.00000000000E+00  0.00000000000E+00  0.10002968895E+04  0.10002968895E+04  0.51100000000E-03 0. -1.
          2   -1    0    0  501    0 -0.00000000000E+00 -0.00000000000E+00 -0.15741071794E+03  0.15741071796E+03  0.25500000000E-02 0. -1.
         11    1    1    2    0    0  0.19426618007E+03  0.70383991815E+02  0.74456776739E+03  0.77270590477E+03  0.51100000000E-03 0. -1.
         22    1    1    2    0    0 -0.27163795942E+02 -0.25747428842E+02  0.18694577677E+03  0.19065551488E+03  0.00000000000E+00 0. -1.
          2    1    1    2  501    0 -0.16710238412E+03 -0.44636562974E+02 -0.88627372608E+02  0.19434618781E+03  0.25500000000E-02 0. -1.
<mgrwt>
<rscale>  0 0.17510751E+03</rscale>
<asrwt>0</asrwt>
<pdfrwt beam="1">  1       11 0.10000000E+01 0.37427288E+02</pdfrwt>
<pdfrwt beam="2">  1        2 0.24224223E-01 0.17510751E+03</pdfrwt>
<totfact> 0.27291430E+02</totfact>
</mgrwt>
</event>
<event>
 5    1  0.2226716E-003  0.1563603E+03  0.7818608E-02  0.1192868E+00
         11   -1    0    0    0    0  0.00000000000E+00  0.00000000000E+00  0.99993241409E+03  0.99993241409E+03  0.51100000000E-03 0.  1.
          2   -1    0    0  501    0 -0.00000000000E+00 -0.00000000000E+00 -0.86041000175E+02  0.86041000213E+02  0.25500000000E-02 0.  1.
         11    1    1    2    0    0  0.67220697311E+02  0.15125699952E+03  0.84182094985E+03  0.85793928320E+03  0.51100000000E-03 0.  1.
         22    1    1    2    0    0  0.13138240943E+02 -0.17998332395E+02  0.68873062189E+02  0.72388203731E+02  0.00000000000E+00 0. -1.
          2    1    1    2  501    0 -0.80358938254E+02 -0.13325866713E+03  0.31974018758E+01  0.15564592737E+03  0.25500000000E-02 0.  1.
<mgrwt>
<rscale>  0 0.15636034E+03</rscale>
<asrwt>0</asrwt>
<pdfrwt beam="1">  1       11 0.10000000E+01 0.22283477E+02</pdfrwt>
<pdfrwt beam="2">  1        2 0.13236182E-01 0.15636034E+03</pdfrwt>
<totfact> 0.54570456E+02</totfact>
</mgrwt>
</event>
<event>
 5    1  0.2226716E-003  0.1175797E+03  0.7818608E-02  0.1247144E+00
         11   -1    0    0    0    0  0.00000000000E+00  0.00000000000E+00  0.99989687862E+03  0.99989687862E+03  0.51100000000E-03 0.  1.
          2   -1    0    0  501    0 -0.00000000000E+00 -0.00000000000E+00 -0.17557075722E+02  0.17557075907E+02  0.25500000000E-02 0. -1.
         11    1    1    2    0    0 -0.10791984355E+03 -0.27370045413E+02  0.50284215104E+03  0.51502042764E+03  0.51100000000E-03 0.  1.
         22    1    1    2    0    0 -0.33970354991E+01 -0.25290945890E+02  0.11132826427E+03  0.11421538521E+03  0.00000000000E+00 0.  1.
          2    1    1    2  501    0  0.11131687905E+03  0.52660991303E+02  0.36816938759E+03  0.38821814168E+03  0.25500000000E-02 0. -1.
<mgrwt>
<rscale>  0 0.11757970E+03</rscale>
<asrwt>0</asrwt>
<pdfrwt beam="1">  1       11 0.10000000E+01 0.25518068E+02</pdfrwt>
<pdfrwt beam="2">  1        2 0.27008100E-02 0.11757970E+03</pdfrwt>
<totfact> 0.40925219E+03</totfact>
</mgrwt>
</event>
<event>
 5    1  0.2226716E-003  0.1820294E+03  0.7818608E-02  0.1165853E+00
         11   -1    0    0    0    0  0.00000000000E+00  0.00000000000E+00  0.10002602677E+04  0.10002602677E+04  0.51100000000E-03 0.  1.
         -2   -1    0    0    0  501 -0.00000000000E+00 -0.00000000000E+00 -0.98437867831E+02  0.98437867864E+02  0.25500000000E-02 0. -1.
         11    1    1    2    0    0  0.17846593354E+03  0.57465190955E+02  0.72585018139E+03  0.74967381135E+03  0.51100000000E-03 0.  1.
         22    1    1    2    0    0 -0.19677304023E+02  0.30912977826E+02  0.16274229925E+03  0.16681685903E+03  0.00000000000E+00 0.  1.
         -2    1    1    2    0  501 -0.15878862952E+03 -0.88378168781E+02  0.13229919185E+02  0.18220746513E+03  0.25500000000E-02 0. -1.
<mgrwt>
<rscale>  0 0.18202943E+03</rscale>
<asrwt>0</asrwt>
<pdfrwt beam="1">  1       11 0.10000000E+01 0.36644351E+02</pdfrwt>
<pdfrwt beam="2">  1       -2 0.15148228E-01 0.18202943E+03</pdfrwt>
<totfact> 0.26577127E+02</totfact>
</mgrwt>
</event>
<event>
 5    1  0.2226716E-003  0.3824583E+03  0.7818608E-02  0.1050029E+00
         11   -1    0    0    0    0  0.00000000000E+00  0.00000000000E+00  0.10005406381E+04  0.10005406381E+04  0.51100000000E-03 0. -1.
          2   -1    0    0  501    0 -0.00000000000E+00 -0.00000000000E+00 -0.12881454369E+04  0.12881454369E+04  0.25500000000E-02 0. -1.
         11    1    1    2    0    0  0.29450244134E+03 -0.57401237862E+02  0.47624636523E+03  0.56288292785E+03  0.51100000000E-03 0. -1.
         22    1    1    2    0    0  0.85485471971E+02 -0.17252624259E+02  0.44653800869E+03  0.45497429836E+03  0.00000000000E+00 0. -1.
          2    1    1    2  501    0 -0.37998791332E+03  0.74653862121E+02 -0.12103891727E+04  0.12708288488E+04  0.25500000000E-02 0. -1.
<mgrwt>
<rscale>  0 0.38245834E+03</rscale>
<asrwt>0</asrwt>
<pdfrwt beam="1">  1       11 0.10000000E+01 0.87209053E+02</pdfrwt>
<pdfrwt beam="2">  1        2 0.19828336E+00 0.38245834E+03</pdfrwt>
<totfact> 0.21828379E+01</totfact>
</mgrwt>
</event>
<event>
 5    1  0.2226716E-003  0.1888534E+03  0.7818608E-02  0.1159500E+00
         11   -1    0    0    0    0  0.00000000000E+00  0.00000000000E+00  0.10002152268E+04  0.10002152268E+04  0.51100000000E-03 0. -1.
          2   -1    0    0  501    0 -0.00000000000E+00 -0.00000000000E+00 -0.34581491067E+03  0.34581491068E+03  0.25500000000E-02 0. -1.
         11    1    1    2    0    0 -0.24691084191E+02  0.20706941704E+03  0.82671898779E+03  0.85261461275E+03  0.51100000000E-03 0. -1.
         22    1    1    2    0    0  0.15308726631E+02 -0.19060815458E+02  0.13272885013E+03  0.13496154806E+03  0.00000000000E+00 0. -1.
          2    1    1    2  501    0  0.93823575605E+01 -0.18800860158E+03 -0.30504752174E+03  0.35845397672E+03  0.25500000000E-02 0. -1.
<mgrwt>
<rscale>  0 0.18885336E+03</rscale>
<asrwt>0</asrwt>
<pdfrwt beam="1">  1       11 0.10000000E+01 0.24447327E+02</pdfrwt>
<pdfrwt beam="2">  1        2 0.53213743E-01 0.18885336E+03</pdfrwt>
<totfact> 0.11641938E+02</totfact>
</mgrwt>
</event>
<event>
 5    1  0.2226716E-003  0.1621622E+03  0.7818608E-02  0.1191157E+00
         11   -1    0    0    0    0  0.00000000000E+00  0.00000000000E+00  0.10001962610E+04  0.10001962610E+04  0.51100000000E-03 0. -1.
          2   -1    0    0  501    0 -0.00000000000E+00 -0.00000000000E+00 -0.57086334095E+02  0.57086334152E+02  0.25500000000E-02 0. -1.
         11    1    1    2    0    0 -0.13638483706E+03 -0.39994218370E+02  0.82580958838E+03  0.83795097562E+03  0.51100000000E-03 0. -1.
         22    1    1    2    0    0 -0.15052462042E+02 -0.45047052094E+01  0.41219626418E+02  0.44112657873E+02  0.00000000000E+00 0. -1.
          2    1    1    2  501    0  0.15143729911E+03  0.44498923579E+02  0.76080712091E+02  0.17521896164E+03  0.25500000000E-02 0. -1.
<mgrwt>
<rscale>  0 0.15783982E+03</rscale>
<asrwt>0</asrwt>
<pdfrwt beam="1">  1       11 0.10000000E+01 0.16216225E+03</pdfrwt>
<pdfrwt beam="2">  1        2 0.87842364E-02 0.15783982E+03</pdfrwt>
<totfact> 0.90091675E+02</totfact>
</mgrwt>
</event>
<event>
 5    1  0.2226716E-003  0.1051586E+03  0.7818608E-02  0.1384985E+00
         11   -1    0    0    0    0  0.00000000000E+00  0.00000000000E+00  0.10002646597E+04  0.10002646597E+04  0.51100000000E-03 0. -1.
          2   -1    0    0  501    0 -0.00000000000E+00 -0.00000000000E+00 -0.20979829627E+02  0.20979829782E+02  0.25500000000E-02 0. -1.
         11    1    1    2    0    0  0.15310254880E+02  0.13014427694E+03  0.37863374523E+03  0.40066875315E+03  0.51100000000E-03 0. -1.
         22    1    1    2    0    0  0.72873446145E+01 -0.37242273109E+02  0.56323007237E+02  0.67914456798E+02  0.00000000000E+00 0. -1.
          2    1    1    2  501    0 -0.22597599494E+02 -0.92902003831E+02  0.54432807763E+03  0.55266127956E+03  0.25500000000E-02 0. -1.
<mgrwt>
<rscale>  0 0.63171301E+02</rscale>
<asrwt>0</asrwt>
<pdfrwt beam="1">  1       11 0.10000000E+01 0.10515858E+03</pdfrwt>
<pdfrwt beam="2">  1        2 0.32285202E-02 0.63171301E+02</pdfrwt>
<totfact> 0.30081254E+03</totfact>
</mgrwt>
</event>
<event>
 5    1  0.2226716E-003  0.2040931E+03  0.7818608E-02  0.1267150E+00
         11   -1    0    0    0    0  0.00000000000E+00  0.00000000000E+00  0.99985218848E+03  0.99985218848E+03  0.51100000000E-03 0.  1.
          2   -1    0    0  501    0 -0.00000000000E+00 -0.00000000000E+00 -0.10052181215E+04  0.10052181215E+04  0.25500000000E-02 0. -1.
         11    1    1    2    0    0  0.77073541941E+02 -0.18204891287E+03  0.31932288785E+03  0.37556523302E+03  0.51100000000E-03 0.  1.
         22    1    1    2    0    0  0.23397248272E+02  0.21743926405E+03  0.63103846446E+03  0.66785987183E+03  0.00000000000E+00 0.  1.
          2    1    1    2  501    0 -0.10047079021E+03 -0.35390351185E+02 -0.95572728534E+03  0.96164520516E+03  0.25500000000E-02 0. -1.
<mgrwt>
<rscale>  0 0.10652163E+03</rscale>
<asrwt>0</asrwt>
<pdfrwt beam="1">  1       11 0.10000000E+01 0.20409314E+03</pdfrwt>
<pdfrwt beam="2">  1        2 0.15462608E+00 0.10652163E+03</pdfrwt>
<totfact> 0.34149784E+01</totfact>
</mgrwt>
</event>
<event>
 5    1  0.2226716E-003  0.4555099E+03  0.7818608E-02  0.1026092E+00
         11   -1    0    0    0    0  0.00000000000E+00  0.00000000000E+00  0.99994546766E+03  0.99994546766E+03  0.51100000000E-03 0. -1.
          2   -1    0    0  501    0 -0.00000000000E+00 -0.00000000000E+00 -0.18967024595E+04  0.18967024595E+04  0.25500000000E-02 0. -1.
         11    1    1    2    0    0 -0.41184755143E+03  0.28809557437E+03  0.64864507939E+03  0.82058388030E+03  0.51100000000E-03 0. -1.
         22    1    1    2    0    0  0.45282104769E+02 -0.20769393498E+02  0.23425189071E+03  0.23949067835E+03  0.00000000000E+00 0.  1.
          2    1    1    2  501    0  0.36656544666E+03 -0.26732618087E+03 -0.17796539620E+04  0.18365733685E+04  0.25500000000E-02 0. -1.
<mgrwt>
<rscale>  0 0.45550989E+03</rscale>
<asrwt>0</asrwt>
<pdfrwt beam="1">  1       11 0.10000000E+01 0.49818036E+02</pdfrwt>
<pdfrwt beam="2">  1        2 0.29178446E+00 0.45550989E+03</pdfrwt>
<totfact> 0.10070656E+01</totfact>
</mgrwt>
</event>
<event>
 5    1  0.2226716E-003  0.2298526E+03  0.7818608E-02  0.1132922E+00
         11   -1    0    0    0    0  0.00000000000E+00  0.00000000000E+00  0.10002958566E+04  0.10002958566E+04  0.51100000000E-03 0. -1.
          2   -1    0    0  501    0 -0.00000000000E+00 -0.00000000000E+00 -0.68145755598E+02  0.68145755645E+02  0.25500000000E-02 0. -1.
         11    1    1    2    0    0 -0.12071940875E+03 -0.16751910163E+03  0.63681632905E+03  0.66945564603E+03  0.51100000000E-03 0. -1.
         22    1    1    2    0    0  0.46491578176E+01 -0.20892532710E+02  0.10481495259E+03  0.10697797379E+03  0.00000000000E+00 0. -1.
          2    1    1    2  501    0  0.11607025093E+03  0.18841163434E+03  0.19051881940E+03  0.29200799245E+03  0.25500000000E-02 0. -1.
<mgrwt>
<rscale>  0 0.22129448E+03</rscale>
<asrwt>0</asrwt>
<pdfrwt beam="1">  1       11 0.10000000E+01 0.22985258E+03</pdfrwt>
<pdfrwt beam="2">  1        2 0.10487064E-01 0.22129448E+03</pdfrwt>
<totfact> 0.73595877E+02</totfact>
</mgrwt>
</event>
<event>
 5    1  0.2226716E-003  0.1304001E+03  0.7818608E-02  0.1352972E+00
         11   -1    0    0    0    0  0.00000000000E+00  0.00000000000E+00  0.10003274006E+04  0.10003274006E+04  0.51100000000E-03 0. -1.
          2   -1    0    0  501    0 -0.00000000000E+00 -0.00000000000E+00 -0.64361119812E+02  0.64361119862E+02  0.25500000000E-02 0. -1.
         11    1    1    2    0    0  0.11273592240E+03  0.74256433399E+02  0.50845720016E+02  0.14425218662E+03  0.51100000000E-03 0. -1.
         22    1    1    2    0    0 -0.13185093482E+03 -0.46976457477E+01  0.79060144181E+03  0.80153438896E+03  0.00000000000E+00 0. -1.
          2    1    1    2  501    0  0.19115012425E+02 -0.69558787651E+02  0.94519118914E+02  0.11890194484E+03  0.25500000000E-02 0. -1.
<mgrwt>
<rscale>  0 0.72137429E+02</rscale>
<asrwt>0</asrwt>
<pdfrwt beam="1">  1       11 0.10000000E+01 0.13040006E+03</pdfrwt>
<pdfrwt beam="2">  1        2 0.99049523E-02 0.72137429E+02</pdfrwt>
<totfact> 0.73996630E+02</totfact>
</mgrwt>
</event>
<event>
 5    1  0.2226716E-003  0.2431985E+03  0.7818608E-02  0.1117680E+00
         11   -1    0    0    0    0  0.00000000000E+00  0.00000000000E+00  0.10002092328E+04  0.10002092328E+04  0.51100000000E-03 0.  1.
          2   -1    0    0  501    0 -0.00000000000E+00 -0.00000000000E+00 -0.66903627590E+02  0.66903627639E+02  0.25500000000E-02 0.  1.
         11    1    1    2    0    0 -0.24192284562E+03  0.75557088689E+01  0.33696201964E+03  0.41488209729E+03  0.51100000000E-03 0.  1.
         22    1    1    2    0    0 -0.22507035000E+01  0.14148708836E+02  0.72042831915E+02  0.73453531285E+02  0.00000000000E+00 0.  1.
          2    1    1    2  501    0  0.24417354912E+03 -0.21704417705E+02  0.52430075367E+03  0.57877723188E+03  0.25500000000E-02 0.  1.
<mgrwt>
<rscale>  0 0.24319854E+03</rscale>
<asrwt>0</asrwt>
<pdfrwt beam="1">  1       11 0.10000000E+01 0.14326606E+02</pdfrwt>
<pdfrwt beam="2">  1        2 0.10295019E-01 0.24319854E+03</pdfrwt>
<totfact> 0.75643380E+02</totfact>
</mgrwt>
</event>
<event>
 5    1  0.2226716E-003  0.9047923E+02  0.7818608E-02  0.1588067E+00
         11   -1    0    0    0    0  0.00000000000E+00  0.00000000000E+00  0.10000597597E+04  0.10000597597E+04  0.51100000000E-03 0. -1.
          2   -1    0    0  501    0 -0.00000000000E+00 -0.00000000000E+00 -0.85555451515E+02  0.85555451553E+02  0.25500000000E-02 0. -1.
         11    1    1    2    0    0  0.35426643415E+02  0.73555070347E+02  0.40809735488E+03  0.41618366919E+03  0.51100000000E-03 0. -1.
         22    1    1    2    0    0 -0.66122957844E+02 -0.77322142143E+02  0.58039252957E+03  0.58924226562E+03  0.00000000000E+00 0. -1.
          2    1    1    2  501    0  0.30696314429E+02  0.37670717959E+01 -0.73985576280E+02  0.80189276425E+02  0.25500000000E-02 0. -1.
<mgrwt>
<rscale>  0 0.30926599E+02</rscale>
<asrwt>0</asrwt>
<pdfrwt beam="1">  1       11 0.10000000E+01 0.90479231E+02</pdfrwt>
<pdfrwt beam="2">  1        2 0.13163163E-01 0.30926599E+02</pdfrwt>
<totfact> 0.50006306E+02</totfact>
</mgrwt>
</event>
<event>
 5    1  0.2226716E-003  0.1114715E+03  0.7818608E-02  0.1257869E+00
         11   -1    0    0    0    0  0.00000000000E+00  0.00000000000E+00  0.10002984318E+04  0.10002984318E+04  0.51100000000E-03 0. -1.
         -2   -1    0    0    0  501 -0.00000000000E+00 -0.00000000000E+00 -0.17613787880E+03  0.17613787882E+03  0.25500000000E-02 0.  1.
         11    1    1    2    0    0 -0.12910524592E+03 -0.10329353796E+03  0.88777865307E+03  0.90304410543E+03  0.51100000000E-03 0. -1.
         22    1    1    2    0    0  0.44635787652E+02  0.32323726620E+02  0.76981220561E+02  0.94674627862E+02  0.00000000000E+00 0.  1.
         -2    1    1    2    0  501  0.84469458267E+02  0.70969811344E+02 -0.14059932059E+03  0.17871757737E+03  0.25500000000E-02 0.  1.
<mgrwt>
<rscale>  0 0.11147155E+03</rscale>
<asrwt>0</asrwt>
<pdfrwt beam="1">  1       11 0.10000000E+01 0.55110587E+02</pdfrwt>
<pdfrwt beam="2">  1       -2 0.27106221E-01 0.11147155E+03</pdfrwt>
<totfact> 0.97319434E+01</totfact>
</mgrwt>
</event>
<event>
 5    1  0.2226716E-003  0.5529372E+02  0.7818608E-02  0.1522610E+00
         11   -1    0    0    0    0  0.00000000000E+00  0.00000000000E+00  0.10002052332E+04  0.10002052332E+04  0.51100000000E-03 0. -1.
          2   -1    0    0  501    0 -0.00000000000E+00 -0.00000000000E+00 -0.55550104339E+01  0.55550110192E+01  0.25500000000E-02 0. -1.
         11    1    1    2    0    0  0.17707046265E+02  0.61539230640E+02  0.36238794310E+03  0.36800222513E+03  0.51100000000E-03 0. -1.
         22    1    1    2    0    0  0.15874563827E+02 -0.20924224751E+02  0.12280324649E+03  0.12558050130E+03  0.00000000000E+00 0.  1.
          2    1    1    2  501    0 -0.33581610092E+02 -0.40615005889E+02  0.50945903322E+03  0.51217751784E+03  0.25500000000E-02 0. -1.
<mgrwt>
<rscale>  0 0.38108559E+02</rscale>
<asrwt>0</asrwt>
<pdfrwt beam="1">  1       11 0.10000000E+01 0.55293722E+02</pdfrwt>
<pdfrwt beam="2">  1        2 0.85479241E-03 0.38108559E+02</pdfrwt>
<totfact> 0.16136205E+04</totfact>
</mgrwt>
</event>
<event>
 5    1  0.2226716E-003  0.2691937E+03  0.7818608E-02  0.1101742E+00
         11   -1    0    0    0    0  0.00000000000E+00  0.00000000000E+00  0.10001865735E+04  0.10001865735E+04  0.51100000000E-03 0.  1.
          2   -1    0    0  501    0 -0.00000000000E+00 -0.00000000000E+00 -0.53805848391E+03  0.53805848391E+03  0.25500000000E-02 0. -1.
         11    1    1    2    0    0 -0.15756952467E+03  0.23966556955E+03  0.88826874026E+03  0.93342867711E+03  0.51100000000E-03 0.  1.
         22    1    1    2    0    0  0.27516300869E+02 -0.47157973822E+01  0.50516489493E+02  0.57717426045E+02  0.00000000000E+00 0. -1.
          2    1    1    2  501    0  0.13005322380E+03 -0.23494977217E+03 -0.47665714016E+03  0.54709895425E+03  0.25500000000E-02 0. -1.
<mgrwt>
<rscale>  0 0.26919373E+03</rscale>
<asrwt>0</asrwt>
<pdfrwt beam="1">  1       11 0.10000000E+01 0.27917478E+02</pdfrwt>
<pdfrwt beam="2">  1        2 0.82793670E-01 0.26919373E+03</pdfrwt>
<totfact> 0.71346658E+01</totfact>
</mgrwt>
</event>
<event>
 5    1  0.2226716E-003  0.8676517E+03  0.7818608E-02  0.9466947E-01
         11   -1    0    0    0    0  0.00000000000E+00  0.00000000000E+00  0.10000338093E+04  0.10000338093E+04  0.51100000000E-03 0.  1.
         -2   -1    0    0    0  501 -0.00000000000E+00 -0.00000000000E+00 -0.18241580570E+04  0.18241580570E+04  0.25500000000E-02 0. -1.
         11    1    1    2    0    0  0.68553544607E+02  0.82420871164E+03  0.50324519198E+03  0.96812980126E+03  0.51100000000E-03 0.  1.
         22    1    1    2    0    0 -0.49980148959E+02  0.50135125097E+02  0.13483126031E+03  0.15228596394E+03  0.00000000000E+00 0.  1.
         -2    1    1    2    0  501 -0.18573395648E+02 -0.87434383674E+03 -0.14622007000E+04  0.17037761012E+04  0.25500000000E-02 0. -1.
<mgrwt>
<rscale>  0 0.86765173E+03</rscale>
<asrwt>0</asrwt>
<pdfrwt beam="1">  1       11 0.10000000E+01 0.70792274E+02</pdfrwt>
<pdfrwt beam="2">  1       -2 0.28064918E+00 0.86765173E+03</pdfrwt>
<totfact> 0.34471893E-01</totfact>
</mgrwt>
</event>
<event>
 5    1  0.2226716E-003  0.1412661E+03  0.7818608E-02  0.1211635E+00
         11   -1    0    0    0    0  0.00000000000E+00  0.00000000000E+00  0.10004028215E+04  0.10004028215E+04  0.51100000000E-03 0.  1.
          2   -1    0    0  501    0 -0.00000000000E+00 -0.00000000000E+00 -0.39319072787E+02  0.39319072870E+02  0.25500000000E-02 0.  1.
         11    1    1    2    0    0 -0.12140748225E+03  0.73069629551E+02  0.12479763903E+03  0.18882107461E+03  0.51100000000E-03 0.  1.
         22    1    1    2    0    0  0.10963506604E+02  0.13000784281E+02  0.90390161317E+02  0.91976084565E+02  0.00000000000E+00 0.  1.
          2    1    1    2  501    0  0.11044397565E+03 -0.86070413832E+02  0.74589594832E+03  0.75892473515E+03  0.25500000000E-02 0.  1.
<mgrwt>
<rscale>  0 0.14126606E+03</rscale>
<asrwt>0</asrwt>
<pdfrwt beam="1">  1       11 0.10000000E+01 0.17006436E+02</pdfrwt>
<pdfrwt beam="2">  1        2 0.60515247E-02 0.14126606E+03</pdfrwt>
<totfact> 0.14351556E+03</totfact>
</mgrwt>
</event>
<event>
 5    1  0.2226716E-003  0.3423690E+02  0.7818608E-02  0.1580672E+00
         11   -1    0    0    0    0  0.00000000000E+00  0.00000000000E+00  0.10003049092E+04  0.10003049092E+04  0.51100000000E-03 0.  1.
          2   -1    0    0  501    0 -0.00000000000E+00 -0.00000000000E+00 -0.41074373320E+01  0.41074381235E+01  0.25500000000E-02 0.  1.
         11    1    1    2    0    0  0.25890444486E+02  0.23708442530E+02  0.15395872417E+03  0.15791039900E+03  0.51100000000E-03 0.  1.
         22    1    1    2    0    0 -0.26371821055E+02  0.12615222632E+02  0.12617602588E+03  0.12951836277E+03  0.00000000000E+00 0.  1.
          2    1    1    2  501    0  0.48137656855E+00 -0.36323665162E+02  0.71606272180E+03  0.71698358554E+03  0.25500000000E-02 0.  1.
<mgrwt>
<rscale>  0 0.31636611E+02</rscale>
<asrwt>0</asrwt>
<pdfrwt beam="1">  1       11 0.10000000E+01 0.34236898E+02</pdfrwt>
<pdfrwt beam="2">  1        2 0.63210615E-03 0.31636611E+02</pdfrwt>
<totfact> 0.23150865E+04</totfact>
</mgrwt>
</event>
<event>
 5    1  0.2226716E-003  0.2175155E+03  0.7818608E-02  0.1143098E+00
         11   -1    0    0    0    0  0.00000000000E+00  0.00000000000E+00  0.10003514205E+04  0.10003514205E+04  0.51100000000E-03 0. -1.
          2   -1    0    0  501    0 -0.00000000000E+00 -0.00000000000E+00 -0.47676847256E+03  0.47676847257E+03  0.25500000000E-02 0. -1.
         11    1    1    2    0    0  0.17337277581E+03  0.39760435513E+01  0.76253294130E+03  0.78200410158E+03  0.51100000000E-03 0. -1.
         22    1    1    2    0    0  0.33196595759E+02 -0.28977990048E+02  0.20241815204E+03  0.20715898763E+03  0.00000000000E+00 0. -1.
          2    1    1    2  501    0 -0.20656937157E+03  0.25001946497E+02 -0.44136814543E+03  0.48795680384E+03  0.25500000000E-02 0. -1.
<mgrwt>
<rscale>  0 0.20807692E+03</rscale>
<asrwt>0</asrwt>
<pdfrwt beam="1">  1       11 0.10000000E+01 0.21751553E+03</pdfrwt>
<pdfrwt beam="2">  1        2 0.73374770E-01 0.20807692E+03</pdfrwt>
<totfact> 0.82055868E+01</totfact>
</mgrwt>
</event>
<event>
 5    1  0.2226716E-003  0.1572195E+03  0.7818608E-02  0.1615842E+00
         11   -1    0    0    0    0  0.00000000000E+00  0.00000000000E+00  0.99974429056E+03  0.99974429056E+03  0.51100000000E-03 0.  1.
          2   -1    0    0  501    0 -0.00000000000E+00 -0.00000000000E+00 -0.19130909264E+04  0.19130909264E+04  0.25500000000E-02 0. -1.
         11    1    1    2    0    0 -0.11664059652E+03 -0.12351166621E+03  0.58400493372E+03  0.60821207080E+03  0.51100000000E-03 0.  1.
         22    1    1    2    0    0  0.90676328057E+02  0.11187343959E+03  0.39068076651E+03  0.41637642138E+03  0.00000000000E+00 0. -1.
          2    1    1    2  501    0  0.25964268465E+02  0.11638226622E+02 -0.18880323361E+04  0.18882467248E+04  0.25500000000E-02 0. -1.
<mgrwt>
<rscale>  0 0.28453323E+02</rscale>
<asrwt>0</asrwt>
<pdfrwt beam="1">  1       11 0.10000000E+01 0.15721945E+03</pdfrwt>
<pdfrwt beam="2">  1        2 0.29424641E+00 0.28453323E+02</pdfrwt>
<totfact> 0.13153688E+01</totfact>
</mgrwt>
</event>
<event>
 5    1  0.2226716E-003  0.4220337E+03  0.7818608E-02  0.1663037E+00
         11   -1    0    0    0    0  0.00000000000E+00  0.00000000000E+00  0.10000797552E+04  0.10000797552E+04  0.51100000000E-03 0. -1.
          2   -1    0    0  501    0 -0.00000000000E+00 -0.00000000000E+00 -0.71069177640E+03  0.71069177640E+03  0.25500000000E-02 0.  1.
         11    1    1    2    0    0 -0.17763450225E+03  0.37610811637E+03  0.59137192299E+03  0.72300213201E+03  0.51100000000E-03 0. -1.
         22    1    1    2    0    0  0.17089426994E+03 -0.40003577325E+03  0.20449669466E+03  0.48067907122E+03  0.00000000000E+00 0. -1.
          2    1    1    2  501    0  0.67402323074E+01  0.23927656887E+02 -0.50648063890E+03  0.50709032832E+03  0.25500000000E-02 0.  1.
<mgrwt>
<rscale>  0 0.24858872E+02</rscale>
<asrwt>0</asrwt>
<pdfrwt beam="1">  1       11 0.10000000E+01 0.42203373E+03</pdfrwt>
<pdfrwt beam="2">  1        2 0.10934591E+00 0.24858872E+02</pdfrwt>
<totfact> 0.55301602E+01</totfact>
</mgrwt>
</event>
<event>
 5    1  0.2226716E-003  0.1020856E+03  0.7818608E-02  0.1275970E+00
         11   -1    0    0    0    0  0.00000000000E+00  0.00000000000E+00  0.10000626490E+04  0.10000626490E+04  0.51100000000E-03 0.  1.
          2   -1    0    0  501    0 -0.00000000000E+00 -0.00000000000E+00 -0.28519433604E+02  0.28519433718E+02  0.25500000000E-02 0.  1.
         11    1    1    2    0    0  0.19433838459E+02 -0.65556982934E+02  0.23697416947E+03  0.24664174238E+03  0.51100000000E-03 0.  1.
         22    1    1    2    0    0 -0.11226689414E+03  0.86082111805E+02  0.60446641451E+03  0.62080079878E+03  0.00000000000E+00 0.  1.
          2    1    1    2  501    0  0.92833055685E+02 -0.20525128871E+02  0.13010263137E+03  0.16113954152E+03  0.25500000000E-02 0.  1.
<mgrwt>
<rscale>  0 0.10208563E+03</rscale>
<asrwt>0</asrwt>
<pdfrwt beam="1">  1       11 0.10000000E+01 0.68376839E+02</pdfrwt>
<pdfrwt beam="2">  1        2 0.43878799E-02 0.10208563E+03</pdfrwt>
<totfact> 0.21195664E+03</totfact>
</mgrwt>
</event>
<event>
 5    1  0.2226716E-003  0.2021936E+03  0.7818608E-02  0.1147901E+00
         11   -1    0    0    0    0  0.00000000000E+00  0.00000000000E+00  0.10000439127E+04  0.10000439127E+04  0.51100000000E-03 0. -1.
          2   -1    0    0  501    0 -0.00000000000E+00 -0.00000000000E+00 -0.96568385568E+02  0.96568385602E+02  0.25500000000E-02 0. -1.
         11    1    1    2    0    0 -0.19957467891E+03  0.48076217840E+02  0.80639017905E+03  0.83210966588E+03  0.51100000000E-03 0. -1.
         22    1    1    2    0    0  0.11374820994E+01 -0.11548401216E+02  0.57786315510E+02  0.58939949918E+02  0.00000000000E+00 0.  1.
          2    1    1    2  501    0  0.19843719681E+03 -0.36527816624E+02  0.39299032559E+02  0.20556268249E+03  0.25500000000E-02 0. -1.
<mgrwt>
<rscale>  0 0.20219362E+03</rscale>
<asrwt>0</asrwt>
<pdfrwt beam="1">  1       11 0.10000000E+01 0.11604285E+02</pdfrwt>
<pdfrwt beam="2">  1        2 0.14857327E-01 0.20219362E+03</pdfrwt>
<totfact> 0.48074873E+02</totfact>
</mgrwt>
</event>
<event>
 5    1  0.2226716E-003  0.7306560E+02  0.7818608E-02  0.1349968E+00
         11   -1    0    0    0    0  0.00000000000E+00  0.00000000000E+00  0.10001913617E+04  0.10001913617E+04  0.51100000000E-03 0.  1.
          2   -1    0    0  501    0 -0.00000000000E+00 -0.00000000000E+00 -0.14204398329E+03  0.14204398332E+03  0.25500000000E-02 0.  1.
         11    1    1    2    0    0  0.13062388124E+02 -0.49204111388E+02  0.28918797650E+03  0.29363473281E+03  0.51100000000E-03 0.  1.
         22    1    1    2    0    0 -0.13993416395E+02  0.12158494922E+03  0.69368097091E+03  0.70439477921E+03  0.00000000000E+00 0. -1.
          2    1    1    2  501    0  0.93102827194E+00 -0.72380837835E+02 -0.12472156898E+03  0.14420583301E+03  0.25500000000E-02 0.  1.
<mgrwt>
<rscale>  0 0.73065604E+02</rscale>
<asrwt>0</asrwt>
<pdfrwt beam="1">  1       11 0.10000000E+01 0.50908453E+02</pdfrwt>
<pdfrwt beam="2">  1        2 0.21857102E-01 0.73065604E+02</pdfrwt>
<totfact> 0.29785623E+02</totfact>
</mgrwt>
</event>
<event>
 5    1  0.2226716E-003  0.2621887E+03  0.7818608E-02  0.1145656E+00
         11   -1    0    0    0    0  0.00000000000E+00  0.00000000000E+00  0.10000478236E+04  0.10000478236E+04  0.51100000000E-03 0. -1.
          2   -1    0    0  501    0 -0.00000000000E+00 -0.00000000000E+00 -0.49282256552E+03  0.49282256553E+03  0.25500000000E-02 0. -1.
         11    1    1    2    0    0 -0.25471566898E+03 -0.24679233563E+03  0.60007157162E+03  0.69704549350E+03  0.51100000000E-03 0. -1.
         22    1    1    2    0    0  0.53894564544E+02  0.20602714593E+03  0.29106207314E+03  0.36065071657E+03  0.00000000000E+00 0. -1.
          2    1    1    2  501    0  0.20082110444E+03  0.40765189700E+02 -0.38390838672E+03  0.43517417901E+03  0.25500000000E-02 0. -1.
<mgrwt>
<rscale>  0 0.20491685E+03</rscale>
<asrwt>0</asrwt>
<pdfrwt beam="1">  1       11 0.10000000E+01 0.26218868E+03</pdfrwt>
<pdfrwt beam="2">  1        2 0.75822480E-01 0.20491685E+03</pdfrwt>
<totfact> 0.79139462E+01</totfact>
</mgrwt>
</event>
<event>
 5    1  0.2226716E-003  0.1424177E+03  0.7818608E-02  0.1210112E+00
         11   -1    0    0    0    0  0.00000000000E+00  0.00000000000E+00  0.10004081680E+04  0.10004081680E+04  0.51100000000E-03 0. -1.
          2   -1    0    0  501    0 -0.00000000000E+00 -0.00000000000E+00 -0.24562507726E+03  0.24562507727E+03  0.25500000000E-02 0. -1.
         11    1    1    2    0    0 -0.18896202210E+03 -0.14535939073E+03  0.48729583064E+03  0.54248799510E+03  0.51100000000E-03 0. -1.
         22    1    1    2    0    0  0.68892267895E+02  0.76712325066E+02  0.45724856814E+03  0.46872932323E+03  0.00000000000E+00 0. -1.
          2    1    1    2  501    0  0.12006975420E+03  0.68647065661E+02 -0.18976130805E+03  0.23481592693E+03  0.25500000000E-02 0. -1.
<mgrwt>
<rscale>  0 0.14241770E+03</rscale>
<asrwt>0</asrwt>
<pdfrwt beam="1">  1       11 0.10000000E+01 0.10310638E+03</pdfrwt>
<pdfrwt beam="2">  1        2 0.37803896E-01 0.14241770E+03</pdfrwt>
<totfact> 0.16748281E+02</totfact>
</mgrwt>
</event>
<event>
 5    1  0.2226716E-003  0.7981369E+02  0.7818608E-02  0.1455017E+00
         11   -1    0    0    0    0  0.00000000000E+00  0.00000000000E+00  0.10001281919E+04  0.10001281919E+04  0.51100000000E-03 0. -1.
          2   -1    0    0  501    0 -0.00000000000E+00 -0.00000000000E+00 -0.13018411597E+02  0.13018411847E+02  0.25500000000E-02 0. -1.
         11    1    1    2    0    0 -0.63812812100E+02  0.55847195171E+02  0.23512564221E+03  0.24995009867E+03  0.51100000000E-03 0. -1.
         22    1    1    2    0    0  0.81295515851E+02 -0.10876052647E+02  0.48554156343E+03  0.49242040904E+03  0.00000000000E+00 0. -1.
          2    1    1    2  501    0 -0.17482703751E+02 -0.44971142524E+02  0.26644257462E+03  0.27077609600E+03  0.25500000000E-02 0. -1.
<mgrwt>
<rscale>  0 0.48249856E+02</rscale>
<asrwt>0</asrwt>
<pdfrwt beam="1">  1       11 0.10000000E+01 0.79813689E+02</pdfrwt>
<pdfrwt beam="2">  1        2 0.20030893E-02 0.48249856E+02</pdfrwt>
<totfact> 0.54315133E+03</totfact>
</mgrwt>
</event>
<event>
 5    1  0.2226716E-003  0.1308950E+03  0.7818608E-02  0.1226134E+00
         11   -1    0    0    0    0  0.00000000000E+00  0.00000000000E+00  0.10000033668E+04  0.10000033668E+04  0.51100000000E-03 0.  1.
          2   -1    0    0  501    0 -0.00000000000E+00 -0.00000000000E+00 -0.20321977553E+02  0.20321977713E+02  0.25500000000E-02 0.  1.
         11    1    1    2    0    0 -0.85970580115E+02 -0.96582667301E+02  0.33632030621E+03  0.36031999756E+03  0.51100000000E-03 0.  1.
         22    1    1    2    0    0 -0.11974795266E+02  0.51159925516E+01  0.46867595298E+02  0.48642991175E+02  0.00000000000E+00 0.  1.
          2    1    1    2  501    0  0.97945375381E+02  0.91466674749E+02  0.59649348777E+03  0.61136235582E+03  0.25500000000E-02 0.  1.
<mgrwt>
<rscale>  0 0.13089499E+03</rscale>
<asrwt>0</asrwt>
<pdfrwt beam="1">  1       11 0.10000000E+01 0.13021870E+02</pdfrwt>
<pdfrwt beam="2">  1        2 0.31264685E-02 0.13089499E+03</pdfrwt>
<totfact> 0.34009052E+03</totfact>
</mgrwt>
</event>
<event>
 5    1  0.2226716E-003  0.1695617E+03  0.7818608E-02  0.1178306E+00
         11   -1    0    0    0    0  0.00000000000E+00  0.00000000000E+00  0.10003340897E+04  0.10003340897E+04  0.51100000000E-03 0. -1.
          2   -1    0    0  501    0 -0.00000000000E+00 -0.00000000000E+00 -0.54253181752E+03  0.54253181753E+03  0.25500000000E-02 0. -1.
         11    1    1    2    0    0  0.18830511794E+03  0.37615518931E+02  0.83232176038E+03  0.85418572776E+03  0.51100000000E-03 0. -1.
         22    1    1    2    0    0 -0.26676340387E+02  0.12493348334E+02  0.14206475448E+03  0.14508654436E+03  0.00000000000E+00 0.  1.
          2    1    1    2  501    0 -0.16162877755E+03 -0.50108867265E+02 -0.51658424269E+03  0.54359363509E+03  0.25500000000E-02 0. -1.
<mgrwt>
<rscale>  0 0.16956169E+03</rscale>
<asrwt>0</asrwt>
<pdfrwt beam="1">  1       11 0.10000000E+01 0.29456933E+02</pdfrwt>
<pdfrwt beam="2">  1        2 0.83494316E-01 0.16956169E+03</pdfrwt>
<totfact> 0.71284337E+01</totfact>
</mgrwt>
</event>
<event>
 5    1  0.2226716E-003  0.1068149E+03  0.7818608E-02  0.1266585E+00
         11   -1    0    0    0    0  0.00000000000E+00  0.00000000000E+00  0.10003488364E+04  0.10003488364E+04  0.51100000000E-03 0. -1.
          2   -1    0    0  501    0 -0.00000000000E+00 -0.00000000000E+00 -0.11199431772E+02  0.11199432062E+02  0.25500000000E-02 0. -1.
         11    1    1    2    0    0  0.33836447531E+02 -0.98690208292E+02  0.52512208693E+03  0.53538571943E+03  0.51100000000E-03 0. -1.
         22    1    1    2    0    0 -0.33630013028E+02  0.66240270404E+02  0.31456293976E+03  0.32321601797E+03  0.00000000000E+00 0. -1.
          2    1    1    2  501    0 -0.20643450349E+00  0.32449937889E+02  0.14946437793E+03  0.15294653105E+03  0.25500000000E-02 0. -1.
<mgrwt>
<rscale>  0 0.10681489E+03</rscale>
<asrwt>0</asrwt>
<pdfrwt beam="1">  1       11 0.10000000E+01 0.10432959E+03</pdfrwt>
<pdfrwt beam="2">  1        2 0.17235905E-02 0.10681489E+03</pdfrwt>
<totfact> 0.74300724E+03</totfact>
</mgrwt>
</event>
<event>
 5    1  0.2226716E-003  0.1440029E+03  0.7818608E-02  0.1208042E+00
         11   -1    0    0    0    0  0.00000000000E+00  0.00000000000E+00  0.10002149052E+04  0.10002149052E+04  0.51100000000E-03 0. -1.
          2   -1    0    0  501    0 -0.00000000000E+00 -0.00000000000E+00 -0.19829397399E+02  0.19829397563E+02  0.25500000000E-02 0. -1.
         11    1    1    2    0    0 -0.13187336489E+03 -0.36570083673E+02  0.51644321792E+03  0.53426730456E+03  0.51100000000E-03 0. -1.
         22    1    1    2    0    0  0.32806410741E+02 -0.10036439162E+02  0.99786574402E+02  0.10551943483E+03  0.00000000000E+00 0. -1.
          2    1    1    2  501    0  0.99066954151E+02  0.46606522835E+02  0.36415571546E+03  0.38025756335E+03  0.25500000000E-02 0. -1.
<mgrwt>
<rscale>  0 0.14400293E+03</rscale>
<asrwt>0</asrwt>
<pdfrwt beam="1">  1       11 0.10000000E+01 0.13685012E+03</pdfrwt>
<pdfrwt beam="2">  1        2 0.30513321E-02 0.14400293E+03</pdfrwt>
<totfact> 0.35475222E+03</totfact>
</mgrwt>
</event>
<event>
 5    1  0.2226716E-003  0.1622950E+03  0.7818608E-02  0.1186130E+00
         11   -1    0    0    0    0  0.00000000000E+00  0.00000000000E+00  0.99978627941E+03  0.99978627941E+03  0.51100000000E-03 0.  1.
         -2   -1    0    0    0  501 -0.00000000000E+00 -0.00000000000E+00 -0.88099717116E+02  0.88099717153E+02  0.25500000000E-02 0. -1.
         11    1    1    2    0    0 -0.22566091442E+03 -0.65956338273E+02  0.49841985022E+03  0.55108568658E+03  0.51100000000E-03 0.  1.
         22    1    1    2    0    0  0.81227732461E+02  0.30166305921E+02  0.37259927763E+03  0.38254172612E+03  0.00000000000E+00 0.  1.
         -2    1    1    2    0  501  0.14443318196E+03  0.35790032352E+02  0.40667434446E+02  0.15425858387E+03  0.25500000000E-02 0. -1.
<mgrwt>
<rscale>  0 0.16229503E+03</rscale>
<asrwt>0</asrwt>
<pdfrwt beam="1">  1       11 0.10000000E+01 0.86648431E+02</pdfrwt>
<pdfrwt beam="2">  1       -2 0.13550906E-01 0.16229503E+03</pdfrwt>
<totfact> 0.31730023E+02</totfact>
</mgrwt>
</event>
<event>
 5    1  0.2226716E-003  0.1018466E+03  0.7818608E-02  0.1559232E+00
         11   -1    0    0    0    0  0.00000000000E+00  0.00000000000E+00  0.99989628511E+03  0.99989628511E+03  0.51100000000E-03 0. -1.
          2   -1    0    0  501    0 -0.00000000000E+00 -0.00000000000E+00 -0.76375554123E+03  0.76375554124E+03  0.25500000000E-02 0.  1.
         11    1    1    2    0    0  0.93961333186E+02  0.73163873373E+02  0.61969683176E+03  0.63103553608E+03  0.51100000000E-03 0. -1.
         22    1    1    2    0    0 -0.62879966527E+02 -0.59803727789E+02  0.36911847975E+03  0.37918178772E+03  0.00000000000E+00 0. -1.
          2    1    1    2  501    0 -0.31081366659E+02 -0.13360145584E+02 -0.75267456764E+03  0.75343450254E+03  0.25500000000E-02 0.  1.
<mgrwt>
<rscale>  0 0.33831123E+02</rscale>
<asrwt>0</asrwt>
<pdfrwt beam="1">  1       11 0.10000000E+01 0.10184658E+03</pdfrwt>
<pdfrwt beam="2">  1        2 0.11748866E+00 0.33831123E+02</pdfrwt>
<totfact> 0.50528382E+01</totfact>
</mgrwt>
</event>
<event>
 5    1  0.2226716E-003  0.1125329E+03  0.7818608E-02  0.1255950E+00
         11   -1    0    0    0    0  0.00000000000E+00  0.00000000000E+00  0.10004063862E+04  0.10004063862E+04  0.51100000000E-03 0. -1.
         -2   -1    0    0    0  501 -0.00000000000E+00 -0.00000000000E+00 -0.26585853297E+02  0.26585853420E+02  0.25500000000E-02 0. -1.
         11    1    1    2    0    0 -0.13763348579E+03 -0.23169705118E+02  0.63661408259E+03  0.65173407291E+03  0.51100000000E-03 0. -1.
         22    1    1    2    0    0  0.31669604047E+02  0.22386584262E+02  0.18976400799E+03  0.19368660693E+03  0.00000000000E+00 0. -1.
         -2    1    1    2    0  501  0.10596388174E+03  0.78312085605E+00  0.14744244229E+03  0.18157155974E+03  0.25500000000E-02 0. -1.
<mgrwt>
<rscale>  0 0.11253295E+03</rscale>
<asrwt>0</asrwt>
<pdfrwt beam="1">  1       11 0.10000000E+01 0.38783024E+02</pdfrwt>
<pdfrwt beam="2">  1       -2 0.40917933E-02 0.11253295E+03</pdfrwt>
<totfact> 0.19572115E+03</totfact>
</mgrwt>
</event>
<event>
 5    1  0.2226716E-003  0.1907292E+03  0.7818608E-02  0.1162587E+00
         11   -1    0    0    0    0  0.00000000000E+00  0.00000000000E+00  0.10004533109E+04  0.10004533109E+04  0.51100000000E-03 0. -1.
         -2   -1    0    0    0  501 -0.00000000000E+00 -0.00000000000E+00 -0.90280070315E+02  0.90280070351E+02  0.25500000000E-02 0.  1.
         11    1    1    2    0    0  0.17397354091E+03  0.22652999187E+02  0.81418592887E+03  0.83287374678E+03  0.51100000000E-03 0. -1.
         22    1    1    2    0    0  0.80685909767E+01  0.12976227506E+02  0.68686156593E+02  0.70365280844E+02  0.00000000000E+00 0.  1.
         -2    1    1    2    0  501 -0.18204213189E+03 -0.35629226693E+02  0.27301155163E+02  0.18749435367E+03  0.25500000000E-02 0.  1.
<mgrwt>
<rscale>  0 0.18549604E+03</rscale>
<asrwt>0</asrwt>
<pdfrwt beam="1">  1       11 0.10000000E+01 0.19072918E+03</pdfrwt>
<pdfrwt beam="2">  1       -2 0.13895537E-01 0.18549604E+03</pdfrwt>
<totfact> 0.30641927E+02</totfact>
</mgrwt>
</event>
<event>
 5    1  0.2226716E-003  0.1074568E+03  0.7818608E-02  0.1441714E+00
         11   -1    0    0    0    0  0.00000000000E+00  0.00000000000E+00  0.10002432518E+04  0.10002432518E+04  0.51100000000E-03 0. -1.
          2   -1    0    0  501    0 -0.00000000000E+00 -0.00000000000E+00 -0.57976748078E+03  0.57976748079E+03  0.25500000000E-02 0. -1.
         11    1    1    2    0    0  0.22289098513E+01 -0.91689249866E+02  0.38227872254E+03  0.39312708924E+03  0.51100000000E-03 0. -1.
         22    1    1    2    0    0  0.35533221696E+02  0.12548818432E+03  0.60445348635E+03  0.61836389886E+03  0.00000000000E+00 0. -1.
          2    1    1    2  501    0 -0.37762131548E+02 -0.33798934457E+02 -0.56625643783E+03  0.56851974454E+03  0.25500000000E-02 0. -1.
<mgrwt>
<rscale>  0 0.50678857E+02</rscale>
<asrwt>0</asrwt>
<pdfrwt beam="1">  1       11 0.10000000E+01 0.10745677E+03</pdfrwt>
<pdfrwt beam="2">  1        2 0.89216691E-01 0.50678857E+02</pdfrwt>
<totfact> 0.67802935E+01</totfact>
</mgrwt>
</event>
<event>
 5    1  0.2226716E-003  0.8190191E+02  0.7818608E-02  0.1395960E+00
         11   -1    0    0    0    0  0.00000000000E+00  0.00000000000E+00  0.10000789337E+04  0.10000789337E+04  0.51100000000E-03 0.  1.
          2   -1    0    0  501    0 -0.00000000000E+00 -0.00000000000E+00 -0.15992861125E+02  0.15992861329E+02  0.25500000000E-02 0.  1.
         11    1    1    2    0    0  0.78849598287E+02  0.33462545571E+02  0.17990125965E+03  0.19925226305E+03  0.51100000000E-03 0.  1.
         22    1    1    2    0    0 -0.29300816299E+02  0.33643675237E+02  0.12890900233E+03  0.13641101715E+03  0.00000000000E+00 0. -1.
          2    1    1    2  501    0 -0.49548781987E+02 -0.67106220808E+02  0.67527581064E+03  0.68040851488E+03  0.25500000000E-02 0.  1.
<mgrwt>
<rscale>  0 0.60448273E+02</rscale>
<asrwt>0</asrwt>
<pdfrwt beam="1">  1       11 0.10000000E+01 0.81901913E+02</pdfrwt>
<pdfrwt beam="2">  1        2 0.24606343E-02 0.60448273E+02</pdfrwt>
<totfact> 0.42746827E+03</totfact>
</mgrwt>
</event>
<event>
 5    1  0.2226716E-003  0.1278399E+03  0.7818608E-02  0.1492600E+00
         11   -1    0    0    0    0  0.00000000000E+00  0.00000000000E+00  0.10006308360E+04  0.10006308360E+04  0.51100000000E-03 0.  1.
         -2   -1    0    0    0  501 -0.00000000000E+00 -0.00000000000E+00 -0.34153892525E+03  0.34153892526E+03  0.25500000000E-02 0.  1.
         11    1    1    2    0    0  0.13317408929E+03 -0.61230243917E+02  0.37406837374E+03  0.40176066142E+03  0.51100000000E-03 0.  1.
         22    1    1    2    0    0 -0.11914917899E+03  0.21426006559E+02  0.60533889941E+03  0.61732550874E+03  0.00000000000E+00 0. -1.
         -2    1    1    2    0  501 -0.14024910300E+02  0.39804237357E+02 -0.32031536242E+03  0.32308359108E+03  0.25500000000E-02 0.  1.
<mgrwt>
<rscale>  0 0.42202789E+02</rscale>
<asrwt>0</asrwt>
<pdfrwt beam="1">  1       11 0.10000000E+01 0.12783987E+03</pdfrwt>
<pdfrwt beam="2">  1       -2 0.52577595E-01 0.42202789E+02</pdfrwt>
<totfact> 0.28158906E+01</totfact>
</mgrwt>
</event>
<event>
 5    1  0.2226716E-003  0.6856059E+03  0.7818608E-02  0.9742170E-01
         11   -1    0    0    0    0  0.00000000000E+00  0.00000000000E+00  0.10002425063E+04  0.10002425063E+04  0.51100000000E-03 0. -1.
          2   -1    0    0  501    0 -0.00000000000E+00 -0.00000000000E+00 -0.93886202409E+03  0.93886202409E+03  0.25500000000E-02 0. -1.
         11    1    1    2    0    0 -0.66541202603E+03  0.15139535373E+03  0.68860343124E+03  0.96946810315E+03  0.51100000000E-03 0. -1.
         22    1    1    2    0    0 -0.49571939798E+00  0.14227140033E+02  0.21203139193E+02  0.25538801124E+02  0.00000000000E+00 0. -1.
          2    1    1    2  501    0  0.66590774542E+03 -0.16562249376E+03 -0.64842608819E+03  0.94409762615E+03  0.25500000000E-02 0. -1.
<mgrwt>
<rscale>  0 0.68560591E+03</rscale>
<asrwt>0</asrwt>
<pdfrwt beam="1">  1       11 0.10000000E+01 0.14235774E+02</pdfrwt>
<pdfrwt beam="2">  1        2 0.14447533E+00 0.68560591E+03</pdfrwt>
<totfact> 0.34436543E+01</totfact>
</mgrwt>
</event>
<event>
 5    1  0.2226716E-003  0.2268194E+03  0.7818608E-02  0.1128899E+00
         11   -1    0    0    0    0  0.00000000000E+00  0.00000000000E+00  0.10002572099E+04  0.10002572099E+04  0.51100000000E-03 0. -1.
         -2   -1    0    0    0  501 -0.00000000000E+00 -0.00000000000E+00 -0.15301335653E+03  0.15301335655E+03  0.25500000000E-02 0.  1.
         11    1    1    2    0    0 -0.24975883064E+03 -0.10991577441E+02  0.37686931095E+03  0.45225077755E+03  0.51100000000E-03 0. -1.
         22    1    1    2    0    0  0.35455470995E+02  0.74035805816E+02  0.47052875111E+03  0.47763552694E+03  0.00000000000E+00 0.  1.
         -2    1    1    2    0  501  0.21430335965E+03 -0.63044228375E+02 -0.15420873909E+00  0.22338426192E+03  0.25500000000E-02 0.  1.
<mgrwt>
<rscale>  0 0.22681945E+03</rscale>
<asrwt>0</asrwt>
<pdfrwt beam="1">  1       11 0.10000000E+01 0.82087703E+02</pdfrwt>
<pdfrwt beam="2">  1       -2 0.23546571E-01 0.22681945E+03</pdfrwt>
<totfact> 0.12666484E+02</totfact>
</mgrwt>
</event>
<event>
 5    1  0.2226716E-003  0.3007722E+02  0.7818608E-02  0.1684749E+00
         11   -1    0    0    0    0  0.00000000000E+00  0.00000000000E+00  0.99978788128E+03  0.99978788128E+03  0.51100000000E-03 0. -1.
          2   -1    0    0  501    0 -0.00000000000E+00 -0.00000000000E+00 -0.62406970852E+01  0.62406976061E+01  0.25500000000E-02 0. -1.
         11    1    1    2    0    0 -0.38636967054E+01 -0.33513038332E+02  0.49398810861E+02  0.59818846572E+02  0.51100000000E-03 0. -1.
         22    1    1    2    0    0 -0.15168527697E+02  0.10130680539E+02  0.10887246865E+03  0.11038989696E+03  0.00000000000E+00 0. -1.
          2    1    1    2  501    0  0.19032224402E+02  0.23382357793E+02  0.83527590468E+03  0.83581983536E+03  0.25500000000E-02 0. -1.
<mgrwt>
<rscale>  0 0.23422692E+02</rscale>
<asrwt>0</asrwt>
<pdfrwt beam="1">  1       11 0.10000000E+01 0.30077220E+02</pdfrwt>
<pdfrwt beam="2">  1        2 0.95990360E-03 0.23422692E+02</pdfrwt>
<totfact> 0.12470341E+04</totfact>
</mgrwt>
</event>
<event>
 5    1  0.2226716E-003  0.1136846E+04  0.7818608E-02  0.9170005E-01
         11   -1    0    0    0    0  0.00000000000E+00  0.00000000000E+00  0.10009996819E+04  0.10009996819E+04  0.51100000000E-03 0. -1.
          2   -1    0    0  501    0 -0.00000000000E+00 -0.00000000000E+00 -0.34218687644E+04  0.34218687644E+04  0.25500000000E-02 0. -1.
         11    1    1    2    0    0  0.17239983226E+03  0.11440401961E+04  0.46851929950E+03  0.12482227392E+04  0.51100000000E-03 0. -1.
         22    1    1    2    0    0  0.15457572145E+02 -0.25330549944E+02  0.30252926986E+02  0.42377032556E+02  0.00000000000E+00 0. -1.
          2    1    1    2  501    0 -0.18785740441E+03 -0.11187096462E+04 -0.29196413089E+04  0.31322686746E+04  0.25500000000E-02 0. -1.
<mgrwt>
<rscale>  0 0.11368457E+04</rscale>
<asrwt>0</asrwt>
<pdfrwt beam="1">  1       11 0.10000000E+01 0.29674455E+02</pdfrwt>
<pdfrwt beam="2">  1        2 0.52696761E+00 0.11368457E+04</pdfrwt>
<totfact> 0.11456008E+00</totfact>
</mgrwt>
</event>
<event>
 5    1  0.2226716E-003  0.1218874E+03  0.7818608E-02  0.1240016E+00
         11   -1    0    0    0    0  0.00000000000E+00  0.00000000000E+00  0.10004767162E+04  0.10004767162E+04  0.51100000000E-03 0. -1.
          2   -1    0    0  501    0 -0.00000000000E+00 -0.00000000000E+00 -0.89231887214E+02  0.89231887250E+02  0.25500000000E-02 0. -1.
         11    1    1    2    0    0  0.67775317389E+02  0.10435445095E+03 -0.35392265598E+02  0.12936752894E+03  0.51100000000E-03 0. -1.
         22    1    1    2    0    0  0.15992279564E+02 -0.58846526969E+02  0.25640544775E+03  0.26355724308E+03  0.00000000000E+00 0.  1.
          2    1    1    2  501    0 -0.83767596953E+02 -0.45507923981E+02  0.69023164683E+03  0.69678383142E+03  0.25500000000E-02 0. -1.
<mgrwt>
<rscale>  0 0.12188740E+03</rscale>
<asrwt>0</asrwt>
<pdfrwt beam="1">  1       11 0.10000000E+01 0.60980872E+02</pdfrwt>
<pdfrwt beam="2">  1        2 0.13734527E-01 0.12188740E+03</pdfrwt>
<totfact> 0.51634810E+02</totfact>
</mgrwt>
</event>
<event>
 5    1  0.2226716E-003  0.1916216E+03  0.7818608E-02  0.1162394E+00
         11   -1    0    0    0    0  0.00000000000E+00  0.00000000000E+00  0.10000859061E+04  0.10000859061E+04  0.51100000000E-03 0.  1.
          2   -1    0    0  501    0 -0.00000000000E+00 -0.00000000000E+00 -0.74458950656E+02  0.74458950700E+02  0.25500000000E-02 0.  1.
         11    1    1    2    0    0 -0.34554449045E+02  0.12712277341E+03  0.63846075785E+03  0.65190977043E+03  0.51100000000E-03 0.  1.
         22    1    1    2    0    0  0.12055791111E+02  0.57213251098E+02  0.21598028595E+03  0.22375473653E+03  0.00000000000E+00 0.  1.
          2    1    1    2  501    0  0.22498657935E+02 -0.18433602450E+03  0.71185911679E+02  0.19888034988E+03  0.25500000000E-02 0.  1.
<mgrwt>
<rscale>  0 0.18570396E+03</rscale>
<asrwt>0</asrwt>
<pdfrwt beam="1">  1       11 0.10000000E+01 0.19162158E+03</pdfrwt>
<pdfrwt beam="2">  1        2 0.11456207E-01 0.18570396E+03</pdfrwt>
<totfact> 0.65473459E+02</totfact>
</mgrwt>
</event>
<event>
 5    1  0.2226716E-003  0.1731903E+03  0.7818608E-02  0.1181756E+00
         11   -1    0    0    0    0  0.00000000000E+00  0.00000000000E+00  0.99982993623E+03  0.99982993623E+03  0.51100000000E-03 0. -1.
          2   -1    0    0  501    0 -0.00000000000E+00 -0.00000000000E+00 -0.12588810964E+03  0.12588810967E+03  0.25500000000E-02 0. -1.
         11    1    1    2    0    0  0.10509195092E+03 -0.27585614569E+02  0.60312284221E+03  0.61283149974E+03  0.51100000000E-03 0. -1.
         22    1    1    2    0    0  0.43121160042E+02 -0.47850446511E+02  0.33010365063E+03  0.33632948107E+03  0.00000000000E+00 0. -1.
          2    1    1    2  501    0 -0.14821311096E+03  0.75436061080E+02 -0.59284666262E+02  0.17655706508E+03  0.25500000000E-02 0. -1.
<mgrwt>
<rscale>  0 0.16630612E+03</rscale>
<asrwt>0</asrwt>
<pdfrwt beam="1">  1       11 0.10000000E+01 0.17319030E+03</pdfrwt>
<pdfrwt beam="2">  1        2 0.19364107E-01 0.16630612E+03</pdfrwt>
<totfact> 0.35082876E+02</totfact>
</mgrwt>
</event>
<event>
 5    1  0.2226716E-003  0.5657596E+03  0.7818608E-02  0.9979106E-01
         11   -1    0    0    0    0  0.00000000000E+00  0.00000000000E+00  0.10002063478E+04  0.10002063478E+04  0.51100000000E-03 0. -1.
          2   -1    0    0  501    0 -0.00000000000E+00 -0.00000000000E+00 -0.46191347698E+03  0.46191347699E+03  0.25500000000E-02 0.  1.
         11    1    1    2    0    0 -0.27397435991E+03 -0.49066297080E+03  0.56105065675E+03  0.79409693379E+03  0.51100000000E-03 0. -1.
         22    1    1    2    0    0 -0.25299555466E+02  0.88119862588E+01  0.86339730805E+02  0.90400595817E+02  0.00000000000E+00 0.  1.
          2    1    1    2  501    0  0.29927391538E+03  0.48185098455E+03 -0.10909751674E+03  0.57762229519E+03  0.25500000000E-02 0.  1.
<mgrwt>
<rscale>  0 0.56575960E+03</rscale>
<asrwt>0</asrwt>
<pdfrwt beam="1">  1       11 0.10000000E+01 0.26790271E+02</pdfrwt>
<pdfrwt beam="2">  1        2 0.71078274E-01 0.56575960E+03</pdfrwt>
<totfact> 0.83844944E+01</totfact>
</mgrwt>
</event>
<event>
 5    1  0.2226716E-003  0.6907358E+02  0.7818608E-02  0.1618567E+00
         11   -1    0    0    0    0  0.00000000000E+00  0.00000000000E+00  0.10001001142E+04  0.10001001142E+04  0.51100000000E-03 0. -1.
          2   -1    0    0  501    0 -0.00000000000E+00 -0.00000000000E+00 -0.14253492672E+02  0.14253492900E+02  0.25500000000E-02 0. -1.
         11    1    1    2    0    0 -0.74577143157E+02 -0.51260975152E+02  0.18394578390E+03  0.20500119334E+03  0.51100000000E-03 0. -1.
         22    1    1    2    0    0  0.50959263168E+02  0.35804284303E+02  0.28705870185E+03  0.29373711305E+03  0.00000000000E+00 0. -1.
          2    1    1    2  501    0  0.23617879989E+02  0.15456690850E+02  0.51484213575E+03  0.51561530068E+03  0.25500000000E-02 0. -1.
<mgrwt>
<rscale>  0 0.28226115E+02</rscale>
<asrwt>0</asrwt>
<pdfrwt beam="1">  1       11 0.10000000E+01 0.69073585E+02</pdfrwt>
<pdfrwt beam="2">  1        2 0.21930645E-02 0.28226115E+02</pdfrwt>
<totfact> 0.44276617E+03</totfact>
</mgrwt>
</event>
<event>
 5    1  0.2226716E-003  0.1285564E+03  0.7818608E-02  0.1698684E+00
         11   -1    0    0    0    0  0.00000000000E+00  0.00000000000E+00  0.99990901502E+03  0.99990901502E+03  0.51100000000E-03 0. -1.
          2   -1    0    0  501    0 -0.00000000000E+00 -0.00000000000E+00 -0.43145956913E+03  0.43145956913E+03  0.25500000000E-02 0.  1.
         11    1    1    2    0    0 -0.84724079550E+02  0.11460714453E+03  0.27428214026E+03  0.30910137447E+03  0.51100000000E-03 0. -1.
         22    1    1    2    0    0  0.83566518390E+02 -0.92073284529E+02  0.70244568294E+03  0.71336581794E+03  0.00000000000E+00 0. -1.
          2    1    1    2  501    0  0.11575611598E+01 -0.22533860000E+02 -0.40827837730E+03  0.40890139175E+03  0.25500000000E-02 0.  1.
<mgrwt>
<rscale>  0 0.22563572E+02</rscale>
<asrwt>0</asrwt>
<pdfrwt beam="1">  1       11 0.10000000E+01 0.12855641E+03</pdfrwt>
<pdfrwt beam="2">  1        2 0.66372354E-01 0.22563572E+02</pdfrwt>
<totfact> 0.92770252E+01</totfact>
</mgrwt>
</event>
<event>
 5    1  0.2226716E-003  0.3695414E+03  0.7818608E-02  0.1054868E+00
         11   -1    0    0    0    0  0.00000000000E+00  0.00000000000E+00  0.10007312108E+04  0.10007312108E+04  0.51100000000E-03 0.  1.
          2   -1    0    0  501    0 -0.00000000000E+00 -0.00000000000E+00 -0.20707438131E+04  0.20707438132E+04  0.25500000000E-02 0. -1.
         11    1    1    2    0    0  0.29162506786E+03  0.63749922985E+02  0.35091960954E+03  0.46071010977E+03  0.51100000000E-03 0.  1.
         22    1    1    2    0    0 -0.68977011526E+02  0.23899996301E+03  0.55036252776E+03  0.60396831241E+03  0.00000000000E+00 0.  1.
          2    1    1    2  501    0 -0.22264805633E+03 -0.30274988599E+03 -0.19712947396E+04  0.20067966018E+04  0.25500000000E-02 0. -1.
<mgrwt>
<rscale>  0 0.36954135E+03</rscale>
<asrwt>0</asrwt>
<pdfrwt beam="1">  1       11 0.10000000E+01 0.24875452E+03</pdfrwt>
<pdfrwt beam="2">  1        2 0.31880891E+00 0.36954135E+03</pdfrwt>
<totfact> 0.82728232E+00</totfact>
</mgrwt>
</event>
<event>
 5    1  0.2226716E-003  0.7477717E+03  0.7818608E-02  0.9638853E-01
         11   -1    0    0    0    0  0.00000000000E+00  0.00000000000E+00  0.10001735453E+04  0.10001735453E+04  0.51100000000E-03 0. -1.
          2   -1    0    0  501    0 -0.00000000000E+00 -0.00000000000E+00 -0.83619729523E+03  0.83619729524E+03  0.25500000000E-02 0. -1.
         11    1    1    2    0    0  0.79174861964E+02  0.74899955684E+03 -0.26319109458E+03  0.79783365885E+03  0.51100000000E-03 0. -1.
         22    1    1    2    0    0 -0.19122288995E+03 -0.49423869833E+01  0.54727926609E+02  0.19896172190E+03  0.00000000000E+00 0. -1.
          2    1    1    2  501    0  0.11204802798E+03 -0.74405716986E+03  0.37243941807E+03  0.83957545982E+03  0.25500000000E-02 0. -1.
<mgrwt>
<rscale>  0 0.74777170E+03</rscale>
<asrwt>0</asrwt>
<pdfrwt beam="1">  1       11 0.10000000E+01 0.19128675E+03</pdfrwt>
<pdfrwt beam="2">  1        2 0.12866806E+00 0.74777170E+03</pdfrwt>
<totfact> 0.40282994E+01</totfact>
</mgrwt>
</event>
<event>
 5    1  0.2226716E-003  0.1999905E+03  0.7818608E-02  0.1149747E+00
         11   -1    0    0    0    0  0.00000000000E+00  0.00000000000E+00  0.10002001139E+04  0.10002001139E+04  0.51100000000E-03 0. -1.
          2   -1    0    0  501    0 -0.00000000000E+00 -0.00000000000E+00 -0.74399500784E+03  0.74399500784E+03  0.25500000000E-02 0. -1.
         11    1    1    2    0    0  0.59498250923E+02  0.18220552534E+03  0.94109219397E+03  0.96041314697E+03  0.51100000000E-03 0. -1.
         22    1    1    2    0    0 -0.21572831792E+02  0.14299965313E+02  0.31036264655E+02  0.40411951242E+02  0.00000000000E+00 0.  1.
          2    1    1    2  501    0 -0.37925419131E+02 -0.19650549065E+03 -0.71592335251E+03  0.74337002358E+03  0.25500000000E-02 0. -1.
<mgrwt>
<rscale>  0 0.19999049E+03</rscale>
<asrwt>0</asrwt>
<pdfrwt beam="1">  1       11 0.10000000E+01 0.25881964E+02</pdfrwt>
<pdfrwt beam="2">  1        2 0.11448367E+00 0.19999049E+03</pdfrwt>
<totfact> 0.49045319E+01</totfact>
</mgrwt>
</event>
<event>
 5    1  0.5446919E-003  0.2581911E+03  0.7818608E-02  0.1109571E+00
         11   -1    0    0    0    0  0.00000000000E+00  0.00000000000E+00  0.10000844139E+04  0.10000844139E+04  0.51100000000E-03 0. -1.
          2   -1    0    0  501    0 -0.00000000000E+00 -0.00000000000E+00 -0.11533540559E+04  0.11533540559E+04  0.25500000000E-02 0.  1.
         11    1    1    2    0    0  0.17214784987E+02  0.24187384767E+03  0.90688299568E+03  0.93874175089E+03  0.51100000000E-03 0. -1.
         22    1    1    2    0    0 -0.72120150320E+01  0.13929539995E+02  0.61876674201E+02  0.63833909918E+02  0.00000000000E+00 0. -1.
          2    1    1    2  501    0 -0.10002769955E+02 -0.25580338766E+03 -0.11220293119E+04  0.11508628090E+04  0.25500000000E-02 0.  1.
<mgrwt>
<rscale>  0 0.25599888E+03</rscale>
<asrwt>0</asrwt>
<pdfrwt beam="1">  1       11 0.10000000E+01 0.25819113E+03</pdfrwt>
<pdfrwt beam="2">  1        2 0.17745406E+00 0.25599888E+03</pdfrwt>
<totfact> 0.26700123E+01</totfact>
</mgrwt>
</event>
<event>
 5    1  0.2226716E-003  0.9470050E+02  0.7818608E-02  0.1399394E+00
         11   -1    0    0    0    0  0.00000000000E+00  0.00000000000E+00  0.10004872301E+04  0.10004872301E+04  0.51100000000E-03 0. -1.
         -2   -1    0    0    0  501 -0.00000000000E+00 -0.00000000000E+00 -0.94215058062E+02  0.94215058096E+02  0.25500000000E-02 0.  1.
         11    1    1    2    0    0 -0.96938162066E+02  0.78883048055E+02  0.69610924095E+03  0.70723943461E+03  0.51100000000E-03 0. -1.
         22    1    1    2    0    0  0.66492620339E+02 -0.27611954627E+02  0.28375413727E+03  0.29274579248E+03  0.00000000000E+00 0. -1.
         -2    1    1    2    0  501  0.30445541727E+02 -0.51271093428E+02 -0.73591206175E+02  0.94717061109E+02  0.25500000000E-02 0.  1.
<mgrwt>
<rscale>  0 0.59629322E+02</rscale>
<asrwt>0</asrwt>
<pdfrwt beam="1">  1       11 0.10000000E+01 0.94700496E+02</pdfrwt>
<pdfrwt beam="2">  1       -2 0.14501686E-01 0.59629322E+02</pdfrwt>
<totfact> 0.26975553E+02</totfact>
</mgrwt>
</event>
<event>
 5    1  0.2226716E-003  0.1268169E+03  0.7818608E-02  0.1696449E+00
         11   -1    0    0    0    0  0.00000000000E+00  0.00000000000E+00  0.99998450787E+03  0.99998450787E+03  0.51100000000E-03 0. -1.
          2   -1    0    0  501    0 -0.00000000000E+00 -0.00000000000E+00 -0.13316315295E+03  0.13316315298E+03  0.25500000000E-02 0. -1.
         11    1    1    2    0    0  0.11928502095E+03  0.55700740335E+02  0.77075881507E+03  0.78192112115E+03  0.51100000000E-03 0. -1.
         22    1    1    2    0    0 -0.10906113878E+03 -0.35435469177E+02  0.20772764209E+03  0.23727784928E+03  0.00000000000E+00 0. -1.
          2    1    1    2  501    0 -0.10223882169E+02 -0.20265271158E+02 -0.11166510225E+03  0.11394869042E+03  0.25500000000E-02 0. -1.
<mgrwt>
<rscale>  0 0.22698216E+02</rscale>
<asrwt>0</asrwt>
<pdfrwt beam="1">  1       11 0.10000000E+01 0.12681689E+03</pdfrwt>
<pdfrwt beam="2">  1        2 0.20486321E-01 0.22698216E+02</pdfrwt>
<totfact> 0.30213474E+02</totfact>
</mgrwt>
</event>
<event>
 5    1  0.2226716E-003  0.9434519E+02  0.7818608E-02  0.1292658E+00
         11   -1    0    0    0    0  0.00000000000E+00  0.00000000000E+00  0.10000771563E+04  0.10000771563E+04  0.51100000000E-03 0.  1.
          2   -1    0    0  501    0 -0.00000000000E+00 -0.00000000000E+00 -0.10920734066E+02  0.10920734363E+02  0.25500000000E-02 0.  1.
         11    1    1    2    0    0  0.87612909239E+02  0.34202997351E+02  0.32923152251E+03  0.34240219378E+03  0.51100000000E-03 0.  1.
         22    1    1    2    0    0  0.48277169930E+01 -0.10864288496E+02  0.64644950195E+02  0.65729059035E+02  0.00000000000E+00 0. -1.
          2    1    1    2  501    0 -0.92440626232E+02 -0.23338708855E+02  0.59527994952E+03  0.60286663784E+03  0.25500000000E-02 0.  1.
<mgrwt>
<rscale>  0 0.94345190E+02</rscale>
<asrwt>0</asrwt>
<pdfrwt beam="1">  1       11 0.10000000E+01 0.11888634E+02</pdfrwt>
<pdfrwt beam="2">  1        2 0.16802425E-02 0.94345190E+02</pdfrwt>
<totfact> 0.75657398E+03</totfact>
</mgrwt>
</event>
<event>
 5    1  0.2226716E-003  0.9761898E+02  0.7818608E-02  0.1303972E+00
         11   -1    0    0    0    0  0.00000000000E+00  0.00000000000E+00  0.10003445016E+04  0.10003445016E+04  0.51100000000E-03 0. -1.
         -2   -1    0    0    0  501 -0.00000000000E+00 -0.00000000000E+00 -0.87744018105E+01  0.87744021811E+01  0.25500000000E-02 0. -1.
         11    1    1    2    0    0 -0.12859699869E+02 -0.31848799450E+02  0.17188609175E+03  0.17528418766E+03  0.51100000000E-03 0. -1.
         22    1    1    2    0    0  0.28109904836E+02 -0.56381785218E+02  0.36956268988E+03  0.37489419068E+03  0.00000000000E+00 0.  1.
         -2    1    1    2    0  501 -0.15250204967E+02  0.88230584669E+02  0.45012131820E+03  0.45894052548E+03  0.25500000000E-02 0. -1.
<mgrwt>
<rscale>  0 0.89538845E+02</rscale>
<asrwt>0</asrwt>
<pdfrwt beam="1">  1       11 0.10000000E+01 0.97618978E+02</pdfrwt>
<pdfrwt beam="2">  1       -2 0.13503730E-02 0.89538845E+02</pdfrwt>
<totfact> 0.94747326E+03</totfact>
</mgrwt>
</event>
<event>
 5    1  0.2226716E-003  0.1526238E+03  0.7818608E-02  0.1525352E+00
         11   -1    0    0    0    0  0.00000000000E+00  0.00000000000E+00  0.10001220529E+04  0.10001220529E+04  0.51100000000E-03 0. -1.
         -2   -1    0    0    0  501 -0.00000000000E+00 -0.00000000000E+00 -0.13111060816E+03  0.13111060818E+03  0.25500000000E-02 0. -1.
         11    1    1    2    0    0 -0.16167481325E+03 -0.21258894581E+02  0.31115885414E+03  0.35129833240E+03  0.51100000000E-03 0. -1.
         22    1    1    2    0    0  0.14877332889E+03 -0.14231527816E+02  0.65702871821E+03  0.67381212243E+03  0.00000000000E+00 0. -1.
         -2    1    1    2    0  501  0.12901484355E+02  0.35490422397E+02 -0.99176127573E+02  0.10612220629E+03  0.25500000000E-02 0. -1.
<mgrwt>
<rscale>  0 0.37762659E+02</rscale>
<asrwt>0</asrwt>
<pdfrwt beam="1">  1       11 0.10000000E+01 0.15262377E+03</pdfrwt>
<pdfrwt beam="2">  1       -2 0.20173324E-01 0.37762659E+02</pdfrwt>
<totfact> 0.15417129E+02</totfact>
</mgrwt>
</event>
<event>
 5    1  0.2226716E-003  0.3872095E+02  0.7818608E-02  0.1633783E+00
         11   -1    0    0    0    0  0.00000000000E+00  0.00000000000E+00  0.10008091456E+04  0.10008091456E+04  0.51100000000E-03 0. -1.
          2   -1    0    0  501    0 -0.00000000000E+00 -0.00000000000E+00 -0.48023616538E+01  0.48023623308E+01  0.25500000000E-02 0. -1.
         11    1    1    2    0    0 -0.53581807074E+02  0.66257730983E+00  0.27321097584E+03  0.27841639028E+03  0.51100000000E-03 0. -1.
         22    1    1    2    0    0  0.27564641187E+02  0.65702160034E+01  0.10344721834E+03  0.10725811934E+03  0.00000000000E+00 0.  1.
          2    1    1    2  501    0  0.26017165888E+02 -0.72327933133E+01  0.61934858974E+03  0.61993699828E+03  0.25500000000E-02 0. -1.
<mgrwt>
<rscale>  0 0.27003819E+02</rscale>
<asrwt>0</asrwt>
<pdfrwt beam="1">  1       11 0.10000000E+01 0.38720948E+02</pdfrwt>
<pdfrwt beam="2">  1        2 0.73942272E-03 0.27003819E+02</pdfrwt>
<totfact> 0.18138730E+04</totfact>
</mgrwt>
</event>
<event>
 5    1  0.2226716E-003  0.1346690E+03  0.7818608E-02  0.1220688E+00
         11   -1    0    0    0    0  0.00000000000E+00  0.00000000000E+00  0.10001792236E+04  0.10001792236E+04  0.51100000000E-03 0. -1.
          2   -1    0    0  501    0 -0.00000000000E+00 -0.00000000000E+00 -0.11111013555E+04  0.11111013555E+04  0.25500000000E-02 0.  1.
         11    1    1    2    0    0  0.63427359973E+02 -0.14572288106E+03  0.76485674838E+03  0.78119397949E+03  0.51100000000E-03 0. -1.
         22    1    1    2    0    0  0.15137357794E+02  0.36481450148E+02  0.22129468103E+03  0.22479184073E+03  0.00000000000E+00 0.  1.
          2    1    1    2  501    0 -0.78564717767E+02  0.10924143091E+03 -0.10970735613E+04  0.11052947589E+04  0.25500000000E-02 0.  1.
<mgrwt>
<rscale>  0 0.13466896E+03</rscale>
<asrwt>0</asrwt>
<pdfrwt beam="1">  1       11 0.10000000E+01 0.39497289E+02</pdfrwt>
<pdfrwt beam="2">  1        2 0.17096930E+00 0.13466896E+03</pdfrwt>
<totfact> 0.29269192E+01</totfact>
</mgrwt>
</event>
<event>
 5    1  0.2226716E-003  0.1267569E+03  0.7818608E-02  0.1351213E+00
         11   -1    0    0    0    0  0.00000000000E+00  0.00000000000E+00  0.99955410691E+03  0.99955410691E+03  0.51100000000E-03 0. -1.
          2   -1    0    0  501    0 -0.00000000000E+00 -0.00000000000E+00 -0.14862934981E+04  0.14862934981E+04  0.25500000000E-02 0. -1.
         11    1    1    2    0    0  0.11257236191E+03  0.93878626137E+02  0.80377156424E+03  0.81702782118E+03  0.51100000000E-03 0. -1.
         22    1    1    2    0    0 -0.93782168922E+02 -0.23670739189E+02  0.17583050960E+03  0.20067826790E+03  0.00000000000E+00 0.  1.
          2    1    1    2  501    0 -0.18790192983E+02 -0.70207886948E+02 -0.14663414650E+04  0.14681415159E+04  0.25500000000E-02 0. -1.
<mgrwt>
<rscale>  0 0.72678874E+02</rscale>
<asrwt>0</asrwt>
<pdfrwt beam="1">  1       11 0.10000000E+01 0.12675685E+03</pdfrwt>
<pdfrwt beam="2">  1        2 0.22855857E+00 0.72678874E+02</pdfrwt>
<totfact> 0.19288184E+01</totfact>
</mgrwt>
</event>
<event>
 5    1  0.2226716E-003  0.9651073E+02  0.7818608E-02  0.1287809E+00
         11   -1    0    0    0    0  0.00000000000E+00  0.00000000000E+00  0.10001102329E+04  0.10001102329E+04  0.51100000000E-03 0.  1.
         -2   -1    0    0    0  501 -0.00000000000E+00 -0.00000000000E+00 -0.15943012256E+03  0.15943012258E+03  0.25500000000E-02 0. -1.
         11    1    1    2    0    0  0.91053692582E+02 -0.10756417003E+03  0.84706298790E+03  0.85870631247E+03  0.51100000000E-03 0.  1.
         22    1    1    2    0    0 -0.36323107521E+02  0.29030247434E+02  0.12780598356E+03  0.13600181190E+03  0.00000000000E+00 0.  1.
         -2    1    1    2    0  501 -0.54730585061E+02  0.78533922592E+02 -0.13418886115E+03  0.16483223108E+03  0.25500000000E-02 0. -1.
<mgrwt>
<rscale>  0 0.96510730E+02</rscale>
<asrwt>0</asrwt>
<pdfrwt beam="1">  1       11 0.10000000E+01 0.46498639E+02</pdfrwt>
<pdfrwt beam="2">  1       -2 0.24530414E-01 0.96510730E+02</pdfrwt>
<totfact> 0.11537202E+02</totfact>
</mgrwt>
</event>
<event>
 5    1  0.2226716E-003  0.2441047E+03  0.7818608E-02  0.1117088E+00
         11   -1    0    0    0    0  0.00000000000E+00  0.00000000000E+00  0.10002939647E+04  0.10002939647E+04  0.51100000000E-03 0. -1.
          2   -1    0    0  501    0 -0.00000000000E+00 -0.00000000000E+00 -0.63333898436E+02  0.63333898487E+02  0.25500000000E-02 0.  1.
         11    1    1    2    0    0 -0.54492192956E+02  0.23593026427E+03  0.32907478930E+03  0.40856175254E+03  0.51100000000E-03 0. -1.
         22    1    1    2    0    0  0.89915882335E+01 -0.94414871413E+01  0.29530328767E+02  0.32280499617E+02  0.00000000000E+00 0.  1.
          2    1    1    2  501    0  0.45500604723E+02 -0.22648877712E+03  0.57835494823E+03  0.62278561106E+03  0.25500000000E-02 0.  1.
<mgrwt>
<rscale>  0 0.24410469E+03</rscale>
<asrwt>0</asrwt>
<pdfrwt beam="1">  1       11 0.10000000E+01 0.24214159E+03</pdfrwt>
<pdfrwt beam="2">  1        2 0.97465407E-02 0.24410469E+03</pdfrwt>
<totfact> 0.80999230E+02</totfact>
</mgrwt>
</event>
<event>
 5    1  0.2226716E-003  0.4794044E+03  0.7818608E-02  0.1019299E+00
         11   -1    0    0    0    0  0.00000000000E+00  0.00000000000E+00  0.10000002533E+04  0.10000002533E+04  0.51100000000E-03 0. -1.
          2   -1    0    0  501    0 -0.00000000000E+00 -0.00000000000E+00 -0.95466458361E+03  0.95466458361E+03  0.25500000000E-02 0. -1.
         11    1    1    2    0    0 -0.93407189589E+02  0.48786129611E+03  0.73346836472E+03  0.88583824107E+03  0.51100000000E-03 0. -1.
         22    1    1    2    0    0 -0.93829168778E+01 -0.21017821807E+02  0.12418144057E+03  0.12629654843E+03  0.00000000000E+00 0. -1.
          2    1    1    2  501    0  0.10279010647E+03 -0.46684347430E+03 -0.81231413557E+03  0.94253004744E+03  0.25500000000E-02 0. -1.
<mgrwt>
<rscale>  0 0.47940443E+03</rscale>
<asrwt>0</asrwt>
<pdfrwt beam="1">  1       11 0.10000000E+01 0.23017123E+02</pdfrwt>
<pdfrwt beam="2">  1        2 0.14687151E+00 0.47940443E+03</pdfrwt>
<totfact> 0.34167582E+01</totfact>
</mgrwt>
</event>
<event>
 5    1  0.2226716E-003  0.1761097E+03  0.7818608E-02  0.1171622E+00
         11   -1    0    0    0    0  0.00000000000E+00  0.00000000000E+00  0.10000560009E+04  0.10000560009E+04  0.51100000000E-03 0. -1.
          2   -1    0    0  501    0 -0.00000000000E+00 -0.00000000000E+00 -0.19582826890E+03  0.19582826891E+03  0.25500000000E-02 0. -1.
         11    1    1    2    0    0  0.16844095776E+03 -0.41000703571E+02  0.90869505235E+03  0.92508384059E+03  0.51100000000E-03 0. -1.
         22    1    1    2    0    0 -0.20711613305E+01 -0.17246051831E+02  0.39537325611E+02  0.43184674707E+02  0.00000000000E+00 0. -1.
          2    1    1    2  501    0 -0.16636979643E+03  0.58246755402E+02 -0.14400464591E+03  0.22761575457E+03  0.25500000000E-02 0. -1.
<mgrwt>
<rscale>  0 0.17610966E+03</rscale>
<asrwt>0</asrwt>
<pdfrwt beam="1">  1       11 0.10000000E+01 0.17369974E+02</pdfrwt>
<pdfrwt beam="2">  1        2 0.30129112E-01 0.17610966E+03</pdfrwt>
<totfact> 0.21459682E+02</totfact>
</mgrwt>
</event>
<event>
 5    1  0.2226716E-003  0.1673344E+03  0.7818608E-02  0.1180656E+00
         11   -1    0    0    0    0  0.00000000000E+00  0.00000000000E+00  0.10003194100E+04  0.10003194100E+04  0.51100000000E-03 0.  1.
          2   -1    0    0  501    0 -0.00000000000E+00 -0.00000000000E+00 -0.15863705080E+03  0.15863705082E+03  0.25500000000E-02 0. -1.
         11    1    1    2    0    0  0.46607307056E+02  0.17737977720E+03  0.89043554894E+03  0.90912666513E+03  0.51100000000E-03 0.  1.
         22    1    1    2    0    0  0.25388107597E+01 -0.18293363203E+02  0.52022154019E+02  0.55203235468E+02  0.00000000000E+00 0.  1.
          2    1    1    2  501    0 -0.49146117816E+02 -0.15908641400E+03 -0.10077534378E+03  0.19462656020E+03  0.25500000000E-02 0. -1.
<mgrwt>
<rscale>  0 0.16733440E+03</rscale>
<asrwt>0</asrwt>
<pdfrwt beam="1">  1       11 0.10000000E+01 0.18468695E+02</pdfrwt>
<pdfrwt beam="2">  1        2 0.24413495E-01 0.16733440E+03</pdfrwt>
<totfact> 0.27026398E+02</totfact>
</mgrwt>
</event>
<event>
 5    1  0.2226716E-003  0.1131909E+03  0.7818608E-02  0.1482555E+00
         11   -1    0    0    0    0  0.00000000000E+00  0.00000000000E+00  0.99999014980E+03  0.99999014980E+03  0.51100000000E-03 0.  1.
         -2   -1    0    0    0  501 -0.00000000000E+00 -0.00000000000E+00 -0.12030189214E+03  0.12030189217E+03  0.25500000000E-02 0.  1.
         11    1    1    2    0    0 -0.89695225066E+02  0.99988686576E+02  0.67859780614E+03  0.69176437704E+03  0.51100000000E-03 0.  1.
         22    1    1    2    0    0  0.66839876769E+02 -0.62729441420E+02  0.30357413883E+03  0.31711166758E+03  0.00000000000E+00 0. -1.
         -2    1    1    2    0  501  0.22855348297E+02 -0.37259245156E+02 -0.10248368731E+03  0.11141599735E+03  0.25500000000E-02 0.  1.
<mgrwt>
<rscale>  0 0.43710620E+02</rscale>
<asrwt>0</asrwt>
<pdfrwt beam="1">  1       11 0.10000000E+01 0.11319086E+03</pdfrwt>
<pdfrwt beam="2">  1       -2 0.18507801E-01 0.43710620E+02</pdfrwt>
<totfact> 0.17891173E+02</totfact>
</mgrwt>
</event>
<event>
 5    1  0.2226716E-003  0.9737864E+02  0.7818608E-02  0.1324484E+00
         11   -1    0    0    0    0  0.00000000000E+00  0.00000000000E+00  0.10000600375E+04  0.10000600375E+04  0.51100000000E-03 0.  1.
          2   -1    0    0  501    0 -0.00000000000E+00 -0.00000000000E+00 -0.61105097444E+03  0.61105097445E+03  0.25500000000E-02 0. -1.
         11    1    1    2    0    0 -0.15461077129E+02 -0.10052686406E+03  0.60868876182E+03  0.61712778586E+03  0.51100000000E-03 0.  1.
         22    1    1    2    0    0 -0.65366943033E+02  0.89099947269E+02  0.37642742143E+03  0.39231268326E+03  0.00000000000E+00 0.  1.
          2    1    1    2  501    0  0.80828020162E+02  0.11426916787E+02 -0.59610712023E+03  0.60167054279E+03  0.25500000000E-02 0. -1.
<mgrwt>
<rscale>  0 0.81631754E+02</rscale>
<asrwt>0</asrwt>
<pdfrwt beam="1">  1       11 0.10000000E+01 0.97378644E+02</pdfrwt>
<pdfrwt beam="2">  1        2 0.94013484E-01 0.81631754E+02</pdfrwt>
<totfact> 0.63362266E+01</totfact>
</mgrwt>
</event>
<event>
 5    1  0.2226716E-003  0.9800025E+02  0.7818608E-02  0.1314874E+00
         11   -1    0    0    0    0  0.00000000000E+00  0.00000000000E+00  0.10001763033E+04  0.10001763033E+04  0.51100000000E-03 0. -1.
          2   -1    0    0  501    0 -0.00000000000E+00 -0.00000000000E+00 -0.20813270102E+03  0.20813270104E+03  0.25500000000E-02 0. -1.
         11    1    1    2    0    0  0.69090482894E+02  0.83415583714E+02  0.46584720069E+03  0.47827321567E+03  0.51100000000E-03 0. -1.
         22    1    1    2    0    0 -0.10531904453E+03 -0.62865647760E+01  0.51351704145E+03  0.52424362075E+03  0.00000000000E+00 0. -1.
          2    1    1    2  501    0  0.36228561631E+02 -0.77129018938E+02 -0.18732063988E+03  0.20579216791E+03  0.25500000000E-02 0. -1.
<mgrwt>
<rscale>  0 0.85213815E+02</rscale>
<asrwt>0</asrwt>
<pdfrwt beam="1">  1       11 0.10000000E+01 0.98000249E+02</pdfrwt>
<pdfrwt beam="2">  1        2 0.32026060E-01 0.85213815E+02</pdfrwt>
<totfact> 0.19818686E+02</totfact>
</mgrwt>
</event>
<event>
 5    1  0.2226716E-003  0.1976086E+03  0.7818608E-02  0.1151772E+00
         11   -1    0    0    0    0  0.00000000000E+00  0.00000000000E+00  0.10000310701E+04  0.10000310701E+04  0.51100000000E-03 0. -1.
          2   -1    0    0  501    0 -0.00000000000E+00 -0.00000000000E+00 -0.65263986671E+02  0.65263986721E+02  0.25500000000E-02 0. -1.
         11    1    1    2    0    0  0.52371393294E+01  0.21173632749E+03  0.65568024706E+03  0.68904011958E+03  0.51100000000E-03 0. -1.
         22    1    1    2    0    0  0.15711505807E+02 -0.19272757361E+02  0.12877444746E+03  0.13115315059E+03  0.00000000000E+00 0. -1.
          2    1    1    2  501    0 -0.20948645136E+02 -0.19246357012E+03  0.15031238893E+03  0.24510178667E+03  0.25500000000E-02 0. -1.
<mgrwt>
<rscale>  0 0.19760861E+03</rscale>
<asrwt>0</asrwt>
<pdfrwt beam="1">  1       11 0.10000000E+01 0.24865450E+02</pdfrwt>
<pdfrwt beam="2">  1        2 0.10040925E-01 0.19760861E+03</pdfrwt>
<totfact> 0.77231674E+02</totfact>
</mgrwt>
</event>
<event>
 5    1  0.2226716E-003  0.6279824E+03  0.7818608E-02  0.9848994E-01
         11   -1    0    0    0    0  0.00000000000E+00  0.00000000000E+00  0.10003557593E+04  0.10003557593E+04  0.51100000000E-03 0. -1.
          2   -1    0    0  501    0 -0.00000000000E+00 -0.00000000000E+00 -0.70692807598E+03  0.70692807598E+03  0.25500000000E-02 0.  1.
         11    1    1    2    0    0  0.59826679294E+03 -0.16956340890E+03  0.54084111980E+03  0.82412621730E+03  0.51100000000E-03 0. -1.
         22    1    1    2    0    0 -0.47881792046E+01 -0.41358302538E+02  0.13840852805E+03  0.14453496631E+03  0.00000000000E+00 0. -1.
          2    1    1    2  501    0 -0.59347861373E+03  0.21092171143E+03 -0.38582196450E+03  0.73862265171E+03  0.25500000000E-02 0.  1.
<mgrwt>
<rscale>  0 0.62798245E+03</rscale>
<asrwt>0</asrwt>
<pdfrwt beam="1">  1       11 0.10000000E+01 0.41634551E+02</pdfrwt>
<pdfrwt beam="2">  1        2 0.10879685E+00 0.62798245E+03</pdfrwt>
<totfact> 0.50413248E+01</totfact>
</mgrwt>
</event>
<event>
 5    1  0.2226716E-003  0.1000184E+03  0.7818608E-02  0.1506763E+00
         11   -1    0    0    0    0  0.00000000000E+00  0.00000000000E+00  0.10001069501E+04  0.10001069501E+04  0.51100000000E-03 0. -1.
          2   -1    0    0  501    0 -0.00000000000E+00 -0.00000000000E+00 -0.13157787607E+02  0.13157787854E+02  0.25500000000E-02 0.  1.
         11    1    1    2    0    0 -0.58221463572E+02 -0.80827088779E+02  0.42872150591E+03  0.44014189386E+03  0.51100000000E-03 0. -1.
         22    1    1    2    0    0  0.13095957222E+02 -0.94601289829E+01  0.20999608439E+02  0.26494937074E+02  0.00000000000E+00 0.  1.
          2    1    1    2  501    0  0.45125506350E+02  0.90287217762E+02  0.53722804814E+03  0.54662790702E+03  0.25500000000E-02 0.  1.
<mgrwt>
<rscale>  0 0.40197509E+02</rscale>
<asrwt>0</asrwt>
<pdfrwt beam="1">  1       11 0.10000000E+01 0.10001837E+03</pdfrwt>
<pdfrwt beam="2">  1        2 0.20244915E-02 0.40197509E+02</pdfrwt>
<totfact> 0.52064933E+03</totfact>
</mgrwt>
</event>
<event>
 5    1  0.2226716E-003  0.1339461E+03  0.7818608E-02  0.1221715E+00
         11   -1    0    0    0    0  0.00000000000E+00  0.00000000000E+00  0.10005613767E+04  0.10005613767E+04  0.51100000000E-03 0. -1.
          2   -1    0    0  501    0 -0.00000000000E+00 -0.00000000000E+00 -0.84034076413E+03  0.84034076413E+03  0.25500000000E-02 0. -1.
         11    1    1    2    0    0 -0.11825666120E+03 -0.11053993260E+03  0.89872466342E+03  0.91318658294E+03  0.51100000000E-03 0. -1.
         22    1    1    2    0    0  0.21251941479E+02  0.18413868130E+02  0.87005240841E+02  0.91436466959E+02  0.00000000000E+00 0. -1.
          2    1    1    2  501    0  0.97004719726E+02  0.92126064474E+02 -0.82550929165E+03  0.83627909098E+03  0.25500000000E-02 0. -1.
<mgrwt>
<rscale>  0 0.13394613E+03</rscale>
<asrwt>0</asrwt>
<pdfrwt beam="1">  1       11 0.10000000E+01 0.28119665E+02</pdfrwt>
<pdfrwt beam="2">  1        2 0.12935577E+00 0.13394613E+03</pdfrwt>
<totfact> 0.42723754E+01</totfact>
</mgrwt>
</event>
<event>
 5    1  0.2226716E-003  0.2334045E+03  0.7818608E-02  0.1124266E+00
         11   -1    0    0    0    0  0.00000000000E+00  0.00000000000E+00  0.10001315221E+04  0.10001315221E+04  0.51100000000E-03 0. -1.
          2   -1    0    0  501    0 -0.00000000000E+00 -0.00000000000E+00 -0.21649979115E+03  0.21649979116E+03  0.25500000000E-02 0. -1.
         11    1    1    2    0    0  0.19110796843E+03  0.26788119243E+02  0.53406722665E+03  0.56786236142E+03  0.51100000000E-03 0. -1.
         22    1    1    2    0    0  0.25079558160E+02  0.77258372763E+02  0.37105402667E+03  0.37984066542E+03  0.00000000000E+00 0. -1.
          2    1    1    2  501    0 -0.21618752659E+03 -0.10404649201E+03 -0.12148952242E+03  0.26892828638E+03  0.25500000000E-02 0. -1.
<mgrwt>
<rscale>  0 0.23340453E+03</rscale>
<asrwt>0</asrwt>
<pdfrwt beam="1">  1       11 0.10000000E+01 0.81227092E+02</pdfrwt>
<pdfrwt beam="2">  1        2 0.33312040E-01 0.23340453E+03</pdfrwt>
<totfact> 0.19312254E+02</totfact>
</mgrwt>
</event>
<event>
 5    1  0.2226716E-003  0.1188602E+03  0.7818608E-02  0.1339011E+00
         11   -1    0    0    0    0  0.00000000000E+00  0.00000000000E+00  0.10000149843E+04  0.10000149843E+04  0.51100000000E-03 0. -1.
          2   -1    0    0  501    0 -0.00000000000E+00 -0.00000000000E+00 -0.44519845813E+02  0.44519845886E+02  0.25500000000E-02 0. -1.
         11    1    1    2    0    0 -0.52898730280E+01 -0.10180711227E+03  0.28012596723E+03  0.29809935992E+03  0.51100000000E-03 0. -1.
         22    1    1    2    0    0  0.80539526890E+02  0.11608259564E+03  0.65085911316E+03  0.66601754450E+03  0.00000000000E+00 0. -1.
          2    1    1    2  501    0 -0.75249653862E+02 -0.14275483364E+02  0.24510058110E+02  0.80417925780E+02  0.25500000000E-02 0. -1.
<mgrwt>
<rscale>  0 0.76591774E+02</rscale>
<asrwt>0</asrwt>
<pdfrwt beam="1">  1       11 0.10000000E+01 0.11886020E+03</pdfrwt>
<pdfrwt beam="2">  1        2 0.68493095E-02 0.76591774E+02</pdfrwt>
<totfact> 0.11692502E+03</totfact>
</mgrwt>
</event>
<event>
 5    1  0.2226716E-003  0.2129692E+03  0.7818608E-02  0.1699704E+00
         11   -1    0    0    0    0  0.00000000000E+00  0.00000000000E+00  0.10008776047E+04  0.10008776047E+04  0.51100000000E-03 0.  1.
          2   -1    0    0  501    0 -0.00000000000E+00 -0.00000000000E+00 -0.11747752580E+04  0.11747752580E+04  0.25500000000E-02 0.  1.
         11    1    1    2    0    0 -0.62963979550E+02 -0.18988589931E+03 -0.13069471094E+03  0.23896071842E+03  0.51100000000E-03 0.  1.
         22    1    1    2    0    0  0.84483517743E+02  0.19646399539E+03  0.93453643361E+03  0.95869385729E+03  0.00000000000E+00 0.  1.
          2    1    1    2  501    0 -0.21519538193E+02 -0.65780960722E+01 -0.97773937599E+03  0.97799828693E+03  0.25500000000E-02 0.  1.
<mgrwt>
<rscale>  0 0.22502486E+02</rscale>
<asrwt>0</asrwt>
<pdfrwt beam="1">  1       11 0.10000000E+01 0.21296918E+03</pdfrwt>
<pdfrwt beam="2">  1        2 0.18089326E+00 0.22502486E+02</pdfrwt>
<totfact> 0.30244259E+01</totfact>
</mgrwt>
</event>
<event>
 5    1  0.2226716E-003  0.4443736E+03  0.7818608E-02  0.1029413E+00
         11   -1    0    0    0    0  0.00000000000E+00  0.00000000000E+00  0.99988231823E+03  0.99988231823E+03  0.51100000000E-03 0. -1.
          2   -1    0    0  501    0 -0.00000000000E+00 -0.00000000000E+00 -0.36565275715E+03  0.36565275716E+03  0.25500000000E-02 0. -1.
         11    1    1    2    0    0 -0.15070823552E+03 -0.45960106250E+03  0.20042555606E+03  0.52356137408E+03  0.51100000000E-03 0. -1.
         22    1    1    2    0    0 -0.40737542156E+02  0.83386650793E+02  0.40869921518E+03  0.41910372148E+03  0.00000000000E+00 0. -1.
          2    1    1    2  501    0  0.19144577767E+03  0.37621441170E+03  0.25104789839E+02  0.42286997983E+03  0.25500000000E-02 0. -1.
<mgrwt>
<rscale>  0 0.44437356E+03</rscale>
<asrwt>0</asrwt>
<pdfrwt beam="1">  1       11 0.10000000E+01 0.92805608E+02</pdfrwt>
<pdfrwt beam="2">  1        2 0.56247649E-01 0.44437356E+03</pdfrwt>
<totfact> 0.10919903E+02</totfact>
</mgrwt>
</event>
<event>
 5    1  0.2226716E-003  0.1682609E+03  0.7818608E-02  0.1179674E+00
         11   -1    0    0    0    0  0.00000000000E+00  0.00000000000E+00  0.10001472334E+04  0.10001472334E+04  0.51100000000E-03 0.  1.
          2   -1    0    0  501    0 -0.00000000000E+00 -0.00000000000E+00 -0.13129002781E+03  0.13129002783E+03  0.25500000000E-02 0.  1.
         11    1    1    2    0    0  0.10029052428E+03 -0.12211680226E+03  0.67637143330E+03  0.69458550118E+03  0.51100000000E-03 0.  1.
         22    1    1    2    0    0  0.41263340782E+02  0.28467367301E+02  0.25204102501E+03  0.25697807801E+03  0.00000000000E+00 0. -1.
          2    1    1    2  501    0 -0.14155386506E+03  0.93649434957E+02 -0.59555252667E+02  0.17987368209E+03  0.25500000000E-02 0.  1.
<mgrwt>
<rscale>  0 0.16826093E+03</rscale>
<asrwt>0</asrwt>
<pdfrwt beam="1">  1       11 0.10000000E+01 0.50130373E+02</pdfrwt>
<pdfrwt beam="2">  1        2 0.20201439E-01 0.16826093E+03</pdfrwt>
<totfact> 0.33443639E+02</totfact>
</mgrwt>
</event>
<event>
 5    1  0.2226716E-003  0.1764355E+03  0.7818608E-02  0.1171298E+00
         11   -1    0    0    0    0  0.00000000000E+00  0.00000000000E+00  0.10003558611E+04  0.10003558611E+04  0.51100000000E-03 0. -1.
          2   -1    0    0  501    0 -0.00000000000E+00 -0.00000000000E+00 -0.12748306404E+03  0.12748306406E+03  0.25500000000E-02 0. -1.
         11    1    1    2    0    0  0.15877122891E+03  0.89581697263E+02  0.90582544539E+03  0.92398751135E+03  0.51100000000E-03 0. -1.
         22    1    1    2    0    0 -0.94241431871E+01  0.35830186937E+01  0.17974389768E+02  0.20609007383E+02  0.00000000000E+00 0. -1.
          2    1    1    2  501    0 -0.14934708572E+03 -0.93164715957E+02 -0.50927038070E+02  0.18324240646E+03  0.25500000000E-02 0. -1.
<mgrwt>
<rscale>  0 0.17643549E+03</rscale>
<asrwt>0</asrwt>
<pdfrwt beam="1">  1       11 0.10000000E+01 0.10082286E+02</pdfrwt>
<pdfrwt beam="2">  1        2 0.19619758E-01 0.17643549E+03</pdfrwt>
<totfact> 0.34624959E+02</totfact>
</mgrwt>
</event>
<event>
 5    1  0.2226716E-003  0.2363686E+03  0.7818608E-02  0.1140377E+00
         11   -1    0    0    0    0  0.00000000000E+00  0.00000000000E+00  0.99991126183E+03  0.99991126183E+03  0.51100000000E-03 0.  1.
          2   -1    0    0  501    0 -0.00000000000E+00 -0.00000000000E+00 -0.50177800845E+02  0.50177800910E+02  0.25500000000E-02 0.  1.
         11    1    1    2    0    0 -0.56324661296E+02 -0.14162155594E+03  0.27777454687E+03  0.31684038799E+03  0.51100000000E-03 0.  1.
         22    1    1    2    0    0 -0.74668385497E+02 -0.24440455352E+02  0.23511789005E+03  0.24789740998E+03  0.00000000000E+00 0. -1.
          2    1    1    2  501    0  0.13099304679E+03  0.16606201129E+03  0.43684102407E+03  0.48535126477E+03  0.25500000000E-02 0.  1.
<mgrwt>
<rscale>  0 0.21150832E+03</rscale>
<asrwt>0</asrwt>
<pdfrwt beam="1">  1       11 0.10000000E+01 0.23636863E+03</pdfrwt>
<pdfrwt beam="2">  1        2 0.77189764E-02 0.21150832E+03</pdfrwt>
<totfact> 0.10790046E+03</totfact>
</mgrwt>
</event>
<event>
 5    1  0.2226716E-003  0.2162767E+03  0.7818608E-02  0.1136690E+00
         11   -1    0    0    0    0  0.00000000000E+00  0.00000000000E+00  0.10001463334E+04  0.10001463334E+04  0.51100000000E-03 0. -1.
          2   -1    0    0  501    0 -0.00000000000E+00 -0.00000000000E+00 -0.17422984702E+03  0.17422984704E+03  0.25500000000E-02 0.  1.
         11    1    1    2    0    0 -0.13788553959E+03 -0.15302352885E+03  0.86425906061E+03  0.88846628876E+03  0.51100000000E-03 0. -1.
         22    1    1    2    0    0  0.91041218167E+01 -0.21911164904E+02  0.46898116757E+02  0.52558705624E+02  0.00000000000E+00 0. -1.
          2    1    1    2  501    0  0.12878141778E+03  0.17493469375E+03 -0.85240690964E+02  0.23335118608E+03  0.25500000000E-02 0.  1.
<mgrwt>
<rscale>  0 0.21627668E+03</rscale>
<asrwt>0</asrwt>
<pdfrwt beam="1">  1       11 0.10000000E+01 0.23727288E+02</pdfrwt>
<pdfrwt beam="2">  1        2 0.26808513E-01 0.21627668E+03</pdfrwt>
<totfact> 0.24492986E+02</totfact>
</mgrwt>
</event>
<event>
 5    1  0.2226716E-003  0.1870682E+03  0.7818608E-02  0.1525485E+00
         11   -1    0    0    0    0  0.00000000000E+00  0.00000000000E+00  0.10002217038E+04  0.10002217038E+04  0.51100000000E-03 0. -1.
          2   -1    0    0  501    0 -0.00000000000E+00 -0.00000000000E+00 -0.13486411348E+03  0.13486411350E+03  0.25500000000E-02 0. -1.
         11    1    1    2    0    0 -0.95254680247E+02  0.17169039151E+03  0.32612313415E+03  0.38066697161E+03  0.51100000000E-03 0. -1.
         22    1    1    2    0    0  0.11750867459E+03 -0.14120226434E+03  0.62993681563E+03  0.65617586038E+03  0.00000000000E+00 0. -1.
          2    1    1    2  501    0 -0.22253994338E+02 -0.30488127167E+02 -0.90702359413E+02  0.98242985356E+02  0.25500000000E-02 0. -1.
<mgrwt>
<rscale>  0 0.37746075E+02</rscale>
<asrwt>0</asrwt>
<pdfrwt beam="1">  1       11 0.10000000E+01 0.18706819E+03</pdfrwt>
<pdfrwt beam="2">  1        2 0.20752925E-01 0.37746075E+02</pdfrwt>
<totfact> 0.30635920E+02</totfact>
</mgrwt>
</event>
<event>
 5    1  0.2226716E-003  0.9557384E+02  0.7818608E-02  0.1509179E+00
         11   -1    0    0    0    0  0.00000000000E+00  0.00000000000E+00  0.10002819605E+04  0.10002819605E+04  0.51100000000E-03 0. -1.
         -2   -1    0    0    0  501 -0.00000000000E+00 -0.00000000000E+00 -0.60731404718E+02  0.60731404771E+02  0.25500000000E-02 0.  1.
         11    1    1    2    0    0 -0.57515512302E+02 -0.56023013059E+02  0.41066265808E+03  0.41843808490E+03  0.51100000000E-03 0. -1.
         22    1    1    2    0    0  0.87495093446E+02  0.82305083953E+02  0.57163595445E+03  0.58412086305E+03  0.00000000000E+00 0. -1.
         -2    1    1    2    0  501 -0.29979581144E+02 -0.26282070893E+02 -0.42748056786E+02  0.58454417297E+02  0.25500000000E-02 0.  1.
<mgrwt>
<rscale>  0 0.39868817E+02</rscale>
<asrwt>0</asrwt>
<pdfrwt beam="1">  1       11 0.10000000E+01 0.95573837E+02</pdfrwt>
<pdfrwt beam="2">  1       -2 0.93459272E-02 0.39868817E+02</pdfrwt>
<totfact> 0.51687401E+02</totfact>
</mgrwt>
</event>
<event>
 5    1  0.2226716E-003  0.6817609E+03  0.7818608E-02  0.9748942E-01
         11   -1    0    0    0    0  0.00000000000E+00  0.00000000000E+00  0.10008416333E+04  0.10008416333E+04  0.51100000000E-03 0.  1.
          2   -1    0    0  501    0 -0.00000000000E+00 -0.00000000000E+00 -0.26079484862E+04  0.26079484862E+04  0.25500000000E-02 0.  1.
         11    1    1    2    0    0 -0.57308894318E+03  0.37432380344E+03  0.70621161719E+03  0.98350602178E+03  0.51100000000E-03 0.  1.
         22    1    1    2    0    0 -0.52926580663E+02 -0.10337795774E+03  0.77127525268E+02  0.13941621226E+03  0.00000000000E+00 0.  1.
          2    1    1    2  501    0  0.62601552385E+03 -0.27094584570E+03 -0.23904459954E+04  0.24858678855E+04  0.25500000000E-02 0.  1.
<mgrwt>
<rscale>  0 0.68176091E+03</rscale>
<asrwt>0</asrwt>
<pdfrwt beam="1">  1       11 0.10000000E+01 0.11613882E+03</pdfrwt>
<pdfrwt beam="2">  1        2 0.40156052E+00 0.68176091E+03</pdfrwt>
<totfact> 0.39133703E+00</totfact>
</mgrwt>
</event>
<event>
 5    1  0.2226716E-003  0.1602585E+03  0.7818608E-02  0.1623812E+00
         11   -1    0    0    0    0  0.00000000000E+00  0.00000000000E+00  0.10003264613E+04  0.10003264613E+04  0.51100000000E-03 0.  1.
          2   -1    0    0  501    0 -0.00000000000E+00 -0.00000000000E+00 -0.75470021172E+03  0.75470021172E+03  0.25500000000E-02 0.  1.
         11    1    1    2    0    0  0.12947069324E+02  0.13456369096E+03 -0.11817983018E+03  0.17955914288E+03  0.51100000000E-03 0.  1.
         22    1    1    2    0    0 -0.53866492825E+01 -0.16131172417E+03  0.96259561171E+03  0.97603319617E+03  0.00000000000E+00 0.  1.
          2    1    1    2  501    0 -0.75604200419E+01  0.26748033210E+02 -0.59878953192E+03  0.59943433400E+03  0.25500000000E-02 0.  1.
<mgrwt>
<rscale>  0 0.27795993E+02</rscale>
<asrwt>0</asrwt>
<pdfrwt beam="1">  1       11 0.10000000E+01 0.16025853E+03</pdfrwt>
<pdfrwt beam="2">  1        2 0.11614563E+00 0.27795993E+02</pdfrwt>
<totfact> 0.51539235E+01</totfact>
</mgrwt>
</event>
<event>
 5    1  0.2226716E-003  0.1331069E+03  0.7818608E-02  0.1482875E+00
         11   -1    0    0    0    0  0.00000000000E+00  0.00000000000E+00  0.99996130771E+03  0.99996130771E+03  0.51100000000E-03 0. -1.
          2   -1    0    0  501    0 -0.00000000000E+00 -0.00000000000E+00 -0.29802783424E+02  0.29802783533E+02  0.25500000000E-02 0. -1.
         11    1    1    2    0    0 -0.48393567929E+02  0.12563587730E+03  0.78343212938E+03  0.79491648142E+03  0.51100000000E-03 0. -1.
         22    1    1    2    0    0 -0.86622079158E+01 -0.11405163452E+02  0.24742998838E+02  0.28588941758E+02  0.00000000000E+00 0. -1.
          2    1    1    2  501    0  0.57055775844E+02 -0.11423071385E+03  0.16198339606E+03  0.20625866806E+03  0.25500000000E-02 0. -1.
<mgrwt>
<rscale>  0 0.43661417E+02</rscale>
<asrwt>0</asrwt>
<pdfrwt beam="1">  1       11 0.10000000E+01 0.13310689E+03</pdfrwt>
<pdfrwt beam="2">  1        2 0.45848661E-02 0.43661417E+02</pdfrwt>
<totfact> 0.18343468E+03</totfact>
</mgrwt>
</event>
<event>
 5    1  0.2226716E-003  0.2138178E+03  0.7818608E-02  0.1138578E+00
         11   -1    0    0    0    0  0.00000000000E+00  0.00000000000E+00  0.10003679349E+04  0.10003679349E+04  0.51100000000E-03 0. -1.
         -2   -1    0    0    0  501 -0.00000000000E+00 -0.00000000000E+00 -0.81255257437E+02  0.81255257477E+02  0.25500000000E-02 0. -1.
         11    1    1    2    0    0  0.97522670421E+02  0.20819209156E+03  0.62962967936E+03  0.67028960261E+03  0.51100000000E-03 0. -1.
         22    1    1    2    0    0  0.90960620803E+01 -0.27859519587E+02  0.16513500562E+03  0.16771541747E+03  0.00000000000E+00 0.  1.
         -2    1    1    2    0  501 -0.10661873250E+03 -0.18033257197E+03  0.12434799249E+03  0.24361817230E+03  0.25500000000E-02 0. -1.
<mgrwt>
<rscale>  0 0.21381778E+03</rscale>
<asrwt>0</asrwt>
<pdfrwt beam="1">  1       11 0.10000000E+01 0.29306845E+02</pdfrwt>
<pdfrwt beam="2">  1       -2 0.12505408E-01 0.21381778E+03</pdfrwt>
<totfact> 0.36601166E+02</totfact>
</mgrwt>
</event>
<event>
 5    1  0.2226716E-003  0.2425882E+03  0.7818608E-02  0.1118081E+00
         11   -1    0    0    0    0  0.00000000000E+00  0.00000000000E+00  0.10002752327E+04  0.10002752327E+04  0.51100000000E-03 0.  1.
          2   -1    0    0  501    0 -0.00000000000E+00 -0.00000000000E+00 -0.28210461808E+03  0.28210461809E+03  0.25500000000E-02 0.  1.
         11    1    1    2    0    0 -0.17971495331E+03 -0.84142105355E+02  0.85886436261E+03  0.88149041497E+03  0.51100000000E-03 0.  1.
         22    1    1    2    0    0 -0.47646755719E+02 -0.85074864753E+01  0.64692636446E+02  0.80794355416E+02  0.00000000000E+00 0. -1.
          2    1    1    2  501    0  0.22736170903E+03  0.92649591830E+02 -0.20538638441E+03  0.32009508042E+03  0.25500000000E-02 0.  1.
<mgrwt>
<rscale>  0 0.24258821E+03</rscale>
<asrwt>0</asrwt>
<pdfrwt beam="1">  1       11 0.10000000E+01 0.48400317E+02</pdfrwt>
<pdfrwt beam="2">  1        2 0.43412655E-01 0.24258821E+03</pdfrwt>
<totfact> 0.14495297E+02</totfact>
</mgrwt>
</event>
<event>
 5    1  0.2226716E-003  0.3812065E+03  0.7818608E-02  0.1050489E+00
         11   -1    0    0    0    0  0.00000000000E+00  0.00000000000E+00  0.10003219282E+04  0.10003219282E+04  0.51100000000E-03 0.  1.
          2   -1    0    0  501    0 -0.00000000000E+00 -0.00000000000E+00 -0.12123626902E+04  0.12123626902E+04  0.25500000000E-02 0.  1.
         11    1    1    2    0    0  0.21834179817E+03 -0.37520123439E+03  0.78116516431E+03  0.89368233789E+03  0.51100000000E-03 0.  1.
         22    1    1    2    0    0 -0.17008117590E+02  0.53817456281E+02  0.12558371586E+03  0.13768392918E+03  0.00000000000E+00 0. -1.
          2    1    1    2  501    0 -0.20133368058E+03  0.32138377811E+03 -0.11187896422E+04  0.11813183514E+04  0.25500000000E-02 0.  1.
<mgrwt>
<rscale>  0 0.38120647E+03</rscale>
<asrwt>0</asrwt>
<pdfrwt beam="1">  1       11 0.10000000E+01 0.56441072E+02</pdfrwt>
<pdfrwt beam="2">  1        2 0.18657738E+00 0.38120647E+03</pdfrwt>
<totfact> 0.24124297E+01</totfact>
</mgrwt>
</event>
<event>
 5    1  0.2226716E-003  0.2202653E+03  0.7818608E-02  0.1592185E+00
         11   -1    0    0    0    0  0.00000000000E+00  0.00000000000E+00  0.10002567822E+04  0.10002567822E+04  0.51100000000E-03 0.  1.
          2   -1    0    0  501    0 -0.00000000000E+00 -0.00000000000E+00 -0.60723203158E+02  0.60723203212E+02  0.25500000000E-02 0.  1.
         11    1    1    2    0    0  0.10751829999E+03  0.19067771033E+03  0.57896356259E+03  0.61896444232E+03  0.51100000000E-03 0.  1.
         22    1    1    2    0    0 -0.82479603368E+02 -0.20816528169E+03  0.33008932170E+03  0.39886668170E+03  0.00000000000E+00 0.  1.
          2    1    1    2  501    0 -0.25038696622E+02  0.17487571360E+02  0.30480694770E+02  0.43148861408E+02  0.25500000000E-02 0.  1.
<mgrwt>
<rscale>  0 0.30540980E+02</rscale>
<asrwt>0</asrwt>
<pdfrwt beam="1">  1       11 0.10000000E+01 0.22026527E+03</pdfrwt>
<pdfrwt beam="2">  1        2 0.93444299E-02 0.30540980E+02</pdfrwt>
<totfact> 0.74115350E+02</totfact>
</mgrwt>
</event>
<event>
 5    1  0.2226716E-003  0.4015874E+03  0.7818608E-02  0.1046812E+00
         11   -1    0    0    0    0  0.00000000000E+00  0.00000000000E+00  0.10006049448E+04  0.10006049448E+04  0.51100000000E-03 0.  1.
          2   -1    0    0  501    0 -0.00000000000E+00 -0.00000000000E+00 -0.11518925824E+04  0.11518925824E+04  0.25500000000E-02 0.  1.
         11    1    1    2    0    0 -0.14252141379E+03  0.30534303909E+03  0.70083050378E+03  0.77763109502E+03  0.51100000000E-03 0.  1.
         22    1    1    2    0    0 -0.30837825591E+02  0.45529149774E+02  0.22355058584E+03  0.23021455079E+03  0.00000000000E+00 0. -1.
          2    1    1    2  501    0  0.17335923938E+03 -0.35087218887E+03 -0.10756687272E+04  0.11446518814E+04  0.25500000000E-02 0.  1.
<mgrwt>
<rscale>  0 0.39136264E+03</rscale>
<asrwt>0</asrwt>
<pdfrwt beam="1">  1       11 0.10000000E+01 0.40158741E+03</pdfrwt>
<pdfrwt beam="2">  1        2 0.17732144E+00 0.39136264E+03</pdfrwt>
<totfact> 0.26107423E+01</totfact>
</mgrwt>
</event>
<event>
 5    1  0.2226716E-003  0.1667236E+03  0.7818608E-02  0.1518588E+00
         11   -1    0    0    0    0  0.00000000000E+00  0.00000000000E+00  0.10005402246E+04  0.10005402246E+04  0.51100000000E-03 0. -1.
          2   -1    0    0  501    0 -0.00000000000E+00 -0.00000000000E+00 -0.15241516304E+03  0.15241516306E+03  0.25500000000E-02 0.  1.
         11    1    1    2    0    0  0.13944621705E+03 -0.83968612835E+02  0.64350465714E+03  0.66377271648E+03  0.51100000000E-03 0. -1.
         22    1    1    2    0    0 -0.16846996654E+03  0.58484462219E+02  0.32064380869E+03  0.36689918779E+03  0.00000000000E+00 0. -1.
          2    1    1    2  501    0  0.29023749491E+02  0.25484150616E+02 -0.11602340426E+03  0.12228348339E+03  0.25500000000E-02 0.  1.
<mgrwt>
<rscale>  0 0.38624085E+02</rscale>
<asrwt>0</asrwt>
<pdfrwt beam="1">  1       11 0.10000000E+01 0.16672357E+03</pdfrwt>
<pdfrwt beam="2">  1        2 0.23461153E-01 0.38624085E+02</pdfrwt>
<totfact> 0.26896086E+02</totfact>
</mgrwt>
</event>
<event>
 5    1  0.2226716E-003  0.7951083E+02  0.7818608E-02  0.1330445E+00
         11   -1    0    0    0    0  0.00000000000E+00  0.00000000000E+00  0.10000920571E+04  0.10000920571E+04  0.51100000000E-03 0. -1.
          2   -1    0    0  501    0 -0.00000000000E+00 -0.00000000000E+00 -0.24670069587E+02  0.24670069719E+02  0.25500000000E-02 0. -1.
         11    1    1    2    0    0  0.57408583260E+02  0.15346955631E+02  0.31944348983E+03  0.32492371054E+03  0.51100000000E-03 0. -1.
         22    1    1    2    0    0 -0.12787248061E+03  0.24664237873E+01  0.58291708932E+03  0.59678286467E+03  0.00000000000E+00 0. -1.
          2    1    1    2  501    0  0.70463897354E+02 -0.17813379418E+02  0.73061408345E+02  0.10305555158E+03  0.25500000000E-02 0. -1.
<mgrwt>
<rscale>  0 0.79510826E+02</rscale>
<asrwt>0</asrwt>
<pdfrwt beam="1">  1       11 0.10000000E+01 0.59424528E+02</pdfrwt>
<pdfrwt beam="2">  1        2 0.37957446E-02 0.79510826E+02</pdfrwt>
<totfact> 0.24984182E+03</totfact>
</mgrwt>
</event>
<event>
 5    1  0.2226716E-003  0.6222484E+03  0.7818608E-02  0.9860293E-01
         11   -1    0    0    0    0  0.00000000000E+00  0.00000000000E+00  0.10000856019E+04  0.10000856019E+04  0.51100000000E-03 0. -1.
          2   -1    0    0  501    0 -0.00000000000E+00 -0.00000000000E+00 -0.85875119035E+03  0.85875119035E+03  0.25500000000E-02 0. -1.
         11    1    1    2    0    0  0.62504665224E+03 -0.25656926160E+03  0.12776408106E+03  0.68762981602E+03  0.51100000000E-03 0. -1.
         22    1    1    2    0    0 -0.12061270919E+03 -0.76784059565E+02  0.41933642594E+03  0.44304204714E+03  0.00000000000E+00 0. -1.
          2    1    1    2  501    0 -0.50443394305E+03  0.33335332117E+03 -0.40576609549E+03  0.72816492904E+03  0.25500000000E-02 0. -1.
<mgrwt>
<rscale>  0 0.62224838E+03</rscale>
<asrwt>0</asrwt>
<pdfrwt beam="1">  1       11 0.10000000E+01 0.14297978E+03</pdfrwt>
<pdfrwt beam="2">  1        2 0.13212687E+00 0.62224838E+03</pdfrwt>
<totfact> 0.39132609E+01</totfact>
</mgrwt>
</event>
<event>
 5    1  0.2226716E-003  0.2962376E+03  0.7818608E-02  0.1087137E+00
         11   -1    0    0    0    0  0.00000000000E+00  0.00000000000E+00  0.10002442815E+04  0.10002442815E+04  0.51100000000E-03 0.  1.
          2   -1    0    0  501    0 -0.00000000000E+00 -0.00000000000E+00 -0.10128067760E+03  0.10128067763E+03  0.25500000000E-02 0.  1.
         11    1    1    2    0    0  0.10155542728E+03  0.27398793219E+03  0.49081582796E+03  0.57121192982E+03  0.51100000000E-03 0.  1.
         22    1    1    2    0    0 -0.32522310558E+02  0.18248823869E+02  0.59028606596E+02  0.69821892364E+02  0.00000000000E+00 0.  1.
          2    1    1    2  501    0 -0.69033116720E+02 -0.29223675606E+03  0.34911916932E+03  0.46049113692E+03  0.25500000000E-02 0.  1.
<mgrwt>
<rscale>  0 0.29623757E+03</rscale>
<asrwt>0</asrwt>
<pdfrwt beam="1">  1       11 0.10000000E+01 0.37292362E+02</pdfrwt>
<pdfrwt beam="2">  1        2 0.15585449E-01 0.29623757E+03</pdfrwt>
<totfact> 0.46037866E+02</totfact>
</mgrwt>
</event>
<event>
 5    1  0.2226716E-003  0.3017052E+03  0.7818608E-02  0.1084391E+00
         11   -1    0    0    0    0  0.00000000000E+00  0.00000000000E+00  0.10002967264E+04  0.10002967264E+04  0.51100000000E-03 0. -1.
          2   -1    0    0  501    0 -0.00000000000E+00 -0.00000000000E+00 -0.11041947860E+03  0.11041947863E+03  0.25500000000E-02 0. -1.
         11    1    1    2    0    0 -0.25336972446E+03  0.18931408840E+03  0.45314763184E+03  0.55261090975E+03  0.51100000000E-03 0. -1.
         22    1    1    2    0    0  0.30570052647E+02 -0.13650693992E+01  0.13558783261E+03  0.13899802835E+03  0.00000000000E+00 0. -1.
          2    1    1    2  501    0  0.22279967181E+03 -0.18794901900E+03  0.30114178334E+03  0.41910726692E+03  0.25500000000E-02 0. -1.
<mgrwt>
<rscale>  0 0.30170525E+03</rscale>
<asrwt>0</asrwt>
<pdfrwt beam="1">  1       11 0.10000000E+01 0.30600515E+02</pdfrwt>
<pdfrwt beam="2">  1        2 0.16992652E-01 0.30170525E+03</pdfrwt>
<totfact> 0.41582345E+02</totfact>
</mgrwt>
</event>
<event>
 5    1  0.2226716E-003  0.1400783E+03  0.7818608E-02  0.1213224E+00
         11   -1    0    0    0    0  0.00000000000E+00  0.00000000000E+00  0.10000978908E+04  0.10000978908E+04  0.51100000000E-03 0. -1.
          2   -1    0    0  501    0 -0.00000000000E+00 -0.00000000000E+00 -0.19216110763E+03  0.19216110765E+03  0.25500000000E-02 0. -1.
         11    1    1    2    0    0 -0.17250669262E+03  0.62124927135E+02  0.87300171609E+03  0.89204823965E+03  0.51100000000E-03 0. -1.
         22    1    1    2    0    0  0.40562640904E+02 -0.19208383503E+02  0.84821458960E+02  0.95963377046E+02  0.00000000000E+00 0. -1.
          2    1    1    2  501    0  0.13194405171E+03 -0.42916543631E+02 -0.14988639185E+03  0.20424738179E+03  0.25500000000E-02 0. -1.
<mgrwt>
<rscale>  0 0.14007833E+03</rscale>
<asrwt>0</asrwt>
<pdfrwt beam="1">  1       11 0.10000000E+01 0.44880840E+02</pdfrwt>
<pdfrwt beam="2">  1        2 0.29566140E-01 0.14007833E+03</pdfrwt>
<totfact> 0.21812945E+02</totfact>
</mgrwt>
</event>
<event>
 5    1  0.2226716E-003  0.4132546E+03  0.7818608E-02  0.1039284E+00
         11   -1    0    0    0    0  0.00000000000E+00  0.00000000000E+00  0.99996158745E+03  0.99996158745E+03  0.51100000000E-03 0.  1.
          2   -1    0    0  501    0 -0.00000000000E+00 -0.00000000000E+00 -0.89128842420E+03  0.89128842420E+03  0.25500000000E-02 0.  1.
         11    1    1    2    0    0 -0.28211307819E+03 -0.13401458816E+03  0.57958402968E+02  0.31765842536E+03  0.51100000000E-03 0.  1.
         22    1    1    2    0    0 -0.18324067037E+03  0.19450559787E+03  0.71326999502E+03  0.76168474888E+03  0.00000000000E+00 0.  1.
          2    1    1    2  501    0  0.46535374856E+03 -0.60491009713E+02 -0.66255523473E+03  0.81190683741E+03  0.25500000000E-02 0.  1.
<mgrwt>
<rscale>  0 0.41325460E+03</rscale>
<asrwt>0</asrwt>
<pdfrwt beam="1">  1       11 0.10000000E+01 0.26722569E+03</pdfrwt>
<pdfrwt beam="2">  1        2 0.13711602E+00 0.41325460E+03</pdfrwt>
<totfact> 0.37819084E+01</totfact>
</mgrwt>
</event>
<event>
 5    1  0.2226716E-003  0.3128914E+03  0.7818608E-02  0.1078968E+00
         11   -1    0    0    0    0  0.00000000000E+00  0.00000000000E+00  0.10006533340E+04  0.10006533340E+04  0.51100000000E-03 0. -1.
          2   -1    0    0  501    0 -0.00000000000E+00 -0.00000000000E+00 -0.67295399654E+03  0.67295399654E+03  0.25500000000E-02 0. -1.
         11    1    1    2    0    0  0.28981029811E+03 -0.32728440125E+02  0.76173571497E+03  0.81566075004E+03  0.51100000000E-03 0. -1.
         22    1    1    2    0    0  0.17600856427E+02 -0.31158467179E+02  0.17185080890E+03  0.17553729161E+03  0.00000000000E+00 0.  1.
          2    1    1    2  501    0 -0.30741115453E+03  0.63886907304E+02 -0.60588718643E+03  0.68240928888E+03  0.25500000000E-02 0. -1.
<mgrwt>
<rscale>  0 0.31289139E+03</rscale>
<asrwt>0</asrwt>
<pdfrwt beam="1">  1       11 0.10000000E+01 0.35786034E+02</pdfrwt>
<pdfrwt beam="2">  1        2 0.10359902E+00 0.31289139E+03</pdfrwt>
<totfact> 0.54655322E+01</totfact>
</mgrwt>
</event>
<event>
 5    1  0.2226716E-003  0.2041667E+03  0.7818608E-02  0.1146270E+00
         11   -1    0    0    0    0  0.00000000000E+00  0.00000000000E+00  0.10005033141E+04  0.10005033141E+04  0.51100000000E-03 0.  1.
          2   -1    0    0  501    0 -0.00000000000E+00 -0.00000000000E+00 -0.58784702241E+03  0.58784702242E+03  0.25500000000E-02 0. -1.
         11    1    1    2    0    0 -0.28265923592E+02 -0.23714137735E+03  0.77778418233E+03  0.81362351832E+03  0.51100000000E-03 0.  1.
         22    1    1    2    0    0  0.10063616233E+02  0.34581247488E+02  0.18486260426E+03  0.18833831661E+03  0.00000000000E+00 0.  1.
          2    1    1    2  501    0  0.18202307359E+02  0.20256012986E+03 -0.54999049495E+03  0.58638850154E+03  0.25500000000E-02 0. -1.
<mgrwt>
<rscale>  0 0.20416666E+03</rscale>
<asrwt>0</asrwt>
<pdfrwt beam="1">  1       11 0.10000000E+01 0.36015817E+02</pdfrwt>
<pdfrwt beam="2">  1        2 0.90483520E-01 0.20416666E+03</pdfrwt>
<totfact> 0.64815251E+01</totfact>
</mgrwt>
</event>
<event>
 5    1  0.2226716E-003  0.1438426E+03  0.7818608E-02  0.1336644E+00
         11   -1    0    0    0    0  0.00000000000E+00  0.00000000000E+00  0.99996119836E+03  0.99996119836E+03  0.51100000000E-03 0. -1.
          2   -1    0    0  501    0 -0.00000000000E+00 -0.00000000000E+00 -0.16085348689E+04  0.16085348689E+04  0.25500000000E-02 0. -1.
         11    1    1    2    0    0  0.93550333331E+02 -0.45673726897E+01  0.12363801663E+03  0.15510926767E+03  0.51100000000E-03 0. -1.
         22    1    1    2    0    0 -0.17046379287E+03  0.13086113349E+02  0.85114224077E+03  0.86814299805E+03  0.00000000000E+00 0. -1.
          2    1    1    2  501    0  0.76913459539E+02 -0.85187406589E+01 -0.15833539279E+04  0.15852438015E+04  0.25500000000E-02 0. -1.
<mgrwt>
<rscale>  0 0.77383779E+02</rscale>
<asrwt>0</asrwt>
<pdfrwt beam="1">  1       11 0.10000000E+01 0.14384257E+03</pdfrwt>
<pdfrwt beam="2">  1        2 0.24745729E+00 0.77383779E+02</pdfrwt>
<totfact> 0.16637164E+01</totfact>
</mgrwt>
</event>
<event>
 5    1  0.2226716E-003  0.2645396E+03  0.7818608E-02  0.1104446E+00
         11   -1    0    0    0    0  0.00000000000E+00  0.00000000000E+00  0.99999310251E+03  0.99999310251E+03  0.51100000000E-03 0.  1.
          2   -1    0    0  501    0 -0.00000000000E+00 -0.00000000000E+00 -0.20656325965E+03  0.20656325966E+03  0.25500000000E-02 0.  1.
         11    1    1    2    0    0 -0.18309350769E+03  0.18562887126E+03  0.72876170647E+03  0.77399931216E+03  0.51100000000E-03 0.  1.
         22    1    1    2    0    0 -0.26581692156E+02 -0.23097569921E+02  0.14984406882E+03  0.15392637544E+03  0.00000000000E+00 0.  1.
          2    1    1    2  501    0  0.20967519985E+03 -0.16253130134E+03 -0.85175932424E+02  0.27863067458E+03  0.25500000000E-02 0.  1.
<mgrwt>
<rscale>  0 0.26453965E+03</rscale>
<asrwt>0</asrwt>
<pdfrwt beam="1">  1       11 0.10000000E+01 0.35214828E+02</pdfrwt>
<pdfrwt beam="2">  1        2 0.31778743E-01 0.26453965E+03</pdfrwt>
<totfact> 0.20366818E+02</totfact>
</mgrwt>
</event>
<event>
 5    1  0.2226716E-003  0.1241612E+04  0.7818608E-02  0.9077193E-01
         11   -1    0    0    0    0  0.00000000000E+00  0.00000000000E+00  0.10007651935E+04  0.10007651935E+04  0.51100000000E-03 0.  1.
          2   -1    0    0  501    0 -0.00000000000E+00 -0.00000000000E+00 -0.15928939807E+04  0.15928939807E+04  0.25500000000E-02 0.  1.
         11    1    1    2    0    0 -0.11998174227E+04 -0.28764556009E+03 -0.22102891543E+03  0.12534574574E+04  0.51100000000E-03 0.  1.
         22    1    1    2    0    0 -0.13434476650E+02 -0.69677959422E+01  0.25981505198E+02  0.30067822593E+02  0.00000000000E+00 0. -1.
          2    1    1    2  501    0  0.12132518994E+04  0.29461335603E+03 -0.39708137694E+03  0.13101338942E+04  0.25500000000E-02 0.  1.
<mgrwt>
<rscale>  0 0.12416125E+04</rscale>
<asrwt>0</asrwt>
<pdfrwt beam="1">  1       11 0.10000000E+01 0.15133914E+02</pdfrwt>
<pdfrwt beam="2">  1        2 0.24524812E+00 0.12416125E+04</pdfrwt>
<totfact> 0.13615604E+01</totfact>
</mgrwt>
</event>
<event>
 5    1  0.2226716E-003  0.8187174E+02  0.7818608E-02  0.1681752E+00
         11   -1    0    0    0    0  0.00000000000E+00  0.00000000000E+00  0.10002631135E+04  0.10002631135E+04  0.51100000000E-03 0. -1.
         -2   -1    0    0    0  501 -0.00000000000E+00 -0.00000000000E+00 -0.11078826315E+02  0.11078826608E+02  0.25500000000E-02 0. -1.
         11    1    1    2    0    0  0.89015944206E+02  0.34890370415E+02  0.52291137733E+03  0.53158017722E+03  0.51100000000E-03 0. -1.
         22    1    1    2    0    0 -0.68668169681E+02 -0.22908160391E+02  0.43271647362E+03  0.43872958400E+03  0.00000000000E+00 0. -1.
         -2    1    1    2    0  501 -0.20347774525E+02 -0.11982210024E+02  0.33556436275E+02  0.41032178923E+02  0.25500000000E-02 0. -1.
<mgrwt>
<rscale>  0 0.23613667E+02</rscale>
<asrwt>0</asrwt>
<pdfrwt beam="1">  1       11 0.10000000E+01 0.81871740E+02</pdfrwt>
<pdfrwt beam="2">  1       -2 0.17048833E-02 0.23613667E+02</pdfrwt>
<totfact> 0.54274662E+03</totfact>
</mgrwt>
</event>
<event>
 5    1  0.2226716E-003  0.6566514E+02  0.7818608E-02  0.1510606E+00
         11   -1    0    0    0    0  0.00000000000E+00  0.00000000000E+00  0.10000806136E+04  0.10000806136E+04  0.51100000000E-03 0. -1.
          2   -1    0    0  501    0 -0.00000000000E+00 -0.00000000000E+00 -0.79327349325E+01  0.79327353424E+01  0.25500000000E-02 0. -1.
         11    1    1    2    0    0  0.40365769154E+02  0.39206623037E+02  0.14973494707E+03  0.15995971050E+03  0.51100000000E-03 0. -1.
         22    1    1    2    0    0 -0.83437133892E+01  0.22474688172E+02  0.12468751477E+03  0.12697127825E+03  0.00000000000E+00 0. -1.
          2    1    1    2  501    0 -0.32022055765E+02 -0.61681311209E+02  0.71772541679E+03  0.72108236015E+03  0.25500000000E-02 0. -1.
<mgrwt>
<rscale>  0 0.39676480E+02</rscale>
<asrwt>0</asrwt>
<pdfrwt beam="1">  1       11 0.10000000E+01 0.65665140E+02</pdfrwt>
<pdfrwt beam="2">  1        2 0.12205191E-02 0.39676480E+02</pdfrwt>
<totfact> 0.10127345E+04</totfact>
</mgrwt>
</event>
<event>
 5    1  0.2226716E-003  0.1240785E+03  0.7818608E-02  0.1236517E+00
         11   -1    0    0    0    0  0.00000000000E+00  0.00000000000E+00  0.10001593540E+04  0.10001593540E+04  0.51100000000E-03 0. -1.
          2   -1    0    0  501    0 -0.00000000000E+00 -0.00000000000E+00 -0.45768589456E+02  0.45768589527E+02  0.25500000000E-02 0. -1.
         11    1    1    2    0    0 -0.83398225043E+02 -0.11412592731E+03  0.77927399522E+03  0.79198986789E+03  0.51100000000E-03 0. -1.
         22    1    1    2    0    0  0.38076432805E+02  0.51980364914E+00  0.10779198441E+03  0.11432058797E+03  0.00000000000E+00 0. -1.
          2    1    1    2  501    0  0.45321792238E+02  0.11360612366E+03  0.67324784881E+02  0.13961748763E+03  0.25500000000E-02 0. -1.
<mgrwt>
<rscale>  0 0.12407845E+03</rscale>
<asrwt>0</asrwt>
<pdfrwt beam="1">  1       11 0.10000000E+01 0.38079981E+02</pdfrwt>
<pdfrwt beam="2">  1        2 0.70424433E-02 0.12407845E+03</pdfrwt>
<totfact> 0.11712819E+03</totfact>
</mgrwt>
</event>
<event>
 5    1  0.2226716E-003  0.1952163E+03  0.7818608E-02  0.1153839E+00
         11   -1    0    0    0    0  0.00000000000E+00  0.00000000000E+00  0.10002470004E+04  0.10002470004E+04  0.51100000000E-03 0. -1.
         -2   -1    0    0    0  501 -0.00000000000E+00 -0.00000000000E+00 -0.14987301852E+03  0.14987301855E+03  0.25500000000E-02 0.  1.
         11    1    1    2    0    0 -0.25698655169E+03 -0.12342042580E+02  0.48674756060E+03  0.55056116964E+03  0.51100000000E-03 0. -1.
         22    1    1    2    0    0  0.73349303858E+02  0.46905067585E+02  0.39984966537E+03  0.40921871981E+03  0.00000000000E+00 0.  1.
         -2    1    1    2    0  501  0.18363724784E+03 -0.34563025005E+02 -0.36223244070E+02  0.19034012953E+03  0.25500000000E-02 0.  1.
<mgrwt>
<rscale>  0 0.19521629E+03</rscale>
<asrwt>0</asrwt>
<pdfrwt beam="1">  1       11 0.10000000E+01 0.87064377E+02</pdfrwt>
<pdfrwt beam="2">  1       -2 0.23063082E-01 0.19521629E+03</pdfrwt>
<totfact> 0.13087778E+02</totfact>
</mgrwt>
</event>
<event>
 5    1  0.2226716E-003  0.1757451E+03  0.7818608E-02  0.1627331E+00
         11   -1    0    0    0    0  0.00000000000E+00  0.00000000000E+00  0.10001085153E+04  0.10001085153E+04  0.51100000000E-03 0. -1.
          2   -1    0    0  501    0 -0.00000000000E+00 -0.00000000000E+00 -0.43130678080E+02  0.43130678156E+02  0.25500000000E-02 0. -1.
         11    1    1    2    0    0 -0.14944606863E+03 -0.85599597149E+02  0.24595907160E+03  0.30026202451E+03  0.51100000000E-03 0. -1.
         22    1    1    2    0    0  0.16606954938E+03  0.63676829365E+02  0.67262804193E+03  0.69574587072E+03  0.00000000000E+00 0. -1.
          2    1    1    2  501    0 -0.16623480756E+02  0.21922767784E+02  0.38390723658E+02  0.47231298195E+02  0.25500000000E-02 0. -1.
<mgrwt>
<rscale>  0 0.27512686E+02</rscale>
<asrwt>0</asrwt>
<pdfrwt beam="1">  1       11 0.10000000E+01 0.17574509E+03</pdfrwt>
<pdfrwt beam="2">  1        2 0.66362088E-02 0.27512686E+02</pdfrwt>
<totfact> 0.11020696E+03</totfact>
</mgrwt>
</event>
<event>
 5    1  0.2226716E-003  0.2312073E+03  0.7818608E-02  0.1125793E+00
         11   -1    0    0    0    0  0.00000000000E+00  0.00000000000E+00  0.10002667773E+04  0.10002667773E+04  0.51100000000E-03 0. -1.
          2   -1    0    0  501    0 -0.00000000000E+00 -0.00000000000E+00 -0.25719206825E+03  0.25719206827E+03  0.25500000000E-02 0. -1.
         11    1    1    2    0    0 -0.23832622835E+03  0.44405744328E+01  0.74703600262E+03  0.78414405502E+03  0.51100000000E-03 0. -1.
         22    1    1    2    0    0  0.16682251891E+02 -0.71165675225E+02  0.16915276879E+03  0.18427020933E+03  0.00000000000E+00 0. -1.
          2    1    1    2  501    0  0.22164397646E+03  0.66725100792E+02 -0.17311406232E+03  0.28904458126E+03  0.25500000000E-02 0. -1.
<mgrwt>
<rscale>  0 0.23120729E+03</rscale>
<asrwt>0</asrwt>
<pdfrwt beam="1">  1       11 0.10000000E+01 0.73094807E+02</pdfrwt>
<pdfrwt beam="2">  1        2 0.39578565E-01 0.23120729E+03</pdfrwt>
<totfact> 0.16012790E+02</totfact>
</mgrwt>
</event>
<event>
 5    1  0.2226716E-003  0.1811363E+03  0.7818608E-02  0.1166708E+00
         11   -1    0    0    0    0  0.00000000000E+00  0.00000000000E+00  0.99994375622E+03  0.99994375622E+03  0.51100000000E-03 0. -1.
         -2   -1    0    0    0  501 -0.00000000000E+00 -0.00000000000E+00 -0.68941457594E+02  0.68941457641E+02  0.25500000000E-02 0. -1.
         11    1    1    2    0    0  0.14296874869E+03  0.71678253111E+02  0.68231772537E+03  0.70081046898E+03  0.51100000000E-03 0. -1.
         22    1    1    2    0    0 -0.17532361581E+01  0.50780816486E+02  0.14647468537E+03  0.15503741037E+03  0.00000000000E+00 0. -1.
         -2    1    1    2    0  501 -0.14121551254E+03 -0.12245906960E+03  0.10220988788E+03  0.21303733451E+03  0.25500000000E-02 0. -1.
<mgrwt>
<rscale>  0 0.18113631E+03</rscale>
<asrwt>0</asrwt>
<pdfrwt beam="1">  1       11 0.10000000E+01 0.50811073E+02</pdfrwt>
<pdfrwt beam="2">  1       -2 0.10605781E-01 0.18113631E+03</pdfrwt>
<totfact> 0.47286895E+02</totfact>
</mgrwt>
</event>
<event>
 5    1  0.2226716E-003  0.5563251E+03  0.7818608E-02  0.1000040E+00
         11   -1    0    0    0    0  0.00000000000E+00  0.00000000000E+00  0.99983036230E+03  0.99983036230E+03  0.51100000000E-03 0. -1.
          2   -1    0    0  501    0 -0.00000000000E+00 -0.00000000000E+00 -0.32049080265E+03  0.32049080266E+03  0.25500000000E-02 0. -1.
         11    1    1    2    0    0 -0.53189854442E+03 -0.15550238342E+03  0.27652898041E+03  0.61932651309E+03  0.51100000000E-03 0. -1.
         22    1    1    2    0    0 -0.18171966830E+01 -0.10435216408E+02  0.22764033862E+02  0.25107711623E+02  0.00000000000E+00 0. -1.
          2    1    1    2  501    0  0.53371574110E+03  0.16593759983E+03  0.38004654537E+03  0.67588694025E+03  0.25500000000E-02 0. -1.
<mgrwt>
<rscale>  0 0.55632508E+03</rscale>
<asrwt>0</asrwt>
<pdfrwt beam="1">  1       11 0.10000000E+01 0.10592259E+02</pdfrwt>
<pdfrwt beam="2">  1        2 0.49297912E-01 0.55632508E+03</pdfrwt>
<totfact> 0.12618870E+02</totfact>
</mgrwt>
</event>
<event>
 5    1  0.2226716E-003  0.2944529E+03  0.7818608E-02  0.1156045E+00
         11   -1    0    0    0    0  0.00000000000E+00  0.00000000000E+00  0.10002365163E+04  0.10002365163E+04  0.51100000000E-03 0. -1.
          2   -1    0    0  501    0 -0.00000000000E+00 -0.00000000000E+00 -0.26149154394E+03  0.26149154395E+03  0.25500000000E-02 0. -1.
         11    1    1    2    0    0 -0.32997628161E+03 -0.81011210893E+02  0.75593075333E+03  0.82878131407E+03  0.51100000000E-03 0. -1.
         22    1    1    2    0    0  0.15210282911E+03  0.15514367941E+03  0.59938514409E+02  0.22538291282E+03  0.00000000000E+00 0.  1.
          2    1    1    2  501    0  0.17787345250E+03 -0.74132468512E+02 -0.77124295352E+02  0.20756383339E+03  0.25500000000E-02 0. -1.
<mgrwt>
<rscale>  0 0.19270337E+03</rscale>
<asrwt>0</asrwt>
<pdfrwt beam="1">  1       11 0.10000000E+01 0.29445293E+03</pdfrwt>
<pdfrwt beam="2">  1        2 0.40238982E-01 0.19270337E+03</pdfrwt>
<totfact> 0.15709386E+02</totfact>
</mgrwt>
</event>
<event>
 5    1  0.2226716E-003  0.3299184E+03  0.7818608E-02  0.1071173E+00
         11   -1    0    0    0    0  0.00000000000E+00  0.00000000000E+00  0.10004463043E+04  0.10004463043E+04  0.51100000000E-03 0. -1.
          2   -1    0    0  501    0 -0.00000000000E+00 -0.00000000000E+00 -0.11316179318E+03  0.11316179321E+03  0.25500000000E-02 0. -1.
         11    1    1    2    0    0 -0.29751621780E+03  0.13244396846E+03  0.31526365354E+03  0.45326424509E+03  0.51100000000E-03 0. -1.
         22    1    1    2    0    0  0.18017317008E+02  0.41223989968E+01  0.25538105164E+02  0.31524795020E+02  0.00000000000E+00 0.  1.
          2    1    1    2  501    0  0.27949890079E+03 -0.13656636746E+03  0.54648275242E+03  0.62881905741E+03  0.25500000000E-02 0. -1.
<mgrwt>
<rscale>  0 0.32991839E+03</rscale>
<asrwt>0</asrwt>
<pdfrwt beam="1">  1       11 0.10000000E+01 0.32566457E+03</pdfrwt>
<pdfrwt beam="2">  1        2 0.17417276E-01 0.32991839E+03</pdfrwt>
<totfact> 0.40497646E+02</totfact>
</mgrwt>
</event>
<event>
 5    1  0.2226716E-003  0.1491275E+03  0.7818608E-02  0.1201549E+00
         11   -1    0    0    0    0  0.00000000000E+00  0.00000000000E+00  0.10000442558E+04  0.10000442558E+04  0.51100000000E-03 0. -1.
          2   -1    0    0  501    0 -0.00000000000E+00 -0.00000000000E+00 -0.26018890804E+03  0.26018890805E+03  0.25500000000E-02 0. -1.
         11    1    1    2    0    0  0.10666175694E+03 -0.98544807742E+02  0.36823482860E+03  0.39583418058E+03  0.51100000000E-03 0. -1.
         22    1    1    2    0    0 -0.16788794515E+03 -0.39344341486E+02  0.58115633056E+03  0.60619882867E+03  0.00000000000E+00 0. -1.
          2    1    1    2  501    0  0.61226188210E+02  0.13788914923E+03 -0.20953581137E+03  0.25820015463E+03  0.25500000000E-02 0. -1.
<mgrwt>
<rscale>  0 0.14912749E+03</rscale>
<asrwt>0</asrwt>
<pdfrwt beam="1">  1       11 0.10000000E+01 0.14521642E+03</pdfrwt>
<pdfrwt beam="2">  1        2 0.40030833E-01 0.14912749E+03</pdfrwt>
<totfact> 0.15763155E+02</totfact>
</mgrwt>
</event>
<event>
 5    1  0.2226716E-003  0.1234176E+03  0.7818608E-02  0.1237563E+00
         11   -1    0    0    0    0  0.00000000000E+00  0.00000000000E+00  0.99993978505E+03  0.99993978505E+03  0.51100000000E-03 0. -1.
          2   -1    0    0  501    0 -0.00000000000E+00 -0.00000000000E+00 -0.43900023221E+02  0.43900023295E+02  0.25500000000E-02 0. -1.
         11    1    1    2    0    0  0.75111998343E+02  0.93633779169E+02  0.74933174492E+02  0.14150645758E+03  0.51100000000E-03 0. -1.
         22    1    1    2    0    0  0.36006720219E+02  0.70235240045E+01  0.90804506411E+02  0.97935040587E+02  0.00000000000E+00 0.  1.
          2    1    1    2  501    0 -0.11111871856E+03 -0.10065730317E+03  0.79030208093E+03  0.80439831018E+03  0.25500000000E-02 0. -1.
<mgrwt>
<rscale>  0 0.12341762E+03</rscale>
<asrwt>0</asrwt>
<pdfrwt beam="1">  1       11 0.10000000E+01 0.36685335E+02</pdfrwt>
<pdfrwt beam="2">  1        2 0.67534429E-02 0.12341762E+03</pdfrwt>
<totfact> 0.12347799E+03</totfact>
</mgrwt>
</event>
<event>
 5    1  0.2226716E-003  0.1273609E+03  0.7818608E-02  0.1433609E+00
         11   -1    0    0    0    0  0.00000000000E+00  0.00000000000E+00  0.10000643806E+04  0.10000643806E+04  0.51100000000E-03 0.  1.
          2   -1    0    0  501    0 -0.00000000000E+00 -0.00000000000E+00 -0.41204544095E+02  0.41204544174E+02  0.25500000000E-02 0.  1.
         11    1    1    2    0    0 -0.67464986802E+02  0.10270196822E+03  0.92470466458E+02  0.15378558413E+03  0.51100000000E-03 0.  1.
         22    1    1    2    0    0  0.10955464588E+03 -0.71754721767E+02  0.47873803322E+03  0.49632757830E+03  0.00000000000E+00 0.  1.
          2    1    1    2  501    0 -0.42089659074E+02 -0.30947246450E+02  0.38765133682E+03  0.39115576234E+03  0.25500000000E-02 0.  1.
<mgrwt>
<rscale>  0 0.52242430E+02</rscale>
<asrwt>0</asrwt>
<pdfrwt beam="1">  1       11 0.10000000E+01 0.12736090E+03</pdfrwt>
<pdfrwt beam="2">  1        2 0.63395686E-02 0.52242430E+02</pdfrwt>
<totfact> 0.12449783E+03</totfact>
</mgrwt>
</event>
<event>
 5    1  0.2226716E-003  0.1287792E+03  0.7818608E-02  0.1229278E+00
         11   -1    0    0    0    0  0.00000000000E+00  0.00000000000E+00  0.99991898140E+03  0.99991898140E+03  0.51100000000E-03 0. -1.
          2   -1    0    0  501    0 -0.00000000000E+00 -0.00000000000E+00 -0.37776931278E+02  0.37776931364E+02  0.25500000000E-02 0.  1.
         11    1    1    2    0    0 -0.62740498271E+02  0.11284840858E+03  0.58524089744E+03  0.59931464314E+03  0.51100000000E-03 0. -1.
         22    1    1    2    0    0  0.72358971320E+02  0.20570218150E+02  0.21832627635E+03  0.23092275234E+03  0.00000000000E+00 0. -1.
          2    1    1    2  501    0 -0.96184730489E+01 -0.13341862673E+03  0.15857487633E+03  0.20745851728E+03  0.25500000000E-02 0.  1.
<mgrwt>
<rscale>  0 0.12877921E+03</rscale>
<asrwt>0</asrwt>
<pdfrwt beam="1">  1       11 0.10000000E+01 0.75226023E+02</pdfrwt>
<pdfrwt beam="2">  1        2 0.58113646E-02 0.12877921E+03</pdfrwt>
<totfact> 0.15014800E+03</totfact>
</mgrwt>
</event>
<event>
 5    1  0.2226716E-003  0.1404214E+03  0.7818608E-02  0.1335557E+00
         11   -1    0    0    0    0  0.00000000000E+00  0.00000000000E+00  0.10001899678E+04  0.10001899678E+04  0.51100000000E-03 0.  1.
          2   -1    0    0  501    0 -0.00000000000E+00 -0.00000000000E+00 -0.34500734693E+02  0.34500734787E+02  0.25500000000E-02 0.  1.
         11    1    1    2    0    0 -0.39868097979E+02 -0.14359679811E+03  0.73181605560E+03  0.74683615666E+03  0.51100000000E-03 0.  1.
         22    1    1    2    0    0  0.33095668080E+02  0.27532898201E+02  0.10922260862E+03  0.11740086014E+03  0.00000000000E+00 0.  1.
          2    1    1    2  501    0  0.67724298989E+01  0.11606389991E+03  0.12465056892E+03  0.17045368581E+03  0.25500000000E-02 0.  1.
<mgrwt>
<rscale>  0 0.77751369E+02</rscale>
<asrwt>0</asrwt>
<pdfrwt beam="1">  1       11 0.10000000E+01 0.14042144E+03</pdfrwt>
<pdfrwt beam="2">  1        2 0.53088135E-02 0.77751369E+02</pdfrwt>
<totfact> 0.16157876E+03</totfact>
</mgrwt>
</event>
<event>
 5    1  0.2226716E-003  0.2110804E+03  0.7818608E-02  0.1144588E+00
         11   -1    0    0    0    0  0.00000000000E+00  0.00000000000E+00  0.10002571089E+04  0.10002571089E+04  0.51100000000E-03 0.  1.
          2   -1    0    0  501    0 -0.00000000000E+00 -0.00000000000E+00 -0.47515554525E+02  0.47515554594E+02  0.25500000000E-02 0.  1.
         11    1    1    2    0    0 -0.16797789424E+01  0.19933268958E+03  0.58664688346E+03  0.61958930645E+03  0.51100000000E-03 0.  1.
         22    1    1    2    0    0 -0.89469017305E+01  0.66212499821E+01  0.46603926248E+02  0.47914652703E+02  0.00000000000E+00 0. -1.
          2    1    1    2  501    0  0.10626680673E+02 -0.20595393956E+03  0.31949074463E+03  0.38026870431E+03  0.25500000000E-02 0.  1.
<mgrwt>
<rscale>  0 0.20622791E+03</rscale>
<asrwt>0</asrwt>
<pdfrwt beam="1">  1       11 0.10000000E+01 0.21108043E+03</pdfrwt>
<pdfrwt beam="2">  1        2 0.73119646E-02 0.20622791E+03</pdfrwt>
<totfact> 0.11545958E+03</totfact>
</mgrwt>
</event>
<event>
 5    1  0.2226716E-003  0.3047800E+03  0.7818608E-02  0.1083497E+00
         11   -1    0    0    0    0  0.00000000000E+00  0.00000000000E+00  0.10004088309E+04  0.10004088309E+04  0.51100000000E-03 0.  1.
          2   -1    0    0  501    0 -0.00000000000E+00 -0.00000000000E+00 -0.21073094923E+03  0.21073094924E+03  0.25500000000E-02 0.  1.
         11    1    1    2    0    0  0.28695565014E+03  0.28439839970E+02  0.78866030605E+03  0.83972462628E+03  0.51100000000E-03 0.  1.
         22    1    1    2    0    0  0.14671246491E+02  0.53531782362E+01  0.60193254807E+02  0.62186251817E+02  0.00000000000E+00 0.  1.
          2    1    1    2  501    0 -0.30162689663E+03 -0.33793018206E+02 -0.59175679175E+02  0.30922890205E+03  0.25500000000E-02 0.  1.
<mgrwt>
<rscale>  0 0.30351401E+03</rscale>
<asrwt>0</asrwt>
<pdfrwt beam="1">  1       11 0.10000000E+01 0.30478003E+03</pdfrwt>
<pdfrwt beam="2">  1        2 0.32433399E-01 0.30351401E+03</pdfrwt>
<totfact> 0.19948265E+02</totfact>
</mgrwt>
</event>
<event>
 5    1  0.2226716E-003  0.2295293E+03  0.7818608E-02  0.1126971E+00
         11   -1    0    0    0    0  0.00000000000E+00  0.00000000000E+00  0.10000515487E+04  0.10000515487E+04  0.51100000000E-03 0. -1.
          2   -1    0    0  501    0 -0.00000000000E+00 -0.00000000000E+00 -0.84361432858E+03  0.84361432859E+03  0.25500000000E-02 0. -1.
         11    1    1    2    0    0 -0.16884508835E+03  0.16907627781E+03  0.57206417283E+03  0.61996199029E+03  0.51100000000E-03 0. -1.
         22    1    1    2    0    0  0.63439443440E+02  0.34865044397E+02  0.38452032785E+03  0.39127486098E+03  0.00000000000E+00 0. -1.
          2    1    1    2  501    0  0.10540564491E+03 -0.20394132221E+03 -0.80014728052E+03  0.83242902605E+03  0.25500000000E-02 0. -1.
<mgrwt>
<rscale>  0 0.22952935E+03</rscale>
<asrwt>0</asrwt>
<pdfrwt beam="1">  1       11 0.10000000E+01 0.72388772E+02</pdfrwt>
<pdfrwt beam="2">  1        2 0.12979351E+00 0.22952935E+03</pdfrwt>
<totfact> 0.41647602E+01</totfact>
</mgrwt>
</event>
<event>
 5    1  0.2226716E-003  0.1217875E+03  0.7818608E-02  0.1418142E+00
         11   -1    0    0    0    0  0.00000000000E+00  0.00000000000E+00  0.10003420702E+04  0.10003420702E+04  0.51100000000E-03 0. -1.
          2   -1    0    0  501    0 -0.00000000000E+00 -0.00000000000E+00 -0.33811458257E+03  0.33811458258E+03  0.25500000000E-02 0.  1.
         11    1    1    2    0    0  0.55214674314E+02 -0.10993437667E+03  0.71182495636E+03  0.72237732241E+03  0.51100000000E-03 0. -1.
         22    1    1    2    0    0 -0.26444992405E+01  0.12746449437E+03  0.26635966933E+03  0.29529927894E+03  0.00000000000E+00 0. -1.
          2    1    1    2  501    0 -0.52570175074E+02 -0.17530117701E+02 -0.31595713803E+03  0.32078005146E+03  0.25500000000E-02 0.  1.
<mgrwt>
<rscale>  0 0.55415957E+02</rscale>
<asrwt>0</asrwt>
<pdfrwt beam="1">  1       11 0.10000000E+01 0.12178750E+03</pdfrwt>
<pdfrwt beam="2">  1        2 0.52035420E-01 0.55415957E+02</pdfrwt>
<totfact> 0.11896195E+02</totfact>
</mgrwt>
</event>
<event>
 5    1  0.2226716E-003  0.1645570E+03  0.7818608E-02  0.1232025E+00
         11   -1    0    0    0    0  0.00000000000E+00  0.00000000000E+00  0.10001191979E+04  0.10001191979E+04  0.51100000000E-03 0.  1.
          2   -1    0    0  501    0 -0.00000000000E+00 -0.00000000000E+00 -0.64660068866E+02  0.64660068916E+02  0.25500000000E-02 0.  1.
         11    1    1    2    0    0  0.45459806311E+02 -0.13253407301E+03  0.13421999170E+03  0.19402804094E+03  0.51100000000E-03 0.  1.
         22    1    1    2    0    0 -0.88359021690E+02 -0.42307573759E+02  0.77375714871E+02  0.12483688863E+03  0.00000000000E+00 0. -1.
          2    1    1    2  501    0  0.42899215379E+02  0.17484164677E+03  0.72386342250E+03  0.74591433728E+03  0.25500000000E-02 0.  1.
<mgrwt>
<rscale>  0 0.12696812E+03</rscale>
<asrwt>0</asrwt>
<pdfrwt beam="1">  1       11 0.10000000E+01 0.16455695E+03</pdfrwt>
<pdfrwt beam="2">  1        2 0.99488884E-02 0.12696812E+03</pdfrwt>
<totfact> 0.76255266E+02</totfact>
</mgrwt>
</event>
<event>
 5    1  0.2226716E-003  0.3591235E+03  0.7818608E-02  0.1058931E+00
         11   -1    0    0    0    0  0.00000000000E+00  0.00000000000E+00  0.10004184497E+04  0.10004184497E+04  0.51100000000E-03 0. -1.
          2   -1    0    0  501    0 -0.00000000000E+00 -0.00000000000E+00 -0.78266175244E+03  0.78266175245E+03  0.25500000000E-02 0. -1.
         11    1    1    2    0    0 -0.48570845904E+02  0.34677004119E+03  0.84174891900E+03  0.91167419135E+03  0.51100000000E-03 0. -1.
         22    1    1    2    0    0 -0.12491856584E+02  0.75815371327E+01  0.79774331305E+02  0.81101603692E+02  0.00000000000E+00 0. -1.
          2    1    1    2  501    0  0.61062702487E+02 -0.35435157832E+03 -0.70376655305E+03  0.79030440711E+03  0.25500000000E-02 0. -1.
<mgrwt>
<rscale>  0 0.35912353E+03</rscale>
<asrwt>0</asrwt>
<pdfrwt beam="1">  1       11 0.10000000E+01 0.14612535E+02</pdfrwt>
<pdfrwt beam="2">  1        2 0.12045988E+00 0.35912353E+03</pdfrwt>
<totfact> 0.45104962E+01</totfact>
</mgrwt>
</event>
<event>
 5    1  0.2226716E-003  0.1756416E+03  0.7818608E-02  0.1172089E+00
         11   -1    0    0    0    0  0.00000000000E+00  0.00000000000E+00  0.10003369629E+04  0.10003369629E+04  0.51100000000E-03 0. -1.
          2   -1    0    0  501    0 -0.00000000000E+00 -0.00000000000E+00 -0.68148555990E+02  0.68148556038E+02  0.25500000000E-02 0. -1.
         11    1    1    2    0    0  0.13738041170E+03  0.11447353828E+03  0.74780211651E+03  0.76888593039E+03  0.51100000000E-03 0. -1.
         22    1    1    2    0    0 -0.14708961275E+02  0.10629214571E+02  0.10619215992E+03  0.10773165074E+03  0.00000000000E+00 0. -1.
          2    1    1    2  501    0 -0.12267145042E+03 -0.12510275286E+03  0.78194130525E+02  0.19186793785E+03  0.25500000000E-02 0. -1.
<mgrwt>
<rscale>  0 0.17564163E+03</rscale>
<asrwt>0</asrwt>
<pdfrwt beam="1">  1       11 0.10000000E+01 0.18147555E+02</pdfrwt>
<pdfrwt beam="2">  1        2 0.10487926E-01 0.17564163E+03</pdfrwt>
<totfact> 0.72747283E+02</totfact>
</mgrwt>
</event>
<event>
 5    1  0.2226716E-003  0.2495101E+03  0.7818608E-02  0.1113615E+00
         11   -1    0    0    0    0  0.00000000000E+00  0.00000000000E+00  0.10007083560E+04  0.10007083560E+04  0.51100000000E-03 0. -1.
          2   -1    0    0  501    0 -0.00000000000E+00 -0.00000000000E+00 -0.28969137718E+03  0.28969137719E+03  0.25500000000E-02 0. -1.
         11    1    1    2    0    0  0.30282493410E+03 -0.30090699423E+01  0.75701475451E+03  0.81534246410E+03  0.51100000000E-03 0. -1.
         22    1    1    2    0    0 -0.75151834228E+02 -0.92294307294E+02  0.12668980821E+03  0.17382849264E+03  0.00000000000E+00 0. -1.
          2    1    1    2  501    0 -0.22767309987E+03  0.95303377237E+02 -0.17268758391E+03  0.30122877645E+03  0.25500000000E-02 0. -1.
<mgrwt>
<rscale>  0 0.24951015E+03</rscale>
<asrwt>0</asrwt>
<pdfrwt beam="1">  1       11 0.10000000E+01 0.11902116E+03</pdfrwt>
<pdfrwt beam="2">  1        2 0.44599473E-01 0.24951015E+03</pdfrwt>
<totfact> 0.14080605E+02</totfact>
</mgrwt>
</event>
<event>
 5    1  0.2226716E-003  0.1275673E+03  0.7818608E-02  0.1308271E+00
         11   -1    0    0    0    0  0.00000000000E+00  0.00000000000E+00  0.99966283634E+03  0.99966283634E+03  0.51100000000E-03 0. -1.
          2   -1    0    0  501    0 -0.00000000000E+00 -0.00000000000E+00 -0.16707167818E+04  0.16707167818E+04  0.25500000000E-02 0. -1.
         11    1    1    2    0    0 -0.13637002066E+03 -0.10303147566E+03  0.63724619597E+03  0.65976888513E+03  0.51100000000E-03 0. -1.
         22    1    1    2    0    0  0.49464163299E+02  0.90541031378E+02  0.34238525280E+03  0.35759200655E+03  0.00000000000E+00 0. -1.
          2    1    1    2  501    0  0.86905857359E+02  0.12490444285E+02 -0.16506853943E+04  0.16530187265E+04  0.25500000000E-02 0. -1.
<mgrwt>
<rscale>  0 0.87798857E+02</rscale>
<asrwt>0</asrwt>
<pdfrwt beam="1">  1       11 0.10000000E+01 0.12756731E+03</pdfrwt>
<pdfrwt beam="2">  1        2 0.25694668E+00 0.87798857E+02</pdfrwt>
<totfact> 0.15316032E+01</totfact>
</mgrwt>
</event>
<event>
 5    1  0.2226716E-003  0.1685601E+03  0.7818608E-02  0.1486915E+00
         11   -1    0    0    0    0  0.00000000000E+00  0.00000000000E+00  0.10006816034E+04  0.10006816034E+04  0.51100000000E-03 0.  1.
          2   -1    0    0  501    0 -0.00000000000E+00 -0.00000000000E+00 -0.11850943141E+04  0.11850943141E+04  0.25500000000E-02 0. -1.
         11    1    1    2    0    0 -0.19132949519E+03  0.31781334776E+01  0.36262880398E+03  0.41002039674E+03  0.51100000000E-03 0.  1.
         22    1    1    2    0    0  0.15673491386E+03 -0.28795700506E+02  0.60361377765E+03  0.62429529724E+03  0.00000000000E+00 0.  1.
          2    1    1    2  501    0  0.34594581336E+02  0.25617567028E+02 -0.11506552923E+04  0.11514602235E+04  0.25500000000E-02 0. -1.
<mgrwt>
<rscale>  0 0.43047007E+02</rscale>
<asrwt>0</asrwt>
<pdfrwt beam="1">  1       11 0.10000000E+01 0.16856006E+03</pdfrwt>
<pdfrwt beam="2">  1        2 0.18244647E+00 0.43047007E+02</pdfrwt>
<totfact> 0.28582517E+01</totfact>
</mgrwt>
</event>
<event>
 5    1  0.2226716E-003  0.8480773E+02  0.7818608E-02  0.1637397E+00
         11   -1    0    0    0    0  0.00000000000E+00  0.00000000000E+00  0.10001774486E+04  0.10001774486E+04  0.51100000000E-03 0. -1.
          2   -1    0    0  501    0 -0.00000000000E+00 -0.00000000000E+00 -0.16295097707E+02  0.16295097907E+02  0.25500000000E-02 0. -1.
         11    1    1    2    0    0 -0.64497764864E+02 -0.22381690557E+02  0.10742121316E+03  0.12728008007E+03  0.51100000000E-03 0. -1.
         22    1    1    2    0    0  0.88444443706E+02  0.34246283386E+02  0.36786169216E+03  0.37989136883E+03  0.00000000000E+00 0. -1.
          2    1    1    2  501    0 -0.23946678842E+02 -0.11864592829E+02  0.50859944560E+03  0.50930109765E+03  0.25500000000E-02 0. -1.
<mgrwt>
<rscale>  0 0.26724745E+02</rscale>
<asrwt>0</asrwt>
<pdfrwt beam="1">  1       11 0.10000000E+01 0.84807728E+02</pdfrwt>
<pdfrwt beam="2">  1        2 0.25073829E-02 0.26724745E+02</pdfrwt>
<totfact> 0.36941850E+03</totfact>
</mgrwt>
</event>
<event>
 5    1  0.2226716E-003  0.1905348E+03  0.7818608E-02  0.1157980E+00
         11   -1    0    0    0    0  0.00000000000E+00  0.00000000000E+00  0.10001652363E+04  0.10001652363E+04  0.51100000000E-03 0.  1.
          2   -1    0    0  501    0 -0.00000000000E+00 -0.00000000000E+00 -0.26048221935E+03  0.26048221937E+03  0.25500000000E-02 0. -1.
         11    1    1    2    0    0 -0.45873399808E+02 -0.19693704703E+03  0.81887713777E+03  0.84347396881E+03  0.51100000000E-03 0.  1.
         22    1    1    2    0    0  0.32804435159E+02  0.72587256499E+01  0.13012701437E+03  0.13439441928E+03  0.00000000000E+00 0.  1.
          2    1    1    2  501    0  0.13068964649E+02  0.18967832138E+03 -0.20932113517E+03  0.28277906760E+03  0.25500000000E-02 0. -1.
<mgrwt>
<rscale>  0 0.19053478E+03</rscale>
<asrwt>0</asrwt>
<pdfrwt beam="1">  1       11 0.10000000E+01 0.33597918E+02</pdfrwt>
<pdfrwt beam="2">  1        2 0.40080808E-01 0.19053478E+03</pdfrwt>
<totfact> 0.15774529E+02</totfact>
</mgrwt>
</event>
<event>
 5    1  0.2226716E-003  0.1697043E+03  0.7818608E-02  0.1178157E+00
         11   -1    0    0    0    0  0.00000000000E+00  0.00000000000E+00  0.99985798475E+03  0.99985798475E+03  0.51100000000E-03 0.  1.
          2   -1    0    0  501    0 -0.00000000000E+00 -0.00000000000E+00 -0.67642566250E+02  0.67642566298E+02  0.25500000000E-02 0.  1.
         11    1    1    2    0    0 -0.79066806740E+02  0.15552526924E+03  0.82832283844E+03  0.84649772237E+03  0.51100000000E-03 0.  1.
         22    1    1    2    0    0  0.17414277755E+02  0.19252169666E+01  0.33579684199E+02  0.37875568920E+02  0.00000000000E+00 0. -1.
          2    1    1    2  501    0  0.61652528985E+02 -0.15745048620E+03  0.70312895864E+02  0.18312725976E+03  0.25500000000E-02 0.  1.
<mgrwt>
<rscale>  0 0.16970426E+03</rscale>
<asrwt>0</asrwt>
<pdfrwt beam="1">  1       11 0.10000000E+01 0.17520375E+02</pdfrwt>
<pdfrwt beam="2">  1        2 0.10405070E-01 0.16970426E+03</pdfrwt>
<totfact> 0.73330278E+02</totfact>
</mgrwt>
</event>
<event>
 5    1  0.2226716E-003  0.4072172E+03  0.7818608E-02  0.1041309E+00
         11   -1    0    0    0    0  0.00000000000E+00  0.00000000000E+00  0.99999508855E+03  0.99999508855E+03  0.51100000000E-03 0.  1.
          2   -1    0    0  501    0 -0.00000000000E+00 -0.00000000000E+00 -0.51051374501E+03  0.51051374502E+03  0.25500000000E-02 0.  1.
         11    1    1    2    0    0 -0.11275525013E+03  0.39930449579E+03  0.77594543672E+03  0.87991428421E+03  0.51100000000E-03 0.  1.
         22    1    1    2    0    0  0.17536773665E+02 -0.42082760653E+01  0.80822889091E+02  0.82810551375E+02  0.00000000000E+00 0. -1.
          2    1    1    2  501    0  0.95218476462E+02 -0.39509621972E+03 -0.36728698227E+03  0.54778399799E+03  0.25500000000E-02 0.  1.
<mgrwt>
<rscale>  0 0.40721718E+03</rscale>
<asrwt>0</asrwt>
<pdfrwt beam="1">  1       11 0.10000000E+01 0.18034634E+02</pdfrwt>
<pdfrwt beam="2">  1        2 0.78540188E-01 0.40721718E+03</pdfrwt>
<totfact> 0.75211656E+01</totfact>
</mgrwt>
</event>
<event>
 5    1  0.2226716E-003  0.2968041E+02  0.7818608E-02  0.1700309E+00
         11   -1    0    0    0    0  0.00000000000E+00  0.00000000000E+00  0.10002244746E+04  0.10002244746E+04  0.51100000000E-03 0. -1.
          2   -1    0    0  501    0 -0.00000000000E+00 -0.00000000000E+00 -0.36181937715E+01  0.36181946701E+01  0.25500000000E-02 0. -1.
         11    1    1    2    0    0 -0.37617867446E+02 -0.22361636566E+02  0.18435221404E+03  0.18947529011E+03  0.51100000000E-03 0. -1.
         22    1    1    2    0    0  0.16653638873E+02  0.34428340862E+01  0.91909741209E+02  0.93469766894E+02  0.00000000000E+00 0. -1.
          2    1    1    2  501    0  0.20964228573E+02  0.18918802479E+02  0.72034432558E+03  0.72089761226E+03  0.25500000000E-02 0. -1.
<mgrwt>
<rscale>  0 0.22466387E+02</rscale>
<asrwt>0</asrwt>
<pdfrwt beam="1">  1       11 0.10000000E+01 0.29680414E+02</pdfrwt>
<pdfrwt beam="2">  1        2 0.55677020E-03 0.22466387E+02</pdfrwt>
<totfact> 0.25168858E+04</totfact>
</mgrwt>
</event>
<event>
 5    1  0.2226716E-003  0.1648891E+03  0.7818608E-02  0.1183285E+00
         11   -1    0    0    0    0  0.00000000000E+00  0.00000000000E+00  0.10001716842E+04  0.10001716842E+04  0.51100000000E-03 0. -1.
          2   -1    0    0  501    0 -0.00000000000E+00 -0.00000000000E+00 -0.91022552530E+02  0.91022552565E+02  0.25500000000E-02 0. -1.
         11    1    1    2    0    0  0.14792545401E+02 -0.19147495707E+03  0.75279808167E+03  0.77690825092E+03  0.51100000000E-03 0. -1.
         22    1    1    2    0    0 -0.12323245828E+02  0.29580525086E+02  0.14878425654E+03  0.15219600799E+03  0.00000000000E+00 0.  1.
          2    1    1    2  501    0 -0.24692995729E+01  0.16189443198E+03  0.75667934440E+01  0.16208997784E+03  0.25500000000E-02 0. -1.
<mgrwt>
<rscale>  0 0.16488913E+03</rscale>
<asrwt>0</asrwt>
<pdfrwt beam="1">  1       11 0.10000000E+01 0.32044810E+02</pdfrwt>
<pdfrwt beam="2">  1        2 0.14005873E-01 0.16488913E+03</pdfrwt>
<totfact> 0.51139235E+02</totfact>
</mgrwt>
</event>
<event>
 5    1  0.2226716E-003  0.2242608E+03  0.7818608E-02  0.1130746E+00
         11   -1    0    0    0    0  0.00000000000E+00  0.00000000000E+00  0.10002167619E+04  0.10002167619E+04  0.51100000000E-03 0. -1.
          2   -1    0    0  501    0 -0.00000000000E+00 -0.00000000000E+00 -0.10096400691E+03  0.10096400694E+03  0.25500000000E-02 0. -1.
         11    1    1    2    0    0 -0.19759778412E+02  0.22456454670E+03  0.72586351047E+03  0.76006415539E+03  0.51100000000E-03 0. -1.
         22    1    1    2    0    0 -0.39132138331E+02 -0.77886439252E+01  0.95269646547E+02  0.10328742798E+03  0.00000000000E+00 0. -1.
          2    1    1    2  501    0  0.58891916743E+02 -0.21677590278E+03  0.78119598009E+02  0.23782918551E+03  0.25500000000E-02 0. -1.
<mgrwt>
<rscale>  0 0.22426081E+03</rscale>
<asrwt>0</asrwt>
<pdfrwt beam="1">  1       11 0.10000000E+01 0.39899715E+02</pdfrwt>
<pdfrwt beam="2">  1        2 0.15536291E-01 0.22426081E+03</pdfrwt>
<totfact> 0.45773091E+02</totfact>
</mgrwt>
</event>
<event>
 5    1  0.2226716E-003  0.1079169E+03  0.7818608E-02  0.1264477E+00
         11   -1    0    0    0    0  0.00000000000E+00  0.00000000000E+00  0.10001463273E+04  0.10001463273E+04  0.51100000000E-03 0.  1.
          2   -1    0    0  501    0 -0.00000000000E+00 -0.00000000000E+00 -0.51284642456E+03  0.51284642456E+03  0.25500000000E-02 0.  1.
         11    1    1    2    0    0 -0.77725985172E+02 -0.25948321037E+02  0.36650116401E+03  0.37554992658E+03  0.51100000000E-03 0.  1.
         22    1    1    2    0    0  0.86559103978E+01  0.10921942463E+03  0.61849462656E+03  0.62812372236E+03  0.00000000000E+00 0.  1.
          2    1    1    2  501    0  0.69070074774E+02 -0.83271103593E+02 -0.49769588778E+03  0.50931910297E+03  0.25500000000E-02 0.  1.
<mgrwt>
<rscale>  0 0.10791694E+03</rscale>
<asrwt>0</asrwt>
<pdfrwt beam="1">  1       11 0.10000000E+01 0.81942932E+02</pdfrwt>
<pdfrwt beam="2">  1        2 0.78910993E-01 0.10791694E+03</pdfrwt>
<totfact> 0.76472332E+01</totfact>
</mgrwt>
</event>
<event>
 5    1  0.2226716E-003  0.6578832E+03  0.7818608E-02  0.9792098E-01
         11   -1    0    0    0    0  0.00000000000E+00  0.00000000000E+00  0.10000456556E+04  0.10000456556E+04  0.51100000000E-03 0. -1.
         -2   -1    0    0    0  501 -0.00000000000E+00 -0.00000000000E+00 -0.55728243257E+03  0.55728243258E+03  0.25500000000E-02 0.  1.
         11    1    1    2    0    0  0.53845464770E+03  0.37965021904E+03  0.52649737552E+03  0.84336657681E+03  0.51100000000E-03 0. -1.
         22    1    1    2    0    0  0.85208661340E+01 -0.14670341436E+02  0.41268728731E+02  0.44619861593E+02  0.00000000000E+00 0. -1.
         -2    1    1    2    0  501 -0.54697551383E+03 -0.36497987760E+03 -0.12500288124E+03  0.66934164976E+03  0.25500000000E-02 0.  1.
<mgrwt>
<rscale>  0 0.65788321E+03</rscale>
<asrwt>0</asrwt>
<pdfrwt beam="1">  1       11 0.10000000E+01 0.16965379E+02</pdfrwt>
<pdfrwt beam="2">  1       -2 0.85739671E-01 0.65788321E+03</pdfrwt>
<totfact> 0.96860626E+00</totfact>
</mgrwt>
</event>
<event>
 5    1  0.2226716E-003  0.1709054E+03  0.7818608E-02  0.1176907E+00
         11   -1    0    0    0    0  0.00000000000E+00  0.00000000000E+00  0.99984081710E+03  0.99984081710E+03  0.51100000000E-03 0. -1.
          2   -1    0    0  501    0 -0.00000000000E+00 -0.00000000000E+00 -0.54549074693E+02  0.54549074753E+02  0.25500000000E-02 0. -1.
         11    1    1    2    0    0  0.12515295223E+03  0.11843476175E+03  0.41854486186E+03  0.45262551367E+03  0.51100000000E-03 0. -1.
         22    1    1    2    0    0 -0.47783541394E+02  0.37124398731E+02  0.34526275708E+03  0.35052511926E+03  0.00000000000E+00 0.  1.
          2    1    1    2  501    0 -0.77369410834E+02 -0.15555916048E+03  0.18148412347E+03  0.25123925892E+03  0.25500000000E-02 0. -1.
<mgrwt>
<rscale>  0 0.17090540E+03</rscale>
<asrwt>0</asrwt>
<pdfrwt beam="1">  1       11 0.10000000E+01 0.60510229E+02</pdfrwt>
<pdfrwt beam="2">  1        2 0.83908292E-02 0.17090540E+03</pdfrwt>
<totfact> 0.95863111E+02</totfact>
</mgrwt>
</event>
<event>
 5    1  0.2226716E-003  0.2789474E+03  0.7818608E-02  0.1098502E+00
         11   -1    0    0    0    0  0.00000000000E+00  0.00000000000E+00  0.10002917847E+04  0.10002917847E+04  0.51100000000E-03 0.  1.
          2   -1    0    0  501    0 -0.00000000000E+00 -0.00000000000E+00 -0.20890364288E+03  0.20890364290E+03  0.25500000000E-02 0.  1.
         11    1    1    2    0    0 -0.11459198322E+03 -0.19146915186E+03  0.65261823283E+03  0.68971176338E+03  0.51100000000E-03 0.  1.
         22    1    1    2    0    0 -0.37437071622E+02 -0.37578091620E+02  0.22515648454E+03  0.23132031868E+03  0.00000000000E+00 0.  1.
          2    1    1    2  501    0  0.15202905484E+03  0.22904724348E+03 -0.86386575564E+02  0.28816334553E+03  0.25500000000E-02 0.  1.
<mgrwt>
<rscale>  0 0.27490994E+03</rscale>
<asrwt>0</asrwt>
<pdfrwt beam="1">  1       11 0.10000000E+01 0.27894738E+03</pdfrwt>
<pdfrwt beam="2">  1        2 0.32148399E-01 0.27490994E+03</pdfrwt>
<totfact> 0.20119523E+02</totfact>
</mgrwt>
</event>
<event>
 5    1  0.2226716E-003  0.1749540E+03  0.7818608E-02  0.1176987E+00
         11   -1    0    0    0    0  0.00000000000E+00  0.00000000000E+00  0.10002525883E+04  0.10002525883E+04  0.51100000000E-03 0.  1.
          2   -1    0    0  501    0 -0.00000000000E+00 -0.00000000000E+00 -0.13486827776E+03  0.13486827778E+03  0.25500000000E-02 0.  1.
         11    1    1    2    0    0  0.15160735761E+03 -0.47933134746E+01  0.81577838936E+03  0.82976029507E+03  0.51100000000E-03 0.  1.
         22    1    1    2    0    0  0.18121479372E+02 -0.14559124047E+02  0.11879823057E+03  0.12105112843E+03  0.00000000000E+00 0. -1.
          2    1    1    2  501    0 -0.16972883699E+03  0.19352437522E+02 -0.69192309377E+02  0.18430944259E+03  0.25500000000E-02 0.  1.
<mgrwt>
<rscale>  0 0.17082855E+03</rscale>
<asrwt>0</asrwt>
<pdfrwt beam="1">  1       11 0.10000000E+01 0.17495401E+03</pdfrwt>
<pdfrwt beam="2">  1        2 0.20754206E-01 0.17082855E+03</pdfrwt>
<totfact> 0.32449231E+02</totfact>
</mgrwt>
</event>
<event>
 5    1  0.2226716E-003  0.3920538E+03  0.7818608E-02  0.1046566E+00
         11   -1    0    0    0    0  0.00000000000E+00  0.00000000000E+00  0.10005442038E+04  0.10005442038E+04  0.51100000000E-03 0. -1.
          2   -1    0    0  501    0 -0.00000000000E+00 -0.00000000000E+00 -0.30353035905E+03  0.30353035906E+03  0.25500000000E-02 0. -1.
         11    1    1    2    0    0 -0.29396005836E+03 -0.22822424991E+03  0.65898372353E+03  0.75680801531E+03  0.51100000000E-03 0. -1.
         22    1    1    2    0    0 -0.13496106933E+02 -0.22030791828E+02  0.13639074364E+03  0.13881619373E+03  0.00000000000E+00 0. -1.
          2    1    1    2  501    0  0.30745616529E+03  0.25025504174E+03 -0.98360622416E+02  0.40845035383E+03  0.25500000000E-02 0. -1.
<mgrwt>
<rscale>  0 0.39205382E+03</rscale>
<asrwt>0</asrwt>
<pdfrwt beam="1">  1       11 0.10000000E+01 0.25836035E+02</pdfrwt>
<pdfrwt beam="2">  1        2 0.46722390E-01 0.39205382E+03</pdfrwt>
<totfact> 0.13393909E+02</totfact>
</mgrwt>
</event>
<event>
 5    1  0.2226716E-003  0.1062929E+03  0.7818608E-02  0.1527149E+00
         11   -1    0    0    0    0  0.00000000000E+00  0.00000000000E+00  0.99996907955E+03  0.99996907955E+03  0.51100000000E-03 0. -1.
          2   -1    0    0  501    0 -0.00000000000E+00 -0.00000000000E+00 -0.47299150940E+03  0.47299150941E+03  0.25500000000E-02 0.  1.
         11    1    1    2    0    0  0.32961423359E+02 -0.11753107065E+03  0.65584011992E+03  0.66710289379E+03  0.51100000000E-03 0. -1.
         22    1    1    2    0    0 -0.40507269908E+02  0.80758937347E+02  0.33169156534E+03  0.34377629266E+03  0.00000000000E+00 0.  1.
          2    1    1    2  501    0  0.75458465488E+01  0.36772133308E+02 -0.46055411512E+03  0.46208140251E+03  0.25500000000E-02 0.  1.
<mgrwt>
<rscale>  0 0.37538375E+02</rscale>
<asrwt>0</asrwt>
<pdfrwt beam="1">  1       11 0.10000000E+01 0.10629291E+03</pdfrwt>
<pdfrwt beam="2">  1        2 0.72765672E-01 0.37538375E+02</pdfrwt>
<totfact> 0.84388872E+01</totfact>
</mgrwt>
</event>
<event>
 5    1  0.2226716E-003  0.7007410E+02  0.7818608E-02  0.1363343E+00
         11   -1    0    0    0    0  0.00000000000E+00  0.00000000000E+00  0.10001618473E+04  0.10001618473E+04  0.51100000000E-03 0. -1.
          2   -1    0    0  501    0 -0.00000000000E+00 -0.00000000000E+00 -0.57978671786E+01  0.57978677393E+01  0.25500000000E-02 0. -1.
         11    1    1    2    0    0 -0.27504844185E+02 -0.53278662976E+02  0.24841835470E+03  0.25555197384E+03  0.51100000000E-03 0. -1.
         22    1    1    2    0    0 -0.22000765817E-01 -0.10050520850E+02  0.47190727724E+02  0.48249126795E+02  0.00000000000E+00 0.  1.
          2    1    1    2  501    0  0.27526844951E+02  0.63329183826E+02  0.69875489768E+03  0.70215861439E+03  0.25500000000E-02 0. -1.
<mgrwt>
<rscale>  0 0.69052970E+02</rscale>
<asrwt>0</asrwt>
<pdfrwt beam="1">  1       11 0.10000000E+01 0.70074097E+02</pdfrwt>
<pdfrwt beam="2">  1        2 0.89212395E-03 0.69052970E+02</pdfrwt>
<totfact> 0.17043831E+04</totfact>
</mgrwt>
</event>
<event>
 5    1  0.2226716E-003  0.1299223E+03  0.7818608E-02  0.1737191E+00
         11   -1    0    0    0    0  0.00000000000E+00  0.00000000000E+00  0.10003066814E+04  0.10003066814E+04  0.51100000000E-03 0. -1.
          2   -1    0    0  501    0 -0.00000000000E+00 -0.00000000000E+00 -0.69381699085E+02  0.69381699131E+02  0.25500000000E-02 0. -1.
         11    1    1    2    0    0 -0.10126636571E+03 -0.71281669756E+02  0.23471665960E+03  0.26538248541E+03  0.51100000000E-03 0. -1.
         22    1    1    2    0    0  0.11827320103E+03  0.59987557477E+02  0.74221677087E+03  0.75397134699E+03  0.00000000000E+00 0. -1.
          2    1    1    2  501    0 -0.17006835327E+02  0.11294112278E+02 -0.46008448191E+02  0.50334548090E+02  0.25500000000E-02 0. -1.
<mgrwt>
<rscale>  0 0.20415421E+02</rscale>
<asrwt>0</asrwt>
<pdfrwt beam="1">  1       11 0.10000000E+01 0.12992226E+03</pdfrwt>
<pdfrwt beam="2">  1        2 0.10677381E-01 0.20415421E+02</pdfrwt>
<totfact> 0.61195529E+02</totfact>
</mgrwt>
</event>
<event>
 5    1  0.2226716E-003  0.1367787E+03  0.7818608E-02  0.1217730E+00
         11   -1    0    0    0    0  0.00000000000E+00  0.00000000000E+00  0.99997934103E+03  0.99997934103E+03  0.51100000000E-03 0. -1.
         -2   -1    0    0    0  501 -0.00000000000E+00 -0.00000000000E+00 -0.16602745098E+03  0.16602745100E+03  0.25500000000E-02 0.  1.
         11    1    1    2    0    0 -0.11157335000E+02 -0.18532279078E+03  0.42875239045E+03  0.46722332479E+03  0.51100000000E-03 0. -1.
         22    1    1    2    0    0  0.78805131828E+02  0.68166092479E+02  0.51444876739E+03  0.52489465537E+03  0.00000000000E+00 0. -1.
         -2    1    1    2    0  501 -0.67647796827E+02  0.11715669830E+03 -0.10924926780E+03  0.17388881187E+03  0.25500000000E-02 0.  1.
<mgrwt>
<rscale>  0 0.13677865E+03</rscale>
<asrwt>0</asrwt>
<pdfrwt beam="1">  1       11 0.10000000E+01 0.10419628E+03</pdfrwt>
<pdfrwt beam="2">  1       -2 0.25542156E-01 0.13677865E+03</pdfrwt>
<totfact> 0.10856437E+02</totfact>
</mgrwt>
</event>
<event>
 5    1  0.2226716E-003  0.9380514E+02  0.7818608E-02  0.1293890E+00
         11   -1    0    0    0    0  0.00000000000E+00  0.00000000000E+00  0.99988105203E+03  0.99988105203E+03  0.51100000000E-03 0.  1.
          2   -1    0    0  501    0 -0.00000000000E+00 -0.00000000000E+00 -0.17741357384E+04  0.17741357384E+04  0.25500000000E-02 0.  1.
         11    1    1    2    0    0 -0.70930237246E+02  0.13481949304E+03  0.76073490132E+03  0.77583824625E+03  0.51100000000E-03 0.  1.
         22    1    1    2    0    0  0.74571285246E+02 -0.41147216688E+02  0.22247237290E+03  0.23821823340E+03  0.00000000000E+00 0.  1.
          2    1    1    2  501    0 -0.36410480002E+01 -0.93672276354E+02 -0.17574619606E+04  0.17599603108E+04  0.25500000000E-02 0.  1.
<mgrwt>
<rscale>  0 0.93805136E+02</rscale>
<asrwt>0</asrwt>
<pdfrwt beam="1">  1       11 0.10000000E+01 0.85170241E+02</pdfrwt>
<pdfrwt beam="2">  1        2 0.27291149E+00 0.93805136E+02</pdfrwt>
<totfact> 0.13498931E+01</totfact>
</mgrwt>
</event>
<event>
 5    1  0.2226716E-003  0.3610462E+02  0.7818608E-02  0.1666983E+00
         11   -1    0    0    0    0  0.00000000000E+00  0.00000000000E+00  0.10002532231E+04  0.10002532231E+04  0.51100000000E-03 0.  1.
          2   -1    0    0  501    0 -0.00000000000E+00 -0.00000000000E+00 -0.46716229230E+01  0.46716236189E+01  0.25500000000E-02 0.  1.
         11    1    1    2    0    0 -0.15633928020E+02 -0.44701314849E+02  0.19022132099E+03  0.19602749352E+03  0.51100000000E-03 0.  1.
         22    1    1    2    0    0 -0.50942814752E+01  0.31474885162E+02  0.16427228696E+03  0.16733799438E+03  0.00000000000E+00 0. -1.
          2    1    1    2  501    0  0.20728209495E+02  0.13226429687E+02  0.64108799218E+03  0.64155935878E+03  0.25500000000E-02 0.  1.
<mgrwt>
<rscale>  0 0.24588557E+02</rscale>
<asrwt>0</asrwt>
<pdfrwt beam="1">  1       11 0.10000000E+01 0.36104620E+02</pdfrwt>
<pdfrwt beam="2">  1        2 0.71889325E-03 0.24588557E+02</pdfrwt>
<totfact> 0.18411986E+04</totfact>
</mgrwt>
</event>
<event>
 5    1  0.2226716E-003  0.4469105E+03  0.7818608E-02  0.1028647E+00
         11   -1    0    0    0    0  0.00000000000E+00  0.00000000000E+00  0.10000410333E+04  0.10000410333E+04  0.51100000000E-03 0. -1.
          2   -1    0    0  501    0 -0.00000000000E+00 -0.00000000000E+00 -0.38878124709E+03  0.38878124709E+03  0.25500000000E-02 0. -1.
         11    1    1    2    0    0 -0.18158383424E+03  0.34321429443E+03  0.40458262273E+03  0.56076362166E+03  0.51100000000E-03 0. -1.
         22    1    1    2    0    0  0.72768507272E+02  0.11776775997E+03  0.31332913157E+03  0.34254874927E+03  0.00000000000E+00 0. -1.
          2    1    1    2  501    0  0.10881532697E+03 -0.46098205440E+03 -0.10665196810E+03  0.48550990945E+03  0.25500000000E-02 0. -1.
<mgrwt>
<rscale>  0 0.44691047E+03</rscale>
<asrwt>0</asrwt>
<pdfrwt beam="1">  1       11 0.10000000E+01 0.13843591E+03</pdfrwt>
<pdfrwt beam="2">  1        2 0.59814952E-01 0.44691047E+03</pdfrwt>
<totfact> 0.10201665E+02</totfact>
</mgrwt>
</event>
<event>
 5    1  0.2226716E-003  0.1386549E+03  0.7818608E-02  0.1215150E+00
         11   -1    0    0    0    0  0.00000000000E+00  0.00000000000E+00  0.10001906071E+04  0.10001906071E+04  0.51100000000E-03 0. -1.
          2   -1    0    0  501    0 -0.00000000000E+00 -0.00000000000E+00 -0.47026398384E+03  0.47026398385E+03  0.25500000000E-02 0. -1.
         11    1    1    2    0    0 -0.16024414764E+03  0.27328802428E+02  0.72444551788E+03  0.74245966805E+03  0.51100000000E-03 0. -1.
         22    1    1    2    0    0  0.54989998855E+02  0.62905138439E+02  0.24935135572E+03  0.26297728992E+03  0.00000000000E+00 0.  1.
          2    1    1    2  501    0  0.10525414879E+03 -0.90233940867E+02 -0.44387025029E+03  0.46501763303E+03  0.25500000000E-02 0. -1.
<mgrwt>
<rscale>  0 0.13865492E+03</rscale>
<asrwt>0</asrwt>
<pdfrwt beam="1">  1       11 0.10000000E+01 0.83552118E+02</pdfrwt>
<pdfrwt beam="2">  1        2 0.72362093E-01 0.13865492E+03</pdfrwt>
<totfact> 0.83760736E+01</totfact>
</mgrwt>
</event>
<event>
 5    1  0.2226716E-003  0.1225988E+03  0.7818608E-02  0.1238870E+00
         11   -1    0    0    0    0  0.00000000000E+00  0.00000000000E+00  0.10002071263E+04  0.10002071263E+04  0.51100000000E-03 0.  1.
         -2   -1    0    0    0  501 -0.00000000000E+00 -0.00000000000E+00 -0.16573305013E+03  0.16573305015E+03  0.25500000000E-02 0. -1.
         11    1    1    2    0    0 -0.10210693868E+03  0.71917484113E+02  0.72274071318E+03  0.73345217290E+03  0.51100000000E-03 0.  1.
         22    1    1    2    0    0  0.33502398739E+02  0.29911739823E+02  0.24627794185E+03  0.25033966435E+03  0.00000000000E+00 0.  1.
         -2    1    1    2    0  501  0.68604539945E+02 -0.10182922394E+03 -0.13454457890E+03  0.18214833918E+03  0.25500000000E-02 0. -1.
<mgrwt>
<rscale>  0 0.12259882E+03</rscale>
<asrwt>0</asrwt>
<pdfrwt beam="1">  1       11 0.10000000E+01 0.44912391E+02</pdfrwt>
<pdfrwt beam="2">  1       -2 0.25502673E-01 0.12259882E+03</pdfrwt>
<totfact> 0.10855879E+02</totfact>
</mgrwt>
</event>
<event>
 5    1  0.2226716E-003  0.2283724E+03  0.7818608E-02  0.1136314E+00
         11   -1    0    0    0    0  0.00000000000E+00  0.00000000000E+00  0.10001020576E+04  0.10001020576E+04  0.51100000000E-03 0. -1.
          2   -1    0    0  501    0 -0.00000000000E+00 -0.00000000000E+00 -0.97023515378E+03  0.97023515379E+03  0.25500000000E-02 0. -1.
         11    1    1    2    0    0  0.73508861995E+02  0.17199067284E+03  0.86812516362E+03  0.88804596955E+03  0.51100000000E-03 0. -1.
         22    1    1    2    0    0  0.34038593768E+02  0.16219788339E+02  0.10650295081E+03  0.11298046703E+03  0.00000000000E+00 0.  1.
          2    1    1    2  501    0 -0.10754745576E+03 -0.18821046118E+03 -0.94476121064E+03  0.96931077477E+03  0.25500000000E-02 0. -1.
<mgrwt>
<rscale>  0 0.21677092E+03</rscale>
<asrwt>0</asrwt>
<pdfrwt beam="1">  1       11 0.10000000E+01 0.22837243E+03</pdfrwt>
<pdfrwt beam="2">  1        2 0.14928218E+00 0.21677092E+03</pdfrwt>
<totfact> 0.34621792E+01</totfact>
</mgrwt>
</event>
<event>
 5    1  0.2226716E-003  0.9054089E+02  0.7818608E-02  0.1641687E+00
         11   -1    0    0    0    0  0.00000000000E+00  0.00000000000E+00  0.10002501532E+04  0.10002501532E+04  0.51100000000E-03 0. -1.
         -2   -1    0    0    0  501 -0.00000000000E+00 -0.00000000000E+00 -0.25280151625E+02  0.25280151753E+02  0.25500000000E-02 0.  1.
         11    1    1    2    0    0 -0.79114089674E+02 -0.11913045948E+02  0.39923816996E+03  0.40717573135E+03  0.51100000000E-03 0. -1.
         22    1    1    2    0    0  0.10303643975E+03  0.74992546228E+00  0.58214041178E+03  0.59118908086E+03  0.00000000000E+00 0.  1.
         -2    1    1    2    0  501 -0.23922350078E+02  0.11163120486E+02 -0.64085801237E+01  0.27165492779E+02  0.25500000000E-02 0.  1.
<mgrwt>
<rscale>  0 0.26398752E+02</rscale>
<asrwt>0</asrwt>
<pdfrwt beam="1">  1       11 0.10000000E+01 0.90540889E+02</pdfrwt>
<pdfrwt beam="2">  1       -2 0.38902269E-02 0.26398752E+02</pdfrwt>
<totfact> 0.17617720E+03</totfact>
</mgrwt>
</event>
<event>
 5    1  0.2226716E-003  0.5043142E+03  0.7818608E-02  0.1012659E+00
         11   -1    0    0    0    0  0.00000000000E+00  0.00000000000E+00  0.99997416867E+03  0.99997416867E+03  0.51100000000E-03 0. -1.
          2   -1    0    0  501    0 -0.00000000000E+00 -0.00000000000E+00 -0.16056082414E+04  0.16056082414E+04  0.25500000000E-02 0. -1.
         11    1    1    2    0    0 -0.32036156449E+03 -0.60215236739E+02  0.11944628457E+03  0.34716684985E+03  0.51100000000E-03 0. -1.
         22    1    1    2    0    0 -0.21356276946E+03  0.18965862101E+03  0.68657788766E+03  0.74361861519E+03  0.00000000000E+00 0. -1.
          2    1    1    2  501    0  0.53392433395E+03 -0.12944338427E+03 -0.14116582450E+04  0.15147969451E+04  0.25500000000E-02 0. -1.
<mgrwt>
<rscale>  0 0.50431422E+03</rscale>
<asrwt>0</asrwt>
<pdfrwt beam="1">  1       11 0.10000000E+01 0.28562116E+03</pdfrwt>
<pdfrwt beam="2">  1        2 0.24701026E+00 0.50431422E+03</pdfrwt>
<totfact> 0.14324389E+01</totfact>
</mgrwt>
</event>
<event>
 5    1  0.2226716E-003  0.2152871E+03  0.7818608E-02  0.1227375E+00
         11   -1    0    0    0    0  0.00000000000E+00  0.00000000000E+00  0.10001124767E+04  0.10001124767E+04  0.51100000000E-03 0. -1.
          2   -1    0    0  501    0 -0.00000000000E+00 -0.00000000000E+00 -0.17018102298E+03  0.17018102300E+03  0.25500000000E-02 0. -1.
         11    1    1    2    0    0 -0.11242716038E+03 -0.29092754515E+03  0.33721996127E+03  0.45934301474E+03  0.51100000000E-03 0. -1.
         22    1    1    2    0    0  0.33479538066E+02  0.18757633611E+03  0.53994935508E+03  0.57258280396E+03  0.00000000000E+00 0. -1.
          2    1    1    2  501    0  0.78947622317E+02  0.10335120904E+03 -0.47237862609E+02  0.13836768102E+03  0.25500000000E-02 0. -1.
<mgrwt>
<rscale>  0 0.13005460E+03</rscale>
<asrwt>0</asrwt>
<pdfrwt beam="1">  1       11 0.10000000E+01 0.21528706E+03</pdfrwt>
<pdfrwt beam="2">  1        2 0.26184640E-01 0.13005460E+03</pdfrwt>
<totfact> 0.24862289E+02</totfact>
</mgrwt>
</event>
<event>
 5    1  0.2226716E-003  0.1633427E+03  0.7818608E-02  0.1184974E+00
         11   -1    0    0    0    0  0.00000000000E+00  0.00000000000E+00  0.10001055726E+04  0.10001055726E+04  0.51100000000E-03 0.  1.
          2   -1    0    0  501    0 -0.00000000000E+00 -0.00000000000E+00 -0.11912614852E+03  0.11912614855E+03  0.25500000000E-02 0.  1.
         11    1    1    2    0    0 -0.89815840049E+02 -0.13554553966E+03  0.89641900123E+03  0.91104692756E+03  0.51100000000E-03 0.  1.
         22    1    1    2    0    0  0.85969881020E+01 -0.62552316616E+01  0.35466539259E+02  0.37025822538E+02  0.00000000000E+00 0. -1.
          2    1    1    2  501    0  0.81218851947E+02  0.14180077133E+03 -0.50906116447E+02  0.17115897101E+03  0.25500000000E-02 0.  1.
<mgrwt>
<rscale>  0 0.16334274E+03</rscale>
<asrwt>0</asrwt>
<pdfrwt beam="1">  1       11 0.10000000E+01 0.10631845E+02</pdfrwt>
<pdfrwt beam="2">  1        2 0.18329034E-01 0.16334274E+03</pdfrwt>
<totfact> 0.37339236E+02</totfact>
</mgrwt>
</event>
<event>
 5    1  0.2226716E-003  0.1811775E+03  0.7818608E-02  0.1166668E+00
         11   -1    0    0    0    0  0.00000000000E+00  0.00000000000E+00  0.10004161269E+04  0.10004161269E+04  0.51100000000E-03 0.  1.
          2   -1    0    0  501    0 -0.00000000000E+00 -0.00000000000E+00 -0.71782123908E+03  0.71782123908E+03  0.25500000000E-02 0.  1.
         11    1    1    2    0    0 -0.71290210840E+02  0.15495288528E+03  0.74622317210E+03  0.76546829679E+03  0.51100000000E-03 0.  1.
         22    1    1    2    0    0  0.42401070688E+02  0.24168598542E+02  0.23035079768E+03  0.23546435387E+03  0.00000000000E+00 0. -1.
          2    1    1    2  501    0  0.28889140152E+02 -0.17912148382E+03 -0.69397908197E+03  0.71730471531E+03  0.25500000000E-02 0.  1.
<mgrwt>
<rscale>  0 0.18117753E+03</rscale>
<asrwt>0</asrwt>
<pdfrwt beam="1">  1       11 0.10000000E+01 0.48805450E+02</pdfrwt>
<pdfrwt beam="2">  1        2 0.11047999E+00 0.18117753E+03</pdfrwt>
<totfact> 0.51385987E+01</totfact>
</mgrwt>
</event>
<event>
 5    1  0.2226716E-003  0.2317703E+03  0.7818608E-02  0.1125400E+00
         11   -1    0    0    0    0  0.00000000000E+00  0.00000000000E+00  0.10001730608E+04  0.10001730608E+04  0.51100000000E-03 0. -1.
          2   -1    0    0  501    0 -0.00000000000E+00 -0.00000000000E+00 -0.22214392208E+03  0.22214392210E+03  0.25500000000E-02 0. -1.
         11    1    1    2    0    0 -0.27120861134E+02 -0.13655040159E+03  0.61125075294E+03  0.62690432783E+03  0.51100000000E-03 0. -1.
         22    1    1    2    0    0  0.20058481332E+03 -0.40790271679E+02  0.25955895169E+03  0.33055856213E+03  0.00000000000E+00 0. -1.
          2    1    1    2  501    0 -0.17346395218E+03  0.17734067327E+03 -0.92780565946E+02  0.26485409290E+03  0.25500000000E-02 0. -1.
<mgrwt>
<rscale>  0 0.23177026E+03</rscale>
<asrwt>0</asrwt>
<pdfrwt beam="1">  1       11 0.10000000E+01 0.13921765E+03</pdfrwt>
<pdfrwt beam="2">  1        2 0.34181902E-01 0.23177026E+03</pdfrwt>
<totfact> 0.18775199E+02</totfact>
</mgrwt>
</event>
<event>
 5    1  0.2226716E-003  0.1144658E+03  0.7818608E-02  0.1252516E+00
         11   -1    0    0    0    0  0.00000000000E+00  0.00000000000E+00  0.10001402432E+04  0.10001402432E+04  0.51100000000E-03 0.  1.
          2   -1    0    0  501    0 -0.00000000000E+00 -0.00000000000E+00 -0.30712229639E+02  0.30712229745E+02  0.25500000000E-02 0.  1.
         11    1    1    2    0    0 -0.22552496233E+02 -0.11037369075E+03  0.10734182893E+03  0.15560602474E+03  0.51100000000E-03 0.  1.
         22    1    1    2    0    0  0.19337487017E+02 -0.15782476417E+02  0.13418238056E+03  0.13648419769E+03  0.00000000000E+00 0. -1.
          2    1    1    2  501    0  0.32150092158E+01  0.12615616717E+03  0.72790380407E+03  0.73876225051E+03  0.25500000000E-02 0.  1.
<mgrwt>
<rscale>  0 0.11446580E+03</rscale>
<asrwt>0</asrwt>
<pdfrwt beam="1">  1       11 0.10000000E+01 0.24960468E+02</pdfrwt>
<pdfrwt beam="2">  1        2 0.47256209E-02 0.11446580E+03</pdfrwt>
<totfact> 0.19442254E+03</totfact>
</mgrwt>
</event>
<event>
 5    1  0.2226716E-003  0.2041167E+03  0.7818608E-02  0.1153205E+00
         11   -1    0    0    0    0  0.00000000000E+00  0.00000000000E+00  0.99996327330E+03  0.99996327330E+03  0.51100000000E-03 0. -1.
         -2   -1    0    0    0  501 -0.00000000000E+00 -0.00000000000E+00 -0.89487244100E+02  0.89487244136E+02  0.25500000000E-02 0. -1.
         11    1    1    2    0    0 -0.16410170257E+03 -0.82082270863E+02  0.76745652805E+03  0.78908579409E+03  0.51100000000E-03 0. -1.
         22    1    1    2    0    0 -0.29813642880E+01 -0.20281391638E+02  0.96925562462E+02  0.99069612083E+02  0.00000000000E+00 0. -1.
         -2    1    1    2    0  501  0.16708306686E+03  0.10236366250E+03  0.46093938688E+02  0.20129511127E+03  0.25500000000E-02 0. -1.
<mgrwt>
<rscale>  0 0.19594660E+03</rscale>
<asrwt>0</asrwt>
<pdfrwt beam="1">  1       11 0.10000000E+01 0.20411670E+03</pdfrwt>
<pdfrwt beam="2">  1       -2 0.13766762E-01 0.19594660E+03</pdfrwt>
<totfact> 0.31185927E+02</totfact>
</mgrwt>
</event>
<event>
 5    1  0.2226716E-003  0.1307002E+03  0.7818608E-02  0.1226420E+00
         11   -1    0    0    0    0  0.00000000000E+00  0.00000000000E+00  0.10003754861E+04  0.10003754861E+04  0.51100000000E-03 0. -1.
         -2   -1    0    0    0  501 -0.00000000000E+00 -0.00000000000E+00 -0.25219252357E+02  0.25219252486E+02  0.25500000000E-02 0. -1.
         11    1    1    2    0    0  0.13425819696E+03 -0.54303133446E+02  0.58164923991E+03  0.59940798463E+03  0.51100000000E-03 0. -1.
         22    1    1    2    0    0 -0.12544704524E+02  0.25990374277E+02  0.14709672201E+03  0.14990101665E+03  0.00000000000E+00 0. -1.
         -2    1    1    2    0  501 -0.12171349243E+03  0.28312759169E+02  0.24641027183E+03  0.27628573731E+03  0.25500000000E-02 0. -1.
<mgrwt>
<rscale>  0 0.13070019E+03</rscale>
<asrwt>0</asrwt>
<pdfrwt beam="1">  1       11 0.10000000E+01 0.28859473E+02</pdfrwt>
<pdfrwt beam="2">  1       -2 0.38813417E-02 0.13070019E+03</pdfrwt>
<totfact> 0.21479638E+03</totfact>
</mgrwt>
</event>
<event>
 5    1  0.2226716E-003  0.5625220E+03  0.7818608E-02  0.9986364E-01
         11   -1    0    0    0    0  0.00000000000E+00  0.00000000000E+00  0.10003115991E+04  0.10003115991E+04  0.51100000000E-03 0. -1.
          2   -1    0    0  501    0 -0.00000000000E+00 -0.00000000000E+00 -0.19069979746E+04  0.19069979746E+04  0.25500000000E-02 0. -1.
         11    1    1    2    0    0  0.42618789999E+03 -0.30786793195E+03  0.69735190558E+03  0.87333754634E+03  0.51100000000E-03 0. -1.
         22    1    1    2    0    0  0.12318288417E+02 -0.47813270540E+02  0.16750344191E+03  0.17462889830E+03  0.00000000000E+00 0.  1.
          2    1    1    2  501    0 -0.43850618841E+03  0.35568120249E+03 -0.17715417230E+04  0.18593431290E+04  0.25500000000E-02 0. -1.
<mgrwt>
<rscale>  0 0.56252205E+03</rscale>
<asrwt>0</asrwt>
<pdfrwt beam="1">  1       11 0.10000000E+01 0.49374579E+02</pdfrwt>
<pdfrwt beam="2">  1        2 0.29347571E+00 0.56252205E+03</pdfrwt>
<totfact> 0.97509604E+00</totfact>
</mgrwt>
</event>
<event>
 5    1  0.2226716E-003  0.2073663E+03  0.7818608E-02  0.1523816E+00
         11   -1    0    0    0    0  0.00000000000E+00  0.00000000000E+00  0.10001176647E+04  0.10001176647E+04  0.51100000000E-03 0.  1.
          2   -1    0    0  501    0 -0.00000000000E+00 -0.00000000000E+00 -0.25087697351E+04  0.25087697351E+04  0.25500000000E-02 0. -1.
         11    1    1    2    0    0 -0.20846508021E+03  0.59002515498E+02  0.22595572074E+03  0.31304148965E+03  0.51100000000E-03 0.  1.
         22    1    1    2    0    0  0.18488242092E+03 -0.88743183524E+02  0.71607837814E+03  0.74486583076E+03  0.00000000000E+00 0.  1.
          2    1    1    2  501    0  0.23582659294E+02  0.29740668026E+02 -0.24506861693E+04  0.24509800794E+04  0.25500000000E-02 0. -1.
<mgrwt>
<rscale>  0 0.37955884E+02</rscale>
<asrwt>0</asrwt>
<pdfrwt beam="1">  1       11 0.10000000E+01 0.20736629E+03</pdfrwt>
<pdfrwt beam="2">  1        2 0.38600998E+00 0.37955884E+02</pdfrwt>
<totfact> 0.64977989E+00</totfact>
</mgrwt>
</event>
<event>
 5    1  0.2226716E-003  0.1173770E+03  0.7818608E-02  0.1606434E+00
         11   -1    0    0    0    0  0.00000000000E+00  0.00000000000E+00  0.99994420662E+03  0.99994420662E+03  0.51100000000E-03 0. -1.
         -2   -1    0    0    0  501 -0.00000000000E+00 -0.00000000000E+00 -0.71543825876E+02  0.71543825921E+02  0.25500000000E-02 0. -1.
         11    1    1    2    0    0  0.29847807841E+02  0.10747199810E+03  0.36381084788E+03  0.38052523575E+03  0.51100000000E-03 0. -1.
         22    1    1    2    0    0 -0.59104846043E+02 -0.10775451716E+03  0.61797928975E+03  0.63008159897E+03  0.00000000000E+00 0. -1.
         -2    1    1    2    0  501  0.29257038201E+02  0.28251905748E+00 -0.53389756888E+02  0.60881197823E+02  0.25500000000E-02 0. -1.
<mgrwt>
<rscale>  0 0.29258402E+02</rscale>
<asrwt>0</asrwt>
<pdfrwt beam="1">  1       11 0.10000000E+01 0.11737703E+03</pdfrwt>
<pdfrwt beam="2">  1       -2 0.11006128E-01 0.29258402E+02</pdfrwt>
<totfact> 0.39234396E+02</totfact>
</mgrwt>
</event>
<event>
 5    1  0.2226716E-003  0.1805959E+03  0.7818608E-02  0.1167228E+00
         11   -1    0    0    0    0  0.00000000000E+00  0.00000000000E+00  0.10004249275E+04  0.10004249275E+04  0.51100000000E-03 0.  1.
          2   -1    0    0  501    0 -0.00000000000E+00 -0.00000000000E+00 -0.74908243471E+02  0.74908243515E+02  0.25500000000E-02 0.  1.
         11    1    1    2    0    0  0.59708460995E+02  0.19190536931E+03  0.70337888981E+03  0.73152896985E+03  0.51100000000E-03 0.  1.
         22    1    1    2    0    0 -0.55713625586E+02 -0.14167968583E+02  0.13307441264E+03  0.14496047292E+03  0.00000000000E+00 0. -1.
          2    1    1    2  501    0 -0.39948354089E+01 -0.17773740073E+03  0.89063381613E+02  0.19884372829E+03  0.25500000000E-02 0.  1.
<mgrwt>
<rscale>  0 0.18059587E+03</rscale>
<asrwt>0</asrwt>
<pdfrwt beam="1">  1       11 0.10000000E+01 0.57486863E+02</pdfrwt>
<pdfrwt beam="2">  1        2 0.11529242E-01 0.18059587E+03</pdfrwt>
<totfact> 0.64881466E+02</totfact>
</mgrwt>
</event>
<event>
 5    1  0.2226716E-003  0.1365001E+03  0.7818608E-02  0.1218117E+00
         11   -1    0    0    0    0  0.00000000000E+00  0.00000000000E+00  0.10002521315E+04  0.10002521315E+04  0.51100000000E-03 0. -1.
          2   -1    0    0  501    0 -0.00000000000E+00 -0.00000000000E+00 -0.25068975664E+02  0.25068975794E+02  0.25500000000E-02 0. -1.
         11    1    1    2    0    0 -0.62066328951E+02 -0.12202781979E+03  0.26628368602E+03  0.29941613089E+03  0.51100000000E-03 0. -1.
         22    1    1    2    0    0 -0.16553529655E+02  0.10355868882E+02  0.97907857167E+02  0.99835924694E+02  0.00000000000E+00 0. -1.
          2    1    1    2  501    0  0.78619858607E+02  0.11167195091E+03  0.61099161268E+03  0.62606905175E+03  0.25500000000E-02 0. -1.
<mgrwt>
<rscale>  0 0.13650007E+03</rscale>
<asrwt>0</asrwt>
<pdfrwt beam="1">  1       11 0.10000000E+01 0.19525966E+02</pdfrwt>
<pdfrwt beam="2">  1        2 0.38577378E-02 0.13650007E+03</pdfrwt>
<totfact> 0.25798165E+03</totfact>
</mgrwt>
</event>
<event>
 5    1  0.2226716E-003  0.1930775E+03  0.7818608E-02  0.1155715E+00
         11   -1    0    0    0    0  0.00000000000E+00  0.00000000000E+00  0.10001675662E+04  0.10001675662E+04  0.51100000000E-03 0. -1.
          2   -1    0    0  501    0 -0.00000000000E+00 -0.00000000000E+00 -0.64384584787E+02  0.64384584837E+02  0.25500000000E-02 0. -1.
         11    1    1    2    0    0 -0.16300182199E+03 -0.56794495592E+02  0.57218147326E+03  0.59765110812E+03  0.51100000000E-03 0. -1.
         22    1    1    2    0    0 -0.41351986763E+02  0.58879099928E+02  0.17334412836E+03  0.18768303614E+03  0.00000000000E+00 0.  1.
          2    1    1    2  501    0  0.20435380875E+03 -0.20846043365E+01  0.19025737975E+03  0.27921800673E+03  0.25500000000E-02 0. -1.
<mgrwt>
<rscale>  0 0.19307751E+03</rscale>
<asrwt>0</asrwt>
<pdfrwt beam="1">  1       11 0.10000000E+01 0.71949532E+02</pdfrwt>
<pdfrwt beam="2">  1        2 0.99069803E-02 0.19307751E+03</pdfrwt>
<totfact> 0.78436095E+02</totfact>
</mgrwt>
</event>
<event>
 5    1  0.2226716E-003  0.5253948E+03  0.7818608E-02  0.1009113E+00
         11   -1    0    0    0    0  0.00000000000E+00  0.00000000000E+00  0.99992113627E+03  0.99992113627E+03  0.51100000000E-03 0.  1.
          2   -1    0    0  501    0 -0.00000000000E+00 -0.00000000000E+00 -0.98400023361E+03  0.98400023361E+03  0.25500000000E-02 0.  1.
         11    1    1    2    0    0 -0.46547782641E+03 -0.18185932543E+03  0.77771408922E+03  0.92443584185E+03  0.51100000000E-03 0.  1.
         22    1    1    2    0    0 -0.17943721516E+02 -0.50245279573E+01  0.73849596027E+02  0.76164203248E+02  0.00000000000E+00 0.  1.
          2    1    1    2  501    0  0.48342154793E+03  0.18688385339E+03 -0.83564278259E+03  0.98332132478E+03  0.25500000000E-02 0.  1.
<mgrwt>
<rscale>  0 0.51828753E+03</rscale>
<asrwt>0</asrwt>
<pdfrwt beam="1">  1       11 0.10000000E+01 0.52539484E+03</pdfrwt>
<pdfrwt beam="2">  1        2 0.15137271E+00 0.51828753E+03</pdfrwt>
<totfact> 0.32614835E+01</totfact>
</mgrwt>
</event>
<event>
 5    1  0.2226716E-003  0.1567465E+03  0.7818608E-02  0.1192420E+00
         11   -1    0    0    0    0  0.00000000000E+00  0.00000000000E+00  0.10005477118E+04  0.10005477118E+04  0.51100000000E-03 0. -1.
          2   -1    0    0  501    0 -0.00000000000E+00 -0.00000000000E+00 -0.10240156780E+04  0.10240156780E+04  0.25500000000E-02 0. -1.
         11    1    1    2    0    0  0.12860914486E+03  0.63952641412E+02  0.84278208784E+03  0.85493385713E+03  0.51100000000E-03 0. -1.
         22    1    1    2    0    0 -0.23923897499E+02  0.52934877307E+02  0.13981445978E+03  0.15140190643E+03  0.00000000000E+00 0.  1.
          2    1    1    2  501    0 -0.10468524736E+03 -0.11688751872E+03 -0.10060645138E+04  0.10182276263E+04  0.25500000000E-02 0. -1.
<mgrwt>
<rscale>  0 0.15674651E+03</rscale>
<asrwt>0</asrwt>
<pdfrwt beam="1">  1       11 0.10000000E+01 0.58090052E+02</pdfrwt>
<pdfrwt beam="2">  1        2 0.15762716E+00 0.15674651E+03</pdfrwt>
<totfact> 0.32607362E+01</totfact>
</mgrwt>
</event>
<event>
 5    1  0.2226716E-003  0.1486460E+03  0.7818608E-02  0.1713474E+00
         11   -1    0    0    0    0  0.00000000000E+00  0.00000000000E+00  0.10002273334E+04  0.10002273334E+04  0.51100000000E-03 0. -1.
         -2   -1    0    0    0  501 -0.00000000000E+00 -0.00000000000E+00 -0.41452907605E+02  0.41452907683E+02  0.25500000000E-02 0.  1.
         11    1    1    2    0    0  0.89330151909E+02  0.11022111504E+03  0.14698222428E+03  0.20428495906E+03  0.51100000000E-03 0. -1.
         22    1    1    2    0    0 -0.78055010605E+02 -0.12876316235E+03  0.79707922143E+03  0.81117681297E+03  0.00000000000E+00 0. -1.
         -2    1    1    2    0  501 -0.11275141305E+02  0.18542047310E+02  0.14712980050E+02  0.26218469032E+02  0.25500000000E-02 0.  1.
<mgrwt>
<rscale>  0 0.21701068E+02</rscale>
<asrwt>0</asrwt>
<pdfrwt beam="1">  1       11 0.10000000E+01 0.14864596E+03</pdfrwt>
<pdfrwt beam="2">  1       -2 0.63788200E-02 0.21701068E+02</pdfrwt>
<totfact> 0.84774780E+02</totfact>
</mgrwt>
</event>
<event>
 5    1  0.3900382E-003  0.2309762E+03  0.7818608E-02  0.1125955E+00
         11   -1    0    0    0    0  0.00000000000E+00  0.00000000000E+00  0.10013339602E+04  0.10013339602E+04  0.51100000000E-03 0.  1.
          2   -1    0    0  501    0 -0.00000000000E+00 -0.00000000000E+00 -0.21275095570E+04  0.21275095570E+04  0.25500000000E-02 0.  1.
         11    1    1    2    0    0  0.67120383540E+02 -0.23331573950E+03  0.92452051172E+03  0.95586586756E+03  0.51100000000E-03 0.  1.
         22    1    1    2    0    0  0.44238597797E+01  0.13781556912E+02  0.53871310643E+02  0.55781896317E+02  0.00000000000E+00 0.  1.
          2    1    1    2  501    0 -0.71544243319E+02  0.21953418258E+03 -0.21045674192E+04  0.21171957533E+04  0.25500000000E-02 0.  1.
<mgrwt>
<rscale>  0 0.23097617E+03</rscale>
<asrwt>0</asrwt>
<pdfrwt beam="1">  1       11 0.10000000E+01 0.14474179E+02</pdfrwt>
<pdfrwt beam="2">  1        2 0.32774577E+00 0.23097617E+03</pdfrwt>
<totfact> 0.80835737E+00</totfact>
</mgrwt>
</event>
<event>
 5    1  0.2226716E-003  0.3264969E+03  0.7818608E-02  0.1072697E+00
         11   -1    0    0    0    0  0.00000000000E+00  0.00000000000E+00  0.10004554161E+04  0.10004554161E+04  0.51100000000E-03 0. -1.
          2   -1    0    0  501    0 -0.00000000000E+00 -0.00000000000E+00 -0.11585179578E+03  0.11585179581E+03  0.25500000000E-02 0. -1.
         11    1    1    2    0    0 -0.44463901013E+02  0.32102265231E+03  0.40190106915E+03  0.51629163384E+03  0.51100000000E-03 0. -1.
         22    1    1    2    0    0 -0.19008663186E+02  0.20425279247E+01  0.67283103264E+02  0.69946530873E+02  0.00000000000E+00 0. -1.
          2    1    1    2  501    0  0.63472564199E+02 -0.32306518023E+03  0.41541944790E+03  0.53006904719E+03  0.25500000000E-02 0. -1.
<mgrwt>
<rscale>  0 0.32649688E+03</rscale>
<asrwt>0</asrwt>
<pdfrwt beam="1">  1       11 0.10000000E+01 0.19118086E+02</pdfrwt>
<pdfrwt beam="2">  1        2 0.17831470E-01 0.32649688E+03</pdfrwt>
<totfact> 0.39382164E+02</totfact>
</mgrwt>
</event>
<event>
 5    1  0.2226716E-003  0.1627647E+03  0.7818608E-02  0.1185610E+00
         11   -1    0    0    0    0  0.00000000000E+00  0.00000000000E+00  0.10002693545E+04  0.10002693545E+04  0.51100000000E-03 0. -1.
         -2   -1    0    0    0  501 -0.00000000000E+00 -0.00000000000E+00 -0.70529915387E+02  0.70529915433E+02  0.25500000000E-02 0.  1.
         11    1    1    2    0    0 -0.12998176775E+03 -0.93035475760E+02  0.88867225063E+03  0.90293367904E+03  0.51100000000E-03 0. -1.
         22    1    1    2    0    0  0.47873364621E+01  0.12164386397E+02  0.75654248200E+01  0.15103858432E+02  0.00000000000E+00 0. -1.
         -2    1    1    2    0  501  0.12519443129E+03  0.80871089363E+02  0.33501763622E+02  0.15276173242E+03  0.25500000000E-02 0.  1.
<mgrwt>
<rscale>  0 0.16276468E+03</rscale>
<asrwt>0</asrwt>
<pdfrwt beam="1">  1       11 0.10000000E+01 0.15984636E+03</pdfrwt>
<pdfrwt beam="2">  1       -2 0.10853679E-01 0.16276468E+03</pdfrwt>
<totfact> 0.45319598E+02</totfact>
</mgrwt>
</event>
<event>
 5    1  0.2226716E-003  0.8837516E+02  0.7818608E-02  0.1306835E+00
         11   -1    0    0    0    0  0.00000000000E+00  0.00000000000E+00  0.10003169101E+04  0.10003169101E+04  0.51100000000E-03 0. -1.
          2   -1    0    0  501    0 -0.00000000000E+00 -0.00000000000E+00 -0.72201100848E+01  0.72201105351E+01  0.25500000000E-02 0. -1.
         11    1    1    2    0    0  0.66571439303E+02  0.43596018721E+02  0.39385351347E+03  0.40181209471E+03  0.51100000000E-03 0. -1.
         22    1    1    2    0    0 -0.25502115169E+02  0.45878401253E+00  0.11785151896E+03  0.12058005176E+03  0.00000000000E+00 0. -1.
          2    1    1    2  501    0 -0.41069324134E+02 -0.44054802733E+02  0.48139176755E+03  0.48514487414E+03  0.25500000000E-02 0. -1.
<mgrwt>
<rscale>  0 0.88375163E+02</rscale>
<asrwt>0</asrwt>
<pdfrwt beam="1">  1       11 0.10000000E+01 0.79576226E+02</pdfrwt>
<pdfrwt beam="2">  1        2 0.11111382E-02 0.88375163E+02</pdfrwt>
<totfact> 0.13160675E+04</totfact>
</mgrwt>
</event>
<event>
 5    1  0.2226716E-003  0.1485762E+03  0.7818608E-02  0.1202234E+00
         11   -1    0    0    0    0  0.00000000000E+00  0.00000000000E+00  0.10002156598E+04  0.10002156598E+04  0.51100000000E-03 0.  1.
         -2   -1    0    0    0  501 -0.00000000000E+00 -0.00000000000E+00 -0.13243160447E+03  0.13243160450E+03  0.25500000000E-02 0. -1.
         11    1    1    2    0    0  0.27203539633E+02 -0.18912101409E+03  0.66569989448E+03  0.69257717263E+03  0.51100000000E-03 0.  1.
         22    1    1    2    0    0 -0.15763061649E+02  0.43809972640E+02  0.27372405771E+03  0.27765562768E+03  0.00000000000E+00 0.  1.
         -2    1    1    2    0  501 -0.11440477984E+02  0.14531104145E+03 -0.71639896816E+02  0.16241446403E+03  0.25500000000E-02 0. -1.
<mgrwt>
<rscale>  0 0.14857617E+03</rscale>
<asrwt>0</asrwt>
<pdfrwt beam="1">  1       11 0.10000000E+01 0.46559508E+02</pdfrwt>
<pdfrwt beam="2">  1       -2 0.20378486E-01 0.14857617E+03</pdfrwt>
<totfact> 0.16066532E+02</totfact>
</mgrwt>
</event>
<event>
 5    1  0.2226716E-003  0.1448204E+03  0.7818608E-02  0.1206986E+00
         11   -1    0    0    0    0  0.00000000000E+00  0.00000000000E+00  0.10002309785E+04  0.10002309785E+04  0.51100000000E-03 0. -1.
          2   -1    0    0  501    0 -0.00000000000E+00 -0.00000000000E+00 -0.23265140520E+02  0.23265140660E+02  0.25500000000E-02 0. -1.
         11    1    1    2    0    0 -0.29288930894E+02  0.14093908873E+03  0.41196047805E+03  0.43638641555E+03  0.51100000000E-03 0. -1.
         22    1    1    2    0    0 -0.13280817384E+02 -0.10476765535E+01  0.50726351872E+02  0.52446549084E+02  0.00000000000E+00 0. -1.
          2    1    1    2  501    0  0.42569748278E+02 -0.13989141217E+03  0.51427900806E+03  0.53466315452E+03  0.25500000000E-02 0. -1.
<mgrwt>
<rscale>  0 0.14482044E+03</rscale>
<asrwt>0</asrwt>
<pdfrwt beam="1">  1       11 0.10000000E+01 0.13322077E+02</pdfrwt>
<pdfrwt beam="2">  1        2 0.35800790E-02 0.14482044E+03</pdfrwt>
<totfact> 0.28651118E+03</totfact>
</mgrwt>
</event>
<event>
 5    1  0.2226716E-003  0.3495828E+03  0.7818608E-02  0.1065476E+00
         11   -1    0    0    0    0  0.00000000000E+00  0.00000000000E+00  0.10001244760E+04  0.10001244760E+04  0.51100000000E-03 0. -1.
          2   -1    0    0  501    0 -0.00000000000E+00 -0.00000000000E+00 -0.25638138447E+03  0.25638138449E+03  0.25500000000E-02 0. -1.
         11    1    1    2    0    0  0.17183624989E+02  0.33067495299E+03  0.78214214975E+03  0.84934536198E+03  0.51100000000E-03 0. -1.
         22    1    1    2    0    0 -0.13465251704E+02  0.12421348290E+02  0.49654119847E+02  0.52925745291E+02  0.00000000000E+00 0. -1.
          2    1    1    2  501    0 -0.37183732853E+01 -0.34309630128E+03 -0.88053178028E+02  0.35423475326E+03  0.25500000000E-02 0. -1.
<mgrwt>
<rscale>  0 0.34311645E+03</rscale>
<asrwt>0</asrwt>
<pdfrwt beam="1">  1       11 0.10000000E+01 0.34958278E+03</pdfrwt>
<pdfrwt beam="2">  1        2 0.39448199E-01 0.34311645E+03</pdfrwt>
<totfact> 0.16108642E+02</totfact>
</mgrwt>
</event>
<event>
 5    1  0.2226716E-003  0.7481838E+02  0.7818608E-02  0.1559355E+00
         11   -1    0    0    0    0  0.00000000000E+00  0.00000000000E+00  0.10001840787E+04  0.10001840787E+04  0.51100000000E-03 0. -1.
          2   -1    0    0  501    0 -0.00000000000E+00 -0.00000000000E+00 -0.90332915941E+01  0.90332919540E+01  0.25500000000E-02 0. -1.
         11    1    1    2    0    0  0.69787447519E+02 -0.40122208997E+02  0.42230559551E+03  0.42990940381E+03  0.51100000000E-03 0. -1.
         22    1    1    2    0    0 -0.41787733833E+02  0.59087211035E+02  0.31419816047E+03  0.32242518085E+03  0.00000000000E+00 0. -1.
          2    1    1    2  501    0 -0.27999713687E+02 -0.18965002038E+02  0.25464703108E+03  0.25688278594E+03  0.25500000000E-02 0. -1.
<mgrwt>
<rscale>  0 0.33817973E+02</rscale>
<asrwt>0</asrwt>
<pdfrwt beam="1">  1       11 0.10000000E+01 0.74818375E+02</pdfrwt>
<pdfrwt beam="2">  1        2 0.13899930E-02 0.33817973E+02</pdfrwt>
<totfact> 0.82803709E+03</totfact>
</mgrwt>
</event>
<event>
 5    1  0.2226716E-003  0.2606618E+03  0.7818608E-02  0.1106746E+00
         11   -1    0    0    0    0  0.00000000000E+00  0.00000000000E+00  0.10001701576E+04  0.10001701576E+04  0.51100000000E-03 0. -1.
          2   -1    0    0  501    0 -0.00000000000E+00 -0.00000000000E+00 -0.22024878979E+03  0.22024878981E+03  0.25500000000E-02 0. -1.
         11    1    1    2    0    0 -0.97613716681E+02 -0.22058832657E+03  0.61970868335E+03  0.66500112761E+03  0.51100000000E-03 0. -1.
         22    1    1    2    0    0  0.36845197665E+02 -0.36183817113E+02  0.26612577959E+03  0.27108996251E+03  0.00000000000E+00 0.  1.
          2    1    1    2  501    0  0.60768519016E+02  0.25677214368E+03 -0.10591309517E+03  0.28432785725E+03  0.25500000000E-02 0. -1.
<mgrwt>
<rscale>  0 0.26066176E+03</rscale>
<asrwt>0</asrwt>
<pdfrwt beam="1">  1       11 0.10000000E+01 0.51641429E+02</pdfrwt>
<pdfrwt beam="2">  1        2 0.33890194E-01 0.26066176E+03</pdfrwt>
<totfact> 0.18976404E+02</totfact>
</mgrwt>
</event>
<event>
 5    1  0.2226716E-003  0.1249055E+03  0.7818608E-02  0.1342303E+00
         11   -1    0    0    0    0  0.00000000000E+00  0.00000000000E+00  0.10001916974E+04  0.10001916974E+04  0.51100000000E-03 0. -1.
          2   -1    0    0  501    0 -0.00000000000E+00 -0.00000000000E+00 -0.84448795094E+03  0.84448795095E+03  0.25500000000E-02 0.  1.
         11    1    1    2    0    0 -0.43057653584E+02  0.15514599795E+03  0.63484298321E+03  0.65494263531E+03  0.51100000000E-03 0. -1.
         22    1    1    2    0    0 -0.10225146632E+02 -0.10164342050E+03  0.34619657487E+03  0.36095430044E+03  0.00000000000E+00 0. -1.
          2    1    1    2  501    0  0.53282800217E+02 -0.53502577450E+02 -0.82533581167E+03  0.82878271255E+03  0.25500000000E-02 0.  1.
<mgrwt>
<rscale>  0 0.75508825E+02</rscale>
<asrwt>0</asrwt>
<pdfrwt beam="1">  1       11 0.10000000E+01 0.12490545E+03</pdfrwt>
<pdfrwt beam="2">  1        2 0.12994613E+00 0.75508825E+02</pdfrwt>
<totfact> 0.43473020E+01</totfact>
</mgrwt>
</event>
<event>
 5    1  0.2226716E-003  0.1143397E+03  0.7818608E-02  0.1252738E+00
         11   -1    0    0    0    0  0.00000000000E+00  0.00000000000E+00  0.10002056454E+04  0.10002056454E+04  0.51100000000E-03 0. -1.
          2   -1    0    0  501    0 -0.00000000000E+00 -0.00000000000E+00 -0.38856593700E+02  0.38856593784E+02  0.25500000000E-02 0. -1.
         11    1    1    2    0    0  0.36154775677E+02  0.10946278560E+03  0.67185996843E+02  0.13342873531E+03  0.51100000000E-03 0. -1.
         22    1    1    2    0    0  0.19735861852E+02 -0.15922565981E+02  0.73142433047E+02  0.77413486309E+02  0.00000000000E+00 0.  1.
          2    1    1    2  501    0 -0.55890637529E+02 -0.93540219616E+02  0.82102062184E+03  0.82822001760E+03  0.25500000000E-02 0. -1.
<mgrwt>
<rscale>  0 0.11433967E+03</rscale>
<asrwt>0</asrwt>
<pdfrwt beam="1">  1       11 0.10000000E+01 0.25358083E+02</pdfrwt>
<pdfrwt beam="2">  1        2 0.59791667E-02 0.11433967E+03</pdfrwt>
<totfact> 0.14341355E+03</totfact>
</mgrwt>
</event>
<event>
 5    1  0.2226716E-003  0.2118146E+03  0.7818608E-02  0.1140137E+00
         11   -1    0    0    0    0  0.00000000000E+00  0.00000000000E+00  0.10001047539E+04  0.10001047539E+04  0.51100000000E-03 0.  1.
          2   -1    0    0  501    0 -0.00000000000E+00 -0.00000000000E+00 -0.11636199797E+03  0.11636199800E+03  0.25500000000E-02 0.  1.
         11    1    1    2    0    0  0.16862702388E+03 -0.13395247933E+02  0.16640028768E+03  0.23728371539E+03  0.51100000000E-03 0.  1.
         22    1    1    2    0    0  0.89786684739E+02 -0.14308477225E+03  0.43109082885E+03  0.46300561932E+03  0.00000000000E+00 0.  1.
          2    1    1    2  501    0 -0.25841370862E+03  0.15648002019E+03  0.28625163942E+03  0.41617741721E+03  0.25500000000E-02 0.  1.
<mgrwt>
<rscale>  0 0.21181458E+03</rscale>
<asrwt>0</asrwt>
<pdfrwt beam="1">  1       11 0.10000000E+01 0.16892277E+03</pdfrwt>
<pdfrwt beam="2">  1        2 0.17903721E-01 0.21181458E+03</pdfrwt>
<totfact> 0.38692438E+02</totfact>
</mgrwt>
</event>
<event>
 5    1  0.2226716E-003  0.3404344E+03  0.7818608E-02  0.1632943E+00
         11   -1    0    0    0    0  0.00000000000E+00  0.00000000000E+00  0.99969313692E+03  0.99969313692E+03  0.51100000000E-03 0.  1.
          2   -1    0    0  501    0 -0.00000000000E+00 -0.00000000000E+00 -0.75694375612E+03  0.75694375612E+03  0.25500000000E-02 0.  1.
         11    1    1    2    0    0 -0.18825001674E+03  0.25726134782E+03 -0.26658125541E+02  0.31989392858E+03  0.51100000000E-03 0.  1.
         22    1    1    2    0    0  0.20982234856E+03 -0.27361317892E+03  0.81788633705E+03  0.88759655811E+03  0.00000000000E+00 0.  1.
          2    1    1    2  501    0 -0.21572331818E+02  0.16351831097E+02 -0.54847883070E+03  0.54914640636E+03  0.25500000000E-02 0.  1.
<mgrwt>
<rscale>  0 0.27069316E+02</rscale>
<asrwt>0</asrwt>
<pdfrwt beam="1">  1       11 0.10000000E+01 0.34043441E+03</pdfrwt>
<pdfrwt beam="2">  1        2 0.11641715E+00 0.27069316E+02</pdfrwt>
<totfact> 0.51450812E+01</totfact>
</mgrwt>
</event>
<event>
 5    1  0.2226716E-003  0.1852270E+03  0.7818608E-02  0.1397448E+00
         11   -1    0    0    0    0  0.00000000000E+00  0.00000000000E+00  0.10002770690E+04  0.10002770690E+04  0.51100000000E-03 0.  1.
         -2   -1    0    0    0  501 -0.00000000000E+00 -0.00000000000E+00 -0.41757461049E+03  0.41757461050E+03  0.25500000000E-02 0. -1.
         11    1    1    2    0    0 -0.23670866138E+03 -0.25892803879E+02 -0.24993312176E+03  0.34520717405E+03  0.51100000000E-03 0.  1.
         22    1    1    2    0    0  0.17882066690E+03  0.42016132051E+02  0.93558146130E+03  0.95344368318E+03  0.00000000000E+00 0.  1.
         -2    1    1    2    0  501  0.57887994473E+02 -0.16123328172E+02 -0.10294588101E+03  0.11920082230E+03  0.25500000000E-02 0. -1.
<mgrwt>
<rscale>  0 0.60091444E+02</rscale>
<asrwt>0</asrwt>
<pdfrwt beam="1">  1       11 0.10000000E+01 0.18522699E+03</pdfrwt>
<pdfrwt beam="2">  1       -2 0.64260045E-01 0.60091444E+02</pdfrwt>
<totfact> 0.18858602E+01</totfact>
</mgrwt>
</event>
<event>
 5    1  0.2226716E-003  0.1155657E+03  0.7818608E-02  0.1250597E+00
         11   -1    0    0    0    0  0.00000000000E+00  0.00000000000E+00  0.10000402087E+04  0.10000402087E+04  0.51100000000E-03 0. -1.
          2   -1    0    0  501    0 -0.00000000000E+00 -0.00000000000E+00 -0.20515855857E+02  0.20515856015E+02  0.25500000000E-02 0. -1.
         11    1    1    2    0    0  0.10058967516E+03 -0.56520867734E+02  0.67419397482E+03  0.68399591148E+03  0.51100000000E-03 0. -1.
         22    1    1    2    0    0  0.87313477536E+01  0.17574646249E+02  0.88256334609E+02  0.90411753787E+02  0.00000000000E+00 0. -1.
          2    1    1    2  501    0 -0.10932102292E+03  0.38946221485E+02  0.21707404341E+03  0.24614839944E+03  0.25500000000E-02 0. -1.
<mgrwt>
<rscale>  0 0.11556575E+03</rscale>
<asrwt>0</asrwt>
<pdfrwt beam="1">  1       11 0.10000000E+01 0.19624083E+02</pdfrwt>
<pdfrwt beam="2">  1        2 0.31564123E-02 0.11556575E+03</pdfrwt>
<totfact> 0.33151275E+03</totfact>
</mgrwt>
</event>
<event>
 5    1  0.2226716E-003  0.2111972E+03  0.7818608E-02  0.1140621E+00
         11   -1    0    0    0    0  0.00000000000E+00  0.00000000000E+00  0.10002773131E+04  0.10002773131E+04  0.51100000000E-03 0. -1.
          2   -1    0    0  501    0 -0.00000000000E+00 -0.00000000000E+00 -0.11581359482E+03  0.11581359485E+03  0.25500000000E-02 0. -1.
         11    1    1    2    0    0  0.18211839480E+03  0.72265559611E+02  0.65001573557E+03  0.67890343740E+03  0.51100000000E-03 0. -1.
         22    1    1    2    0    0  0.33286246552E+02 -0.61916864173E+02  0.20843633163E+03  0.21997130863E+03  0.00000000000E+00 0. -1.
          2    1    1    2  501    0 -0.21540464135E+03 -0.10348695438E+02  0.26011651132E+02  0.21721616196E+03  0.25500000000E-02 0. -1.
<mgrwt>
<rscale>  0 0.21119717E+03</rscale>
<asrwt>0</asrwt>
<pdfrwt beam="1">  1       11 0.10000000E+01 0.70297029E+02</pdfrwt>
<pdfrwt beam="2">  1        2 0.17822417E-01 0.21119717E+03</pdfrwt>
<totfact> 0.38893775E+02</totfact>
</mgrwt>
</event>
<event>
 5    1  0.2226716E-003  0.2108749E+03  0.7818608E-02  0.1581402E+00
         11   -1    0    0    0    0  0.00000000000E+00  0.00000000000E+00  0.10003110059E+04  0.10003110059E+04  0.51100000000E-03 0. -1.
          2   -1    0    0  501    0 -0.00000000000E+00 -0.00000000000E+00 -0.10751956561E+04  0.10751956561E+04  0.25500000000E-02 0. -1.
         11    1    1    2    0    0  0.85892262858E+02  0.18796680988E+03  0.57521360118E+03  0.61121165681E+03  0.51100000000E-03 0. -1.
         22    1    1    2    0    0 -0.63043308866E+02 -0.20974536444E+03  0.37738145935E+03  0.43633054278E+03  0.00000000000E+00 0. -1.
          2    1    1    2  501    0 -0.22848953992E+02  0.21778554560E+02 -0.10274797107E+04  0.10279644624E+04  0.25500000000E-02 0. -1.
<mgrwt>
<rscale>  0 0.31565490E+02</rscale>
<asrwt>0</asrwt>
<pdfrwt beam="1">  1       11 0.10000000E+01 0.21087492E+03</pdfrwt>
<pdfrwt beam="2">  1        2 0.16546616E+00 0.31565490E+02</pdfrwt>
<totfact> 0.33350237E+01</totfact>
</mgrwt>
</event>
<event>
 5    1  0.2226716E-003  0.3138424E+03  0.7818608E-02  0.1078519E+00
         11   -1    0    0    0    0  0.00000000000E+00  0.00000000000E+00  0.10005355092E+04  0.10005355092E+04  0.51100000000E-03 0. -1.
          2   -1    0    0  501    0 -0.00000000000E+00 -0.00000000000E+00 -0.73454134783E+03  0.73454134783E+03  0.25500000000E-02 0. -1.
         11    1    1    2    0    0 -0.18027289654E+03  0.33253287454E+03 -0.36046526164E+03  0.52250515282E+03  0.51100000000E-03 0. -1.
         22    1    1    2    0    0 -0.14400802798E+02 -0.14540746629E+03  0.84972614403E+03  0.86219790897E+03  0.00000000000E+00 0. -1.
          2    1    1    2  501    0  0.19467369933E+03 -0.18712540826E+03 -0.22326672106E+03  0.35037379520E+03  0.25500000000E-02 0. -1.
<mgrwt>
<rscale>  0 0.31384237E+03</rscale>
<asrwt>0</asrwt>
<pdfrwt beam="1">  1       11 0.10000000E+01 0.14611884E+03</pdfrwt>
<pdfrwt beam="2">  1        2 0.11306687E+00 0.31384237E+03</pdfrwt>
<totfact> 0.49083927E+01</totfact>
</mgrwt>
</event>
<event>
 5    1  0.2226716E-003  0.1895246E+03  0.7818608E-02  0.1158891E+00
         11   -1    0    0    0    0  0.00000000000E+00  0.00000000000E+00  0.10002125234E+04  0.10002125234E+04  0.51100000000E-03 0. -1.
          2   -1    0    0  501    0 -0.00000000000E+00 -0.00000000000E+00 -0.20959848019E+03  0.20959848020E+03  0.25500000000E-02 0. -1.
         11    1    1    2    0    0 -0.12510908817E+02 -0.18431932087E+03 -0.11444552790E+02  0.18509757609E+03  0.51100000000E-03 0. -1.
         22    1    1    2    0    0 -0.14563464568E+03  0.22638580036E+02  0.78410564660E+03  0.79783683818E+03  0.00000000000E+00 0. -1.
          2    1    1    2  501    0  0.15814555450E+03  0.16168074084E+03  0.17952949358E+02  0.22687658928E+03  0.25500000000E-02 0. -1.
<mgrwt>
<rscale>  0 0.18952457E+03</rscale>
<asrwt>0</asrwt>
<pdfrwt beam="1">  1       11 0.10000000E+01 0.14738370E+03</pdfrwt>
<pdfrwt beam="2">  1        2 0.32252772E-01 0.18952457E+03</pdfrwt>
<totfact> 0.19948664E+02</totfact>
</mgrwt>
</event>
<event>
 5    1  0.2226716E-003  0.9426040E+02  0.7818608E-02  0.1292851E+00
         11   -1    0    0    0    0  0.00000000000E+00  0.00000000000E+00  0.99994129984E+03  0.99994129984E+03  0.51100000000E-03 0. -1.
          2   -1    0    0  501    0 -0.00000000000E+00 -0.00000000000E+00 -0.86910759744E+01  0.86910763484E+01  0.25500000000E-02 0. -1.
         11    1    1    2    0    0  0.41563830482E+02  0.81100412306E+02  0.43378237328E+03  0.44325159475E+03  0.51100000000E-03 0. -1.
         22    1    1    2    0    0 -0.15827641945E+01 -0.22000987686E+02  0.10199929289E+03  0.10435710015E+03  0.00000000000E+00 0. -1.
          2    1    1    2  501    0 -0.39981066288E+02 -0.59099424620E+02  0.45546855770E+03  0.46102368129E+03  0.25500000000E-02 0. -1.
<mgrwt>
<rscale>  0 0.94260403E+02</rscale>
<asrwt>0</asrwt>
<pdfrwt beam="1">  1       11 0.10000000E+01 0.91130879E+02</pdfrwt>
<pdfrwt beam="2">  1        2 0.13370101E-02 0.94260403E+02</pdfrwt>
<totfact> 0.10322771E+04</totfact>
</mgrwt>
</event>
<event>
 5    1  0.2226716E-003  0.6270174E+03  0.7818608E-02  0.9850886E-01
         11   -1    0    0    0    0  0.00000000000E+00  0.00000000000E+00  0.10000980781E+04  0.10000980781E+04  0.51100000000E-03 0.  1.
          2   -1    0    0  501    0 -0.00000000000E+00 -0.00000000000E+00 -0.11189776610E+04  0.11189776610E+04  0.25500000000E-02 0. -1.
         11    1    1    2    0    0 -0.52526537629E+03  0.30831015320E+03  0.62314988943E+03  0.87136367310E+03  0.51100000000E-03 0.  1.
         22    1    1    2    0    0 -0.30279680815E+02 -0.12322628540E+02  0.15135071829E+03  0.15484103517E+03  0.00000000000E+00 0. -1.
          2    1    1    2  501    0  0.55554505711E+03 -0.29598752466E+03 -0.89338019060E+03  0.10928710309E+04  0.25500000000E-02 0. -1.
<mgrwt>
<rscale>  0 0.62701742E+03</rscale>
<asrwt>0</asrwt>
<pdfrwt beam="1">  1       11 0.10000000E+01 0.32691073E+02</pdfrwt>
<pdfrwt beam="2">  1        2 0.17216729E+00 0.62701742E+03</pdfrwt>
<totfact> 0.26657599E+01</totfact>
</mgrwt>
</event>
<event>
 5    1  0.2226716E-003  0.1602392E+03  0.7818608E-02  0.1188427E+00
         11   -1    0    0    0    0  0.00000000000E+00  0.00000000000E+00  0.10000474546E+04  0.10000474546E+04  0.51100000000E-03 0. -1.
          2   -1    0    0  501    0 -0.00000000000E+00 -0.00000000000E+00 -0.48606591898E+02  0.48606591965E+02  0.25500000000E-02 0. -1.
         11    1    1    2    0    0 -0.71401280815E+02 -0.13201887712E+03  0.95620656198E+02  0.17796189679E+03  0.51100000000E-03 0. -1.
         22    1    1    2    0    0  0.75103941170E+01  0.51515519656E+02  0.19070632021E+03  0.19768448435E+03  0.00000000000E+00 0. -1.
          2    1    1    2  501    0  0.63890886698E+02  0.80503357464E+02  0.66511388628E+03  0.67300766540E+03  0.25500000000E-02 0. -1.
<mgrwt>
<rscale>  0 0.16023918E+03</rscale>
<asrwt>0</asrwt>
<pdfrwt beam="1">  1       11 0.10000000E+01 0.15009047E+03</pdfrwt>
<pdfrwt beam="2">  1        2 0.74782919E-02 0.16023918E+03</pdfrwt>
<totfact> 0.11043845E+03</totfact>
</mgrwt>
</event>
<event>
 5    1  0.2226716E-003  0.2540129E+03  0.7818608E-02  0.1110795E+00
         11   -1    0    0    0    0  0.00000000000E+00  0.00000000000E+00  0.10002522511E+04  0.10002522511E+04  0.51100000000E-03 0. -1.
          2   -1    0    0  501    0 -0.00000000000E+00 -0.00000000000E+00 -0.94559839872E+03  0.94559839872E+03  0.25500000000E-02 0. -1.
         11    1    1    2    0    0 -0.21382365839E+03  0.10534069126E+03  0.90539174271E+03  0.93624325145E+03  0.51100000000E-03 0. -1.
         22    1    1    2    0    0 -0.36041681682E+02 -0.57124867139E+02  0.43184517419E+02  0.80169544148E+02  0.00000000000E+00 0. -1.
          2    1    1    2  501    0  0.24986534008E+03 -0.48215824120E+02 -0.89392240772E+03  0.92943785425E+03  0.25500000000E-02 0. -1.
<mgrwt>
<rscale>  0 0.25401288E+03</rscale>
<asrwt>0</asrwt>
<pdfrwt beam="1">  1       11 0.10000000E+01 0.67544454E+02</pdfrwt>
<pdfrwt beam="2">  1        2 0.14551337E+00 0.25401288E+03</pdfrwt>
<totfact> 0.35603674E+01</totfact>
</mgrwt>
</event>
<event>
 5    1  0.2226716E-003  0.1267319E+03  0.7818608E-02  0.1530034E+00
         11   -1    0    0    0    0  0.00000000000E+00  0.00000000000E+00  0.10001143580E+04  0.10001143580E+04  0.51100000000E-03 0. -1.
          2   -1    0    0  501    0 -0.00000000000E+00 -0.00000000000E+00 -0.18739935699E+02  0.18739935873E+02  0.25500000000E-02 0. -1.
         11    1    1    2    0    0 -0.12398706381E+03 -0.33721382512E+02  0.61813973693E+03  0.63135303753E+03  0.51100000000E-03 0. -1.
         22    1    1    2    0    0  0.21134796515E+01  0.10702325270E+02  0.27010413711E+02  0.29130207882E+02  0.00000000000E+00 0.  1.
          2    1    1    2  501    0  0.12187358416E+03  0.23019057242E+02  0.33622427163E+03  0.35837104842E+03  0.25500000000E-02 0. -1.
<mgrwt>
<rscale>  0 0.37182257E+02</rscale>
<asrwt>0</asrwt>
<pdfrwt beam="1">  1       11 0.10000000E+01 0.12673193E+03</pdfrwt>
<pdfrwt beam="2">  1        2 0.28833967E-02 0.37182257E+02</pdfrwt>
<totfact> 0.32491728E+03</totfact>
</mgrwt>
</event>
<event>
 5    1  0.2226716E-003  0.1004664E+03  0.7818608E-02  0.1279318E+00
         11   -1    0    0    0    0  0.00000000000E+00  0.00000000000E+00  0.10003977511E+04  0.10003977511E+04  0.51100000000E-03 0.  1.
         -2   -1    0    0    0  501 -0.00000000000E+00 -0.00000000000E+00 -0.42843191299E+02  0.42843191375E+02  0.25500000000E-02 0.  1.
         11    1    1    2    0    0  0.21830193497E+02  0.12587838005E+03  0.63030473700E+03  0.64312206104E+03  0.51100000000E-03 0.  1.
         22    1    1    2    0    0 -0.38802185270E+02 -0.29162406564E+02  0.29166445369E+03  0.29567585137E+03  0.00000000000E+00 0.  1.
         -2    1    1    2    0  501  0.16971991773E+02 -0.96715973486E+02  0.35585369144E+02  0.10444303010E+03  0.25500000000E-02 0.  1.
<mgrwt>
<rscale>  0 0.10046644E+03</rscale>
<asrwt>0</asrwt>
<pdfrwt beam="1">  1       11 0.10000000E+01 0.48539216E+02</pdfrwt>
<pdfrwt beam="2">  1       -2 0.65938817E-02 0.10046644E+03</pdfrwt>
<totfact> 0.94889871E+02</totfact>
</mgrwt>
</event>
<event>
 5    1  0.2226716E-003  0.4686581E+03  0.7818608E-02  0.1022300E+00
         11   -1    0    0    0    0  0.00000000000E+00  0.00000000000E+00  0.10002108345E+04  0.10002108345E+04  0.51100000000E-03 0.  1.
          2   -1    0    0  501    0 -0.00000000000E+00 -0.00000000000E+00 -0.77080827126E+03  0.77080827126E+03  0.25500000000E-02 0.  1.
         11    1    1    2    0    0  0.28800493355E+03  0.32520776499E+03  0.65871266590E+03  0.78905596023E+03  0.51100000000E-03 0.  1.
         22    1    1    2    0    0  0.57274215524E+02 -0.24846493494E+01  0.19254163688E+03  0.20089497550E+03  0.00000000000E+00 0. -1.
          2    1    1    2  501    0 -0.34527914907E+03 -0.32272311564E+03 -0.62185173958E+03  0.78106816999E+03  0.25500000000E-02 0.  1.
<mgrwt>
<rscale>  0 0.46865810E+03</rscale>
<asrwt>0</asrwt>
<pdfrwt beam="1">  1       11 0.10000000E+01 0.57328084E+02</pdfrwt>
<pdfrwt beam="2">  1        2 0.11861089E+00 0.46865810E+03</pdfrwt>
<totfact> 0.45590598E+01</totfact>
</mgrwt>
</event>
<event>
 5    1  0.2226716E-003  0.8529071E+02  0.7818608E-02  0.1314674E+00
         11   -1    0    0    0    0  0.00000000000E+00  0.00000000000E+00  0.10004193819E+04  0.10004193819E+04  0.51100000000E-03 0. -1.
          2   -1    0    0  501    0 -0.00000000000E+00 -0.00000000000E+00 -0.87452800392E+01  0.87452804110E+01  0.25500000000E-02 0. -1.
         11    1    1    2    0    0  0.15878541302E+02 -0.82760592024E+02  0.35019466924E+03  0.36019126868E+03  0.51100000000E-03 0. -1.
         22    1    1    2    0    0  0.10887569533E+02 -0.39705793224E+00  0.63067076365E+02  0.64001194884E+02  0.00000000000E+00 0.  1.
          2    1    1    2  501    0 -0.26766110835E+02  0.83157649956E+02  0.57841235620E+03  0.58497219870E+03  0.25500000000E-02 0. -1.
<mgrwt>
<rscale>  0 0.85290707E+02</rscale>
<asrwt>0</asrwt>
<pdfrwt beam="1">  1       11 0.10000000E+01 0.10894807E+02</pdfrwt>
<pdfrwt beam="2">  1        2 0.13459919E-02 0.85290707E+02</pdfrwt>
<totfact> 0.10080010E+04</totfact>
</mgrwt>
</event>
<event>
 5    1  0.2226716E-003  0.1280588E+03  0.7818608E-02  0.1401661E+00
         11   -1    0    0    0    0  0.00000000000E+00  0.00000000000E+00  0.10002508140E+04  0.10002508140E+04  0.51100000000E-03 0. -1.
          2   -1    0    0  501    0 -0.00000000000E+00 -0.00000000000E+00 -0.19104381168E+03  0.19104381170E+03  0.25500000000E-02 0. -1.
         11    1    1    2    0    0  0.11415430012E+03  0.85156683450E+01  0.17493632481E+03  0.20906084899E+03  0.51100000000E-03 0. -1.
         22    1    1    2    0    0 -0.11757225028E+03 -0.67513665292E+02  0.79734088856E+03  0.80878539898E+03  0.00000000000E+00 0. -1.
          2    1    1    2  501    0  0.34179501571E+01  0.58997996948E+02 -0.16307021100E+03  0.17344837777E+03  0.25500000000E-02 0. -1.
<mgrwt>
<rscale>  0 0.59096921E+02</rscale>
<asrwt>0</asrwt>
<pdfrwt beam="1">  1       11 0.10000000E+01 0.12805875E+03</pdfrwt>
<pdfrwt beam="2">  1        2 0.29398727E-01 0.59096921E+02</pdfrwt>
<totfact> 0.21503344E+02</totfact>
</mgrwt>
</event>
<event>
 5    1  0.2226716E-003  0.2018293E+03  0.7818608E-02  0.1614457E+00
         11   -1    0    0    0    0  0.00000000000E+00  0.00000000000E+00  0.10000187842E+04  0.10000187842E+04  0.51100000000E-03 0. -1.
         -2   -1    0    0    0  501 -0.00000000000E+00 -0.00000000000E+00 -0.82582113692E+02  0.82582113731E+02  0.25500000000E-02 0. -1.
         11    1    1    2    0    0 -0.17494497493E+02 -0.20438611428E+03  0.49616943946E+03  0.53690208960E+03  0.51100000000E-03 0. -1.
         22    1    1    2    0    0  0.44284156858E+02  0.19445873127E+03  0.45777975645E+03  0.49933715077E+03  0.00000000000E+00 0. -1.
         -2    1    1    2    0  501 -0.26789659365E+02  0.99273830141E+01 -0.36512525361E+02  0.46361657619E+02  0.25500000000E-02 0. -1.
<mgrwt>
<rscale>  0 0.28569893E+02</rscale>
<asrwt>0</asrwt>
<pdfrwt beam="1">  1       11 0.10000000E+01 0.20182929E+03</pdfrwt>
<pdfrwt beam="2">  1       -2 0.12705179E-01 0.28569893E+02</pdfrwt>
<totfact> 0.31451512E+02</totfact>
</mgrwt>
</event>
<event>
 5    1  0.2226716E-003  0.2195976E+03  0.7818608E-02  0.1134183E+00
         11   -1    0    0    0    0  0.00000000000E+00  0.00000000000E+00  0.10005442326E+04  0.10005442326E+04  0.51100000000E-03 0.  1.
          2   -1    0    0  501    0 -0.00000000000E+00 -0.00000000000E+00 -0.67459827105E+03  0.67459827106E+03  0.25500000000E-02 0. -1.
         11    1    1    2    0    0  0.54403402146E+02 -0.16833778685E+03  0.53833143227E+03  0.56665516111E+03  0.51100000000E-03 0.  1.
         22    1    1    2    0    0 -0.12947370482E+03 -0.40907546391E+02  0.41829136131E+03  0.43977781952E+03  0.00000000000E+00 0.  1.
          2    1    1    2  501    0  0.75070302669E+02  0.20924533324E+03 -0.63067683199E+03  0.66870952307E+03  0.25500000000E-02 0. -1.
<mgrwt>
<rscale>  0 0.21959764E+03</rscale>
<asrwt>0</asrwt>
<pdfrwt beam="1">  1       11 0.10000000E+01 0.13578243E+03</pdfrwt>
<pdfrwt beam="2">  1        2 0.10384083E+00 0.21959764E+03</pdfrwt>
<totfact> 0.55050177E+01</totfact>
</mgrwt>
</event>
<event>
 5    1  0.2226716E-003  0.1151698E+03  0.7818608E-02  0.1351321E+00
         11   -1    0    0    0    0  0.00000000000E+00  0.00000000000E+00  0.10000775964E+04  0.10000775964E+04  0.51100000000E-03 0.  1.
         -2   -1    0    0    0  501 -0.00000000000E+00 -0.00000000000E+00 -0.67868320180E+02  0.67868320228E+02  0.25500000000E-02 0. -1.
         11    1    1    2    0    0 -0.13447986285E+03 -0.86041410726E+02  0.56933349707E+03  0.59129399519E+03  0.51100000000E-03 0.  1.
         22    1    1    2    0    0  0.63911060597E+02  0.68795615888E+02  0.38844833753E+03  0.39963679931E+03  0.00000000000E+00 0.  1.
         -2    1    1    2    0  501  0.70568802248E+02  0.17245794838E+02 -0.25572558363E+02  0.77015122139E+02  0.25500000000E-02 0. -1.
<mgrwt>
<rscale>  0 0.72645532E+02</rscale>
<asrwt>0</asrwt>
<pdfrwt beam="1">  1       11 0.10000000E+01 0.11516977E+03</pdfrwt>
<pdfrwt beam="2">  1       -2 0.10442090E-01 0.72645532E+02</pdfrwt>
<totfact> 0.45788584E+02</totfact>
</mgrwt>
</event>
<event>
 5    1  0.2226716E-003  0.1451478E+03  0.7818608E-02  0.1213338E+00
         11   -1    0    0    0    0  0.00000000000E+00  0.00000000000E+00  0.10001311170E+04  0.10001311170E+04  0.51100000000E-03 0.  1.
          2   -1    0    0  501    0 -0.00000000000E+00 -0.00000000000E+00 -0.27000865658E+02  0.27000865779E+02  0.25500000000E-02 0.  1.
         11    1    1    2    0    0 -0.83008107508E+02  0.95238882665E+02  0.66492398078E+03  0.67681954087E+03  0.51100000000E-03 0.  1.
         22    1    1    2    0    0  0.14708361354E+01  0.18557925789E+02  0.83621269971E+02  0.85668411682E+02  0.00000000000E+00 0. -1.
          2    1    1    2  501    0  0.81537271373E+02 -0.11379680845E+03  0.22458500057E+03  0.26464403020E+03  0.25500000000E-02 0.  1.
<mgrwt>
<rscale>  0 0.13999300E+03</rscale>
<asrwt>0</asrwt>
<pdfrwt beam="1">  1       11 0.10000000E+01 0.14514781E+03</pdfrwt>
<pdfrwt beam="2">  1        2 0.41545239E-02 0.13999300E+03</pdfrwt>
<totfact> 0.23438414E+03</totfact>
</mgrwt>
</event>
<event>
 5    1  0.2226716E-003  0.1781938E+03  0.7818608E-02  0.1169563E+00
         11   -1    0    0    0    0  0.00000000000E+00  0.00000000000E+00  0.10002906179E+04  0.10002906179E+04  0.51100000000E-03 0. -1.
          2   -1    0    0  501    0 -0.00000000000E+00 -0.00000000000E+00 -0.60280580334E+03  0.60280580334E+03  0.25500000000E-02 0. -1.
         11    1    1    2    0    0 -0.16073699403E+02 -0.17126658736E+03  0.80940011063E+03  0.82747758087E+03  0.51100000000E-03 0. -1.
         22    1    1    2    0    0 -0.69784108543E+02  0.14740243805E+02  0.16070089955E+03  0.17581773434E+03  0.00000000000E+00 0.  1.
          2    1    1    2  501    0  0.85857807947E+02  0.15652634355E+03 -0.57261619557E+03  0.59980110607E+03  0.25500000000E-02 0. -1.
<mgrwt>
<rscale>  0 0.17819383E+03</rscale>
<asrwt>0</asrwt>
<pdfrwt beam="1">  1       11 0.10000000E+01 0.71323885E+02</pdfrwt>
<pdfrwt beam="2">  1        2 0.92766303E-01 0.17819383E+03</pdfrwt>
<totfact> 0.63177728E+01</totfact>
</mgrwt>
</event>
<event>
 5    1  0.2226716E-003  0.3517021E+03  0.7818608E-02  0.1061919E+00
         11   -1    0    0    0    0  0.00000000000E+00  0.00000000000E+00  0.99988293617E+03  0.99988293617E+03  0.51100000000E-03 0. -1.
         -2   -1    0    0    0  501 -0.00000000000E+00 -0.00000000000E+00 -0.21209015873E+03  0.21209015875E+03  0.25500000000E-02 0.  1.
         11    1    1    2    0    0  0.60712446174E+02  0.35114235166E+03  0.64818079973E+03  0.73967918815E+03  0.51100000000E-03 0. -1.
         22    1    1    2    0    0  0.25133398850E+02 -0.11142817143E+02  0.11777905892E+03  0.12094526378E+03  0.00000000000E+00 0. -1.
         -2    1    1    2    0  501 -0.85845845024E+02 -0.33999953451E+03  0.21832918789E+02  0.35134864298E+03  0.25500000000E-02 0.  1.
<mgrwt>
<rscale>  0 0.35170210E+03</rscale>
<asrwt>0</asrwt>
<pdfrwt beam="1">  1       11 0.10000000E+01 0.27492728E+02</pdfrwt>
<pdfrwt beam="2">  1       -2 0.32625435E-01 0.35170210E+03</pdfrwt>
<totfact> 0.70819294E+01</totfact>
</mgrwt>
</event>
<event>
 5    1  0.2226716E-003  0.1249114E+03  0.7818608E-02  0.1355252E+00
         11   -1    0    0    0    0  0.00000000000E+00  0.00000000000E+00  0.99986299273E+03  0.99986299273E+03  0.51100000000E-03 0. -1.
          2   -1    0    0  501    0 -0.00000000000E+00 -0.00000000000E+00 -0.68579710238E+02  0.68579710285E+02  0.25500000000E-02 0. -1.
         11    1    1    2    0    0  0.13736712594E+02 -0.11852762816E+03  0.35798027179E+03  0.37734251139E+03  0.51100000000E-03 0. -1.
         22    1    1    2    0    0 -0.84517904093E+02  0.10882143500E+03  0.59940478401E+03  0.61503778414E+03  0.00000000000E+00 0. -1.
          2    1    1    2  501    0  0.70781191499E+02  0.97061931587E+01 -0.26101773311E+02  0.76062407483E+02  0.25500000000E-02 0. -1.
<mgrwt>
<rscale>  0 0.71443595E+02</rscale>
<asrwt>0</asrwt>
<pdfrwt beam="1">  1       11 0.10000000E+01 0.12491141E+03</pdfrwt>
<pdfrwt beam="2">  1        2 0.10549279E-01 0.71443595E+02</pdfrwt>
<totfact> 0.68563690E+02</totfact>
</mgrwt>
</event>
<event>
 5    1  0.2226716E-003  0.1912969E+03  0.7818608E-02  0.1157297E+00
         11   -1    0    0    0    0  0.00000000000E+00  0.00000000000E+00  0.99989384885E+03  0.99989384885E+03  0.51100000000E-03 0. -1.
          2   -1    0    0  501    0 -0.00000000000E+00 -0.00000000000E+00 -0.10124598398E+04  0.10124598398E+04  0.25500000000E-02 0. -1.
         11    1    1    2    0    0  0.26410126786E+03 -0.29825732524E+02  0.93608570163E+02  0.28178292782E+03  0.51100000000E-03 0. -1.
         22    1    1    2    0    0 -0.11789882678E+03 -0.90741211725E+02  0.79545160535E+03  0.80924493037E+03  0.00000000000E+00 0. -1.
          2    1    1    2  501    0 -0.14620244108E+03  0.12056694425E+03 -0.90162616644E+03  0.92132583044E+03  0.25500000000E-02 0. -1.
<mgrwt>
<rscale>  0 0.19129687E+03</rscale>
<asrwt>0</asrwt>
<pdfrwt beam="1">  1       11 0.10000000E+01 0.14877534E+03</pdfrwt>
<pdfrwt beam="2">  1        2 0.15574651E+00 0.19129687E+03</pdfrwt>
<totfact> 0.32832147E+01</totfact>
</mgrwt>
</event>
<event>
 5    1  0.2226716E-003  0.2652391E+03  0.7818608E-02  0.1391353E+00
         11   -1    0    0    0    0  0.00000000000E+00  0.00000000000E+00  0.10003703811E+04  0.10003703811E+04  0.51100000000E-03 0.  1.
          2   -1    0    0  501    0 -0.00000000000E+00 -0.00000000000E+00 -0.14701519064E+03  0.14701519066E+03  0.25500000000E-02 0.  1.
         11    1    1    2    0    0  0.49162360397E+02  0.25173398060E+03  0.53689042378E+03  0.59501114427E+03  0.51100000000E-03 0.  1.
         22    1    1    2    0    0  0.37927418543E+01 -0.28314720519E+03  0.37332089297E+03  0.46856719244E+03  0.00000000000E+00 0.  1.
          2    1    1    2  501    0 -0.52955102252E+02  0.31413224587E+02 -0.56856126327E+02  0.83807235015E+02  0.25500000000E-02 0.  1.
<mgrwt>
<rscale>  0 0.61571369E+02</rscale>
<asrwt>0</asrwt>
<pdfrwt beam="1">  1       11 0.10000000E+01 0.26523913E+03</pdfrwt>
<pdfrwt beam="2">  1        2 0.22626098E-01 0.61571369E+02</pdfrwt>
<totfact> 0.28499521E+02</totfact>
</mgrwt>
</event>
<event>
 5    1  0.2226716E-003  0.1399797E+03  0.7818608E-02  0.1213356E+00
         11   -1    0    0    0    0  0.00000000000E+00  0.00000000000E+00  0.10000449916E+04  0.10000449916E+04  0.51100000000E-03 0. -1.
          2   -1    0    0  501    0 -0.00000000000E+00 -0.00000000000E+00 -0.41706945501E+03  0.41706945502E+03  0.25500000000E-02 0. -1.
         11    1    1    2    0    0  0.24230403073E+01  0.12717505623E+03  0.61635988560E+03  0.62934797579E+03  0.51100000000E-03 0. -1.
         22    1    1    2    0    0 -0.96124080372E+02 -0.21961741837E+02  0.35824447816E+03  0.37156596058E+03  0.00000000000E+00 0. -1.
          2    1    1    2  501    0  0.93701040065E+02 -0.10521331439E+03 -0.39162882719E+03  0.41620051024E+03  0.25500000000E-02 0. -1.
<mgrwt>
<rscale>  0 0.13997966E+03</rscale>
<asrwt>0</asrwt>
<pdfrwt beam="1">  1       11 0.10000000E+01 0.98600999E+02</pdfrwt>
<pdfrwt beam="2">  1        2 0.64167417E-01 0.13997966E+03</pdfrwt>
<totfact> 0.95371791E+01</totfact>
</mgrwt>
</event>
<event>
 5    1  0.2226716E-003  0.3960030E+03  0.7818608E-02  0.1045173E+00
         11   -1    0    0    0    0  0.00000000000E+00  0.00000000000E+00  0.10002397779E+04  0.10002397779E+04  0.51100000000E-03 0. -1.
          2   -1    0    0  501    0 -0.00000000000E+00 -0.00000000000E+00 -0.18027797586E+03  0.18027797588E+03  0.25500000000E-02 0.  1.
         11    1    1    2    0    0  0.31964606479E+03 -0.23270289603E+03  0.58359024144E+03  0.70491262896E+03  0.51100000000E-03 0. -1.
         22    1    1    2    0    0 -0.58606603805E+01 -0.94828980356E+01  0.22734937866E+02  0.25320941827E+02  0.00000000000E+00 0.  1.
          2    1    1    2  501    0 -0.31378540441E+03  0.24218579406E+03  0.21363662270E+03  0.45028418297E+03  0.25500000000E-02 0.  1.
<mgrwt>
<rscale>  0 0.39600300E+03</rscale>
<asrwt>0</asrwt>
<pdfrwt beam="1">  1       11 0.10000000E+01 0.11147766E+02</pdfrwt>
<pdfrwt beam="2">  1        2 0.27741723E-01 0.39600300E+03</pdfrwt>
<totfact> 0.23815441E+02</totfact>
</mgrwt>
</event>
<event>
 5    1  0.2226716E-003  0.5367487E+03  0.7818608E-02  0.1004608E+00
         11   -1    0    0    0    0  0.00000000000E+00  0.00000000000E+00  0.99995571817E+03  0.99995571817E+03  0.51100000000E-03 0. -1.
          2   -1    0    0  501    0 -0.00000000000E+00 -0.00000000000E+00 -0.29475945419E+03  0.29475945420E+03  0.25500000000E-02 0. -1.
         11    1    1    2    0    0 -0.28959836865E+03  0.44976358766E+03  0.32045793800E+03  0.62357661112E+03  0.51100000000E-03 0. -1.
         22    1    1    2    0    0  0.64017743778E+01  0.85786903484E+01  0.11504014455E+02  0.15713656222E+02  0.00000000000E+00 0. -1.
          2    1    1    2  501    0  0.28319659427E+03 -0.45834227801E+03  0.37323431152E+03  0.65542490502E+03  0.25500000000E-02 0. -1.
<mgrwt>
<rscale>  0 0.53674872E+03</rscale>
<asrwt>0</asrwt>
<pdfrwt beam="1">  1       11 0.10000000E+01 0.10704048E+02</pdfrwt>
<pdfrwt beam="2">  1        2 0.45345599E-01 0.53674872E+03</pdfrwt>
<totfact> 0.13839071E+02</totfact>
</mgrwt>
</event>
<event>
 5    1  0.2226716E-003  0.1097121E+03  0.7818608E-02  0.1261104E+00
         11   -1    0    0    0    0  0.00000000000E+00  0.00000000000E+00  0.99990531585E+03  0.99990531585E+03  0.51100000000E-03 0. -1.
          2   -1    0    0  501    0 -0.00000000000E+00 -0.00000000000E+00 -0.48888859613E+02  0.48888859679E+02  0.25500000000E-02 0. -1.
         11    1    1    2    0    0  0.21778319804E+02 -0.79648936937E+02  0.13418568803E+03  0.15755648905E+03  0.51100000000E-03 0. -1.
         22    1    1    2    0    0  0.79969645738E+02  0.11733321016E+03  0.75104484723E+03  0.76434978184E+03  0.00000000000E+00 0. -1.
          2    1    1    2  501    0 -0.10174796554E+03 -0.37684273219E+02  0.65785920982E+02  0.12688790465E+03  0.25500000000E-02 0. -1.
<mgrwt>
<rscale>  0 0.10971214E+03</rscale>
<asrwt>0</asrwt>
<pdfrwt beam="1">  1       11 0.10000000E+01 0.82572727E+02</pdfrwt>
<pdfrwt beam="2">  1        2 0.75206507E-02 0.10971214E+03</pdfrwt>
<totfact> 0.10688696E+03</totfact>
</mgrwt>
</event>
<event>
 5    1  0.2226716E-003  0.6855857E+03  0.7818608E-02  0.1273921E+00
         11   -1    0    0    0    0  0.00000000000E+00  0.00000000000E+00  0.10008770807E+04  0.10008770807E+04  0.51100000000E-03 0.  1.
          2   -1    0    0  501    0 -0.00000000000E+00 -0.00000000000E+00 -0.17038186583E+04  0.17038186583E+04  0.25500000000E-02 0.  1.
         11    1    1    2    0    0  0.47105279698E+03 -0.49828726883E+03  0.79311462255E+03  0.10484329947E+04  0.51100000000E-03 0.  1.
         22    1    1    2    0    0  0.10187219773E+02  0.11685581400E+02 -0.61248510008E+01  0.16668714981E+02  0.00000000000E+00 0. -1.
          2    1    1    2  501    0 -0.48124001675E+03  0.48660168743E+03 -0.14899313492E+04  0.16395940294E+04  0.25500000000E-02 0.  1.
<mgrwt>
<rscale>  0 0.10309412E+03</rscale>
<asrwt>0</asrwt>
<pdfrwt beam="1">  1       11 0.10000000E+01 0.68558575E+03</pdfrwt>
<pdfrwt beam="2">  1        2 0.26235585E+00 0.10309412E+03</pdfrwt>
<totfact> 0.14488077E+01</totfact>
</mgrwt>
</event>
<event>
 5    1  0.2226716E-003  0.1042160E+03  0.7818608E-02  0.1271672E+00
         11   -1    0    0    0    0  0.00000000000E+00  0.00000000000E+00  0.10004217978E+04  0.10004217978E+04  0.51100000000E-03 0. -1.
          2   -1    0    0  501    0 -0.00000000000E+00 -0.00000000000E+00 -0.19652901286E+02  0.19652901451E+02  0.25500000000E-02 0. -1.
         11    1    1    2    0    0  0.99336210979E+02  0.21919791616E+02  0.16510400261E+03  0.19392651122E+03  0.51100000000E-03 0. -1.
         22    1    1    2    0    0  0.14225551972E+02 -0.42728888805E+01  0.60976574685E+02  0.62759593438E+02  0.00000000000E+00 0.  1.
          2    1    1    2  501    0 -0.11356176295E+03 -0.17646902736E+02  0.75468831917E+03  0.76338859454E+03  0.25500000000E-02 0. -1.
<mgrwt>
<rscale>  0 0.10421597E+03</rscale>
<asrwt>0</asrwt>
<pdfrwt beam="1">  1       11 0.10000000E+01 0.14853414E+02</pdfrwt>
<pdfrwt beam="2">  1        2 0.30247985E-02 0.10421597E+03</pdfrwt>
<totfact> 0.34706675E+03</totfact>
</mgrwt>
</event>
<event>
 5    1  0.2226716E-003  0.2056293E+03  0.7818608E-02  0.1249812E+00
         11   -1    0    0    0    0  0.00000000000E+00  0.00000000000E+00  0.10001153412E+04  0.10001153412E+04  0.51100000000E-03 0. -1.
          2   -1    0    0  501    0 -0.00000000000E+00 -0.00000000000E+00 -0.72009818174E+03  0.72009818175E+03  0.25500000000E-02 0.  1.
         11    1    1    2    0    0 -0.13790497600E+03  0.25217636749E+02  0.15810119512E+03  0.21130475505E+03  0.51100000000E-03 0. -1.
         22    1    1    2    0    0  0.24691709669E+03 -0.64928010198E+02  0.79030692038E+03  0.83052316496E+03  0.00000000000E+00 0. -1.
          2    1    1    2  501    0 -0.10901212068E+03  0.39710373448E+02 -0.66839095601E+03  0.67838560296E+03  0.25500000000E-02 0.  1.
<mgrwt>
<rscale>  0 0.11601964E+03</rscale>
<asrwt>0</asrwt>
<pdfrwt beam="1">  1       11 0.10000000E+01 0.20562932E+03</pdfrwt>
<pdfrwt beam="2">  1        2 0.11079711E+00 0.11601964E+03</pdfrwt>
<totfact> 0.51931091E+01</totfact>
</mgrwt>
</event>
<event>
 5    1  0.2226716E-003  0.5047010E+02  0.7818608E-02  0.1577603E+00
         11   -1    0    0    0    0  0.00000000000E+00  0.00000000000E+00  0.10003854815E+04  0.10003854815E+04  0.51100000000E-03 0. -1.
          2   -1    0    0  501    0 -0.00000000000E+00 -0.00000000000E+00 -0.79398825797E+01  0.79398829892E+01  0.25500000000E-02 0. -1.
         11    1    1    2    0    0  0.23582347783E+02  0.33337844252E+02  0.62172999218E+02  0.74384278032E+02  0.51100000000E-03 0. -1.
         22    1    1    2    0    0  0.19725498533E+02 -0.44028002555E+01  0.99197939415E+02  0.10123591816E+03  0.00000000000E+00 0.  1.
          2    1    1    2  501    0 -0.43307846316E+02 -0.28935043996E+02  0.83107466034E+03  0.83270516834E+03  0.25500000000E-02 0. -1.
<mgrwt>
<rscale>  0 0.31938143E+02</rscale>
<asrwt>0</asrwt>
<pdfrwt beam="1">  1       11 0.10000000E+01 0.50470102E+02</pdfrwt>
<pdfrwt beam="2">  1        2 0.12219913E-02 0.31938143E+02</pdfrwt>
<totfact> 0.97026111E+03</totfact>
</mgrwt>
</event>
<event>
 5    1  0.2226716E-003  0.2135748E+03  0.7818608E-02  0.1142050E+00
         11   -1    0    0    0    0  0.00000000000E+00  0.00000000000E+00  0.10003690667E+04  0.10003690667E+04  0.51100000000E-03 0. -1.
          2   -1    0    0  501    0 -0.00000000000E+00 -0.00000000000E+00 -0.90114895167E+02  0.90114895203E+02  0.25500000000E-02 0. -1.
         11    1    1    2    0    0  0.19313192680E+03  0.63515860834E+02  0.79692031213E+03  0.82244525022E+03  0.51100000000E-03 0. -1.
         22    1    1    2    0    0  0.30602514808E+01  0.96450717169E+01  0.47467556659E+02  0.48534126991E+02  0.00000000000E+00 0. -1.
          2    1    1    2  501    0 -0.19619217828E+03 -0.73160932551E+02  0.65866302782E+02  0.21950458473E+03  0.25500000000E-02 0. -1.
<mgrwt>
<rscale>  0 0.20938933E+03</rscale>
<asrwt>0</asrwt>
<pdfrwt beam="1">  1       11 0.10000000E+01 0.21357482E+03</pdfrwt>
<pdfrwt beam="2">  1        2 0.13868946E-01 0.20938933E+03</pdfrwt>
<totfact> 0.52251466E+02</totfact>
</mgrwt>
</event>
<event>
 5    1  0.3067263E-003  0.1709924E+03  0.7818608E-02  0.1181815E+00
         11   -1    0    0    0    0  0.00000000000E+00  0.00000000000E+00  0.10004370005E+04  0.10004370005E+04  0.51100000000E-03 0.  1.
          2   -1    0    0  501    0 -0.00000000000E+00 -0.00000000000E+00 -0.58552179158E+03  0.58552179158E+03  0.25500000000E-02 0.  1.
         11    1    1    2    0    0  0.89914958954E+02 -0.11471256692E+03  0.87921295418E+03  0.89121214739E+03  0.51100000000E-03 0.  1.
         22    1    1    2    0    0  0.22809905857E+02 -0.74853949307E+01  0.10187723694E+03  0.10466754200E+03  0.00000000000E+00 0.  1.
          2    1    1    2  501    0 -0.11272486481E+03  0.12219796185E+03 -0.56617498217E+03  0.59007910272E+03  0.25500000000E-02 0.  1.
<mgrwt>
<rscale>  0 0.16625052E+03</rscale>
<asrwt>0</asrwt>
<pdfrwt beam="1">  1       11 0.10000000E+01 0.17099238E+03</pdfrwt>
<pdfrwt beam="2">  1        2 0.90119638E-01 0.16625052E+03</pdfrwt>
<totfact> 0.65410571E+01</totfact>
</mgrwt>
</event>
<event>
 5    1  0.2226716E-003  0.1501765E+03  0.7818608E-02  0.1200256E+00
         11   -1    0    0    0    0  0.00000000000E+00  0.00000000000E+00  0.10003485782E+04  0.10003485782E+04  0.51100000000E-03 0. -1.
          2   -1    0    0  501    0 -0.00000000000E+00 -0.00000000000E+00 -0.23907153111E+03  0.23907153113E+03  0.25500000000E-02 0. -1.
         11    1    1    2    0    0  0.12946549856E+03  0.53437589578E+02  0.79543852695E+03  0.80767526980E+03  0.51100000000E-03 0. -1.
         22    1    1    2    0    0  0.18925666762E+02 -0.27817598875E+02  0.17266137469E+03  0.17590892524E+03  0.00000000000E+00 0. -1.
          2    1    1    2  501    0 -0.14839116532E+03 -0.25619990703E+02 -0.20682285455E+03  0.25583591429E+03  0.25500000000E-02 0. -1.
<mgrwt>
<rscale>  0 0.15017647E+03</rscale>
<asrwt>0</asrwt>
<pdfrwt beam="1">  1       11 0.10000000E+01 0.33645203E+02</pdfrwt>
<pdfrwt beam="2">  1        2 0.36793055E-01 0.15017647E+03</pdfrwt>
<totfact> 0.17251635E+02</totfact>
</mgrwt>
</event>
<event>
 5    1  0.2226716E-003  0.1144719E+03  0.7818608E-02  0.1252506E+00
         11   -1    0    0    0    0  0.00000000000E+00  0.00000000000E+00  0.99993011953E+03  0.99993011953E+03  0.51100000000E-03 0.  1.
         -2   -1    0    0    0  501 -0.00000000000E+00 -0.00000000000E+00 -0.77874627354E+02  0.77874627396E+02  0.25500000000E-02 0. -1.
         11    1    1    2    0    0  0.62930478484E+02 -0.11974308910E+03  0.68042405338E+03  0.69374025754E+03  0.51100000000E-03 0.  1.
         22    1    1    2    0    0  0.18910990539E+02  0.41104052464E+02  0.26445108472E+03  0.26829376605E+03  0.00000000000E+00 0. -1.
         -2    1    1    2    0  501 -0.81841469023E+02  0.78639036634E+02 -0.22819645928E+02  0.11577072333E+03  0.25500000000E-02 0. -1.
<mgrwt>
<rscale>  0 0.11447188E+03</rscale>
<asrwt>0</asrwt>
<pdfrwt beam="1">  1       11 0.10000000E+01 0.45245648E+02</pdfrwt>
<pdfrwt beam="2">  1       -2 0.11979874E-01 0.11447188E+03</pdfrwt>
<totfact> 0.37986823E+02</totfact>
</mgrwt>
</event>
<event>
 5    1  0.2226716E-003  0.1863392E+03  0.7818608E-02  0.1161805E+00
         11   -1    0    0    0    0  0.00000000000E+00  0.00000000000E+00  0.10001566546E+04  0.10001566546E+04  0.51100000000E-03 0. -1.
          2   -1    0    0  501    0 -0.00000000000E+00 -0.00000000000E+00 -0.43787326271E+02  0.43787326345E+02  0.25500000000E-02 0. -1.
         11    1    1    2    0    0 -0.18258856534E+03  0.16485630106E+01  0.30985310476E+03  0.35965295562E+03  0.51100000000E-03 0. -1.
         22    1    1    2    0    0 -0.88218173693E+01  0.23343961443E+02  0.14062671269E+03  0.14282379815E+03  0.00000000000E+00 0. -1.
          2    1    1    2  501    0  0.19141038270E+03 -0.24992524453E+02  0.50588951091E+03  0.54146722721E+03  0.25500000000E-02 0. -1.
<mgrwt>
<rscale>  0 0.18633916E+03</rscale>
<asrwt>0</asrwt>
<pdfrwt beam="1">  1       11 0.10000000E+01 0.24955260E+02</pdfrwt>
<pdfrwt beam="2">  1        2 0.67375669E-02 0.18633916E+03</pdfrwt>
<totfact> 0.12742579E+03</totfact>
</mgrwt>
</event>
<event>
 5    1  0.2226716E-003  0.2019573E+03  0.7818608E-02  0.1148098E+00
         11   -1    0    0    0    0  0.00000000000E+00  0.00000000000E+00  0.10007445450E+04  0.10007445450E+04  0.51100000000E-03 0.  1.
          2   -1    0    0  501    0 -0.00000000000E+00 -0.00000000000E+00 -0.14495763259E+04  0.14495763259E+04  0.25500000000E-02 0.  1.
         11    1    1    2    0    0  0.10779857185E+03 -0.16394983957E+03  0.96442468200E+03  0.98418242681E+03  0.51100000000E-03 0.  1.
         22    1    1    2    0    0  0.23921407202E+02  0.10788681137E+02  0.10395338006E+02  0.28225740300E+02  0.00000000000E+00 0. -1.
          2    1    1    2  501    0 -0.13171997906E+03  0.15316115843E+03 -0.14236518009E+04  0.14379127037E+04  0.25500000000E-02 0.  1.
<mgrwt>
<rscale>  0 0.20195731E+03</rscale>
<asrwt>0</asrwt>
<pdfrwt beam="1">  1       11 0.10000000E+01 0.26241748E+02</pdfrwt>
<pdfrwt beam="2">  1        2 0.22317778E+00 0.20195731E+03</pdfrwt>
<totfact> 0.18577317E+01</totfact>
</mgrwt>
</event>
<event>
 5    1  0.2226716E-003  0.5639277E+03  0.7818608E-02  0.9983207E-01
         11   -1    0    0    0    0  0.00000000000E+00  0.00000000000E+00  0.99948946150E+03  0.99948946150E+03  0.51100000000E-03 0. -1.
          2   -1    0    0  501    0 -0.00000000000E+00 -0.00000000000E+00 -0.28803469027E+04  0.28803469027E+04  0.25500000000E-02 0.  1.
         11    1    1    2    0    0 -0.14134830577E+03 -0.54324903120E+03  0.74261393818E+03  0.93089973392E+03  0.51100000000E-03 0. -1.
         22    1    1    2    0    0  0.47404199067E+02 -0.12959896237E+02  0.12963432397E+03  0.13863684557E+03  0.00000000000E+00 0.  1.
          2    1    1    2  501    0  0.93944106700E+02  0.55620892743E+03 -0.27531057033E+04  0.28102997847E+04  0.25500000000E-02 0.  1.
<mgrwt>
<rscale>  0 0.56392767E+03</rscale>
<asrwt>0</asrwt>
<pdfrwt beam="1">  1       11 0.10000000E+01 0.49143840E+02</pdfrwt>
<pdfrwt beam="2">  1        2 0.44290404E+00 0.56392767E+03</pdfrwt>
<totfact> 0.27921105E+00</totfact>
</mgrwt>
</event>
<event>
 5    1  0.2226716E-003  0.3287288E+03  0.7818608E-02  0.1080516E+00
         11   -1    0    0    0    0  0.00000000000E+00  0.00000000000E+00  0.10000632448E+04  0.10000632448E+04  0.51100000000E-03 0. -1.
          2   -1    0    0  501    0 -0.00000000000E+00 -0.00000000000E+00 -0.14231345753E+03  0.14231345756E+03  0.25500000000E-02 0. -1.
         11    1    1    2    0    0 -0.15282634834E+03 -0.18519470459E+03  0.43833700152E+03  0.49979225510E+03  0.51100000000E-03 0. -1.
         22    1    1    2    0    0 -0.54269813412E+02 -0.45002689822E+02  0.30410004407E+03  0.31216548743E+03  0.00000000000E+00 0.  1.
          2    1    1    2  501    0  0.20709616175E+03  0.23019739441E+03  0.11531274166E+03  0.33041895981E+03  0.25500000000E-02 0. -1.
<mgrwt>
<rscale>  0 0.30964441E+03</rscale>
<asrwt>0</asrwt>
<pdfrwt beam="1">  1       11 0.10000000E+01 0.32872878E+03</pdfrwt>
<pdfrwt beam="2">  1        2 0.21895762E-01 0.30964441E+03</pdfrwt>
<totfact> 0.31002103E+02</totfact>
</mgrwt>
</event>
<event>
 5    1  0.2226716E-003  0.8373715E+02  0.7818608E-02  0.1318768E+00
         11   -1    0    0    0    0  0.00000000000E+00  0.00000000000E+00  0.10003578931E+04  0.10003578931E+04  0.51100000000E-03 0.  1.
          2   -1    0    0  501    0 -0.00000000000E+00 -0.00000000000E+00 -0.27387851638E+02  0.27387851757E+02  0.25500000000E-02 0.  1.
         11    1    1    2    0    0  0.51209048683E+02  0.63560839758E+02  0.50604102953E+02  0.96037087907E+02  0.51100000000E-03 0.  1.
         22    1    1    2    0    0  0.16233528131E+02  0.18640880997E+02  0.14256349698E+03  0.14469056828E+03  0.00000000000E+00 0. -1.
          2    1    1    2  501    0 -0.67442576814E+02 -0.82201720755E+02  0.77980244151E+03  0.78701808865E+03  0.25500000000E-02 0.  1.
<mgrwt>
<rscale>  0 0.83737154E+02</rscale>
<asrwt>0</asrwt>
<pdfrwt beam="1">  1       11 0.10000000E+01 0.24718614E+02</pdfrwt>
<pdfrwt beam="2">  1        2 0.42150235E-02 0.83737154E+02</pdfrwt>
<totfact> 0.21910967E+03</totfact>
</mgrwt>
</event>
<event>
 5    1  0.2226716E-003  0.3171439E+03  0.7818608E-02  0.1076971E+00
         11   -1    0    0    0    0  0.00000000000E+00  0.00000000000E+00  0.10003954995E+04  0.10003954995E+04  0.51100000000E-03 0. -1.
          2   -1    0    0  501    0 -0.00000000000E+00 -0.00000000000E+00 -0.77913525914E+03  0.77913525914E+03  0.25500000000E-02 0. -1.
         11    1    1    2    0    0 -0.11444890755E+03 -0.23464533698E+03  0.40619921987E+03  0.48286104920E+03  0.51100000000E-03 0. -1.
         22    1    1    2    0    0  0.80795885925E+02 -0.86400857084E+02  0.51365521113E+03  0.52710033126E+03  0.00000000000E+00 0. -1.
          2    1    1    2  501    0  0.33653021627E+02  0.32104619406E+03 -0.69859419066E+03  0.76956937817E+03  0.25500000000E-02 0. -1.
<mgrwt>
<rscale>  0 0.31714393E+03</rscale>
<asrwt>0</asrwt>
<pdfrwt beam="1">  1       11 0.10000000E+01 0.11829236E+03</pdfrwt>
<pdfrwt beam="2">  1        2 0.11991437E+00 0.31714393E+03</pdfrwt>
<totfact> 0.45564106E+01</totfact>
</mgrwt>
</event>
<event>
 5    1  0.2226716E-003  0.1125579E+03  0.7818608E-02  0.1255905E+00
         11   -1    0    0    0    0  0.00000000000E+00  0.00000000000E+00  0.10005202187E+04  0.10005202187E+04  0.51100000000E-03 0. -1.
         -2   -1    0    0    0  501 -0.00000000000E+00 -0.00000000000E+00 -0.39238278967E+03  0.39238278968E+03  0.25500000000E-02 0. -1.
         11    1    1    2    0    0 -0.69516435833E+02 -0.53842856173E+02  0.52066397990E+03  0.52803652144E+03  0.51100000000E-03 0. -1.
         22    1    1    2    0    0 -0.62313072272E+01  0.13724814764E+03  0.45770001094E+03  0.47787569852E+03  0.00000000000E+00 0. -1.
         -2    1    1    2    0  501  0.75747743061E+02 -0.83405291470E+02 -0.37022656182E+03  0.38699078841E+03  0.25500000000E-02 0. -1.
<mgrwt>
<rscale>  0 0.11255791E+03</rscale>
<asrwt>0</asrwt>
<pdfrwt beam="1">  1       11 0.10000000E+01 0.87929449E+02</pdfrwt>
<pdfrwt beam="2">  1       -2 0.60397985E-01 0.11255791E+03</pdfrwt>
<totfact> 0.21330495E+01</totfact>
</mgrwt>
</event>
<event>
 5    1  0.2226716E-003  0.2094630E+03  0.7818608E-02  0.1531070E+00
         11   -1    0    0    0    0  0.00000000000E+00  0.00000000000E+00  0.10004084100E+04  0.10004084100E+04  0.51100000000E-03 0. -1.
          2   -1    0    0  501    0 -0.00000000000E+00 -0.00000000000E+00 -0.35508651320E+03  0.35508651321E+03  0.25500000000E-02 0. -1.
         11    1    1    2    0    0 -0.17321595777E+03  0.61308921844E+02  0.19734361454E+03  0.26964245608E+03  0.51100000000E-03 0. -1.
         22    1    1    2    0    0  0.20772956233E+03 -0.74796592014E+02  0.74986871596E+03  0.78169635564E+03  0.00000000000E+00 0. -1.
          2    1    1    2  501    0 -0.34513604563E+02  0.13487670170E+02 -0.30189043374E+03  0.30415611145E+03  0.25500000000E-02 0. -1.
<mgrwt>
<rscale>  0 0.37055447E+02</rscale>
<asrwt>0</asrwt>
<pdfrwt beam="1">  1       11 0.10000000E+01 0.20946303E+03</pdfrwt>
<pdfrwt beam="2">  1        2 0.54651004E-01 0.37055447E+02</pdfrwt>
<totfact> 0.11289128E+02</totfact>
</mgrwt>
</event>
<event>
 5    1  0.2226716E-003  0.1288233E+03  0.7818608E-02  0.1239701E+00
         11   -1    0    0    0    0  0.00000000000E+00  0.00000000000E+00  0.10001346803E+04  0.10001346803E+04  0.51100000000E-03 0.  1.
          2   -1    0    0  501    0 -0.00000000000E+00 -0.00000000000E+00 -0.10321521694E+03  0.10321521697E+03  0.25500000000E-02 0.  1.
         11    1    1    2    0    0  0.88310526130E+01  0.12846628350E+03  0.46154333241E+03  0.47916992933E+03  0.51100000000E-03 0.  1.
         22    1    1    2    0    0 -0.12685930095E+03 -0.97265756439E+02  0.47068837878E+03  0.49709300893E+03  0.00000000000E+00 0.  1.
          2    1    1    2  501    0  0.11802824833E+03 -0.31200527057E+02 -0.35312247834E+02  0.12708695900E+03  0.25500000000E-02 0.  1.
<mgrwt>
<rscale>  0 0.12208251E+03</rscale>
<asrwt>0</asrwt>
<pdfrwt beam="1">  1       11 0.10000000E+01 0.12882334E+03</pdfrwt>
<pdfrwt beam="2">  1        2 0.15881402E-01 0.12208251E+03</pdfrwt>
<totfact> 0.43574500E+02</totfact>
</mgrwt>
</event>
<event>
 5    1  0.2226716E-003  0.5986545E+03  0.7818608E-02  0.9908202E-01
         11   -1    0    0    0    0  0.00000000000E+00  0.00000000000E+00  0.10002378308E+04  0.10002378308E+04  0.51100000000E-03 0.  1.
          2   -1    0    0  501    0 -0.00000000000E+00 -0.00000000000E+00 -0.50967532780E+03  0.50967532780E+03  0.25500000000E-02 0.  1.
         11    1    1    2    0    0  0.34847852344E+03 -0.47998232604E+03  0.66036941998E+03  0.88764186779E+03  0.51100000000E-03 0.  1.
         22    1    1    2    0    0 -0.14557595092E+02  0.16387810692E+01  0.15614077444E+00  0.14650377408E+02  0.00000000000E+00 0.  1.
          2    1    1    2  501    0 -0.33392092835E+03  0.47834354497E+03 -0.16996305775E+03  0.60762091341E+03  0.25500000000E-02 0.  1.
<mgrwt>
<rscale>  0 0.59865447E+03</rscale>
<asrwt>0</asrwt>
<pdfrwt beam="1">  1       11 0.10000000E+01 0.59314443E+03</pdfrwt>
<pdfrwt beam="2">  1        2 0.78430235E-01 0.59865447E+03</pdfrwt>
<totfact> 0.74824478E+01</totfact>
</mgrwt>
</event>
<event>
 5    1  0.2226716E-003  0.1610114E+03  0.7818608E-02  0.1503711E+00
         11   -1    0    0    0    0  0.00000000000E+00  0.00000000000E+00  0.10002176339E+04  0.10002176339E+04  0.51100000000E-03 0.  1.
          2   -1    0    0  501    0 -0.00000000000E+00 -0.00000000000E+00 -0.11432420811E+04  0.11432420811E+04  0.25500000000E-02 0.  1.
         11    1    1    2    0    0  0.50429720075E+02 -0.15583264545E+03  0.73766882564E+03  0.75563368532E+03  0.51100000000E-03 0.  1.
         22    1    1    2    0    0 -0.98230527083E+01  0.15679780646E+03  0.22882414555E+03  0.27756536899E+03  0.00000000000E+00 0.  1.
          2    1    1    2  501    0 -0.40606667367E+02 -0.96516100569E+00 -0.11095174184E+04  0.11102606607E+04  0.25500000000E-02 0.  1.
<mgrwt>
<rscale>  0 0.40618136E+02</rscale>
<asrwt>0</asrwt>
<pdfrwt beam="1">  1       11 0.10000000E+01 0.16101142E+03</pdfrwt>
<pdfrwt beam="2">  1        2 0.17592167E+00 0.40618136E+02</pdfrwt>
<totfact> 0.30206747E+01</totfact>
</mgrwt>
</event>
<event>
 5    1  0.2226716E-003  0.2585164E+03  0.7818608E-02  0.1113730E+00
         11   -1    0    0    0    0  0.00000000000E+00  0.00000000000E+00  0.10001629993E+04  0.10001629993E+04  0.51100000000E-03 0. -1.
          2   -1    0    0  501    0 -0.00000000000E+00 -0.00000000000E+00 -0.42705881492E+03  0.42705881493E+03  0.25500000000E-02 0. -1.
         11    1    1    2    0    0  0.15584806957E+03  0.13179481714E+03  0.84069550621E+03  0.86511700294E+03  0.51100000000E-03 0. -1.
         22    1    1    2    0    0  0.23853071198E+02  0.41040231617E+02  0.10417063783E+03  0.11447616085E+03  0.00000000000E+00 0.  1.
          2    1    1    2  501    0 -0.17970114077E+03 -0.17283504876E+03 -0.37176195964E+03  0.44762865046E+03  0.25500000000E-02 0. -1.
<mgrwt>
<rscale>  0 0.24932801E+03</rscale>
<asrwt>0</asrwt>
<pdfrwt beam="1">  1       11 0.10000000E+01 0.25851641E+03</pdfrwt>
<pdfrwt beam="2">  1        2 0.65712064E-01 0.24932801E+03</pdfrwt>
<totfact> 0.92463571E+01</totfact>
</mgrwt>
</event>
<event>
 5    1  0.2226716E-003  0.2853432E+03  0.7818608E-02  0.1092806E+00
         11   -1    0    0    0    0  0.00000000000E+00  0.00000000000E+00  0.99979694818E+03  0.99979694818E+03  0.51100000000E-03 0. -1.
          2   -1    0    0  501    0 -0.00000000000E+00 -0.00000000000E+00 -0.24789637982E+03  0.24789637984E+03  0.25500000000E-02 0. -1.
         11    1    1    2    0    0  0.57394055779E+02 -0.38366857269E+03  0.57344097297E+03  0.69233676833E+03  0.51100000000E-03 0. -1.
         22    1    1    2    0    0 -0.14570684043E+03  0.12630062315E+03  0.20563967291E+03  0.28190424940E+03  0.00000000000E+00 0. -1.
          2    1    1    2  501    0  0.88312784647E+02  0.25736794954E+03 -0.27180077519E+02  0.27345231029E+03  0.25500000000E-02 0. -1.
<mgrwt>
<rscale>  0 0.28534323E+03</rscale>
<asrwt>0</asrwt>
<pdfrwt beam="1">  1       11 0.10000000E+01 0.19282720E+03</pdfrwt>
<pdfrwt beam="2">  1        2 0.38130160E-01 0.28534323E+03</pdfrwt>
<totfact> 0.16698837E+02</totfact>
</mgrwt>
</event>
<event>
 5    1  0.2226716E-003  0.2108326E+03  0.7818608E-02  0.1140908E+00
         11   -1    0    0    0    0  0.00000000000E+00  0.00000000000E+00  0.10002579711E+04  0.10002579711E+04  0.51100000000E-03 0.  1.
         -2   -1    0    0    0  501 -0.00000000000E+00 -0.00000000000E+00 -0.77948648045E+02  0.77948648087E+02  0.25500000000E-02 0. -1.
         11    1    1    2    0    0 -0.14683836632E+03  0.17280119948E+03  0.73612921948E+03  0.77026488181E+03  0.51100000000E-03 0.  1.
         22    1    1    2    0    0  0.18056415362E+02 -0.10702292309E+02  0.64439304102E+02  0.67771654174E+02  0.00000000000E+00 0. -1.
         -2    1    1    2    0  501  0.12878195096E+03 -0.16209890718E+03  0.12174079945E+03  0.24017008319E+03  0.25500000000E-02 0. -1.
<mgrwt>
<rscale>  0 0.21083258E+03</rscale>
<asrwt>0</asrwt>
<pdfrwt beam="1">  1       11 0.10000000E+01 0.20989836E+02</pdfrwt>
<pdfrwt beam="2">  1       -2 0.11995193E-01 0.21083258E+03</pdfrwt>
<totfact> 0.39124870E+02</totfact>
</mgrwt>
</event>
<event>
 5    1  0.2226716E-003  0.1013230E+03  0.7818608E-02  0.1277538E+00
         11   -1    0    0    0    0  0.00000000000E+00  0.00000000000E+00  0.10002379374E+04  0.10002379374E+04  0.51100000000E-03 0. -1.
         -2   -1    0    0    0  501 -0.00000000000E+00 -0.00000000000E+00 -0.19496663870E+03  0.19496663872E+03  0.25500000000E-02 0. -1.
         11    1    1    2    0    0 -0.62090865933E+02  0.17391955945E+03  0.46849268832E+03  0.50357590074E+03  0.51100000000E-03 0. -1.
         22    1    1    2    0    0  0.30235828999E+01 -0.94333519609E+02  0.49555243553E+03  0.50446027726E+03  0.00000000000E+00 0. -1.
         -2    1    1    2    0  501  0.59067283033E+02 -0.79586039846E+02 -0.15877382519E+03  0.18716839807E+03  0.25500000000E-02 0. -1.
<mgrwt>
<rscale>  0 0.10132299E+03</rscale>
<asrwt>0</asrwt>
<pdfrwt beam="1">  1       11 0.10000000E+01 0.94381963E+02</pdfrwt>
<pdfrwt beam="2">  1       -2 0.30002004E-01 0.10132299E+03</pdfrwt>
<totfact> 0.81105031E+01</totfact>
</mgrwt>
</event>
<event>
 5    1  0.2226716E-003  0.7447525E+03  0.7818608E-02  0.9643619E-01
         11   -1    0    0    0    0  0.00000000000E+00  0.00000000000E+00  0.10002745384E+04  0.10002745384E+04  0.51100000000E-03 0. -1.
          2   -1    0    0  501    0 -0.00000000000E+00 -0.00000000000E+00 -0.68505887204E+03  0.68505887205E+03  0.25500000000E-02 0. -1.
         11    1    1    2    0    0 -0.33515333601E+03  0.66439172430E+03 -0.19868233637E+03  0.77020698046E+03  0.51100000000E-03 0. -1.
         22    1    1    2    0    0 -0.10443432262E+02 -0.29177790473E+01  0.86598464120E+01  0.13877018839E+02  0.00000000000E+00 0.  1.
          2    1    1    2  501    0  0.34559676827E+03 -0.66147394525E+03  0.50523815630E+03  0.90124941114E+03  0.25500000000E-02 0. -1.
<mgrwt>
<rscale>  0 0.74475255E+03</rscale>
<asrwt>0</asrwt>
<pdfrwt beam="1">  1       11 0.10000000E+01 0.10843372E+02</pdfrwt>
<pdfrwt beam="2">  1        2 0.10542260E+00 0.74475255E+03</pdfrwt>
<totfact> 0.52187667E+01</totfact>
</mgrwt>
</event>
<event>
 5    1  0.2226716E-003  0.1059159E+03  0.7818608E-02  0.1318438E+00
         11   -1    0    0    0    0  0.00000000000E+00  0.00000000000E+00  0.10003821873E+04  0.10003821873E+04  0.51100000000E-03 0.  1.
          2   -1    0    0  501    0 -0.00000000000E+00 -0.00000000000E+00 -0.26365876138E+02  0.26365876261E+02  0.25500000000E-02 0.  1.
         11    1    1    2    0    0  0.97563355314E+02  0.39762799824E+02  0.42042226980E+03  0.43342193471E+03  0.51100000000E-03 0.  1.
         22    1    1    2    0    0 -0.12050416317E+03  0.40899583864E+02  0.28943344076E+03  0.31617360094E+03  0.00000000000E+00 0.  1.
          2    1    1    2  501    0  0.22940807851E+02 -0.80662383689E+02  0.26416060060E+03  0.27715252790E+03  0.25500000000E-02 0.  1.
<mgrwt>
<rscale>  0 0.83861200E+02</rscale>
<asrwt>0</asrwt>
<pdfrwt beam="1">  1       11 0.10000000E+01 0.10591588E+03</pdfrwt>
<pdfrwt beam="2">  1        2 0.40578388E-02 0.83861200E+02</pdfrwt>
<totfact> 0.23025984E+03</totfact>
</mgrwt>
</event>
<event>
 5    1  0.2226716E-003  0.1405108E+03  0.7818608E-02  0.1388258E+00
         11   -1    0    0    0    0  0.00000000000E+00  0.00000000000E+00  0.10001472519E+04  0.10001472519E+04  0.51100000000E-03 0. -1.
          2   -1    0    0  501    0 -0.00000000000E+00 -0.00000000000E+00 -0.15838471071E+04  0.15838471071E+04  0.25500000000E-02 0. -1.
         11    1    1    2    0    0 -0.12155790404E+02 -0.16033297518E+03  0.75395475461E+03  0.77090998059E+03  0.51100000000E-03 0. -1.
         22    1    1    2    0    0  0.40172497582E+02  0.10464110912E+03  0.22384534951E+03  0.25034043177E+03  0.00000000000E+00 0. -1.
          2    1    1    2  501    0 -0.28016707178E+02  0.55691866063E+02 -0.15614999593E+04  0.15627439467E+04  0.25500000000E-02 0. -1.
<mgrwt>
<rscale>  0 0.62341959E+02</rscale>
<asrwt>0</asrwt>
<pdfrwt beam="1">  1       11 0.10000000E+01 0.14051082E+03</pdfrwt>
<pdfrwt beam="2">  1        2 0.24370466E+00 0.62341959E+02</pdfrwt>
<totfact> 0.17445222E+01</totfact>
</mgrwt>
</event>
<event>
 5    1  0.2226716E-003  0.1676816E+03  0.7818608E-02  0.1180287E+00
         11   -1    0    0    0    0  0.00000000000E+00  0.00000000000E+00  0.10005170680E+04  0.10005170680E+04  0.51100000000E-03 0. -1.
          2   -1    0    0  501    0 -0.00000000000E+00 -0.00000000000E+00 -0.71973655954E+03  0.71973655954E+03  0.25500000000E-02 0. -1.
         11    1    1    2    0    0 -0.16286855470E+03  0.11957236517E+03  0.77838792733E+03  0.80418373649E+03  0.51100000000E-03 0. -1.
         22    1    1    2    0    0  0.19790777195E+02 -0.32941937186E+02  0.19745800141E+03  0.20116289024E+03  0.00000000000E+00 0. -1.
          2    1    1    2  501    0  0.14307777750E+03 -0.86630427989E+02 -0.69506542023E+03  0.71490700086E+03  0.25500000000E-02 0. -1.
<mgrwt>
<rscale>  0 0.16768156E+03</rscale>
<asrwt>0</asrwt>
<pdfrwt beam="1">  1       11 0.10000000E+01 0.38429755E+02</pdfrwt>
<pdfrwt beam="2">  1        2 0.11078595E+00 0.16768156E+03</pdfrwt>
<totfact> 0.51338547E+01</totfact>
</mgrwt>
</event>
<event>
 5    1  0.2226716E-003  0.2519860E+03  0.7818608E-02  0.1112056E+00
         11   -1    0    0    0    0  0.00000000000E+00  0.00000000000E+00  0.99972390603E+03  0.99972390603E+03  0.51100000000E-03 0. -1.
          2   -1    0    0  501    0 -0.00000000000E+00 -0.00000000000E+00 -0.39607467882E+03  0.39607467883E+03  0.25500000000E-02 0. -1.
         11    1    1    2    0    0  0.24702065027E+03 -0.83483885562E+02  0.85728423194E+03  0.89606083228E+03  0.51100000000E-03 0. -1.
         22    1    1    2    0    0 -0.13496335373E+02 -0.10114401201E+02  0.80067391972E+02  0.81824442787E+02  0.00000000000E+00 0.  1.
          2    1    1    2  501    0 -0.23352431489E+03  0.93598286763E+02 -0.33370239670E+03  0.41791330979E+03  0.25500000000E-02 0. -1.
<mgrwt>
<rscale>  0 0.25198600E+03</rscale>
<asrwt>0</asrwt>
<pdfrwt beam="1">  1       11 0.10000000E+01 0.16865710E+02</pdfrwt>
<pdfrwt beam="2">  1        2 0.60917741E-01 0.25198600E+03</pdfrwt>
<totfact> 0.10044438E+02</totfact>
</mgrwt>
</event>
<event>
 5    1  0.2226716E-003  0.3718397E+03  0.7818608E-02  0.1053992E+00
         11   -1    0    0    0    0  0.00000000000E+00  0.00000000000E+00  0.10001672026E+04  0.10001672026E+04  0.51100000000E-03 0.  1.
         -2   -1    0    0    0  501 -0.00000000000E+00 -0.00000000000E+00 -0.60648806071E+03  0.60648806072E+03  0.25500000000E-02 0. -1.
         11    1    1    2    0    0  0.84827822172E+02 -0.38574224819E+03  0.43794941322E+03  0.58973937463E+03  0.51100000000E-03 0.  1.
         22    1    1    2    0    0  0.89785105615E+02  0.58911432838E+02  0.41392941640E+03  0.42763241676E+03  0.00000000000E+00 0.  1.
         -2    1    1    2    0  501 -0.17461292779E+03  0.32683081535E+03 -0.45819968774E+03  0.58928347191E+03  0.25500000000E-02 0. -1.
<mgrwt>
<rscale>  0 0.37183973E+03</rscale>
<asrwt>0</asrwt>
<pdfrwt beam="1">  1       11 0.10000000E+01 0.10738679E+03</pdfrwt>
<pdfrwt beam="2">  1       -2 0.93321454E-01 0.37183973E+03</pdfrwt>
<totfact> 0.81051851E+00</totfact>
</mgrwt>
</event>
<event>
 5    1  0.2226716E-003  0.2782799E+03  0.7818608E-02  0.1096632E+00
         11   -1    0    0    0    0  0.00000000000E+00  0.00000000000E+00  0.10001597751E+04  0.10001597751E+04  0.51100000000E-03 0.  1.
          2   -1    0    0  501    0 -0.00000000000E+00 -0.00000000000E+00 -0.91820383307E+02  0.91820383343E+02  0.25500000000E-02 0.  1.
         11    1    1    2    0    0 -0.14242867494E+03  0.24238612222E+03  0.52241070660E+03  0.59325366080E+03  0.51100000000E-03 0.  1.
         22    1    1    2    0    0  0.32690601749E+02  0.12230468320E+02  0.71172266129E+02  0.79270115832E+02  0.00000000000E+00 0.  1.
          2    1    1    2  501    0  0.10973807319E+03 -0.25461659054E+03  0.31475641905E+03  0.41945638179E+03  0.25500000000E-02 0.  1.
<mgrwt>
<rscale>  0 0.27827987E+03</rscale>
<asrwt>0</asrwt>
<pdfrwt beam="1">  1       11 0.10000000E+01 0.34903579E+02</pdfrwt>
<pdfrwt beam="2">  1        2 0.14128469E-01 0.27827987E+03</pdfrwt>
<totfact> 0.51661193E+02</totfact>
</mgrwt>
</event>
<event>
 5    1  0.2226716E-003  0.1130462E+03  0.7818608E-02  0.1255031E+00
         11   -1    0    0    0    0  0.00000000000E+00  0.00000000000E+00  0.10000901476E+04  0.10000901476E+04  0.51100000000E-03 0. -1.
          2   -1    0    0  501    0 -0.00000000000E+00 -0.00000000000E+00 -0.14817557403E+02  0.14817557622E+02  0.25500000000E-02 0. -1.
         11    1    1    2    0    0  0.11258744397E+03  0.16876685321E+02  0.52574042571E+03  0.53792541330E+03  0.51100000000E-03 0. -1.
         22    1    1    2    0    0 -0.37649080095E+01  0.12775501683E+02  0.77948614276E+02  0.79078280477E+02  0.00000000000E+00 0. -1.
          2    1    1    2  501    0 -0.10882253596E+03 -0.29652187004E+02  0.38158355024E+03  0.39790401148E+03  0.25500000000E-02 0. -1.
<mgrwt>
<rscale>  0 0.11304621E+03</rscale>
<asrwt>0</asrwt>
<pdfrwt beam="1">  1       11 0.10000000E+01 0.13318708E+02</pdfrwt>
<pdfrwt beam="2">  1        2 0.22798297E-02 0.11304621E+03</pdfrwt>
<totfact> 0.51200633E+03</totfact>
</mgrwt>
</event>
<event>
 5    1  0.2226716E-003  0.1341897E+03  0.7818608E-02  0.1221368E+00
         11   -1    0    0    0    0  0.00000000000E+00  0.00000000000E+00  0.10001690181E+04  0.10001690181E+04  0.51100000000E-03 0. -1.
          2   -1    0    0  501    0 -0.00000000000E+00 -0.00000000000E+00 -0.49763488178E+02  0.49763488243E+02  0.25500000000E-02 0. -1.
         11    1    1    2    0    0 -0.13947835796E+03  0.16306004463E+01  0.73997374401E+03  0.75300598471E+03  0.51100000000E-03 0. -1.
         22    1    1    2    0    0  0.80715305057E+01  0.23016551369E+02  0.14688202878E+03  0.14889339011E+03  0.00000000000E+00 0.  1.
          2    1    1    2  501    0  0.13140682746E+03 -0.24647151815E+02  0.63549757181E+02  0.14803313156E+03  0.25500000000E-02 0. -1.
<mgrwt>
<rscale>  0 0.13418972E+03</rscale>
<asrwt>0</asrwt>
<pdfrwt beam="1">  1       11 0.10000000E+01 0.24390802E+02</pdfrwt>
<pdfrwt beam="2">  1        2 0.76572150E-02 0.13418972E+03</pdfrwt>
<totfact> 0.10594754E+03</totfact>
</mgrwt>
</event>
<event>
 5    1  0.2226716E-003  0.1310199E+03  0.7818608E-02  0.1350059E+00
         11   -1    0    0    0    0  0.00000000000E+00  0.00000000000E+00  0.10003210627E+04  0.10003210627E+04  0.51100000000E-03 0. -1.
          2   -1    0    0  501    0 -0.00000000000E+00 -0.00000000000E+00 -0.22633762879E+03  0.22633762880E+03  0.25500000000E-02 0. -1.
         11    1    1    2    0    0  0.11479555957E+03  0.54609809380E+02  0.53074818476E+03  0.54575991736E+03  0.51100000000E-03 0. -1.
         22    1    1    2    0    0 -0.85530052862E+02 -0.12152760807E+03  0.44349764285E+03  0.46773337349E+03  0.00000000000E+00 0. -1.
          2    1    1    2  501    0 -0.29265506705E+02  0.66917798690E+02 -0.20026239374E+03  0.21316540061E+03  0.25500000000E-02 0. -1.
<mgrwt>
<rscale>  0 0.73037399E+02</rscale>
<asrwt>0</asrwt>
<pdfrwt beam="1">  1       11 0.10000000E+01 0.13101992E+03</pdfrwt>
<pdfrwt beam="2">  1        2 0.34832352E-01 0.73037399E+02</pdfrwt>
<totfact> 0.18081273E+02</totfact>
</mgrwt>
</event>
<event>
 5    1  0.2226716E-003  0.4467209E+03  0.7818608E-02  0.1035946E+00
         11   -1    0    0    0    0  0.00000000000E+00  0.00000000000E+00  0.10001883284E+04  0.10001883284E+04  0.51100000000E-03 0. -1.
          2   -1    0    0  501    0 -0.00000000000E+00 -0.00000000000E+00 -0.25007495493E+03  0.25007495494E+03  0.25500000000E-02 0. -1.
         11    1    1    2    0    0  0.30582114784E+03  0.53896533193E+02  0.39329743403E+03  0.50111304351E+03  0.51100000000E-03 0. -1.
         22    1    1    2    0    0  0.98500606512E+02  0.71966372667E+02  0.29752206407E+03  0.32156011396E+03  0.00000000000E+00 0.  1.
          2    1    1    2  501    0 -0.40432175435E+03 -0.12586290586E+03  0.59293875411E+02  0.42759012592E+03  0.25500000000E-02 0. -1.
<mgrwt>
<rscale>  0 0.42345903E+03</rscale>
<asrwt>0</asrwt>
<pdfrwt beam="1">  1       11 0.10000000E+01 0.44672088E+03</pdfrwt>
<pdfrwt beam="2">  1        2 0.38480314E-01 0.42345903E+03</pdfrwt>
<totfact> 0.16571385E+02</totfact>
</mgrwt>
</event>
<event>
 5    1  0.2226716E-003  0.1119996E+03  0.7818608E-02  0.1523924E+00
         11   -1    0    0    0    0  0.00000000000E+00  0.00000000000E+00  0.99997910521E+03  0.99997910521E+03  0.51100000000E-03 0. -1.
         -2   -1    0    0    0  501 -0.00000000000E+00 -0.00000000000E+00 -0.56785002017E+02  0.56785002074E+02  0.25500000000E-02 0. -1.
         11    1    1    2    0    0 -0.40207590036E+02  0.11627183755E+03  0.61544467517E+03  0.62762085585E+03  0.51100000000E-03 0. -1.
         22    1    1    2    0    0  0.52369331703E+01 -0.10155204865E+03  0.36323059665E+03  0.37719585151E+03  0.00000000000E+00 0. -1.
         -2    1    1    2    0  501  0.34970656866E+02 -0.14719788899E+02 -0.35481168618E+02  0.51947399933E+02  0.25500000000E-02 0. -1.
<mgrwt>
<rscale>  0 0.37942312E+02</rscale>
<asrwt>0</asrwt>
<pdfrwt beam="1">  1       11 0.10000000E+01 0.11199960E+03</pdfrwt>
<pdfrwt beam="2">  1       -2 0.87359714E-02 0.37942312E+02</pdfrwt>
<totfact> 0.56945186E+02</totfact>
</mgrwt>
</event>
<event>
 5    1  0.2226716E-003  0.1242581E+03  0.7818608E-02  0.1236233E+00
         11   -1    0    0    0    0  0.00000000000E+00  0.00000000000E+00  0.10001957843E+04  0.10001957843E+04  0.51100000000E-03 0.  1.
          2   -1    0    0  501    0 -0.00000000000E+00 -0.00000000000E+00 -0.35165746386E+02  0.35165746479E+02  0.25500000000E-02 0.  1.
         11    1    1    2    0    0 -0.12716847928E+03  0.50998679747E+02  0.58880351501E+03  0.60453475230E+03  0.51100000000E-03 0.  1.
         22    1    1    2    0    0  0.36874833636E+02  0.32232150509E+02  0.24987995394E+03  0.25463435798E+03  0.00000000000E+00 0.  1.
          2    1    1    2  501    0  0.90293645640E+02 -0.83230830255E+02  0.12634656900E+03  0.17619242053E+03  0.25500000000E-02 0.  1.
<mgrwt>
<rscale>  0 0.12425812E+03</rscale>
<asrwt>0</asrwt>
<pdfrwt beam="1">  1       11 0.10000000E+01 0.48976166E+02</pdfrwt>
<pdfrwt beam="2">  1        2 0.54111739E-02 0.12425812E+03</pdfrwt>
<totfact> 0.16417500E+03</totfact>
</mgrwt>
</event>
<event>
 5    1  0.2226716E-003  0.2891957E+03  0.7818608E-02  0.1536191E+00
         11   -1    0    0    0    0  0.00000000000E+00  0.00000000000E+00  0.10002037005E+04  0.10002037005E+04  0.51100000000E-03 0.  1.
          2   -1    0    0  501    0 -0.00000000000E+00 -0.00000000000E+00 -0.33305805158E+03  0.33305805159E+03  0.25500000000E-02 0. -1.
         11    1    1    2    0    0 -0.10660163313E+03  0.26732572914E+03  0.35853651338E+03  0.45975578852E+03  0.51100000000E-03 0.  1.
         22    1    1    2    0    0  0.14082220992E+03 -0.25480905340E+03  0.55377883536E+03  0.62564330652E+03  0.00000000000E+00 0.  1.
          2    1    1    2  501    0 -0.34220576791E+02 -0.12516675739E+02 -0.24516969982E+03  0.24786265706E+03  0.25500000000E-02 0. -1.
<mgrwt>
<rscale>  0 0.36437824E+02</rscale>
<asrwt>0</asrwt>
<pdfrwt beam="1">  1       11 0.10000000E+01 0.28919573E+03</pdfrwt>
<pdfrwt beam="2">  1        2 0.51250136E-01 0.36437824E+02</pdfrwt>
<totfact> 0.12042904E+02</totfact>
</mgrwt>
</event>
<event>
 5    1  0.2226716E-003  0.2066484E+03  0.7818608E-02  0.1144248E+00
         11   -1    0    0    0    0  0.00000000000E+00  0.00000000000E+00  0.10001645515E+04  0.10001645515E+04  0.51100000000E-03 0.  1.
          2   -1    0    0  501    0 -0.00000000000E+00 -0.00000000000E+00 -0.14404129858E+03  0.14404129860E+03  0.25500000000E-02 0.  1.
         11    1    1    2    0    0 -0.28459158967E+01  0.18039670091E+03  0.48928127208E+02  0.18693589963E+03  0.51100000000E-03 0.  1.
         22    1    1    2    0    0 -0.12475677806E+03  0.10155180565E+03  0.48295642419E+03  0.50904216973E+03  0.00000000000E+00 0.  1.
          2    1    1    2  501    0  0.12760269395E+03 -0.28194850656E+03  0.32423870154E+03  0.44822778075E+03  0.25500000000E-02 0.  1.
<mgrwt>
<rscale>  0 0.20664836E+03</rscale>
<asrwt>0</asrwt>
<pdfrwt beam="1">  1       11 0.10000000E+01 0.16086337E+03</pdfrwt>
<pdfrwt beam="2">  1        2 0.22163846E-01 0.20664836E+03</pdfrwt>
<totfact> 0.30280327E+02</totfact>
</mgrwt>
</event>
<event>
 5    1  0.2226716E-003  0.1088494E+03  0.7818608E-02  0.1262716E+00
         11   -1    0    0    0    0  0.00000000000E+00  0.00000000000E+00  0.10002592993E+04  0.10002592993E+04  0.51100000000E-03 0. -1.
          2   -1    0    0  501    0 -0.00000000000E+00 -0.00000000000E+00 -0.89319403927E+03  0.89319403928E+03  0.25500000000E-02 0. -1.
         11    1    1    2    0    0 -0.27352165424E+00 -0.10121231917E+03  0.25929957216E+02  0.10448143877E+03  0.51100000000E-03 0. -1.
         22    1    1    2    0    0 -0.99921283406E+02  0.14337122436E+03  0.92336481095E+03  0.93975642852E+03  0.00000000000E+00 0. -1.
          2    1    1    2  501    0  0.10019480506E+03 -0.42158905187E+02 -0.84222950815E+03  0.84921547127E+03  0.25500000000E-02 0. -1.
<mgrwt>
<rscale>  0 0.10884942E+03</rscale>
<asrwt>0</asrwt>
<pdfrwt beam="1">  1       11 0.10000000E+01 0.10121269E+03</pdfrwt>
<pdfrwt beam="2">  1        2 0.13745010E+00 0.10884942E+03</pdfrwt>
<totfact> 0.39876423E+01</totfact>
</mgrwt>
</event>
<event>
 5    1  0.2226716E-003  0.3612497E+03  0.7818608E-02  0.1058090E+00
         11   -1    0    0    0    0  0.00000000000E+00  0.00000000000E+00  0.10004515235E+04  0.10004515235E+04  0.51100000000E-03 0.  1.
          2   -1    0    0  501    0 -0.00000000000E+00 -0.00000000000E+00 -0.14191338063E+03  0.14191338065E+03  0.25500000000E-02 0.  1.
         11    1    1    2    0    0  0.11528410953E+03 -0.31551039105E+03  0.19916456393E+03  0.39051729321E+03  0.51100000000E-03 0.  1.
         22    1    1    2    0    0  0.27167816398E+02  0.70417539975E+02  0.10650990723E+03  0.13054148966E+03  0.00000000000E+00 0.  1.
          2    1    1    2  501    0 -0.14245192593E+03  0.24509285107E+03  0.55286367175E+03  0.62130612133E+03  0.25500000000E-02 0.  1.
<mgrwt>
<rscale>  0 0.36124966E+03</rscale>
<asrwt>0</asrwt>
<pdfrwt beam="1">  1       11 0.10000000E+01 0.33591271E+03</pdfrwt>
<pdfrwt beam="2">  1        2 0.21842685E-01 0.36124966E+03</pdfrwt>
<totfact> 0.31194616E+02</totfact>
</mgrwt>
</event>
<event>
 5    1  0.2226716E-003  0.5704707E+03  0.7818608E-02  0.9985059E-01
         11   -1    0    0    0    0  0.00000000000E+00  0.00000000000E+00  0.10000524819E+04  0.10000524819E+04  0.51100000000E-03 0. -1.
          2   -1    0    0  501    0 -0.00000000000E+00 -0.00000000000E+00 -0.88116805122E+03  0.88116805122E+03  0.25500000000E-02 0. -1.
         11    1    1    2    0    0  0.50828811650E+03 -0.19786399119E+03  0.78888246104E+03  0.95908420158E+03  0.51100000000E-03 0. -1.
         22    1    1    2    0    0  0.21932756255E+02  0.82588404720E+01  0.20503224268E+02  0.31138985986E+02  0.00000000000E+00 0.  1.
          2    1    1    2  501    0 -0.53022087275E+03  0.18960515072E+03 -0.69050125464E+03  0.89099734554E+03  0.25500000000E-02 0. -1.
<mgrwt>
<rscale>  0 0.56310238E+03</rscale>
<asrwt>0</asrwt>
<pdfrwt beam="1">  1       11 0.10000000E+01 0.57047066E+03</pdfrwt>
<pdfrwt beam="2">  1        2 0.13557143E+00 0.56310238E+03</pdfrwt>
<totfact> 0.37932374E+01</totfact>
</mgrwt>
</event>
<event>
 5    1  0.2226716E-003  0.1794218E+03  0.7818608E-02  0.1168364E+00
         11   -1    0    0    0    0  0.00000000000E+00  0.00000000000E+00  0.10002784414E+04  0.10002784414E+04  0.51100000000E-03 0. -1.
          2   -1    0    0  501    0 -0.00000000000E+00 -0.00000000000E+00 -0.46650599274E+02  0.46650599344E+02  0.25500000000E-02 0. -1.
         11    1    1    2    0    0 -0.83876680429E+02 -0.13840919825E+03  0.30621579997E+03  0.34635317211E+03  0.51100000000E-03 0. -1.
         22    1    1    2    0    0  0.22973660845E+01 -0.47722573570E+02  0.24661192503E+03  0.25119745916E+03  0.00000000000E+00 0. -1.
          2    1    1    2  501    0  0.81579314345E+02  0.18613177182E+03  0.40080011715E+03  0.44937840950E+03  0.25500000000E-02 0. -1.
<mgrwt>
<rscale>  0 0.17942177E+03</rscale>
<asrwt>0</asrwt>
<pdfrwt beam="1">  1       11 0.10000000E+01 0.47777839E+02</pdfrwt>
<pdfrwt beam="2">  1        2 0.71790135E-02 0.17942177E+03</pdfrwt>
<totfact> 0.11717686E+03</totfact>
</mgrwt>
</event>
<event>
 5    1  0.2226716E-003  0.1224764E+03  0.7818608E-02  0.1447059E+00
         11   -1    0    0    0    0  0.00000000000E+00  0.00000000000E+00  0.10000017718E+04  0.10000017718E+04  0.51100000000E-03 0.  1.
          2   -1    0    0  501    0 -0.00000000000E+00 -0.00000000000E+00 -0.72121339907E+03  0.72121339908E+03  0.25500000000E-02 0.  1.
         11    1    1    2    0    0  0.13082858863E+03  0.40803644438E+02  0.44347809649E+03  0.46417009713E+03  0.51100000000E-03 0.  1.
         22    1    1    2    0    0 -0.92070198993E+02 -0.71887193498E+02  0.53904630649E+03  0.55155744096E+03  0.00000000000E+00 0. -1.
          2    1    1    2  501    0 -0.38758389638E+02  0.31083549060E+02 -0.70373603024E+03  0.70548763281E+03  0.25500000000E-02 0.  1.
<mgrwt>
<rscale>  0 0.49682993E+02</rscale>
<asrwt>0</asrwt>
<pdfrwt beam="1">  1       11 0.10000000E+01 0.12247639E+03</pdfrwt>
<pdfrwt beam="2">  1        2 0.11095610E+00 0.49682993E+02</pdfrwt>
<totfact> 0.53255109E+01</totfact>
</mgrwt>
</event>
<event>
 5    1  0.4198560E-003  0.1284025E+03  0.7818608E-02  0.1229846E+00
         11   -1    0    0    0    0  0.00000000000E+00  0.00000000000E+00  0.10004863876E+04  0.10004863876E+04  0.51100000000E-03 0. -1.
          2   -1    0    0  501    0 -0.00000000000E+00 -0.00000000000E+00 -0.17508511783E+04  0.17508511783E+04  0.25500000000E-02 0.  1.
         11    1    1    2    0    0 -0.13742546247E+02 -0.15496550624E+03  0.89787136862E+03  0.91124977931E+03  0.51100000000E-03 0. -1.
         22    1    1    2    0    0 -0.96267743071E+01  0.28777902975E+02  0.91101308271E+02  0.96022345586E+02  0.00000000000E+00 0. -1.
          2    1    1    2  501    0  0.23369320554E+02  0.12618760327E+03 -0.17393374676E+04  0.17440654410E+04  0.25500000000E-02 0.  1.
<mgrwt>
<rscale>  0 0.12840250E+03</rscale>
<asrwt>0</asrwt>
<pdfrwt beam="1">  1       11 0.10000000E+01 0.30345387E+02</pdfrwt>
<pdfrwt beam="2">  1        2 0.26949273E+00 0.12840250E+03</pdfrwt>
<totfact> 0.13447254E+01</totfact>
</mgrwt>
</event>
<event>
 5    1  0.2226716E-003  0.2092566E+03  0.7818608E-02  0.1142156E+00
         11   -1    0    0    0    0  0.00000000000E+00  0.00000000000E+00  0.99994200852E+03  0.99994200852E+03  0.51100000000E-03 0. -1.
          2   -1    0    0  501    0 -0.00000000000E+00 -0.00000000000E+00 -0.78503972544E+02  0.78503972586E+02  0.25500000000E-02 0. -1.
         11    1    1    2    0    0 -0.77469910088E+02  0.20261118559E+03  0.70970226055E+03  0.74211197143E+03  0.51100000000E-03 0. -1.
         22    1    1    2    0    0 -0.10636323185E+02 -0.14722828038E+02  0.98041171236E+02  0.99709399224E+02  0.00000000000E+00 0. -1.
          2    1    1    2  501    0  0.88106233273E+02 -0.18788835756E+03  0.11369460419E+03  0.23662461046E+03  0.25500000000E-02 0. -1.
<mgrwt>
<rscale>  0 0.20925664E+03</rscale>
<asrwt>0</asrwt>
<pdfrwt beam="1">  1       11 0.10000000E+01 0.18162958E+02</pdfrwt>
<pdfrwt beam="2">  1        2 0.12076834E-01 0.20925664E+03</pdfrwt>
<totfact> 0.61737116E+02</totfact>
</mgrwt>
</event>
<event>
 5    1  0.2226716E-003  0.2293564E+03  0.7818608E-02  0.1131163E+00
         11   -1    0    0    0    0  0.00000000000E+00  0.00000000000E+00  0.99998146906E+03  0.99998146906E+03  0.51100000000E-03 0. -1.
          2   -1    0    0  501    0 -0.00000000000E+00 -0.00000000000E+00 -0.64645628853E+03  0.64645628853E+03  0.25500000000E-02 0. -1.
         11    1    1    2    0    0  0.56642565648E+02 -0.67132146999E+02  0.30936995829E+03  0.32159738261E+03  0.51100000000E-03 0. -1.
         22    1    1    2    0    0  0.46487499611E+02 -0.13136417667E+03  0.65743460436E+03  0.67204009816E+03  0.00000000000E+00 0. -1.
          2    1    1    2  501    0 -0.10313006526E+03  0.19849632367E+03 -0.61327938212E+03  0.65280027682E+03  0.25500000000E-02 0. -1.
<mgrwt>
<rscale>  0 0.22368862E+03</rscale>
<asrwt>0</asrwt>
<pdfrwt beam="1">  1       11 0.10000000E+01 0.22935645E+03</pdfrwt>
<pdfrwt beam="2">  1        2 0.99452968E-01 0.22368862E+03</pdfrwt>
<totfact> 0.57922314E+01</totfact>
</mgrwt>
</event>
<event>
 5    1  0.2226716E-003  0.1155806E+03  0.7818608E-02  0.1445141E+00
         11   -1    0    0    0    0  0.00000000000E+00  0.00000000000E+00  0.10001399908E+04  0.10001399908E+04  0.51100000000E-03 0.  1.
          2   -1    0    0  501    0 -0.00000000000E+00 -0.00000000000E+00 -0.88751918508E+03  0.88751918508E+03  0.25500000000E-02 0.  1.
         11    1    1    2    0    0  0.96561853327E+02  0.77509438946E+02  0.65110339612E+03  0.66277261340E+03  0.51100000000E-03 0.  1.
         22    1    1    2    0    0 -0.50403850715E+02 -0.96826880308E+02  0.33378679972E+03  0.35118317241E+03  0.00000000000E+00 0.  1.
          2    1    1    2  501    0 -0.46158002612E+02  0.19317441361E+02 -0.87226939015E+03  0.87370339003E+03  0.25500000000E-02 0.  1.
<mgrwt>
<rscale>  0 0.50037234E+02</rscale>
<asrwt>0</asrwt>
<pdfrwt beam="1">  1       11 0.10000000E+01 0.11558059E+03</pdfrwt>
<pdfrwt beam="2">  1        2 0.13656052E+00 0.50037234E+02</pdfrwt>
<totfact> 0.41609888E+01</totfact>
</mgrwt>
</event>
<event>
 5    1  0.2226716E-003  0.7523577E+02  0.7818608E-02  0.1453197E+00
         11   -1    0    0    0    0  0.00000000000E+00  0.00000000000E+00  0.10004000659E+04  0.10004000659E+04  0.51100000000E-03 0.  1.
          2   -1    0    0  501    0 -0.00000000000E+00 -0.00000000000E+00 -0.11201194596E+02  0.11201194886E+02  0.25500000000E-02 0.  1.
         11    1    1    2    0    0  0.48188616886E+02 -0.82327593494E+02  0.40330893399E+03  0.41443705394E+03  0.51100000000E-03 0.  1.
         22    1    1    2    0    0 -0.23902290146E+01  0.66147386715E+02  0.30428347313E+03  0.31139945726E+03  0.00000000000E+00 0.  1.
          2    1    1    2  501    0 -0.45798387871E+02  0.16180206780E+02  0.28160646418E+03  0.28576474957E+03  0.25500000000E-02 0.  1.
<mgrwt>
<rscale>  0 0.48572538E+02</rscale>
<asrwt>0</asrwt>
<pdfrwt beam="1">  1       11 0.10000000E+01 0.75235771E+02</pdfrwt>
<pdfrwt beam="2">  1        2 0.17239501E-02 0.48572538E+02</pdfrwt>
<totfact> 0.66311893E+03</totfact>
</mgrwt>
</event>
<event>
 5    1  0.2226716E-003  0.2590481E+03  0.7818608E-02  0.1107717E+00
         11   -1    0    0    0    0  0.00000000000E+00  0.00000000000E+00  0.99998062317E+03  0.99998062317E+03  0.51100000000E-03 0. -1.
          2   -1    0    0  501    0 -0.00000000000E+00 -0.00000000000E+00 -0.12673351758E+03  0.12673351761E+03  0.25500000000E-02 0. -1.
         11    1    1    2    0    0 -0.13769260179E+03 -0.25544945165E+03  0.13871096898E+03  0.32164329288E+03  0.51100000000E-03 0. -1.
         22    1    1    2    0    0 -0.11955823261E+02  0.10739313683E+03  0.35477609416E+03  0.37086696339E+03  0.00000000000E+00 0. -1.
          2    1    1    2  501    0  0.14964842505E+03  0.14805631482E+03  0.37976004245E+03  0.43420388451E+03  0.25500000000E-02 0. -1.
<mgrwt>
<rscale>  0 0.25904805E+03</rscale>
<asrwt>0</asrwt>
<pdfrwt beam="1">  1       11 0.10000000E+01 0.10805659E+03</pdfrwt>
<pdfrwt beam="2">  1        2 0.19497086E-01 0.25904805E+03</pdfrwt>
<totfact> 0.35266450E+02</totfact>
</mgrwt>
</event>
<event>
 5    1  0.2226716E-003  0.5472207E+03  0.7818608E-02  0.1002139E+00
         11   -1    0    0    0    0  0.00000000000E+00  0.00000000000E+00  0.10000239612E+04  0.10000239612E+04  0.51100000000E-03 0. -1.
          2   -1    0    0  501    0 -0.00000000000E+00 -0.00000000000E+00 -0.10225673328E+04  0.10225673328E+04  0.25500000000E-02 0. -1.
         11    1    1    2    0    0  0.17223667474E+03 -0.51733637072E+03  0.77578536049E+03  0.94823273417E+03  0.51100000000E-03 0. -1.
         22    1    1    2    0    0 -0.16538804179E+02 -0.74840073103E+01  0.56456822822E+02  0.59303585493E+02  0.00000000000E+00 0.  1.
          2    1    1    2  501    0 -0.15569787057E+03  0.52482037803E+03 -0.85478555484E+03  0.10150549743E+04  0.25500000000E-02 0. -1.
<mgrwt>
<rscale>  0 0.54722073E+03</rscale>
<asrwt>0</asrwt>
<pdfrwt beam="1">  1       11 0.10000000E+01 0.18153303E+02</pdfrwt>
<pdfrwt beam="2">  1        2 0.15732182E+00 0.54722073E+03</pdfrwt>
<totfact> 0.30759173E+01</totfact>
</mgrwt>
</event>
<event>
 5    1  0.2226716E-003  0.1421799E+03  0.7818608E-02  0.1494778E+00
         11   -1    0    0    0    0  0.00000000000E+00  0.00000000000E+00  0.99993666993E+03  0.99993666993E+03  0.51100000000E-03 0.  1.
          2   -1    0    0  501    0 -0.00000000000E+00 -0.00000000000E+00 -0.97378362387E+02  0.97378362421E+02  0.25500000000E-02 0.  1.
         11    1    1    2    0    0 -0.10681937784E+03 -0.11893479238E+03  0.29879232343E+03  0.33886976387E+03  0.51100000000E-03 0.  1.
         22    1    1    2    0    0  0.11313677994E+03  0.77528557673E+02  0.66790483178E+03  0.68184123706E+03  0.00000000000E+00 0.  1.
          2    1    1    2  501    0 -0.63174021059E+01  0.41406234711E+02 -0.64138847678E+02  0.76604031423E+02  0.25500000000E-02 0.  1.
<mgrwt>
<rscale>  0 0.41885389E+02</rscale>
<asrwt>0</asrwt>
<pdfrwt beam="1">  1       11 0.10000000E+01 0.14217990E+03</pdfrwt>
<pdfrwt beam="2">  1        2 0.14980337E-01 0.41885389E+02</pdfrwt>
<totfact> 0.44118178E+02</totfact>
</mgrwt>
</event>
<event>
 5    1  0.2226716E-003  0.1815131E+03  0.7818608E-02  0.1166347E+00
         11   -1    0    0    0    0  0.00000000000E+00  0.00000000000E+00  0.10002198719E+04  0.10002198719E+04  0.51100000000E-03 0.  1.
          2   -1    0    0  501    0 -0.00000000000E+00 -0.00000000000E+00 -0.40369024536E+02  0.40369024616E+02  0.25500000000E-02 0.  1.
         11    1    1    2    0    0  0.12109341450E+03 -0.13198291590E+03  0.24774398431E+03  0.30571258870E+03  0.51100000000E-03 0.  1.
         22    1    1    2    0    0 -0.10143902580E+02  0.95130971744E+01  0.30466641120E+02  0.33490506095E+02  0.00000000000E+00 0. -1.
          2    1    1    2  501    0 -0.11094951192E+03  0.12246981873E+03  0.68164022196E+03  0.70138580175E+03  0.25500000000E-02 0.  1.
<mgrwt>
<rscale>  0 0.18151309E+03</rscale>
<asrwt>0</asrwt>
<pdfrwt beam="1">  1       11 0.10000000E+01 0.17911766E+03</pdfrwt>
<pdfrwt beam="2">  1        2 0.62119845E-02 0.18151309E+03</pdfrwt>
<totfact> 0.14125656E+03</totfact>
</mgrwt>
</event>
<event>
 5    1  0.2226716E-003  0.1934881E+03  0.7818608E-02  0.1264446E+00
         11   -1    0    0    0    0  0.00000000000E+00  0.00000000000E+00  0.10000095527E+04  0.10000095527E+04  0.51100000000E-03 0. -1.
          2   -1    0    0  501    0 -0.00000000000E+00 -0.00000000000E+00 -0.44316244054E+03  0.44316244055E+03  0.25500000000E-02 0.  1.
         11    1    1    2    0    0 -0.16153380685E+03 -0.31866942847E+02  0.20225591872E+03  0.26079902120E+03  0.51100000000E-03 0. -1.
         22    1    1    2    0    0  0.16541845957E+03  0.13973011876E+03  0.74577371020E+03  0.77657337044E+03  0.00000000000E+00 0. -1.
          2    1    1    2  501    0 -0.38846527138E+01 -0.10786317591E+03 -0.39118251676E+03  0.40579960161E+03  0.25500000000E-02 0.  1.
<mgrwt>
<rscale>  0 0.10793311E+03</rscale>
<asrwt>0</asrwt>
<pdfrwt beam="1">  1       11 0.10000000E+01 0.19348812E+03</pdfrwt>
<pdfrwt beam="2">  1        2 0.68179486E-01 0.10793311E+03</pdfrwt>
<totfact> 0.89562542E+01</totfact>
</mgrwt>
</event>
<event>
 5    1  0.2226716E-003  0.1059422E+03  0.7818608E-02  0.1268274E+00
         11   -1    0    0    0    0  0.00000000000E+00  0.00000000000E+00  0.10000937058E+04  0.10000937058E+04  0.51100000000E-03 0. -1.
          2   -1    0    0  501    0 -0.00000000000E+00 -0.00000000000E+00 -0.11428076021E+02  0.11428076306E+02  0.25500000000E-02 0. -1.
         11    1    1    2    0    0  0.10046618324E+03  0.20872668370E+02  0.37533589889E+03  0.38910944380E+03  0.51100000000E-03 0. -1.
         22    1    1    2    0    0 -0.57189885318E+02 -0.18488554481E+02  0.28773103708E+03  0.29394159169E+03  0.00000000000E+00 0. -1.
          2    1    1    2  501    0 -0.43276297922E+02 -0.23841138891E+01  0.32559869377E+03  0.32847074657E+03  0.25500000000E-02 0. -1.
<mgrwt>
<rscale>  0 0.10594225E+03</rscale>
<asrwt>0</asrwt>
<pdfrwt beam="1">  1       11 0.10000000E+01 0.10261156E+03</pdfrwt>
<pdfrwt beam="2">  1        2 0.17583303E-02 0.10594225E+03</pdfrwt>
<totfact> 0.72233234E+03</totfact>
</mgrwt>
</event>
<event>
 5    1  0.2226716E-003  0.5110185E+03  0.7818608E-02  0.1010942E+00
         11   -1    0    0    0    0  0.00000000000E+00  0.00000000000E+00  0.10001415113E+04  0.10001415113E+04  0.51100000000E-03 0. -1.
          2   -1    0    0  501    0 -0.00000000000E+00 -0.00000000000E+00 -0.30419843851E+03  0.30419843853E+03  0.25500000000E-02 0. -1.
         11    1    1    2    0    0 -0.31631327821E+03  0.41993869503E+03  0.19076703942E+03  0.55928048499E+03  0.51100000000E-03 0. -1.
         22    1    1    2    0    0  0.21060249601E+02 -0.27823181321E+02  0.10847291137E+03  0.11394751438E+03  0.00000000000E+00 0. -1.
          2    1    1    2  501    0  0.29525302861E+03 -0.39211551371E+03  0.39670312198E+03  0.63111195044E+03  0.25500000000E-02 0. -1.
<mgrwt>
<rscale>  0 0.51101852E+03</rscale>
<asrwt>0</asrwt>
<pdfrwt beam="1">  1       11 0.10000000E+01 0.34895036E+02</pdfrwt>
<pdfrwt beam="2">  1        2 0.46806381E-01 0.51101852E+03</pdfrwt>
<totfact> 0.13364510E+02</totfact>
</mgrwt>
</event>
<event>
 5    1  0.2226716E-003  0.1622166E+03  0.7818608E-02  0.1392972E+00
         11   -1    0    0    0    0  0.00000000000E+00  0.00000000000E+00  0.10007858143E+04  0.10007858143E+04  0.51100000000E-03 0.  1.
          2   -1    0    0  501    0 -0.00000000000E+00 -0.00000000000E+00 -0.32767664566E+04  0.32767664566E+04  0.25500000000E-02 0. -1.
         11    1    1    2    0    0  0.13559300421E+03  0.84030475920E+01  0.36705598949E+03  0.39139005279E+03  0.51100000000E-03 0.  1.
         22    1    1    2    0    0 -0.19590669056E+03  0.18180072824E+01  0.60582970462E+03  0.63672000719E+03  0.00000000000E+00 0.  1.
          2    1    1    2  501    0  0.60313686354E+02 -0.10221054874E+02 -0.32488663364E+04  0.32494422110E+04  0.25500000000E-02 0. -1.
<mgrwt>
<rscale>  0 0.61173611E+02</rscale>
<asrwt>0</asrwt>
<pdfrwt beam="1">  1       11 0.10000000E+01 0.16221658E+03</pdfrwt>
<pdfrwt beam="2">  1        2 0.50451405E+00 0.61173611E+02</pdfrwt>
<totfact> 0.22773398E+00</totfact>
</mgrwt>
</event>
<event>
 5    1  0.2226716E-003  0.2147228E+03  0.7818608E-02  0.1146070E+00
         11   -1    0    0    0    0  0.00000000000E+00  0.00000000000E+00  0.10002676950E+04  0.10002676950E+04  0.51100000000E-03 0. -1.
          2   -1    0    0  501    0 -0.00000000000E+00 -0.00000000000E+00 -0.49783252243E+02  0.49783252308E+02  0.25500000000E-02 0. -1.
         11    1    1    2    0    0  0.15770689297E+03 -0.75443630538E+02  0.51718521048E+03  0.54593383063E+03  0.51100000000E-03 0. -1.
         22    1    1    2    0    0  0.13245524249E+02 -0.36622728026E+02  0.14871097068E+03  0.15372579784E+03  0.00000000000E+00 0.  1.
          2    1    1    2  501    0 -0.17095241722E+03  0.11206635856E+03  0.28458826159E+03  0.35039131884E+03  0.25500000000E-02 0. -1.
<mgrwt>
<rscale>  0 0.20441037E+03</rscale>
<asrwt>0</asrwt>
<pdfrwt beam="1">  1       11 0.10000000E+01 0.21472278E+03</pdfrwt>
<pdfrwt beam="2">  1        2 0.76610119E-02 0.20441037E+03</pdfrwt>
<totfact> 0.10872289E+03</totfact>
</mgrwt>
</event>
<event>
 5    1  0.2226716E-003  0.1314973E+03  0.7818608E-02  0.1225251E+00
         11   -1    0    0    0    0  0.00000000000E+00  0.00000000000E+00  0.99993825443E+03  0.99993825443E+03  0.51100000000E-03 0.  1.
          2   -1    0    0  501    0 -0.00000000000E+00 -0.00000000000E+00 -0.22102293662E+02  0.22102293809E+02  0.25500000000E-02 0.  1.
         11    1    1    2    0    0  0.12518597611E+03 -0.90175063272E+01  0.59596637195E+03  0.60903921100E+03  0.51100000000E-03 0.  1.
         22    1    1    2    0    0  0.95994914885E+01  0.16797164134E+02  0.80164492997E+02  0.82465998431E+02  0.00000000000E+00 0.  1.
          2    1    1    2  501    0 -0.13478546760E+03 -0.77796578063E+01  0.30170509582E+03  0.33053533881E+03  0.25500000000E-02 0.  1.
<mgrwt>
<rscale>  0 0.13149725E+03</rscale>
<asrwt>0</asrwt>
<pdfrwt beam="1">  1       11 0.10000000E+01 0.19346704E+02</pdfrwt>
<pdfrwt beam="2">  1        2 0.34001428E-02 0.13149725E+03</pdfrwt>
<totfact> 0.30412420E+03</totfact>
</mgrwt>
</event>
<event>
 5    1  0.2226716E-003  0.1731559E+03  0.7818608E-02  0.1225295E+00
         11   -1    0    0    0    0  0.00000000000E+00  0.00000000000E+00  0.99995891198E+03  0.99995891198E+03  0.51100000000E-03 0.  1.
          2   -1    0    0  501    0 -0.00000000000E+00 -0.00000000000E+00 -0.13360275772E+04  0.13360275772E+04  0.25500000000E-02 0.  1.
         11    1    1    2    0    0  0.28532183260E+03  0.98785055370E+02 -0.10910738544E+04  0.11320817952E+04  0.51100000000E-03 0.  1.
         22    1    1    2    0    0 -0.16740267883E+03 -0.40658441116E+02  0.95178475774E+03  0.96724918754E+03  0.00000000000E+00 0.  1.
          2    1    1    2  501    0 -0.11791915377E+03 -0.58126614254E+02 -0.19677956862E+03  0.23665550647E+03  0.25500000000E-02 0.  1.
<mgrwt>
<rscale>  0 0.13146722E+03</rscale>
<asrwt>0</asrwt>
<pdfrwt beam="1">  1       11 0.10000000E+01 0.17315591E+03</pdfrwt>
<pdfrwt beam="2">  1        2 0.20553425E+00 0.13146722E+03</pdfrwt>
<totfact> 0.22053528E+01</totfact>
</mgrwt>
</event>
<event>
 5    1  0.2226716E-003  0.1294425E+03  0.7818608E-02  0.1228285E+00
         11   -1    0    0    0    0  0.00000000000E+00  0.00000000000E+00  0.10002499668E+04  0.10002499668E+04  0.51100000000E-03 0. -1.
          2   -1    0    0  501    0 -0.00000000000E+00 -0.00000000000E+00 -0.86124637266E+02  0.86124637304E+02  0.25500000000E-02 0.  1.
         11    1    1    2    0    0 -0.34075884408E+01  0.16068735462E+03  0.79609485506E+03  0.81215703891E+03  0.51100000000E-03 0. -1.
         22    1    1    2    0    0  0.19320792648E+01 -0.33325055455E+02  0.14090841036E+03  0.14480839879E+03  0.00000000000E+00 0.  1.
          2    1    1    2  501    0  0.14755091760E+01 -0.12736229917E+03 -0.22877935937E+02  0.12940916635E+03  0.25500000000E-02 0.  1.
<mgrwt>
<rscale>  0 0.12944246E+03</rscale>
<asrwt>0</asrwt>
<pdfrwt beam="1">  1       11 0.10000000E+01 0.33381016E+02</pdfrwt>
<pdfrwt beam="2">  1        2 0.13253256E-01 0.12944246E+03</pdfrwt>
<totfact> 0.54014134E+02</totfact>
</mgrwt>
</event>
<event>
 5    1  0.2226716E-003  0.1377596E+03  0.7818608E-02  0.1216376E+00
         11   -1    0    0    0    0  0.00000000000E+00  0.00000000000E+00  0.10001874759E+04  0.10001874759E+04  0.51100000000E-03 0. -1.
          2   -1    0    0  501    0 -0.00000000000E+00 -0.00000000000E+00 -0.32340430915E+02  0.32340431016E+02  0.25500000000E-02 0. -1.
         11    1    1    2    0    0 -0.43174245956E+02 -0.13658536816E+03  0.71642650739E+03  0.73060695233E+03  0.51100000000E-03 0. -1.
         22    1    1    2    0    0 -0.16843637115E+02  0.13870698253E+02  0.78922314280E+02  0.81883063405E+02  0.00000000000E+00 0. -1.
          2    1    1    2  501    0  0.60017883071E+02  0.12271466991E+03  0.17249822332E+03  0.22003789118E+03  0.25500000000E-02 0. -1.
<mgrwt>
<rscale>  0 0.13775960E+03</rscale>
<asrwt>0</asrwt>
<pdfrwt beam="1">  1       11 0.10000000E+01 0.21819816E+02</pdfrwt>
<pdfrwt beam="2">  1        2 0.49763836E-02 0.13775960E+03</pdfrwt>
<totfact> 0.18461970E+03</totfact>
</mgrwt>
</event>
<event>
 5    1  0.2226716E-003  0.1376730E+03  0.7818608E-02  0.1607301E+00
         11   -1    0    0    0    0  0.00000000000E+00  0.00000000000E+00  0.10001149085E+04  0.10001149085E+04  0.51100000000E-03 0. -1.
         -2   -1    0    0    0  501 -0.00000000000E+00 -0.00000000000E+00 -0.65055521404E+02  0.65055521454E+02  0.25500000000E-02 0. -1.
         11    1    1    2    0    0  0.89945393971E+02 -0.10536860901E+03  0.70792111945E+03  0.72134945000E+03  0.51100000000E-03 0. -1.
         22    1    1    2    0    0 -0.10940470274E+03  0.83620710538E+02  0.26343123076E+03  0.29725044248E+03  0.00000000000E+00 0. -1.
         -2    1    1    2    0  501  0.19459308772E+02  0.21747898467E+02 -0.36292963093E+02  0.46570537491E+02  0.25500000000E-02 0. -1.
<mgrwt>
<rscale>  0 0.29182800E+02</rscale>
<asrwt>0</asrwt>
<pdfrwt beam="1">  1       11 0.10000000E+01 0.13767301E+03</pdfrwt>
<pdfrwt beam="2">  1       -2 0.10009692E-01 0.29182800E+02</pdfrwt>
<totfact> 0.45262852E+02</totfact>
</mgrwt>
</event>
<event>
 5    1  0.2226716E-003  0.1178317E+03  0.7818608E-02  0.1246717E+00
         11   -1    0    0    0    0  0.00000000000E+00  0.00000000000E+00  0.10001755214E+04  0.10001755214E+04  0.51100000000E-03 0. -1.
         -2   -1    0    0    0  501 -0.00000000000E+00 -0.00000000000E+00 -0.33595303917E+02  0.33595304014E+02  0.25500000000E-02 0. -1.
         11    1    1    2    0    0  0.93750091746E+02 -0.96668053710E+02  0.73648032563E+03  0.74869023124E+03  0.51100000000E-03 0. -1.
         22    1    1    2    0    0 -0.45682386922E+01  0.23883584456E+02  0.13084540890E+03  0.13308574469E+03  0.00000000000E+00 0. -1.
         -2    1    1    2    0  501 -0.89181853053E+02  0.72784469255E+02  0.99254482980E+02  0.15199484951E+03  0.25500000000E-02 0. -1.
<mgrwt>
<rscale>  0 0.11783173E+03</rscale>
<asrwt>0</asrwt>
<pdfrwt beam="1">  1       11 0.10000000E+01 0.24316546E+02</pdfrwt>
<pdfrwt beam="2">  1       -2 0.51694153E-02 0.11783173E+03</pdfrwt>
<totfact> 0.13877607E+03</totfact>
</mgrwt>
</event>
<event>
 5    1  0.2226716E-003  0.4258728E+02  0.7818608E-02  0.1514073E+00
         11   -1    0    0    0    0  0.00000000000E+00  0.00000000000E+00  0.10001002284E+04  0.10001002284E+04  0.51100000000E-03 0. -1.
          2   -1    0    0  501    0 -0.00000000000E+00 -0.00000000000E+00 -0.20807281670E+02  0.20807281827E+02  0.25500000000E-02 0. -1.
         11    1    1    2    0    0  0.50490813556E+02  0.58935770835E+02  0.70857438236E+02  0.10508817198E+03  0.51100000000E-03 0. -1.
         22    1    1    2    0    0 -0.23618142156E+02 -0.27313402997E+02  0.10000124605E+03  0.10632068394E+03  0.00000000000E+00 0. -1.
          2    1    1    2  501    0 -0.26872671400E+02 -0.31622367838E+02  0.80843426244E+03  0.80949865429E+03  0.25500000000E-02 0. -1.
<mgrwt>
<rscale>  0 0.39214420E+02</rscale>
<asrwt>0</asrwt>
<pdfrwt beam="1">  1       11 0.10000000E+01 0.42587278E+02</pdfrwt>
<pdfrwt beam="2">  1        2 0.32014410E-02 0.39214420E+02</pdfrwt>
<totfact> 0.28610178E+03</totfact>
</mgrwt>
</event>
<event>
 5    1  0.2226716E-003  0.7100070E+02  0.7818608E-02  0.1397235E+00
         11   -1    0    0    0    0  0.00000000000E+00  0.00000000000E+00  0.10001579778E+04  0.10001579778E+04  0.51100000000E-03 0.  1.
          2   -1    0    0  501    0 -0.00000000000E+00 -0.00000000000E+00 -0.12829499343E+02  0.12829499597E+02  0.25500000000E-02 0.  1.
         11    1    1    2    0    0  0.33072430635E+02 -0.80042056927E+02  0.49199479633E+03  0.49955920186E+03  0.51100000000E-03 0.  1.
         22    1    1    2    0    0 -0.61939654998E+02  0.27280294826E+02  0.34374656852E+03  0.35034616983E+03  0.00000000000E+00 0.  1.
          2    1    1    2  501    0  0.28867224363E+02  0.52761762101E+02  0.15158711356E+03  0.16308210566E+03  0.25500000000E-02 0.  1.
<mgrwt>
<rscale>  0 0.60142499E+02</rscale>
<asrwt>0</asrwt>
<pdfrwt beam="1">  1       11 0.10000000E+01 0.71000696E+02</pdfrwt>
<pdfrwt beam="2">  1        2 0.19740809E-02 0.60142499E+02</pdfrwt>
<totfact> 0.57210087E+03</totfact>
</mgrwt>
</event>
<event>
 5    1  0.2226716E-003  0.1954108E+03  0.7818608E-02  0.1384433E+00
         11   -1    0    0    0    0  0.00000000000E+00  0.00000000000E+00  0.10001924321E+04  0.10001924321E+04  0.51100000000E-03 0. -1.
          2   -1    0    0  501    0 -0.00000000000E+00 -0.00000000000E+00 -0.44072785625E+02  0.44072785699E+02  0.25500000000E-02 0. -1.
         11    1    1    2    0    0 -0.13624877858E+03  0.13564590014E+03  0.51188912078E+03  0.54680344902E+03  0.51100000000E-03 0. -1.
         22    1    1    2    0    0 -0.18465073593E+02 -0.89347771712E+01  0.20962622676E+02  0.29329519863E+02  0.00000000000E+00 0.  1.
          2    1    1    2  501    0  0.15471385218E+03 -0.12671112297E+03  0.42326790302E+03  0.46813224891E+03  0.25500000000E-02 0. -1.
<mgrwt>
<rscale>  0 0.63312644E+02</rscale>
<asrwt>0</asrwt>
<pdfrwt beam="1">  1       11 0.10000000E+01 0.19541083E+03</pdfrwt>
<pdfrwt beam="2">  1        2 0.67817331E-02 0.63312644E+02</pdfrwt>
<totfact> 0.11649707E+03</totfact>
</mgrwt>
</event>
<event>
 5    1  0.2226716E-003  0.9492286E+02  0.7818608E-02  0.1291350E+00
         11   -1    0    0    0    0  0.00000000000E+00  0.00000000000E+00  0.10005318092E+04  0.10005318092E+04  0.51100000000E-03 0. -1.
          2   -1    0    0  501    0 -0.00000000000E+00 -0.00000000000E+00 -0.60661602333E+02  0.60661602387E+02  0.25500000000E-02 0. -1.
         11    1    1    2    0    0 -0.87297293983E+02 -0.26466865046E+02  0.49687970439E+03  0.50518388050E+03  0.51100000000E-03 0. -1.
         22    1    1    2    0    0  0.94948172286E+02  0.11751759067E+03  0.43931087288E+03  0.46456386275E+03  0.00000000000E+00 0. -1.
          2    1    1    2  501    0 -0.76508783033E+01 -0.91050725623E+02  0.36796295806E+01  0.91445668327E+02  0.25500000000E-02 0. -1.
<mgrwt>
<rscale>  0 0.94922862E+02</rscale>
<asrwt>0</asrwt>
<pdfrwt beam="1">  1       11 0.10000000E+01 0.91221228E+02</pdfrwt>
<pdfrwt beam="2">  1        2 0.93375171E-02 0.94922862E+02</pdfrwt>
<totfact> 0.80950976E+02</totfact>
</mgrwt>
</event>
<event>
 5    1  0.2226716E-003  0.1719179E+03  0.7818608E-02  0.1180334E+00
         11   -1    0    0    0    0  0.00000000000E+00  0.00000000000E+00  0.10003072569E+04  0.10003072569E+04  0.51100000000E-03 0.  1.
          2   -1    0    0  501    0 -0.00000000000E+00 -0.00000000000E+00 -0.60183666910E+02  0.60183666964E+02  0.25500000000E-02 0.  1.
         11    1    1    2    0    0 -0.11781791141E+03 -0.10477754066E+03  0.79204250299E+03  0.80758325875E+03  0.51100000000E-03 0.  1.
         22    1    1    2    0    0 -0.14107196161E+02  0.13452230751E+01  0.63649491189E+02  0.65207977558E+02  0.00000000000E+00 0.  1.
          2    1    1    2  501    0  0.13192510757E+03  0.10343231758E+03  0.84431595802E+02  0.18769968754E+03  0.25500000000E-02 0.  1.
<mgrwt>
<rscale>  0 0.16763794E+03</rscale>
<asrwt>0</asrwt>
<pdfrwt beam="1">  1       11 0.10000000E+01 0.17191787E+03</pdfrwt>
<pdfrwt beam="2">  1        2 0.92618703E-02 0.16763794E+03</pdfrwt>
<totfact> 0.84627815E+02</totfact>
</mgrwt>
</event>
<event>
 5    1  0.2226716E-003  0.1625651E+03  0.7818608E-02  0.1196564E+00
         11   -1    0    0    0    0  0.00000000000E+00  0.00000000000E+00  0.99948919121E+03  0.99948919121E+03  0.51100000000E-03 0. -1.
          2   -1    0    0  501    0 -0.00000000000E+00 -0.00000000000E+00 -0.29071680802E+03  0.29071680803E+03  0.25500000000E-02 0.  1.
         11    1    1    2    0    0 -0.19247727971E+02  0.13536325379E+03  0.81894500392E+03  0.83027983533E+03  0.51100000000E-03 0. -1.
         22    1    1    2    0    0  0.18671087816E+02  0.17861845386E+02  0.15312448215E+03  0.15528928513E+03  0.00000000000E+00 0.  1.
          2    1    1    2  501    0  0.57664015486E+00 -0.15322509917E+03 -0.26329710287E+03  0.30463687879E+03  0.25500000000E-02 0.  1.
<mgrwt>
<rscale>  0 0.15322618E+03</rscale>
<asrwt>0</asrwt>
<pdfrwt beam="1">  1       11 0.10000000E+01 0.16256508E+03</pdfrwt>
<pdfrwt beam="2">  1        2 0.44702815E-01 0.15322618E+03</pdfrwt>
<totfact> 0.14018678E+02</totfact>
</mgrwt>
</event>
<event>
 5    1  0.2226716E-003  0.1594416E+03  0.7818608E-02  0.1189329E+00
         11   -1    0    0    0    0  0.00000000000E+00  0.00000000000E+00  0.10002658487E+04  0.10002658487E+04  0.51100000000E-03 0.  1.
          2   -1    0    0  501    0 -0.00000000000E+00 -0.00000000000E+00 -0.29028455025E+02  0.29028455137E+02  0.25500000000E-02 0.  1.
         11    1    1    2    0    0  0.11609297738E+03  0.10008135257E+03  0.68209806951E+03  0.69910774060E+03  0.51100000000E-03 0.  1.
         22    1    1    2    0    0 -0.50569834358E+02 -0.71588933342E+02  0.16999239653E+03  0.19125819826E+03  0.00000000000E+00 0.  1.
          2    1    1    2  501    0 -0.65523143026E+02 -0.28492419226E+02  0.11914692765E+03  0.13892836499E+03  0.25500000000E-02 0.  1.
<mgrwt>
<rscale>  0 0.15944158E+03</rscale>
<asrwt>0</asrwt>
<pdfrwt beam="1">  1       11 0.10000000E+01 0.15327706E+03</pdfrwt>
<pdfrwt beam="2">  1        2 0.44671033E-02 0.15944158E+03</pdfrwt>
<totfact> 0.21535254E+03</totfact>
</mgrwt>
</event>
<event>
 5    1  0.2226716E-003  0.5443654E+03  0.7818608E-02  0.1002807E+00
         11   -1    0    0    0    0  0.00000000000E+00  0.00000000000E+00  0.10007103385E+04  0.10007103385E+04  0.51100000000E-03 0. -1.
          2   -1    0    0  501    0 -0.00000000000E+00 -0.00000000000E+00 -0.61781766515E+03  0.61781766516E+03  0.25500000000E-02 0. -1.
         11    1    1    2    0    0  0.20041413161E+03 -0.52485566932E+03  0.69502723554E+03  0.89370137960E+03  0.51100000000E-03 0. -1.
         22    1    1    2    0    0 -0.55728993900E+01  0.19889065638E+02  0.62988796300E+02  0.66288917617E+02  0.00000000000E+00 0. -1.
          2    1    1    2  501    0 -0.19484123222E+03  0.50496660368E+03 -0.37512335854E+03  0.65853770639E+03  0.25500000000E-02 0. -1.
<mgrwt>
<rscale>  0 0.54436543E+03</rscale>
<asrwt>0</asrwt>
<pdfrwt beam="1">  1       11 0.10000000E+01 0.20655075E+02</pdfrwt>
<pdfrwt beam="2">  1        2 0.95116386E-01 0.54436543E+03</pdfrwt>
<totfact> 0.59717323E+01</totfact>
</mgrwt>
</event>
<event>
 5    1  0.2226716E-003  0.2430950E+03  0.7818608E-02  0.1128441E+00
         11   -1    0    0    0    0  0.00000000000E+00  0.00000000000E+00  0.10004109361E+04  0.10004109361E+04  0.51100000000E-03 0. -1.
         -2   -1    0    0    0  501 -0.00000000000E+00 -0.00000000000E+00 -0.77365112370E+02  0.77365112412E+02  0.25500000000E-02 0.  1.
         11    1    1    2    0    0  0.17258577826E+02 -0.17557822000E+03  0.68280686213E+03  0.70523101238E+03  0.51100000000E-03 0. -1.
         22    1    1    2    0    0 -0.11124168082E+01 -0.51307493864E+02  0.77149783037E+02  0.92659513383E+02  0.00000000000E+00 0.  1.
         -2    1    1    2    0  501 -0.16146161018E+02  0.22688571386E+03  0.16308917854E+03  0.27988552273E+03  0.25500000000E-02 0.  1.
<mgrwt>
<rscale>  0 0.22745950E+03</rscale>
<asrwt>0</asrwt>
<pdfrwt beam="1">  1       11 0.10000000E+01 0.24309502E+03</pdfrwt>
<pdfrwt beam="2">  1       -2 0.11907216E-01 0.22745950E+03</pdfrwt>
<totfact> 0.39734179E+02</totfact>
</mgrwt>
</event>
<event>
 5    1  0.2226716E-003  0.2458846E+03  0.7818608E-02  0.1243020E+00
         11   -1    0    0    0    0  0.00000000000E+00  0.00000000000E+00  0.10002632794E+04  0.10002632794E+04  0.51100000000E-03 0. -1.
          2   -1    0    0  501    0 -0.00000000000E+00 -0.00000000000E+00 -0.87832831055E+02  0.87832831092E+02  0.25500000000E-02 0. -1.
         11    1    1    2    0    0 -0.24420758637E+03 -0.11316441866E+03  0.31211910938E+03  0.41214302048E+03  0.51100000000E-03 0. -1.
         22    1    1    2    0    0  0.14907005318E+02  0.56682513998E+02  0.49736155397E+02  0.76868793111E+02  0.00000000000E+00 0. -1.
          2    1    1    2  501    0  0.22930058105E+03  0.56481904664E+02  0.55057518353E+03  0.59908429686E+03  0.25500000000E-02 0. -1.
<mgrwt>
<rscale>  0 0.12004699E+03</rscale>
<asrwt>0</asrwt>
<pdfrwt beam="1">  1       11 0.10000000E+01 0.24588464E+03</pdfrwt>
<pdfrwt beam="2">  1        2 0.13516300E-01 0.12004699E+03</pdfrwt>
<totfact> 0.52582110E+02</totfact>
</mgrwt>
</event>
<event>
 5    1  0.2226716E-003  0.2595955E+03  0.7818608E-02  0.1107387E+00
         11   -1    0    0    0    0  0.00000000000E+00  0.00000000000E+00  0.10004661525E+04  0.10004661525E+04  0.51100000000E-03 0. -1.
          2   -1    0    0  501    0 -0.00000000000E+00 -0.00000000000E+00 -0.76012795929E+02  0.76012795972E+02  0.25500000000E-02 0. -1.
         11    1    1    2    0    0 -0.24779594102E+03  0.10394483410E+03  0.50300429592E+03  0.57028122767E+03  0.51100000000E-03 0. -1.
         22    1    1    2    0    0  0.11624981581E+02 -0.13018803143E+02  0.75947674638E+02  0.77927393868E+02  0.00000000000E+00 0.  1.
          2    1    1    2  501    0  0.23617095944E+03 -0.90926030953E+02  0.34550138602E+03  0.42827032693E+03  0.25500000000E-02 0. -1.
<mgrwt>
<rscale>  0 0.25959546E+03</rscale>
<asrwt>0</asrwt>
<pdfrwt beam="1">  1       11 0.10000000E+01 0.17453637E+02</pdfrwt>
<pdfrwt beam="2">  1        2 0.11699727E-01 0.25959546E+03</pdfrwt>
<totfact> 0.64781976E+02</totfact>
</mgrwt>
</event>
<event>
 5    1  0.2277626E-003  0.1301272E+04  0.7818608E-02  0.1235692E+00
         11   -1    0    0    0    0  0.00000000000E+00  0.00000000000E+00  0.10001124246E+04  0.10001124246E+04  0.51100000000E-03 0. -1.
          2   -1    0    0  501    0 -0.00000000000E+00 -0.00000000000E+00 -0.18590897625E+04  0.18590897625E+04  0.25500000000E-02 0. -1.
         11    1    1    2    0    0  0.56562584474E+03  0.11730209295E+04 -0.20137127093E+02  0.13024270425E+04  0.51100000000E-03 0. -1.
         22    1    1    2    0    0  0.92224562093E+01 -0.75696783885E+01 -0.71715205142E+01  0.13920647827E+02  0.00000000000E+00 0.  1.
          2    1    1    2  501    0 -0.57484830095E+03 -0.11654512511E+04 -0.83166869031E+03  0.15428544968E+04  0.25500000000E-02 0. -1.
<mgrwt>
<rscale>  0 0.12460235E+03</rscale>
<asrwt>0</asrwt>
<pdfrwt beam="1">  1       11 0.10000000E+01 0.13012718E+04</pdfrwt>
<pdfrwt beam="2">  1        2 0.28604596E+00 0.12460235E+03</pdfrwt>
<totfact> 0.11888010E+01</totfact>
</mgrwt>
</event>
<event>
 5    1  0.2226716E-003  0.2032926E+03  0.7818608E-02  0.1152631E+00
         11   -1    0    0    0    0  0.00000000000E+00  0.00000000000E+00  0.10003065340E+04  0.10003065340E+04  0.51100000000E-03 0. -1.
         -2   -1    0    0    0  501 -0.00000000000E+00 -0.00000000000E+00 -0.72574792354E+02  0.72574792399E+02  0.25500000000E-02 0.  1.
         11    1    1    2    0    0 -0.94119910891E+02 -0.16237626489E+03  0.76253227150E+03  0.78528980262E+03  0.51100000000E-03 0. -1.
         22    1    1    2    0    0  0.70693196388E+01 -0.13912307116E+02  0.65142948940E+02  0.66986053519E+02  0.00000000000E+00 0.  1.
         -2    1    1    2    0  501  0.87050591252E+02  0.17628857201E+03  0.10005652118E+03  0.22060547023E+03  0.25500000000E-02 0.  1.
<mgrwt>
<rscale>  0 0.19660993E+03</rscale>
<asrwt>0</asrwt>
<pdfrwt beam="1">  1       11 0.10000000E+01 0.20329256E+03</pdfrwt>
<pdfrwt beam="2">  1       -2 0.11168775E-01 0.19660993E+03</pdfrwt>
<totfact> 0.43730783E+02</totfact>
</mgrwt>
</event>
<event>
 5    1  0.2226716E-003  0.1353043E+03  0.7818608E-02  0.1219791E+00
         11   -1    0    0    0    0  0.00000000000E+00  0.00000000000E+00  0.10002000500E+04  0.10002000500E+04  0.51100000000E-03 0.  1.
         -2   -1    0    0    0  501 -0.00000000000E+00 -0.00000000000E+00 -0.38025212161E+02  0.38025212247E+02  0.25500000000E-02 0. -1.
         11    1    1    2    0    0  0.14473538594E+03  0.76418613051E+02  0.68232334251E+03  0.70167890099E+03  0.51100000000E-03 0.  1.
         22    1    1    2    0    0 -0.23713888792E+02 -0.31974569689E+02  0.14339525869E+03  0.14881841903E+03  0.00000000000E+00 0. -1.
         -2    1    1    2    0  501 -0.12102149715E+03 -0.44444043362E+02  0.13645623659E+03  0.18772794217E+03  0.25500000000E-02 0. -1.
<mgrwt>
<rscale>  0 0.13530431E+03</rscale>
<asrwt>0</asrwt>
<pdfrwt beam="1">  1       11 0.10000000E+01 0.39808562E+02</pdfrwt>
<pdfrwt beam="2">  1       -2 0.58512028E-02 0.13530431E+03</pdfrwt>
<totfact> 0.11652477E+03</totfact>
</mgrwt>
</event>
<event>
 5    1  0.2226716E-003  0.1079801E+03  0.7818608E-02  0.1361389E+00
         11   -1    0    0    0    0  0.00000000000E+00  0.00000000000E+00  0.10002764523E+04  0.10002764523E+04  0.51100000000E-03 0. -1.
         -2   -1    0    0    0  501 -0.00000000000E+00 -0.00000000000E+00 -0.24422792180E+03  0.24422792181E+03  0.25500000000E-02 0. -1.
         11    1    1    2    0    0  0.71357947248E+02  0.12790658856E+03  0.56526413285E+03  0.58393115341E+03  0.51100000000E-03 0. -1.
         22    1    1    2    0    0 -0.13216439079E+02 -0.89610744155E+02  0.41553166146E+03  0.42528969115E+03  0.00000000000E+00 0. -1.
         -2    1    1    2    0  501 -0.58141508169E+02 -0.38295844407E+02 -0.22474726381E+03  0.23528352953E+03  0.25500000000E-02 0. -1.
<mgrwt>
<rscale>  0 0.69620447E+02</rscale>
<asrwt>0</asrwt>
<pdfrwt beam="1">  1       11 0.10000000E+01 0.10798010E+03</pdfrwt>
<pdfrwt beam="2">  1       -2 0.37583913E-01 0.69620447E+02</pdfrwt>
<totfact> 0.53511829E+01</totfact>
</mgrwt>
</event>
<event>
 5    1  0.2226716E-003  0.1526573E+03  0.7818608E-02  0.1197245E+00
         11   -1    0    0    0    0  0.00000000000E+00  0.00000000000E+00  0.10000596291E+04  0.10000596291E+04  0.51100000000E-03 0. -1.
         -2   -1    0    0    0  501 -0.00000000000E+00 -0.00000000000E+00 -0.23252457145E+02  0.23252457285E+02  0.25500000000E-02 0.  1.
         11    1    1    2    0    0  0.12415461855E+03  0.83960251124E+02  0.54868441800E+03  0.56878667674E+03  0.51100000000E-03 0. -1.
         22    1    1    2    0    0 -0.13138594249E+02 -0.39804609640E+01  0.66061218263E+02  0.67472596561E+02  0.00000000000E+00 0.  1.
         -2    1    1    2    0  501 -0.11101602430E+03 -0.79979790160E+02  0.36206153569E+03  0.38705281308E+03  0.25500000000E-02 0.  1.
<mgrwt>
<rscale>  0 0.15265731E+03</rscale>
<asrwt>0</asrwt>
<pdfrwt beam="1">  1       11 0.10000000E+01 0.14987893E+03</pdfrwt>
<pdfrwt beam="2">  1       -2 0.35775143E-02 0.15265731E+03</pdfrwt>
<totfact> 0.24608934E+03</totfact>
</mgrwt>
</event>
<event>
 5    1  0.2226716E-003  0.2136124E+03  0.7818608E-02  0.1138737E+00
         11   -1    0    0    0    0  0.00000000000E+00  0.00000000000E+00  0.99981621515E+03  0.99981621515E+03  0.51100000000E-03 0. -1.
          2   -1    0    0  501    0 -0.00000000000E+00 -0.00000000000E+00 -0.12368375567E+03  0.12368375570E+03  0.25500000000E-02 0. -1.
         11    1    1    2    0    0  0.20583406640E+03  0.10723384057E+03  0.48614816697E+03  0.53870845519E+03  0.51100000000E-03 0. -1.
         22    1    1    2    0    0 -0.76559794676E+02  0.62540977050E+02  0.35505637949E+03  0.36856181108E+03  0.00000000000E+00 0. -1.
          2    1    1    2  501    0 -0.12927427172E+03 -0.16977481762E+03  0.34927913020E+02  0.21622970457E+03  0.25500000000E-02 0. -1.
<mgrwt>
<rscale>  0 0.21361237E+03</rscale>
<asrwt>0</asrwt>
<pdfrwt beam="1">  1       11 0.10000000E+01 0.98857352E+02</pdfrwt>
<pdfrwt beam="2">  1        2 0.19024772E-01 0.21361237E+03</pdfrwt>
<totfact> 0.36077952E+02</totfact>
</mgrwt>
</event>
<event>
 5    1  0.2226716E-003  0.2072844E+03  0.7818608E-02  0.1546065E+00
         11   -1    0    0    0    0  0.00000000000E+00  0.00000000000E+00  0.10001992213E+04  0.10001992213E+04  0.51100000000E-03 0. -1.
          2   -1    0    0  501    0 -0.00000000000E+00 -0.00000000000E+00 -0.56460157045E+03  0.56460157046E+03  0.25500000000E-02 0.  1.
         11    1    1    2    0    0  0.98611887477E+02 -0.16283749675E+03  0.30565603524E+03  0.36009160859E+03  0.51100000000E-03 0. -1.
         22    1    1    2    0    0 -0.93715067541E+02  0.19778321495E+03  0.64876492185E+03  0.68468725548E+03  0.00000000000E+00 0. -1.
          2    1    1    2  501    0 -0.48968199360E+01 -0.34945718203E+02 -0.51882330629E+03  0.52002192764E+03  0.25500000000E-02 0.  1.
<mgrwt>
<rscale>  0 0.35287137E+02</rscale>
<asrwt>0</asrwt>
<pdfrwt beam="1">  1       11 0.10000000E+01 0.20728444E+03</pdfrwt>
<pdfrwt beam="2">  1        2 0.86879082E-01 0.35287137E+02</pdfrwt>
<totfact> 0.70211618E+01</totfact>
</mgrwt>
</event>
<event>
 5    1  0.2226716E-003  0.1148356E+03  0.7818608E-02  0.1566758E+00
         11   -1    0    0    0    0  0.00000000000E+00  0.00000000000E+00  0.99988149711E+03  0.99988149711E+03  0.51100000000E-03 0. -1.
         -2   -1    0    0    0  501 -0.00000000000E+00 -0.00000000000E+00 -0.28204425141E+02  0.28204425256E+02  0.25500000000E-02 0.  1.
         11    1    1    2    0    0 -0.54920756024E+02 -0.11609795434E+03  0.40425567488E+03  0.42416703681E+03  0.51100000000E-03 0. -1.
         22    1    1    2    0    0  0.23404551367E+02  0.10618997674E+03  0.55946903080E+03  0.56993831299E+03  0.00000000000E+00 0.  1.
         -2    1    1    2    0  501  0.31516204657E+02  0.99079775925E+01  0.79523662871E+01  0.33980572567E+02  0.25500000000E-02 0.  1.
<mgrwt>
<rscale>  0 0.33036937E+02</rscale>
<asrwt>0</asrwt>
<pdfrwt beam="1">  1       11 0.10000000E+01 0.11483555E+03</pdfrwt>
<pdfrwt beam="2">  1       -2 0.43386280E-02 0.33036937E+02</pdfrwt>
<totfact> 0.15582580E+03</totfact>
</mgrwt>
</event>
<event>
 5    1  0.2226716E-003  0.7992488E+02  0.7818608E-02  0.1329265E+00
         11   -1    0    0    0    0  0.00000000000E+00  0.00000000000E+00  0.10002337632E+04  0.10002337632E+04  0.51100000000E-03 0.  1.
          2   -1    0    0  501    0 -0.00000000000E+00 -0.00000000000E+00 -0.11909398115E+04  0.11909398115E+04  0.25500000000E-02 0.  1.
         11    1    1    2    0    0 -0.11514484756E+03 -0.37390953014E+02  0.68615804122E+03  0.69675625352E+03  0.51100000000E-03 0.  1.
         22    1    1    2    0    0  0.35377831627E+02  0.41243190304E+02  0.30502809093E+03  0.30983015989E+03  0.00000000000E+00 0.  1.
          2    1    1    2  501    0  0.79767015937E+02 -0.38522372899E+01 -0.11818921804E+04  0.11845871613E+04  0.25500000000E-02 0.  1.
<mgrwt>
<rscale>  0 0.79924884E+02</rscale>
<asrwt>0</asrwt>
<pdfrwt beam="1">  1       11 0.10000000E+01 0.54337756E+02</pdfrwt>
<pdfrwt beam="2">  1        2 0.18326433E+00 0.79924884E+02</pdfrwt>
<totfact> 0.27270054E+01</totfact>
</mgrwt>
</event>
<event>
 5    1  0.2226716E-003  0.2087192E+03  0.7818608E-02  0.1151095E+00
         11   -1    0    0    0    0  0.00000000000E+00  0.00000000000E+00  0.10003516877E+04  0.10003516877E+04  0.51100000000E-03 0.  1.
          2   -1    0    0  501    0 -0.00000000000E+00 -0.00000000000E+00 -0.79021042950E+03  0.79021042950E+03  0.25500000000E-02 0.  1.
         11    1    1    2    0    0  0.13670119734E+03  0.28955371977E+02  0.77291674387E+03  0.78544632144E+03  0.51100000000E-03 0.  1.
         22    1    1    2    0    0  0.49867550418E+02  0.38537081427E+02  0.20377903814E+03  0.21330207598E+03  0.00000000000E+00 0. -1.
          2    1    1    2  501    0 -0.18656874776E+03 -0.67492453404E+02 -0.76655452379E+03  0.79181371980E+03  0.25500000000E-02 0.  1.
<mgrwt>
<rscale>  0 0.19840143E+03</rscale>
<asrwt>0</asrwt>
<pdfrwt beam="1">  1       11 0.10000000E+01 0.20871922E+03</pdfrwt>
<pdfrwt beam="2">  1        2 0.12161359E+00 0.19840143E+03</pdfrwt>
<totfact> 0.45507320E+01</totfact>
</mgrwt>
</event>
<event>
 5    1  0.2226716E-003  0.4551133E+03  0.7818608E-02  0.1027679E+00
         11   -1    0    0    0    0  0.00000000000E+00  0.00000000000E+00  0.10000259124E+04  0.10000259124E+04  0.51100000000E-03 0. -1.
          2   -1    0    0  501    0 -0.00000000000E+00 -0.00000000000E+00 -0.87564873297E+03  0.87564873298E+03  0.25500000000E-02 0. -1.
         11    1    1    2    0    0  0.16019116908E+03  0.40775812660E+03  0.82781075513E+03  0.93658878210E+03  0.51100000000E-03 0. -1.
         22    1    1    2    0    0 -0.11177444560E+01  0.13341658616E+02  0.55284553793E+02  0.56882608022E+02  0.00000000000E+00 0.  1.
          2    1    1    2  501    0 -0.15907342462E+03 -0.42109978521E+03 -0.75871812950E+03  0.88220325525E+03  0.25500000000E-02 0. -1.
<mgrwt>
<rscale>  0 0.45014374E+03</rscale>
<asrwt>0</asrwt>
<pdfrwt beam="1">  1       11 0.10000000E+01 0.45511326E+03</pdfrwt>
<pdfrwt beam="2">  1        2 0.13471868E+00 0.45014374E+03</pdfrwt>
<totfact> 0.38601945E+01</totfact>
</mgrwt>
</event>
<event>
 5    1  0.2226716E-003  0.5919732E+02  0.7818608E-02  0.1501836E+00
         11   -1    0    0    0    0  0.00000000000E+00  0.00000000000E+00  0.99977420575E+03  0.99977420575E+03  0.51100000000E-03 0.  1.
          2   -1    0    0  501    0 -0.00000000000E+00 -0.00000000000E+00 -0.59619441626E+01  0.59619447079E+01  0.25500000000E-02 0.  1.
         11    1    1    2    0    0  0.47350614488E+02 -0.33326630367E+02  0.30215417878E+03  0.30765222694E+03  0.51100000000E-03 0.  1.
         22    1    1    2    0    0  0.14517825363E+02  0.24210959838E+02  0.13472835377E+03  0.13765415772E+03  0.00000000000E+00 0.  1.
          2    1    1    2  501    0 -0.61868439851E+02  0.91156705290E+01  0.55692972904E+03  0.56042976579E+03  0.25500000000E-02 0.  1.
<mgrwt>
<rscale>  0 0.40879635E+02</rscale>
<asrwt>0</asrwt>
<pdfrwt beam="1">  1       11 0.10000000E+01 0.59197315E+02</pdfrwt>
<pdfrwt beam="2">  1        2 0.91701509E-03 0.40879635E+02</pdfrwt>
<totfact> 0.14901809E+04</totfact>
</mgrwt>
</event>
<event>
 5    1  0.2226716E-003  0.1035651E+04  0.7818608E-02  0.9270286E-01
         11   -1    0    0    0    0  0.00000000000E+00  0.00000000000E+00  0.99974937577E+03  0.99974937577E+03  0.51100000000E-03 0.  1.
          2   -1    0    0  501    0 -0.00000000000E+00 -0.00000000000E+00 -0.14481348254E+04  0.14481348254E+04  0.25500000000E-02 0.  1.
         11    1    1    2    0    0 -0.18145937608E+03 -0.10365646245E+04  0.32398057183E+03  0.11010709046E+04  0.51100000000E-03 0.  1.
         22    1    1    2    0    0  0.16269650586E+02  0.20111382697E+02  0.31253928725E+02  0.40570645853E+02  0.00000000000E+00 0.  1.
          2    1    1    2  501    0  0.16518972549E+03  0.10164532418E+04 -0.80361995021E+03  0.13062426508E+04  0.25500000000E-02 0.  1.
<mgrwt>
<rscale>  0 0.10356506E+04</rscale>
<asrwt>0</asrwt>
<pdfrwt beam="1">  1       11 0.10000000E+01 0.25868306E+02</pdfrwt>
<pdfrwt beam="2">  1        2 0.22273413E+00 0.10356506E+04</pdfrwt>
<totfact> 0.16664290E+01</totfact>
</mgrwt>
</event>
<event>
 5    1  0.2226716E-003  0.8820428E+02  0.7818608E-02  0.1456959E+00
         11   -1    0    0    0    0  0.00000000000E+00  0.00000000000E+00  0.10002214899E+04  0.10002214899E+04  0.51100000000E-03 0. -1.
         -2   -1    0    0    0  501 -0.00000000000E+00 -0.00000000000E+00 -0.30954099009E+02  0.30954099114E+02  0.25500000000E-02 0.  1.
         11    1    1    2    0    0 -0.24245866867E+02  0.10612605184E+03  0.52163701372E+03  0.53287500882E+03  0.51100000000E-03 0. -1.
         22    1    1    2    0    0 -0.13954567902E+02 -0.77212965401E+02  0.44330685885E+03  0.45019722689E+03  0.00000000000E+00 0.  1.
         -2    1    1    2    0  501  0.38200434768E+02 -0.28913086439E+02  0.43235183344E+01  0.48103353326E+02  0.25500000000E-02 0.  1.
<mgrwt>
<rscale>  0 0.47908661E+02</rscale>
<asrwt>0</asrwt>
<pdfrwt beam="1">  1       11 0.10000000E+01 0.88204283E+02</pdfrwt>
<pdfrwt beam="2">  1       -2 0.47632237E-02 0.47908661E+02</pdfrwt>
<totfact> 0.14276818E+03</totfact>
</mgrwt>
</event>
<event>
 5    1  0.2226716E-003  0.3151345E+03  0.7818608E-02  0.1201438E+00
         11   -1    0    0    0    0  0.00000000000E+00  0.00000000000E+00  0.10008533607E+04  0.10008533607E+04  0.51100000000E-03 0.  1.
          2   -1    0    0  501    0 -0.00000000000E+00 -0.00000000000E+00 -0.10767036154E+04  0.10767036154E+04  0.25500000000E-02 0.  1.
         11    1    1    2    0    0 -0.28916527186E+03 -0.29801474335E+02  0.36209453312E+03  0.46434591980E+03  0.51100000000E-03 0.  1.
         22    1    1    2    0    0  0.33785926580E+03 -0.11124711297E+03  0.52754340909E+03  0.63626005069E+03  0.00000000000E+00 0.  1.
          2    1    1    2  501    0 -0.48693993932E+02  0.14104858731E+03 -0.96548819690E+03  0.97695100563E+03  0.25500000000E-02 0.  1.
<mgrwt>
<rscale>  0 0.14921732E+03</rscale>
<asrwt>0</asrwt>
<pdfrwt beam="1">  1       11 0.10000000E+01 0.31513450E+03</pdfrwt>
<pdfrwt beam="2">  1        2 0.16578806E+00 0.14921732E+03</pdfrwt>
<totfact> 0.30430670E+01</totfact>
</mgrwt>
</event>
<event>
 5    1  0.2226716E-003  0.9757422E+02  0.7818608E-02  0.1285481E+00
         11   -1    0    0    0    0  0.00000000000E+00  0.00000000000E+00  0.10006176304E+04  0.10006176304E+04  0.51100000000E-03 0. -1.
          2   -1    0    0  501    0 -0.00000000000E+00 -0.00000000000E+00 -0.66805083776E+03  0.66805083776E+03  0.25500000000E-02 0. -1.
         11    1    1    2    0    0 -0.15393537214E+02  0.91668439900E+02  0.53910053826E+03  0.54705525700E+03  0.51100000000E-03 0. -1.
         22    1    1    2    0    0  0.89841765535E+02 -0.28011339519E+02  0.44902310286E+03  0.45877873194E+03  0.00000000000E+00 0. -1.
          2    1    1    2  501    0 -0.74448228321E+02 -0.63657100381E+02 -0.65555684852E+03  0.66283447917E+03  0.25500000000E-02 0. -1.
<mgrwt>
<rscale>  0 0.97574218E+02</rscale>
<asrwt>0</asrwt>
<pdfrwt beam="1">  1       11 0.10000000E+01 0.92951944E+02</pdfrwt>
<pdfrwt beam="2">  1        2 0.10284053E+00 0.97574218E+02</pdfrwt>
<totfact> 0.56961920E+01</totfact>
</mgrwt>
</event>
<event>
 5    1  0.2226716E-003  0.1170963E+03  0.7818608E-02  0.1247966E+00
         11   -1    0    0    0    0  0.00000000000E+00  0.00000000000E+00  0.10001338331E+04  0.10001338331E+04  0.51100000000E-03 0.  1.
         -2   -1    0    0    0  501 -0.00000000000E+00 -0.00000000000E+00 -0.14441882066E+02  0.14441882291E+02  0.25500000000E-02 0. -1.
         11    1    1    2    0    0 -0.10705780137E+03 -0.22140008940E+02  0.64802067593E+03  0.65717756297E+03  0.51100000000E-03 0.  1.
         22    1    1    2    0    0  0.18575882168E+02 -0.45720709824E+01  0.11051228308E+03  0.11215583775E+03  0.00000000000E+00 0. -1.
         -2    1    1    2    0  501  0.88481919205E+02  0.26712079922E+02  0.22715899200E+03  0.24524231464E+03  0.25500000000E-02 0. -1.
<mgrwt>
<rscale>  0 0.11709632E+03</rscale>
<asrwt>0</asrwt>
<pdfrwt beam="1">  1       11 0.10000000E+01 0.10932316E+03</pdfrwt>
<pdfrwt beam="2">  1       -2 0.22221253E-02 0.11709632E+03</pdfrwt>
<totfact> 0.48056115E+03</totfact>
</mgrwt>
</event>
<event>
 5    1  0.2226716E-003  0.3315670E+03  0.7818608E-02  0.1070446E+00
         11   -1    0    0    0    0  0.00000000000E+00  0.00000000000E+00  0.10003112652E+04  0.10003112652E+04  0.51100000000E-03 0. -1.
          2   -1    0    0  501    0 -0.00000000000E+00 -0.00000000000E+00 -0.40914043191E+03  0.40914043192E+03  0.25500000000E-02 0. -1.
         11    1    1    2    0    0  0.97477418619E+02  0.32868779475E+03  0.78819478849E+03  0.85952809039E+03  0.51100000000E-03 0. -1.
         22    1    1    2    0    0  0.79219911654E+01 -0.15357539793E+02  0.10242976440E+03  0.10387718039E+03  0.00000000000E+00 0. -1.
          2    1    1    2  501    0 -0.10539940978E+03 -0.31333025496E+03 -0.29945371960E+03  0.44604642633E+03  0.25500000000E-02 0. -1.
<mgrwt>
<rscale>  0 0.33156705E+03</rscale>
<asrwt>0</asrwt>
<pdfrwt beam="1">  1       11 0.10000000E+01 0.17280393E+02</pdfrwt>
<pdfrwt beam="2">  1        2 0.62964273E-01 0.33156705E+03</pdfrwt>
<totfact> 0.96646262E+01</totfact>
</mgrwt>
</event>
<event>
 5    1  0.2226716E-003  0.1516663E+03  0.7818608E-02  0.1198440E+00
         11   -1    0    0    0    0  0.00000000000E+00  0.00000000000E+00  0.10004448441E+04  0.10004448441E+04  0.51100000000E-03 0.  1.
          2   -1    0    0  501    0 -0.00000000000E+00 -0.00000000000E+00 -0.36865707269E+04  0.36865707269E+04  0.25500000000E-02 0.  1.
         11    1    1    2    0    0 -0.17416576769E+02  0.10840035741E+03  0.25416795572E+03  0.27686697951E+03  0.51100000000E-03 0.  1.
         22    1    1    2    0    0 -0.12419653690E+03 -0.53772957330E+02  0.72711357335E+03  0.73960155440E+03  0.00000000000E+00 0.  1.
          2    1    1    2  501    0  0.14161311367E+03 -0.54627400077E+02 -0.36674074118E+04  0.36705470370E+04  0.25500000000E-02 0.  1.
<mgrwt>
<rscale>  0 0.15166628E+03</rscale>
<asrwt>0</asrwt>
<pdfrwt beam="1">  1       11 0.10000000E+01 0.10979059E+03</pdfrwt>
<pdfrwt beam="2">  1        2 0.56741701E+00 0.15166628E+03</pdfrwt>
<totfact> 0.10535530E+00</totfact>
</mgrwt>
</event>
<event>
 5    1  0.2226716E-003  0.3574858E+02  0.7818608E-02  0.1747437E+00
         11   -1    0    0    0    0  0.00000000000E+00  0.00000000000E+00  0.10000364747E+04  0.10000364747E+04  0.51100000000E-03 0.  1.
          2   -1    0    0  501    0 -0.00000000000E+00 -0.00000000000E+00 -0.51687059243E+01  0.51687065533E+01  0.25500000000E-02 0.  1.
         11    1    1    2    0    0  0.34462815059E+02 -0.22982300794E+02  0.95072903000E+02  0.10370500787E+03  0.51100000000E-03 0.  1.
         22    1    1    2    0    0 -0.10621994154E+02 -0.31222297266E+01  0.63466705314E+02  0.64425132997E+02  0.00000000000E+00 0. -1.
          2    1    1    2  501    0 -0.23840820905E+02  0.26104530521E+02  0.83632816045E+03  0.83707504038E+03  0.25500000000E-02 0.  1.
<mgrwt>
<rscale>  0 0.19894354E+02</rscale>
<asrwt>0</asrwt>
<pdfrwt beam="1">  1       11 0.10000000E+01 0.35748582E+02</pdfrwt>
<pdfrwt beam="2">  1        2 0.79521456E-03 0.19894354E+02</pdfrwt>
<totfact> 0.15327378E+04</totfact>
</mgrwt>
</event>
<event>
 5    1  0.2226716E-003  0.3922380E+03  0.7818608E-02  0.1050057E+00
         11   -1    0    0    0    0  0.00000000000E+00  0.00000000000E+00  0.99991905094E+03  0.99991905094E+03  0.51100000000E-03 0.  1.
          2   -1    0    0  501    0 -0.00000000000E+00 -0.00000000000E+00 -0.15075809128E+03  0.15075809130E+03  0.25500000000E-02 0.  1.
         11    1    1    2    0    0  0.26158900303E+03  0.25675046114E+03  0.41735225900E+03  0.55545703155E+03  0.51100000000E-03 0.  1.
         22    1    1    2    0    0  0.20979358204E+02  0.87327979230E+00  0.52841603284E+02  0.56860628961E+02  0.00000000000E+00 0.  1.
          2    1    1    2  501    0 -0.28256836124E+03 -0.25762374093E+03  0.37896709738E+03  0.53835948173E+03  0.25500000000E-02 0.  1.
<mgrwt>
<rscale>  0 0.38238053E+03</rscale>
<asrwt>0</asrwt>
<pdfrwt beam="1">  1       11 0.10000000E+01 0.39223800E+03</pdfrwt>
<pdfrwt beam="2">  1        2 0.23191674E-01 0.38238053E+03</pdfrwt>
<totfact> 0.29158169E+02</totfact>
</mgrwt>
</event>
<event>
 5    1  0.2226716E-003  0.2353944E+03  0.7818608E-02  0.1130059E+00
         11   -1    0    0    0    0  0.00000000000E+00  0.00000000000E+00  0.10003986518E+04  0.10003986518E+04  0.51100000000E-03 0.  1.
          2   -1    0    0  501    0 -0.00000000000E+00 -0.00000000000E+00 -0.86682829202E+02  0.86682829239E+02  0.25500000000E-02 0.  1.
         11    1    1    2    0    0  0.72092161117E+02 -0.17798900464E+03  0.60317369852E+03  0.63300543130E+03  0.51100000000E-03 0.  1.
         22    1    1    2    0    0 -0.10643799443E+02 -0.38673395456E+02  0.19854630580E+03  0.20255754128E+03  0.00000000000E+00 0.  1.
          2    1    1    2  501    0 -0.61448361674E+02  0.21666240010E+03  0.11199581823E+03  0.25151850842E+03  0.25500000000E-02 0.  1.
<mgrwt>
<rscale>  0 0.22520767E+03</rscale>
<asrwt>0</asrwt>
<pdfrwt beam="1">  1       11 0.10000000E+01 0.23539438E+03</pdfrwt>
<pdfrwt beam="2">  1        2 0.13341136E-01 0.22520767E+03</pdfrwt>
<totfact> 0.54902532E+02</totfact>
</mgrwt>
</event>
<event>
 5    1  0.2226716E-003  0.7452367E+03  0.7818608E-02  0.9642853E-01
         11   -1    0    0    0    0  0.00000000000E+00  0.00000000000E+00  0.10006526791E+04  0.10006526791E+04  0.51100000000E-03 0.  1.
         -2   -1    0    0    0  501 -0.00000000000E+00 -0.00000000000E+00 -0.96560354848E+03  0.96560354849E+03  0.25500000000E-02 0. -1.
         11    1    1    2    0    0  0.73009714179E+03 -0.35555112768E+02  0.59459708364E+03  0.94225882558E+03  0.51100000000E-03 0.  1.
         22    1    1    2    0    0  0.17408578565E+02 -0.35878792201E+01  0.53554736411E+02  0.56427309673E+02  0.00000000000E+00 0.  1.
         -2    1    1    2    0  501 -0.74750572036E+03  0.39142991988E+02 -0.61310268944E+03  0.96757009234E+03  0.25500000000E-02 0. -1.
<mgrwt>
<rscale>  0 0.74523667E+03</rscale>
<asrwt>0</asrwt>
<pdfrwt beam="1">  1       11 0.10000000E+01 0.17774462E+02</pdfrwt>
<pdfrwt beam="2">  1       -2 0.14865135E+00 0.74523667E+03</pdfrwt>
<totfact> 0.25135675E+00</totfact>
</mgrwt>
</event>
<event>
 5    1  0.2226716E-003  0.1429493E+03  0.7818608E-02  0.1209415E+00
         11   -1    0    0    0    0  0.00000000000E+00  0.00000000000E+00  0.99974084231E+03  0.99974084231E+03  0.51100000000E-03 0. -1.
          2   -1    0    0  501    0 -0.00000000000E+00 -0.00000000000E+00 -0.31447544217E+04  0.31447544217E+04  0.25500000000E-02 0. -1.
         11    1    1    2    0    0  0.71577469597E+02  0.20066832065E+03  0.73974042979E+03  0.76980972489E+03  0.51100000000E-03 0. -1.
         22    1    1    2    0    0 -0.33260357163E+02 -0.63106219552E+02  0.23810613384E+03  0.24856222013E+03  0.00000000000E+00 0.  1.
          2    1    1    2  501    0 -0.38317112433E+02 -0.13756210110E+03 -0.31228601430E+04  0.31261233190E+04  0.25500000000E-02 0. -1.
<mgrwt>
<rscale>  0 0.14294931E+03</rscale>
<asrwt>0</asrwt>
<pdfrwt beam="1">  1       11 0.10000000E+01 0.71334748E+02</pdfrwt>
<pdfrwt beam="2">  1        2 0.48368298E+00 0.14294931E+03</pdfrwt>
<totfact> 0.23652645E+00</totfact>
</mgrwt>
</event>
<event>
 5    1  0.2226716E-003  0.1155656E+03  0.7818608E-02  0.1250597E+00
         11   -1    0    0    0    0  0.00000000000E+00  0.00000000000E+00  0.10002239545E+04  0.10002239545E+04  0.51100000000E-03 0. -1.
          2   -1    0    0  501    0 -0.00000000000E+00 -0.00000000000E+00 -0.24296515926E+02  0.24296516060E+02  0.25500000000E-02 0. -1.
         11    1    1    2    0    0  0.92927138538E+02 -0.51771669934E+02  0.53909675874E+03  0.54949165068E+03  0.51100000000E-03 0. -1.
         22    1    1    2    0    0  0.30764034511E+02  0.47513689779E+02  0.19938314615E+03  0.20726219025E+03  0.00000000000E+00 0.  1.
          2    1    1    2  501    0 -0.12369117305E+03  0.42579801549E+01  0.23744753365E+03  0.26776662960E+03  0.25500000000E-02 0. -1.
<mgrwt>
<rscale>  0 0.11556563E+03</rscale>
<asrwt>0</asrwt>
<pdfrwt beam="1">  1       11 0.10000000E+01 0.56603680E+02</pdfrwt>
<pdfrwt beam="2">  1        2 0.37387626E-02 0.11556563E+03</pdfrwt>
<totfact> 0.26471323E+03</totfact>
</mgrwt>
</event>
<event>
 5    1  0.2226716E-003  0.1956029E+03  0.7818608E-02  0.1379949E+00
         11   -1    0    0    0    0  0.00000000000E+00  0.00000000000E+00  0.10004703051E+04  0.10004703051E+04  0.51100000000E-03 0.  1.
         -2   -1    0    0    0  501 -0.00000000000E+00 -0.00000000000E+00 -0.89658018479E+03  0.89658018480E+03  0.25500000000E-02 0.  1.
         11    1    1    2    0    0 -0.54659767810E+02  0.19287635458E+03  0.57994945620E+03  0.61362068913E+03  0.51100000000E-03 0.  1.
         22    1    1    2    0    0 -0.97931226340E+01 -0.19464838513E+03  0.37887710896E+03  0.42606544424E+03  0.00000000000E+00 0.  1.
         -2    1    1    2    0  501  0.64452890444E+02  0.17720305511E+01 -0.85493644483E+03  0.85736435655E+03  0.25500000000E-02 0.  1.
<mgrwt>
<rscale>  0 0.64477245E+02</rscale>
<asrwt>0</asrwt>
<pdfrwt beam="1">  1       11 0.10000000E+01 0.19560292E+03</pdfrwt>
<pdfrwt beam="2">  1       -2 0.13800028E+00 0.64477245E+02</pdfrwt>
<totfact> 0.33969826E+00</totfact>
</mgrwt>
</event>
<event>
 5    1  0.2829328E-003  0.2002494E+03  0.7818608E-02  0.1149529E+00
         11   -1    0    0    0    0  0.00000000000E+00  0.00000000000E+00  0.10010869772E+04  0.10010869772E+04  0.51100000000E-03 0. -1.
          2   -1    0    0  501    0 -0.00000000000E+00 -0.00000000000E+00 -0.11100232712E+04  0.11100232712E+04  0.25500000000E-02 0. -1.
         11    1    1    2    0    0  0.42799273867E+02 -0.20393156859E+03  0.93272596146E+03  0.95571835898E+03  0.51100000000E-03 0. -1.
         22    1    1    2    0    0  0.81439297720E+01  0.10349059219E+02  0.46830166111E+02  0.48646593682E+02  0.00000000000E+00 0. -1.
          2    1    1    2  501    0 -0.50943203639E+02  0.19358250937E+03 -0.10884924215E+04  0.11067452958E+04  0.25500000000E-02 0. -1.
<mgrwt>
<rscale>  0 0.20024941E+03</rscale>
<asrwt>0</asrwt>
<pdfrwt beam="1">  1       11 0.10000000E+01 0.13169154E+02</pdfrwt>
<pdfrwt beam="2">  1        2 0.17095843E+00 0.20024941E+03</pdfrwt>
<totfact> 0.28632682E+01</totfact>
</mgrwt>
</event>
<event>
 5    1  0.2226716E-003  0.3226387E+03  0.7818608E-02  0.1074441E+00
         11   -1    0    0    0    0  0.00000000000E+00  0.00000000000E+00  0.10010717452E+04  0.10010717452E+04  0.51100000000E-03 0.  1.
          2   -1    0    0  501    0 -0.00000000000E+00 -0.00000000000E+00 -0.22537497580E+04  0.22537497580E+04  0.25500000000E-02 0.  1.
         11    1    1    2    0    0 -0.93451756772E+02  0.12201454983E+03  0.57533041753E+03  0.59550471917E+03  0.51100000000E-03 0.  1.
         22    1    1    2    0    0  0.29382832593E+02  0.19826290061E+03  0.37875261374E+03  0.42851496009E+03  0.00000000000E+00 0.  1.
          2    1    1    2  501    0  0.64068924179E+02 -0.32027745043E+03 -0.22067610440E+04  0.22308018239E+04  0.25500000000E-02 0.  1.
<mgrwt>
<rscale>  0 0.32263872E+03</rscale>
<asrwt>0</asrwt>
<pdfrwt beam="1">  1       11 0.10000000E+01 0.15369054E+03</pdfrwt>
<pdfrwt beam="2">  1        2 0.34710233E+00 0.32263872E+03</pdfrwt>
<totfact> 0.66864122E+00</totfact>
</mgrwt>
</event>
<event>
 5    1  0.2353242E-003  0.2193776E+03  0.7818608E-02  0.1135395E+00
         11   -1    0    0    0    0  0.00000000000E+00  0.00000000000E+00  0.10003938220E+04  0.10003938220E+04  0.51100000000E-03 0. -1.
          2   -1    0    0  501    0 -0.00000000000E+00 -0.00000000000E+00 -0.31722254512E+03  0.31722254513E+03  0.25500000000E-02 0. -1.
         11    1    1    2    0    0  0.17325382899E+03  0.11159116818E+03  0.87814046277E+03  0.90199786609E+03  0.51100000000E-03 0. -1.
         22    1    1    2    0    0  0.12767485691E+02  0.20441378237E+01  0.70753149471E+02  0.71924928574E+02  0.00000000000E+00 0. -1.
          2    1    1    2  501    0 -0.18602131468E+03 -0.11363530600E+03 -0.26572233533E+03  0.34369357251E+03  0.25500000000E-02 0. -1.
<mgrwt>
<rscale>  0 0.21798374E+03</rscale>
<asrwt>0</asrwt>
<pdfrwt beam="1">  1       11 0.10000000E+01 0.21937758E+03</pdfrwt>
<pdfrwt beam="2">  1        2 0.48822687E-01 0.21798374E+03</pdfrwt>
<totfact> 0.12769591E+02</totfact>
</mgrwt>
</event>
<event>
 5    1  0.2226716E-003  0.1575716E+03  0.7818608E-02  0.1258532E+00
         11   -1    0    0    0    0  0.00000000000E+00  0.00000000000E+00  0.10016682548E+04  0.10016682548E+04  0.51100000000E-03 0. -1.
          2   -1    0    0  501    0 -0.00000000000E+00 -0.00000000000E+00 -0.20236234617E+04  0.20236234617E+04  0.25500000000E-02 0. -1.
         11    1    1    2    0    0 -0.12357253666E+03 -0.84907001975E+02  0.32345910761E+03  0.35651811328E+03  0.51100000000E-03 0. -1.
         22    1    1    2    0    0  0.52428912119E+02  0.17025059016E+03  0.64811465945E+03  0.67215077629E+03  0.00000000000E+00 0. -1.
          2    1    1    2  501    0  0.71143624544E+02 -0.85343588190E+02 -0.19935289739E+04  0.19966228270E+04  0.25500000000E-02 0. -1.
<mgrwt>
<rscale>  0 0.11110780E+03</rscale>
<asrwt>0</asrwt>
<pdfrwt beam="1">  1       11 0.10000000E+01 0.15757165E+03</pdfrwt>
<pdfrwt beam="2">  1        2 0.31184605E+00 0.11110780E+03</pdfrwt>
<totfact> 0.98867178E+00</totfact>
</mgrwt>
</event>
<event>
 5    1  0.2226716E-003  0.2833000E+03  0.7818608E-02  0.1093900E+00
         11   -1    0    0    0    0  0.00000000000E+00  0.00000000000E+00  0.10001040346E+04  0.10001040346E+04  0.51100000000E-03 0. -1.
          2   -1    0    0  501    0 -0.00000000000E+00 -0.00000000000E+00 -0.17267450170E+03  0.17267450172E+03  0.25500000000E-02 0. -1.
         11    1    1    2    0    0 -0.24136763334E+03  0.98567217336E+02  0.67942646749E+03  0.72773220039E+03  0.51100000000E-03 0. -1.
         22    1    1    2    0    0 -0.42807193416E+02 -0.46065620888E+02  0.14278035494E+03  0.15601514988E+03  0.00000000000E+00 0. -1.
          2    1    1    2  501    0  0.28417482675E+03 -0.52501596448E+02  0.52227104499E+01  0.28903118604E+03  0.25500000000E-02 0. -1.
<mgrwt>
<rscale>  0 0.28329998E+03</rscale>
<asrwt>0</asrwt>
<pdfrwt beam="1">  1       11 0.10000000E+01 0.62884793E+02</pdfrwt>
<pdfrwt beam="2">  1        2 0.26568071E-01 0.28329998E+03</pdfrwt>
<totfact> 0.24864675E+02</totfact>
</mgrwt>
</event>
<event>
 5    1  0.2226716E-003  0.8406180E+02  0.7818608E-02  0.1526830E+00
         11   -1    0    0    0    0  0.00000000000E+00  0.00000000000E+00  0.10001828526E+04  0.10001828526E+04  0.51100000000E-03 0. -1.
          2   -1    0    0  501    0 -0.00000000000E+00 -0.00000000000E+00 -0.12479245006E+02  0.12479245267E+02  0.25500000000E-02 0. -1.
         11    1    1    2    0    0  0.28778981866E+02  0.83481531673E+02  0.21020263859E+03  0.22799680963E+03  0.51100000000E-03 0. -1.
         22    1    1    2    0    0 -0.16761649721E+02 -0.11126787810E+01  0.58570979892E+02  0.60932344785E+02  0.00000000000E+00 0. -1.
          2    1    1    2  501    0 -0.12017332145E+02 -0.82368852892E+02  0.71892998911E+03  0.72373294346E+03  0.25500000000E-02 0. -1.
<mgrwt>
<rscale>  0 0.37578117E+02</rscale>
<asrwt>0</asrwt>
<pdfrwt beam="1">  1       11 0.10000000E+01 0.84061801E+02</pdfrwt>
<pdfrwt beam="2">  1        2 0.19202349E-02 0.37578117E+02</pdfrwt>
<totfact> 0.55194164E+03</totfact>
</mgrwt>
</event>
<event>
 5    1  0.2226716E-003  0.1429897E+03  0.7818608E-02  0.1445913E+00
         11   -1    0    0    0    0  0.00000000000E+00  0.00000000000E+00  0.10001352254E+04  0.10001352254E+04  0.51100000000E-03 0. -1.
          2   -1    0    0  501    0 -0.00000000000E+00 -0.00000000000E+00 -0.29130891069E+02  0.29130891180E+02  0.25500000000E-02 0. -1.
         11    1    1    2    0    0  0.14028783223E+03  0.48344250787E+02  0.25292778402E+03  0.29324103804E+03  0.51100000000E-03 0. -1.
         22    1    1    2    0    0 -0.24923394882E+01 -0.17230498666E+02  0.44284612129E+02  0.47583912321E+02  0.00000000000E+00 0. -1.
          2    1    1    2  501    0 -0.13779549274E+03 -0.31113752121E+02  0.67379193819E+03  0.68844116624E+03  0.25500000000E-02 0. -1.
<mgrwt>
<rscale>  0 0.49894132E+02</rscale>
<asrwt>0</asrwt>
<pdfrwt beam="1">  1       11 0.10000000E+01 0.14298974E+03</pdfrwt>
<pdfrwt beam="2">  1        2 0.44822815E-02 0.49894132E+02</pdfrwt>
<totfact> 0.19165124E+03</totfact>
</mgrwt>
</event>
<event>
 5    1  0.2226716E-003  0.2522392E+03  0.7818608E-02  0.1119483E+00
         11   -1    0    0    0    0  0.00000000000E+00  0.00000000000E+00  0.10001978796E+04  0.10001978796E+04  0.51100000000E-03 0. -1.
         -2   -1    0    0    0  501 -0.00000000000E+00 -0.00000000000E+00 -0.31037196314E+03  0.31037196315E+03  0.25500000000E-02 0.  1.
         11    1    1    2    0    0 -0.69566633696E+02  0.19134121820E+03  0.83793968944E+03  0.86231890937E+03  0.51100000000E-03 0. -1.
         22    1    1    2    0    0 -0.34330556147E+02  0.25520684289E+02  0.96302783753E+02  0.10537608159E+03  0.00000000000E+00 0.  1.
         -2    1    1    2    0  501  0.10389718984E+03 -0.21686190249E+03 -0.24441655671E+03  0.34287485182E+03  0.25500000000E-02 0.  1.
<mgrwt>
<rscale>  0 0.24046561E+03</rscale>
<asrwt>0</asrwt>
<pdfrwt beam="1">  1       11 0.10000000E+01 0.25223917E+03</pdfrwt>
<pdfrwt beam="2">  1       -2 0.47758980E-01 0.24046561E+03</pdfrwt>
<totfact> 0.34092678E+01</totfact>
</mgrwt>
</event>
<event>
 5    1  0.2226716E-003  0.4947388E+02  0.7818608E-02  0.1658824E+00
         11   -1    0    0    0    0  0.00000000000E+00  0.00000000000E+00  0.10000845752E+04  0.10000845752E+04  0.51100000000E-03 0. -1.
          2   -1    0    0  501    0 -0.00000000000E+00 -0.00000000000E+00 -0.38724448710E+01  0.38724457106E+01  0.25500000000E-02 0. -1.
         11    1    1    2    0    0 -0.26108848135E+02  0.46977082194E+02  0.31165838213E+03  0.31625854195E+03  0.51100000000E-03 0. -1.
         22    1    1    2    0    0 -0.61172464250E+01 -0.11229206835E+02  0.63032446902E+02  0.64316445427E+02  0.00000000000E+00 0. -1.
          2    1    1    2  501    0  0.32226094560E+02 -0.35747875359E+02  0.62152130134E+03  0.62338203358E+03  0.25500000000E-02 0. -1.
<mgrwt>
<rscale>  0 0.25152306E+02</rscale>
<asrwt>0</asrwt>
<pdfrwt beam="1">  1       11 0.10000000E+01 0.49473880E+02</pdfrwt>
<pdfrwt beam="2">  1        2 0.59581118E-03 0.25152306E+02</pdfrwt>
<totfact> 0.23696008E+04</totfact>
</mgrwt>
</event>
<event>
 5    1  0.2226716E-003  0.1402363E+03  0.7818608E-02  0.1452262E+00
         11   -1    0    0    0    0  0.00000000000E+00  0.00000000000E+00  0.10001454438E+04  0.10001454438E+04  0.51100000000E-03 0. -1.
         -2   -1    0    0    0  501 -0.00000000000E+00 -0.00000000000E+00 -0.17161712546E+03  0.17161712548E+03  0.25500000000E-02 0. -1.
         11    1    1    2    0    0 -0.14807560347E+03  0.56154860396E+02  0.46956703375E+03  0.49555317765E+03  0.51100000000E-03 0. -1.
         22    1    1    2    0    0  0.10473157217E+03 -0.78444274206E+02  0.50529991865E+03  0.52196763707E+03  0.00000000000E+00 0. -1.
         -2    1    1    2    0  501  0.43344031307E+02  0.22289413810E+02 -0.14633863407E+03  0.15424175455E+03  0.25500000000E-02 0. -1.
<mgrwt>
<rscale>  0 0.48739338E+02</rscale>
<asrwt>0</asrwt>
<pdfrwt beam="1">  1       11 0.10000000E+01 0.14023629E+03</pdfrwt>
<pdfrwt beam="2">  1       -2 0.26406474E-01 0.48739338E+02</pdfrwt>
<totfact> 0.99315437E+01</totfact>
</mgrwt>
</event>
<event>
 5    1  0.2226716E-003  0.2027649E+03  0.7818608E-02  0.1147427E+00
         11   -1    0    0    0    0  0.00000000000E+00  0.00000000000E+00  0.10001615053E+04  0.10001615053E+04  0.51100000000E-03 0. -1.
          2   -1    0    0  501    0 -0.00000000000E+00 -0.00000000000E+00 -0.65403947900E+02  0.65403947949E+02  0.25500000000E-02 0. -1.
         11    1    1    2    0    0 -0.15803029010E+03  0.81855175835E+02  0.42193920114E+03  0.45793725756E+03  0.51100000000E-03 0. -1.
         22    1    1    2    0    0 -0.57301860625E+02 -0.32391195416E+02  0.27603617655E+03  0.28377572753E+03  0.00000000000E+00 0. -1.
          2    1    1    2  501    0  0.21533215073E+03 -0.49463980419E+02  0.23678217969E+03  0.32385246814E+03  0.25500000000E-02 0. -1.
<mgrwt>
<rscale>  0 0.20276489E+03</rscale>
<asrwt>0</asrwt>
<pdfrwt beam="1">  1       11 0.10000000E+01 0.65823193E+02</pdfrwt>
<pdfrwt beam="2">  1        2 0.10063771E-01 0.20276489E+03</pdfrwt>
<totfact> 0.77114246E+02</totfact>
</mgrwt>
</event>
<event>
 5    1  0.2226716E-003  0.3251035E+03  0.7818608E-02  0.1075240E+00
         11   -1    0    0    0    0  0.00000000000E+00  0.00000000000E+00  0.10003435744E+04  0.10003435744E+04  0.51100000000E-03 0. -1.
          2   -1    0    0  501    0 -0.00000000000E+00 -0.00000000000E+00 -0.25518393918E+03  0.25518393919E+03  0.25500000000E-02 0.  1.
         11    1    1    2    0    0 -0.24710380715E+03  0.18630456260E+03  0.81920062907E+03  0.87570506007E+03  0.51100000000E-03 0. -1.
         22    1    1    2    0    0 -0.24982858046E+01  0.15364291754E+02  0.37096450200E+02  0.40229957873E+02  0.00000000000E+00 0.  1.
          2    1    1    2  501    0  0.24960209296E+03 -0.20166885436E+03 -0.11113744405E+03  0.33959249565E+03  0.25500000000E-02 0.  1.
<mgrwt>
<rscale>  0 0.32089178E+03</rscale>
<asrwt>0</asrwt>
<pdfrwt beam="1">  1       11 0.10000000E+01 0.32510347E+03</pdfrwt>
<pdfrwt beam="2">  1        2 0.39272555E-01 0.32089178E+03</pdfrwt>
<totfact> 0.16181371E+02</totfact>
</mgrwt>
</event>
<event>
 5    1  0.2226716E-003  0.3939284E+03  0.7818608E-02  0.1045903E+00
         11   -1    0    0    0    0  0.00000000000E+00  0.00000000000E+00  0.10003810248E+04  0.10003810248E+04  0.51100000000E-03 0. -1.
          2   -1    0    0  501    0 -0.00000000000E+00 -0.00000000000E+00 -0.14141123076E+04  0.14141123076E+04  0.25500000000E-02 0. -1.
         11    1    1    2    0    0  0.29788343302E+03 -0.32733143897E+03  0.60989924265E+03  0.75356320026E+03  0.51100000000E-03 0. -1.
         22    1    1    2    0    0 -0.95974370690E+02 -0.89249133564E+01  0.28181172821E+03  0.29783986312E+03  0.00000000000E+00 0.  1.
          2    1    1    2  501    0 -0.20190906233E+03  0.33625635232E+03 -0.13054422537E+04  0.13630902691E+04  0.25500000000E-02 0. -1.
<mgrwt>
<rscale>  0 0.39392839E+03</rscale>
<asrwt>0</asrwt>
<pdfrwt beam="1">  1       11 0.10000000E+01 0.96388453E+02</pdfrwt>
<pdfrwt beam="2">  1        2 0.21763863E+00 0.39392839E+03</pdfrwt>
<totfact> 0.18538868E+01</totfact>
</mgrwt>
</event>
<event>
 5    1  0.2226716E-003  0.2110023E+03  0.7818608E-02  0.1140775E+00
         11   -1    0    0    0    0  0.00000000000E+00  0.00000000000E+00  0.99999524011E+03  0.99999524011E+03  0.51100000000E-03 0. -1.
         -2   -1    0    0    0  501 -0.00000000000E+00 -0.00000000000E+00 -0.49198737306E+02  0.49198737372E+02  0.25500000000E-02 0. -1.
         11    1    1    2    0    0  0.20096942038E+03  0.63009189124E+02  0.55189090753E+03  0.59071350049E+03  0.51100000000E-03 0. -1.
         22    1    1    2    0    0 -0.32146101364E+01  0.11723559790E+02  0.41387865204E+02  0.43136190822E+02  0.00000000000E+00 0.  1.
         -2    1    1    2    0  501 -0.19775481025E+03 -0.74732748914E+02  0.35751773007E+03  0.41534428617E+03  0.25500000000E-02 0. -1.
<mgrwt>
<rscale>  0 0.21100234E+03</rscale>
<asrwt>0</asrwt>
<pdfrwt beam="1">  1       11 0.10000000E+01 0.12156298E+02</pdfrwt>
<pdfrwt beam="2">  1       -2 0.75690003E-02 0.21100234E+03</pdfrwt>
<totfact> 0.81067643E+02</totfact>
</mgrwt>
</event>
<event>
 5    1  0.2226716E-003  0.1538173E+03  0.7818608E-02  0.1195859E+00
         11   -1    0    0    0    0  0.00000000000E+00  0.00000000000E+00  0.10002983411E+04  0.10002983411E+04  0.51100000000E-03 0.  1.
          2   -1    0    0  501    0 -0.00000000000E+00 -0.00000000000E+00 -0.29181876370E+02  0.29181876481E+02  0.25500000000E-02 0. -1.
         11    1    1    2    0    0  0.66881480450E+02 -0.13759859164E+03  0.61448971170E+03  0.63324885363E+03  0.51100000000E-03 0.  1.
         22    1    1    2    0    0  0.11391409462E+02  0.45245785308E+01  0.66143285913E+02  0.67269385993E+02  0.00000000000E+00 0. -1.
          2    1    1    2  501    0 -0.78272889912E+02  0.13307401311E+03  0.29048346710E+03  0.32896197793E+03  0.25500000000E-02 0. -1.
<mgrwt>
<rscale>  0 0.15381731E+03</rscale>
<asrwt>0</asrwt>
<pdfrwt beam="1">  1       11 0.10000000E+01 0.12257080E+02</pdfrwt>
<pdfrwt beam="2">  1        2 0.44908587E-02 0.15381731E+03</pdfrwt>
<totfact> 0.21320221E+03</totfact>
</mgrwt>
</event>
<event>
 5    1  0.2226716E-003  0.1608955E+03  0.7818608E-02  0.1368581E+00
         11   -1    0    0    0    0  0.00000000000E+00  0.00000000000E+00  0.10000776266E+04  0.10000776266E+04  0.51100000000E-03 0.  1.
          2   -1    0    0  501    0 -0.00000000000E+00 -0.00000000000E+00 -0.70866034765E+02  0.70866034811E+02  0.25500000000E-02 0.  1.
         11    1    1    2    0    0  0.10565967491E+03  0.93960478200E+02  0.24622598503E+03  0.28393621479E+03  0.51100000000E-03 0.  1.
         22    1    1    2    0    0 -0.80381108768E+02 -0.15661672188E+03  0.69624498255E+03  0.71815527287E+03  0.00000000000E+00 0.  1.
          2    1    1    2  501    0 -0.25278566141E+02  0.62656243681E+02 -0.13259375749E+02  0.68852173750E+02  0.25500000000E-02 0.  1.
<mgrwt>
<rscale>  0 0.67563383E+02</rscale>
<asrwt>0</asrwt>
<pdfrwt beam="1">  1       11 0.10000000E+01 0.16089553E+03</pdfrwt>
<pdfrwt beam="2">  1        2 0.10903313E-01 0.67563383E+02</pdfrwt>
<totfact> 0.65677243E+02</totfact>
</mgrwt>
</event>
<event>
 5    1  0.2226716E-003  0.1239861E+03  0.7818608E-02  0.1236662E+00
         11   -1    0    0    0    0  0.00000000000E+00  0.00000000000E+00  0.10001967262E+04  0.10001967262E+04  0.51100000000E-03 0. -1.
         -2   -1    0    0    0  501 -0.00000000000E+00 -0.00000000000E+00 -0.88478941148E+02  0.88478941185E+02  0.25500000000E-02 0.  1.
         11    1    1    2    0    0  0.16867615490E+03 -0.19883559413E+02  0.68924916098E+03  0.70986717566E+03  0.51100000000E-03 0. -1.
         22    1    1    2    0    0 -0.47783525045E+02  0.20754810063E+02  0.24953897572E+03  0.25491906129E+03  0.00000000000E+00 0. -1.
         -2    1    1    2    0  501 -0.12089262985E+03 -0.87125065004E+00 -0.27070351641E+02  0.12388943044E+03  0.25500000000E-02 0.  1.
<mgrwt>
<rscale>  0 0.12398615E+03</rscale>
<asrwt>0</asrwt>
<pdfrwt beam="1">  1       11 0.10000000E+01 0.52096328E+02</pdfrwt>
<pdfrwt beam="2">  1       -2 0.13614822E-01 0.12398615E+03</pdfrwt>
<totfact> 0.31081570E+02</totfact>
</mgrwt>
</event>
<event>
 5    1  0.2226716E-003  0.6715724E+03  0.7818608E-02  0.9767121E-01
         11   -1    0    0    0    0  0.00000000000E+00  0.00000000000E+00  0.10005637505E+04  0.10005637505E+04  0.51100000000E-03 0. -1.
          2   -1    0    0  501    0 -0.00000000000E+00 -0.00000000000E+00 -0.64742360326E+03  0.64742360327E+03  0.25500000000E-02 0. -1.
         11    1    1    2    0    0 -0.52090561864E+03  0.42548480217E+03  0.39884195778E+03  0.78195580929E+03  0.51100000000E-03 0. -1.
         22    1    1    2    0    0  0.36990687822E+02  0.40509457530E+02  0.15537784100E+03  0.16477742748E+03  0.00000000000E+00 0.  1.
          2    1    1    2  501    0  0.48391493081E+03 -0.46599425970E+03 -0.20107965154E+03  0.70125411700E+03  0.25500000000E-02 0. -1.
<mgrwt>
<rscale>  0 0.67157236E+03</rscale>
<asrwt>0</asrwt>
<pdfrwt beam="1">  1       11 0.10000000E+01 0.54857334E+02</pdfrwt>
<pdfrwt beam="2">  1        2 0.99659780E-01 0.67157236E+03</pdfrwt>
<totfact> 0.56118778E+01</totfact>
</mgrwt>
</event>
<event>
 5    1  0.2226716E-003  0.1894795E+03  0.7818608E-02  0.1158932E+00
         11   -1    0    0    0    0  0.00000000000E+00  0.00000000000E+00  0.10000905265E+04  0.10000905265E+04  0.51100000000E-03 0. -1.
         -2   -1    0    0    0  501 -0.00000000000E+00 -0.00000000000E+00 -0.52322312965E+02  0.52322313027E+02  0.25500000000E-02 0.  1.
         11    1    1    2    0    0  0.11015673658E+03 -0.15253823958E+03  0.68800371544E+03  0.71326820594E+03  0.51100000000E-03 0. -1.
         22    1    1    2    0    0 -0.82811575942E+01 -0.78370373293E+01  0.68889851690E+02  0.69826988987E+02  0.00000000000E+00 0. -1.
         -2    1    1    2    0  501 -0.10187557899E+03  0.16037527691E+03  0.19087464636E+03  0.26931764455E+03  0.25500000000E-02 0.  1.
<mgrwt>
<rscale>  0 0.18947954E+03</rscale>
<asrwt>0</asrwt>
<pdfrwt beam="1">  1       11 0.10000000E+01 0.11401611E+02</pdfrwt>
<pdfrwt beam="2">  1       -2 0.80503151E-02 0.18947954E+03</pdfrwt>
<totfact> 0.73154910E+02</totfact>
</mgrwt>
</event>
<event>
 5    1  0.2226716E-003  0.1285231E+03  0.7818608E-02  0.1229664E+00
         11   -1    0    0    0    0  0.00000000000E+00  0.00000000000E+00  0.10003886557E+04  0.10003886557E+04  0.51100000000E-03 0. -1.
          2   -1    0    0  501    0 -0.00000000000E+00 -0.00000000000E+00 -0.38395685074E+03  0.38395685075E+03  0.25500000000E-02 0. -1.
         11    1    1    2    0    0  0.18577062181E+03  0.31400993173E+02  0.74124299707E+03  0.76481234758E+03  0.51100000000E-03 0. -1.
         22    1    1    2    0    0 -0.59817862658E+02 -0.10694162514E+02  0.23239382132E+03  0.24020705650E+03  0.00000000000E+00 0. -1.
          2    1    1    2  501    0 -0.12595275916E+03 -0.20706830660E+02 -0.35720501339E+03  0.37932610241E+03  0.25500000000E-02 0. -1.
<mgrwt>
<rscale>  0 0.12852306E+03</rscale>
<asrwt>0</asrwt>
<pdfrwt beam="1">  1       11 0.10000000E+01 0.60766288E+02</pdfrwt>
<pdfrwt beam="2">  1        2 0.59093241E-01 0.12852306E+03</pdfrwt>
<totfact> 0.10419935E+02</totfact>
</mgrwt>
</event>
<event>
 5    1  0.2226716E-003  0.1134624E+03  0.7818608E-02  0.1254289E+00
         11   -1    0    0    0    0  0.00000000000E+00  0.00000000000E+00  0.10001362270E+04  0.10001362270E+04  0.51100000000E-03 0.  1.
          2   -1    0    0  501    0 -0.00000000000E+00 -0.00000000000E+00 -0.28563477586E+02  0.28563477700E+02  0.25500000000E-02 0.  1.
         11    1    1    2    0    0 -0.11560026385E+02  0.11377600244E+03  0.13008884003E+03  0.17321004371E+03  0.51100000000E-03 0.  1.
         22    1    1    2    0    0  0.37013003986E+02 -0.23845399219E+01  0.14353849069E+03  0.14825298244E+03  0.00000000000E+00 0.  1.
          2    1    1    2  501    0 -0.25452977601E+02 -0.11139146252E+03  0.69794541873E+03  0.70723667858E+03  0.25500000000E-02 0.  1.
<mgrwt>
<rscale>  0 0.11346244E+03</rscale>
<asrwt>0</asrwt>
<pdfrwt beam="1">  1       11 0.10000000E+01 0.37089736E+02</pdfrwt>
<pdfrwt beam="2">  1        2 0.43949797E-02 0.11346244E+03</pdfrwt>
<totfact> 0.21358778E+03</totfact>
</mgrwt>
</event>
<event>
 5    1  0.2226716E-003  0.1680871E+03  0.7818608E-02  0.1476481E+00
         11   -1    0    0    0    0  0.00000000000E+00  0.00000000000E+00  0.99994065347E+03  0.99994065347E+03  0.51100000000E-03 0.  1.
          2   -1    0    0  501    0 -0.00000000000E+00 -0.00000000000E+00 -0.11694944817E+03  0.11694944820E+03  0.25500000000E-02 0. -1.
         11    1    1    2    0    0  0.45523097495E+02  0.16194093792E+03  0.58888690212E+03  0.61244183664E+03  0.51100000000E-03 0.  1.
         22    1    1    2    0    0 -0.87729461980E+02 -0.14734426169E+03  0.37482901575E+03  0.41219362077E+03  0.00000000000E+00 0.  1.
          2    1    1    2  501    0  0.42206364485E+02 -0.14596676234E+02 -0.80724712580E+02  0.92254644261E+02  0.25500000000E-02 0. -1.
<mgrwt>
<rscale>  0 0.44659155E+02</rscale>
<asrwt>0</asrwt>
<pdfrwt beam="1">  1       11 0.10000000E+01 0.16808713E+03</pdfrwt>
<pdfrwt beam="2">  1        2 0.17991155E-01 0.44659155E+02</pdfrwt>
<totfact> 0.36103269E+02</totfact>
</mgrwt>
</event>
<event>
 5    1  0.2226716E-003  0.1143957E+03  0.7818608E-02  0.1252640E+00
         11   -1    0    0    0    0  0.00000000000E+00  0.00000000000E+00  0.10003461708E+04  0.10003461708E+04  0.51100000000E-03 0.  1.
          2   -1    0    0  501    0 -0.00000000000E+00 -0.00000000000E+00 -0.14683823662E+03  0.14683823664E+03  0.25500000000E-02 0.  1.
         11    1    1    2    0    0 -0.95051298024E+02  0.61068236790E+02  0.27075433948E+03  0.29338028418E+03  0.51100000000E-03 0.  1.
         22    1    1    2    0    0  0.36980947653E+02 -0.15936766558E+03  0.68272305460E+03  0.70205157404E+03  0.00000000000E+00 0.  1.
          2    1    1    2  501    0  0.58070350371E+02  0.98299428787E+02 -0.99969459867E+02  0.15175254925E+03  0.25500000000E-02 0.  1.
<mgrwt>
<rscale>  0 0.11439571E+03</rscale>
<asrwt>0</asrwt>
<pdfrwt beam="1">  1       11 0.10000000E+01 0.11297822E+03</pdfrwt>
<pdfrwt beam="2">  1        2 0.22598317E-01 0.11439571E+03</pdfrwt>
<totfact> 0.29144736E+02</totfact>
</mgrwt>
</event>
<event>
 5    1  0.2543244E-003  0.1669326E+03  0.7818608E-02  0.1183433E+00
         11   -1    0    0    0    0  0.00000000000E+00  0.00000000000E+00  0.10001154782E+04  0.10001154782E+04  0.51100000000E-03 0.  1.
          2   -1    0    0  501    0 -0.00000000000E+00 -0.00000000000E+00 -0.51202084291E+03  0.51202084292E+03  0.25500000000E-02 0.  1.
         11    1    1    2    0    0  0.12473869650E+03  0.60886548172E+02  0.83082665450E+03  0.84234188070E+03  0.51100000000E-03 0.  1.
         22    1    1    2    0    0  0.27952627911E+02  0.99070470046E+00  0.14878972755E+03  0.15139588477E+03  0.00000000000E+00 0. -1.
          2    1    1    2  501    0 -0.15269132441E+03 -0.61877252872E+02 -0.49152174675E+03  0.51839855565E+03  0.25500000000E-02 0.  1.
<mgrwt>
<rscale>  0 0.16475265E+03</rscale>
<asrwt>0</asrwt>
<pdfrwt beam="1">  1       11 0.10000000E+01 0.16693259E+03</pdfrwt>
<pdfrwt beam="2">  1        2 0.78781532E-01 0.16475265E+03</pdfrwt>
<totfact> 0.76101288E+01</totfact>
</mgrwt>
</event>
<event>
 5    1  0.2226716E-003  0.3102437E+03  0.7818608E-02  0.1080229E+00
         11   -1    0    0    0    0  0.00000000000E+00  0.00000000000E+00  0.10004963898E+04  0.10004963898E+04  0.51100000000E-03 0. -1.
          2   -1    0    0  501    0 -0.00000000000E+00 -0.00000000000E+00 -0.32252010743E+03  0.32252010744E+03  0.25500000000E-02 0. -1.
         11    1    1    2    0    0 -0.23211462183E+03 -0.18047470082E+03  0.60880577577E+03  0.67608637607E+03  0.51100000000E-03 0. -1.
         22    1    1    2    0    0  0.14745271347E+02 -0.44377379062E+02  0.27081104827E+03  0.27481884700E+03  0.00000000000E+00 0. -1.
          2    1    1    2  501    0  0.21736935048E+03  0.22485207988E+03 -0.20164054164E+03  0.37211127421E+03  0.25500000000E-02 0. -1.
<mgrwt>
<rscale>  0 0.31024373E+03</rscale>
<asrwt>0</asrwt>
<pdfrwt beam="1">  1       11 0.10000000E+01 0.46762964E+02</pdfrwt>
<pdfrwt beam="2">  1        2 0.49643107E-01 0.31024373E+03</pdfrwt>
<totfact> 0.12539317E+02</totfact>
</mgrwt>
</event>
<event>
 5    1  0.2226716E-003  0.1598835E+03  0.7818608E-02  0.1508253E+00
         11   -1    0    0    0    0  0.00000000000E+00  0.00000000000E+00  0.99996253742E+03  0.99996253742E+03  0.51100000000E-03 0.  1.
          2   -1    0    0  501    0 -0.00000000000E+00 -0.00000000000E+00 -0.65942918467E+02  0.65942918517E+02  0.25500000000E-02 0.  1.
         11    1    1    2    0    0  0.12929067349E+03  0.72243213809E+02  0.34582937229E+03  0.37620887142E+03  0.51100000000E-03 0.  1.
         22    1    1    2    0    0 -0.12811786313E+03 -0.11222036435E+03  0.61721334515E+03  0.64028111830E+03  0.00000000000E+00 0.  1.
          2    1    1    2  501    0 -0.11728103600E+01  0.39977150542E+02 -0.29023098481E+02  0.49415466218E+02  0.25500000000E-02 0.  1.
<mgrwt>
<rscale>  0 0.39994350E+02</rscale>
<asrwt>0</asrwt>
<pdfrwt beam="1">  1       11 0.10000000E+01 0.15988352E+03</pdfrwt>
<pdfrwt beam="2">  1        2 0.10144684E-01 0.39994350E+02</pdfrwt>
<totfact> 0.68862464E+02</totfact>
</mgrwt>
</event>
<event>
 5    1  0.2226716E-003  0.2689497E+03  0.7818608E-02  0.1101882E+00
         11   -1    0    0    0    0  0.00000000000E+00  0.00000000000E+00  0.10004210060E+04  0.10004210060E+04  0.51100000000E-03 0. -1.
          2   -1    0    0  501    0 -0.00000000000E+00 -0.00000000000E+00 -0.30411223891E+03  0.30411223892E+03  0.25500000000E-02 0. -1.
         11    1    1    2    0    0 -0.27604363175E+03  0.14579205771E+03  0.57159888549E+03  0.65129156037E+03  0.51100000000E-03 0. -1.
         22    1    1    2    0    0  0.67037924608E+02  0.16570434744E+02  0.31806480692E+03  0.32547485932E+03  0.00000000000E+00 0. -1.
          2    1    1    2  501    0  0.20900570714E+03 -0.16236249245E+03 -0.19335492532E+03  0.32776682524E+03  0.25500000000E-02 0. -1.
<mgrwt>
<rscale>  0 0.26894965E+03</rscale>
<asrwt>0</asrwt>
<pdfrwt beam="1">  1       11 0.10000000E+01 0.69055504E+02</pdfrwt>
<pdfrwt beam="2">  1        2 0.46806194E-01 0.26894965E+03</pdfrwt>
<totfact> 0.13366381E+02</totfact>
</mgrwt>
</event>
<event>
 5    1  0.2226716E-003  0.3219879E+03  0.7818608E-02  0.1074738E+00
         11   -1    0    0    0    0  0.00000000000E+00  0.00000000000E+00  0.10002130608E+04  0.10002130608E+04  0.51100000000E-03 0. -1.
          2   -1    0    0  501    0 -0.00000000000E+00 -0.00000000000E+00 -0.45213468096E+03  0.45213468096E+03  0.25500000000E-02 0. -1.
         11    1    1    2    0    0 -0.29711661760E+03 -0.76361154196E+02  0.32513631176E+03  0.44701558312E+03  0.51100000000E-03 0. -1.
         22    1    1    2    0    0  0.92930400798E+02 -0.19065281623E+03  0.51694311888E+03  0.55876179530E+03  0.00000000000E+00 0. -1.
          2    1    1    2  501    0  0.20418621680E+03  0.26701397043E+03 -0.29400105080E+03  0.44657036334E+03  0.25500000000E-02 0. -1.
<mgrwt>
<rscale>  0 0.32198785E+03</rscale>
<asrwt>0</asrwt>
<pdfrwt beam="1">  1       11 0.10000000E+01 0.21209563E+03</pdfrwt>
<pdfrwt beam="2">  1        2 0.69574000E-01 0.32198785E+03</pdfrwt>
<totfact> 0.86549009E+01</totfact>
</mgrwt>
</event>
<event>
 5    1  0.2226716E-003  0.3442580E+03  0.7818608E-02  0.1736766E+00
         11   -1    0    0    0    0  0.00000000000E+00  0.00000000000E+00  0.10003994699E+04  0.10003994699E+04  0.51100000000E-03 0.  1.
          2   -1    0    0  501    0 -0.00000000000E+00 -0.00000000000E+00 -0.10955867329E+04  0.10955867329E+04  0.25500000000E-02 0. -1.
         11    1    1    2    0    0  0.23281691612E+03  0.25943473315E+03  0.76979955033E+03  0.84504523245E+03  0.51100000000E-03 0.  1.
         22    1    1    2    0    0 -0.22036150829E+03 -0.24323125906E+03  0.53230011441E+02  0.33249672756E+03  0.00000000000E+00 0. -1.
          2    1    1    2  501    0 -0.12455407836E+02 -0.16203474081E+02 -0.91821682476E+03  0.91844424275E+03  0.25500000000E-02 0. -1.
<mgrwt>
<rscale>  0 0.20437460E+02</rscale>
<asrwt>0</asrwt>
<pdfrwt beam="1">  1       11 0.10000000E+01 0.34425797E+03</pdfrwt>
<pdfrwt beam="2">  1        2 0.16861913E+00 0.20437460E+02</pdfrwt>
<totfact> 0.33426268E+01</totfact>
</mgrwt>
</event>
<event>
 5    1  0.2226716E-003  0.1021972E+03  0.7818608E-02  0.1376419E+00
         11   -1    0    0    0    0  0.00000000000E+00  0.00000000000E+00  0.10003020408E+04  0.10003020408E+04  0.51100000000E-03 0. -1.
         -2   -1    0    0    0  501 -0.00000000000E+00 -0.00000000000E+00 -0.21532984611E+02  0.21532984762E+02  0.25500000000E-02 0.  1.
         11    1    1    2    0    0  0.42043146097E+02 -0.12266903060E+03  0.52922955376E+03  0.54488460960E+03  0.51100000000E-03 0. -1.
         22    1    1    2    0    0 -0.62497909175E+02  0.60534864899E+02  0.32285903284E+03  0.33437765118E+03  0.00000000000E+00 0. -1.
         -2    1    1    2    0  501  0.20454763078E+02  0.62134165697E+02  0.12668046962E+03  0.14257276483E+03  0.25500000000E-02 0.  1.
<mgrwt>
<rscale>  0 0.65414462E+02</rscale>
<asrwt>0</asrwt>
<pdfrwt beam="1">  1       11 0.10000000E+01 0.10219724E+03</pdfrwt>
<pdfrwt beam="2">  1       -2 0.33137674E-02 0.65414462E+02</pdfrwt>
<totfact> 0.25083155E+03</totfact>
</mgrwt>
</event>
<event>
 5    1  0.2226716E-003  0.1170744E+03  0.7818608E-02  0.1540577E+00
         11   -1    0    0    0    0  0.00000000000E+00  0.00000000000E+00  0.10001903866E+04  0.10001903867E+04  0.51100000000E-03 0. -1.
          2   -1    0    0  501    0 -0.00000000000E+00 -0.00000000000E+00 -0.16139527428E+02  0.16139527629E+02  0.25500000000E-02 0. -1.
         11    1    1    2    0    0  0.48881756871E+02 -0.10765676113E+03  0.60749460754E+03  0.61889345009E+03  0.51100000000E-03 0. -1.
         22    1    1    2    0    0 -0.10927546441E+02 -0.14312070267E+01  0.23254684567E+02  0.25734023764E+02  0.00000000000E+00 0. -1.
          2    1    1    2  501    0 -0.37954210430E+02  0.10908796816E+03  0.35330156711E+03  0.37170244042E+03  0.25500000000E-02 0. -1.
<mgrwt>
<rscale>  0 0.35920210E+02</rscale>
<asrwt>0</asrwt>
<pdfrwt beam="1">  1       11 0.10000000E+01 0.11707435E+03</pdfrwt>
<pdfrwt beam="2">  1        2 0.24834769E-02 0.35920210E+02</pdfrwt>
<totfact> 0.39204493E+03</totfact>
</mgrwt>
</event>
<event>
 5    1  0.2226716E-003  0.1312159E+03  0.7818608E-02  0.1225663E+00
         11   -1    0    0    0    0  0.00000000000E+00  0.00000000000E+00  0.10006283720E+04  0.10006283720E+04  0.51100000000E-03 0.  1.
          2   -1    0    0  501    0 -0.00000000000E+00 -0.00000000000E+00 -0.90557292016E+03  0.90557292017E+03  0.25500000000E-02 0.  1.
         11    1    1    2    0    0 -0.74375710150E+02 -0.97010073468E+02  0.42698014978E+03  0.44413370613E+03  0.51100000000E-03 0.  1.
         22    1    1    2    0    0  0.16450159898E+03  0.14162055279E+01  0.54811765372E+03  0.57227243864E+03  0.00000000000E+00 0.  1.
          2    1    1    2  501    0 -0.90125888834E+02  0.95593867940E+02 -0.88004235171E+03  0.88979514735E+03  0.25500000000E-02 0.  1.
<mgrwt>
<rscale>  0 0.13121593E+03</rscale>
<asrwt>0</asrwt>
<pdfrwt beam="1">  1       11 0.10000000E+01 0.12224034E+03</pdfrwt>
<pdfrwt beam="2">  1        2 0.13940645E+00 0.13121593E+03</pdfrwt>
<totfact> 0.38832139E+01</totfact>
</mgrwt>
</event>
<event>
 5    1  0.2226716E-003  0.2567789E+03  0.7818608E-02  0.1579000E+00
         11   -1    0    0    0    0  0.00000000000E+00  0.00000000000E+00  0.10001645680E+04  0.10001645680E+04  0.51100000000E-03 0.  1.
          2   -1    0    0  501    0 -0.00000000000E+00 -0.00000000000E+00 -0.26349036799E+03  0.26349036800E+03  0.25500000000E-02 0.  1.
         11    1    1    2    0    0 -0.17071244118E+03 -0.21197503347E+03  0.51344011271E+03  0.58111694325E+03  0.51100000000E-03 0.  1.
         22    1    1    2    0    0  0.15938818653E+03  0.18225933728E+03  0.41915132005E+03  0.48405670033E+03  0.00000000000E+00 0.  1.
          2    1    1    2  501    0  0.11324254644E+02  0.29715696188E+02 -0.19591723276E+03  0.19848129242E+03  0.25500000000E-02 0.  1.
<mgrwt>
<rscale>  0 0.31800336E+02</rscale>
<asrwt>0</asrwt>
<pdfrwt beam="1">  1       11 0.10000000E+01 0.25677887E+03</pdfrwt>
<pdfrwt beam="2">  1        2 0.40543650E-01 0.31800336E+02</pdfrwt>
<totfact> 0.15205071E+02</totfact>
</mgrwt>
</event>
<event>
 5    1  0.2226716E-003  0.1044653E+03  0.7818608E-02  0.1523825E+00
         11   -1    0    0    0    0  0.00000000000E+00  0.00000000000E+00  0.10002215424E+04  0.10002215424E+04  0.51100000000E-03 0. -1.
         -2   -1    0    0    0  501 -0.00000000000E+00 -0.00000000000E+00 -0.65876344412E+02  0.65876344461E+02  0.25500000000E-02 0.  1.
         11    1    1    2    0    0  0.88018543098E+02 -0.28917875763E+02  0.45283422275E+03  0.46221460466E+03  0.51100000000E-03 0. -1.
         22    1    1    2    0    0 -0.12301562010E+03  0.14228775449E+02  0.52887980138E+03  0.54318426445E+03  0.00000000000E+00 0.  1.
         -2    1    1    2    0  501  0.34997077001E+02  0.14689100314E+02 -0.47368826108E+02  0.60699017784E+02  0.25500000000E-02 0.  1.
<mgrwt>
<rscale>  0 0.37954777E+02</rscale>
<asrwt>0</asrwt>
<pdfrwt beam="1">  1       11 0.10000000E+01 0.10446526E+03</pdfrwt>
<pdfrwt beam="2">  1       -2 0.10137067E-01 0.37954777E+02</pdfrwt>
<totfact> 0.45504142E+02</totfact>
</mgrwt>
</event>
<event>
 5    1  0.2226716E-003  0.1398184E+03  0.7818608E-02  0.1614479E+00
         11   -1    0    0    0    0  0.00000000000E+00  0.00000000000E+00  0.10000993461E+04  0.10000993461E+04  0.51100000000E-03 0.  1.
          2   -1    0    0  501    0 -0.00000000000E+00 -0.00000000000E+00 -0.64484186518E+02  0.64484186568E+02  0.25500000000E-02 0.  1.
         11    1    1    2    0    0 -0.12420213516E+03  0.87639541584E+02  0.17293112012E+03  0.23024341887E+03  0.51100000000E-03 0.  1.
         22    1    1    2    0    0  0.12432960871E+03 -0.59071800126E+02  0.78569229451E+03  0.79765889377E+03  0.00000000000E+00 0.  1.
          2    1    1    2  501    0 -0.12747355550E+00 -0.28567741458E+02 -0.23008254995E+02  0.36681220072E+02  0.25500000000E-02 0.  1.
<mgrwt>
<rscale>  0 0.28568026E+02</rscale>
<asrwt>0</asrwt>
<pdfrwt beam="1">  1       11 0.10000000E+01 0.13981841E+03</pdfrwt>
<pdfrwt beam="2">  1        2 0.99216294E-02 0.28568026E+02</pdfrwt>
<totfact> 0.68691307E+02</totfact>
</mgrwt>
</event>
<event>
 5    1  0.2226716E-003  0.1808784E+03  0.7818608E-02  0.1511344E+00
         11   -1    0    0    0    0  0.00000000000E+00  0.00000000000E+00  0.10010552993E+04  0.10010552993E+04  0.51100000000E-03 0. -1.
          2   -1    0    0  501    0 -0.00000000000E+00 -0.00000000000E+00 -0.11666144450E+04  0.11666144450E+04  0.25500000000E-02 0.  1.
         11    1    1    2    0    0  0.20568200100E+02 -0.17015740469E+03  0.66649716457E+03  0.68818243483E+03  0.51100000000E-03 0. -1.
         22    1    1    2    0    0 -0.24966154090E+02  0.20948979329E+03  0.28895539925E+03  0.35777717241E+03  0.00000000000E+00 0. -1.
          2    1    1    2  501    0  0.43979539898E+01 -0.39332388598E+02 -0.11210117095E+04  0.11217101371E+04  0.25500000000E-02 0.  1.
<mgrwt>
<rscale>  0 0.39577504E+02</rscale>
<asrwt>0</asrwt>
<pdfrwt beam="1">  1       11 0.10000000E+01 0.18087842E+03</pdfrwt>
<pdfrwt beam="2">  1        2 0.17966854E+00 0.39577504E+02</pdfrwt>
<totfact> 0.29377443E+01</totfact>
</mgrwt>
</event>
<event>
 5    1  0.2226716E-003  0.3863560E+03  0.7818608E-02  0.1048609E+00
         11   -1    0    0    0    0  0.00000000000E+00  0.00000000000E+00  0.10000945136E+04  0.10000945136E+04  0.51100000000E-03 0.  1.
          2   -1    0    0  501    0 -0.00000000000E+00 -0.00000000000E+00 -0.44027829473E+03  0.44027829474E+03  0.25500000000E-02 0.  1.
         11    1    1    2    0    0  0.19390235944E+03  0.32189577498E+03  0.75525536979E+03  0.84357909442E+03  0.51100000000E-03 0.  1.
         22    1    1    2    0    0  0.20114310425E+02  0.13209683117E+01  0.10464358131E+03  0.10656739441E+03  0.00000000000E+00 0. -1.
          2    1    1    2  501    0 -0.21401666987E+03 -0.32321674329E+03 -0.30008273225E+03  0.49022631950E+03  0.25500000000E-02 0.  1.
<mgrwt>
<rscale>  0 0.38635599E+03</rscale>
<asrwt>0</asrwt>
<pdfrwt beam="1">  1       11 0.10000000E+01 0.20157640E+02</pdfrwt>
<pdfrwt beam="2">  1        2 0.67741522E-01 0.38635599E+03</pdfrwt>
<totfact> 0.88964200E+01</totfact>
</mgrwt>
</event>
<event>
 5    1  0.2226716E-003  0.3407050E+03  0.7818608E-02  0.1068268E+00
         11   -1    0    0    0    0  0.00000000000E+00  0.00000000000E+00  0.10000338716E+04  0.10000338716E+04  0.51100000000E-03 0.  1.
          2   -1    0    0  501    0 -0.00000000000E+00 -0.00000000000E+00 -0.99026878273E+03  0.99026878273E+03  0.25500000000E-02 0.  1.
         11    1    1    2    0    0 -0.21205134792E+03  0.18004176908E+03  0.82306651300E+03  0.86880337107E+03  0.51100000000E-03 0.  1.
         22    1    1    2    0    0 -0.37427975368E+02  0.45872933282E+02  0.11757866970E+03  0.13164316509E+03  0.00000000000E+00 0.  1.
          2    1    1    2  501    0  0.24947932329E+03 -0.22591470236E+03 -0.93088009385E+03  0.98985611814E+03  0.25500000000E-02 0.  1.
<mgrwt>
<rscale>  0 0.33656706E+03</rscale>
<asrwt>0</asrwt>
<pdfrwt beam="1">  1       11 0.10000000E+01 0.34070502E+03</pdfrwt>
<pdfrwt beam="2">  1        2 0.15235420E+00 0.33656706E+03</pdfrwt>
<totfact> 0.32962969E+01</totfact>
</mgrwt>
</event>
<event>
 5    1  0.2226716E-003  0.1081095E+03  0.7818608E-02  0.1448789E+00
         11   -1    0    0    0    0  0.00000000000E+00  0.00000000000E+00  0.10001241012E+04  0.10001241012E+04  0.51100000000E-03 0. -1.
          2   -1    0    0  501    0 -0.00000000000E+00 -0.00000000000E+00 -0.32674798615E+03  0.32674798616E+03  0.25500000000E-02 0. -1.
         11    1    1    2    0    0 -0.12998120137E+03 -0.32113784212E+02  0.63223501291E+03  0.64625654302E+03  0.51100000000E-03 0. -1.
         22    1    1    2    0    0  0.88593875793E+02  0.52039680248E+01  0.35345397864E+03  0.36442512417E+03  0.00000000000E+00 0.  1.
          2    1    1    2  501    0  0.41387325581E+02  0.26909816188E+02 -0.31231287654E+03  0.31619042014E+03  0.25500000000E-02 0. -1.
<mgrwt>
<rscale>  0 0.49366476E+02</rscale>
<asrwt>0</asrwt>
<pdfrwt beam="1">  1       11 0.10000000E+01 0.10810949E+03</pdfrwt>
<pdfrwt beam="2">  1        2 0.50275158E-01 0.49366476E+02</pdfrwt>
<totfact> 0.12312813E+02</totfact>
</mgrwt>
</event>
<event>
 5    1  0.2226716E-003  0.1097006E+03  0.7818608E-02  0.1261125E+00
         11   -1    0    0    0    0  0.00000000000E+00  0.00000000000E+00  0.99992617841E+03  0.99992617841E+03  0.51100000000E-03 0. -1.
         -2   -1    0    0    0  501 -0.00000000000E+00 -0.00000000000E+00 -0.17558627401E+02  0.17558627586E+02  0.25500000000E-02 0. -1.
         11    1    1    2    0    0 -0.39614441582E+02  0.98989372420E+02  0.62816076202E+03  0.63714530742E+03  0.51100000000E-03 0. -1.
         22    1    1    2    0    0  0.20425080907E+02  0.11032911351E+02  0.10037167347E+03  0.10302126916E+03  0.00000000000E+00 0.  1.
         -2    1    1    2    0  501  0.19189360675E+02 -0.11002228377E+03  0.25383511552E+03  0.27731822941E+03  0.25500000000E-02 0. -1.
<mgrwt>
<rscale>  0 0.10970057E+03</rscale>
<asrwt>0</asrwt>
<pdfrwt beam="1">  1       11 0.10000000E+01 0.23214415E+02</pdfrwt>
<pdfrwt beam="2">  1       -2 0.27011278E-02 0.10970057E+03</pdfrwt>
<totfact> 0.35907654E+03</totfact>
</mgrwt>
</event>
<event>
 5    1  0.2226716E-003  0.3134636E+03  0.7818608E-02  0.1078697E+00
         11   -1    0    0    0    0  0.00000000000E+00  0.00000000000E+00  0.10000956962E+04  0.10000956962E+04  0.51100000000E-03 0. -1.
          2   -1    0    0  501    0 -0.00000000000E+00 -0.00000000000E+00 -0.52592354528E+03  0.52592354528E+03  0.25500000000E-02 0. -1.
         11    1    1    2    0    0 -0.22675805229E+03  0.20287505466E+03  0.79851886619E+03  0.85452318970E+03  0.51100000000E-03 0. -1.
         22    1    1    2    0    0 -0.34510733015E+02 -0.28360601444E+02  0.11956962111E+03  0.12764093662E+03  0.00000000000E+00 0.  1.
          2    1    1    2  501    0  0.26126878530E+03 -0.17451445321E+03 -0.44391633639E+03  0.54385511515E+03  0.25500000000E-02 0. -1.
<mgrwt>
<rscale>  0 0.31346356E+03</rscale>
<asrwt>0</asrwt>
<pdfrwt beam="1">  1       11 0.10000000E+01 0.44668942E+02</pdfrwt>
<pdfrwt beam="2">  1        2 0.80919055E-01 0.31346356E+03</pdfrwt>
<totfact> 0.73028863E+01</totfact>
</mgrwt>
</event>
<event>
 5    1  0.2226716E-003  0.1070149E+03  0.7818608E-02  0.1541197E+00
         11   -1    0    0    0    0  0.00000000000E+00  0.00000000000E+00  0.10000535414E+04  0.10000535414E+04  0.51100000000E-03 0.  1.
         -2   -1    0    0    0  501 -0.00000000000E+00 -0.00000000000E+00 -0.33992777544E+02  0.33992777640E+02  0.25500000000E-02 0.  1.
         11    1    1    2    0    0  0.11622638822E+03 -0.13290553689E+01  0.66095602971E+03  0.67109851208E+03  0.51100000000E-03 0.  1.
         22    1    1    2    0    0 -0.92739688625E+02 -0.25753202947E+02  0.31194241604E+03  0.32645359277E+03  0.00000000000E+00 0. -1.
         -2    1    1    2    0  501 -0.23486699591E+02  0.27082258316E+02 -0.68376818466E+01  0.36494214236E+02  0.25500000000E-02 0.  1.
<mgrwt>
<rscale>  0 0.35847926E+02</rscale>
<asrwt>0</asrwt>
<pdfrwt beam="1">  1       11 0.10000000E+01 0.10701487E+03</pdfrwt>
<pdfrwt beam="2">  1       -2 0.52299379E-02 0.35847926E+02</pdfrwt>
<totfact> 0.12038672E+03</totfact>
</mgrwt>
</event>
<event>
 5    1  0.2226716E-003  0.1202246E+03  0.7818608E-02  0.1416668E+00
         11   -1    0    0    0    0  0.00000000000E+00  0.00000000000E+00  0.10001158227E+04  0.10001158227E+04  0.51100000000E-03 0. -1.
         -2   -1    0    0    0  501 -0.00000000000E+00 -0.00000000000E+00 -0.67707110147E+02  0.67707110195E+02  0.25500000000E-02 0.  1.
         11    1    1    2    0    0 -0.73431952841E+02 -0.12898396428E+03  0.35478169698E+03  0.38457660778E+03  0.51100000000E-03 0. -1.
         22    1    1    2    0    0  0.84327635272E+02  0.74327186545E+02  0.60900223650E+03  0.61928943540E+03  0.00000000000E+00 0. -1.
         -2    1    1    2    0  501 -0.10895682432E+02  0.54656777737E+02 -0.31375220924E+02  0.63956889721E+02  0.25500000000E-02 0.  1.
<mgrwt>
<rscale>  0 0.55732210E+02</rscale>
<asrwt>0</asrwt>
<pdfrwt beam="1">  1       11 0.10000000E+01 0.12022458E+03</pdfrwt>
<pdfrwt beam="2">  1       -2 0.10417685E-01 0.55732210E+02</pdfrwt>
<totfact> 0.45057945E+02</totfact>
</mgrwt>
</event>
<event>
 5    1  0.2226716E-003  0.9200367E+03  0.7818608E-02  0.9400875E-01
         11   -1    0    0    0    0  0.00000000000E+00  0.00000000000E+00  0.10001717422E+04  0.10001717422E+04  0.51100000000E-03 0. -1.
          2   -1    0    0  501    0 -0.00000000000E+00 -0.00000000000E+00 -0.10055393902E+04  0.10055393902E+04  0.25500000000E-02 0. -1.
         11    1    1    2    0    0 -0.82066284751E+03  0.41712084742E+03 -0.19135441965E+03  0.94026263594E+03  0.51100000000E-03 0. -1.
         22    1    1    2    0    0 -0.10085058045E+02 -0.22939241040E+02  0.14272610741E+03  0.14490914019E+03  0.00000000000E+00 0. -1.
          2    1    1    2  501    0  0.83074790555E+03 -0.39418160638E+03  0.43260664253E+02  0.92053935628E+03  0.25500000000E-02 0. -1.
<mgrwt>
<rscale>  0 0.92003667E+03</rscale>
<asrwt>0</asrwt>
<pdfrwt beam="1">  1       11 0.10000000E+01 0.25058276E+02</pdfrwt>
<pdfrwt beam="2">  1        2 0.15472493E+00 0.92003667E+03</pdfrwt>
<totfact> 0.30778546E+01</totfact>
</mgrwt>
</event>
<event>
 5    1  0.2226716E-003  0.3300692E+03  0.7818608E-02  0.1382497E+00
         11   -1    0    0    0    0  0.00000000000E+00  0.00000000000E+00  0.10000755592E+04  0.10000755592E+04  0.51100000000E-03 0.  1.
          2   -1    0    0  501    0 -0.00000000000E+00 -0.00000000000E+00 -0.15835490758E+03  0.15835490760E+03  0.25500000000E-02 0. -1.
         11    1    1    2    0    0 -0.32580162031E+03  0.55712553641E+02  0.60222211627E+03  0.68696583740E+03  0.51100000000E-03 0.  1.
         22    1    1    2    0    0  0.33316246881E+03  0.76733609891E+01  0.23443842715E+03  0.40745243553E+03  0.00000000000E+00 0. -1.
          2    1    1    2  501    0 -0.73608484967E+01 -0.63385914630E+02  0.50601082194E+01  0.64012193883E+02  0.25500000000E-02 0. -1.
<mgrwt>
<rscale>  0 0.63811882E+02</rscale>
<asrwt>0</asrwt>
<pdfrwt beam="1">  1       11 0.10000000E+01 0.33006923E+03</pdfrwt>
<pdfrwt beam="2">  1        2 0.24364134E-01 0.63811882E+02</pdfrwt>
<totfact> 0.26338655E+02</totfact>
</mgrwt>
</event>
<event>
 5    1  0.2226716E-003  0.3918326E+03  0.7818608E-02  0.1046645E+00
         11   -1    0    0    0    0  0.00000000000E+00  0.00000000000E+00  0.99979452971E+03  0.99979452971E+03  0.51100000000E-03 0. -1.
          2   -1    0    0  501    0 -0.00000000000E+00 -0.00000000000E+00 -0.16533299448E+04  0.16533299448E+04  0.25500000000E-02 0. -1.
         11    1    1    2    0    0 -0.39697057712E+03 -0.11401665839E+03  0.82909422197E+03  0.92627353756E+03  0.51100000000E-03 0. -1.
         22    1    1    2    0    0  0.24706519221E+02 -0.64227538406E+01  0.96578520749E+02  0.99895317853E+02  0.00000000000E+00 0.  1.
          2    1    1    2  501    0  0.37226405790E+03  0.12043941223E+03 -0.15792081578E+04  0.16269556191E+04  0.25500000000E-02 0. -1.
<mgrwt>
<rscale>  0 0.39183258E+03</rscale>
<asrwt>0</asrwt>
<pdfrwt beam="1">  1       11 0.10000000E+01 0.25527708E+02</pdfrwt>
<pdfrwt beam="2">  1        2 0.25430618E+00 0.39183258E+03</pdfrwt>
<totfact> 0.13770065E+01</totfact>
</mgrwt>
</event>
<event>
 5    1  0.2226716E-003  0.7743733E+02  0.7818608E-02  0.1336485E+00
         11   -1    0    0    0    0  0.00000000000E+00  0.00000000000E+00  0.10002386319E+04  0.10002386319E+04  0.51100000000E-03 0. -1.
          2   -1    0    0  501    0 -0.00000000000E+00 -0.00000000000E+00 -0.15972535233E+02  0.15972535436E+02  0.25500000000E-02 0. -1.
         11    1    1    2    0    0 -0.73876072322E+02 -0.42203009265E+02  0.13442721892E+03  0.15908942529E+03  0.51100000000E-03 0. -1.
         22    1    1    2    0    0  0.19855221171E+02  0.45628677150E+02  0.25395313946E+03  0.25878254003E+03  0.00000000000E+00 0.  1.
          2    1    1    2  501    0  0.54020851151E+02 -0.34256678856E+01  0.59588573832E+03  0.59833920204E+03  0.25500000000E-02 0. -1.
<mgrwt>
<rscale>  0 0.77437329E+02</rscale>
<asrwt>0</asrwt>
<pdfrwt beam="1">  1       11 0.10000000E+01 0.49761491E+02</pdfrwt>
<pdfrwt beam="2">  1        2 0.24578995E-02 0.77437329E+02</pdfrwt>
<totfact> 0.44206663E+03</totfact>
</mgrwt>
</event>
<event>
 5    1  0.2226716E-003  0.1604263E+03  0.7818608E-02  0.1188216E+00
         11   -1    0    0    0    0  0.00000000000E+00  0.00000000000E+00  0.99993993194E+03  0.99993993194E+03  0.51100000000E-03 0. -1.
          2   -1    0    0  501    0 -0.00000000000E+00 -0.00000000000E+00 -0.36434840361E+03  0.36434840362E+03  0.25500000000E-02 0. -1.
         11    1    1    2    0    0 -0.14318952926E+03 -0.14088088891E+03  0.71144414076E+03  0.73925870409E+03  0.51100000000E-03 0. -1.
         22    1    1    2    0    0  0.61896727817E+02  0.35744178278E+01  0.25247750775E+03  0.25997860161E+03  0.00000000000E+00 0. -1.
          2    1    1    2  501    0  0.81292801443E+02  0.13730647109E+03 -0.32833012019E+03  0.36505102986E+03  0.25500000000E-02 0. -1.
<mgrwt>
<rscale>  0 0.16042633E+03</rscale>
<asrwt>0</asrwt>
<pdfrwt beam="1">  1       11 0.10000000E+01 0.61999850E+02</pdfrwt>
<pdfrwt beam="2">  1        2 0.56050232E-01 0.16042633E+03</pdfrwt>
<totfact> 0.11015885E+02</totfact>
</mgrwt>
</event>
<event>
 5    1  0.2226716E-003  0.9499938E+02  0.7818608E-02  0.1389309E+00
         11   -1    0    0    0    0  0.00000000000E+00  0.00000000000E+00  0.10003035456E+04  0.10003035456E+04  0.51100000000E-03 0. -1.
          2   -1    0    0  501    0 -0.00000000000E+00 -0.00000000000E+00 -0.16673405484E+02  0.16673405679E+02  0.25500000000E-02 0.  1.
         11    1    1    2    0    0 -0.90483745936E+02 -0.37415764633E+01  0.54803725784E+03  0.55546930037E+03  0.51100000000E-03 0. -1.
         22    1    1    2    0    0 -0.15773060793E+02  0.37374448525E+02  0.13260362318E+03  0.13866996693E+03  0.00000000000E+00 0. -1.
          2    1    1    2  501    0  0.10625680673E+03 -0.33632872062E+02  0.30298925912E+03  0.32283768400E+03  0.25500000000E-02 0.  1.
<mgrwt>
<rscale>  0 0.62078899E+02</rscale>
<asrwt>0</asrwt>
<pdfrwt beam="1">  1       11 0.10000000E+01 0.94999376E+02</pdfrwt>
<pdfrwt beam="2">  1        2 0.25659179E-02 0.62078899E+02</pdfrwt>
<totfact> 0.40590257E+03</totfact>
</mgrwt>
</event>
<event>
 5    1  0.2310507E-003  0.1972048E+03  0.7818608E-02  0.1152119E+00
         11   -1    0    0    0    0  0.00000000000E+00  0.00000000000E+00  0.10002744200E+04  0.10002744200E+04  0.51100000000E-03 0. -1.
          2   -1    0    0  501    0 -0.00000000000E+00 -0.00000000000E+00 -0.75194643175E+03  0.75194643175E+03  0.25500000000E-02 0. -1.
         11    1    1    2    0    0 -0.19044896306E+03 -0.81713131359E+02  0.91363310279E+03  0.93684219049E+03  0.51100000000E-03 0. -1.
         22    1    1    2    0    0  0.71587206313E+01  0.93334910921E+01  0.61354601626E+02  0.62471981541E+02  0.00000000000E+00 0.  1.
          2    1    1    2  501    0  0.18329024243E+03  0.72379640267E+02 -0.72665971615E+03  0.75290667973E+03  0.25500000000E-02 0. -1.
<mgrwt>
<rscale>  0 0.19720484E+03</rscale>
<asrwt>0</asrwt>
<pdfrwt beam="1">  1       11 0.10000000E+01 0.11762710E+02</pdfrwt>
<pdfrwt beam="2">  1        2 0.11571581E+00 0.19720484E+03</pdfrwt>
<totfact> 0.48424958E+01</totfact>
</mgrwt>
</event>
<event>
 5    1  0.2226716E-003  0.1938304E+03  0.7818608E-02  0.1155051E+00
         11   -1    0    0    0    0  0.00000000000E+00  0.00000000000E+00  0.10002540962E+04  0.10002540962E+04  0.51100000000E-03 0.  1.
          2   -1    0    0  501    0 -0.00000000000E+00 -0.00000000000E+00 -0.43564181903E+02  0.43564181977E+02  0.25500000000E-02 0.  1.
         11    1    1    2    0    0 -0.41217259907E+02  0.18807889221E+03  0.58226781364E+03  0.61327672303E+03  0.51100000000E-03 0.  1.
         22    1    1    2    0    0 -0.11952652474E+02 -0.77326678679E+00  0.56333523167E+02  0.57592791867E+02  0.00000000000E+00 0.  1.
          2    1    1    2  501    0  0.53169912382E+02 -0.18730562542E+03  0.31808857749E+03  0.37294876328E+03  0.25500000000E-02 0.  1.
<mgrwt>
<rscale>  0 0.19383039E+03</rscale>
<asrwt>0</asrwt>
<pdfrwt beam="1">  1       11 0.10000000E+01 0.11977639E+02</pdfrwt>
<pdfrwt beam="2">  1        2 0.67038846E-02 0.19383039E+03</pdfrwt>
<totfact> 0.12858508E+03</totfact>
</mgrwt>
</event>
<event>
 5    1  0.2226716E-003  0.5967014E+02  0.7818608E-02  0.1399221E+00
         11   -1    0    0    0    0  0.00000000000E+00  0.00000000000E+00  0.10000353910E+04  0.10000353910E+04  0.51100000000E-03 0. -1.
          2   -1    0    0  501    0 -0.00000000000E+00 -0.00000000000E+00 -0.87663811868E+01  0.87663815577E+01  0.25500000000E-02 0. -1.
         11    1    1    2    0    0 -0.51796873206E+02 -0.31855983223E+02  0.15325971731E+03  0.16488256637E+03  0.51100000000E-03 0. -1.
         22    1    1    2    0    0  0.23158687611E+02 -0.23275631841E+02  0.17887153586E+03  0.18186012809E+03  0.00000000000E+00 0. -1.
          2    1    1    2  501    0  0.28638185595E+02  0.55131615064E+02  0.65913775667E+03  0.66205907813E+03  0.25500000000E-02 0. -1.
<mgrwt>
<rscale>  0 0.59670143E+02</rscale>
<asrwt>0</asrwt>
<pdfrwt beam="1">  1       11 0.10000000E+01 0.32834126E+02</pdfrwt>
<pdfrwt beam="2">  1        2 0.13487217E-02 0.59670143E+02</pdfrwt>
<totfact> 0.95113244E+03</totfact>
</mgrwt>
</event>
<event>
 5    1  0.2226716E-003  0.1080547E+03  0.7818608E-02  0.1623324E+00
         11   -1    0    0    0    0  0.00000000000E+00  0.00000000000E+00  0.10000615339E+04  0.10000615339E+04  0.51100000000E-03 0.  1.
         -2   -1    0    0    0  501 -0.00000000000E+00 -0.00000000000E+00 -0.21878301335E+03  0.21878301336E+03  0.25500000000E-02 0.  1.
         11    1    1    2    0    0  0.15115975931E+02 -0.10803108535E+03  0.62124551081E+03  0.63074970696E+03  0.51100000000E-03 0.  1.
         22    1    1    2    0    0  0.12718892409E+02  0.10782628213E+03  0.36522585192E+03  0.38102257184E+03  0.00000000000E+00 0. -1.
         -2    1    1    2    0  501 -0.27834868340E+02  0.20480322459E+00 -0.20519284222E+03  0.20707226841E+03  0.25500000000E-02 0.  1.
<mgrwt>
<rscale>  0 0.27835622E+02</rscale>
<asrwt>0</asrwt>
<pdfrwt beam="1">  1       11 0.10000000E+01 0.10805473E+03</pdfrwt>
<pdfrwt beam="2">  1       -2 0.33660995E-01 0.27835622E+02</pdfrwt>
<totfact> 0.63782965E+01</totfact>
</mgrwt>
</event>
<event>
 5    1  0.2226716E-003  0.4783904E+02  0.7818608E-02  0.1698886E+00
         11   -1    0    0    0    0  0.00000000000E+00  0.00000000000E+00  0.10001861326E+04  0.10001861326E+04  0.51100000000E-03 0.  1.
          2   -1    0    0  501    0 -0.00000000000E+00 -0.00000000000E+00 -0.78754811543E+01  0.78754815671E+01  0.25500000000E-02 0.  1.
         11    1    1    2    0    0  0.57900273316E+02 -0.26614998959E+01  0.15984627874E+03  0.17003046215E+03  0.51100000000E-03 0.  1.
         22    1    1    2    0    0 -0.40387017467E+02  0.16869011648E+02  0.18247705999E+03  0.18765274354E+03  0.00000000000E+00 0. -1.
          2    1    1    2  501    0 -0.17513255849E+02 -0.14207511752E+02  0.64998731273E+03  0.65037840849E+03  0.25500000000E-02 0.  1.
<mgrwt>
<rscale>  0 0.22551442E+02</rscale>
<asrwt>0</asrwt>
<pdfrwt beam="1">  1       11 0.10000000E+01 0.47839036E+02</pdfrwt>
<pdfrwt beam="2">  1        2 0.12118380E-02 0.22551442E+02</pdfrwt>
<totfact> 0.91323590E+03</totfact>
</mgrwt>
</event>
<event>
 5    1  0.2226716E-003  0.1984237E+03  0.7818608E-02  0.1151076E+00
         11   -1    0    0    0    0  0.00000000000E+00  0.00000000000E+00  0.10002100170E+04  0.10002100170E+04  0.51100000000E-03 0.  1.
          2   -1    0    0  501    0 -0.00000000000E+00 -0.00000000000E+00 -0.60710358053E+02  0.60710358107E+02  0.25500000000E-02 0.  1.
         11    1    1    2    0    0  0.19401144910E+03 -0.34364921979E+02  0.71115140222E+03  0.73794153367E+03  0.51100000000E-03 0.  1.
         22    1    1    2    0    0  0.41524468826E+01  0.16202775864E+02  0.60120056031E+02  0.62403476650E+02  0.00000000000E+00 0. -1.
          2    1    1    2  501    0 -0.19816389598E+03  0.18162146115E+02  0.16822820073E+03  0.26057536481E+03  0.25500000000E-02 0.  1.
<mgrwt>
<rscale>  0 0.19842374E+03</rscale>
<asrwt>0</asrwt>
<pdfrwt beam="1">  1       11 0.10000000E+01 0.16726409E+02</pdfrwt>
<pdfrwt beam="2">  1        2 0.93420164E-02 0.19842374E+03</pdfrwt>
<totfact> 0.84501863E+02</totfact>
</mgrwt>
</event>
<event>
 5    1  0.2226716E-003  0.1710957E+03  0.7818608E-02  0.1176710E+00
         11   -1    0    0    0    0  0.00000000000E+00  0.00000000000E+00  0.99992958294E+03  0.99992958294E+03  0.51100000000E-03 0.  1.
          2   -1    0    0  501    0 -0.00000000000E+00 -0.00000000000E+00 -0.10502005298E+03  0.10502005301E+03  0.25500000000E-02 0.  1.
         11    1    1    2    0    0 -0.10932263913E+03  0.13129354977E+03  0.18909186325E+03  0.25484341935E+03  0.51100000000E-03 0.  1.
         22    1    1    2    0    0 -0.88850795411E+02 -0.12696846340E+03  0.61105336590E+03  0.63039802547E+03  0.00000000000E+00 0.  1.
          2    1    1    2  501    0  0.19817343455E+03 -0.43250863718E+01  0.94764300814E+02  0.21970819112E+03  0.25500000000E-02 0.  1.
<mgrwt>
<rscale>  0 0.17109569E+03</rscale>
<asrwt>0</asrwt>
<pdfrwt beam="1">  1       11 0.10000000E+01 0.15496921E+03</pdfrwt>
<pdfrwt beam="2">  1        2 0.16155793E-01 0.17109569E+03</pdfrwt>
<totfact> 0.43288114E+02</totfact>
</mgrwt>
</event>
<event>
 5    1  0.2226716E-003  0.1036263E+03  0.7818608E-02  0.1272850E+00
         11   -1    0    0    0    0  0.00000000000E+00  0.00000000000E+00  0.99997354682E+03  0.99997354682E+03  0.51100000000E-03 0. -1.
          2   -1    0    0  501    0 -0.00000000000E+00 -0.00000000000E+00 -0.10789873606E+02  0.10789873908E+02  0.25500000000E-02 0. -1.
         11    1    1    2    0    0 -0.19494224114E+02  0.99505221968E+02  0.57090351781E+03  0.57983802965E+03  0.51100000000E-03 0. -1.
         22    1    1    2    0    0  0.73782204559E+01 -0.74217312796E+01  0.52933434989E+02  0.53958027874E+02  0.00000000000E+00 0.  1.
          2    1    1    2  501    0  0.12116003658E+02 -0.92083490688E+02  0.36534672041E+03  0.37696736321E+03  0.25500000000E-02 0. -1.
<mgrwt>
<rscale>  0 0.10362627E+03</rscale>
<asrwt>0</asrwt>
<pdfrwt beam="1">  1       11 0.10000000E+01 0.10139681E+03</pdfrwt>
<pdfrwt beam="2">  1        2 0.16599366E-02 0.10362627E+03</pdfrwt>
<totfact> 0.77891558E+03</totfact>
</mgrwt>
</event>
<event>
 5    1  0.2226716E-003  0.4377544E+03  0.7818608E-02  0.1031438E+00
         11   -1    0    0    0    0  0.00000000000E+00  0.00000000000E+00  0.10012898870E+04  0.10012898870E+04  0.51100000000E-03 0. -1.
          2   -1    0    0  501    0 -0.00000000000E+00 -0.00000000000E+00 -0.17856336318E+04  0.17856336318E+04  0.25500000000E-02 0. -1.
         11    1    1    2    0    0  0.16048314272E+03 -0.40799828132E+03  0.47951327637E+03  0.64973103579E+03  0.51100000000E-03 0. -1.
         22    1    1    2    0    0 -0.14122697492E+03 -0.30444770449E+02  0.39535313630E+03  0.42092284908E+03  0.00000000000E+00 0. -1.
          2    1    1    2  501    0 -0.19256167804E+02  0.43844305177E+03 -0.16592101575E+04  0.17162696339E+04  0.25500000000E-02 0. -1.
<mgrwt>
<rscale>  0 0.43775442E+03</rscale>
<asrwt>0</asrwt>
<pdfrwt beam="1">  1       11 0.10000000E+01 0.14447125E+03</pdfrwt>
<pdfrwt beam="2">  1        2 0.27506721E+00 0.43775442E+03</pdfrwt>
<totfact> 0.11553875E+01</totfact>
</mgrwt>
</event>
<event>
 5    1  0.2226716E-003  0.2252168E+03  0.7818608E-02  0.1365195E+00
         11   -1    0    0    0    0  0.00000000000E+00  0.00000000000E+00  0.10003313627E+04  0.10003313627E+04  0.51100000000E-03 0. -1.
          2   -1    0    0  501    0 -0.00000000000E+00 -0.00000000000E+00 -0.52905260259E+03  0.52905260259E+03  0.25500000000E-02 0. -1.
         11    1    1    2    0    0  0.51593567051E+02  0.24029456505E+03  0.23237460448E+03  0.33823265803E+03  0.51100000000E-03 0. -1.
         22    1    1    2    0    0 -0.10317088375E+03 -0.19518428010E+03  0.69536771273E+03  0.72957343041E+03  0.00000000000E+00 0. -1.
          2    1    1    2  501    0  0.51577316701E+02 -0.45110284952E+02 -0.45646355711E+03  0.46157787684E+03  0.25500000000E-02 0. -1.
<mgrwt>
<rscale>  0 0.68521219E+02</rscale>
<asrwt>0</asrwt>
<pdfrwt beam="1">  1       11 0.10000000E+01 0.22521684E+03</pdfrwt>
<pdfrwt beam="2">  1        2 0.81419676E-01 0.68521219E+02</pdfrwt>
<totfact> 0.74439432E+01</totfact>
</mgrwt>
</event>
<event>
 5    1  0.2226716E-003  0.2817547E+03  0.7818608E-02  0.1094734E+00
         11   -1    0    0    0    0  0.00000000000E+00  0.00000000000E+00  0.10003967207E+04  0.10003967207E+04  0.51100000000E-03 0. -1.
          2   -1    0    0  501    0 -0.00000000000E+00 -0.00000000000E+00 -0.53326259585E+03  0.53326259585E+03  0.25500000000E-02 0. -1.
         11    1    1    2    0    0 -0.89722667118E+02 -0.30785089045E+03  0.83342566728E+03  0.89298413795E+03  0.51100000000E-03 0. -1.
         22    1    1    2    0    0 -0.41297353094E+02  0.60126790723E+02  0.83407985668E+02  0.11080430681E+03  0.00000000000E+00 0.  1.
          2    1    1    2  501    0  0.13102002021E+03  0.24772409973E+03 -0.44969952805E+03  0.52987087184E+03  0.25500000000E-02 0. -1.
<mgrwt>
<rscale>  0 0.28175470E+03</rscale>
<asrwt>0</asrwt>
<pdfrwt beam="1">  1       11 0.10000000E+01 0.72943145E+02</pdfrwt>
<pdfrwt beam="2">  1        2 0.82072944E-01 0.28175470E+03</pdfrwt>
<totfact> 0.72000173E+01</totfact>
</mgrwt>
</event>
<event>
 5    1  0.2226716E-003  0.3705679E+03  0.7818608E-02  0.1056023E+00
         11   -1    0    0    0    0  0.00000000000E+00  0.00000000000E+00  0.99996773415E+03  0.99996773415E+03  0.51100000000E-03 0.  1.
         -2   -1    0    0    0  501 -0.00000000000E+00 -0.00000000000E+00 -0.13842134430E+03  0.13842134432E+03  0.25500000000E-02 0. -1.
         11    1    1    2    0    0 -0.32609270074E+03 -0.13494638210E+03  0.32521624360E+03  0.47990892951E+03  0.51100000000E-03 0.  1.
         22    1    1    2    0    0 -0.10447673638E+02 -0.10291341815E+02  0.30097495330E+02  0.33480215441E+02  0.00000000000E+00 0.  1.
         -2    1    1    2    0  501  0.33654037438E+03  0.14523772392E+03  0.50623265092E+03  0.62499993352E+03  0.25500000000E-02 0. -1.
<mgrwt>
<rscale>  0 0.36654252E+03</rscale>
<asrwt>0</asrwt>
<pdfrwt beam="1">  1       11 0.10000000E+01 0.37056789E+03</pdfrwt>
<pdfrwt beam="2">  1       -2 0.21294904E-01 0.36654252E+03</pdfrwt>
<totfact> 0.15252941E+02</totfact>
</mgrwt>
</event>
<event>
 5    1  0.2226716E-003  0.1204246E+03  0.7818608E-02  0.1242398E+00
         11   -1    0    0    0    0  0.00000000000E+00  0.00000000000E+00  0.99996427298E+03  0.99996427298E+03  0.51100000000E-03 0. -1.
         -2   -1    0    0    0  501 -0.00000000000E+00 -0.00000000000E+00 -0.14128036359E+02  0.14128036589E+02  0.25500000000E-02 0.  1.
         11    1    1    2    0    0 -0.66225516379E+02  0.95917183482E+02  0.44508104200E+03  0.46009027273E+03  0.51100000000E-03 0. -1.
         22    1    1    2    0    0  0.25634012303E+02 -0.63273029144E+02  0.29754921960E+03  0.30528039060E+03  0.00000000000E+00 0. -1.
         -2    1    1    2    0  501  0.40591504077E+02 -0.32644154339E+02  0.24320597502E+03  0.24872164624E+03  0.25500000000E-02 0.  1.
<mgrwt>
<rscale>  0 0.12042457E+03</rscale>
<asrwt>0</asrwt>
<pdfrwt beam="1">  1       11 0.10000000E+01 0.11655873E+03</pdfrwt>
<pdfrwt beam="2">  1       -2 0.21734664E-02 0.12042457E+03</pdfrwt>
<totfact> 0.49794367E+03</totfact>
</mgrwt>
</event>
<event>
 5    1  0.2226716E-003  0.1797379E+03  0.7818608E-02  0.1168057E+00
         11   -1    0    0    0    0  0.00000000000E+00  0.00000000000E+00  0.10003165369E+04  0.10003165369E+04  0.51100000000E-03 0.  1.
          2   -1    0    0  501    0 -0.00000000000E+00 -0.00000000000E+00 -0.64667289924E+03  0.64667289925E+03  0.25500000000E-02 0. -1.
         11    1    1    2    0    0  0.21150928626E+03 -0.86593910410E+02  0.65966659238E+03  0.69813658878E+03  0.51100000000E-03 0.  1.
         22    1    1    2    0    0 -0.35290468431E+02  0.55663674888E+02  0.30506972327E+03  0.31210799080E+03  0.00000000000E+00 0. -1.
          2    1    1    2  501    0 -0.17621881782E+03  0.30930235522E+02 -0.61109267801E+03  0.63674485655E+03  0.25500000000E-02 0. -1.
<mgrwt>
<rscale>  0 0.17973790E+03</rscale>
<asrwt>0</asrwt>
<pdfrwt beam="1">  1       11 0.10000000E+01 0.65907980E+02</pdfrwt>
<pdfrwt beam="2">  1        2 0.99519627E-01 0.17973790E+03</pdfrwt>
<totfact> 0.58211268E+01</totfact>
</mgrwt>
</event>
<event>
 5    1  0.2226716E-003  0.1188677E+03  0.7818608E-02  0.1244977E+00
         11   -1    0    0    0    0  0.00000000000E+00  0.00000000000E+00  0.10002195718E+04  0.10002195718E+04  0.51100000000E-03 0.  1.
         -2   -1    0    0    0  501 -0.00000000000E+00 -0.00000000000E+00 -0.63944581912E+02  0.63944581963E+02  0.25500000000E-02 0. -1.
         11    1    1    2    0    0 -0.39478326022E+02 -0.13517542532E+03  0.79622492906E+03  0.80858213652E+03  0.51100000000E-03 0.  1.
         22    1    1    2    0    0  0.15602461430E+02  0.20396349923E+02  0.13586577234E+03  0.13827131295E+03  0.00000000000E+00 0. -1.
         -2    1    1    2    0  501  0.23875864592E+02  0.11477907539E+03  0.41842884583E+01  0.11731070426E+03  0.25500000000E-02 0. -1.
<mgrwt>
<rscale>  0 0.11886765E+03</rscale>
<asrwt>0</asrwt>
<pdfrwt beam="1">  1       11 0.10000000E+01 0.25679718E+02</pdfrwt>
<pdfrwt beam="2">  1       -2 0.98397878E-02 0.11886765E+03</pdfrwt>
<totfact> 0.51921487E+02</totfact>
</mgrwt>
</event>
<event>
 5    1  0.2226716E-003  0.2261788E+03  0.7818608E-02  0.1129359E+00
         11   -1    0    0    0    0  0.00000000000E+00  0.00000000000E+00  0.10003823183E+04  0.10003823183E+04  0.51100000000E-03 0. -1.
          2   -1    0    0  501    0 -0.00000000000E+00 -0.00000000000E+00 -0.15249146333E+03  0.15249146335E+03  0.25500000000E-02 0. -1.
         11    1    1    2    0    0  0.54597437921E+02  0.20480888635E+03  0.90649057536E+02  0.23053158523E+03  0.51100000000E-03 0. -1.
         22    1    1    2    0    0 -0.96569515492E+02  0.48709569573E+02  0.62319583562E+03  0.63251193113E+03  0.00000000000E+00 0. -1.
          2    1    1    2  501    0  0.41972077571E+02 -0.25351845593E+03  0.13404596182E+03  0.28983026529E+03  0.25500000000E-02 0. -1.
<mgrwt>
<rscale>  0 0.22617878E+03</rscale>
<asrwt>0</asrwt>
<pdfrwt beam="1">  1       11 0.10000000E+01 0.10815865E+03</pdfrwt>
<pdfrwt beam="2">  1        2 0.23469194E-01 0.22617878E+03</pdfrwt>
<totfact> 0.28448942E+02</totfact>
</mgrwt>
</event>
<event>
 5    1  0.2226716E-003  0.1097806E+03  0.7818608E-02  0.1260977E+00
         11   -1    0    0    0    0  0.00000000000E+00  0.00000000000E+00  0.99940522643E+03  0.99940522643E+03  0.51100000000E-03 0.  1.
          2   -1    0    0  501    0 -0.00000000000E+00 -0.00000000000E+00 -0.12287445069E+04  0.12287445069E+04  0.25500000000E-02 0. -1.
         11    1    1    2    0    0  0.19523027635E+03  0.22017924352E+02  0.47906994481E+03  0.51779113725E+03  0.51100000000E-03 0.  1.
         22    1    1    2    0    0 -0.90463959140E+02 -0.53612885094E+02  0.49294220401E+03  0.50403381419E+03  0.00000000000E+00 0. -1.
          2    1    1    2  501    0 -0.10476631721E+03  0.31594960742E+02 -0.12013514293E+04  0.12063247819E+04  0.25500000000E-02 0. -1.
<mgrwt>
<rscale>  0 0.10978058E+03</rscale>
<asrwt>0</asrwt>
<pdfrwt beam="1">  1       11 0.10000000E+01 0.10515736E+03</pdfrwt>
<pdfrwt beam="2">  1        2 0.18892518E+00 0.10978058E+03</pdfrwt>
<totfact> 0.25519189E+01</totfact>
</mgrwt>
</event>
<event>
 5    1  0.2226716E-003  0.5679306E+03  0.7818608E-02  0.9974268E-01
         11   -1    0    0    0    0  0.00000000000E+00  0.00000000000E+00  0.10002995635E+04  0.10002995635E+04  0.51100000000E-03 0. -1.
          2   -1    0    0  501    0 -0.00000000000E+00 -0.00000000000E+00 -0.28532641164E+04  0.28532641164E+04  0.25500000000E-02 0. -1.
         11    1    1    2    0    0  0.96265045904E+02 -0.54740063884E+03  0.80723518477E+03  0.98007298809E+03  0.51100000000E-03 0. -1.
         22    1    1    2    0    0 -0.47307596752E+01 -0.13507937689E+02  0.76792730920E+02  0.78115094508E+02  0.00000000000E+00 0. -1.
          2    1    1    2  501    0 -0.91534286229E+02  0.56090857653E+03 -0.27369924685E+04  0.27953755972E+04  0.25500000000E-02 0. -1.
<mgrwt>
<rscale>  0 0.56793065E+03</rscale>
<asrwt>0</asrwt>
<pdfrwt beam="1">  1       11 0.10000000E+01 0.14312389E+02</pdfrwt>
<pdfrwt beam="2">  1        2 0.43909520E+00 0.56793065E+03</pdfrwt>
<totfact> 0.28854025E+00</totfact>
</mgrwt>
</event>
<event>
 5    1  0.2226716E-003  0.1439559E+03  0.7818608E-02  0.1208103E+00
         11   -1    0    0    0    0  0.00000000000E+00  0.00000000000E+00  0.10003186312E+04  0.10003186312E+04  0.51100000000E-03 0. -1.
          2   -1    0    0  501    0 -0.00000000000E+00 -0.00000000000E+00 -0.59701994114E+03  0.59701994115E+03  0.25500000000E-02 0. -1.
         11    1    1    2    0    0 -0.10910602044E+03  0.14067181502E+03  0.89697400589E+03  0.91446981934E+03  0.51100000000E-03 0. -1.
         22    1    1    2    0    0  0.18629129572E+02 -0.29128235844E+02  0.82293842226E+02  0.89262394436E+02  0.00000000000E+00 0. -1.
          2    1    1    2  501    0  0.90476890869E+02 -0.11154357917E+03 -0.57596915809E+03  0.59360635855E+03  0.25500000000E-02 0. -1.
<mgrwt>
<rscale>  0 0.14395594E+03</rscale>
<asrwt>0</asrwt>
<pdfrwt beam="1">  1       11 0.10000000E+01 0.34575983E+02</pdfrwt>
<pdfrwt beam="2">  1        2 0.91878485E-01 0.14395594E+03</pdfrwt>
<totfact> 0.64190151E+01</totfact>
</mgrwt>
</event>
<event>
 5    1  0.2226716E-003  0.1393956E+03  0.7818608E-02  0.1293379E+00
         11   -1    0    0    0    0  0.00000000000E+00  0.00000000000E+00  0.99956141251E+03  0.99956141251E+03  0.51100000000E-03 0. -1.
          2   -1    0    0  501    0 -0.00000000000E+00 -0.00000000000E+00 -0.23818749912E+04  0.23818749912E+04  0.25500000000E-02 0.  1.
         11    1    1    2    0    0  0.54096236488E+02  0.17950878246E+03  0.73965051248E+03  0.76304173306E+03  0.51100000000E-03 0. -1.
         22    1    1    2    0    0 -0.42573756508E+01 -0.99775052045E+02  0.23719580175E+03  0.25736168057E+03  0.00000000000E+00 0. -1.
          2    1    1    2  501    0 -0.49838860838E+02 -0.79733730415E+02 -0.23591598930E+04  0.23610329901E+04  0.25500000000E-02 0.  1.
<mgrwt>
<rscale>  0 0.94028612E+02</rscale>
<asrwt>0</asrwt>
<pdfrwt beam="1">  1       11 0.10000000E+01 0.13939557E+03</pdfrwt>
<pdfrwt beam="2">  1        2 0.36628158E+00 0.94028612E+02</pdfrwt>
<totfact> 0.66452718E+00</totfact>
</mgrwt>
</event>
<event>
 5    1  0.2226716E-003  0.1349275E+03  0.7818608E-02  0.1632716E+00
         11   -1    0    0    0    0  0.00000000000E+00  0.00000000000E+00  0.99997731150E+03  0.99997731150E+03  0.51100000000E-03 0.  1.
          2   -1    0    0  501    0 -0.00000000000E+00 -0.00000000000E+00 -0.82424854533E+02  0.82424854572E+02  0.25500000000E-02 0.  1.
         11    1    1    2    0    0  0.28417389668E+02  0.14052069607E+03  0.59189579902E+03  0.60901087917E+03  0.51100000000E-03 0.  1.
         22    1    1    2    0    0 -0.43649129902E+02 -0.11812196865E+03  0.38665726419E+03  0.40664712709E+03  0.00000000000E+00 0.  1.
          2    1    1    2  501    0  0.15231740234E+02 -0.22398727427E+02 -0.61000606238E+02  0.66744159810E+02  0.25500000000E-02 0.  1.
<mgrwt>
<rscale>  0 0.27087062E+02</rscale>
<asrwt>0</asrwt>
<pdfrwt beam="1">  1       11 0.10000000E+01 0.13492747E+03</pdfrwt>
<pdfrwt beam="2">  1        2 0.12680459E-01 0.27087062E+02</pdfrwt>
<totfact> 0.51631743E+02</totfact>
</mgrwt>
</event>
<event>
 5    1  0.2226716E-003  0.3976344E+02  0.7818608E-02  0.1509960E+00
         11   -1    0    0    0    0  0.00000000000E+00  0.00000000000E+00  0.10002838798E+04  0.10002838798E+04  0.51100000000E-03 0. -1.
          2   -1    0    0  501    0 -0.00000000000E+00 -0.00000000000E+00 -0.49038849271E+02  0.49038849338E+02  0.25500000000E-02 0. -1.
         11    1    1    2    0    0  0.20478488797E+02 -0.34240540579E+02 -0.39650456702E+02  0.56248927452E+02  0.51100000000E-03 0. -1.
         22    1    1    2    0    0 -0.11333432981E+02  0.10753836631E+02  0.65588470528E+02  0.67423580234E+02  0.00000000000E+00 0.  1.
          2    1    1    2  501    0 -0.91450558159E+01  0.23486703948E+02  0.92530701669E+03  0.92565022144E+03  0.25500000000E-02 0. -1.
<mgrwt>
<rscale>  0 0.39763445E+02</rscale>
<asrwt>0</asrwt>
<pdfrwt beam="1">  1       11 0.10000000E+01 0.15623434E+02</pdfrwt>
<pdfrwt beam="2">  1        2 0.75465799E-02 0.39763445E+02</pdfrwt>
<totfact> 0.97973652E+02</totfact>
</mgrwt>
</event>
<event>
 5    1  0.2226716E-003  0.1450305E+03  0.7818608E-02  0.1206716E+00
         11   -1    0    0    0    0  0.00000000000E+00  0.00000000000E+00  0.10003093450E+04  0.10003093450E+04  0.51100000000E-03 0.  1.
          2   -1    0    0  501    0 -0.00000000000E+00 -0.00000000000E+00 -0.37552596721E+03  0.37552596721E+03  0.25500000000E-02 0.  1.
         11    1    1    2    0    0  0.76407197076E+02  0.24767434670E+03  0.45075884757E+03  0.51996555698E+03  0.51100000000E-03 0.  1.
         22    1    1    2    0    0 -0.16876903484E+01 -0.12723982111E+03  0.49175977085E+03  0.50795717595E+03  0.00000000000E+00 0.  1.
          2    1    1    2  501    0 -0.74719506727E+02 -0.12043452559E+03 -0.31773524066E+03  0.34791257925E+03  0.25500000000E-02 0.  1.
<mgrwt>
<rscale>  0 0.14503051E+03</rscale>
<asrwt>0</asrwt>
<pdfrwt beam="1">  1       11 0.10000000E+01 0.12725101E+03</pdfrwt>
<pdfrwt beam="2">  1        2 0.57791096E-01 0.14503051E+03</pdfrwt>
<totfact> 0.10665026E+02</totfact>
</mgrwt>
</event>
<event>
 5    1  0.2226716E-003  0.1569508E+03  0.7818608E-02  0.1214665E+00
         11   -1    0    0    0    0  0.00000000000E+00  0.00000000000E+00  0.10001145589E+04  0.10001145589E+04  0.51100000000E-03 0.  1.
          2   -1    0    0  501    0 -0.00000000000E+00 -0.00000000000E+00 -0.59088331034E+03  0.59088331035E+03  0.25500000000E-02 0.  1.
         11    1    1    2    0    0 -0.13434033499E+03  0.23434156537E+03 -0.36975256842E+03  0.45790856808E+03  0.51100000000E-03 0.  1.
         22    1    1    2    0    0  0.20846867718E+02 -0.15407042120E+03  0.92119438305E+03  0.93422233861E+03  0.00000000000E+00 0.  1.
          2    1    1    2  501    0  0.11349346727E+03 -0.80271144176E+02 -0.14221056606E+03  0.19886696258E+03  0.25500000000E-02 0.  1.
<mgrwt>
<rscale>  0 0.13901160E+03</rscale>
<asrwt>0</asrwt>
<pdfrwt beam="1">  1       11 0.10000000E+01 0.15695084E+03</pdfrwt>
<pdfrwt beam="2">  1        2 0.90915536E-01 0.13901160E+03</pdfrwt>
<totfact> 0.65014544E+01</totfact>
</mgrwt>
</event>
<event>
 5    1  0.2226716E-003  0.3102980E+03  0.7818608E-02  0.1373227E+00
         11   -1    0    0    0    0  0.00000000000E+00  0.00000000000E+00  0.10000422081E+04  0.10000422081E+04  0.51100000000E-03 0.  1.
          2   -1    0    0  501    0 -0.00000000000E+00 -0.00000000000E+00 -0.10247328462E+03  0.10247328465E+03  0.25500000000E-02 0.  1.
         11    1    1    2    0    0  0.24935023491E+03  0.18211141227E+03  0.47773115013E+03  0.56882963876E+03  0.51100000000E-03 0.  1.
         22    1    1    2    0    0  0.10674221066E+02 -0.92990270440E+01  0.62234233813E+01  0.15464213459E+02  0.00000000000E+00 0. -1.
          2    1    1    2  501    0 -0.26002445598E+03 -0.17281238522E+03  0.41361434995E+03  0.51822164050E+03  0.25500000000E-02 0.  1.
<mgrwt>
<rscale>  0 0.66278068E+02</rscale>
<asrwt>0</asrwt>
<pdfrwt beam="1">  1       11 0.10000000E+01 0.31029802E+03</pdfrwt>
<pdfrwt beam="2">  1        2 0.15765786E-01 0.66278068E+02</pdfrwt>
<totfact> 0.42720319E+02</totfact>
</mgrwt>
</event>
<event>
 5    1  0.2226716E-003  0.1090371E+03  0.7818608E-02  0.1262364E+00
         11   -1    0    0    0    0  0.00000000000E+00  0.00000000000E+00  0.10004968577E+04  0.10004968577E+04  0.51100000000E-03 0.  1.
         -2   -1    0    0    0  501 -0.00000000000E+00 -0.00000000000E+00 -0.10303549546E+03  0.10303549549E+03  0.25500000000E-02 0. -1.
         11    1    1    2    0    0  0.87210981885E+02  0.14569663083E+03  0.77970964869E+03  0.79798521281E+03  0.51100000000E-03 0.  1.
         22    1    1    2    0    0 -0.51059740951E+02 -0.45357316679E+02  0.17259718203E+03  0.18561834652E+03  0.00000000000E+00 0.  1.
         -2    1    1    2    0  501 -0.36151240934E+02 -0.10033931415E+03 -0.54845468459E+02  0.11992879388E+03  0.25500000000E-02 0. -1.
<mgrwt>
<rscale>  0 0.10903707E+03</rscale>
<asrwt>0</asrwt>
<pdfrwt beam="1">  1       11 0.10000000E+01 0.68296291E+02</pdfrwt>
<pdfrwt beam="2">  1       -2 0.15859490E-01 0.10903707E+03</pdfrwt>
<totfact> 0.24108947E+02</totfact>
</mgrwt>
</event>
<event>
 5    1  0.2226716E-003  0.1089733E+03  0.7818608E-02  0.1568707E+00
         11   -1    0    0    0    0  0.00000000000E+00  0.00000000000E+00  0.10008091282E+04  0.10008091282E+04  0.51100000000E-03 0.  1.
         -2   -1    0    0    0  501 -0.00000000000E+00 -0.00000000000E+00 -0.42933600239E+03  0.42933600240E+03  0.25500000000E-02 0. -1.
         11    1    1    2    0    0  0.10783608871E+03 -0.54190300819E+02  0.59310546505E+03  0.60525969914E+03  0.51100000000E-03 0.  1.
         22    1    1    2    0    0 -0.95755494690E+02  0.23657843795E+02  0.39491482219E+03  0.40704609704E+03  0.00000000000E+00 0.  1.
         -2    1    1    2    0  501 -0.12080594020E+02  0.30532457024E+02 -0.41654716143E+03  0.41783933442E+03  0.25500000000E-02 0. -1.
<mgrwt>
<rscale>  0 0.32835525E+02</rscale>
<asrwt>0</asrwt>
<pdfrwt beam="1">  1       11 0.10000000E+01 0.10897330E+03</pdfrwt>
<pdfrwt beam="2">  1       -2 0.66105135E-01 0.32835525E+02</pdfrwt>
<totfact> 0.17825370E+01</totfact>
</mgrwt>
</event>
<event>
 5    1  0.2226716E-003  0.1222713E+04  0.7818608E-02  0.9093205E-01
         11   -1    0    0    0    0  0.00000000000E+00  0.00000000000E+00  0.99999064063E+03  0.99999064063E+03  0.51100000000E-03 0. -1.
          2   -1    0    0  501    0 -0.00000000000E+00 -0.00000000000E+00 -0.16004364881E+04  0.16004364881E+04  0.25500000000E-02 0. -1.
         11    1    1    2    0    0  0.67945452801E+03 -0.99349626392E+03 -0.32030833995E+03  0.12455082154E+04  0.51100000000E-03 0. -1.
         22    1    1    2    0    0  0.23066935073E+02 -0.31138978159E+02  0.55820135397E+02  0.67952976169E+02  0.00000000000E+00 0. -1.
          2    1    1    2  501    0 -0.70252146309E+03  0.10246352421E+04 -0.33595764287E+03  0.12869659371E+04  0.25500000000E-02 0. -1.
<mgrwt>
<rscale>  0 0.12227128E+04</rscale>
<asrwt>0</asrwt>
<pdfrwt beam="1">  1       11 0.10000000E+01 0.38752025E+02</pdfrwt>
<pdfrwt beam="2">  1        2 0.24621869E+00 0.12227128E+04</pdfrwt>
<totfact> 0.13519883E+01</totfact>
</mgrwt>
</event>
<event>
 5    1  0.2226716E-003  0.1976689E+03  0.7818608E-02  0.1151721E+00
         11   -1    0    0    0    0  0.00000000000E+00  0.00000000000E+00  0.10001321149E+04  0.10001321149E+04  0.51100000000E-03 0. -1.
          2   -1    0    0  501    0 -0.00000000000E+00 -0.00000000000E+00 -0.19174731293E+03  0.19174731295E+03  0.25500000000E-02 0. -1.
         11    1    1    2    0    0 -0.19415095708E+03 -0.74166407410E+01  0.84268636736E+03  0.86479472387E+03  0.51100000000E-03 0. -1.
         22    1    1    2    0    0 -0.33561385903E+01  0.20637560161E+02  0.90628513205E+02  0.93009139128E+02  0.00000000000E+00 0. -1.
          2    1    1    2  501    0  0.19750709567E+03 -0.13220919420E+02 -0.12493007855E+03  0.23407556490E+03  0.25500000000E-02 0. -1.
<mgrwt>
<rscale>  0 0.19766888E+03</rscale>
<asrwt>0</asrwt>
<pdfrwt beam="1">  1       11 0.10000000E+01 0.20908672E+02</pdfrwt>
<pdfrwt beam="2">  1        2 0.29503483E-01 0.19766888E+03</pdfrwt>
<totfact> 0.22001801E+02</totfact>
</mgrwt>
</event>
<event>
 5    1  0.2226716E-003  0.1228633E+03  0.7818608E-02  0.1676979E+00
         11   -1    0    0    0    0  0.00000000000E+00  0.00000000000E+00  0.10003168504E+04  0.10003168504E+04  0.51100000000E-03 0. -1.
          2   -1    0    0  501    0 -0.00000000000E+00 -0.00000000000E+00 -0.75139720138E+03  0.75139720138E+03  0.25500000000E-02 0.  1.
         11    1    1    2    0    0 -0.68441100709E+02  0.12001967859E+03  0.43205373074E+03  0.45360702570E+03  0.51100000000E-03 0. -1.
         22    1    1    2    0    0  0.53776456123E+02 -0.10111903850E+03  0.55140750111E+03  0.56317599333E+03  0.00000000000E+00 0. -1.
          2    1    1    2  501    0  0.14664644587E+02 -0.18900640096E+02 -0.73454158283E+03  0.73493103276E+03  0.25500000000E-02 0.  1.
<mgrwt>
<rscale>  0 0.23922500E+02</rscale>
<asrwt>0</asrwt>
<pdfrwt beam="1">  1       11 0.10000000E+01 0.12286328E+03</pdfrwt>
<pdfrwt beam="2">  1        2 0.11563619E+00 0.23922500E+02</pdfrwt>
<totfact> 0.52056768E+01</totfact>
</mgrwt>
</event>
<event>
 5    1  0.2226716E-003  0.3232302E+03  0.7818608E-02  0.1074172E+00
         11   -1    0    0    0    0  0.00000000000E+00  0.00000000000E+00  0.10008164668E+04  0.10008164668E+04  0.51100000000E-03 0.  1.
          2   -1    0    0  501    0 -0.00000000000E+00 -0.00000000000E+00 -0.18430997328E+04  0.18430997328E+04  0.25500000000E-02 0.  1.
         11    1    1    2    0    0 -0.16933825270E+03  0.26398245761E+03  0.91653117989E+03  0.96870613989E+03  0.51100000000E-03 0.  1.
         22    1    1    2    0    0  0.14575614965E+02  0.19970078202E+02  0.40290640245E+02  0.47271431820E+02  0.00000000000E+00 0.  1.
          2    1    1    2  501    0  0.15476263774E+03 -0.28395253581E+03 -0.17991050861E+04  0.18279386279E+04  0.25500000000E-02 0.  1.
<mgrwt>
<rscale>  0 0.32323022E+03</rscale>
<asrwt>0</asrwt>
<pdfrwt beam="1">  1       11 0.10000000E+01 0.24723523E+02</pdfrwt>
<pdfrwt beam="2">  1        2 0.28378531E+00 0.32323022E+03</pdfrwt>
<totfact> 0.11066071E+01</totfact>
</mgrwt>
</event>
<event>
 5    1  0.2226716E-003  0.9496746E+03  0.7818608E-02  0.9365531E-01
         11   -1    0    0    0    0  0.00000000000E+00  0.00000000000E+00  0.10004365884E+04  0.10004365884E+04  0.51100000000E-03 0. -1.
          2   -1    0    0  501    0 -0.00000000000E+00 -0.00000000000E+00 -0.91999087474E+03  0.91999087474E+03  0.25500000000E-02 0. -1.
         11    1    1    2    0    0 -0.44721259998E+03 -0.83490363279E+03 -0.22527541299E+02  0.94740206657E+03  0.51100000000E-03 0. -1.
         22    1    1    2    0    0 -0.10870988760E+02 -0.29957316983E+00  0.11873347698E+02  0.16101072209E+02  0.00000000000E+00 0. -1.
          2    1    1    2  501    0  0.45808358874E+03  0.83520320596E+03  0.91099907299E+02  0.95692432440E+03  0.25500000000E-02 0. -1.
<mgrwt>
<rscale>  0 0.94967460E+03</rscale>
<asrwt>0</asrwt>
<pdfrwt beam="1">  1       11 0.10000000E+01 0.10875116E+02</pdfrwt>
<pdfrwt beam="2">  1        2 0.14159885E+00 0.94967460E+03</pdfrwt>
<totfact> 0.34956753E+01</totfact>
</mgrwt>
</event>
<event>
 5    1  0.2226716E-003  0.1251371E+03  0.7818608E-02  0.1348544E+00
         11   -1    0    0    0    0  0.00000000000E+00  0.00000000000E+00  0.10001003621E+04  0.10001003621E+04  0.51100000000E-03 0.  1.
          2   -1    0    0  501    0 -0.00000000000E+00 -0.00000000000E+00 -0.55017098979E+03  0.55017098979E+03  0.25500000000E-02 0. -1.
         11    1    1    2    0    0 -0.14894849417E+03 -0.57357442247E+02  0.36583769420E+03  0.39914001127E+03  0.51100000000E-03 0.  1.
         22    1    1    2    0    0  0.11683122136E+03 -0.87664921089E+01  0.60947320422E+03  0.62063191372E+03  0.00000000000E+00 0.  1.
          2    1    1    2  501    0  0.32117272808E+02  0.66123934356E+02 -0.52538152613E+03  0.53049942688E+03  0.25500000000E-02 0. -1.
<mgrwt>
<rscale>  0 0.73511182E+02</rscale>
<asrwt>0</asrwt>
<pdfrwt beam="1">  1       11 0.10000000E+01 0.12513708E+03</pdfrwt>
<pdfrwt beam="2">  1        2 0.84650183E-01 0.73511182E+02</pdfrwt>
<totfact> 0.71285272E+01</totfact>
</mgrwt>
</event>
<event>
 5    1  0.2226716E-003  0.2768386E+03  0.7818608E-02  0.1713783E+00
         11   -1    0    0    0    0  0.00000000000E+00  0.00000000000E+00  0.10003717992E+04  0.10003717992E+04  0.51100000000E-03 0.  1.
          2   -1    0    0  501    0 -0.00000000000E+00 -0.00000000000E+00 -0.25323594917E+03  0.25323594918E+03  0.25500000000E-02 0.  1.
         11    1    1    2    0    0 -0.30812234315E+02  0.29169983340E+03 -0.28722631690E+01  0.29333672884E+03  0.51100000000E-03 0.  1.
         22    1    1    2    0    0  0.39006360699E+02 -0.27162418693E+03  0.83167396837E+03  0.87577553332E+03  0.00000000000E+00 0.  1.
          2    1    1    2  501    0 -0.81941263846E+01 -0.20075646478E+02 -0.81665855155E+02  0.84495486231E+02  0.25500000000E-02 0.  1.
<mgrwt>
<rscale>  0 0.21683526E+02</rscale>
<asrwt>0</asrwt>
<pdfrwt beam="1">  1       11 0.10000000E+01 0.27683856E+03</pdfrwt>
<pdfrwt beam="2">  1        2 0.38973861E-01 0.21683526E+02</pdfrwt>
<totfact> 0.15660431E+02</totfact>
</mgrwt>
</event>
<event>
 5    1  0.2226716E-003  0.5038798E+03  0.7818608E-02  0.1012771E+00
         11   -1    0    0    0    0  0.00000000000E+00  0.00000000000E+00  0.10004679749E+04  0.10004679749E+04  0.51100000000E-03 0. -1.
          2   -1    0    0  501    0 -0.00000000000E+00 -0.00000000000E+00 -0.25409612771E+04  0.25409612771E+04  0.25500000000E-02 0. -1.
         11    1    1    2    0    0 -0.13428895975E+03 -0.46498750069E+03  0.83771290254E+03  0.96747599846E+03  0.51100000000E-03 0. -1.
         22    1    1    2    0    0  0.37328586651E+02 -0.30107074628E+02  0.64117245312E+02  0.80067974062E+02  0.00000000000E+00 0. -1.
          2    1    1    2  501    0  0.96960373097E+02  0.49509457532E+03 -0.24423234501E+04  0.24938852795E+04  0.25500000000E-02 0. -1.
<mgrwt>
<rscale>  0 0.50387982E+03</rscale>
<asrwt>0</asrwt>
<pdfrwt beam="1">  1       11 0.10000000E+01 0.47956849E+02</pdfrwt>
<pdfrwt beam="2">  1        2 0.39110005E+00 0.50387982E+03</pdfrwt>
<totfact> 0.44289120E+00</totfact>
</mgrwt>
</event>
<event>
 5    1  0.2226716E-003  0.3414240E+03  0.7818608E-02  0.1066191E+00
         11   -1    0    0    0    0  0.00000000000E+00  0.00000000000E+00  0.10002032732E+04  0.10002032732E+04  0.51100000000E-03 0. -1.
         -2   -1    0    0    0  501 -0.00000000000E+00 -0.00000000000E+00 -0.12378986392E+03  0.12378986395E+03  0.25500000000E-02 0.  1.
         11    1    1    2    0    0  0.32125787763E+03 -0.21476496680E+02  0.61427748076E+03  0.69354501456E+03  0.51100000000E-03 0. -1.
         22    1    1    2    0    0 -0.50296412769E+02  0.41438148624E+02  0.80761529571E+02  0.10377511242E+03  0.00000000000E+00 0. -1.
         -2    1    1    2    0  501 -0.27096146486E+03 -0.19961651944E+02  0.18137439898E+03  0.32667301021E+03  0.25500000000E-02 0.  1.
<mgrwt>
<rscale>  0 0.34142399E+03</rscale>
<asrwt>0</asrwt>
<pdfrwt beam="1">  1       11 0.10000000E+01 0.32197494E+03</pdfrwt>
<pdfrwt beam="2">  1       -2 0.19048465E-01 0.34142399E+03</pdfrwt>
<totfact> 0.18464139E+02</totfact>
</mgrwt>
</event>
<event>
 5    1  0.2226716E-003  0.2430315E+03  0.7818608E-02  0.1121890E+00
         11   -1    0    0    0    0  0.00000000000E+00  0.00000000000E+00  0.10002979759E+04  0.10002979759E+04  0.51100000000E-03 0. -1.
         -2   -1    0    0    0  501 -0.00000000000E+00 -0.00000000000E+00 -0.36541057524E+03  0.36541057525E+03  0.25500000000E-02 0. -1.
         11    1    1    2    0    0  0.23706600296E+03 -0.82672490520E+02 -0.90330243129E+02  0.26682313106E+03  0.51100000000E-03 0. -1.
         22    1    1    2    0    0 -0.15307762407E+03 -0.18876322849E+03  0.77340918953E+03  0.81069481919E+03  0.00000000000E+00 0. -1.
         -2    1    1    2    0  501 -0.83988378891E+02  0.27143571901E+03 -0.48191545753E+02  0.28819060088E+03  0.25500000000E-02 0. -1.
<mgrwt>
<rscale>  0 0.23687820E+03</rscale>
<asrwt>0</asrwt>
<pdfrwt beam="1">  1       11 0.10000000E+01 0.24303151E+03</pdfrwt>
<pdfrwt beam="2">  1       -2 0.56233761E-01 0.23687820E+03</pdfrwt>
<totfact> 0.24541106E+01</totfact>
</mgrwt>
</event>
<event>
 5    1  0.2226716E-003  0.1564484E+03  0.7818608E-02  0.1701102E+00
         11   -1    0    0    0    0  0.00000000000E+00  0.00000000000E+00  0.10001809505E+04  0.10001809505E+04  0.51100000000E-03 0.  1.
          2   -1    0    0  501    0 -0.00000000000E+00 -0.00000000000E+00 -0.45249330207E+02  0.45249330279E+02  0.25500000000E-02 0.  1.
         11    1    1    2    0    0  0.15668910847E+03  0.29035285105E+02  0.64469512558E+03  0.66409813239E+03  0.51100000000E-03 0.  1.
         22    1    1    2    0    0 -0.15207915723E+03 -0.70951800274E+01  0.32188050234E+03  0.35606947275E+03  0.00000000000E+00 0.  1.
          2    1    1    2  501    0 -0.46099512451E+01 -0.21940105078E+02 -0.11644007610E+02  0.25262675651E+02  0.25500000000E-02 0.  1.
<mgrwt>
<rscale>  0 0.22419185E+02</rscale>
<asrwt>0</asrwt>
<pdfrwt beam="1">  1       11 0.10000000E+01 0.15644844E+03</pdfrwt>
<pdfrwt beam="2">  1        2 0.69626949E-02 0.22419185E+02</pdfrwt>
<totfact> 0.10164482E+03</totfact>
</mgrwt>
</event>
<event>
 5    1  0.2226716E-003  0.1574425E+03  0.7818608E-02  0.1191615E+00
         11   -1    0    0    0    0  0.00000000000E+00  0.00000000000E+00  0.10003131673E+04  0.10003131673E+04  0.51100000000E-03 0. -1.
          2   -1    0    0  501    0 -0.00000000000E+00 -0.00000000000E+00 -0.38096681992E+03  0.38096681992E+03  0.25500000000E-02 0.  1.
         11    1    1    2    0    0 -0.16998401958E+03  0.96476945252E+01  0.39607996767E+03  0.43112293573E+03  0.51100000000E-03 0. -1.
         22    1    1    2    0    0  0.35746124417E+02 -0.93282305474E+02  0.56491282406E+03  0.57367749887E+03  0.00000000000E+00 0. -1.
          2    1    1    2  501    0  0.13423789517E+03  0.83634610949E+02 -0.34164644431E+03  0.37647955265E+03  0.25500000000E-02 0.  1.
<mgrwt>
<rscale>  0 0.15744254E+03</rscale>
<asrwt>0</asrwt>
<pdfrwt beam="1">  1       11 0.10000000E+01 0.99896816E+02</pdfrwt>
<pdfrwt beam="2">  1        2 0.58628633E-01 0.15744254E+03</pdfrwt>
<totfact> 0.10498838E+02</totfact>
</mgrwt>
</event>
<event>
 5    1  0.2226716E-003  0.9970926E+02  0.7818608E-02  0.1280909E+00
         11   -1    0    0    0    0  0.00000000000E+00  0.00000000000E+00  0.99988443237E+03  0.99988443237E+03  0.51100000000E-03 0. -1.
         -2   -1    0    0    0  501 -0.00000000000E+00 -0.00000000000E+00 -0.24874848373E+03  0.24874848374E+03  0.25500000000E-02 0.  1.
         11    1    1    2    0    0  0.71401964655E+02  0.17183563859E+03  0.84631083374E+03  0.86652625728E+03  0.51100000000E-03 0. -1.
         22    1    1    2    0    0 -0.41345446646E+02 -0.77904774407E+02  0.11794488011E+03  0.14727387609E+03  0.00000000000E+00 0. -1.
         -2    1    1    2    0  501 -0.30056518009E+02 -0.93930864184E+02 -0.21311976521E+03  0.23483278274E+03  0.25500000000E-02 0.  1.
<mgrwt>
<rscale>  0 0.99709262E+02</rscale>
<asrwt>0</asrwt>
<pdfrwt beam="1">  1       11 0.10000000E+01 0.88196371E+02</pdfrwt>
<pdfrwt beam="2">  1       -2 0.38264574E-01 0.99709262E+02</pdfrwt>
<totfact> 0.52021269E+01</totfact>
</mgrwt>
</event>
<event>
 5    1  0.2226716E-003  0.6358578E+02  0.7818608E-02  0.1383372E+00
         11   -1    0    0    0    0  0.00000000000E+00  0.00000000000E+00  0.10004995725E+04  0.10004995725E+04  0.51100000000E-03 0. -1.
          2   -1    0    0  501    0 -0.00000000000E+00 -0.00000000000E+00 -0.19971844674E+02  0.19971844837E+02  0.25500000000E-02 0. -1.
         11    1    1    2    0    0 -0.29556508352E+02  0.10101841560E+03  0.62858644836E+03  0.63733761111E+03  0.51100000000E-03 0. -1.
         22    1    1    2    0    0 -0.84683743206E+01 -0.54816364691E+02  0.29622446947E+03  0.30137266550E+03  0.00000000000E+00 0. -1.
          2    1    1    2  501    0  0.38024882672E+02 -0.46202050912E+02  0.55716810030E+02  0.81761140752E+02  0.25500000000E-02 0. -1.
<mgrwt>
<rscale>  0 0.63585779E+02</rscale>
<asrwt>0</asrwt>
<pdfrwt beam="1">  1       11 0.10000000E+01 0.55466631E+02</pdfrwt>
<pdfrwt beam="2">  1        2 0.30741264E-02 0.63585779E+02</pdfrwt>
<totfact> 0.32099351E+03</totfact>
</mgrwt>
</event>
<event>
 5    1  0.2226716E-003  0.1000661E+03  0.7818608E-02  0.1375188E+00
         11   -1    0    0    0    0  0.00000000000E+00  0.00000000000E+00  0.99997194041E+03  0.99997194041E+03  0.51100000000E-03 0.  1.
          2   -1    0    0  501    0 -0.00000000000E+00 -0.00000000000E+00 -0.28509333762E+02  0.28509333876E+02  0.25500000000E-02 0.  1.
         11    1    1    2    0    0 -0.50476668655E+02 -0.10923523495E+03  0.36558343482E+03  0.38487852428E+03  0.51100000000E-03 0.  1.
         22    1    1    2    0    0 -0.13897378422E+02  0.40899818822E+02  0.15634858876E+02  0.45938884605E+02  0.00000000000E+00 0. -1.
          2    1    1    2  501    0  0.64374047077E+02  0.68335416126E+02  0.59024431295E+03  0.59766386541E+03  0.25500000000E-02 0.  1.
<mgrwt>
<rscale>  0 0.65745705E+02</rscale>
<asrwt>0</asrwt>
<pdfrwt beam="1">  1       11 0.10000000E+01 0.10006612E+03</pdfrwt>
<pdfrwt beam="2">  1        2 0.43859282E-02 0.65745705E+02</pdfrwt>
<totfact> 0.20303344E+03</totfact>
</mgrwt>
</event>
<event>
 5    1  0.2226716E-003  0.3962027E+03  0.7818608E-02  0.1201300E+00
         11   -1    0    0    0    0  0.00000000000E+00  0.00000000000E+00  0.99976678874E+03  0.99976678874E+03  0.51100000000E-03 0.  1.
          2   -1    0    0  501    0 -0.00000000000E+00 -0.00000000000E+00 -0.52507131734E+03  0.52507131735E+03  0.25500000000E-02 0.  1.
         11    1    1    2    0    0 -0.34041672414E+03 -0.20815443702E+03  0.84818288283E+03  0.93735053126E+03  0.51100000000E-03 0.  1.
         22    1    1    2    0    0  0.28771726257E+01  0.56208282931E+02  0.69189050058E+01  0.56705559153E+02  0.00000000000E+00 0. -1.
          2    1    1    2  501    0  0.33753955151E+03  0.15194615409E+03 -0.38040631644E+03  0.53078201568E+03  0.25500000000E-02 0.  1.
<mgrwt>
<rscale>  0 0.14932860E+03</rscale>
<asrwt>0</asrwt>
<pdfrwt beam="1">  1       11 0.10000000E+01 0.39620272E+03</pdfrwt>
<pdfrwt beam="2">  1        2 0.80761362E-01 0.14932860E+03</pdfrwt>
<totfact> 0.74152132E+01</totfact>
</mgrwt>
</event>
<event>
 5    1  0.2226716E-003  0.1033151E+03  0.7818608E-02  0.1305002E+00
         11   -1    0    0    0    0  0.00000000000E+00  0.00000000000E+00  0.99992831490E+03  0.99992831490E+03  0.51100000000E-03 0.  1.
          2   -1    0    0  501    0 -0.00000000000E+00 -0.00000000000E+00 -0.22769978712E+02  0.22769978855E+02  0.25500000000E-02 0.  1.
         11    1    1    2    0    0 -0.95918133060E+02 -0.66944611659E+02  0.46082781020E+03  0.47544099522E+03  0.51100000000E-03 0.  1.
         22    1    1    2    0    0  0.69761227163E+02 -0.32288982785E+02  0.18308386402E+03  0.19856713849E+03  0.00000000000E+00 0.  1.
          2    1    1    2  501    0  0.26156905897E+02  0.99233594444E+02  0.33324666197E+03  0.34869016004E+03  0.25500000000E-02 0.  1.
<mgrwt>
<rscale>  0 0.89117769E+02</rscale>
<asrwt>0</asrwt>
<pdfrwt beam="1">  1       11 0.10000000E+01 0.10331515E+03</pdfrwt>
<pdfrwt beam="2">  1        2 0.35028224E-02 0.89117769E+02</pdfrwt>
<totfact> 0.28098854E+03</totfact>
</mgrwt>
</event>
<event>
 5    1  0.2226716E-003  0.2916781E+03  0.7818608E-02  0.1089476E+00
         11   -1    0    0    0    0  0.00000000000E+00  0.00000000000E+00  0.10001474689E+04  0.10001474689E+04  0.51100000000E-03 0. -1.
         -2   -1    0    0    0  501 -0.00000000000E+00 -0.00000000000E+00 -0.13505760640E+03  0.13505760643E+03  0.25500000000E-02 0.  1.
         11    1    1    2    0    0  0.17039000009E+03  0.24658146424E+03  0.69234325550E+03  0.75443644801E+03  0.51100000000E-03 0. -1.
         22    1    1    2    0    0 -0.12933399494E+02 -0.37019579930E+01  0.73579847968E+02  0.74799541058E+02  0.00000000000E+00 0.  1.
         -2    1    1    2    0  501 -0.15745660060E+03 -0.24287950625E+03  0.99166758983E+02  0.30596908622E+03  0.25500000000E-02 0.  1.
<mgrwt>
<rscale>  0 0.29167809E+03</rscale>
<asrwt>0</asrwt>
<pdfrwt beam="1">  1       11 0.10000000E+01 0.13452781E+02</pdfrwt>
<pdfrwt beam="2">  1       -2 0.20781157E-01 0.29167809E+03</pdfrwt>
<totfact> 0.15831989E+02</totfact>
</mgrwt>
</event>
<event>
 5    1  0.2226716E-003  0.1583691E+03  0.7818608E-02  0.1190550E+00
         11   -1    0    0    0    0  0.00000000000E+00  0.00000000000E+00  0.10004636615E+04  0.10004636615E+04  0.51100000000E-03 0.  1.
          2   -1    0    0  501    0 -0.00000000000E+00 -0.00000000000E+00 -0.23819526566E+03  0.23819526567E+03  0.25500000000E-02 0.  1.
         11    1    1    2    0    0 -0.32160177054E+02  0.22383486276E+03  0.71107015492E+03  0.74616156964E+03  0.51100000000E-03 0.  1.
         22    1    1    2    0    0 -0.45701682300E+02 -0.88336953587E+02  0.23265434786E+03  0.25302194907E+03  0.00000000000E+00 0.  1.
          2    1    1    2  501    0  0.77861859354E+02 -0.13549790918E+03 -0.18145610691E+03  0.23947540849E+03  0.25500000000E-02 0.  1.
<mgrwt>
<rscale>  0 0.15836912E+03</rscale>
<asrwt>0</asrwt>
<pdfrwt beam="1">  1       11 0.10000000E+01 0.99458841E+02</pdfrwt>
<pdfrwt beam="2">  1        2 0.36662416E-01 0.15836912E+03</pdfrwt>
<totfact> 0.17328681E+02</totfact>
</mgrwt>
</event>
<event>
 5    1  0.2226716E-003  0.2938744E+03  0.7818608E-02  0.1088343E+00
         11   -1    0    0    0    0  0.00000000000E+00  0.00000000000E+00  0.10005142873E+04  0.10005142873E+04  0.51100000000E-03 0. -1.
          2   -1    0    0  501    0 -0.00000000000E+00 -0.00000000000E+00 -0.87144253154E+03  0.87144253154E+03  0.25500000000E-02 0. -1.
         11    1    1    2    0    0 -0.25060244779E+03  0.11069760317E+03  0.85650553831E+03  0.89925373691E+03  0.51100000000E-03 0. -1.
         22    1    1    2    0    0 -0.43339074786E+02 -0.14213951325E+03  0.36968551985E+02  0.15312932595E+03  0.00000000000E+00 0.  1.
          2    1    1    2  501    0  0.29394152257E+03  0.31441910079E+02 -0.76440233455E+03  0.81957375597E+03  0.25500000000E-02 0. -1.
<mgrwt>
<rscale>  0 0.29387443E+03</rscale>
<asrwt>0</asrwt>
<pdfrwt beam="1">  1       11 0.10000000E+01 0.14859985E+03</pdfrwt>
<pdfrwt beam="2">  1        2 0.13413703E+00 0.29387443E+03</pdfrwt>
<totfact> 0.39495884E+01</totfact>
</mgrwt>
</event>
<event>
 5    1  0.2226716E-003  0.2687802E+03  0.7818608E-02  0.1262456E+00
         11   -1    0    0    0    0  0.00000000000E+00  0.00000000000E+00  0.10002530443E+04  0.10002530443E+04  0.51100000000E-03 0.  1.
          2   -1    0    0  501    0 -0.00000000000E+00 -0.00000000000E+00 -0.16530335415E+03  0.16530335417E+03  0.25500000000E-02 0.  1.
         11    1    1    2    0    0  0.75123714401E+02  0.20420679233E+03  0.65156598163E+01  0.21768426752E+03  0.51100000000E-03 0.  1.
         22    1    1    2    0    0 -0.18719465626E+02 -0.29746373332E+03  0.36219065547E+03  0.46905987032E+03  0.00000000000E+00 0. -1.
          2    1    1    2  501    0 -0.56404248775E+02  0.93256940984E+02  0.46624337483E+03  0.47881226060E+03  0.25500000000E-02 0.  1.
<mgrwt>
<rscale>  0 0.10898760E+03</rscale>
<asrwt>0</asrwt>
<pdfrwt beam="1">  1       11 0.10000000E+01 0.26878015E+03</pdfrwt>
<pdfrwt beam="2">  1        2 0.25437720E-01 0.10898760E+03</pdfrwt>
<totfact> 0.25547610E+02</totfact>
</mgrwt>
</event>
<event>
 5    1  0.2226716E-003  0.2033544E+03  0.7818608E-02  0.1146939E+00
         11   -1    0    0    0    0  0.00000000000E+00  0.00000000000E+00  0.10010187424E+04  0.10010187424E+04  0.51100000000E-03 0.  1.
          2   -1    0    0  501    0 -0.00000000000E+00 -0.00000000000E+00 -0.11624113995E+04  0.11624113995E+04  0.25500000000E-02 0.  1.
         11    1    1    2    0    0  0.20364456391E+03  0.12521402534E+03  0.92916416672E+03  0.95942467618E+03  0.51100000000E-03 0.  1.
         22    1    1    2    0    0 -0.30966336462E+02 -0.18460002299E+02  0.40876606712E+02  0.54503051796E+02  0.00000000000E+00 0.  1.
          2    1    1    2  501    0 -0.17267822744E+03 -0.10675402304E+03 -0.11314334306E+04  0.11495024138E+04  0.25500000000E-02 0.  1.
<mgrwt>
<rscale>  0 0.20335439E+03</rscale>
<asrwt>0</asrwt>
<pdfrwt beam="1">  1       11 0.10000000E+01 0.36051154E+02</pdfrwt>
<pdfrwt beam="2">  1        2 0.17901470E+00 0.20335439E+03</pdfrwt>
<totfact> 0.26693203E+01</totfact>
</mgrwt>
</event>
<event>
 5    1  0.2226716E-003  0.1124099E+03  0.7818608E-02  0.1529664E+00
         11   -1    0    0    0    0  0.00000000000E+00  0.00000000000E+00  0.10009663335E+04  0.10009663335E+04  0.51100000000E-03 0.  1.
          2   -1    0    0  501    0 -0.00000000000E+00 -0.00000000000E+00 -0.11298786643E+04  0.11298786643E+04  0.25500000000E-02 0.  1.
         11    1    1    2    0    0  0.35042261531E+02  0.85752378572E+02  0.30318906357E+03  0.31702529677E+03  0.51100000000E-03 0.  1.
         22    1    1    2    0    0 -0.49632981068E+02 -0.12000153139E+03  0.68444371547E+03  0.69665414661E+03  0.00000000000E+00 0.  1.
          2    1    1    2  501    0  0.14590719538E+02  0.34249152816E+02 -0.11165451099E+04  0.11171655544E+04  0.25500000000E-02 0.  1.
<mgrwt>
<rscale>  0 0.37227592E+02</rscale>
<asrwt>0</asrwt>
<pdfrwt beam="1">  1       11 0.10000000E+01 0.11240987E+03</pdfrwt>
<pdfrwt beam="2">  1        2 0.17399546E+00 0.37227592E+02</pdfrwt>
<totfact> 0.30842888E+01</totfact>
</mgrwt>
</event>
<event>
 5    1  0.2226716E-003  0.1034124E+03  0.7818608E-02  0.1321950E+00
         11   -1    0    0    0    0  0.00000000000E+00  0.00000000000E+00  0.10002082675E+04  0.10002082675E+04  0.51100000000E-03 0.  1.
          2   -1    0    0  501    0 -0.00000000000E+00 -0.00000000000E+00 -0.42314651163E+02  0.42314651240E+02  0.25500000000E-02 0.  1.
         11    1    1    2    0    0  0.60393325195E+02  0.87424909278E+02  0.43404141230E+03  0.44685838482E+03  0.51100000000E-03 0.  1.
         22    1    1    2    0    0  0.17362658972E+02 -0.11516548787E+03  0.49452387506E+03  0.50805355478E+03  0.00000000000E+00 0. -1.
          2    1    1    2  501    0 -0.77755984167E+02  0.27740578593E+02  0.29328328940E+02  0.87610979102E+02  0.25500000000E-02 0.  1.
<mgrwt>
<rscale>  0 0.82556240E+02</rscale>
<asrwt>0</asrwt>
<pdfrwt beam="1">  1       11 0.10000000E+01 0.10341241E+03</pdfrwt>
<pdfrwt beam="2">  1        2 0.65113020E-02 0.82556240E+02</pdfrwt>
<totfact> 0.12535645E+03</totfact>
</mgrwt>
</event>
<event>
 5    1  0.2226716E-003  0.2040927E+03  0.7818608E-02  0.1146331E+00
         11   -1    0    0    0    0  0.00000000000E+00  0.00000000000E+00  0.10002340654E+04  0.10002340654E+04  0.51100000000E-03 0. -1.
          2   -1    0    0  501    0 -0.00000000000E+00 -0.00000000000E+00 -0.46019664748E+02  0.46019664818E+02  0.25500000000E-02 0. -1.
         11    1    1    2    0    0 -0.17639865942E+02 -0.20489954634E+03  0.37446334757E+03  0.42722100561E+03  0.51100000000E-03 0. -1.
         22    1    1    2    0    0 -0.11223125221E+02  0.47803059420E+01  0.62282814736E+02  0.63466202628E+02  0.00000000000E+00 0. -1.
          2    1    1    2  501    0  0.28862991163E+02  0.20011924040E+03  0.51746823835E+03  0.55556652198E+03  0.25500000000E-02 0. -1.
<mgrwt>
<rscale>  0 0.20409265E+03</rscale>
<asrwt>0</asrwt>
<pdfrwt beam="1">  1       11 0.10000000E+01 0.12198765E+02</pdfrwt>
<pdfrwt beam="2">  1        2 0.70816054E-02 0.20409265E+03</pdfrwt>
<totfact> 0.12022114E+03</totfact>
</mgrwt>
</event>
<event>
 5    1  0.2226716E-003  0.1766375E+03  0.7818608E-02  0.1530010E+00
         11   -1    0    0    0    0  0.00000000000E+00  0.00000000000E+00  0.10003242110E+04  0.10003242110E+04  0.51100000000E-03 0. -1.
          2   -1    0    0  501    0 -0.00000000000E+00 -0.00000000000E+00 -0.14175178543E+03  0.14175178545E+03  0.25500000000E-02 0.  1.
         11    1    1    2    0    0  0.17305285156E+02 -0.16272904646E+03  0.42148391389E+03  0.45213814828E+03  0.51100000000E-03 0. -1.
         22    1    1    2    0    0  0.65298492075E+01  0.19127068388E+03  0.54403248838E+03  0.57671350067E+03  0.00000000000E+00 0. -1.
          2    1    1    2  501    0 -0.23835134363E+02 -0.28541637426E+02 -0.10694397673E+03  0.11322434748E+03  0.25500000000E-02 0.  1.
<mgrwt>
<rscale>  0 0.37185195E+02</rscale>
<asrwt>0</asrwt>
<pdfrwt beam="1">  1       11 0.10000000E+01 0.17663751E+03</pdfrwt>
<pdfrwt beam="2">  1        2 0.21815037E-01 0.37185195E+02</pdfrwt>
<totfact> 0.29016786E+02</totfact>
</mgrwt>
</event>
<event>
 5    1  0.2226716E-003  0.1584033E+03  0.7818608E-02  0.1190511E+00
         11   -1    0    0    0    0  0.00000000000E+00  0.00000000000E+00  0.99963182282E+03  0.99963182282E+03  0.51100000000E-03 0. -1.
          2   -1    0    0  501    0 -0.00000000000E+00 -0.00000000000E+00 -0.20284777904E+04  0.20284777904E+04  0.25500000000E-02 0.  1.
         11    1    1    2    0    0  0.14099041414E+03 -0.10428037501E+03  0.35885562617E+03  0.39941213543E+03  0.51100000000E-03 0. -1.
         22    1    1    2    0    0 -0.10292100838E+03 -0.49676427262E+02  0.61206965777E+03  0.62264736999E+03  0.00000000000E+00 0. -1.
          2    1    1    2  501    0 -0.38069405759E+02  0.15395680227E+03 -0.19997712515E+04  0.20060501078E+04  0.25500000000E-02 0.  1.
<mgrwt>
<rscale>  0 0.15840326E+03</rscale>
<asrwt>0</asrwt>
<pdfrwt beam="1">  1       11 0.10000000E+01 0.11428246E+03</pdfrwt>
<pdfrwt beam="2">  1        2 0.31195860E+00 0.15840326E+03</pdfrwt>
<totfact> 0.95119172E+00</totfact>
</mgrwt>
</event>
<event>
 5    1  0.2226716E-003  0.1681121E+03  0.7818608E-02  0.1179831E+00
         11   -1    0    0    0    0  0.00000000000E+00  0.00000000000E+00  0.10005891916E+04  0.10005891916E+04  0.51100000000E-03 0. -1.
          2   -1    0    0  501    0 -0.00000000000E+00 -0.00000000000E+00 -0.10264652657E+03  0.10264652661E+03  0.25500000000E-02 0. -1.
         11    1    1    2    0    0  0.49080453752E+01 -0.67538194745E+02  0.32950103862E+03  0.33638732305E+03  0.51100000000E-03 0. -1.
         22    1    1    2    0    0  0.14121314917E+03 -0.25018296446E+02  0.57612804080E+03  0.59370917800E+03  0.00000000000E+00 0. -1.
          2    1    1    2  501    0 -0.14612119454E+03  0.92556491191E+02 -0.76864143534E+01  0.17313921719E+03  0.25500000000E-02 0. -1.
<mgrwt>
<rscale>  0 0.16811210E+03</rscale>
<asrwt>0</asrwt>
<pdfrwt beam="1">  1       11 0.10000000E+01 0.67716295E+02</pdfrwt>
<pdfrwt beam="2">  1        2 0.15801077E-01 0.16811210E+03</pdfrwt>
<totfact> 0.44397262E+02</totfact>
</mgrwt>
</event>
<event>
 5    1  0.2226716E-003  0.5300469E+03  0.7818608E-02  0.1006221E+00
         11   -1    0    0    0    0  0.00000000000E+00  0.00000000000E+00  0.10002237475E+04  0.10002237475E+04  0.51100000000E-03 0.  1.
          2   -1    0    0  501    0 -0.00000000000E+00 -0.00000000000E+00 -0.39105234077E+03  0.39105234078E+03  0.25500000000E-02 0.  1.
         11    1    1    2    0    0 -0.21972996324E+03 -0.47226713039E+03  0.67994026070E+03  0.85652568981E+03  0.51100000000E-03 0.  1.
         22    1    1    2    0    0  0.57799100519E+01  0.10373827749E+03 -0.12215582321E+02  0.10461480788E+03  0.00000000000E+00 0. -1.
          2    1    1    2  501    0  0.21395005318E+03  0.36852885290E+03 -0.58553271631E+02  0.43013559060E+03  0.25500000000E-02 0.  1.
<mgrwt>
<rscale>  0 0.53004694E+03</rscale>
<asrwt>0</asrwt>
<pdfrwt beam="1">  1       11 0.10000000E+01 0.52088146E+03</pdfrwt>
<pdfrwt beam="2">  1        2 0.60175358E-01 0.53004694E+03</pdfrwt>
<totfact> 0.10118906E+02</totfact>
</mgrwt>
</event>
<event>
 5    1  0.2226716E-003  0.1284403E+03  0.7818608E-02  0.1229789E+00
         11   -1    0    0    0    0  0.00000000000E+00  0.00000000000E+00  0.10001897983E+04  0.10001897983E+04  0.51100000000E-03 0. -1.
          2   -1    0    0  501    0 -0.00000000000E+00 -0.00000000000E+00 -0.45957935108E+03  0.45957935109E+03  0.25500000000E-02 0. -1.
         11    1    1    2    0    0  0.38299655633E+02  0.11460454947E+03  0.62357159770E+03  0.63517131849E+03  0.51100000000E-03 0. -1.
         22    1    1    2    0    0  0.59768639693E+02 -0.31102097798E+02  0.35847631261E+03  0.36475320078E+03  0.00000000000E+00 0. -1.
          2    1    1    2  501    0 -0.98068295326E+02 -0.83502451670E+02 -0.44143746311E+03  0.45984463009E+03  0.25500000000E-02 0. -1.
<mgrwt>
<rscale>  0 0.12844025E+03</rscale>
<asrwt>0</asrwt>
<pdfrwt beam="1">  1       11 0.10000000E+01 0.67376782E+02</pdfrwt>
<pdfrwt beam="2">  1        2 0.70717933E-01 0.12844025E+03</pdfrwt>
<totfact> 0.85954373E+01</totfact>
</mgrwt>
</event>
<event>
 5    1  0.2226716E-003  0.1484980E+03  0.7818608E-02  0.1741325E+00
         11   -1    0    0    0    0  0.00000000000E+00  0.00000000000E+00  0.10004826612E+04  0.10004826612E+04  0.51100000000E-03 0. -1.
         -2   -1    0    0    0  501 -0.00000000000E+00 -0.00000000000E+00 -0.49663710703E+02  0.49663710768E+02  0.25500000000E-02 0.  1.
         11    1    1    2    0    0  0.14530359572E+03  0.62693727825E+02  0.40636181027E+03  0.43608893506E+03  0.51100000000E-03 0. -1.
         22    1    1    2    0    0 -0.12576535287E+03 -0.67832714620E+02  0.56644928204E+03  0.58419430866E+03  0.00000000000E+00 0. -1.
         -2    1    1    2    0  501 -0.19538242850E+02  0.51389867948E+01 -0.21992141824E+02  0.29863128227E+02  0.25500000000E-02 0.  1.
<mgrwt>
<rscale>  0 0.20202775E+02</rscale>
<asrwt>0</asrwt>
<pdfrwt beam="1">  1       11 0.10000000E+01 0.14849797E+03</pdfrwt>
<pdfrwt beam="2">  1       -2 0.76442585E-02 0.20202775E+02</pdfrwt>
<totfact> 0.64687040E+02</totfact>
</mgrwt>
</event>
<event>
 5    1  0.2226716E-003  0.2143913E+03  0.7818608E-02  0.1347293E+00
         11   -1    0    0    0    0  0.00000000000E+00  0.00000000000E+00  0.10004543595E+04  0.10004543595E+04  0.51100000000E-03 0.  1.
         -2   -1    0    0    0  501 -0.00000000000E+00 -0.00000000000E+00 -0.11405782381E+03  0.11405782383E+03  0.25500000000E-02 0.  1.
         11    1    1    2    0    0  0.11869849863E+03  0.18748743498E+03  0.50800505311E+03  0.55435548688E+03  0.51100000000E-03 0.  1.
         22    1    1    2    0    0 -0.16708769630E+03 -0.13162533628E+03  0.42325725718E+03  0.47369846228E+03  0.00000000000E+00 0.  1.
         -2    1    1    2    0  501  0.48389197673E+02 -0.55862098702E+02 -0.44865774584E+02  0.86458234185E+02  0.25500000000E-02 0.  1.
<mgrwt>
<rscale>  0 0.73905944E+02</rscale>
<asrwt>0</asrwt>
<pdfrwt beam="1">  1       11 0.10000000E+01 0.21439131E+03</pdfrwt>
<pdfrwt beam="2">  1       -2 0.17555330E-01 0.73905944E+02</pdfrwt>
<totfact> 0.20043296E+02</totfact>
</mgrwt>
</event>
<event>
 5    1  0.2226716E-003  0.4062968E+03  0.7818608E-02  0.1041621E+00
         11   -1    0    0    0    0  0.00000000000E+00  0.00000000000E+00  0.99994923009E+03  0.99994923009E+03  0.51100000000E-03 0. -1.
         -2   -1    0    0    0  501 -0.00000000000E+00 -0.00000000000E+00 -0.30164971877E+03  0.30164971878E+03  0.25500000000E-02 0.  1.
         11    1    1    2    0    0  0.29254350715E+03  0.33834642783E+03  0.50180033237E+03  0.67220799041E+03  0.51100000000E-03 0. -1.
         22    1    1    2    0    0 -0.13233973011E+02 -0.60692295621E+02  0.22606887573E+03  0.23444792463E+03  0.00000000000E+00 0.  1.
         -2    1    1    2    0  501 -0.27930953414E+03 -0.27765413221E+03 -0.29569696782E+02  0.39494303383E+03  0.25500000000E-02 0.  1.
<mgrwt>
<rscale>  0 0.40629682E+03</rscale>
<asrwt>0</asrwt>
<pdfrwt beam="1">  1       11 0.10000000E+01 0.62118377E+02</pdfrwt>
<pdfrwt beam="2">  1       -2 0.46405292E-01 0.40629682E+03</pdfrwt>
<totfact> 0.36010908E+01</totfact>
</mgrwt>
</event>
<event>
 5    1  0.2226716E-003  0.1898614E+03  0.7818608E-02  0.1158586E+00
         11   -1    0    0    0    0  0.00000000000E+00  0.00000000000E+00  0.10003189410E+04  0.10003189410E+04  0.51100000000E-03 0.  1.
          2   -1    0    0  501    0 -0.00000000000E+00 -0.00000000000E+00 -0.18162560535E+03  0.18162560536E+03  0.25500000000E-02 0.  1.
         11    1    1    2    0    0 -0.20628503897E+03 -0.87930286317E+02  0.40457069346E+03  0.46256102145E+03  0.51100000000E-03 0.  1.
         22    1    1    2    0    0  0.15524470211E+03 -0.10171537859E+03  0.47807621876E+03  0.51283896763E+03  0.00000000000E+00 0. -1.
          2    1    1    2  501    0  0.51040336869E+02  0.18964566491E+03 -0.63953576524E+02  0.20654455733E+03  0.25500000000E-02 0.  1.
<mgrwt>
<rscale>  0 0.18986139E+03</rscale>
<asrwt>0</asrwt>
<pdfrwt beam="1">  1       11 0.10000000E+01 0.18559886E+03</pdfrwt>
<pdfrwt beam="2">  1        2 0.27951312E-01 0.18986139E+03</pdfrwt>
<totfact> 0.23330753E+02</totfact>
</mgrwt>
</event>
<event>
 5    1  0.2226716E-003  0.1209085E+03  0.7818608E-02  0.1415863E+00
         11   -1    0    0    0    0  0.00000000000E+00  0.00000000000E+00  0.10001243248E+04  0.10001243248E+04  0.51100000000E-03 0. -1.
          2   -1    0    0  501    0 -0.00000000000E+00 -0.00000000000E+00 -0.41892413277E+02  0.41892413355E+02  0.25500000000E-02 0. -1.
         11    1    1    2    0    0  0.41960005087E+02 -0.80328180995E+02  0.14726552460E+03  0.17291730227E+03  0.51100000000E-03 0. -1.
         22    1    1    2    0    0 -0.24721432188E+02  0.13350990003E+03  0.80085855683E+03  0.81228718484E+03  0.00000000000E+00 0. -1.
          2    1    1    2  501    0 -0.17238572899E+02 -0.53181719037E+02  0.10107830126E+02  0.56812251071E+02  0.25500000000E-02 0. -1.
<mgrwt>
<rscale>  0 0.55905846E+02</rscale>
<asrwt>0</asrwt>
<pdfrwt beam="1">  1       11 0.10000000E+01 0.12090845E+03</pdfrwt>
<pdfrwt beam="2">  1        2 0.64457878E-02 0.55905846E+02</pdfrwt>
<totfact> 0.12271850E+03</totfact>
</mgrwt>
</event>
<event>
 5    1  0.2226716E-003  0.3707331E+03  0.7818608E-02  0.1068180E+00
         11   -1    0    0    0    0  0.00000000000E+00  0.00000000000E+00  0.10002870037E+04  0.10002870037E+04  0.51100000000E-03 0. -1.
         -2   -1    0    0    0  501 -0.00000000000E+00 -0.00000000000E+00 -0.25335515289E+03  0.25335515290E+03  0.25500000000E-02 0.  1.
         11    1    1    2    0    0 -0.11936899927E+03  0.22546301296E+03  0.49820095706E+03  0.55972021744E+03  0.51100000000E-03 0. -1.
         22    1    1    2    0    0  0.40092681772E+02  0.10184425359E+03  0.32983621540E+03  0.34752209154E+03  0.00000000000E+00 0. -1.
         -2    1    1    2    0  501  0.79276317496E+02 -0.32730726655E+03 -0.81105321611E+02  0.34639984765E+03  0.25500000000E-02 0.  1.
<mgrwt>
<rscale>  0 0.33677111E+03</rscale>
<asrwt>0</asrwt>
<pdfrwt beam="1">  1       11 0.10000000E+01 0.37073312E+03</pdfrwt>
<pdfrwt beam="2">  1       -2 0.38988901E-01 0.33677111E+03</pdfrwt>
<totfact> 0.50595712E+01</totfact>
</mgrwt>
</event>
<event>
 5    1  0.2226716E-003  0.1139216E+03  0.7818608E-02  0.1454069E+00
         11   -1    0    0    0    0  0.00000000000E+00  0.00000000000E+00  0.99919043706E+03  0.99919043706E+03  0.51100000000E-03 0. -1.
          2   -1    0    0  501    0 -0.00000000000E+00 -0.00000000000E+00 -0.21982189615E+04  0.21982189615E+04  0.25500000000E-02 0.  1.
         11    1    1    2    0    0  0.10845913979E+03  0.29722104129E+02  0.65048782411E+03  0.66013725678E+03  0.51100000000E-03 0. -1.
         22    1    1    2    0    0 -0.12293644237E+03  0.16480266969E+02  0.33241568323E+03  0.35480297987E+03  0.00000000000E+00 0.  1.
          2    1    1    2  501    0  0.14477302581E+02 -0.46202371097E+02 -0.21819320318E+04  0.21824691619E+04  0.25500000000E-02 0.  1.
<mgrwt>
<rscale>  0 0.48417470E+02</rscale>
<asrwt>0</asrwt>
<pdfrwt beam="1">  1       11 0.10000000E+01 0.11392157E+03</pdfrwt>
<pdfrwt beam="2">  1        2 0.33791374E+00 0.48417470E+02</pdfrwt>
<totfact> 0.89804811E+00</totfact>
</mgrwt>
</event>
<event>
 5    1  0.2226716E-003  0.4368698E+03  0.7818608E-02  0.1608590E+00
         11   -1    0    0    0    0  0.00000000000E+00  0.00000000000E+00  0.10001195615E+04  0.10001195615E+04  0.51100000000E-03 0. -1.
          2   -1    0    0  501    0 -0.00000000000E+00 -0.00000000000E+00 -0.24033033719E+03  0.24033033720E+03  0.25500000000E-02 0. -1.
         11    1    1    2    0    0 -0.39249367761E+03  0.22791160587E+03  0.32904526579E+03  0.56059412590E+03  0.51100000000E-03 0. -1.
         22    1    1    2    0    0  0.36665859793E+03 -0.21458216636E+03  0.46834842583E+03  0.63232450651E+03  0.00000000000E+00 0. -1.
          2    1    1    2  501    0  0.25835079684E+02 -0.13329439509E+02 -0.37604467350E+02  0.47531266247E+02  0.25500000000E-02 0. -1.
<mgrwt>
<rscale>  0 0.29071039E+02</rscale>
<asrwt>0</asrwt>
<pdfrwt beam="1">  1       11 0.10000000E+01 0.43686978E+03</pdfrwt>
<pdfrwt beam="2">  1        2 0.36978318E-01 0.29071039E+02</pdfrwt>
<totfact> 0.16643505E+02</totfact>
</mgrwt>
</event>
<event>
 5    1  0.2226716E-003  0.2251718E+03  0.7818608E-02  0.1130085E+00
         11   -1    0    0    0    0  0.00000000000E+00  0.00000000000E+00  0.10000791149E+04  0.10000791149E+04  0.51100000000E-03 0.  1.
          2   -1    0    0  501    0 -0.00000000000E+00 -0.00000000000E+00 -0.50203771722E+02  0.50203771787E+02  0.25500000000E-02 0.  1.
         11    1    1    2    0    0  0.14152580753E+03 -0.17134327835E+03  0.44175360998E+03  0.49450412047E+03  0.51100000000E-03 0.  1.
         22    1    1    2    0    0 -0.19357031556E+02  0.11241914502E+02  0.34589323466E+02  0.41200687011E+02  0.00000000000E+00 0. -1.
          2    1    1    2  501    0 -0.12216877597E+03  0.16010136385E+03  0.47353240975E+03  0.51457807922E+03  0.25500000000E-02 0.  1.
<mgrwt>
<rscale>  0 0.22517180E+03</rscale>
<asrwt>0</asrwt>
<pdfrwt beam="1">  1       11 0.10000000E+01 0.22223439E+03</pdfrwt>
<pdfrwt beam="2">  1        2 0.77242680E-02 0.22517180E+03</pdfrwt>
<totfact> 0.10820364E+03</totfact>
</mgrwt>
</event>
<event>
 5    1  0.2226716E-003  0.1955113E+03  0.7818608E-02  0.1153582E+00
         11   -1    0    0    0    0  0.00000000000E+00  0.00000000000E+00  0.10004655774E+04  0.10004655774E+04  0.51100000000E-03 0. -1.
         -2   -1    0    0    0  501 -0.00000000000E+00 -0.00000000000E+00 -0.73216575868E+02  0.73216575912E+02  0.25500000000E-02 0.  1.
         11    1    1    2    0    0 -0.10146680404E+03 -0.12512783935E+03  0.26534776227E+03  0.31042216970E+03  0.51100000000E-03 0. -1.
         22    1    1    2    0    0 -0.96943944248E+01 -0.77059113247E+02  0.42696242322E+03  0.43396889181E+03  0.00000000000E+00 0. -1.
         -2    1    1    2    0  501  0.11116119846E+03  0.20218695259E+03  0.23493881602E+03  0.32929109177E+03  0.25500000000E-02 0.  1.
<mgrwt>
<rscale>  0 0.19551128E+03</rscale>
<asrwt>0</asrwt>
<pdfrwt beam="1">  1       11 0.10000000E+01 0.77666519E+02</pdfrwt>
<pdfrwt beam="2">  1       -2 0.11269333E-01 0.19551128E+03</pdfrwt>
<totfact> 0.43095907E+02</totfact>
</mgrwt>
</event>
<event>
 5    1  0.2226716E-003  0.9920151E+03  0.7818608E-02  0.9317346E-01
         11   -1    0    0    0    0  0.00000000000E+00  0.00000000000E+00  0.10000154177E+04  0.10000154177E+04  0.51100000000E-03 0.  1.
          2   -1    0    0  501    0 -0.00000000000E+00 -0.00000000000E+00 -0.10335608125E+04  0.10335608125E+04  0.25500000000E-02 0.  1.
         11    1    1    2    0    0  0.42619273384E+03  0.88969160024E+03 -0.13848023463E+03  0.99617677413E+03  0.51100000000E-03 0.  1.
         22    1    1    2    0    0  0.15176932833E+01  0.13022008529E+02  0.33454711701E+02  0.35931794194E+02  0.00000000000E+00 0.  1.
          2    1    1    2  501    0 -0.42771042713E+03 -0.90271360877E+03  0.71480128140E+02  0.10014676618E+04  0.25500000000E-02 0.  1.
<mgrwt>
<rscale>  0 0.99201507E+03</rscale>
<asrwt>0</asrwt>
<pdfrwt beam="1">  1       11 0.10000000E+01 0.13110153E+02</pdfrwt>
<pdfrwt beam="2">  1        2 0.15901180E+00 0.99201507E+03</pdfrwt>
<totfact> 0.29443579E+01</totfact>
</mgrwt>
</event>
<event>
 5    1  0.2226716E-003  0.1345203E+03  0.7818608E-02  0.1688836E+00
         11   -1    0    0    0    0  0.00000000000E+00  0.00000000000E+00  0.10000305717E+04  0.10000305717E+04  0.51100000000E-03 0. -1.
          2   -1    0    0  501    0 -0.00000000000E+00 -0.00000000000E+00 -0.79389438660E+02  0.79389438701E+02  0.25500000000E-02 0.  1.
         11    1    1    2    0    0  0.12151819861E+03 -0.33970710309E+02  0.50474136214E+03  0.52027350923E+03  0.51100000000E-03 0. -1.
         22    1    1    2    0    0 -0.14394865597E+03  0.28180211016E+02  0.47422365203E+03  0.49639038265E+03  0.00000000000E+00 0. -1.
          2    1    1    2  501    0  0.22430457359E+02  0.57904992932E+01 -0.58323881109E+02  0.62756118534E+02  0.25500000000E-02 0.  1.
<mgrwt>
<rscale>  0 0.23165822E+02</rscale>
<asrwt>0</asrwt>
<pdfrwt beam="1">  1       11 0.10000000E+01 0.13452034E+03</pdfrwt>
<pdfrwt beam="2">  1        2 0.12214133E-01 0.23165822E+02</pdfrwt>
<totfact> 0.53170044E+02</totfact>
</mgrwt>
</event>
<event>
 5    1  0.2226716E-003  0.6587435E+03  0.7818608E-02  0.9816601E-01
         11   -1    0    0    0    0  0.00000000000E+00  0.00000000000E+00  0.10002383121E+04  0.10002383121E+04  0.51100000000E-03 0.  1.
          2   -1    0    0  501    0 -0.00000000000E+00 -0.00000000000E+00 -0.48567023355E+03  0.48567023356E+03  0.25500000000E-02 0.  1.
         11    1    1    2    0    0 -0.58933261916E+02  0.60934092752E+03  0.44945291577E+03  0.75945863535E+03  0.51100000000E-03 0.  1.
         22    1    1    2    0    0  0.11279447651E+02  0.33687730437E+02  0.73464936617E+02  0.81603835899E+02  0.00000000000E+00 0.  1.
          2    1    1    2  501    0  0.47653814265E+02 -0.64302865795E+03 -0.83497738371E+01  0.64484607442E+03  0.25500000000E-02 0.  1.
<mgrwt>
<rscale>  0 0.64479201E+03</rscale>
<asrwt>0</asrwt>
<pdfrwt beam="1">  1       11 0.10000000E+01 0.65874350E+03</pdfrwt>
<pdfrwt beam="2">  1        2 0.74736302E-01 0.64479201E+03</pdfrwt>
<totfact> 0.79009250E+01</totfact>
</mgrwt>
</event>
<event>
 5    1  0.2226716E-003  0.1321231E+03  0.7818608E-02  0.1609211E+00
         11   -1    0    0    0    0  0.00000000000E+00  0.00000000000E+00  0.10002956534E+04  0.10002956534E+04  0.51100000000E-03 0. -1.
         -2   -1    0    0    0  501 -0.00000000000E+00 -0.00000000000E+00 -0.63337558951E+02  0.63337559003E+02  0.25500000000E-02 0.  1.
         11    1    1    2    0    0  0.69697039470E+02  0.12444888003E+03  0.71241434352E+03  0.72655309366E+03  0.51100000000E-03 0. -1.
         22    1    1    2    0    0 -0.61658891107E+02 -0.96567038329E+02  0.26418139161E+03  0.28795628039E+03  0.00000000000E+00 0. -1.
         -2    1    1    2    0  501 -0.80381483629E+01 -0.27881841705E+02 -0.39637640699E+02  0.49123838334E+02  0.25500000000E-02 0.  1.
<mgrwt>
<rscale>  0 0.29017390E+02</rscale>
<asrwt>0</asrwt>
<pdfrwt beam="1">  1       11 0.10000000E+01 0.13212308E+03</pdfrwt>
<pdfrwt beam="2">  1       -2 0.97471205E-02 0.29017390E+02</pdfrwt>
<totfact> 0.47077989E+02</totfact>
</mgrwt>
</event>
<event>
 5    1  0.2226716E-003  0.1121609E+03  0.7818608E-02  0.1256620E+00
         11   -1    0    0    0    0  0.00000000000E+00  0.00000000000E+00  0.10002440386E+04  0.10002440386E+04  0.51100000000E-03 0.  1.
          2   -1    0    0  501    0 -0.00000000000E+00 -0.00000000000E+00 -0.84303323277E+02  0.84303323316E+02  0.25500000000E-02 0.  1.
         11    1    1    2    0    0  0.84980688749E+02 -0.12960842456E+03  0.73005855447E+03  0.74632804726E+03  0.51100000000E-03 0.  1.
         22    1    1    2    0    0 -0.16734322928E+02  0.43568175223E+02  0.21868092269E+03  0.22360583491E+03  0.00000000000E+00 0. -1.
          2    1    1    2  501    0 -0.68246365821E+02  0.86040249334E+02 -0.32798761843E+02  0.11461347974E+03  0.25500000000E-02 0.  1.
<mgrwt>
<rscale>  0 0.11216093E+03</rscale>
<asrwt>0</asrwt>
<pdfrwt beam="1">  1       11 0.10000000E+01 0.46671442E+02</pdfrwt>
<pdfrwt beam="2">  1        2 0.12972907E-01 0.11216093E+03</pdfrwt>
<totfact> 0.55015129E+02</totfact>
</mgrwt>
</event>
<event>
 5    1  0.2226716E-003  0.1637091E+03  0.7818608E-02  0.1396509E+00
         11   -1    0    0    0    0  0.00000000000E+00  0.00000000000E+00  0.10009180506E+04  0.10009180506E+04  0.51100000000E-03 0.  1.
          2   -1    0    0  501    0 -0.00000000000E+00 -0.00000000000E+00 -0.15412366443E+04  0.15412366443E+04  0.25500000000E-02 0.  1.
         11    1    1    2    0    0 -0.11774289411E+03  0.16420336205E+03  0.42648228703E+03  0.47192507284E+03  0.51100000000E-03 0.  1.
         22    1    1    2    0    0  0.10309571925E+03 -0.10569253149E+03  0.54122255284E+03  0.56100043694E+03  0.00000000000E+00 0.  1.
          2    1    1    2  501    0  0.14647174856E+02 -0.58510830564E+02 -0.15080234336E+04  0.15092291851E+04  0.25500000000E-02 0.  1.
<mgrwt>
<rscale>  0 0.60316308E+02</rscale>
<asrwt>0</asrwt>
<pdfrwt beam="1">  1       11 0.10000000E+01 0.16370908E+03</pdfrwt>
<pdfrwt beam="2">  1        2 0.23733101E+00 0.60316308E+02</pdfrwt>
<totfact> 0.18347603E+01</totfact>
</mgrwt>
</event>
<event>
 5    1  0.2226716E-003  0.1704534E+03  0.7818608E-02  0.1177376E+00
         11   -1    0    0    0    0  0.00000000000E+00  0.00000000000E+00  0.10001245710E+04  0.10001245710E+04  0.51100000000E-03 0. -1.
          2   -1    0    0  501    0 -0.00000000000E+00 -0.00000000000E+00 -0.30789314507E+02  0.30789314613E+02  0.25500000000E-02 0.  1.
         11    1    1    2    0    0  0.14212628715E+03 -0.54541706718E+02  0.66395342948E+03  0.68118194030E+03  0.51100000000E-03 0. -1.
         22    1    1    2    0    0 -0.66257193309E+02 -0.42287951292E+01  0.17988561563E+03  0.19174653343E+03  0.00000000000E+00 0.  1.
          2    1    1    2  501    0 -0.75869093845E+02  0.58770501847E+02  0.12549621138E+03  0.15798541187E+03  0.25500000000E-02 0.  1.
<mgrwt>
<rscale>  0 0.17045343E+03</rscale>
<asrwt>0</asrwt>
<pdfrwt beam="1">  1       11 0.10000000E+01 0.15223232E+03</pdfrwt>
<pdfrwt beam="2">  1        2 0.47374076E-02 0.17045343E+03</pdfrwt>
<totfact> 0.20035911E+03</totfact>
</mgrwt>
</event>
<event>
 5    1  0.2226716E-003  0.1391976E+03  0.7818608E-02  0.1214413E+00
         11   -1    0    0    0    0  0.00000000000E+00  0.00000000000E+00  0.10000367394E+04  0.10000367394E+04  0.51100000000E-03 0. -1.
         -2   -1    0    0    0  501 -0.00000000000E+00 -0.00000000000E+00 -0.14538877948E+03  0.14538877951E+03  0.25500000000E-02 0.  1.
         11    1    1    2    0    0 -0.64407963036E+02 -0.16399966173E+03  0.47987101705E+03  0.51119513667E+03  0.51100000000E-03 0. -1.
         22    1    1    2    0    0  0.92341922943E+02  0.28488451406E+02  0.46112134748E+03  0.47113853557E+03  0.00000000000E+00 0.  1.
         -2    1    1    2    0  501 -0.27933959907E+02  0.13551121032E+03 -0.86344404605E+02  0.16309184668E+03  0.25500000000E-02 0.  1.
<mgrwt>
<rscale>  0 0.13919763E+03</rscale>
<asrwt>0</asrwt>
<pdfrwt beam="1">  1       11 0.10000000E+01 0.96636549E+02</pdfrwt>
<pdfrwt beam="2">  1       -2 0.22368326E-01 0.13919763E+03</pdfrwt>
<totfact> 0.13673789E+02</totfact>
</mgrwt>
</event>
<event>
 5    1  0.2226716E-003  0.2795963E+03  0.7818608E-02  0.1095910E+00
         11   -1    0    0    0    0  0.00000000000E+00  0.00000000000E+00  0.10002881097E+04  0.10002881097E+04  0.51100000000E-03 0.  1.
          2   -1    0    0  501    0 -0.00000000000E+00 -0.00000000000E+00 -0.46239447326E+03  0.46239447326E+03  0.25500000000E-02 0.  1.
         11    1    1    2    0    0  0.11065654262E+03 -0.24173515693E+03  0.77204727815E+03  0.81654011305E+03  0.51100000000E-03 0.  1.
         22    1    1    2    0    0 -0.29776020781E+02 -0.26858590013E+02  0.15855143689E+03  0.16354373547E+03  0.00000000000E+00 0.  1.
          2    1    1    2  501    0 -0.80880521839E+02  0.26859374694E+03 -0.39270507861E+03  0.48259873443E+03  0.25500000000E-02 0.  1.
<mgrwt>
<rscale>  0 0.27959634E+03</rscale>
<asrwt>0</asrwt>
<pdfrwt beam="1">  1       11 0.10000000E+01 0.40099816E+02</pdfrwt>
<pdfrwt beam="2">  1        2 0.71158105E-01 0.27959634E+03</pdfrwt>
<totfact> 0.84560698E+01</totfact>
</mgrwt>
</event>
<event>
 5    1  0.2226716E-003  0.8299931E+02  0.7818608E-02  0.1320749E+00
         11   -1    0    0    0    0  0.00000000000E+00  0.00000000000E+00  0.10002866624E+04  0.10002866624E+04  0.51100000000E-03 0. -1.
         -2   -1    0    0    0  501 -0.00000000000E+00 -0.00000000000E+00 -0.41503502614E+02  0.41503502693E+02  0.25500000000E-02 0. -1.
         11    1    1    2    0    0  0.92838941443E+02 -0.36742197018E+02  0.53739916065E+03  0.54659575187E+03  0.51100000000E-03 0. -1.
         22    1    1    2    0    0 -0.18302836281E+02  0.76595904966E+02  0.40044791170E+03  0.40811818933E+03  0.00000000000E+00 0. -1.
         -2    1    1    2    0  501 -0.74536105162E+02 -0.39853707947E+02  0.20936087470E+02  0.87076223936E+02  0.25500000000E-02 0. -1.
<mgrwt>
<rscale>  0 0.82999313E+02</rscale>
<asrwt>0</asrwt>
<pdfrwt beam="1">  1       11 0.10000000E+01 0.78752311E+02</pdfrwt>
<pdfrwt beam="2">  1       -2 0.63869845E-02 0.82999313E+02</pdfrwt>
<totfact> 0.97937727E+02</totfact>
</mgrwt>
</event>
<event>
 5    1  0.2226716E-003  0.1091935E+03  0.7818608E-02  0.1262071E+00
         11   -1    0    0    0    0  0.00000000000E+00  0.00000000000E+00  0.10004032739E+04  0.10004032739E+04  0.51100000000E-03 0. -1.
          2   -1    0    0  501    0 -0.00000000000E+00 -0.00000000000E+00 -0.26222795797E+02  0.26222795921E+02  0.25500000000E-02 0. -1.
         11    1    1    2    0    0 -0.27383788771E+02 -0.97811668935E+02  0.60601819172E+03  0.61447135260E+03  0.51100000000E-03 0. -1.
         22    1    1    2    0    0 -0.50456428349E+02  0.14591458027E+02  0.21458767006E+03  0.22092222602E+03  0.00000000000E+00 0.  1.
          2    1    1    2  501    0  0.77840217120E+02  0.83220210909E+02  0.15357461632E+03  0.19123249120E+03  0.25500000000E-02 0. -1.
<mgrwt>
<rscale>  0 0.10919347E+03</rscale>
<asrwt>0</asrwt>
<pdfrwt beam="1">  1       11 0.10000000E+01 0.52523917E+02</pdfrwt>
<pdfrwt beam="2">  1        2 0.40359031E-02 0.10919347E+03</pdfrwt>
<totfact> 0.23802127E+03</totfact>
</mgrwt>
</event>
<event>
 5    1  0.2226716E-003  0.2695411E+03  0.7818608E-02  0.1101543E+00
         11   -1    0    0    0    0  0.00000000000E+00  0.00000000000E+00  0.10000504397E+04  0.10000504397E+04  0.51100000000E-03 0.  1.
          2   -1    0    0  501    0 -0.00000000000E+00 -0.00000000000E+00 -0.10587689977E+04  0.10587689977E+04  0.25500000000E-02 0.  1.
         11    1    1    2    0    0 -0.77145847187E+02  0.32049348442E+03  0.15109778286E+03  0.36262666101E+03  0.51100000000E-03 0.  1.
         22    1    1    2    0    0 -0.12124761586E+03 -0.13893075155E+03  0.71223703341E+03  0.73572027961E+03  0.00000000000E+00 0.  1.
          2    1    1    2  501    0  0.19839346305E+03 -0.18156273287E+03 -0.92205337419E+03  0.96047249675E+03  0.25500000000E-02 0.  1.
<mgrwt>
<rscale>  0 0.26954115E+03</rscale>
<asrwt>0</asrwt>
<pdfrwt beam="1">  1       11 0.10000000E+01 0.18439831E+03</pdfrwt>
<pdfrwt beam="2">  1        2 0.16289575E+00 0.26954115E+03</pdfrwt>
<totfact> 0.30262414E+01</totfact>
</mgrwt>
</event>
<event>
 5    1  0.2226716E-003  0.1471023E+03  0.7818608E-02  0.1204080E+00
         11   -1    0    0    0    0  0.00000000000E+00  0.00000000000E+00  0.10002585133E+04  0.10002585133E+04  0.51100000000E-03 0. -1.
          2   -1    0    0  501    0 -0.00000000000E+00 -0.00000000000E+00 -0.22057950654E+02  0.22057950801E+02  0.25500000000E-02 0. -1.
         11    1    1    2    0    0 -0.13293695103E+03  0.44275402942E+01  0.63729162052E+03  0.65102415136E+03  0.51100000000E-03 0. -1.
         22    1    1    2    0    0  0.43495376451E+02 -0.15731909368E+02  0.18961372778E+03  0.19517352922E+03  0.00000000000E+00 0. -1.
          2    1    1    2  501    0  0.89441574575E+02  0.11304369073E+02  0.15129521438E+03  0.17611878356E+03  0.25500000000E-02 0. -1.
<mgrwt>
<rscale>  0 0.14710226E+03</rscale>
<asrwt>0</asrwt>
<pdfrwt beam="1">  1       11 0.10000000E+01 0.13301066E+03</pdfrwt>
<pdfrwt beam="2">  1        2 0.33944081E-02 0.14710226E+03</pdfrwt>
<totfact> 0.30811180E+03</totfact>
</mgrwt>
</event>
<event>
 5    1  0.2226716E-003  0.7817190E+02  0.7818608E-02  0.1334321E+00
         11   -1    0    0    0    0  0.00000000000E+00  0.00000000000E+00  0.10002393029E+04  0.10002393029E+04  0.51100000000E-03 0. -1.
          2   -1    0    0  501    0 -0.00000000000E+00 -0.00000000000E+00 -0.13099336385E+02  0.13099336633E+02  0.25500000000E-02 0. -1.
         11    1    1    2    0    0 -0.27962309174E+02  0.49693017493E+02  0.21018862020E+03  0.21778554310E+03  0.51100000000E-03 0. -1.
         22    1    1    2    0    0 -0.17935026691E+02 -0.91560249515E+02  0.28960441968E+03  0.30426249255E+03  0.00000000000E+00 0. -1.
          2    1    1    2  501    0  0.45897335865E+02  0.41867232022E+02  0.48734692665E+03  0.49129060389E+03  0.25500000000E-02 0. -1.
<mgrwt>
<rscale>  0 0.78171904E+02</rscale>
<asrwt>0</asrwt>
<pdfrwt beam="1">  1       11 0.10000000E+01 0.57020084E+02</pdfrwt>
<pdfrwt beam="2">  1        2 0.20157647E-02 0.78171904E+02</pdfrwt>
<totfact> 0.57698665E+03</totfact>
</mgrwt>
</event>
<event>
 5    1  0.2226716E-003  0.2388886E+03  0.7818608E-02  0.1120535E+00
         11   -1    0    0    0    0  0.00000000000E+00  0.00000000000E+00  0.10002707575E+04  0.10002707575E+04  0.51100000000E-03 0. -1.
         -2   -1    0    0    0  501 -0.00000000000E+00 -0.00000000000E+00 -0.84531077952E+03  0.84531077952E+03  0.25500000000E-02 0.  1.
         11    1    1    2    0    0 -0.22247345491E+03  0.16499676456E+02  0.94232263632E+03  0.96836905588E+03  0.51100000000E-03 0. -1.
         22    1    1    2    0    0 -0.14748392593E+02  0.14042925067E+02  0.23915612369E+02  0.31411388755E+02  0.00000000000E+00 0.  1.
         -2    1    1    2    0  501  0.23722184750E+03 -0.30542601523E+02 -0.81127827068E+03  0.84580109241E+03  0.25500000000E-02 0.  1.
<mgrwt>
<rscale>  0 0.23888863E+03</rscale>
<asrwt>0</asrwt>
<pdfrwt beam="1">  1       11 0.10000000E+01 0.20364647E+02</pdfrwt>
<pdfrwt beam="2">  1       -2 0.13008302E+00 0.23888863E+03</pdfrwt>
<totfact> 0.37219886E+00</totfact>
</mgrwt>
</event>
<event>
 5    1  0.2226716E-003  0.3515604E+03  0.7818608E-02  0.1061976E+00
         11   -1    0    0    0    0  0.00000000000E+00  0.00000000000E+00  0.10001426573E+04  0.10001426573E+04  0.51100000000E-03 0. -1.
          2   -1    0    0  501    0 -0.00000000000E+00 -0.00000000000E+00 -0.15173679742E+03  0.15173679744E+03  0.25500000000E-02 0.  1.
         11    1    1    2    0    0 -0.16631172331E+03  0.30528699095E+03  0.16821554843E+03  0.38620746612E+03  0.51100000000E-03 0. -1.
         22    1    1    2    0    0 -0.34938995492E+01 -0.11800691673E+02  0.28721153888E+02  0.31246893264E+02  0.00000000000E+00 0.  1.
          2    1    1    2  501    0  0.16980562286E+03 -0.29348629928E+03  0.65146915759E+03  0.73442509538E+03  0.25500000000E-02 0.  1.
<mgrwt>
<rscale>  0 0.35156043E+03</rscale>
<asrwt>0</asrwt>
<pdfrwt beam="1">  1       11 0.10000000E+01 0.34764904E+03</pdfrwt>
<pdfrwt beam="2">  1        2 0.23347452E-01 0.35156043E+03</pdfrwt>
<totfact> 0.28888583E+02</totfact>
</mgrwt>
</event>
<event>
 5    1  0.2226716E-003  0.1449153E+03  0.7818608E-02  0.1313487E+00
         11   -1    0    0    0    0  0.00000000000E+00  0.00000000000E+00  0.10001814213E+04  0.10001814213E+04  0.51100000000E-03 0. -1.
          2   -1    0    0  501    0 -0.00000000000E+00 -0.00000000000E+00 -0.18655285632E+03  0.18655285634E+03  0.25500000000E-02 0. -1.
         11    1    1    2    0    0  0.13408917670E+03 -0.33230958726E+02  0.78984256847E+03  0.80183258034E+03  0.51100000000E-03 0. -1.
         22    1    1    2    0    0 -0.21854568915E+03  0.18401897666E+02  0.12484728172E+03  0.25236420474E+03  0.00000000000E+00 0. -1.
          2    1    1    2  501    0  0.84456512440E+02  0.14829061060E+02 -0.10106128524E+03  0.13253749253E+03  0.25500000000E-02 0. -1.
<mgrwt>
<rscale>  0 0.85748490E+02</rscale>
<asrwt>0</asrwt>
<pdfrwt beam="1">  1       11 0.10000000E+01 0.14491532E+03</pdfrwt>
<pdfrwt beam="2">  1        2 0.28705645E-01 0.85748490E+02</pdfrwt>
<totfact> 0.22274882E+02</totfact>
</mgrwt>
</event>
<event>
 5    1  0.2226716E-003  0.2118281E+03  0.7818608E-02  0.1145542E+00
         11   -1    0    0    0    0  0.00000000000E+00  0.00000000000E+00  0.10000903000E+04  0.10000903000E+04  0.51100000000E-03 0.  1.
         -2   -1    0    0    0  501 -0.00000000000E+00 -0.00000000000E+00 -0.47544638962E+02  0.47544639030E+02  0.25500000000E-02 0. -1.
         11    1    1    2    0    0 -0.47024192891E+02  0.17202469769E+03  0.26117547316E+03  0.31625369423E+03  0.51100000000E-03 0.  1.
         22    1    1    2    0    0  0.11436866877E+02  0.29920110882E+02  0.68354830531E+02  0.75487732884E+02  0.00000000000E+00 0.  1.
         -2    1    1    2    0  501  0.35587326014E+02 -0.20194480857E+03  0.62301535733E+03  0.65589351190E+03  0.25500000000E-02 0. -1.
<mgrwt>
<rscale>  0 0.20505649E+03</rscale>
<asrwt>0</asrwt>
<pdfrwt beam="1">  1       11 0.10000000E+01 0.21182805E+03</pdfrwt>
<pdfrwt beam="2">  1       -2 0.73152201E-02 0.20505649E+03</pdfrwt>
<totfact> 0.85318772E+02</totfact>
</mgrwt>
</event>
<event>
 5    1  0.2226716E-003  0.1914199E+03  0.7818608E-02  0.1167474E+00
         11   -1    0    0    0    0  0.00000000000E+00  0.00000000000E+00  0.10000441493E+04  0.10000441493E+04  0.51100000000E-03 0.  1.
          2   -1    0    0  501    0 -0.00000000000E+00 -0.00000000000E+00 -0.34568608588E+02  0.34568608682E+02  0.25500000000E-02 0.  1.
         11    1    1    2    0    0 -0.12956895273E+03  0.22722463855E+02  0.28055177842E+03  0.30986081432E+03  0.51100000000E-03 0.  1.
         22    1    1    2    0    0 -0.50002871970E+02 -0.60953637094E+01  0.22862151307E+03  0.23410518342E+03  0.00000000000E+00 0.  1.
          2    1    1    2  501    0  0.17957182470E+03 -0.16627100145E+02  0.45630224920E+03  0.49064676022E+03  0.25500000000E-02 0.  1.
<mgrwt>
<rscale>  0 0.18033996E+03</rscale>
<asrwt>0</asrwt>
<pdfrwt beam="1">  1       11 0.10000000E+01 0.19141987E+03</pdfrwt>
<pdfrwt beam="2">  1        2 0.53184821E-02 0.18033996E+03</pdfrwt>
<totfact> 0.17284056E+03</totfact>
</mgrwt>
</event>
<event>
 5    1  0.2226716E-003  0.1780433E+03  0.7818608E-02  0.1169710E+00
         11   -1    0    0    0    0  0.00000000000E+00  0.00000000000E+00  0.10002097127E+04  0.10002097127E+04  0.51100000000E-03 0. -1.
          2   -1    0    0  501    0 -0.00000000000E+00 -0.00000000000E+00 -0.79188497938E+02  0.79188497979E+02  0.25500000000E-02 0. -1.
         11    1    1    2    0    0 -0.16647850005E+03  0.26487030147E+02  0.48753051808E+03  0.51585139314E+03  0.51100000000E-03 0. -1.
         22    1    1    2    0    0 -0.12636753271E+02 -0.63843636896E+02  0.36087146145E+03  0.36669320855E+03  0.00000000000E+00 0. -1.
          2    1    1    2  501    0  0.17911525332E+03  0.37356606749E+02  0.72619235233E+02  0.19685360899E+03  0.25500000000E-02 0. -1.
<mgrwt>
<rscale>  0 0.17804332E+03</rscale>
<asrwt>0</asrwt>
<pdfrwt beam="1">  1       11 0.10000000E+01 0.65082236E+02</pdfrwt>
<pdfrwt beam="2">  1        2 0.12185400E-01 0.17804332E+03</pdfrwt>
<totfact> 0.60626494E+02</totfact>
</mgrwt>
</event>
<event>
 5    1  0.2226716E-003  0.1113691E+03  0.7818608E-02  0.1258055E+00
         11   -1    0    0    0    0  0.00000000000E+00  0.00000000000E+00  0.10003689441E+04  0.10003689441E+04  0.51100000000E-03 0.  1.
          2   -1    0    0  501    0 -0.00000000000E+00 -0.00000000000E+00 -0.23854805937E+02  0.23854806074E+02  0.25500000000E-02 0.  1.
         11    1    1    2    0    0  0.62865146886E+02 -0.87861649719E+02  0.15425588139E+03  0.18832571022E+03  0.51100000000E-03 0.  1.
         22    1    1    2    0    0  0.20104501693E+02 -0.75748495092E+01  0.75067382705E+02  0.78081247939E+02  0.00000000000E+00 0. -1.
          2    1    1    2  501    0 -0.82969648579E+02  0.95436499229E+02  0.74719087402E+03  0.75781679197E+03  0.25500000000E-02 0.  1.
<mgrwt>
<rscale>  0 0.11136908E+03</rscale>
<asrwt>0</asrwt>
<pdfrwt beam="1">  1       11 0.10000000E+01 0.21484165E+02</pdfrwt>
<pdfrwt beam="2">  1        2 0.36713241E-02 0.11136908E+03</pdfrwt>
<totfact> 0.27019399E+03</totfact>
</mgrwt>
</event>
<event>
 5    1  0.2226716E-003  0.2114723E+03  0.7818608E-02  0.1140405E+00
         11   -1    0    0    0    0  0.00000000000E+00  0.00000000000E+00  0.10001840062E+04  0.10001840062E+04  0.51100000000E-03 0. -1.
          2   -1    0    0  501    0 -0.00000000000E+00 -0.00000000000E+00 -0.51071188741E+02  0.51071188804E+02  0.25500000000E-02 0. -1.
         11    1    1    2    0    0  0.15797249300E+03 -0.13442873186E+03  0.36839787942E+03  0.42278054597E+03  0.51100000000E-03 0. -1.
         22    1    1    2    0    0  0.18037504053E+02  0.72707478447E+01  0.86555009789E+02  0.88712936183E+02  0.00000000000E+00 0. -1.
          2    1    1    2  501    0 -0.17600999705E+03  0.12715798402E+03  0.49415992829E+03  0.53976171288E+03  0.25500000000E-02 0. -1.
<mgrwt>
<rscale>  0 0.21147225E+03</rscale>
<asrwt>0</asrwt>
<pdfrwt beam="1">  1       11 0.10000000E+01 0.19447759E+02</pdfrwt>
<pdfrwt beam="2">  1        2 0.78585515E-02 0.21147225E+03</pdfrwt>
<totfact> 0.10546381E+03</totfact>
</mgrwt>
</event>
<event>
 5    1  0.2226716E-003  0.2102926E+03  0.7818608E-02  0.1141334E+00
         11   -1    0    0    0    0  0.00000000000E+00  0.00000000000E+00  0.10001810817E+04  0.10001810817E+04  0.51100000000E-03 0. -1.
          2   -1    0    0  501    0 -0.00000000000E+00 -0.00000000000E+00 -0.18156607267E+03  0.18156607268E+03  0.25500000000E-02 0. -1.
         11    1    1    2    0    0 -0.12884938904E+03  0.15646302954E+03 -0.10931399139E+03  0.23028763185E+03  0.51100000000E-03 0. -1.
         22    1    1    2    0    0  0.15965970389E+02 -0.48312672083E+01  0.35427505610E+02  0.39158160159E+02  0.00000000000E+00 0.  1.
          2    1    1    2  501    0  0.11288341865E+03 -0.15163176233E+03  0.89250149476E+03  0.91230136233E+03  0.25500000000E-02 0. -1.
<mgrwt>
<rscale>  0 0.21029264E+03</rscale>
<asrwt>0</asrwt>
<pdfrwt beam="1">  1       11 0.10000000E+01 0.20268914E+03</pdfrwt>
<pdfrwt beam="2">  1        2 0.27938299E-01 0.21029264E+03</pdfrwt>
<totfact> 0.23386791E+02</totfact>
</mgrwt>
</event>
<event>
 5    1  0.2226716E-003  0.2680875E+03  0.7818608E-02  0.1116591E+00
         11   -1    0    0    0    0  0.00000000000E+00  0.00000000000E+00  0.10001319195E+04  0.10001319195E+04  0.51100000000E-03 0. -1.
          2   -1    0    0  501    0 -0.00000000000E+00 -0.00000000000E+00 -0.80989815950E+03  0.80989815950E+03  0.25500000000E-02 0. -1.
         11    1    1    2    0    0 -0.19699683448E+03 -0.59113114922E+02  0.66850708492E+03  0.69943108005E+03  0.51100000000E-03 0. -1.
         22    1    1    2    0    0 -0.46662805603E+02  0.34800246192E+02  0.29437572938E+03  0.30007589809E+03  0.00000000000E+00 0. -1.
          2    1    1    2  501    0  0.24365964008E+03  0.24312868729E+02 -0.77264905434E+03  0.81052310083E+03  0.25500000000E-02 0. -1.
<mgrwt>
<rscale>  0 0.24486963E+03</rscale>
<asrwt>0</asrwt>
<pdfrwt beam="1">  1       11 0.10000000E+01 0.26808746E+03</pdfrwt>
<pdfrwt beam="2">  1        2 0.12461615E+00 0.24486963E+03</pdfrwt>
<totfact> 0.43784145E+01</totfact>
</mgrwt>
</event>
<event>
 5    1  0.2226716E-003  0.1427660E+03  0.7818608E-02  0.1375428E+00
         11   -1    0    0    0    0  0.00000000000E+00  0.00000000000E+00  0.10010737557E+04  0.10010737557E+04  0.51100000000E-03 0.  1.
          2   -1    0    0  501    0 -0.00000000000E+00 -0.00000000000E+00 -0.11320198962E+04  0.11320198962E+04  0.25500000000E-02 0.  1.
         11    1    1    2    0    0  0.14137815302E+02  0.10011893982E+03  0.84603293651E+02  0.13183852710E+03  0.51100000000E-03 0.  1.
         22    1    1    2    0    0 -0.65108480685E+02 -0.14154321453E+03  0.88506971753E+03  0.89867791824E+03  0.00000000000E+00 0.  1.
          2    1    1    2  501    0  0.50970665382E+02  0.41424274714E+02 -0.11006191517E+04  0.11025772066E+04  0.25500000000E-02 0.  1.
<mgrwt>
<rscale>  0 0.65680890E+02</rscale>
<asrwt>0</asrwt>
<pdfrwt beam="1">  1       11 0.10000000E+01 0.14276603E+03</pdfrwt>
<pdfrwt beam="2">  1        2 0.17434390E+00 0.65680890E+02</pdfrwt>
<totfact> 0.29683599E+01</totfact>
</mgrwt>
</event>
<event>
 5    1  0.2226716E-003  0.9858708E+02  0.7818608E-02  0.1283295E+00
         11   -1    0    0    0    0  0.00000000000E+00  0.00000000000E+00  0.10000194481E+04  0.10000194481E+04  0.51100000000E-03 0.  1.
         -2   -1    0    0    0  501 -0.00000000000E+00 -0.00000000000E+00 -0.33495816808E+02  0.33495816905E+02  0.25500000000E-02 0.  1.
         11    1    1    2    0    0  0.54460630132E+02 -0.13377776046E+03  0.71356875598E+03  0.72804039650E+03  0.51100000000E-03 0.  1.
         22    1    1    2    0    0 -0.24143082555E+02  0.46314790469E+02  0.18055059865E+03  0.18795336370E+03  0.00000000000E+00 0.  1.
         -2    1    1    2    0  501 -0.30317547577E+02  0.87462969994E+02  0.72404276712E+02  0.11752150486E+03  0.25500000000E-02 0.  1.
<mgrwt>
<rscale>  0 0.98587085E+02</rscale>
<asrwt>0</asrwt>
<pdfrwt beam="1">  1       11 0.10000000E+01 0.52229764E+02</pdfrwt>
<pdfrwt beam="2">  1       -2 0.51533027E-02 0.98587085E+02</pdfrwt>
<totfact> 0.13717009E+03</totfact>
</mgrwt>
</event>
<event>
 5    1  0.2226716E-003  0.2627627E+03  0.7818608E-02  0.1105495E+00
         11   -1    0    0    0    0  0.00000000000E+00  0.00000000000E+00  0.10005637580E+04  0.10005637580E+04  0.51100000000E-03 0. -1.
          2   -1    0    0  501    0 -0.00000000000E+00 -0.00000000000E+00 -0.79742382309E+03  0.79742382309E+03  0.25500000000E-02 0. -1.
         11    1    1    2    0    0  0.23219579282E+03  0.14924178235E+02  0.93925045073E+03  0.96764095950E+03  0.51100000000E-03 0. -1.
         22    1    1    2    0    0  0.31096339665E+02 -0.51632842666E+01  0.14603272334E+02  0.34740429011E+02  0.00000000000E+00 0. -1.
          2    1    1    2  501    0 -0.26329213249E+03 -0.97608939684E+01 -0.75071378811E+03  0.79560619263E+03  0.25500000000E-02 0. -1.
<mgrwt>
<rscale>  0 0.26276269E+03</rscale>
<asrwt>0</asrwt>
<pdfrwt beam="1">  1       11 0.10000000E+01 0.31522085E+02</pdfrwt>
<pdfrwt beam="2">  1        2 0.12274975E+00 0.26276269E+03</pdfrwt>
<totfact> 0.44522219E+01</totfact>
</mgrwt>
</event>
<event>
 5    1  0.2226716E-003  0.2719025E+03  0.7818608E-02  0.1105606E+00
         11   -1    0    0    0    0  0.00000000000E+00  0.00000000000E+00  0.10003469638E+04  0.10003469638E+04  0.51100000000E-03 0. -1.
          2   -1    0    0  501    0 -0.00000000000E+00 -0.00000000000E+00 -0.27567510569E+03  0.27567510570E+03  0.25500000000E-02 0. -1.
         11    1    1    2    0    0  0.15737413737E+03 -0.13537971770E+03  0.60227750532E+03  0.63704982575E+03  0.51100000000E-03 0. -1.
         22    1    1    2    0    0  0.44506846995E+02 -0.32517258900E+02  0.31089403903E+03  0.31574251386E+03  0.00000000000E+00 0. -1.
          2    1    1    2  501    0 -0.20188098437E+03  0.16789697660E+03 -0.18849968620E+03  0.32322972993E+03  0.25500000000E-02 0. -1.
<mgrwt>
<rscale>  0 0.26257442E+03</rscale>
<asrwt>0</asrwt>
<pdfrwt beam="1">  1       11 0.10000000E+01 0.27190251E+03</pdfrwt>
<pdfrwt beam="2">  1        2 0.42426269E-01 0.26257442E+03</pdfrwt>
<totfact> 0.14864439E+02</totfact>
</mgrwt>
</event>
<event>
 5    1  0.2226716E-003  0.5410177E+03  0.7818608E-02  0.1003595E+00
         11   -1    0    0    0    0  0.00000000000E+00  0.00000000000E+00  0.10009610772E+04  0.10009610772E+04  0.51100000000E-03 0. -1.
          2   -1    0    0  501    0 -0.00000000000E+00 -0.00000000000E+00 -0.13138253158E+04  0.13138253158E+04  0.25500000000E-02 0. -1.
         11    1    1    2    0    0  0.38121073544E+03  0.34704453953E+03  0.79698381174E+03  0.94918108568E+03  0.51100000000E-03 0. -1.
         22    1    1    2    0    0  0.61075797764E+02 -0.31997365231E+02  0.49841062785E+02  0.85077705622E+02  0.00000000000E+00 0. -1.
          2    1    1    2  501    0 -0.44228653321E+03 -0.31504717430E+03 -0.11596891132E+04  0.12805276017E+04  0.25500000000E-02 0. -1.
<mgrwt>
<rscale>  0 0.54101773E+03</rscale>
<asrwt>0</asrwt>
<pdfrwt beam="1">  1       11 0.10000000E+01 0.68949869E+02</pdfrwt>
<pdfrwt beam="2">  1        2 0.20232123E+00 0.54101773E+03</pdfrwt>
<totfact> 0.20647898E+01</totfact>
</mgrwt>
</event>
<event>
 5    1  0.2226716E-003  0.1297012E+03  0.7818608E-02  0.1227900E+00
         11   -1    0    0    0    0  0.00000000000E+00  0.00000000000E+00  0.10000969913E+04  0.10000969913E+04  0.51100000000E-03 0.  1.
          2   -1    0    0  501    0 -0.00000000000E+00 -0.00000000000E+00 -0.67177809031E+02  0.67177809080E+02  0.25500000000E-02 0.  1.
         11    1    1    2    0    0  0.37716623792E+02 -0.11544894466E+03  0.70381846456E+03  0.71422085771E+03  0.51100000000E-03 0.  1.
         22    1    1    2    0    0 -0.54801255646E+02 -0.15146845768E+02  0.21289009818E+03  0.22035153383E+03  0.00000000000E+00 0.  1.
          2    1    1    2  501    0  0.17084631854E+02  0.13059579042E+03  0.16210619535E+02  0.13270240885E+03  0.25500000000E-02 0.  1.
<mgrwt>
<rscale>  0 0.12970125E+03</rscale>
<asrwt>0</asrwt>
<pdfrwt beam="1">  1       11 0.10000000E+01 0.56855998E+02</pdfrwt>
<pdfrwt beam="2">  1        2 0.10336050E-01 0.12970125E+03</pdfrwt>
<totfact> 0.72866494E+02</totfact>
</mgrwt>
</event>
<event>
 5    1  0.2226716E-003  0.4118580E+03  0.7818608E-02  0.1039749E+00
         11   -1    0    0    0    0  0.00000000000E+00  0.00000000000E+00  0.10003295058E+04  0.10003295058E+04  0.51100000000E-03 0.  1.
          2   -1    0    0  501    0 -0.00000000000E+00 -0.00000000000E+00 -0.79437931345E+03  0.79437931346E+03  0.25500000000E-02 0.  1.
         11    1    1    2    0    0  0.14484354075E+03 -0.39957799666E+03  0.63658440971E+03  0.76542925042E+03  0.51100000000E-03 0.  1.
         22    1    1    2    0    0  0.35447207888E+02  0.30285759735E+02  0.23905206101E+03  0.24355619406E+03  0.00000000000E+00 0.  1.
          2    1    1    2  501    0 -0.18029074864E+03  0.36929223692E+03 -0.66968627835E+03  0.78572337480E+03  0.25500000000E-02 0.  1.
<mgrwt>
<rscale>  0 0.41185801E+03</rscale>
<asrwt>0</asrwt>
<pdfrwt beam="1">  1       11 0.10000000E+01 0.46623297E+02</pdfrwt>
<pdfrwt beam="2">  1        2 0.12225247E+00 0.41185801E+03</pdfrwt>
<totfact> 0.44041776E+01</totfact>
</mgrwt>
</event>
<event>
 5    1  0.2226716E-003  0.1591177E+03  0.7818608E-02  0.1508743E+00
         11   -1    0    0    0    0  0.00000000000E+00  0.00000000000E+00  0.10002820314E+04  0.10002820314E+04  0.51100000000E-03 0. -1.
          2   -1    0    0  501    0 -0.00000000000E+00 -0.00000000000E+00 -0.57097312207E+02  0.57097312264E+02  0.25500000000E-02 0. -1.
         11    1    1    2    0    0  0.16072023689E+03  0.75472102167E+02  0.13156369296E+03  0.22098877360E+03  0.51100000000E-03 0. -1.
         22    1    1    2    0    0 -0.15187198239E+03 -0.36537022444E+02  0.71462907484E+03  0.73150172088E+03  0.00000000000E+00 0. -1.
          2    1    1    2  501    0 -0.88482544996E+01 -0.38935079723E+02  0.96991951351E+02  0.10488884914E+03  0.25500000000E-02 0. -1.
<mgrwt>
<rscale>  0 0.39927835E+02</rscale>
<asrwt>0</asrwt>
<pdfrwt beam="1">  1       11 0.10000000E+01 0.15911767E+03</pdfrwt>
<pdfrwt beam="2">  1        2 0.87866791E-02 0.39927835E+02</pdfrwt>
<totfact> 0.81627909E+02</totfact>
</mgrwt>
</event>
<event>
 5    1  0.2226716E-003  0.2446825E+03  0.7818608E-02  0.1116712E+00
         11   -1    0    0    0    0  0.00000000000E+00  0.00000000000E+00  0.10004342645E+04  0.10004342645E+04  0.51100000000E-03 0. -1.
          2   -1    0    0  501    0 -0.00000000000E+00 -0.00000000000E+00 -0.94210070330E+02  0.94210070365E+02  0.25500000000E-02 0. -1.
         11    1    1    2    0    0  0.24425247959E+03 -0.10430867612E+02  0.13039927390E+03  0.27707769203E+03  0.51100000000E-03 0. -1.
         22    1    1    2    0    0  0.13789016390E+01  0.10948464393E+02  0.53294676419E+02  0.54425111638E+02  0.00000000000E+00 0.  1.
          2    1    1    2  501    0 -0.24563138123E+03 -0.51759678077E+00  0.72253024381E+03  0.76314153116E+03  0.25500000000E-02 0. -1.
<mgrwt>
<rscale>  0 0.24468253E+03</rscale>
<asrwt>0</asrwt>
<pdfrwt beam="1">  1       11 0.10000000E+01 0.11034955E+02</pdfrwt>
<pdfrwt beam="2">  1        2 0.14500151E-01 0.24468253E+03</pdfrwt>
<totfact> 0.49842211E+02</totfact>
</mgrwt>
</event>
<event>
 5    1  0.2226716E-003  0.1855721E+03  0.7818608E-02  0.1162517E+00
         11   -1    0    0    0    0  0.00000000000E+00  0.00000000000E+00  0.99993249401E+03  0.99993249401E+03  0.51100000000E-03 0. -1.
         -2   -1    0    0    0  501 -0.00000000000E+00 -0.00000000000E+00 -0.17111144282E+03  0.17111144284E+03  0.25500000000E-02 0.  1.
         11    1    1    2    0    0 -0.98992698237E+02 -0.88834492718E+02  0.68504195241E+03  0.69783493604E+03  0.51100000000E-03 0. -1.
         22    1    1    2    0    0 -0.81104696549E+02  0.25904466254E+02  0.24349069919E+03  0.25794715305E+03  0.00000000000E+00 0. -1.
         -2    1    1    2    0  501  0.18009739479E+03  0.62930026464E+02 -0.99711600403E+02  0.21526184776E+03  0.25500000000E-02 0.  1.
<mgrwt>
<rscale>  0 0.18557211E+03</rscale>
<asrwt>0</asrwt>
<pdfrwt beam="1">  1       11 0.10000000E+01 0.85141137E+02</pdfrwt>
<pdfrwt beam="2">  1       -2 0.26323060E-01 0.18557211E+03</pdfrwt>
<totfact> 0.10365296E+02</totfact>
</mgrwt>
</event>
<event>
 5    1  0.2226716E-003  0.1745466E+03  0.7818608E-02  0.1173188E+00
         11   -1    0    0    0    0  0.00000000000E+00  0.00000000000E+00  0.10001395024E+04  0.10001395024E+04  0.51100000000E-03 0. -1.
          2   -1    0    0  501    0 -0.00000000000E+00 -0.00000000000E+00 -0.21637533727E+03  0.21637533728E+03  0.25500000000E-02 0.  1.
         11    1    1    2    0    0  0.16142422662E+03  0.31519728237E+02  0.66793907885E+03  0.68789089779E+03  0.51100000000E-03 0. -1.
         22    1    1    2    0    0 -0.24151692143E+02  0.78867087623E+02  0.27751668531E+03  0.28951482237E+03  0.00000000000E+00 0. -1.
          2    1    1    2  501    0 -0.13727253447E+03 -0.11038681586E+03 -0.16169159903E+03  0.23910911953E+03  0.25500000000E-02 0.  1.
<mgrwt>
<rscale>  0 0.17454657E+03</rscale>
<asrwt>0</asrwt>
<pdfrwt beam="1">  1       11 0.10000000E+01 0.82482251E+02</pdfrwt>
<pdfrwt beam="2">  1        2 0.33293156E-01 0.17454657E+03</pdfrwt>
<totfact> 0.19249989E+02</totfact>
</mgrwt>
</event>
<event>
 5    1  0.2226716E-003  0.3585215E+03  0.7818608E-02  0.1306343E+00
         11   -1    0    0    0    0  0.00000000000E+00  0.00000000000E+00  0.10006587985E+04  0.10006587985E+04  0.51100000000E-03 0.  1.
          2   -1    0    0  501    0 -0.00000000000E+00 -0.00000000000E+00 -0.28204262676E+03  0.28204262677E+03  0.25500000000E-02 0.  1.
         11    1    1    2    0    0  0.33542177972E+03  0.25933654771E+03  0.36450841246E+02  0.42554891507E+03  0.51100000000E-03 0.  1.
         22    1    1    2    0    0 -0.29377234519E+03 -0.18116598460E+03  0.68659992263E+03  0.76846779928E+03  0.00000000000E+00 0.  1.
          2    1    1    2  501    0 -0.41649434523E+02 -0.78170563109E+02 -0.44345921548E+01  0.88684710897E+02  0.25500000000E-02 0.  1.
<mgrwt>
<rscale>  0 0.88573768E+02</rscale>
<asrwt>0</asrwt>
<pdfrwt beam="1">  1       11 0.10000000E+01 0.35852146E+03</pdfrwt>
<pdfrwt beam="2">  1        2 0.43419758E-01 0.88573768E+02</pdfrwt>
<totfact> 0.14398482E+02</totfact>
</mgrwt>
</event>
<event>
 5    1  0.2226716E-003  0.2549845E+03  0.7818608E-02  0.1110195E+00
         11   -1    0    0    0    0  0.00000000000E+00  0.00000000000E+00  0.10000438997E+04  0.10000438997E+04  0.51100000000E-03 0. -1.
          2   -1    0    0  501    0 -0.00000000000E+00 -0.00000000000E+00 -0.58327381685E+03  0.58327381686E+03  0.25500000000E-02 0. -1.
         11    1    1    2    0    0 -0.18979614949E+03 -0.11646223515E+03  0.79589300568E+03  0.82645732319E+03  0.51100000000E-03 0. -1.
         22    1    1    2    0    0 -0.67661295551E+02  0.12318641990E+03  0.12671374666E+03  0.18923350273E+03  0.00000000000E+00 0.  1.
          2    1    1    2  501    0  0.25745744504E+03 -0.67241847539E+01 -0.50583666954E+03  0.56762689059E+03  0.25500000000E-02 0. -1.
<mgrwt>
<rscale>  0 0.25498452E+03</rscale>
<asrwt>0</asrwt>
<pdfrwt beam="1">  1       11 0.10000000E+01 0.14054517E+03</pdfrwt>
<pdfrwt beam="2">  1        2 0.89738370E-01 0.25498452E+03</pdfrwt>
<totfact> 0.65115396E+01</totfact>
</mgrwt>
</event>
<event>
 5    1  0.2226716E-003  0.1382941E+03  0.7818608E-02  0.1651972E+00
         11   -1    0    0    0    0  0.00000000000E+00  0.00000000000E+00  0.10005801948E+04  0.10005801948E+04  0.51100000000E-03 0. -1.
          2   -1    0    0  501    0 -0.00000000000E+00 -0.00000000000E+00 -0.72173618746E+03  0.72173618747E+03  0.25500000000E-02 0. -1.
         11    1    1    2    0    0 -0.20488795850E+02  0.13355722633E+03  0.25642326686E+03  0.28984515737E+03  0.51100000000E-03 0. -1.
         22    1    1    2    0    0 -0.42842656367E+01 -0.14016918856E+03  0.72044992411E+03  0.73397128657E+03  0.00000000000E+00 0. -1.
          2    1    1    2  501    0  0.24773061486E+02  0.66119622277E+01 -0.69802918364E+03  0.69849993833E+03  0.25500000000E-02 0. -1.
<mgrwt>
<rscale>  0 0.25640254E+02</rscale>
<asrwt>0</asrwt>
<pdfrwt beam="1">  1       11 0.10000000E+01 0.13829410E+03</pdfrwt>
<pdfrwt beam="2">  1        2 0.11110076E+00 0.25640254E+02</pdfrwt>
<totfact> 0.54291856E+01</totfact>
</mgrwt>
</event>
<event>
 5    1  0.2226716E-003  0.3712888E+03  0.7818608E-02  0.1381951E+00
         11   -1    0    0    0    0  0.00000000000E+00  0.00000000000E+00  0.10001640445E+04  0.10001640446E+04  0.51100000000E-03 0. -1.
          2   -1    0    0  501    0 -0.00000000000E+00 -0.00000000000E+00 -0.23825868903E+03  0.23825868904E+03  0.25500000000E-02 0. -1.
         11    1    1    2    0    0  0.33871772364E+03 -0.49788541803E+02  0.38271513989E+03  0.51349729650E+03  0.51100000000E-03 0. -1.
         22    1    1    2    0    0 -0.40245150715E+03  0.44490442311E+02  0.46585022322E+03  0.61722203909E+03  0.00000000000E+00 0. -1.
          2    1    1    2  501    0  0.63733783507E+02  0.52980994917E+01 -0.86660007596E+02  0.10770339800E+03  0.25500000000E-02 0. -1.
<mgrwt>
<rscale>  0 0.63953616E+02</rscale>
<asrwt>0</asrwt>
<pdfrwt beam="1">  1       11 0.10000000E+01 0.37128878E+03</pdfrwt>
<pdfrwt beam="2">  1        2 0.36661195E-01 0.63953616E+02</pdfrwt>
<totfact> 0.17096354E+02</totfact>
</mgrwt>
</event>
<event>
 5    1  0.2226716E-003  0.4110310E+03  0.7818608E-02  0.1040026E+00
         11   -1    0    0    0    0  0.00000000000E+00  0.00000000000E+00  0.10004031375E+04  0.10004031375E+04  0.51100000000E-03 0. -1.
          2   -1    0    0  501    0 -0.00000000000E+00 -0.00000000000E+00 -0.31951368167E+03  0.31951368168E+03  0.25500000000E-02 0. -1.
         11    1    1    2    0    0 -0.36612305674E+03  0.17471512807E+03  0.71219454904E+03  0.81962951651E+03  0.51100000000E-03 0. -1.
         22    1    1    2    0    0 -0.70397777948E+00  0.13246711438E+02  0.73747647087E+02  0.74931211118E+02  0.00000000000E+00 0.  1.
          2    1    1    2  501    0  0.36682703452E+03 -0.18796183951E+03 -0.10505274030E+03  0.42535609155E+03  0.25500000000E-02 0. -1.
<mgrwt>
<rscale>  0 0.41103100E+03</rscale>
<asrwt>0</asrwt>
<pdfrwt beam="1">  1       11 0.10000000E+01 0.13265404E+02</pdfrwt>
<pdfrwt beam="2">  1        2 0.49175766E-01 0.41103100E+03</pdfrwt>
<totfact> 0.12663420E+02</totfact>
</mgrwt>
</event>
<event>
 5    1  0.2226716E-003  0.1933203E+03  0.7818608E-02  0.1268367E+00
         11   -1    0    0    0    0  0.00000000000E+00  0.00000000000E+00  0.10004870767E+04  0.10004870767E+04  0.51100000000E-03 0. -1.
          2   -1    0    0  501    0 -0.00000000000E+00 -0.00000000000E+00 -0.45569718235E+03  0.45569718236E+03  0.25500000000E-02 0. -1.
         11    1    1    2    0    0 -0.84423526196E+02  0.14780379344E+03  0.46889990117E+03  0.49883906267E+03  0.51100000000E-03 0. -1.
         22    1    1    2    0    0  0.18944889022E+03 -0.16134358120E+03  0.47941903691E+03  0.54015298403E+03  0.00000000000E+00 0. -1.
          2    1    1    2  501    0 -0.10502536402E+03  0.13539787758E+02 -0.40352904372E+03  0.41719221238E+03  0.25500000000E-02 0. -1.
<mgrwt>
<rscale>  0 0.10589454E+03</rscale>
<asrwt>0</asrwt>
<pdfrwt beam="1">  1       11 0.10000000E+01 0.19332033E+03</pdfrwt>
<pdfrwt beam="2">  1        2 0.70141404E-01 0.10589454E+03</pdfrwt>
<totfact> 0.86895796E+01</totfact>
</mgrwt>
</event>
<event>
 5    1  0.2226716E-003  0.2817943E+03  0.7818608E-02  0.1478965E+00
         11   -1    0    0    0    0  0.00000000000E+00  0.00000000000E+00  0.10007372323E+04  0.10007372323E+04  0.51100000000E-03 0. -1.
          2   -1    0    0  501    0 -0.00000000000E+00 -0.00000000000E+00 -0.30867810404E+04  0.30867810404E+04  0.25500000000E-02 0.  1.
         11    1    1    2    0    0  0.29599238256E+03 -0.11783843840E+03  0.46699427886E+02  0.32199103196E+03  0.51100000000E-03 0. -1.
         22    1    1    2    0    0 -0.25953821900E+03  0.92723951225E+02  0.79295957335E+03  0.83948954921E+03  0.00000000000E+00 0. -1.
          2    1    1    2  501    0 -0.36454163555E+02  0.25114487178E+02 -0.29257028094E+04  0.29260376915E+04  0.25500000000E-02 0.  1.
<mgrwt>
<rscale>  0 0.44267861E+02</rscale>
<asrwt>0</asrwt>
<pdfrwt beam="1">  1       11 0.10000000E+01 0.28179433E+03</pdfrwt>
<pdfrwt beam="2">  1        2 0.47523948E+00 0.44267861E+02</pdfrwt>
<totfact> 0.31168868E+00</totfact>
</mgrwt>
</event>
<event>
 5    1  0.2226716E-003  0.2127042E+03  0.7818608E-02  0.1430395E+00
         11   -1    0    0    0    0  0.00000000000E+00  0.00000000000E+00  0.10002169852E+04  0.10002169852E+04  0.51100000000E-03 0. -1.
          2   -1    0    0  501    0 -0.00000000000E+00 -0.00000000000E+00 -0.99845541937E+02  0.99845541970E+02  0.25500000000E-02 0. -1.
         11    1    1    2    0    0  0.20618619257E+03 -0.76591165415E+02  0.74189977564E+02  0.23212734737E+03  0.51100000000E-03 0. -1.
         22    1    1    2    0    0 -0.17538487101E+03  0.11957557991E+03  0.63277279240E+03  0.66742758340E+03  0.00000000000E+00 0. -1.
          2    1    1    2  501    0 -0.30801321560E+02 -0.42984414492E+02  0.19340867328E+03  0.20050759638E+03  0.25500000000E-02 0. -1.
<mgrwt>
<rscale>  0 0.52880822E+02</rscale>
<asrwt>0</asrwt>
<pdfrwt beam="1">  1       11 0.10000000E+01 0.21270419E+03</pdfrwt>
<pdfrwt beam="2">  1        2 0.15364185E-01 0.52880822E+02</pdfrwt>
<totfact> 0.43464905E+02</totfact>
</mgrwt>
</event>
<event>
 5    1  0.2226716E-003  0.8394894E+02  0.7818608E-02  0.1453660E+00
         11   -1    0    0    0    0  0.00000000000E+00  0.00000000000E+00  0.10000238056E+04  0.10000238056E+04  0.51100000000E-03 0.  1.
         -2   -1    0    0    0  501 -0.00000000000E+00 -0.00000000000E+00 -0.12960745092E+03  0.12960745094E+03  0.25500000000E-02 0.  1.
         11    1    1    2    0    0 -0.43070355341E+02 -0.96089957199E+02  0.60553813984E+03  0.61462571878E+03  0.51100000000E-03 0.  1.
         22    1    1    2    0    0  0.52379559944E+02  0.48501825176E+02  0.38180584007E+03  0.38842212200E+03  0.00000000000E+00 0.  1.
         -2    1    1    2    0  501 -0.93092046020E+01  0.47588132023E+02 -0.11692762523E+03  0.12658341577E+03  0.25500000000E-02 0.  1.
<mgrwt>
<rscale>  0 0.48490119E+02</rscale>
<asrwt>0</asrwt>
<pdfrwt beam="1">  1       11 0.10000000E+01 0.83948944E+02</pdfrwt>
<pdfrwt beam="2">  1       -2 0.19940082E-01 0.48490119E+02</pdfrwt>
<totfact> 0.15922981E+02</totfact>
</mgrwt>
</event>
<event>
 5    1  0.2226716E-003  0.1070613E+03  0.7818608E-02  0.1266111E+00
         11   -1    0    0    0    0  0.00000000000E+00  0.00000000000E+00  0.10005288284E+04  0.10005288284E+04  0.51100000000E-03 0. -1.
          2   -1    0    0  501    0 -0.00000000000E+00 -0.00000000000E+00 -0.27921908081E+02  0.27921908197E+02  0.25500000000E-02 0. -1.
         11    1    1    2    0    0  0.55976575499E+02  0.86494044163E+02  0.11479279776E+03  0.15424650109E+03  0.51100000000E-03 0. -1.
         22    1    1    2    0    0 -0.11515525751E+02  0.36084442296E+02  0.17515682094E+03  0.17920548605E+03  0.00000000000E+00 0. -1.
          2    1    1    2  501    0 -0.44461049748E+02 -0.12257848646E+03  0.68265730165E+03  0.69499874948E+03  0.25500000000E-02 0. -1.
<mgrwt>
<rscale>  0 0.10706128E+03</rscale>
<asrwt>0</asrwt>
<pdfrwt beam="1">  1       11 0.10000000E+01 0.37877359E+02</pdfrwt>
<pdfrwt beam="2">  1        2 0.42979497E-02 0.10706128E+03</pdfrwt>
<totfact> 0.21875128E+03</totfact>
</mgrwt>
</event>
<event>
 5    1  0.2226716E-003  0.3015645E+03  0.7818608E-02  0.1089200E+00
         11   -1    0    0    0    0  0.00000000000E+00  0.00000000000E+00  0.10002836174E+04  0.10002836174E+04  0.51100000000E-03 0. -1.
          2   -1    0    0  501    0 -0.00000000000E+00 -0.00000000000E+00 -0.31669792402E+03  0.31669792403E+03  0.25500000000E-02 0. -1.
         11    1    1    2    0    0  0.23745828228E+03  0.94901700553E+02  0.73427542960E+03  0.77753017633E+03  0.51100000000E-03 0. -1.
         22    1    1    2    0    0  0.42811746889E+02 -0.12217034158E+02  0.16842677519E+03  0.17421159604E+03  0.00000000000E+00 0. -1.
          2    1    1    2  501    0 -0.28027002917E+03 -0.82684666395E+02 -0.21911651142E+03  0.36523976904E+03  0.25500000000E-02 0. -1.
<mgrwt>
<rscale>  0 0.29221233E+03</rscale>
<asrwt>0</asrwt>
<pdfrwt beam="1">  1       11 0.10000000E+01 0.30156447E+03</pdfrwt>
<pdfrwt beam="2">  1        2 0.48736575E-01 0.29221233E+03</pdfrwt>
<totfact> 0.12793794E+02</totfact>
</mgrwt>
</event>
<event>
 5    1  0.2226716E-003  0.2612118E+03  0.7818608E-02  0.1106417E+00
         11   -1    0    0    0    0  0.00000000000E+00  0.00000000000E+00  0.10002913646E+04  0.10002913646E+04  0.51100000000E-03 0. -1.
          2   -1    0    0  501    0 -0.00000000000E+00 -0.00000000000E+00 -0.12972541184E+03  0.12972541187E+03  0.25500000000E-02 0. -1.
         11    1    1    2    0    0  0.12257669797E+03 -0.23631888390E+03  0.82948488042E+02  0.27884065959E+03  0.51100000000E-03 0. -1.
         22    1    1    2    0    0  0.30935215849E+02  0.39231239917E+02  0.29106816916E+03  0.29532483279E+03  0.00000000000E+00 0.  1.
          2    1    1    2  501    0 -0.15351191382E+03  0.19708764398E+03  0.49654929555E+03  0.55585128408E+03  0.25500000000E-02 0. -1.
<mgrwt>
<rscale>  0 0.26121177E+03</rscale>
<asrwt>0</asrwt>
<pdfrwt beam="1">  1       11 0.10000000E+01 0.49960762E+02</pdfrwt>
<pdfrwt beam="2">  1        2 0.19963570E-01 0.26121177E+03</pdfrwt>
<totfact> 0.34325988E+02</totfact>
</mgrwt>
</event>
<event>
 5    1  0.2226716E-003  0.6522813E+03  0.7818608E-02  0.9802508E-01
         11   -1    0    0    0    0  0.00000000000E+00  0.00000000000E+00  0.10003430389E+04  0.10003430389E+04  0.51100000000E-03 0. -1.
          2   -1    0    0  501    0 -0.00000000000E+00 -0.00000000000E+00 -0.87911467225E+03  0.87911467226E+03  0.25500000000E-02 0. -1.
         11    1    1    2    0    0 -0.61053399915E+03  0.19873040316E+03  0.66685028042E+03  0.92570774749E+03  0.51100000000E-03 0. -1.
         22    1    1    2    0    0 -0.10686829576E+02  0.60872024015E+01  0.60647600390E+02  0.61882095896E+02  0.00000000000E+00 0.  1.
          2    1    1    2  501    0  0.62122082873E+03 -0.20481760557E+03 -0.60626951422E+03  0.89186786772E+03  0.25500000000E-02 0. -1.
<mgrwt>
<rscale>  0 0.65228125E+03</rscale>
<asrwt>0</asrwt>
<pdfrwt beam="1">  1       11 0.10000000E+01 0.12298876E+02</pdfrwt>
<pdfrwt beam="2">  1        2 0.13529480E+00 0.65228125E+03</pdfrwt>
<totfact> 0.37818039E+01</totfact>
</mgrwt>
</event>
<event>
 5    1  0.2226716E-003  0.1511171E+03  0.7818608E-02  0.1199107E+00
         11   -1    0    0    0    0  0.00000000000E+00  0.00000000000E+00  0.99995568530E+03  0.99995568530E+03  0.51100000000E-03 0. -1.
         -2   -1    0    0    0  501 -0.00000000000E+00 -0.00000000000E+00 -0.31206161937E+02  0.31206162042E+02  0.25500000000E-02 0.  1.
         11    1    1    2    0    0  0.49030542120E+02  0.13657153214E+03  0.75840283867E+03  0.77215972645E+03  0.51100000000E-03 0. -1.
         22    1    1    2    0    0 -0.52687481580E+01 -0.14962122369E+02  0.54959107755E+01  0.16787788663E+02  0.00000000000E+00 0. -1.
         -2    1    1    2    0  501 -0.43761793962E+02 -0.12160940977E+03  0.20485077392E+03  0.24221433223E+03  0.25500000000E-02 0.  1.
<mgrwt>
<rscale>  0 0.15111708E+03</rscale>
<asrwt>0</asrwt>
<pdfrwt beam="1">  1       11 0.10000000E+01 0.14510609E+03</pdfrwt>
<pdfrwt beam="2">  1       -2 0.48007351E-02 0.15111708E+03</pdfrwt>
<totfact> 0.15849921E+03</totfact>
</mgrwt>
</event>
<event>
 5    1  0.2226716E-003  0.3590976E+03  0.7818608E-02  0.1059668E+00
         11   -1    0    0    0    0  0.00000000000E+00  0.00000000000E+00  0.99963853793E+03  0.99963853793E+03  0.51100000000E-03 0. -1.
          2   -1    0    0  501    0 -0.00000000000E+00 -0.00000000000E+00 -0.79947158698E+03  0.79947158698E+03  0.25500000000E-02 0. -1.
         11    1    1    2    0    0 -0.22926778636E+03  0.25418134954E+03  0.89633326786E+03  0.95947131452E+03  0.51100000000E-03 0. -1.
         22    1    1    2    0    0 -0.61045724564E+01  0.14603857891E+02  0.27983423401E+02  0.32149812681E+02  0.00000000000E+00 0.  1.
          2    1    1    2  501    0  0.23537235882E+03 -0.26878520744E+03 -0.72414974031E+03  0.80748899771E+03  0.25500000000E-02 0. -1.
<mgrwt>
<rscale>  0 0.35727529E+03</rscale>
<asrwt>0</asrwt>
<pdfrwt beam="1">  1       11 0.10000000E+01 0.35909764E+03</pdfrwt>
<pdfrwt beam="2">  1        2 0.12295117E+00 0.35727529E+03</pdfrwt>
<totfact> 0.43940523E+01</totfact>
</mgrwt>
</event>
<event>
 5    1  0.2226716E-003  0.1648572E+03  0.7818608E-02  0.1183320E+00
         11   -1    0    0    0    0  0.00000000000E+00  0.00000000000E+00  0.10002413646E+04  0.10002413646E+04  0.51100000000E-03 0.  1.
          2   -1    0    0  501    0 -0.00000000000E+00 -0.00000000000E+00 -0.47075304591E+02  0.47075304660E+02  0.25500000000E-02 0.  1.
         11    1    1    2    0    0 -0.85540537500E+02  0.15105325378E+03  0.72827684644E+03  0.74867979411E+03  0.51100000000E-03 0.  1.
         22    1    1    2    0    0 -0.86919812757E+01 -0.18262216793E+02  0.73753905672E+02  0.76476778845E+02  0.00000000000E+00 0. -1.
          2    1    1    2  501    0  0.94232518776E+02 -0.13279103699E+03  0.15113530794E+03  0.22216009635E+03  0.25500000000E-02 0.  1.
<mgrwt>
<rscale>  0 0.16485723E+03</rscale>
<asrwt>0</asrwt>
<pdfrwt beam="1">  1       11 0.10000000E+01 0.20225210E+02</pdfrwt>
<pdfrwt beam="2">  1        2 0.72441024E-02 0.16485723E+03</pdfrwt>
<totfact> 0.11520688E+03</totfact>
</mgrwt>
</event>
<event>
 5    1  0.2226716E-003  0.1345538E+03  0.7818608E-02  0.1220851E+00
         11   -1    0    0    0    0  0.00000000000E+00  0.00000000000E+00  0.10003939651E+04  0.10003939651E+04  0.51100000000E-03 0. -1.
          2   -1    0    0  501    0 -0.00000000000E+00 -0.00000000000E+00 -0.27206712966E+02  0.27206713086E+02  0.25500000000E-02 0. -1.
         11    1    1    2    0    0  0.68044721149E+02  0.10266938603E+03  0.40638106118E+03  0.42463708481E+03  0.51100000000E-03 0. -1.
         22    1    1    2    0    0  0.43912040989E+02 -0.88643207482E+01  0.25164958075E+03  0.25560585873E+03  0.00000000000E+00 0. -1.
          2    1    1    2  501    0 -0.11195676214E+03 -0.93805065284E+02  0.31515661022E+03  0.34735773467E+03  0.25500000000E-02 0. -1.
<mgrwt>
<rscale>  0 0.13455375E+03</rscale>
<asrwt>0</asrwt>
<pdfrwt beam="1">  1       11 0.10000000E+01 0.44797807E+02</pdfrwt>
<pdfrwt beam="2">  1        2 0.41872970E-02 0.13455375E+03</pdfrwt>
<totfact> 0.23115499E+03</totfact>
</mgrwt>
</event>
<event>
 5    1  0.2226716E-003  0.3628246E+03  0.7818608E-02  0.1057471E+00
         11   -1    0    0    0    0  0.00000000000E+00  0.00000000000E+00  0.10008620553E+04  0.10008620553E+04  0.51100000000E-03 0. -1.
          2   -1    0    0  501    0 -0.00000000000E+00 -0.00000000000E+00 -0.21454510375E+04  0.21454510375E+04  0.25500000000E-02 0.  1.
         11    1    1    2    0    0 -0.30778785073E+03  0.19322048573E+02  0.89384738487E+03  0.94555266910E+03  0.51100000000E-03 0. -1.
         22    1    1    2    0    0 -0.52691626057E+02 -0.68842998883E+02  0.36571128803E+02  0.94091516162E+02  0.00000000000E+00 0. -1.
          2    1    1    2  501    0  0.36047947678E+03  0.49520950310E+02 -0.20750074959E+04  0.21066689075E+04  0.25500000000E-02 0.  1.
<mgrwt>
<rscale>  0 0.36282465E+03</rscale>
<asrwt>0</asrwt>
<pdfrwt beam="1">  1       11 0.10000000E+01 0.86693517E+02</pdfrwt>
<pdfrwt beam="2">  1        2 0.33035392E+00 0.36282465E+03</pdfrwt>
<totfact> 0.75561284E+00</totfact>
</mgrwt>
</event>
<event>
 5    1  0.2226716E-003  0.1538135E+03  0.7818608E-02  0.1195864E+00
         11   -1    0    0    0    0  0.00000000000E+00  0.00000000000E+00  0.10001795245E+04  0.10001795245E+04  0.51100000000E-03 0.  1.
         -2   -1    0    0    0  501 -0.00000000000E+00 -0.00000000000E+00 -0.57774811216E+02  0.57774811273E+02  0.25500000000E-02 0. -1.
         11    1    1    2    0    0  0.48888831273E+02  0.10432780771E+03  0.44757409136E+03  0.46216552938E+03  0.51100000000E-03 0.  1.
         22    1    1    2    0    0  0.11040277761E+03 -0.23979324447E+02  0.34429211842E+03  0.36235458340E+03  0.00000000000E+00 0.  1.
         -2    1    1    2    0  501 -0.15929160888E+03 -0.80348483266E+02  0.15053850351E+03  0.23343422300E+03  0.25500000000E-02 0. -1.
<mgrwt>
<rscale>  0 0.15381346E+03</rscale>
<asrwt>0</asrwt>
<pdfrwt beam="1">  1       11 0.10000000E+01 0.11297691E+03</pdfrwt>
<pdfrwt beam="2">  1       -2 0.88900279E-02 0.15381346E+03</pdfrwt>
<totfact> 0.61849786E+02</totfact>
</mgrwt>
</event>
<event>
 5    1  0.2226716E-003  0.1360655E+03  0.7818608E-02  0.1232803E+00
         11   -1    0    0    0    0  0.00000000000E+00  0.00000000000E+00  0.10004182437E+04  0.10004182437E+04  0.51100000000E-03 0. -1.
          2   -1    0    0  501    0 -0.00000000000E+00 -0.00000000000E+00 -0.22568092480E+02  0.22568092624E+02  0.25500000000E-02 0. -1.
         11    1    1    2    0    0  0.52058846102E+02  0.74204665501E+02  0.52455906925E+03  0.53233323489E+03  0.51100000000E-03 0. -1.
         22    1    1    2    0    0  0.44512950697E+02  0.74433881916E+01  0.22681687292E+03  0.23126327129E+03  0.00000000000E+00 0. -1.
          2    1    1    2  501    0 -0.96571796799E+02 -0.81648053693E+02  0.22647420906E+03  0.25938983015E+03  0.25500000000E-02 0. -1.
<mgrwt>
<rscale>  0 0.12646152E+03</rscale>
<asrwt>0</asrwt>
<pdfrwt beam="1">  1       11 0.10000000E+01 0.13606549E+03</pdfrwt>
<pdfrwt beam="2">  1        2 0.34734663E-02 0.12646152E+03</pdfrwt>
<totfact> 0.29445710E+03</totfact>
</mgrwt>
</event>
<event>
 5    1  0.2226716E-003  0.1380463E+03  0.7818608E-02  0.1707073E+00
         11   -1    0    0    0    0  0.00000000000E+00  0.00000000000E+00  0.10003126474E+04  0.10003126474E+04  0.51100000000E-03 0. -1.
          2   -1    0    0  501    0 -0.00000000000E+00 -0.00000000000E+00 -0.99412572617E+02  0.99412572650E+02  0.25500000000E-02 0.  1.
         11    1    1    2    0    0  0.66571898264E+02 -0.12596471858E+03  0.56405027936E+03  0.58176597151E+03  0.51100000000E-03 0. -1.
         22    1    1    2    0    0 -0.44503595507E+02  0.12597865738E+03  0.41540515246E+03  0.43636295995E+03  0.00000000000E+00 0. -1.
          2    1    1    2  501    0 -0.22068302757E+02 -0.13938802867E-01 -0.78555357050E+02  0.81596288571E+02  0.25500000000E-02 0.  1.
<mgrwt>
<rscale>  0 0.22068307E+02</rscale>
<asrwt>0</asrwt>
<pdfrwt beam="1">  1       11 0.10000000E+01 0.13804631E+03</pdfrwt>
<pdfrwt beam="2">  1        2 0.15299023E-01 0.22068307E+02</pdfrwt>
<totfact> 0.41260947E+02</totfact>
</mgrwt>
</event>
<event>
 5    1  0.2226716E-003  0.1481345E+03  0.7818608E-02  0.1569118E+00
         11   -1    0    0    0    0  0.00000000000E+00  0.00000000000E+00  0.10003286942E+04  0.10003286942E+04  0.51100000000E-03 0. -1.
          2   -1    0    0  501    0 -0.00000000000E+00 -0.00000000000E+00 -0.36299867468E+03  0.36299867469E+03  0.25500000000E-02 0. -1.
         11    1    1    2    0    0  0.12265406651E+03  0.29140946309E+02  0.16436932310E+03  0.20714847129E+03  0.51100000000E-03 0. -1.
         22    1    1    2    0    0 -0.14764942315E+03 -0.50369036700E+02  0.80628838996E+03  0.82124196179E+03  0.00000000000E+00 0. -1.
          2    1    1    2  501    0  0.24995356644E+02  0.21228090391E+02 -0.33332769355E+03  0.33493693581E+03  0.25500000000E-02 0. -1.
<mgrwt>
<rscale>  0 0.32793287E+02</rscale>
<asrwt>0</asrwt>
<pdfrwt beam="1">  1       11 0.10000000E+01 0.14813452E+03</pdfrwt>
<pdfrwt beam="2">  1        2 0.55864305E-01 0.32793287E+02</pdfrwt>
<totfact> 0.11033129E+02</totfact>
</mgrwt>
</event>
<event>
 5    1  0.2226716E-003  0.1662976E+03  0.7818608E-02  0.1356833E+00
         11   -1    0    0    0    0  0.00000000000E+00  0.00000000000E+00  0.10000689280E+04  0.10000689280E+04  0.51100000000E-03 0.  1.
          2   -1    0    0  501    0 -0.00000000000E+00 -0.00000000000E+00 -0.34862855730E+03  0.34862855731E+03  0.25500000000E-02 0. -1.
         11    1    1    2    0    0 -0.14294075323E+02  0.14583281715E+03  0.28675343258E+03  0.32202338773E+03  0.51100000000E-03 0.  1.
         22    1    1    2    0    0 -0.49037275118E+02 -0.17785718170E+03  0.67942795388E+03  0.70403137426E+03  0.00000000000E+00 0.  1.
          2    1    1    2  501    0  0.63331350441E+02  0.32024364547E+02 -0.31474101578E+03  0.32264272330E+03  0.25500000000E-02 0. -1.
<mgrwt>
<rscale>  0 0.70967738E+02</rscale>
<asrwt>0</asrwt>
<pdfrwt beam="1">  1       11 0.10000000E+01 0.16629760E+03</pdfrwt>
<pdfrwt beam="2">  1        2 0.53638858E-01 0.70967738E+02</pdfrwt>
<totfact> 0.11541423E+02</totfact>
</mgrwt>
</event>
<event>
 5    1  0.2226716E-003  0.2330265E+03  0.7818608E-02  0.1124528E+00
         11   -1    0    0    0    0  0.00000000000E+00  0.00000000000E+00  0.10002440834E+04  0.10002440834E+04  0.51100000000E-03 0.  1.
          2   -1    0    0  501    0 -0.00000000000E+00 -0.00000000000E+00 -0.54835045521E+03  0.54835045522E+03  0.25500000000E-02 0.  1.
         11    1    1    2    0    0 -0.23549036054E+03 -0.35364269807E+02  0.86287543481E+03  0.89513147498E+03  0.51100000000E-03 0.  1.
         22    1    1    2    0    0  0.27999250696E+01  0.25135156822E+02  0.94006563159E+02  0.97349111993E+02  0.00000000000E+00 0.  1.
          2    1    1    2  501    0  0.23269043547E+03  0.10229112985E+02 -0.50498836982E+03  0.55611395161E+03  0.25500000000E-02 0.  1.
<mgrwt>
<rscale>  0 0.23302648E+03</rscale>
<asrwt>0</asrwt>
<pdfrwt beam="1">  1       11 0.10000000E+01 0.25290625E+02</pdfrwt>
<pdfrwt beam="2">  1        2 0.84382197E-01 0.23302648E+03</pdfrwt>
<totfact> 0.70012254E+01</totfact>
</mgrwt>
</event>
<event>
 5    1  0.2226716E-003  0.1323407E+03  0.7818608E-02  0.1224023E+00
         11   -1    0    0    0    0  0.00000000000E+00  0.00000000000E+00  0.10001966822E+04  0.10001966822E+04  0.51100000000E-03 0. -1.
          2   -1    0    0  501    0 -0.00000000000E+00 -0.00000000000E+00 -0.27412510750E+02  0.27412510868E+02  0.25500000000E-02 0. -1.
         11    1    1    2    0    0  0.17284596915E+02  0.12604028335E+03  0.73235167525E+03  0.74331950504E+03  0.51100000000E-03 0. -1.
         22    1    1    2    0    0 -0.11607885783E+02  0.77971587338E+01  0.46741119867E+02  0.48788020897E+02  0.00000000000E+00 0.  1.
          2    1    1    2  501    0 -0.56767111329E+01 -0.13383744209E+03  0.19369137633E+03  0.23550166714E+03  0.25500000000E-02 0. -1.
<mgrwt>
<rscale>  0 0.13234067E+03</rscale>
<asrwt>0</asrwt>
<pdfrwt beam="1">  1       11 0.10000000E+01 0.13983515E+02</pdfrwt>
<pdfrwt beam="2">  1        2 0.42181387E-02 0.13234067E+03</pdfrwt>
<totfact> 0.22859234E+03</totfact>
</mgrwt>
</event>
<event>
 5    1  0.2226716E-003  0.1265066E+03  0.7818608E-02  0.1232733E+00
         11   -1    0    0    0    0  0.00000000000E+00  0.00000000000E+00  0.10002364714E+04  0.10002364714E+04  0.51100000000E-03 0. -1.
          2   -1    0    0  501    0 -0.00000000000E+00 -0.00000000000E+00 -0.14580667218E+02  0.14580667441E+02  0.25500000000E-02 0. -1.
         11    1    1    2    0    0  0.11284379973E+03  0.19952883253E+02  0.43838585712E+03  0.45311587967E+03  0.51100000000E-03 0. -1.
         22    1    1    2    0    0 -0.31907039593E+02  0.17868187016E+02  0.13521790435E+03  0.14007574001E+03  0.00000000000E+00 0. -1.
          2    1    1    2  501    0 -0.80936760133E+02 -0.37821070268E+02  0.41205204268E+03  0.42162551913E+03  0.25500000000E-02 0. -1.
<mgrwt>
<rscale>  0 0.12650656E+03</rscale>
<asrwt>0</asrwt>
<pdfrwt beam="1">  1       11 0.10000000E+01 0.11459430E+03</pdfrwt>
<pdfrwt beam="2">  1        2 0.22437100E-02 0.12650656E+03</pdfrwt>
<totfact> 0.53008045E+03</totfact>
</mgrwt>
</event>
<event>
 5    1  0.2226716E-003  0.1619079E+03  0.7818608E-02  0.1186559E+00
         11   -1    0    0    0    0  0.00000000000E+00  0.00000000000E+00  0.10001982147E+04  0.10001982147E+04  0.51100000000E-03 0.  1.
          2   -1    0    0  501    0 -0.00000000000E+00 -0.00000000000E+00 -0.46204287820E+02  0.46204287890E+02  0.25500000000E-02 0. -1.
         11    1    1    2    0    0  0.15501138223E+03  0.16720730501E+02  0.74837033721E+03  0.76443853452E+03  0.51100000000E-03 0.  1.
         22    1    1    2    0    0  0.83496217569E+01 -0.12237748655E+02  0.64067144261E+02  0.65757719314E+02  0.00000000000E+00 0.  1.
          2    1    1    2  501    0 -0.16336100399E+03 -0.44829818457E+01  0.14155644537E+03  0.21620624871E+03  0.25500000000E-02 0. -1.
<mgrwt>
<rscale>  0 0.16190792E+03</rscale>
<asrwt>0</asrwt>
<pdfrwt beam="1">  1       11 0.10000000E+01 0.14814813E+02</pdfrwt>
<pdfrwt beam="2">  1        2 0.71097608E-02 0.16190792E+03</pdfrwt>
<totfact> 0.11785154E+03</totfact>
</mgrwt>
</event>
<event>
 5    1  0.2226716E-003  0.1455200E+03  0.7818608E-02  0.1206089E+00
         11   -1    0    0    0    0  0.00000000000E+00  0.00000000000E+00  0.10001825159E+04  0.10001825159E+04  0.51100000000E-03 0. -1.
          2   -1    0    0  501    0 -0.00000000000E+00 -0.00000000000E+00 -0.20556074771E+02  0.20556074929E+02  0.25500000000E-02 0. -1.
         11    1    1    2    0    0  0.52049398189E+02  0.13067231692E+03  0.44861650328E+03  0.47015014759E+03  0.51100000000E-03 0. -1.
         22    1    1    2    0    0 -0.13826719737E+02 -0.65533125924E+01  0.45240303433E+02  0.47757817573E+02  0.00000000000E+00 0. -1.
          2    1    1    2  501    0 -0.38222678453E+02 -0.12411900433E+03  0.48576963439E+03  0.50283062564E+03  0.25500000000E-02 0. -1.
<mgrwt>
<rscale>  0 0.14552003E+03</rscale>
<asrwt>0</asrwt>
<pdfrwt beam="1">  1       11 0.10000000E+01 0.14065708E+03</pdfrwt>
<pdfrwt beam="2">  1        2 0.31630502E-02 0.14552003E+03</pdfrwt>
<totfact> 0.33836013E+03</totfact>
</mgrwt>
</event>
<event>
 5    1  0.2226716E-003  0.1423189E+03  0.7818608E-02  0.1210242E+00
         11   -1    0    0    0    0  0.00000000000E+00  0.00000000000E+00  0.10003819928E+04  0.10003819928E+04  0.51100000000E-03 0. -1.
         -2   -1    0    0    0  501 -0.00000000000E+00 -0.00000000000E+00 -0.31380613961E+03  0.31380613962E+03  0.25500000000E-02 0. -1.
         11    1    1    2    0    0  0.74242387564E+02  0.95728505562E+02  0.59097841931E+03  0.60326724673E+03  0.51100000000E-03 0. -1.
         22    1    1    2    0    0 -0.15328497984E+03  0.24585918702E+02  0.36988983007E+03  0.40114740287E+03  0.00000000000E+00 0. -1.
         -2    1    1    2    0  501  0.79042592277E+02 -0.12031442426E+03 -0.27429239615E+03  0.30977348284E+03  0.25500000000E-02 0. -1.
<mgrwt>
<rscale>  0 0.14231885E+03</rscale>
<asrwt>0</asrwt>
<pdfrwt beam="1">  1       11 0.10000000E+01 0.12114404E+03</pdfrwt>
<pdfrwt beam="2">  1       -2 0.48296308E-01 0.14231885E+03</pdfrwt>
<totfact> 0.33380426E+01</totfact>
</mgrwt>
</event>
<event>
 5    1  0.2226716E-003  0.1509730E+03  0.7818608E-02  0.1199282E+00
         11   -1    0    0    0    0  0.00000000000E+00  0.00000000000E+00  0.10002145164E+04  0.10002145164E+04  0.51100000000E-03 0. -1.
          2   -1    0    0  501    0 -0.00000000000E+00 -0.00000000000E+00 -0.21060379320E+03  0.21060379322E+03  0.25500000000E-02 0.  1.
         11    1    1    2    0    0 -0.64301368350E+02 -0.13482709651E+03  0.64919719313E+03  0.66616064691E+03  0.51100000000E-03 0. -1.
         22    1    1    2    0    0  0.55864353476E+02 -0.16450249386E+02  0.31105480590E+03  0.31645936385E+03  0.00000000000E+00 0. -1.
          2    1    1    2  501    0  0.84370148747E+01  0.15127734589E+03 -0.17064127580E+03  0.22819829889E+03  0.25500000000E-02 0.  1.
<mgrwt>
<rscale>  0 0.15097299E+03</rscale>
<asrwt>0</asrwt>
<pdfrwt beam="1">  1       11 0.10000000E+01 0.58236043E+02</pdfrwt>
<pdfrwt beam="2">  1        2 0.32407533E-01 0.15097299E+03</pdfrwt>
<totfact> 0.19776413E+02</totfact>
</mgrwt>
</event>
<event>
 5    1  0.2226716E-003  0.4031212E+03  0.7818608E-02  0.1539535E+00
         11   -1    0    0    0    0  0.00000000000E+00  0.00000000000E+00  0.10002565026E+04  0.10002565026E+04  0.51100000000E-03 0.  1.
          2   -1    0    0  501    0 -0.00000000000E+00 -0.00000000000E+00 -0.23508731207E+03  0.23508731208E+03  0.25500000000E-02 0. -1.
         11    1    1    2    0    0  0.16539852705E+03  0.37739519442E+03  0.57564641836E+03  0.70792132648E+03  0.51100000000E-03 0.  1.
         22    1    1    2    0    0 -0.13103474901E+03 -0.36652447620E+03  0.24597200836E+03  0.46044817949E+03  0.00000000000E+00 0. -1.
          2    1    1    2  501    0 -0.34363778039E+02 -0.10870718219E+02 -0.56449236180E+02  0.66974308712E+02  0.25500000000E-02 0. -1.
<mgrwt>
<rscale>  0 0.36042222E+02</rscale>
<asrwt>0</asrwt>
<pdfrwt beam="1">  1       11 0.10000000E+01 0.40312117E+03</pdfrwt>
<pdfrwt beam="2">  1        2 0.36176555E-01 0.36042222E+02</pdfrwt>
<totfact> 0.17114709E+02</totfact>
</mgrwt>
</event>
<event>
 5    1  0.2226716E-003  0.2231789E+03  0.7818608E-02  0.1133595E+00
         11   -1    0    0    0    0  0.00000000000E+00  0.00000000000E+00  0.10003541438E+04  0.10003541438E+04  0.51100000000E-03 0. -1.
          2   -1    0    0  501    0 -0.00000000000E+00 -0.00000000000E+00 -0.13854377776E+03  0.13854377779E+03  0.25500000000E-02 0. -1.
         11    1    1    2    0    0 -0.45233594745E+02 -0.19783461236E+03  0.84971723767E+03  0.87361547372E+03  0.51100000000E-03 0. -1.
         22    1    1    2    0    0 -0.37094598984E+01 -0.17049236214E+02  0.39515122934E+02  0.43195850365E+02  0.00000000000E+00 0.  1.
          2    1    1    2  501    0  0.48943054644E+02  0.21488384857E+03 -0.27421994603E+02  0.22208659746E+03  0.25500000000E-02 0. -1.
<mgrwt>
<rscale>  0 0.22038714E+03</rscale>
<asrwt>0</asrwt>
<pdfrwt beam="1">  1       11 0.10000000E+01 0.22317888E+03</pdfrwt>
<pdfrwt beam="2">  1        2 0.21321975E-01 0.22038714E+03</pdfrwt>
<totfact> 0.31692629E+02</totfact>
</mgrwt>
</event>
<event>
 5    1  0.2226716E-003  0.6433644E+02  0.7818608E-02  0.1380485E+00
         11   -1    0    0    0    0  0.00000000000E+00  0.00000000000E+00  0.99972486351E+03  0.99972486351E+03  0.51100000000E-03 0.  1.
          2   -1    0    0  501    0 -0.00000000000E+00 -0.00000000000E+00 -0.10689410887E+02  0.10689411191E+02  0.25500000000E-02 0.  1.
         11    1    1    2    0    0  0.40165062617E+02  0.34077289678E+02  0.13948575279E+03  0.14909986304E+03  0.51100000000E-03 0.  1.
         22    1    1    2    0    0 -0.26624010331E+02 -0.84986767917E+02  0.51553939135E+03  0.52317535558E+03  0.00000000000E+00 0.  1.
          2    1    1    2  501    0 -0.13541052286E+02  0.50909478239E+02  0.33401030848E+03  0.33813905608E+03  0.25500000000E-02 0.  1.
<mgrwt>
<rscale>  0 0.64336442E+02</rscale>
<asrwt>0</asrwt>
<pdfrwt beam="1">  1       11 0.10000000E+01 0.52673491E+02</pdfrwt>
<pdfrwt beam="2">  1        2 0.16440723E-02 0.64336442E+02</pdfrwt>
<totfact> 0.73774241E+03</totfact>
</mgrwt>
</event>
<event>
 5    1  0.2226716E-003  0.4632732E+03  0.7818608E-02  0.1023836E+00
         11   -1    0    0    0    0  0.00000000000E+00  0.00000000000E+00  0.10001189580E+04  0.10001189580E+04  0.51100000000E-03 0.  1.
          2   -1    0    0  501    0 -0.00000000000E+00 -0.00000000000E+00 -0.28540793513E+03  0.28540793514E+03  0.25500000000E-02 0.  1.
         11    1    1    2    0    0  0.43969790445E+03  0.23155663206E+03  0.38655679136E+03  0.62958627207E+03  0.51100000000E-03 0.  1.
         22    1    1    2    0    0 -0.42460418198E+02 -0.35502960483E+02  0.18081517755E+03  0.18909647207E+03  0.00000000000E+00 0.  1.
          2    1    1    2  501    0 -0.39723748625E+03 -0.19605367158E+03  0.14733905396E+03  0.46684414900E+03  0.25500000000E-02 0.  1.
<mgrwt>
<rscale>  0 0.46327324E+03</rscale>
<asrwt>0</asrwt>
<pdfrwt beam="1">  1       11 0.10000000E+01 0.55347514E+02</pdfrwt>
<pdfrwt beam="2">  1        2 0.43914135E-01 0.46327324E+03</pdfrwt>
<totfact> 0.14336119E+02</totfact>
</mgrwt>
</event>
<event>
 5    1  0.2226716E-003  0.1584348E+03  0.7818608E-02  0.1191584E+00
         11   -1    0    0    0    0  0.00000000000E+00  0.00000000000E+00  0.10003145479E+04  0.10003145479E+04  0.51100000000E-03 0. -1.
          2   -1    0    0  501    0 -0.00000000000E+00 -0.00000000000E+00 -0.35935394305E+02  0.35935394395E+02  0.25500000000E-02 0. -1.
         11    1    1    2    0    0 -0.78522995036E+02 -0.12482086599E+03  0.70975141641E+03  0.72490908563E+03  0.51100000000E-03 0. -1.
         22    1    1    2    0    0 -0.15572338180E+01 -0.10765178040E+02  0.60050224112E+02  0.61027399186E+02  0.00000000000E+00 0.  1.
          2    1    1    2  501    0  0.80080228854E+02  0.13558604403E+03  0.19457751303E+03  0.25031345743E+03  0.25500000000E-02 0. -1.
<mgrwt>
<rscale>  0 0.15746879E+03</rscale>
<asrwt>0</asrwt>
<pdfrwt beam="1">  1       11 0.10000000E+01 0.15843482E+03</pdfrwt>
<pdfrwt beam="2">  1        2 0.55302610E-02 0.15746879E+03</pdfrwt>
<totfact> 0.16259173E+03</totfact>
</mgrwt>
</event>
<event>
 5    1  0.2226716E-003  0.1599203E+03  0.7818608E-02  0.1199029E+00
         11   -1    0    0    0    0  0.00000000000E+00  0.00000000000E+00  0.10001655357E+04  0.10001655357E+04  0.51100000000E-03 0. -1.
          2   -1    0    0  501    0 -0.00000000000E+00 -0.00000000000E+00 -0.59721134658E+02  0.59721134713E+02  0.25500000000E-02 0.  1.
         11    1    1    2    0    0 -0.11116021777E+03  0.61320974253E+02  0.73413340658E+03  0.74502933805E+03  0.51100000000E-03 0. -1.
         22    1    1    2    0    0 -0.83524931335E+01  0.31266645344E+02  0.15012395094E+03  0.15357267954E+03  0.00000000000E+00 0. -1.
          2    1    1    2  501    0  0.11951271091E+03 -0.92587619597E+02  0.56187043513E+02  0.16128465282E+03  0.25500000000E-02 0.  1.
<mgrwt>
<rscale>  0 0.15118120E+03</rscale>
<asrwt>0</asrwt>
<pdfrwt beam="1">  1       11 0.10000000E+01 0.15992033E+03</pdfrwt>
<pdfrwt beam="2">  1        2 0.91893875E-02 0.15118120E+03</pdfrwt>
<totfact> 0.84955493E+02</totfact>
</mgrwt>
</event>
<event>
 5    1  0.2226716E-003  0.1164326E+03  0.7818608E-02  0.1385216E+00
         11   -1    0    0    0    0  0.00000000000E+00  0.00000000000E+00  0.99995152970E+03  0.99995152970E+03  0.51100000000E-03 0. -1.
          2   -1    0    0  501    0 -0.00000000000E+00 -0.00000000000E+00 -0.33446535088E+02  0.33446535185E+02  0.25500000000E-02 0. -1.
         11    1    1    2    0    0  0.15890285636E+03  0.30986461456E+02  0.45900664218E+03  0.48672104548E+03  0.51100000000E-03 0. -1.
         22    1    1    2    0    0 -0.97603709642E+02 -0.15967012088E+02  0.45181097704E+03  0.46250901460E+03  0.00000000000E+00 0. -1.
          2    1    1    2  501    0 -0.61299146719E+02 -0.15019449369E+02  0.55687375399E+02  0.84168004807E+02  0.25500000000E-02 0. -1.
<mgrwt>
<rscale>  0 0.63112354E+02</rscale>
<asrwt>0</asrwt>
<pdfrwt beam="1">  1       11 0.10000000E+01 0.11643265E+03</pdfrwt>
<pdfrwt beam="2">  1        2 0.51453712E-02 0.63112354E+02</pdfrwt>
<totfact> 0.16483562E+03</totfact>
</mgrwt>
</event>
<event>
 5    1  0.2226716E-003  0.2116037E+03  0.7818608E-02  0.1140302E+00
         11   -1    0    0    0    0  0.00000000000E+00  0.00000000000E+00  0.10001881850E+04  0.10001881850E+04  0.51100000000E-03 0. -1.
          2   -1    0    0  501    0 -0.00000000000E+00 -0.00000000000E+00 -0.86758722967E+02  0.86758723004E+02  0.25500000000E-02 0. -1.
         11    1    1    2    0    0  0.38576893925E+02  0.26184541199E+03  0.29975414265E+03  0.39987966010E+03  0.51100000000E-03 0. -1.
         22    1    1    2    0    0  0.14177475016E+02 -0.94777764092E+02  0.39710212283E+03  0.40850204567E+03  0.00000000000E+00 0. -1.
          2    1    1    2  501    0 -0.52754368940E+02 -0.16706764790E+03  0.21657319650E+03  0.27856520218E+03  0.25500000000E-02 0. -1.
<mgrwt>
<rscale>  0 0.21160366E+03</rscale>
<asrwt>0</asrwt>
<pdfrwt beam="1">  1       11 0.10000000E+01 0.95832277E+02</pdfrwt>
<pdfrwt beam="2">  1        2 0.13350007E-01 0.21160366E+03</pdfrwt>
<totfact> 0.54718836E+02</totfact>
</mgrwt>
</event>
<event>
 5    1  0.2226716E-003  0.1090020E+03  0.7818608E-02  0.1551082E+00
         11   -1    0    0    0    0  0.00000000000E+00  0.00000000000E+00  0.10002710002E+04  0.10002710002E+04  0.51100000000E-03 0.  1.
          2   -1    0    0  501    0 -0.00000000000E+00 -0.00000000000E+00 -0.25524933405E+03  0.25524933406E+03  0.25500000000E-02 0.  1.
         11    1    1    2    0    0 -0.97139867323E+02 -0.31310034660E+02  0.40875886316E+03  0.42130782132E+03  0.51100000000E-03 0.  1.
         22    1    1    2    0    0  0.11764712960E+03  0.32908229644E+01  0.57806785342E+03  0.58992721566E+03  0.00000000000E+00 0.  1.
          2    1    1    2  501    0 -0.20507262281E+02  0.28019211695E+02 -0.24180505045E+03  0.24428529726E+03  0.25500000000E-02 0.  1.
<mgrwt>
<rscale>  0 0.34722097E+02</rscale>
<asrwt>0</asrwt>
<pdfrwt beam="1">  1       11 0.10000000E+01 0.10900200E+03</pdfrwt>
<pdfrwt beam="2">  1        2 0.39279769E-01 0.34722097E+02</pdfrwt>
<totfact> 0.15729082E+02</totfact>
</mgrwt>
</event>
<event>
 5    1  0.2226716E-003  0.3971028E+02  0.7818608E-02  0.1640476E+00
         11   -1    0    0    0    0  0.00000000000E+00  0.00000000000E+00  0.10008345726E+04  0.10008345726E+04  0.51100000000E-03 0. -1.
          2   -1    0    0  501    0 -0.00000000000E+00 -0.00000000000E+00 -0.23103228429E+02  0.23103228570E+02  0.25500000000E-02 0. -1.
         11    1    1    2    0    0 -0.42101119937E+02 -0.22620900065E+02  0.70748680138E+01  0.48314212996E+02  0.51100000000E-03 0. -1.
         22    1    1    2    0    0  0.16108980219E+02 -0.72647798972E+01  0.35755346791E+02  0.39883845036E+02  0.00000000000E+00 0.  1.
          2    1    1    2  501    0  0.25992139718E+02  0.29885679962E+02  0.93490112934E+03  0.93573974312E+03  0.25500000000E-02 0. -1.
<mgrwt>
<rscale>  0 0.26490253E+02</rscale>
<asrwt>0</asrwt>
<pdfrwt beam="1">  1       11 0.10000000E+01 0.39710280E+02</pdfrwt>
<pdfrwt beam="2">  1        2 0.35573091E-02 0.26490253E+02</pdfrwt>
<totfact> 0.23671249E+03</totfact>
</mgrwt>
</event>
<event>
 5    1  0.2226716E-003  0.1595925E+03  0.7818608E-02  0.1189158E+00
         11   -1    0    0    0    0  0.00000000000E+00  0.00000000000E+00  0.10004805007E+04  0.10004805007E+04  0.51100000000E-03 0.  1.
         -2   -1    0    0    0  501 -0.00000000000E+00 -0.00000000000E+00 -0.27323040190E+02  0.27323040309E+02  0.25500000000E-02 0. -1.
         11    1    1    2    0    0  0.12968787485E+03  0.88418113422E+02  0.63143414351E+03  0.65065027877E+03  0.51100000000E-03 0.  1.
         22    1    1    2    0    0 -0.70654870890E+01 -0.99238025396E+01  0.45224581284E+02  0.46836585240E+02  0.00000000000E+00 0. -1.
         -2    1    1    2    0  501 -0.12262238776E+03 -0.78494310882E+02  0.29649873574E+03  0.33031667703E+03  0.25500000000E-02 0. -1.
<mgrwt>
<rscale>  0 0.15959247E+03</rscale>
<asrwt>0</asrwt>
<pdfrwt beam="1">  1       11 0.10000000E+01 0.15696085E+03</pdfrwt>
<pdfrwt beam="2">  1       -2 0.42055643E-02 0.15959247E+03</pdfrwt>
<totfact> 0.19422516E+03</totfact>
</mgrwt>
</event>
<event>
 5    1  0.2226716E-003  0.2276776E+03  0.7818608E-02  0.1129030E+00
         11   -1    0    0    0    0  0.00000000000E+00  0.00000000000E+00  0.10002801194E+04  0.10002801194E+04  0.51100000000E-03 0. -1.
          2   -1    0    0  501    0 -0.00000000000E+00 -0.00000000000E+00 -0.38272786915E+03  0.38272786916E+03  0.25500000000E-02 0.  1.
         11    1    1    2    0    0 -0.19727629392E+03 -0.87799047925E+02  0.92314731635E+03  0.94806517531E+03  0.51100000000E-03 0. -1.
         22    1    1    2    0    0 -0.10109973493E+02 -0.36068853450E+01  0.28939857090E+02  0.30866430217E+02  0.00000000000E+00 0. -1.
          2    1    1    2  501    0  0.20738626742E+03  0.91405933270E+02 -0.33453492314E+03  0.40407638307E+03  0.25500000000E-02 0.  1.
<mgrwt>
<rscale>  0 0.22663651E+03</rscale>
<asrwt>0</asrwt>
<pdfrwt beam="1">  1       11 0.10000000E+01 0.22767763E+03</pdfrwt>
<pdfrwt beam="2">  1        2 0.58897703E-01 0.22663651E+03</pdfrwt>
<totfact> 0.10427022E+02</totfact>
</mgrwt>
</event>
<event>
 5    1  0.2226716E-003  0.2551679E+03  0.7818608E-02  0.1130101E+00
         11   -1    0    0    0    0  0.00000000000E+00  0.00000000000E+00  0.10001957950E+04  0.10001957950E+04  0.51100000000E-03 0. -1.
          2   -1    0    0  501    0 -0.00000000000E+00 -0.00000000000E+00 -0.10079821741E+03  0.10079821744E+03  0.25500000000E-02 0. -1.
         11    1    1    2    0    0 -0.98971229237E+02  0.73672522343E+02  0.37635074843E+03  0.39605912515E+03  0.51100000000E-03 0. -1.
         22    1    1    2    0    0  0.57768947661E+01  0.13128391562E+03  0.44913344171E+03  0.46796333989E+03  0.00000000000E+00 0. -1.
          2    1    1    2  501    0  0.93194334471E+02 -0.20495643797E+03  0.73913387488E+02  0.23697154744E+03  0.25500000000E-02 0. -1.
<mgrwt>
<rscale>  0 0.22514956E+03</rscale>
<asrwt>0</asrwt>
<pdfrwt beam="1">  1       11 0.10000000E+01 0.25516793E+03</pdfrwt>
<pdfrwt beam="2">  1        2 0.15510454E-01 0.22514956E+03</pdfrwt>
<totfact> 0.45869805E+02</totfact>
</mgrwt>
</event>
<event>
 5    1  0.2226716E-003  0.2580169E+03  0.7818608E-02  0.1109206E+00
         11   -1    0    0    0    0  0.00000000000E+00  0.00000000000E+00  0.10002133824E+04  0.10002133824E+04  0.51100000000E-03 0.  1.
          2   -1    0    0  501    0 -0.00000000000E+00 -0.00000000000E+00 -0.21386005722E+03  0.21386005723E+03  0.25500000000E-02 0.  1.
         11    1    1    2    0    0 -0.19211313713E+03 -0.15449326852E+03  0.83943048366E+03  0.87488237173E+03  0.51100000000E-03 0.  1.
         22    1    1    2    0    0 -0.88957043212E+01 -0.49954890458E+01  0.58502433846E+02  0.59385378942E+02  0.00000000000E+00 0.  1.
          2    1    1    2  501    0  0.20100884145E+03  0.15948875756E+03 -0.11157959234E+03  0.27980568894E+03  0.25500000000E-02 0.  1.
<mgrwt>
<rscale>  0 0.25659544E+03</rscale>
<asrwt>0</asrwt>
<pdfrwt beam="1">  1       11 0.10000000E+01 0.25801687E+03</pdfrwt>
<pdfrwt beam="2">  1        2 0.32908567E-01 0.25659544E+03</pdfrwt>
<totfact> 0.19593351E+02</totfact>
</mgrwt>
</event>
<event>
 5    1  0.2226716E-003  0.1488378E+03  0.7818608E-02  0.1315381E+00
         11   -1    0    0    0    0  0.00000000000E+00  0.00000000000E+00  0.10002239566E+04  0.10002239566E+04  0.51100000000E-03 0. -1.
          2   -1    0    0  501    0 -0.00000000000E+00 -0.00000000000E+00 -0.99222927132E+03  0.99222927132E+03  0.25500000000E-02 0. -1.
         11    1    1    2    0    0 -0.20902449720E+03  0.57917753040E+02  0.15480019086E+03  0.26647477486E+03  0.51100000000E-03 0. -1.
         22    1    1    2    0    0  0.14147455994E+03 -0.62905923836E+01  0.78127803478E+03  0.79400880995E+03  0.00000000000E+00 0. -1.
          2    1    1    2  501    0  0.67549937264E+02 -0.51627160657E+02 -0.92808354037E+03  0.93196964309E+03  0.25500000000E-02 0. -1.
<mgrwt>
<rscale>  0 0.85019749E+02</rscale>
<asrwt>0</asrwt>
<pdfrwt beam="1">  1       11 0.10000000E+01 0.14883782E+03</pdfrwt>
<pdfrwt beam="2">  1        2 0.15268484E+00 0.85019749E+02</pdfrwt>
<totfact> 0.35138965E+01</totfact>
</mgrwt>
</event>
<event>
 5    1  0.2226716E-003  0.8804140E+02  0.7818608E-02  0.1307665E+00
         11   -1    0    0    0    0  0.00000000000E+00  0.00000000000E+00  0.10001440389E+04  0.10001440389E+04  0.51100000000E-03 0. -1.
         -2   -1    0    0    0  501 -0.00000000000E+00 -0.00000000000E+00 -0.15271530439E+02  0.15271530652E+02  0.25500000000E-02 0.  1.
         11    1    1    2    0    0  0.73816190330E+01  0.10940805579E+03  0.64502388942E+03  0.65427855604E+03  0.51100000000E-03 0. -1.
         22    1    1    2    0    0  0.81262810920E+01 -0.28696673538E+02  0.16823313311E+03  0.17085643855E+03  0.00000000000E+00 0.  1.
         -2    1    1    2    0  501 -0.15507900125E+02 -0.80711382255E+02  0.17161548594E+03  0.19028057497E+03  0.25500000000E-02 0.  1.
<mgrwt>
<rscale>  0 0.88041399E+02</rscale>
<asrwt>0</asrwt>
<pdfrwt beam="1">  1       11 0.10000000E+01 0.29825082E+02</pdfrwt>
<pdfrwt beam="2">  1       -2 0.23498046E-02 0.88041399E+02</pdfrwt>
<totfact> 0.42770523E+03</totfact>
</mgrwt>
</event>
<event>
 5    1  0.2226716E-003  0.1417092E+03  0.7818608E-02  0.1593515E+00
         11   -1    0    0    0    0  0.00000000000E+00  0.00000000000E+00  0.10003350477E+04  0.10003350477E+04  0.51100000000E-03 0.  1.
          2   -1    0    0  501    0 -0.00000000000E+00 -0.00000000000E+00 -0.12957791066E+03  0.12957791069E+03  0.25500000000E-02 0. -1.
         11    1    1    2    0    0 -0.82832921955E+02  0.13796485742E+03  0.42458208544E+03  0.45405455853E+03  0.51100000000E-03 0.  1.
         22    1    1    2    0    0  0.74170415146E+02 -0.10880652862E+03  0.55109968501E+03  0.56661360200E+03  0.00000000000E+00 0.  1.
          2    1    1    2  501    0  0.86625068089E+01 -0.29158328802E+02 -0.10492463340E+03  0.10924479788E+03  0.25500000000E-02 0. -1.
<mgrwt>
<rscale>  0 0.30417876E+02</rscale>
<asrwt>0</asrwt>
<pdfrwt beam="1">  1       11 0.10000000E+01 0.14170920E+03</pdfrwt>
<pdfrwt beam="2">  1        2 0.19941742E-01 0.30417876E+02</pdfrwt>
<totfact> 0.31620957E+02</totfact>
</mgrwt>
</event>
<event>
 5    1  0.2226716E-003  0.4301933E+03  0.7818608E-02  0.1033799E+00
         11   -1    0    0    0    0  0.00000000000E+00  0.00000000000E+00  0.10001052505E+04  0.10001052505E+04  0.51100000000E-03 0.  1.
          2   -1    0    0  501    0 -0.00000000000E+00 -0.00000000000E+00 -0.55193080613E+03  0.55193080614E+03  0.25500000000E-02 0.  1.
         11    1    1    2    0    0  0.44230042886E+03  0.57575603895E+02  0.81316838893E+03  0.92746290939E+03  0.51100000000E-03 0.  1.
         22    1    1    2    0    0 -0.16136530132E+02 -0.12814737016E+02  0.33551734509E+02  0.39374153681E+02  0.00000000000E+00 0. -1.
          2    1    1    2  501    0 -0.42616389873E+03 -0.44760866879E+02 -0.39854567906E+03  0.58519899358E+03  0.25500000000E-02 0.  1.
<mgrwt>
<rscale>  0 0.43019333E+03</rscale>
<asrwt>0</asrwt>
<pdfrwt beam="1">  1       11 0.10000000E+01 0.20605948E+02</pdfrwt>
<pdfrwt beam="2">  1        2 0.84921366E-01 0.43019333E+03</pdfrwt>
<totfact> 0.68656984E+01</totfact>
</mgrwt>
</event>
<event>
 5    1  0.2226716E-003  0.2661816E+03  0.7818608E-02  0.1105711E+00
         11   -1    0    0    0    0  0.00000000000E+00  0.00000000000E+00  0.10004237007E+04  0.10004237007E+04  0.51100000000E-03 0. -1.
          2   -1    0    0  501    0 -0.00000000000E+00 -0.00000000000E+00 -0.39618238609E+03  0.39618238610E+03  0.25500000000E-02 0. -1.
         11    1    1    2    0    0 -0.22278812858E+03  0.10424942131E+03  0.90250983051E+03  0.93542850408E+03  0.51100000000E-03 0. -1.
         22    1    1    2    0    0 -0.12411989479E+02  0.12085521060E+02  0.33780895843E+02  0.37964012250E+02  0.00000000000E+00 0.  1.
          2    1    1    2  501    0  0.23520011806E+03 -0.11633494237E+03 -0.33204941177E+03  0.42321357045E+03  0.25500000000E-02 0. -1.
<mgrwt>
<rscale>  0 0.26239839E+03</rscale>
<asrwt>0</asrwt>
<pdfrwt beam="1">  1       11 0.10000000E+01 0.26618164E+03</pdfrwt>
<pdfrwt beam="2">  1        2 0.60976960E-01 0.26239839E+03</pdfrwt>
<totfact> 0.10030727E+02</totfact>
</mgrwt>
</event>
<event>
 5    1  0.2226716E-003  0.2023949E+03  0.7818608E-02  0.1730790E+00
         11   -1    0    0    0    0  0.00000000000E+00  0.00000000000E+00  0.10000626706E+04  0.10000626706E+04  0.51100000000E-03 0. -1.
          2   -1    0    0  501    0 -0.00000000000E+00 -0.00000000000E+00 -0.44335122549E+03  0.44335122550E+03  0.25500000000E-02 0. -1.
         11    1    1    2    0    0 -0.21573766703E+03 -0.10797553890E+02  0.35941757493E+03  0.41933318652E+03  0.51100000000E-03 0. -1.
         22    1    1    2    0    0  0.19511241760E+03  0.85151363306E+01  0.59479561478E+03  0.62603768769E+03  0.00000000000E+00 0. -1.
          2    1    1    2  501    0  0.20625249430E+02  0.22824175596E+01 -0.39750174458E+03  0.39804302191E+03  0.25500000000E-02 0. -1.
<mgrwt>
<rscale>  0 0.20751153E+02</rscale>
<asrwt>0</asrwt>
<pdfrwt beam="1">  1       11 0.10000000E+01 0.20239488E+03</pdfrwt>
<pdfrwt beam="2">  1        2 0.68212154E-01 0.20751153E+02</pdfrwt>
<totfact> 0.90284301E+01</totfact>
</mgrwt>
</event>
<event>
 5    1  0.2226716E-003  0.3219639E+03  0.7818608E-02  0.1074749E+00
         11   -1    0    0    0    0  0.00000000000E+00  0.00000000000E+00  0.10007955768E+04  0.10007955768E+04  0.51100000000E-03 0. -1.
          2   -1    0    0  501    0 -0.00000000000E+00 -0.00000000000E+00 -0.28765095250E+03  0.28765095251E+03  0.25500000000E-02 0. -1.
         11    1    1    2    0    0  0.21243831235E+03  0.92464261141E+02  0.16341357143E+03  0.28352014297E+03  0.51100000000E-03 0. -1.
         22    1    1    2    0    0  0.91467148533E+02  0.18399363599E+03  0.55734884704E+03  0.59401821070E+03  0.00000000000E+00 0. -1.
          2    1    1    2  501    0 -0.30390546089E+03 -0.27645789713E+03 -0.76177941287E+01  0.41090817567E+03  0.25500000000E-02 0. -1.
<mgrwt>
<rscale>  0 0.32196391E+03</rscale>
<asrwt>0</asrwt>
<pdfrwt beam="1">  1       11 0.10000000E+01 0.20547481E+03</pdfrwt>
<pdfrwt beam="2">  1        2 0.44289199E-01 0.32196391E+03</pdfrwt>
<totfact> 0.14196259E+02</totfact>
</mgrwt>
</event>
<event>
 5    1  0.2226716E-003  0.1594826E+03  0.7818608E-02  0.1189282E+00
         11   -1    0    0    0    0  0.00000000000E+00  0.00000000000E+00  0.10002300526E+04  0.10002300526E+04  0.51100000000E-03 0. -1.
          2   -1    0    0  501    0 -0.00000000000E+00 -0.00000000000E+00 -0.13871318616E+03  0.13871318618E+03  0.25500000000E-02 0. -1.
         11    1    1    2    0    0 -0.12318003481E+03  0.73133592101E+02  0.44620746934E+03  0.46863946587E+03  0.51100000000E-03 0. -1.
         22    1    1    2    0    0  0.24372183032E+03  0.21044591246E+02  0.45113727511E+03  0.51319396566E+03  0.00000000000E+00 0. -1.
          2    1    1    2  501    0 -0.12054179551E+03 -0.94178183347E+02 -0.35827878019E+02  0.15710980724E+03  0.25500000000E-02 0. -1.
<mgrwt>
<rscale>  0 0.15948262E+03</rscale>
<asrwt>0</asrwt>
<pdfrwt beam="1">  1       11 0.10000000E+01 0.14325447E+03</pdfrwt>
<pdfrwt beam="2">  1        2 0.21345399E-01 0.15948262E+03</pdfrwt>
<totfact> 0.31373374E+02</totfact>
</mgrwt>
</event>
<event>
 5    1  0.2226716E-003  0.1457810E+03  0.7818608E-02  0.1471570E+00
         11   -1    0    0    0    0  0.00000000000E+00  0.00000000000E+00  0.99998870834E+03  0.99998870834E+03  0.51100000000E-03 0. -1.
          2   -1    0    0  501    0 -0.00000000000E+00 -0.00000000000E+00 -0.25616950580E+02  0.25616950707E+02  0.25500000000E-02 0. -1.
         11    1    1    2    0    0 -0.82576569856E+02 -0.11998606509E+03  0.31990211876E+03  0.35150094068E+03  0.51100000000E-03 0. -1.
         22    1    1    2    0    0  0.11813479301E+02 -0.78215653082E+01  0.37830516016E+02  0.40396573111E+02  0.00000000000E+00 0. -1.
          2    1    1    2  501    0  0.70763090555E+02  0.12780763040E+03  0.61663912298E+03  0.63370814526E+03  0.25500000000E-02 0. -1.
<mgrwt>
<rscale>  0 0.45447102E+02</rscale>
<asrwt>0</asrwt>
<pdfrwt beam="1">  1       11 0.10000000E+01 0.14578098E+03</pdfrwt>
<pdfrwt beam="2">  1        2 0.39410247E-02 0.45447102E+02</pdfrwt>
<totfact> 0.22339155E+03</totfact>
</mgrwt>
</event>
<event>
 5    1  0.2226716E-003  0.7985645E+02  0.7818608E-02  0.1329459E+00
         11   -1    0    0    0    0  0.00000000000E+00  0.00000000000E+00  0.10001758509E+04  0.10001758509E+04  0.51100000000E-03 0. -1.
          2   -1    0    0  501    0 -0.00000000000E+00 -0.00000000000E+00 -0.18018489924E+02  0.18018490104E+02  0.25500000000E-02 0. -1.
         11    1    1    2    0    0 -0.82949341719E+02 -0.10842812184E+01  0.99537426183E+02  0.12957418018E+03  0.51100000000E-03 0. -1.
         22    1    1    2    0    0  0.23953870057E+02 -0.18736615961E+02  0.13352921053E+03  0.13694852585E+03  0.00000000000E+00 0. -1.
          2    1    1    2  501    0  0.58995471662E+02  0.19820897180E+02  0.74909072429E+03  0.75167163501E+03  0.25500000000E-02 0. -1.
<mgrwt>
<rscale>  0 0.79856445E+02</rscale>
<asrwt>0</asrwt>
<pdfrwt beam="1">  1       11 0.10000000E+01 0.30411325E+02</pdfrwt>
<pdfrwt beam="2">  1        2 0.27725628E-02 0.79856445E+02</pdfrwt>
<totfact> 0.37805709E+03</totfact>
</mgrwt>
</event>
<event>
 5    1  0.2226716E-003  0.1206184E+03  0.7818608E-02  0.1242080E+00
         11   -1    0    0    0    0  0.00000000000E+00  0.00000000000E+00  0.10000384330E+04  0.10000384330E+04  0.51100000000E-03 0. -1.
         -2   -1    0    0    0  501 -0.00000000000E+00 -0.00000000000E+00 -0.39362885519E+02  0.39362885602E+02  0.25500000000E-02 0.  1.
         11    1    1    2    0    0  0.13862338787E+02 -0.12878256510E+03  0.60333373539E+03  0.61708079680E+03  0.51100000000E-03 0. -1.
         22    1    1    2    0    0 -0.52420802049E+02  0.14291453829E+02  0.26432208755E+03  0.26984875784E+03  0.00000000000E+00 0. -1.
         -2    1    1    2    0  501  0.38558463262E+02  0.11449111127E+03  0.93019724540E+02  0.15247176397E+03  0.25500000000E-02 0.  1.
<mgrwt>
<rscale>  0 0.12061844E+03</rscale>
<asrwt>0</asrwt>
<pdfrwt beam="1">  1       11 0.10000000E+01 0.54334024E+02</pdfrwt>
<pdfrwt beam="2">  1       -2 0.60560611E-02 0.12061844E+03</pdfrwt>
<totfact> 0.10957168E+03</totfact>
</mgrwt>
</event>
<event>
 5    1  0.2226716E-003  0.9973135E+02  0.7818608E-02  0.1280862E+00
         11   -1    0    0    0    0  0.00000000000E+00  0.00000000000E+00  0.99997014146E+03  0.99997014146E+03  0.51100000000E-03 0.  1.
          2   -1    0    0  501    0 -0.00000000000E+00 -0.00000000000E+00 -0.47527375112E+02  0.47527375180E+02  0.25500000000E-02 0.  1.
         11    1    1    2    0    0 -0.47198594083E+02  0.85908081709E+02  0.24446154378E+03  0.26338062225E+03  0.51100000000E-03 0.  1.
         22    1    1    2    0    0  0.11355711653E+03 -0.70902109503E+01  0.66127565842E+03  0.67099253812E+03  0.00000000000E+00 0.  1.
          2    1    1    2  501    0 -0.66358522443E+02 -0.78817870759E+02  0.46705564146E+02  0.11312435627E+03  0.25500000000E-02 0.  1.
<mgrwt>
<rscale>  0 0.99731353E+02</rscale>
<asrwt>0</asrwt>
<pdfrwt beam="1">  1       11 0.10000000E+01 0.98019925E+02</pdfrwt>
<pdfrwt beam="2">  1        2 0.73116853E-02 0.99731353E+02</pdfrwt>
<totfact> 0.10996607E+03</totfact>
</mgrwt>
</event>
<event>
 5    1  0.2226716E-003  0.1312783E+03  0.7818608E-02  0.1225571E+00
         11   -1    0    0    0    0  0.00000000000E+00  0.00000000000E+00  0.10001826800E+04  0.10001826800E+04  0.51100000000E-03 0. -1.
          2   -1    0    0  501    0 -0.00000000000E+00 -0.00000000000E+00 -0.66441281328E+02  0.66441281377E+02  0.25500000000E-02 0. -1.
         11    1    1    2    0    0  0.91228394606E+02 -0.11321293758E+03  0.86547296541E+03  0.87760084496E+03  0.51100000000E-03 0. -1.
         22    1    1    2    0    0 -0.25704656298E+02  0.69119233878E+00  0.51728763240E+02  0.57767396069E+02  0.00000000000E+00 0.  1.
          2    1    1    2  501    0 -0.65523738308E+02  0.11252174524E+03  0.16539670020E+02  0.13125572035E+03  0.25500000000E-02 0. -1.
<mgrwt>
<rscale>  0 0.13127831E+03</rscale>
<asrwt>0</asrwt>
<pdfrwt beam="1">  1       11 0.10000000E+01 0.25713948E+02</pdfrwt>
<pdfrwt beam="2">  1        2 0.10223603E-01 0.13127831E+03</pdfrwt>
<totfact> 0.73897865E+02</totfact>
</mgrwt>
</event>
<event>
 5    1  0.2226716E-003  0.7822970E+02  0.7818608E-02  0.1334152E+00
         11   -1    0    0    0    0  0.00000000000E+00  0.00000000000E+00  0.10001003268E+04  0.10001003268E+04  0.51100000000E-03 0. -1.
          2   -1    0    0  501    0 -0.00000000000E+00 -0.00000000000E+00 -0.65396218827E+02  0.65396218877E+02  0.25500000000E-02 0. -1.
         11    1    1    2    0    0  0.50653013369E+02 -0.11169437506E+03  0.70117306089E+03  0.71181811054E+03  0.51100000000E-03 0. -1.
         22    1    1    2    0    0 -0.36473209349E+02  0.36272604114E+02  0.26557735280E+03  0.27051308125E+03  0.00000000000E+00 0.  1.
          2    1    1    2  501    0 -0.14179804020E+02  0.75421770943E+02 -0.32046305694E+02  0.83165353900E+02  0.25500000000E-02 0. -1.
<mgrwt>
<rscale>  0 0.78229702E+02</rscale>
<asrwt>0</asrwt>
<pdfrwt beam="1">  1       11 0.10000000E+01 0.51439254E+02</pdfrwt>
<pdfrwt beam="2">  1        2 0.10061966E-01 0.78229702E+02</pdfrwt>
<totfact> 0.73002896E+02</totfact>
</mgrwt>
</event>
<event>
 5    1  0.2226716E-003  0.1314648E+03  0.7818608E-02  0.1332234E+00
         11   -1    0    0    0    0  0.00000000000E+00  0.00000000000E+00  0.10001820570E+04  0.10001820570E+04  0.51100000000E-03 0. -1.
          2   -1    0    0  501    0 -0.00000000000E+00 -0.00000000000E+00 -0.55072896852E+03  0.55072896852E+03  0.25500000000E-02 0. -1.
         11    1    1    2    0    0 -0.13981581938E+03  0.67922170826E+02  0.87075522485E+03  0.88452051771E+03  0.51100000000E-03 0. -1.
         22    1    1    2    0    0  0.61827376239E+02 -0.56035928315E+02  0.10505119328E+03  0.13415812657E+03  0.00000000000E+00 0.  1.
          2    1    1    2  501    0  0.77988443138E+02 -0.11886242511E+02 -0.52635332964E+03  0.53223238125E+03  0.25500000000E-02 0. -1.
<mgrwt>
<rscale>  0 0.78889036E+02</rscale>
<asrwt>0</asrwt>
<pdfrwt beam="1">  1       11 0.10000000E+01 0.13146477E+03</pdfrwt>
<pdfrwt beam="2">  1        2 0.84742956E-01 0.78889036E+02</pdfrwt>
<totfact> 0.71110726E+01</totfact>
</mgrwt>
</event>
<event>
 5    1  0.2226716E-003  0.3481042E+03  0.7818608E-02  0.1063396E+00
         11   -1    0    0    0    0  0.00000000000E+00  0.00000000000E+00  0.10005907537E+04  0.10005907537E+04  0.51100000000E-03 0. -1.
          2   -1    0    0  501    0 -0.00000000000E+00 -0.00000000000E+00 -0.53486598309E+03  0.53486598309E+03  0.25500000000E-02 0. -1.
         11    1    1    2    0    0  0.23922372811E+03 -0.38285498877E+02  0.26782382610E+03  0.36114176350E+03  0.51100000000E-03 0. -1.
         22    1    1    2    0    0  0.98054031047E+02 -0.12556540660E+03  0.60218833765E+03  0.62290613927E+03  0.00000000000E+00 0. -1.
          2    1    1    2  501    0 -0.33727775916E+03  0.16385090548E+03 -0.40428739311E+03  0.55140883406E+03  0.25500000000E-02 0. -1.
<mgrwt>
<rscale>  0 0.34810424E+03</rscale>
<asrwt>0</asrwt>
<pdfrwt beam="1">  1       11 0.10000000E+01 0.15931498E+03</pdfrwt>
<pdfrwt beam="2">  1        2 0.82335683E-01 0.34810424E+03</pdfrwt>
<totfact> 0.71452680E+01</totfact>
</mgrwt>
</event>
<event>
 5    1  0.2226716E-003  0.1329570E+03  0.7818608E-02  0.1368068E+00
         11   -1    0    0    0    0  0.00000000000E+00  0.00000000000E+00  0.99927423641E+03  0.99927423641E+03  0.51100000000E-03 0.  1.
          2   -1    0    0  501    0 -0.00000000000E+00 -0.00000000000E+00 -0.13905689900E+04  0.13905689900E+04  0.25500000000E-02 0. -1.
         11    1    1    2    0    0  0.14846053782E+03 -0.19230504329E+02  0.18489220444E+03  0.23789802616E+03  0.51100000000E-03 0.  1.
         22    1    1    2    0    0 -0.12462551996E+03 -0.44142740590E+02  0.78148298747E+03  0.79258801497E+03  0.00000000000E+00 0.  1.
          2    1    1    2  501    0 -0.23835017859E+02  0.63373244920E+02 -0.13576699455E+04  0.13593571853E+04  0.25500000000E-02 0. -1.
<mgrwt>
<rscale>  0 0.67707284E+02</rscale>
<asrwt>0</asrwt>
<pdfrwt beam="1">  1       11 0.10000000E+01 0.13295704E+03</pdfrwt>
<pdfrwt beam="2">  1        2 0.21377842E+00 0.67707284E+02</pdfrwt>
<totfact> 0.21708981E+01</totfact>
</mgrwt>
</event>
<event>
 5    1  0.2226716E-003  0.1277276E+03  0.7818608E-02  0.1230867E+00
         11   -1    0    0    0    0  0.00000000000E+00  0.00000000000E+00  0.10000930556E+04  0.10000930556E+04  0.51100000000E-03 0.  1.
          2   -1    0    0  501    0 -0.00000000000E+00 -0.00000000000E+00 -0.49206955787E+03  0.49206955788E+03  0.25500000000E-02 0. -1.
         11    1    1    2    0    0  0.11780044051E+03  0.13305055897E+03  0.26494749786E+03  0.31902440604E+03  0.51100000000E-03 0.  1.
         22    1    1    2    0    0  0.95698465881E+01 -0.12393971344E+03  0.69371068594E+03  0.70476034956E+03  0.00000000000E+00 0.  1.
          2    1    1    2  501    0 -0.12737028710E+03 -0.91108455267E+01 -0.45063468602E+03  0.46837785793E+03  0.25500000000E-02 0. -1.
<mgrwt>
<rscale>  0 0.12772761E+03</rscale>
<asrwt>0</asrwt>
<pdfrwt beam="1">  1       11 0.10000000E+01 0.12430863E+03</pdfrwt>
<pdfrwt beam="2">  1        2 0.75710051E-01 0.12772761E+03</pdfrwt>
<totfact> 0.79814797E+01</totfact>
</mgrwt>
</event>
<event>
 5    1  0.2226716E-003  0.2496803E+03  0.7818608E-02  0.1113507E+00
         11   -1    0    0    0    0  0.00000000000E+00  0.00000000000E+00  0.10000585760E+04  0.10000585760E+04  0.51100000000E-03 0. -1.
          2   -1    0    0  501    0 -0.00000000000E+00 -0.00000000000E+00 -0.66939753545E+02  0.66939753594E+02  0.25500000000E-02 0. -1.
         11    1    1    2    0    0 -0.48162663684E+02  0.24240600461E+03  0.44098653965E+03  0.50551898223E+03  0.51100000000E-03 0. -1.
         22    1    1    2    0    0 -0.17389990571E+02  0.15042578012E+01  0.38619281352E+02  0.42380696735E+02  0.00000000000E+00 0. -1.
          2    1    1    2  501    0  0.65552654255E+02 -0.24391026242E+03  0.45351300149E+03  0.51909865066E+03  0.25500000000E-02 0. -1.
<mgrwt>
<rscale>  0 0.24968031E+03</rscale>
<asrwt>0</asrwt>
<pdfrwt beam="1">  1       11 0.10000000E+01 0.17454929E+02</pdfrwt>
<pdfrwt beam="2">  1        2 0.10299027E-01 0.24968031E+03</pdfrwt>
<totfact> 0.75700444E+02</totfact>
</mgrwt>
</event>
<event>
 5    1  0.2226716E-003  0.9058909E+02  0.7818608E-02  0.1680429E+00
         11   -1    0    0    0    0  0.00000000000E+00  0.00000000000E+00  0.99993795388E+03  0.99993795388E+03  0.51100000000E-03 0.  1.
          2   -1    0    0  501    0 -0.00000000000E+00 -0.00000000000E+00 -0.24623327772E+02  0.24623327904E+02  0.25500000000E-02 0. -1.
         11    1    1    2    0    0  0.78613272615E+02 -0.22153714439E+02  0.47716380643E+03  0.48410343095E+03  0.51100000000E-03 0.  1.
         22    1    1    2    0    0 -0.98298599703E+02  0.35348935001E+02  0.50507815418E+03  0.51576749000E+03  0.00000000000E+00 0. -1.
          2    1    1    2  501    0  0.19685327088E+02 -0.13195220563E+02 -0.69273345011E+01  0.24690360833E+02  0.25500000000E-02 0. -1.
<mgrwt>
<rscale>  0 0.23698649E+02</rscale>
<asrwt>0</asrwt>
<pdfrwt beam="1">  1       11 0.10000000E+01 0.90589087E+02</pdfrwt>
<pdfrwt beam="2">  1        2 0.37879691E-02 0.23698649E+02</pdfrwt>
<totfact> 0.21525471E+03</totfact>
</mgrwt>
</event>
<event>
 5    1  0.2226716E-003  0.2189653E+03  0.7818608E-02  0.1134657E+00
         11   -1    0    0    0    0  0.00000000000E+00  0.00000000000E+00  0.10005137734E+04  0.10005137734E+04  0.51100000000E-03 0.  1.
          2   -1    0    0  501    0 -0.00000000000E+00 -0.00000000000E+00 -0.82931831860E+02  0.82931831899E+02  0.25500000000E-02 0.  1.
         11    1    1    2    0    0  0.71148947857E+01  0.20985682646E+03  0.68901368889E+03  0.72029880801E+03  0.51100000000E-03 0.  1.
         22    1    1    2    0    0  0.18982991039E+02  0.10083273856E+02  0.10969149772E+03  0.11177768575E+03  0.00000000000E+00 0.  1.
          2    1    1    2  501    0 -0.26097885825E+02 -0.21994010032E+03  0.11887675496E+03  0.25136911157E+03  0.25500000000E-02 0.  1.
<mgrwt>
<rscale>  0 0.21896526E+03</rscale>
<asrwt>0</asrwt>
<pdfrwt beam="1">  1       11 0.10000000E+01 0.21494798E+02</pdfrwt>
<pdfrwt beam="2">  1        2 0.12765298E-01 0.21896526E+03</pdfrwt>
<totfact> 0.57836531E+02</totfact>
</mgrwt>
</event>
<event>
 5    1  0.2226716E-003  0.1119494E+03  0.7818608E-02  0.1257002E+00
         11   -1    0    0    0    0  0.00000000000E+00  0.00000000000E+00  0.10003966640E+04  0.10003966640E+04  0.51100000000E-03 0.  1.
          2   -1    0    0  501    0 -0.00000000000E+00 -0.00000000000E+00 -0.96669412828E+02  0.96669412862E+02  0.25500000000E-02 0.  1.
         11    1    1    2    0    0  0.11805376307E+03  0.53216562785E+02  0.71748061795E+03  0.72907278831E+03  0.51100000000E-03 0.  1.
         22    1    1    2    0    0 -0.64123547725E+01 -0.57116439205E+02  0.23802599932E+03  0.24486686642E+03  0.00000000000E+00 0.  1.
          2    1    1    2  501    0 -0.11164140829E+03  0.38998764203E+01 -0.51779366046E+02  0.12312642217E+03  0.25500000000E-02 0.  1.
<mgrwt>
<rscale>  0 0.11194941E+03</rscale>
<asrwt>0</asrwt>
<pdfrwt beam="1">  1       11 0.10000000E+01 0.57475264E+02</pdfrwt>
<pdfrwt beam="2">  1        2 0.14878116E-01 0.11194941E+03</pdfrwt>
<totfact> 0.46831876E+02</totfact>
</mgrwt>
</event>
<event>
 5    1  0.2226716E-003  0.1986059E+03  0.7818608E-02  0.1150921E+00
         11   -1    0    0    0    0  0.00000000000E+00  0.00000000000E+00  0.10000788291E+04  0.10000788291E+04  0.51100000000E-03 0. -1.
          2   -1    0    0  501    0 -0.00000000000E+00 -0.00000000000E+00 -0.79905479210E+02  0.79905479251E+02  0.25500000000E-02 0. -1.
         11    1    1    2    0    0  0.98797360256E+01 -0.17228877173E+03  0.53083704544E+03  0.55818366051E+03  0.51100000000E-03 0. -1.
         22    1    1    2    0    0  0.41089297220E+02 -0.28756600187E+02  0.28546805175E+03  0.28984009552E+03  0.00000000000E+00 0.  1.
          2    1    1    2  501    0 -0.50969033246E+02  0.20104537192E+03  0.10386825274E+03  0.23196055236E+03  0.25500000000E-02 0. -1.
<mgrwt>
<rscale>  0 0.19860593E+03</rscale>
<asrwt>0</asrwt>
<pdfrwt beam="1">  1       11 0.10000000E+01 0.50152491E+02</pdfrwt>
<pdfrwt beam="2">  1        2 0.12294119E-01 0.19860593E+03</pdfrwt>
<totfact> 0.60276693E+02</totfact>
</mgrwt>
</event>
<event>
 5    1  0.2226716E-003  0.3079796E+03  0.7818608E-02  0.1081318E+00
         11   -1    0    0    0    0  0.00000000000E+00  0.00000000000E+00  0.10003160905E+04  0.10003160905E+04  0.51100000000E-03 0. -1.
          2   -1    0    0  501    0 -0.00000000000E+00 -0.00000000000E+00 -0.23358879824E+04  0.23358879824E+04  0.25500000000E-02 0.  1.
         11    1    1    2    0    0 -0.46781751882E+03  0.83646030345E+02  0.76838284702E+03  0.90347224024E+03  0.51100000000E-03 0. -1.
         22    1    1    2    0    0  0.16924708956E+03 -0.17185638369E+02  0.10683506224E+03  0.20088218939E+03  0.00000000000E+00 0.  1.
          2    1    1    2  501    0  0.29857042926E+03 -0.66460391976E+02 -0.22107898012E+04  0.22318496432E+04  0.25500000000E-02 0.  1.
<mgrwt>
<rscale>  0 0.30797958E+03</rscale>
<asrwt>0</asrwt>
<pdfrwt beam="1">  1       11 0.10000000E+01 0.17011738E+03</pdfrwt>
<pdfrwt beam="2">  1        2 0.35948096E+00 0.30797958E+03</pdfrwt>
<totfact> 0.60816458E+00</totfact>
</mgrwt>
</event>
<event>
 5    1  0.2226716E-003  0.9868185E+02  0.7818608E-02  0.1283092E+00
         11   -1    0    0    0    0  0.00000000000E+00  0.00000000000E+00  0.10001261638E+04  0.10001261638E+04  0.51100000000E-03 0.  1.
          2   -1    0    0  501    0 -0.00000000000E+00 -0.00000000000E+00 -0.15812492894E+02  0.15812493099E+02  0.25500000000E-02 0.  1.
         11    1    1    2    0    0 -0.51664095073E+02  0.74976929203E+02  0.25422692615E+03  0.27004082768E+03  0.51100000000E-03 0.  1.
         22    1    1    2    0    0  0.10572613386E+02  0.34211304574E+02  0.19175829822E+03  0.19507290548E+03  0.00000000000E+00 0. -1.
          2    1    1    2  501    0  0.41091481687E+02 -0.10918823378E+03  0.53832844648E+03  0.55082492369E+03  0.25500000000E-02 0.  1.
<mgrwt>
<rscale>  0 0.98681854E+02</rscale>
<asrwt>0</asrwt>
<pdfrwt beam="1">  1       11 0.10000000E+01 0.35807730E+02</pdfrwt>
<pdfrwt beam="2">  1        2 0.24329981E-02 0.98681854E+02</pdfrwt>
<totfact> 0.46157808E+03</totfact>
</mgrwt>
</event>
<event>
 5    1  0.2226716E-003  0.1557220E+03  0.7818608E-02  0.1193613E+00
         11   -1    0    0    0    0  0.00000000000E+00  0.00000000000E+00  0.10000950333E+04  0.10000950333E+04  0.51100000000E-03 0.  1.
          2   -1    0    0  501    0 -0.00000000000E+00 -0.00000000000E+00 -0.14650312874E+03  0.14650312877E+03  0.25500000000E-02 0.  1.
         11    1    1    2    0    0  0.11143421940E+03  0.10580199051E+03  0.87232931033E+03  0.88575960176E+03  0.51100000000E-03 0.  1.
         22    1    1    2    0    0 -0.10765449544E+02  0.13196471367E+02  0.76369690722E+02  0.78245584037E+02  0.00000000000E+00 0. -1.
          2    1    1    2  501    0 -0.10066876986E+03 -0.11899846188E+03 -0.95107096527E+02  0.18259297624E+03  0.25500000000E-02 0.  1.
<mgrwt>
<rscale>  0 0.15572204E+03</rscale>
<asrwt>0</asrwt>
<pdfrwt beam="1">  1       11 0.10000000E+01 0.17030612E+02</pdfrwt>
<pdfrwt beam="2">  1        2 0.22541084E-01 0.15572204E+03</pdfrwt>
<totfact> 0.29489360E+02</totfact>
</mgrwt>
</event>
<event>
 5    1  0.2226716E-003  0.3087074E+03  0.7818608E-02  0.1089264E+00
         11   -1    0    0    0    0  0.00000000000E+00  0.00000000000E+00  0.10001377850E+04  0.10001377850E+04  0.51100000000E-03 0. -1.
          2   -1    0    0  501    0 -0.00000000000E+00 -0.00000000000E+00 -0.23001137340E+03  0.23001137341E+03  0.25500000000E-02 0. -1.
         11    1    1    2    0    0  0.23144301203E+03  0.82428815618E+02  0.58910683762E+03  0.63828461018E+03  0.51100000000E-03 0. -1.
         22    1    1    2    0    0  0.47568178258E+02  0.39878160909E+01  0.27955747537E+03  0.28360362532E+03  0.00000000000E+00 0.  1.
          2    1    1    2  501    0 -0.27901119029E+03 -0.86416631708E+02 -0.98537901428E+02  0.30826092287E+03  0.25500000000E-02 0. -1.
<mgrwt>
<rscale>  0 0.29208745E+03</rscale>
<asrwt>0</asrwt>
<pdfrwt beam="1">  1       11 0.10000000E+01 0.30870735E+03</pdfrwt>
<pdfrwt beam="2">  1        2 0.35391240E-01 0.29208745E+03</pdfrwt>
<totfact> 0.18118460E+02</totfact>
</mgrwt>
</event>
<event>
 5    1  0.2226716E-003  0.2550176E+03  0.7818608E-02  0.1110174E+00
         11   -1    0    0    0    0  0.00000000000E+00  0.00000000000E+00  0.10004257662E+04  0.10004257662E+04  0.51100000000E-03 0. -1.
          2   -1    0    0  501    0 -0.00000000000E+00 -0.00000000000E+00 -0.77490774321E+02  0.77490774363E+02  0.25500000000E-02 0. -1.
         11    1    1    2    0    0 -0.20524739950E+03  0.15288881548E+03  0.39202627148E+03  0.46817313297E+03  0.51100000000E-03 0. -1.
         22    1    1    2    0    0  0.26602637738E+02  0.30010816038E+02  0.11216243118E+03  0.11911658315E+03  0.00000000000E+00 0. -1.
          2    1    1    2  501    0  0.17864476176E+03 -0.18289963152E+03  0.41874628919E+03  0.49062682441E+03  0.25500000000E-02 0. -1.
<mgrwt>
<rscale>  0 0.25501756E+03</rscale>
<asrwt>0</asrwt>
<pdfrwt beam="1">  1       11 0.10000000E+01 0.40104232E+02</pdfrwt>
<pdfrwt beam="2">  1        2 0.11926733E-01 0.25501756E+03</pdfrwt>
<totfact> 0.63226305E+02</totfact>
</mgrwt>
</event>
<event>
 5    1  0.2226716E-003  0.1336179E+03  0.7818608E-02  0.1420007E+00
         11   -1    0    0    0    0  0.00000000000E+00  0.00000000000E+00  0.10001987721E+04  0.10001987721E+04  0.51100000000E-03 0.  1.
         -2   -1    0    0    0  501 -0.00000000000E+00 -0.00000000000E+00 -0.31742882813E+02  0.31742882915E+02  0.25500000000E-02 0. -1.
         11    1    1    2    0    0  0.12720242189E+03 -0.99567121146E+02  0.43001303186E+03  0.45935310527E+03  0.51100000000E-03 0.  1.
         22    1    1    2    0    0 -0.11127631118E+03  0.46903110927E+02  0.46731218234E+03  0.48266240273E+03  0.00000000000E+00 0.  1.
         -2    1    1    2    0  501 -0.15926110704E+02  0.52664010220E+02  0.71130675129E+02  0.89926147062E+02  0.25500000000E-02 0. -1.
<mgrwt>
<rscale>  0 0.55019442E+02</rscale>
<asrwt>0</asrwt>
<pdfrwt beam="1">  1       11 0.10000000E+01 0.13361792E+03</pdfrwt>
<pdfrwt beam="2">  1       -2 0.48844910E-02 0.55019442E+02</pdfrwt>
<totfact> 0.13983986E+03</totfact>
</mgrwt>
</event>
<event>
 5    1  0.2226716E-003  0.2766271E+03  0.7818608E-02  0.1100584E+00
         11   -1    0    0    0    0  0.00000000000E+00  0.00000000000E+00  0.10000586857E+04  0.10000586857E+04  0.51100000000E-03 0. -1.
          2   -1    0    0  501    0 -0.00000000000E+00 -0.00000000000E+00 -0.95332182493E+02  0.95332182527E+02  0.25500000000E-02 0. -1.
         11    1    1    2    0    0 -0.22889899993E+03  0.12024472528E+03  0.66373930765E+03  0.71232254959E+03  0.51100000000E-03 0. -1.
         22    1    1    2    0    0 -0.47902624448E+01  0.17411966324E+02  0.44880815641E+02  0.48377792407E+02  0.00000000000E+00 0.  1.
          2    1    1    2  501    0  0.23368926238E+03 -0.13765669161E+03  0.19610637990E+03  0.33469052621E+03  0.25500000000E-02 0. -1.
<mgrwt>
<rscale>  0 0.27121953E+03</rscale>
<asrwt>0</asrwt>
<pdfrwt beam="1">  1       11 0.10000000E+01 0.27662706E+03</pdfrwt>
<pdfrwt beam="2">  1        2 0.14667350E-01 0.27121953E+03</pdfrwt>
<totfact> 0.49347533E+02</totfact>
</mgrwt>
</event>
<event>
 5    1  0.2226716E-003  0.9499535E+02  0.7818608E-02  0.1558536E+00
         11   -1    0    0    0    0  0.00000000000E+00  0.00000000000E+00  0.10001982884E+04  0.10001982884E+04  0.51100000000E-03 0. -1.
          2   -1    0    0  501    0 -0.00000000000E+00 -0.00000000000E+00 -0.18410413529E+02  0.18410413706E+02  0.25500000000E-02 0. -1.
         11    1    1    2    0    0 -0.89527868306E+02 -0.87454190364E+01  0.13940116992E+03  0.16590481528E+03  0.51100000000E-03 0. -1.
         22    1    1    2    0    0  0.88077117916E+02  0.42620336276E+02  0.59195247505E+03  0.59998483688E+03  0.00000000000E+00 0. -1.
          2    1    1    2  501    0  0.14507503900E+01 -0.33874917240E+02  0.25043422994E+03  0.25271904999E+03  0.25500000000E-02 0. -1.
<mgrwt>
<rscale>  0 0.33905969E+02</rscale>
<asrwt>0</asrwt>
<pdfrwt beam="1">  1       11 0.10000000E+01 0.94995355E+02</pdfrwt>
<pdfrwt beam="2">  1        2 0.28329329E-02 0.33905969E+02</pdfrwt>
<totfact> 0.32793057E+03</totfact>
</mgrwt>
</event>
<event>
 5    1  0.2226716E-003  0.9847980E+02  0.7818608E-02  0.1326686E+00
         11   -1    0    0    0    0  0.00000000000E+00  0.00000000000E+00  0.10003063425E+04  0.10003063425E+04  0.51100000000E-03 0. -1.
          2   -1    0    0  501    0 -0.00000000000E+00 -0.00000000000E+00 -0.10366315842E+04  0.10366315842E+04  0.25500000000E-02 0.  1.
         11    1    1    2    0    0  0.29924057487E+02  0.86416208245E+02  0.29735320988E+03  0.31109828301E+03  0.51100000000E-03 0. -1.
         22    1    1    2    0    0 -0.10304005001E+03 -0.51933319545E+02  0.68969377206E+03  0.69927950121E+03  0.00000000000E+00 0. -1.
          2    1    1    2  501    0  0.73115992519E+02 -0.34482888700E+02 -0.10233722236E+04  0.10265601424E+04  0.25500000000E-02 0.  1.
<mgrwt>
<rscale>  0 0.80839458E+02</rscale>
<asrwt>0</asrwt>
<pdfrwt beam="1">  1       11 0.10000000E+01 0.98479800E+02</pdfrwt>
<pdfrwt beam="2">  1        2 0.15953063E+00 0.80839458E+02</pdfrwt>
<totfact> 0.33200409E+01</totfact>
</mgrwt>
</event>
<event>
 5    1  0.2226716E-003  0.2296866E+03  0.7818608E-02  0.1126861E+00
         11   -1    0    0    0    0  0.00000000000E+00  0.00000000000E+00  0.10003324713E+04  0.10003324713E+04  0.51100000000E-03 0.  1.
          2   -1    0    0  501    0 -0.00000000000E+00 -0.00000000000E+00 -0.47917160352E+03  0.47917160353E+03  0.25500000000E-02 0.  1.
         11    1    1    2    0    0  0.11374327564E+03  0.18332474765E+03  0.91133736869E+03  0.93652618513E+03  0.51100000000E-03 0.  1.
         22    1    1    2    0    0 -0.77108847523E+01  0.20929505986E+02  0.45264913037E+02  0.50462008647E+02  0.00000000000E+00 0.  1.
          2    1    1    2  501    0 -0.10603239089E+03 -0.20425425363E+03 -0.43544141398E+03  0.49251588102E+03  0.25500000000E-02 0.  1.
<mgrwt>
<rscale>  0 0.22968662E+03</rscale>
<asrwt>0</asrwt>
<pdfrwt beam="1">  1       11 0.10000000E+01 0.22304752E+02</pdfrwt>
<pdfrwt beam="2">  1        2 0.73743215E-01 0.22968662E+03</pdfrwt>
<totfact> 0.81488961E+01</totfact>
</mgrwt>
</event>
<event>
 5    1  0.2226716E-003  0.1113360E+03  0.7818608E-02  0.1258116E+00
         11   -1    0    0    0    0  0.00000000000E+00  0.00000000000E+00  0.10004039012E+04  0.10004039012E+04  0.51100000000E-03 0. -1.
          2   -1    0    0  501    0 -0.00000000000E+00 -0.00000000000E+00 -0.11957261535E+02  0.11957261806E+02  0.25500000000E-02 0. -1.
         11    1    1    2    0    0  0.69640929138E+02 -0.71869527103E+02  0.59941151091E+03  0.60770819260E+03  0.51100000000E-03 0. -1.
         22    1    1    2    0    0 -0.51648691484E+01  0.35125182562E+02  0.16013638842E+03  0.16402474575E+03  0.00000000000E+00 0. -1.
          2    1    1    2  501    0 -0.64476059990E+02  0.36744344541E+02  0.22889874033E+03  0.24062822465E+03  0.25500000000E-02 0. -1.
<mgrwt>
<rscale>  0 0.11133596E+03</rscale>
<asrwt>0</asrwt>
<pdfrwt beam="1">  1       11 0.10000000E+01 0.10007541E+03</pdfrwt>
<pdfrwt beam="2">  1        2 0.18403217E-02 0.11133596E+03</pdfrwt>
<totfact> 0.68327502E+03</totfact>
</mgrwt>
</event>
<event>
 5    1  0.2504754E-003  0.2309933E+03  0.7818608E-02  0.1127568E+00
         11   -1    0    0    0    0  0.00000000000E+00  0.00000000000E+00  0.10000629056E+04  0.10000629056E+04  0.51100000000E-03 0. -1.
          2   -1    0    0  501    0 -0.00000000000E+00 -0.00000000000E+00 -0.44569638873E+03  0.44569638873E+03  0.25500000000E-02 0. -1.
         11    1    1    2    0    0 -0.17540389182E+03  0.12316678458E+03  0.86288281976E+03  0.88910254905E+03  0.51100000000E-03 0. -1.
         22    1    1    2    0    0 -0.81257184208E+01  0.13267092599E+02  0.93156370276E+02  0.94446558269E+02  0.00000000000E+00 0.  1.
          2    1    1    2  501    0  0.18352961024E+03 -0.13643387717E+03 -0.40167267312E+03  0.46221018705E+03  0.25500000000E-02 0. -1.
<mgrwt>
<rscale>  0 0.22868607E+03</rscale>
<asrwt>0</asrwt>
<pdfrwt beam="1">  1       11 0.10000000E+01 0.23099332E+03</pdfrwt>
<pdfrwt beam="2">  1        2 0.68572987E-01 0.22868607E+03</pdfrwt>
<totfact> 0.88314936E+01</totfact>
</mgrwt>
</event>
<event>
 5    1  0.2226716E-003  0.1887465E+03  0.7818608E-02  0.1164563E+00
         11   -1    0    0    0    0  0.00000000000E+00  0.00000000000E+00  0.10001461655E+04  0.10001461655E+04  0.51100000000E-03 0. -1.
          2   -1    0    0  501    0 -0.00000000000E+00 -0.00000000000E+00 -0.52026315808E+02  0.52026315870E+02  0.25500000000E-02 0. -1.
         11    1    1    2    0    0 -0.93764578299E+02 -0.78874101615E+02  0.44316187029E+03  0.45978838973E+03  0.51100000000E-03 0. -1.
         22    1    1    2    0    0 -0.58721198101E+02 -0.23005820503E+02  0.33975018218E+03  0.34555409587E+03  0.00000000000E+00 0. -1.
          2    1    1    2  501    0  0.15248577640E+03  0.10187992212E+03  0.16520779718E+03  0.24682999573E+03  0.25500000000E-02 0. -1.
<mgrwt>
<rscale>  0 0.18338874E+03</rscale>
<asrwt>0</asrwt>
<pdfrwt beam="1">  1       11 0.10000000E+01 0.18874649E+03</pdfrwt>
<pdfrwt beam="2">  1        2 0.80052183E-02 0.18338874E+03</pdfrwt>
<totfact> 0.10215438E+03</totfact>
</mgrwt>
</event>
<event>
 5    1  0.2226716E-003  0.2356364E+03  0.7818608E-02  0.1126107E+00
         11   -1    0    0    0    0  0.00000000000E+00  0.00000000000E+00  0.10003287519E+04  0.10003287519E+04  0.51100000000E-03 0. -1.
          2   -1    0    0  501    0 -0.00000000000E+00 -0.00000000000E+00 -0.14867776257E+03  0.14867776259E+03  0.25500000000E-02 0. -1.
         11    1    1    2    0    0  0.19253893319E+03  0.11410942781E+03  0.83592934684E+03  0.86537279551E+03  0.51100000000E-03 0. -1.
         22    1    1    2    0    0  0.10712829382E+02 -0.48472754666E+01  0.49086859120E+02  0.50475543891E+02  0.00000000000E+00 0.  1.
          2    1    1    2  501    0 -0.20325176257E+03 -0.10926215234E+03 -0.33365216623E+02  0.23315817509E+03  0.25500000000E-02 0. -1.
<mgrwt>
<rscale>  0 0.23075853E+03</rscale>
<asrwt>0</asrwt>
<pdfrwt beam="1">  1       11 0.10000000E+01 0.23563636E+03</pdfrwt>
<pdfrwt beam="2">  1        2 0.22881021E-01 0.23075853E+03</pdfrwt>
<totfact> 0.29289519E+02</totfact>
</mgrwt>
</event>
<event>
 5    1  0.2226716E-003  0.5576526E+03  0.7818608E-02  0.9997380E-01
         11   -1    0    0    0    0  0.00000000000E+00  0.00000000000E+00  0.10004170122E+04  0.10004170122E+04  0.51100000000E-03 0.  1.
          2   -1    0    0  501    0 -0.00000000000E+00 -0.00000000000E+00 -0.86282859131E+03  0.86282859131E+03  0.25500000000E-02 0.  1.
         11    1    1    2    0    0 -0.53215711902E+03  0.20992073777E+03  0.64926797982E+03  0.86533624972E+03  0.51100000000E-03 0.  1.
         22    1    1    2    0    0 -0.14294842143E+02 -0.10304443000E+03  0.11803106883E+03  0.15733350017E+03  0.00000000000E+00 0. -1.
          2    1    1    2  501    0  0.54645196116E+03 -0.10687630777E+03 -0.62971062774E+03  0.84057585363E+03  0.25500000000E-02 0.  1.
<mgrwt>
<rscale>  0 0.55765261E+03</rscale>
<asrwt>0</asrwt>
<pdfrwt beam="1">  1       11 0.10000000E+01 0.10403123E+03</pdfrwt>
<pdfrwt beam="2">  1        2 0.13279821E+00 0.55765261E+03</pdfrwt>
<totfact> 0.39029566E+01</totfact>
</mgrwt>
</event>
<event>
 5    1  0.2226716E-003  0.1477474E+03  0.7818608E-02  0.1213126E+00
         11   -1    0    0    0    0  0.00000000000E+00  0.00000000000E+00  0.10001420765E+04  0.10001420765E+04  0.51100000000E-03 0.  1.
          2   -1    0    0  501    0 -0.00000000000E+00 -0.00000000000E+00 -0.31419937942E+02  0.31419938045E+02  0.25500000000E-02 0.  1.
         11    1    1    2    0    0  0.24447912265E+02  0.11875865637E+03  0.65234144867E+03  0.66351389174E+03  0.51100000000E-03 0.  1.
         22    1    1    2    0    0 -0.15981060583E+02  0.21136112835E+02  0.14139152342E+03  0.14385302380E+03  0.00000000000E+00 0. -1.
          2    1    1    2  501    0 -0.84668516812E+01 -0.13989476921E+03  0.17498916648E+03  0.22419509901E+03  0.25500000000E-02 0.  1.
<mgrwt>
<rscale>  0 0.14015075E+03</rscale>
<asrwt>0</asrwt>
<pdfrwt beam="1">  1       11 0.10000000E+01 0.14774744E+03</pdfrwt>
<pdfrwt beam="2">  1        2 0.48345233E-02 0.14015075E+03</pdfrwt>
<totfact> 0.19200798E+03</totfact>
</mgrwt>
</event>
<event>
 5    1  0.2226716E-003  0.2073428E+03  0.7818608E-02  0.1148990E+00
         11   -1    0    0    0    0  0.00000000000E+00  0.00000000000E+00  0.99985062550E+03  0.99985062550E+03  0.51100000000E-03 0.  1.
          2   -1    0    0  501    0 -0.00000000000E+00 -0.00000000000E+00 -0.84454282639E+02  0.84454282677E+02  0.25500000000E-02 0.  1.
         11    1    1    2    0    0 -0.49782771848E+02  0.17945005645E+03  0.82160088978E+03  0.84244208657E+03  0.51100000000E-03 0.  1.
         22    1    1    2    0    0 -0.39342417451E-01  0.15163541268E+02  0.25525056224E+02  0.29689443021E+02  0.00000000000E+00 0. -1.
          2    1    1    2  501    0  0.49822114265E+02 -0.19461359772E+03  0.68270396853E+02  0.21217337858E+03  0.25500000000E-02 0.  1.
<mgrwt>
<rscale>  0 0.20088976E+03</rscale>
<asrwt>0</asrwt>
<pdfrwt beam="1">  1       11 0.10000000E+01 0.20734280E+03</pdfrwt>
<pdfrwt beam="2">  1        2 0.12991025E-01 0.20088976E+03</pdfrwt>
<totfact> 0.56420748E+02</totfact>
</mgrwt>
</event>
<event>
 5    1  0.2226716E-003  0.2343315E+03  0.7818608E-02  0.1123628E+00
         11   -1    0    0    0    0  0.00000000000E+00  0.00000000000E+00  0.10000158705E+04  0.10000158705E+04  0.51100000000E-03 0.  1.
          2   -1    0    0  501    0 -0.00000000000E+00 -0.00000000000E+00 -0.82793521745E+03  0.82793521746E+03  0.25500000000E-02 0.  1.
         11    1    1    2    0    0  0.20902091826E+03 -0.66249806778E+02  0.88270922698E+03  0.90953524427E+03  0.51100000000E-03 0.  1.
         22    1    1    2    0    0  0.28755252146E+01 -0.34561428276E+02  0.83461805315E+02  0.90380495220E+02  0.00000000000E+00 0. -1.
          2    1    1    2  501    0 -0.21189644347E+03  0.10081123505E+03 -0.79409037926E+03  0.82803534846E+03  0.25500000000E-02 0.  1.
<mgrwt>
<rscale>  0 0.23433148E+03</rscale>
<asrwt>0</asrwt>
<pdfrwt beam="1">  1       11 0.10000000E+01 0.34680844E+02</pdfrwt>
<pdfrwt beam="2">  1        2 0.12737667E+00 0.23433148E+03</pdfrwt>
<totfact> 0.42638727E+01</totfact>
</mgrwt>
</event>
<event>
 5    1  0.2226716E-003  0.8098790E+02  0.7818608E-02  0.1584540E+00
         11   -1    0    0    0    0  0.00000000000E+00  0.00000000000E+00  0.10000013736E+04  0.10000013736E+04  0.51100000000E-03 0. -1.
          2   -1    0    0  501    0 -0.00000000000E+00 -0.00000000000E+00 -0.79505583119E+01  0.79505587208E+01  0.25500000000E-02 0. -1.
         11    1    1    2    0    0 -0.34361496488E+01  0.79910352362E+02  0.37749247307E+03  0.38587308635E+03  0.51100000000E-03 0. -1.
         22    1    1    2    0    0 -0.12049416346E+02  0.66320763317E+00  0.42992735651E+02  0.44654267404E+02  0.00000000000E+00 0. -1.
          2    1    1    2  501    0  0.15485565994E+02 -0.80573559995E+02  0.57156560656E+03  0.57742457856E+03  0.25500000000E-02 0. -1.
<mgrwt>
<rscale>  0 0.31262332E+02</rscale>
<asrwt>0</asrwt>
<pdfrwt beam="1">  1       11 0.10000000E+01 0.80987895E+02</pdfrwt>
<pdfrwt beam="2">  1        2 0.12231645E-02 0.31262332E+02</pdfrwt>
<totfact> 0.96498721E+03</totfact>
</mgrwt>
</event>
<event>
 5    1  0.2226716E-003  0.5935455E+03  0.7818608E-02  0.9938030E-01
         11   -1    0    0    0    0  0.00000000000E+00  0.00000000000E+00  0.10011813607E+04  0.10011813607E+04  0.51100000000E-03 0. -1.
          2   -1    0    0  501    0 -0.00000000000E+00 -0.00000000000E+00 -0.14449598225E+04  0.14449598225E+04  0.25500000000E-02 0. -1.
         11    1    1    2    0    0 -0.14755110638E+03 -0.54095735972E+03  0.76446315953E+03  0.94805596687E+03  0.51100000000E-03 0. -1.
         22    1    1    2    0    0 -0.17045848354E+02 -0.19920534223E+02  0.79594632058E+02  0.83801515990E+02  0.00000000000E+00 0.  1.
          2    1    1    2  501    0  0.16459695474E+03  0.56087789394E+03 -0.12878362534E+04  0.14142837003E+04  0.25500000000E-02 0. -1.
<mgrwt>
<rscale>  0 0.58453073E+03</rscale>
<asrwt>0</asrwt>
<pdfrwt beam="1">  1       11 0.10000000E+01 0.59354554E+03</pdfrwt>
<pdfrwt beam="2">  1        2 0.22256412E+00 0.58453073E+03</pdfrwt>
<totfact> 0.17329445E+01</totfact>
</mgrwt>
</event>
<event>
 5    1  0.2226716E-003  0.3412814E+03  0.7818608E-02  0.1072251E+00
         11   -1    0    0    0    0  0.00000000000E+00  0.00000000000E+00  0.99988592133E+03  0.99988592133E+03  0.51100000000E-03 0.  1.
          2   -1    0    0  501    0 -0.00000000000E+00 -0.00000000000E+00 -0.41676304378E+03  0.41676304378E+03  0.25500000000E-02 0.  1.
         11    1    1    2    0    0 -0.25466587771E+03  0.14047093444E+03  0.68187987252E+03  0.74131434172E+03  0.51100000000E-03 0.  1.
         22    1    1    2    0    0 -0.35287239274E+02  0.11777313366E+02  0.21714653221E+03  0.22031003340E+03  0.00000000000E+00 0.  1.
          2    1    1    2  501    0  0.28995311698E+03 -0.15224824781E+03 -0.31590352718E+03  0.45502458999E+03  0.25500000000E-02 0.  1.
<mgrwt>
<rscale>  0 0.32749403E+03</rscale>
<asrwt>0</asrwt>
<pdfrwt beam="1">  1       11 0.10000000E+01 0.34128135E+03</pdfrwt>
<pdfrwt beam="2">  1        2 0.64110075E-01 0.32749403E+03</pdfrwt>
<totfact> 0.94752404E+01</totfact>
</mgrwt>
</event>
<event>
 5    1  0.2226716E-003  0.2223938E+03  0.7818608E-02  0.1132111E+00
         11   -1    0    0    0    0  0.00000000000E+00  0.00000000000E+00  0.10003579779E+04  0.10003579779E+04  0.51100000000E-03 0. -1.
          2   -1    0    0  501    0 -0.00000000000E+00 -0.00000000000E+00 -0.11238045001E+03  0.11238045004E+03  0.25500000000E-02 0. -1.
         11    1    1    2    0    0  0.21348063326E+03 -0.56589843571E+02  0.32612892191E+02  0.22324872207E+03  0.51100000000E-03 0. -1.
         22    1    1    2    0    0  0.11509916286E+02 -0.13870113008E+01  0.45802792965E+02  0.47247199035E+02  0.00000000000E+00 0. -1.
          2    1    1    2  501    0 -0.22499054954E+03  0.57976854872E+02  0.80956184276E+03  0.84224250685E+03  0.25500000000E-02 0. -1.
<mgrwt>
<rscale>  0 0.22239375E+03</rscale>
<asrwt>0</asrwt>
<pdfrwt beam="1">  1       11 0.10000000E+01 0.11593187E+02</pdfrwt>
<pdfrwt beam="2">  1        2 0.17295489E-01 0.22239375E+03</pdfrwt>
<totfact> 0.40343793E+02</totfact>
</mgrwt>
</event>
<event>
 5    1  0.2226716E-003  0.1482444E+03  0.7818608E-02  0.1202647E+00
         11   -1    0    0    0    0  0.00000000000E+00  0.00000000000E+00  0.10000780934E+04  0.10000780934E+04  0.51100000000E-03 0. -1.
          2   -1    0    0  501    0 -0.00000000000E+00 -0.00000000000E+00 -0.26543935613E+03  0.26543935614E+03  0.25500000000E-02 0. -1.
         11    1    1    2    0    0  0.12880275121E+03 -0.27756583904E+02  0.50792060981E+03  0.52473223890E+03  0.51100000000E-03 0. -1.
         22    1    1    2    0    0 -0.96678736010E+01  0.12053828978E+03  0.45293554915E+03  0.46880012667E+03  0.00000000000E+00 0.  1.
          2    1    1    2  501    0 -0.11913487761E+03 -0.92781705877E+02 -0.22621742170E+03  0.27198508396E+03  0.25500000000E-02 0. -1.
<mgrwt>
<rscale>  0 0.14824438E+03</rscale>
<asrwt>0</asrwt>
<pdfrwt beam="1">  1       11 0.10000000E+01 0.12092538E+03</pdfrwt>
<pdfrwt beam="2">  1        2 0.40840012E-01 0.14824438E+03</pdfrwt>
<totfact> 0.15429955E+02</totfact>
</mgrwt>
</event>
<event>
 5    1  0.2926078E-003  0.3491459E+03  0.7818608E-02  0.1065219E+00
         11   -1    0    0    0    0  0.00000000000E+00  0.00000000000E+00  0.10003013216E+04  0.10003013216E+04  0.51100000000E-03 0. -1.
          2   -1    0    0  501    0 -0.00000000000E+00 -0.00000000000E+00 -0.27046270338E+04  0.27046270338E+04  0.25500000000E-02 0. -1.
         11    1    1    2    0    0  0.94203054356E+02 -0.32211315531E+03  0.91922469453E+03  0.97857301174E+03  0.51100000000E-03 0. -1.
         22    1    1    2    0    0 -0.82680053831E+01 -0.10698877775E+02  0.39223072428E+02  0.41488255077E+02  0.00000000000E+00 0. -1.
          2    1    1    2  501    0 -0.85935048973E+02  0.33281203309E+03 -0.26627734791E+04  0.26848670885E+04  0.25500000000E-02 0. -1.
<mgrwt>
<rscale>  0 0.34372763E+03</rscale>
<asrwt>0</asrwt>
<pdfrwt beam="1">  1       11 0.10000000E+01 0.34914591E+03</pdfrwt>
<pdfrwt beam="2">  1        2 0.41622183E+00 0.34372763E+03</pdfrwt>
<totfact> 0.37505241E+00</totfact>
</mgrwt>
</event>
<event>
 5    1  0.2226716E-003  0.6730757E+03  0.7818608E-02  0.9764417E-01
         11   -1    0    0    0    0  0.00000000000E+00  0.00000000000E+00  0.99966564976E+03  0.99966564977E+03  0.51100000000E-03 0. -1.
          2   -1    0    0  501    0 -0.00000000000E+00 -0.00000000000E+00 -0.77446624515E+03  0.77446624515E+03  0.25500000000E-02 0. -1.
         11    1    1    2    0    0 -0.44003089913E+02  0.66785860429E+03  0.64707976749E+03  0.93095843771E+03  0.51100000000E-03 0. -1.
         22    1    1    2    0    0 -0.93231656740E+01  0.39739561461E+01  0.30059949568E+02  0.31722457560E+02  0.00000000000E+00 0. -1.
          2    1    1    2  501    0  0.53326255587E+02 -0.67183256044E+03 -0.45194031244E+03  0.81145099964E+03  0.25500000000E-02 0. -1.
<mgrwt>
<rscale>  0 0.67307574E+03</rscale>
<asrwt>0</asrwt>
<pdfrwt beam="1">  1       11 0.10000000E+01 0.10134779E+02</pdfrwt>
<pdfrwt beam="2">  1        2 0.11910881E+00 0.67307574E+03</pdfrwt>
<totfact> 0.44792377E+01</totfact>
</mgrwt>
</event>
<event>
 5    1  0.2226716E-003  0.1868371E+03  0.7818608E-02  0.1166597E+00
         11   -1    0    0    0    0  0.00000000000E+00  0.00000000000E+00  0.10010080673E+04  0.10010080673E+04  0.51100000000E-03 0. -1.
          2   -1    0    0  501    0 -0.00000000000E+00 -0.00000000000E+00 -0.38775891451E+04  0.38775891451E+04  0.25500000000E-02 0. -1.
         11    1    1    2    0    0 -0.17080969413E+03 -0.16470827478E+03  0.44930463829E+03  0.50811359496E+03  0.51100000000E-03 0. -1.
         22    1    1    2    0    0 -0.91914136474E+01  0.18596176944E+03  0.50349391712E+03  0.53681690208E+03  0.00000000000E+00 0. -1.
          2    1    1    2  501    0  0.18000110777E+03 -0.21253494656E+02 -0.38293796332E+04  0.38336667154E+04  0.25500000000E-02 0. -1.
<mgrwt>
<rscale>  0 0.18125151E+03</rscale>
<asrwt>0</asrwt>
<pdfrwt beam="1">  1       11 0.10000000E+01 0.18683706E+03</pdfrwt>
<pdfrwt beam="2">  1        2 0.59715352E+00 0.18125151E+03</pdfrwt>
<totfact> 0.74387548E-01</totfact>
</mgrwt>
</event>
<event>
 5    1  0.2226716E-003  0.2642910E+03  0.7818608E-02  0.1104592E+00
         11   -1    0    0    0    0  0.00000000000E+00  0.00000000000E+00  0.99943800112E+03  0.99943800112E+03  0.51100000000E-03 0.  1.
          2   -1    0    0  501    0 -0.00000000000E+00 -0.00000000000E+00 -0.13857753797E+04  0.13857753797E+04  0.25500000000E-02 0.  1.
         11    1    1    2    0    0 -0.54434254817E+02  0.27010705791E+03  0.73567142291E+03  0.78557835593E+03  0.51100000000E-03 0.  1.
         22    1    1    2    0    0  0.89225120291E+02 -0.80569286356E+01  0.21700815857E+03  0.23477345905E+03  0.00000000000E+00 0.  1.
          2    1    1    2  501    0 -0.34790865474E+02 -0.26205012927E+03 -0.13390169601E+04  0.13648615658E+04  0.25500000000E-02 0.  1.
<mgrwt>
<rscale>  0 0.26429102E+03</rscale>
<asrwt>0</asrwt>
<pdfrwt beam="1">  1       11 0.10000000E+01 0.89588148E+02</pdfrwt>
<pdfrwt beam="2">  1        2 0.21307639E+00 0.26429102E+03</pdfrwt>
<totfact> 0.19775733E+01</totfact>
</mgrwt>
</event>
<event>
 5    1  0.2226716E-003  0.2428184E+03  0.7818608E-02  0.1117929E+00
         11   -1    0    0    0    0  0.00000000000E+00  0.00000000000E+00  0.10000420567E+04  0.10000420567E+04  0.51100000000E-03 0. -1.
          2   -1    0    0  501    0 -0.00000000000E+00 -0.00000000000E+00 -0.14363564518E+03  0.14363564520E+03  0.25500000000E-02 0. -1.
         11    1    1    2    0    0 -0.75382159389E+02 -0.19344514162E+03  0.62645082994E+03  0.65995767675E+03  0.51100000000E-03 0. -1.
         22    1    1    2    0    0 -0.10284976892E+03  0.12928326663E+02  0.20386203219E+03  0.22870274324E+03  0.00000000000E+00 0. -1.
          2    1    1    2  501    0  0.17823192831E+03  0.18051681496E+03  0.26093549405E+02  0.25501728192E+03  0.25500000000E-02 0. -1.
<mgrwt>
<rscale>  0 0.24281837E+03</rscale>
<asrwt>0</asrwt>
<pdfrwt beam="1">  1       11 0.10000000E+01 0.10365914E+03</pdfrwt>
<pdfrwt beam="2">  1        2 0.22098720E-01 0.24281837E+03</pdfrwt>
<totfact> 0.30503836E+02</totfact>
</mgrwt>
</event>
<event>
 5    1  0.2226716E-003  0.8276401E+03  0.7818608E-02  0.9520849E-01
         11   -1    0    0    0    0  0.00000000000E+00  0.00000000000E+00  0.99991911376E+03  0.99991911377E+03  0.51100000000E-03 0. -1.
          2   -1    0    0  501    0 -0.00000000000E+00 -0.00000000000E+00 -0.18171606971E+04  0.18171606971E+04  0.25500000000E-02 0.  1.
         11    1    1    2    0    0  0.45625673259E+03  0.66716468487E+03  0.55659444596E+03  0.98136450927E+03  0.51100000000E-03 0. -1.
         22    1    1    2    0    0  0.37040291443E+01  0.24160227033E+02  0.12223583623E+03  0.12465566999E+03  0.00000000000E+00 0. -1.
          2    1    1    2  501    0 -0.45996076173E+03 -0.69132491191E+03 -0.14960718655E+04  0.17110596316E+04  0.25500000000E-02 0.  1.
<mgrwt>
<rscale>  0 0.82764014E+03</rscale>
<asrwt>0</asrwt>
<pdfrwt beam="1">  1       11 0.10000000E+01 0.24442512E+02</pdfrwt>
<pdfrwt beam="2">  1        2 0.27954056E+00 0.82764014E+03</pdfrwt>
<totfact> 0.10570031E+01</totfact>
</mgrwt>
</event>
<event>
 5    1  0.2226716E-003  0.1362366E+03  0.7818608E-02  0.1233610E+00
         11   -1    0    0    0    0  0.00000000000E+00  0.00000000000E+00  0.99986746676E+03  0.99986746676E+03  0.51100000000E-03 0.  1.
          2   -1    0    0  501    0 -0.00000000000E+00 -0.00000000000E+00 -0.92424723803E+02  0.92424723838E+02  0.25500000000E-02 0.  1.
         11    1    1    2    0    0  0.14017452980E+03  0.62818935675E+02  0.69587535405E+03  0.71262726994E+03  0.51100000000E-03 0.  1.
         22    1    1    2    0    0 -0.33676344132E+02 -0.13003912569E+03  0.21518963293E+03  0.25367469027E+03  0.00000000000E+00 0.  1.
          2    1    1    2  501    0 -0.10649818567E+03  0.67220190017E+02 -0.36222440193E+01  0.12599023039E+03  0.25500000000E-02 0.  1.
<mgrwt>
<rscale>  0 0.12593815E+03</rscale>
<asrwt>0</asrwt>
<pdfrwt beam="1">  1       11 0.10000000E+01 0.13623665E+03</pdfrwt>
<pdfrwt beam="2">  1        2 0.14217303E-01 0.12593815E+03</pdfrwt>
<totfact> 0.49652001E+02</totfact>
</mgrwt>
</event>
<event>
 5    1  0.2226716E-003  0.3729595E+03  0.7818608E-02  0.1053567E+00
         11   -1    0    0    0    0  0.00000000000E+00  0.00000000000E+00  0.10004044595E+04  0.10004044595E+04  0.51100000000E-03 0. -1.
          2   -1    0    0  501    0 -0.00000000000E+00 -0.00000000000E+00 -0.98975241560E+03  0.98975241560E+03  0.25500000000E-02 0. -1.
         11    1    1    2    0    0 -0.45282527512E+03  0.12381061519E+03  0.72261020439E+03  0.86171068562E+03  0.51100000000E-03 0. -1.
         22    1    1    2    0    0  0.10751938791E+03  0.47640148758E+01  0.15369831836E+03  0.18763338637E+03  0.00000000000E+00 0.  1.
          2    1    1    2  501    0  0.34530588721E+03 -0.12857463006E+03 -0.86565647882E+03  0.94081280314E+03  0.25500000000E-02 0. -1.
<mgrwt>
<rscale>  0 0.37295948E+03</rscale>
<asrwt>0</asrwt>
<pdfrwt beam="1">  1       11 0.10000000E+01 0.10762488E+03</pdfrwt>
<pdfrwt beam="2">  1        2 0.15233118E+00 0.37295948E+03</pdfrwt>
<totfact> 0.32813291E+01</totfact>
</mgrwt>
</event>
<event>
 5    1  0.2226716E-003  0.7938891E+02  0.7818608E-02  0.1544447E+00
         11   -1    0    0    0    0  0.00000000000E+00  0.00000000000E+00  0.10003624038E+04  0.10003624038E+04  0.51100000000E-03 0. -1.
          2   -1    0    0  501    0 -0.00000000000E+00 -0.00000000000E+00 -0.10434681019E+02  0.10434681330E+02  0.25500000000E-02 0.  1.
         11    1    1    2    0    0  0.58314935524E+02 -0.40205890309E+02  0.40517755125E+03  0.41132225002E+03  0.51100000000E-03 0. -1.
         22    1    1    2    0    0 -0.59996308942E+02  0.75638213441E+02  0.43363183310E+03  0.44424910027E+03  0.00000000000E+00 0. -1.
          2    1    1    2  501    0  0.16813734179E+01 -0.35432323132E+02  0.15111833843E+03  0.15522573483E+03  0.25500000000E-02 0.  1.
<mgrwt>
<rscale>  0 0.35472194E+02</rscale>
<asrwt>0</asrwt>
<pdfrwt beam="1">  1       11 0.10000000E+01 0.79388914E+02</pdfrwt>
<pdfrwt beam="2">  1        2 0.16059173E-02 0.35472194E+02</pdfrwt>
<totfact> 0.69091995E+03</totfact>
</mgrwt>
</event>
<event>
 5    1  0.2226716E-003  0.1864249E+03  0.7818608E-02  0.1161726E+00
         11   -1    0    0    0    0  0.00000000000E+00  0.00000000000E+00  0.99952747355E+03  0.99952747355E+03  0.51100000000E-03 0.  1.
          2   -1    0    0  501    0 -0.00000000000E+00 -0.00000000000E+00 -0.19578759126E+04  0.19578759126E+04  0.25500000000E-02 0.  1.
         11    1    1    2    0    0  0.18575504818E+03 -0.40763912991E+02  0.87615525256E+03  0.89655711537E+03  0.51100000000E-03 0.  1.
         22    1    1    2    0    0 -0.82545462097E+01 -0.16177709458E+02  0.10795068889E+03  0.10946783568E+03  0.00000000000E+00 0. -1.
          2    1    1    2  501    0 -0.17750050197E+03  0.56941622450E+02 -0.19424543805E+04  0.19513784351E+04  0.25500000000E-02 0.  1.
<mgrwt>
<rscale>  0 0.18642488E+03</rscale>
<asrwt>0</asrwt>
<pdfrwt beam="1">  1       11 0.10000000E+01 0.18161933E+02</pdfrwt>
<pdfrwt beam="2">  1        2 0.30106934E+00 0.18642488E+03</pdfrwt>
<totfact> 0.10178217E+01</totfact>
</mgrwt>
</event>
<event>
 5    1  0.2226716E-003  0.1867685E+03  0.7818608E-02  0.1250114E+00
         11   -1    0    0    0    0  0.00000000000E+00  0.00000000000E+00  0.10002264696E+04  0.10002264696E+04  0.51100000000E-03 0. -1.
          2   -1    0    0  501    0 -0.00000000000E+00 -0.00000000000E+00 -0.11337201388E+03  0.11337201391E+03  0.25500000000E-02 0. -1.
         11    1    1    2    0    0  0.88661267590E+02  0.26424071679E+03  0.22144849730E+03  0.35598232222E+03  0.51100000000E-03 0. -1.
         22    1    1    2    0    0 -0.85258661280E+02 -0.14844600494E+03  0.60134890479E+03  0.62524056250E+03  0.00000000000E+00 0. -1.
          2    1    1    2  501    0 -0.34026063100E+01 -0.11579471184E+03  0.64057053604E+02  0.13237559875E+03  0.25500000000E-02 0. -1.
<mgrwt>
<rscale>  0 0.11584469E+03</rscale>
<asrwt>0</asrwt>
<pdfrwt beam="1">  1       11 0.10000000E+01 0.18676852E+03</pdfrwt>
<pdfrwt beam="2">  1        2 0.17445798E-01 0.11584469E+03</pdfrwt>
<totfact> 0.39023254E+02</totfact>
</mgrwt>
</event>
<event>
 5    1  0.2226716E-003  0.6937592E+02  0.7818608E-02  0.1362228E+00
         11   -1    0    0    0    0  0.00000000000E+00  0.00000000000E+00  0.10002349169E+04  0.10002349169E+04  0.51100000000E-03 0.  1.
          2   -1    0    0  501    0 -0.00000000000E+00 -0.00000000000E+00 -0.48405216690E+01  0.48405223407E+01  0.25500000000E-02 0. -1.
         11    1    1    2    0    0  0.59366025757E+01  0.66739172136E+02  0.38935184209E+03  0.39507495148E+03  0.51100000000E-03 0.  1.
         22    1    1    2    0    0 -0.37082081723E+01 -0.12367596886E+02  0.68149922808E+02  0.69362239290E+02  0.00000000000E+00 0.  1.
          2    1    1    2  501    0 -0.22283944034E+01 -0.54371575250E+02  0.53789263033E+03  0.54063824847E+03  0.25500000000E-02 0. -1.
<mgrwt>
<rscale>  0 0.69375924E+02</rscale>
<asrwt>0</asrwt>
<pdfrwt beam="1">  1       11 0.10000000E+01 0.67002723E+02</pdfrwt>
<pdfrwt beam="2">  1        2 0.74487061E-03 0.69375924E+02</pdfrwt>
<totfact> 0.21804872E+04</totfact>
</mgrwt>
</event>
<event>
 5    1  0.2226716E-003  0.1492177E+03  0.7818608E-02  0.1287784E+00
         11   -1    0    0    0    0  0.00000000000E+00  0.00000000000E+00  0.99989323598E+03  0.99989323598E+03  0.51100000000E-03 0.  1.
          2   -1    0    0  501    0 -0.00000000000E+00 -0.00000000000E+00 -0.34637854752E+02  0.34637854846E+02  0.25500000000E-02 0.  1.
         11    1    1    2    0    0 -0.68773060070E+02 -0.15893746110E+03  0.50145749980E+03  0.53051906133E+03  0.51100000000E-03 0.  1.
         22    1    1    2    0    0 -0.18909598114E+02  0.59503583011E+02  0.11475578832E+03  0.13064126548E+03  0.00000000000E+00 0. -1.
          2    1    1    2  501    0  0.87682658184E+02  0.99433878085E+02  0.34904209311E+03  0.37337076402E+03  0.25500000000E-02 0.  1.
<mgrwt>
<rscale>  0 0.96522250E+02</rscale>
<asrwt>0</asrwt>
<pdfrwt beam="1">  1       11 0.10000000E+01 0.14921768E+03</pdfrwt>
<pdfrwt beam="2">  1        2 0.53283317E-02 0.96522250E+02</pdfrwt>
<totfact> 0.16396266E+03</totfact>
</mgrwt>
</event>
<event>
 5    1  0.2226716E-003  0.3450312E+03  0.7818608E-02  0.1064673E+00
         11   -1    0    0    0    0  0.00000000000E+00  0.00000000000E+00  0.10001313906E+04  0.10001313906E+04  0.51100000000E-03 0.  1.
          2   -1    0    0  501    0 -0.00000000000E+00 -0.00000000000E+00 -0.90028747855E+03  0.90028747856E+03  0.25500000000E-02 0.  1.
         11    1    1    2    0    0  0.27197769177E+03  0.19312379607E+03  0.80813371537E+03  0.87427042003E+03  0.51100000000E-03 0.  1.
         22    1    1    2    0    0 -0.18764988058E+02  0.42107592532E+02  0.12005041319E+03  0.12859733992E+03  0.00000000000E+00 0.  1.
          2    1    1    2  501    0 -0.25321270371E+03 -0.23523138861E+03 -0.82834021647E+03  0.89755110926E+03  0.25500000000E-02 0.  1.
<mgrwt>
<rscale>  0 0.34503122E+03</rscale>
<asrwt>0</asrwt>
<pdfrwt beam="1">  1       11 0.10000000E+01 0.46099611E+02</pdfrwt>
<pdfrwt beam="2">  1        2 0.13852396E+00 0.34503122E+03</pdfrwt>
<totfact> 0.37576626E+01</totfact>
</mgrwt>
</event>
<event>
 5    1  0.2226716E-003  0.9409958E+02  0.7818608E-02  0.1674562E+00
         11   -1    0    0    0    0  0.00000000000E+00  0.00000000000E+00  0.10000968947E+04  0.10000968947E+04  0.51100000000E-03 0.  1.
         -2   -1    0    0    0  501 -0.00000000000E+00 -0.00000000000E+00 -0.13195647208E+02  0.13195647455E+02  0.25500000000E-02 0. -1.
         11    1    1    2    0    0  0.72290798277E+02 -0.77597395791E+02  0.59866175862E+03  0.60798290814E+03  0.51100000000E-03 0.  1.
         22    1    1    2    0    0 -0.57409766029E+02  0.58664512892E+02  0.35436978232E+03  0.36375176828E+03  0.00000000000E+00 0. -1.
         -2    1    1    2    0  501 -0.14881032248E+02  0.18932882899E+02  0.33869706515E+02  0.41557865700E+02  0.25500000000E-02 0. -1.
<mgrwt>
<rscale>  0 0.24081096E+02</rscale>
<asrwt>0</asrwt>
<pdfrwt beam="1">  1       11 0.10000000E+01 0.94099581E+02</pdfrwt>
<pdfrwt beam="2">  1       -2 0.20302962E-02 0.24081096E+02</pdfrwt>
<totfact> 0.42877011E+03</totfact>
</mgrwt>
</event>
<event>
 5    1  0.2226716E-003  0.1749043E+03  0.7818608E-02  0.1180791E+00
         11   -1    0    0    0    0  0.00000000000E+00  0.00000000000E+00  0.99998183648E+03  0.99998183648E+03  0.51100000000E-03 0. -1.
          2   -1    0    0  501    0 -0.00000000000E+00 -0.00000000000E+00 -0.30462816661E+02  0.30462816767E+02  0.25500000000E-02 0. -1.
         11    1    1    2    0    0 -0.92663645547E+02  0.91589110602E+02  0.37533285173E+03  0.39730324184E+03  0.51100000000E-03 0. -1.
         22    1    1    2    0    0 -0.22229971299E+02  0.29893534711E+02  0.22222223236E+03  0.22532313596E+03  0.00000000000E+00 0.  1.
          2    1    1    2  501    0  0.11489361685E+03 -0.12148264531E+03  0.37196393572E+03  0.40781827545E+03  0.25500000000E-02 0. -1.
<mgrwt>
<rscale>  0 0.16720818E+03</rscale>
<asrwt>0</asrwt>
<pdfrwt beam="1">  1       11 0.10000000E+01 0.17490434E+03</pdfrwt>
<pdfrwt beam="2">  1        2 0.46865019E-02 0.16720818E+03</pdfrwt>
<totfact> 0.20292375E+03</totfact>
</mgrwt>
</event>
<event>
 5    1  0.2226716E-003  0.2144242E+03  0.7818608E-02  0.1138110E+00
         11   -1    0    0    0    0  0.00000000000E+00  0.00000000000E+00  0.10003212660E+04  0.10003212660E+04  0.51100000000E-03 0. -1.
          2   -1    0    0  501    0 -0.00000000000E+00 -0.00000000000E+00 -0.21478276407E+03  0.21478276408E+03  0.25500000000E-02 0.  1.
         11    1    1    2    0    0  0.14468009948E+03 -0.12171184723E+03  0.77752302011E+03  0.80018007457E+03  0.51100000000E-03 0. -1.
         22    1    1    2    0    0  0.43932343614E+02  0.15347141475E+02  0.14929135635E+03  0.15637613196E+03  0.00000000000E+00 0. -1.
          2    1    1    2  501    0 -0.18861244310E+03  0.10636470575E+03 -0.14127587454E+03  0.25854782354E+03  0.25500000000E-02 0.  1.
<mgrwt>
<rscale>  0 0.21442422E+03</rscale>
<asrwt>0</asrwt>
<pdfrwt beam="1">  1       11 0.10000000E+01 0.46535852E+02</pdfrwt>
<pdfrwt beam="2">  1        2 0.33054117E-01 0.21442422E+03</pdfrwt>
<totfact> 0.19455383E+02</totfact>
</mgrwt>
</event>
<event>
 5    1  0.2226716E-003  0.3132104E+03  0.7818608E-02  0.1542117E+00
         11   -1    0    0    0    0  0.00000000000E+00  0.00000000000E+00  0.10004271112E+04  0.10004271112E+04  0.51100000000E-03 0.  1.
          2   -1    0    0  501    0 -0.00000000000E+00 -0.00000000000E+00 -0.38160053676E+03  0.38160053677E+03  0.25500000000E-02 0.  1.
         11    1    1    2    0    0 -0.50687363461E+02  0.29615038253E+03  0.43017950003E+03  0.52471769566E+03  0.51100000000E-03 0.  1.
         22    1    1    2    0    0  0.31103519139E+02 -0.32604842743E+03  0.47045810506E+03  0.57324151503E+03  0.00000000000E+00 0.  1.
          2    1    1    2  501    0  0.19583844322E+02  0.29898044900E+02 -0.28181103066E+03  0.28406843728E+03  0.25500000000E-02 0.  1.
<mgrwt>
<rscale>  0 0.35741014E+02</rscale>
<asrwt>0</asrwt>
<pdfrwt beam="1">  1       11 0.10000000E+01 0.31321037E+03</pdfrwt>
<pdfrwt beam="2">  1        2 0.58732848E-01 0.35741014E+02</pdfrwt>
<totfact> 0.10496092E+02</totfact>
</mgrwt>
</event>
<event>
 5    1  0.2226716E-003  0.1555498E+03  0.7818608E-02  0.1193815E+00
         11   -1    0    0    0    0  0.00000000000E+00  0.00000000000E+00  0.10003654361E+04  0.10003654361E+04  0.51100000000E-03 0. -1.
          2   -1    0    0  501    0 -0.00000000000E+00 -0.00000000000E+00 -0.42470945696E+02  0.42470945773E+02  0.25500000000E-02 0. -1.
         11    1    1    2    0    0 -0.89398113771E+02  0.10986128944E+03  0.55944367686E+03  0.57709509895E+03  0.51100000000E-03 0. -1.
         22    1    1    2    0    0 -0.42576389405E+02 -0.15737763812E+02  0.22009993454E+03  0.22473185651E+03  0.00000000000E+00 0. -1.
          2    1    1    2  501    0  0.13197450318E+03 -0.94123525631E+02  0.17835087898E+03  0.24100942638E+03  0.25500000000E-02 0. -1.
<mgrwt>
<rscale>  0 0.15554975E+03</rscale>
<asrwt>0</asrwt>
<pdfrwt beam="1">  1       11 0.10000000E+01 0.45391917E+02</pdfrwt>
<pdfrwt beam="2">  1        2 0.65363792E-02 0.15554975E+03</pdfrwt>
<totfact> 0.13088073E+03</totfact>
</mgrwt>
</event>
<event>
 5    1  0.2226716E-003  0.9277427E+03  0.7818608E-02  0.9391551E-01
         11   -1    0    0    0    0  0.00000000000E+00  0.00000000000E+00  0.10003167280E+04  0.10003167280E+04  0.51100000000E-03 0. -1.
          2   -1    0    0  501    0 -0.00000000000E+00 -0.00000000000E+00 -0.94315577215E+03  0.94315577215E+03  0.25500000000E-02 0. -1.
         11    1    1    2    0    0 -0.78956702844E+03  0.47426643843E+03  0.12012022194E+03  0.92885607860E+03  0.51100000000E-03 0. -1.
         22    1    1    2    0    0 -0.65810591511E+01  0.12011363123E+02  0.70849137806E+02  0.72160817009E+02  0.00000000000E+00 0. -1.
          2    1    1    2  501    0  0.79614808759E+03 -0.48627780156E+03 -0.13380840386E+03  0.94245560458E+03  0.25500000000E-02 0. -1.
<mgrwt>
<rscale>  0 0.92774274E+03</rscale>
<asrwt>0</asrwt>
<pdfrwt beam="1">  1       11 0.10000000E+01 0.13696101E+02</pdfrwt>
<pdfrwt beam="2">  1        2 0.14514684E+00 0.92774274E+03</pdfrwt>
<totfact> 0.33775410E+01</totfact>
</mgrwt>
</event>
<event>
 5    1  0.2226716E-003  0.4501549E+02  0.7818608E-02  0.1695309E+00
         11   -1    0    0    0    0  0.00000000000E+00  0.00000000000E+00  0.10002595412E+04  0.10002595412E+04  0.51100000000E-03 0.  1.
          2   -1    0    0  501    0 -0.00000000000E+00 -0.00000000000E+00 -0.14798062939E+02  0.14798063159E+02  0.25500000000E-02 0.  1.
         11    1    1    2    0    0 -0.24896582374E+00  0.55986965754E+02  0.45712346606E+02  0.72278772477E+02  0.51100000000E-03 0.  1.
         22    1    1    2    0    0 -0.12430986299E+01 -0.11447712664E+02  0.33296745008E+02  0.35231642703E+02  0.00000000000E+00 0.  1.
          2    1    1    2  501    0  0.14920644536E+01 -0.44539253090E+02  0.90645238664E+03  0.90754718917E+03  0.25500000000E-02 0.  1.
<mgrwt>
<rscale>  0 0.22767379E+02</rscale>
<asrwt>0</asrwt>
<pdfrwt beam="1">  1       11 0.10000000E+01 0.45015494E+02</pdfrwt>
<pdfrwt beam="2">  1        2 0.22772159E-02 0.22767379E+02</pdfrwt>
<totfact> 0.40637820E+03</totfact>
</mgrwt>
</event>
<event>
 5    1  0.2226716E-003  0.2454257E+03  0.7818608E-02  0.1161527E+00
         11   -1    0    0    0    0  0.00000000000E+00  0.00000000000E+00  0.10003447121E+04  0.10003447121E+04  0.51100000000E-03 0. -1.
          2   -1    0    0  501    0 -0.00000000000E+00 -0.00000000000E+00 -0.13104846780E+03  0.13104846782E+03  0.25500000000E-02 0. -1.
         11    1    1    2    0    0  0.15780148606E+03  0.22314617012E+03  0.68349122117E+03  0.73610853253E+03  0.51100000000E-03 0. -1.
         22    1    1    2    0    0 -0.13496476740E+03 -0.43933402780E+02  0.15817769218E+03  0.21252250380E+03  0.00000000000E+00 0. -1.
          2    1    1    2  501    0 -0.22836718657E+02 -0.17921276734E+03  0.27627330922E+02  0.18276214356E+03  0.25500000000E-02 0. -1.
<mgrwt>
<rscale>  0 0.18664023E+03</rscale>
<asrwt>0</asrwt>
<pdfrwt beam="1">  1       11 0.10000000E+01 0.24542573E+03</pdfrwt>
<pdfrwt beam="2">  1        2 0.20168252E-01 0.18664023E+03</pdfrwt>
<totfact> 0.33610173E+02</totfact>
</mgrwt>
</event>
<event>
 5    1  0.2226716E-003  0.2239845E+03  0.7818608E-02  0.1130947E+00
         11   -1    0    0    0    0  0.00000000000E+00  0.00000000000E+00  0.10000099152E+04  0.10000099152E+04  0.51100000000E-03 0.  1.
          2   -1    0    0  501    0 -0.00000000000E+00 -0.00000000000E+00 -0.60000594915E+03  0.60000594915E+03  0.25500000000E-02 0.  1.
         11    1    1    2    0    0  0.15520877927E+03 -0.14202214400E+03  0.87146190947E+03  0.89649646637E+03  0.51100000000E-03 0.  1.
         22    1    1    2    0    0 -0.15419201370E+02 -0.33489626741E+02  0.90877700583E+02  0.98071725453E+02  0.00000000000E+00 0.  1.
          2    1    1    2  501    0 -0.13978957790E+03  0.17551177074E+03 -0.56233564396E+03  0.60544767258E+03  0.25500000000E-02 0.  1.
<mgrwt>
<rscale>  0 0.22398450E+03</rscale>
<asrwt>0</asrwt>
<pdfrwt beam="1">  1       11 0.10000000E+01 0.36868779E+02</pdfrwt>
<pdfrwt beam="2">  1        2 0.92309520E-01 0.22398450E+03</pdfrwt>
<totfact> 0.63203465E+01</totfact>
</mgrwt>
</event>
<event>
 5    1  0.2226716E-003  0.3322896E+03  0.7818608E-02  0.1077282E+00
         11   -1    0    0    0    0  0.00000000000E+00  0.00000000000E+00  0.10010213827E+04  0.10010213827E+04  0.51100000000E-03 0.  1.
          2   -1    0    0  501    0 -0.00000000000E+00 -0.00000000000E+00 -0.18715807825E+04  0.18715807825E+04  0.25500000000E-02 0.  1.
         11    1    1    2    0    0  0.23508109353E+03  0.23000960214E+02  0.70655764740E+03  0.74499387502E+03  0.51100000000E-03 0.  1.
         22    1    1    2    0    0  0.68372117496E+02  0.66857986996E+02  0.25292679142E+03  0.27040099611E+03  0.00000000000E+00 0.  1.
          2    1    1    2  501    0 -0.30345321103E+03 -0.89858947210E+02 -0.18300438386E+04  0.18572072940E+04  0.25500000000E-02 0.  1.
<mgrwt>
<rscale>  0 0.31647825E+03</rscale>
<asrwt>0</asrwt>
<pdfrwt beam="1">  1       11 0.10000000E+01 0.33228957E+03</pdfrwt>
<pdfrwt beam="2">  1        2 0.28822959E+00 0.31647825E+03</pdfrwt>
<totfact> 0.10704100E+01</totfact>
</mgrwt>
</event>
<event>
 5    1  0.2226716E-003  0.2480893E+03  0.7818608E-02  0.1114518E+00
         11   -1    0    0    0    0  0.00000000000E+00  0.00000000000E+00  0.10004203803E+04  0.10004203803E+04  0.51100000000E-03 0. -1.
          2   -1    0    0  501    0 -0.00000000000E+00 -0.00000000000E+00 -0.10956096329E+04  0.10956096329E+04  0.25500000000E-02 0. -1.
         11    1    1    2    0    0 -0.17201841693E+03  0.17057472402E+03 -0.15312518592E+02  0.24273554636E+03  0.51100000000E-03 0. -1.
         22    1    1    2    0    0  0.12389860934E+03  0.79329232778E+02  0.86362811942E+03  0.87606935868E+03  0.00000000000E+00 0. -1.
          2    1    1    2  501    0  0.48119807597E+02 -0.24990395680E+03 -0.94350485343E+03  0.97722510813E+03  0.25500000000E-02 0. -1.
<mgrwt>
<rscale>  0 0.24808935E+03</rscale>
<asrwt>0</asrwt>
<pdfrwt beam="1">  1       11 0.10000000E+01 0.14711897E+03</pdfrwt>
<pdfrwt beam="2">  1        2 0.16862618E+00 0.24808935E+03</pdfrwt>
<totfact> 0.28885561E+01</totfact>
</mgrwt>
</event>
<event>
 5    1  0.2226716E-003  0.1290182E+03  0.7818608E-02  0.1355825E+00
         11   -1    0    0    0    0  0.00000000000E+00  0.00000000000E+00  0.99996293128E+03  0.99996293128E+03  0.51100000000E-03 0. -1.
          2   -1    0    0  501    0 -0.00000000000E+00 -0.00000000000E+00 -0.11188264495E+04  0.11188264495E+04  0.25500000000E-02 0. -1.
         11    1    1    2    0    0 -0.31589468025E+01  0.81991734223E+02  0.10907151380E+03  0.13648889533E+03  0.51100000000E-03 0. -1.
         22    1    1    2    0    0 -0.13954232381E+02 -0.15117714169E+03  0.86944898383E+03  0.88260454579E+03  0.00000000000E+00 0. -1.
          2    1    1    2  501    0  0.17113179184E+02  0.69185407465E+02 -0.10973840159E+04  0.10996959397E+04  0.25500000000E-02 0. -1.
<mgrwt>
<rscale>  0 0.71270481E+02</rscale>
<asrwt>0</asrwt>
<pdfrwt beam="1">  1       11 0.10000000E+01 0.12901823E+03</pdfrwt>
<pdfrwt beam="2">  1        2 0.17212076E+00 0.71270481E+02</pdfrwt>
<totfact> 0.30081152E+01</totfact>
</mgrwt>
</event>
<event>
 5    1  0.2226716E-003  0.1368204E+03  0.7818608E-02  0.1528206E+00
         11   -1    0    0    0    0  0.00000000000E+00  0.00000000000E+00  0.10004989632E+04  0.10004989632E+04  0.51100000000E-03 0.  1.
          2   -1    0    0  501    0 -0.00000000000E+00 -0.00000000000E+00 -0.27324551458E+02  0.27324551577E+02  0.25500000000E-02 0. -1.
         11    1    1    2    0    0 -0.11192189139E+03 -0.73438435032E+02  0.35625116612E+03  0.38057142151E+03  0.51100000000E-03 0.  1.
         22    1    1    2    0    0  0.93128782181E+02  0.10578241561E+03  0.57040884749E+03  0.58756203316E+03  0.00000000000E+00 0. -1.
          2    1    1    2  501    0  0.18793109210E+02 -0.32343980582E+02  0.46514398122E+02  0.59690060084E+02  0.25500000000E-02 0. -1.
<mgrwt>
<rscale>  0 0.37407406E+02</rscale>
<asrwt>0</asrwt>
<pdfrwt beam="1">  1       11 0.10000000E+01 0.13682040E+03</pdfrwt>
<pdfrwt beam="2">  1        2 0.42058746E-02 0.37407406E+02</pdfrwt>
<totfact> 0.20081362E+03</totfact>
</mgrwt>
</event>
<event>
 5    1  0.2226716E-003  0.1546936E+03  0.7818608E-02  0.1194821E+00
         11   -1    0    0    0    0  0.00000000000E+00  0.00000000000E+00  0.10001102891E+04  0.10001102891E+04  0.51100000000E-03 0. -1.
          2   -1    0    0  501    0 -0.00000000000E+00 -0.00000000000E+00 -0.64603679124E+02  0.64603679175E+02  0.25500000000E-02 0. -1.
         11    1    1    2    0    0  0.80603771254E+02 -0.12479070325E+03  0.80575511420E+03  0.81933570141E+03  0.51100000000E-03 0. -1.
         22    1    1    2    0    0 -0.12351723819E+02 -0.15068761943E+02  0.79483190456E+02  0.81836484730E+02  0.00000000000E+00 0.  1.
          2    1    1    2  501    0 -0.68252047434E+02  0.13985946519E+03  0.50268305348E+02  0.16354178216E+03  0.25500000000E-02 0. -1.
<mgrwt>
<rscale>  0 0.15469357E+03</rscale>
<asrwt>0</asrwt>
<pdfrwt beam="1">  1       11 0.10000000E+01 0.19484165E+02</pdfrwt>
<pdfrwt beam="2">  1        2 0.99401234E-02 0.15469357E+03</pdfrwt>
<totfact> 0.77192388E+02</totfact>
</mgrwt>
</event>
<event>
 5    1  0.2226716E-003  0.1039033E+03  0.7818608E-02  0.1272295E+00
         11   -1    0    0    0    0  0.00000000000E+00  0.00000000000E+00  0.10004400835E+04  0.10004400835E+04  0.51100000000E-03 0. -1.
          2   -1    0    0  501    0 -0.00000000000E+00 -0.00000000000E+00 -0.31690647222E+03  0.31690647223E+03  0.25500000000E-02 0. -1.
         11    1    1    2    0    0  0.82763785546E+02 -0.13377825966E+03  0.83974587804E+03  0.85435332658E+03  0.51100000000E-03 0. -1.
         22    1    1    2    0    0 -0.54791329052E+02  0.34224510459E+02  0.13733163743E+03  0.15176753768E+03  0.00000000000E+00 0. -1.
          2    1    1    2  501    0 -0.27972456494E+02  0.99553749203E+02 -0.29354390422E+03  0.31122569144E+03  0.25500000000E-02 0. -1.
<mgrwt>
<rscale>  0 0.10390334E+03</rscale>
<asrwt>0</asrwt>
<pdfrwt beam="1">  1       11 0.10000000E+01 0.64601911E+02</pdfrwt>
<pdfrwt beam="2">  1        2 0.48776297E-01 0.10390334E+03</pdfrwt>
<totfact> 0.12761361E+02</totfact>
</mgrwt>
</event>
<event>
 5    1  0.2226716E-003  0.1139776E+03  0.7818608E-02  0.1253376E+00
         11   -1    0    0    0    0  0.00000000000E+00  0.00000000000E+00  0.10002919219E+04  0.10002919219E+04  0.51100000000E-03 0. -1.
         -2   -1    0    0    0  501 -0.00000000000E+00 -0.00000000000E+00 -0.26430330171E+02  0.26430330294E+02  0.25500000000E-02 0.  1.
         11    1    1    2    0    0  0.10447304273E+03  0.95973870644E+01  0.31734904070E+03  0.33424114069E+03  0.51100000000E-03 0. -1.
         22    1    1    2    0    0  0.11774795315E+02 -0.75165398176E+02  0.34996775370E+03  0.35814230624E+03  0.00000000000E+00 0. -1.
         -2    1    1    2    0  501 -0.11624783805E+03  0.65568011112E+02  0.30654479734E+03  0.33433880528E+03  0.25500000000E-02 0.  1.
<mgrwt>
<rscale>  0 0.11397760E+03</rscale>
<asrwt>0</asrwt>
<pdfrwt beam="1">  1       11 0.10000000E+01 0.76082080E+02</pdfrwt>
<pdfrwt beam="2">  1       -2 0.40673915E-02 0.11397760E+03</pdfrwt>
<totfact> 0.19770998E+03</totfact>
</mgrwt>
</event>
<event>
 5    1  0.2226716E-003  0.5064717E+03  0.7818608E-02  0.1015111E+00
         11   -1    0    0    0    0  0.00000000000E+00  0.00000000000E+00  0.10010457754E+04  0.10010457754E+04  0.51100000000E-03 0.  1.
          2   -1    0    0  501    0 -0.00000000000E+00 -0.00000000000E+00 -0.26655753786E+04  0.26655753786E+04  0.25500000000E-02 0.  1.
         11    1    1    2    0    0 -0.34665879580E+03 -0.18347968222E+03  0.66786658981E+03  0.77452107543E+03  0.51100000000E-03 0.  1.
         22    1    1    2    0    0 -0.11217313580E+03 -0.20673364815E+01  0.24402059607E+03  0.26857612996E+03  0.00000000000E+00 0. -1.
          2    1    1    2  501    0  0.45883193161E+03  0.18554701870E+03 -0.25764167891E+04  0.26235239486E+04  0.25500000000E-02 0.  1.
<mgrwt>
<rscale>  0 0.49492872E+03</rscale>
<asrwt>0</asrwt>
<pdfrwt beam="1">  1       11 0.10000000E+01 0.50647166E+03</pdfrwt>
<pdfrwt beam="2">  1        2 0.41051737E+00 0.49492872E+03</pdfrwt>
<totfact> 0.37635472E+00</totfact>
</mgrwt>
</event>
<event>
 5    1  0.2226716E-003  0.5972694E+03  0.7818608E-02  0.9911087E-01
         11   -1    0    0    0    0  0.00000000000E+00  0.00000000000E+00  0.10000260709E+04  0.10000260709E+04  0.51100000000E-03 0. -1.
          2   -1    0    0  501    0 -0.00000000000E+00 -0.00000000000E+00 -0.12671013067E+04  0.12671013067E+04  0.25500000000E-02 0. -1.
         11    1    1    2    0    0 -0.36625604975E+03 -0.48193760805E+03  0.80375777979E+03  0.10061977542E+04  0.51100000000E-03 0. -1.
         22    1    1    2    0    0  0.10022854430E+01  0.10226281837E+02  0.17218687348E+02  0.20051548825E+02  0.00000000000E+00 0.  1.
          2    1    1    2  501    0  0.36525376431E+03  0.47171132621E+03 -0.10880517029E+04  0.12408780745E+04  0.25500000000E-02 0. -1.
<mgrwt>
<rscale>  0 0.59726939E+03</rscale>
<asrwt>0</asrwt>
<pdfrwt beam="1">  1       11 0.10000000E+01 0.10275282E+02</pdfrwt>
<pdfrwt beam="2">  1        2 0.19494374E+00 0.59726939E+03</pdfrwt>
<totfact> 0.21863613E+01</totfact>
</mgrwt>
</event>
<event>
 5    1  0.2226716E-003  0.1428370E+03  0.7818608E-02  0.1474230E+00
         11   -1    0    0    0    0  0.00000000000E+00  0.00000000000E+00  0.10005201715E+04  0.10005201715E+04  0.51100000000E-03 0.  1.
          2   -1    0    0  501    0 -0.00000000000E+00 -0.00000000000E+00 -0.45294748870E+02  0.45294748941E+02  0.25500000000E-02 0.  1.
         11    1    1    2    0    0  0.10520285337E+03 -0.99030961808E+02  0.84584450929E+03  0.85809539426E+03  0.51100000000E-03 0.  1.
         22    1    1    2    0    0 -0.14006889679E+02  0.22612504913E+01  0.29149959498E+02  0.32419536564E+02  0.00000000000E+00 0. -1.
          2    1    1    2  501    0 -0.91195963687E+02  0.96769711317E+02  0.80230953886E+02  0.15529998966E+03  0.25500000000E-02 0.  1.
<mgrwt>
<rscale>  0 0.45017846E+02</rscale>
<asrwt>0</asrwt>
<pdfrwt beam="1">  1       11 0.10000000E+01 0.14283704E+03</pdfrwt>
<pdfrwt beam="2">  1        2 0.69720475E-02 0.45017846E+02</pdfrwt>
<totfact> 0.10916360E+03</totfact>
</mgrwt>
</event>
<event>
 5    1  0.2226716E-003  0.3341397E+03  0.7818608E-02  0.1070598E+00
         11   -1    0    0    0    0  0.00000000000E+00  0.00000000000E+00  0.99992735212E+03  0.99992735212E+03  0.51100000000E-03 0. -1.
          2   -1    0    0  501    0 -0.00000000000E+00 -0.00000000000E+00 -0.42954214132E+03  0.42954214133E+03  0.25500000000E-02 0. -1.
         11    1    1    2    0    0 -0.27614092051E+03 -0.14570479386E+03  0.81970604326E+03  0.87715545503E+03  0.51100000000E-03 0. -1.
         22    1    1    2    0    0 -0.20207397936E+02 -0.22306187480E+01  0.81608776919E+02  0.84102955130E+02  0.00000000000E+00 0. -1.
          2    1    1    2  501    0  0.29634831844E+03  0.14793541261E+03 -0.33092960938E+03  0.46821108329E+03  0.25500000000E-02 0. -1.
<mgrwt>
<rscale>  0 0.33122079E+03</rscale>
<asrwt>0</asrwt>
<pdfrwt beam="1">  1       11 0.10000000E+01 0.33413968E+03</pdfrwt>
<pdfrwt beam="2">  1        2 0.66078604E-01 0.33122079E+03</pdfrwt>
<totfact> 0.91622884E+01</totfact>
</mgrwt>
</event>
<event>
 5    1  0.2891754E-003  0.7443258E+03  0.7818608E-02  0.9644295E-01
         11   -1    0    0    0    0  0.00000000000E+00  0.00000000000E+00  0.10000727124E+04  0.10000727124E+04  0.51100000000E-03 0.  1.
          2   -1    0    0  501    0 -0.00000000000E+00 -0.00000000000E+00 -0.12691685828E+04  0.12691685828E+04  0.25500000000E-02 0.  1.
         11    1    1    2    0    0  0.58931644931E+03  0.45635177411E+03 -0.97456340420E+03  0.12269167241E+04  0.51100000000E-03 0.  1.
         22    1    1    2    0    0 -0.17579823682E+02  0.94776128771E+01 -0.23728939656E+01  0.20112333836E+02  0.00000000000E+00 0.  1.
          2    1    1    2  501    0 -0.57173662563E+03 -0.46582938699E+03  0.70784042775E+03  0.10222122373E+04  0.25500000000E-02 0.  1.
<mgrwt>
<rscale>  0 0.74432575E+03</rscale>
<asrwt>0</asrwt>
<pdfrwt beam="1">  1       11 0.10000000E+01 0.19971864E+02</pdfrwt>
<pdfrwt beam="2">  1        2 0.19527090E+00 0.74432575E+03</pdfrwt>
<totfact> 0.21523304E+01</totfact>
</mgrwt>
</event>
<event>
 5    1  0.2226716E-003  0.1664072E+03  0.7818608E-02  0.1582328E+00
         11   -1    0    0    0    0  0.00000000000E+00  0.00000000000E+00  0.10006597629E+04  0.10006597629E+04  0.51100000000E-03 0. -1.
          2   -1    0    0  501    0 -0.00000000000E+00 -0.00000000000E+00 -0.59571279759E+03  0.59571279759E+03  0.25500000000E-02 0.  1.
         11    1    1    2    0    0 -0.15747131176E+03  0.83026418919E+02  0.54260362485E+03  0.57105979894E+03  0.51100000000E-03 0. -1.
         22    1    1    2    0    0  0.12692625508E+03 -0.90623285986E+02  0.42967773568E+03  0.45710590756E+03  0.00000000000E+00 0. -1.
          2    1    1    2  501    0  0.30545056686E+02  0.75968670672E+01 -0.56733439523E+03  0.56820685397E+03  0.25500000000E-02 0.  1.
<mgrwt>
<rscale>  0 0.31475592E+02</rscale>
<asrwt>0</asrwt>
<pdfrwt beam="1">  1       11 0.10000000E+01 0.16640723E+03</pdfrwt>
<pdfrwt beam="2">  1        2 0.91708586E-01 0.31475592E+02</pdfrwt>
<totfact> 0.66443294E+01</totfact>
</mgrwt>
</event>
<event>
 5    1  0.2226716E-003  0.2380647E+03  0.7818608E-02  0.1121089E+00
         11   -1    0    0    0    0  0.00000000000E+00  0.00000000000E+00  0.10000506357E+04  0.10000506357E+04  0.51100000000E-03 0.  1.
          2   -1    0    0  501    0 -0.00000000000E+00 -0.00000000000E+00 -0.34862218053E+03  0.34862218054E+03  0.25500000000E-02 0.  1.
         11    1    1    2    0    0  0.34279751359E+03  0.47638470358E+02 -0.12673626004E+02  0.34632380798E+03  0.51100000000E-03 0.  1.
         22    1    1    2    0    0 -0.15231336715E+03  0.10885989359E+02  0.76422947025E+03  0.77933596720E+03  0.00000000000E+00 0.  1.
          2    1    1    2  501    0 -0.19048414644E+03 -0.58524459717E+02 -0.10012738908E+03  0.22301304105E+03  0.25500000000E-02 0.  1.
<mgrwt>
<rscale>  0 0.23806466E+03</rscale>
<asrwt>0</asrwt>
<pdfrwt beam="1">  1       11 0.10000000E+01 0.15270189E+03</pdfrwt>
<pdfrwt beam="2">  1        2 0.53636896E-01 0.23806466E+03</pdfrwt>
<totfact> 0.11536570E+02</totfact>
</mgrwt>
</event>
<event>
 5    1  0.2226716E-003  0.4755667E+03  0.7818608E-02  0.1022902E+00
         11   -1    0    0    0    0  0.00000000000E+00  0.00000000000E+00  0.10007304236E+04  0.10007304236E+04  0.51100000000E-03 0. -1.
          2   -1    0    0  501    0 -0.00000000000E+00 -0.00000000000E+00 -0.27535305993E+03  0.27535305994E+03  0.25500000000E-02 0. -1.
         11    1    1    2    0    0 -0.25930899555E+03  0.37451799392E+03  0.61296773105E+03  0.76369779511E+03  0.51100000000E-03 0. -1.
         22    1    1    2    0    0  0.73946823334E+01  0.18159663438E+02  0.34081493841E+02  0.39319243704E+02  0.00000000000E+00 0. -1.
          2    1    1    2  501    0  0.25191431321E+03 -0.39267765736E+03  0.78328138776E+02  0.47306644472E+03  0.25500000000E-02 0. -1.
<mgrwt>
<rscale>  0 0.46653678E+03</rscale>
<asrwt>0</asrwt>
<pdfrwt beam="1">  1       11 0.10000000E+01 0.47556668E+03</pdfrwt>
<pdfrwt beam="2">  1        2 0.42392950E-01 0.46653678E+03</pdfrwt>
<totfact> 0.14902544E+02</totfact>
</mgrwt>
</event>
