<event>
 5    1  0.1560836E+002  0.1598776E+01  0.7818608E-02  0.3354693E+00
         11   -1    0    0    0    0  0.00000000000E+00  0.00000000000E+00  0.39999999674E+01  0.40000000000E+01  0.51100000000E-03 0. -1.
    9000002   -1    0    0    0    0 -0.00000000000E+00 -0.00000000000E+00  0.00000000000E+00  0.93800000000E+00  0.93800000000E+00 0.  1.
         11    1    1    2    0    0  0.93595959936E-01  0.40357275258E-01  0.10620280606E+01  0.10669080447E+01  0.51100000000E-03 0. -1.
    9000002    1    1    2    0    0 -0.41790503059E+00 -0.57479242377E-01  0.12113938550E+00  0.10355999366E+01  0.93800000000E+00 0.  1.
         22    1    1    2    0    0  0.32430907066E+00  0.17121967119E-01  0.28168325213E+01  0.28354920187E+01  0.00000000000E+00 0. -1.
</event>
<event>
 5    1  0.1560836E+002  0.1587384E+01  0.7818608E-02  0.3367171E+00
         11   -1    0    0    0    0  0.00000000000E+00  0.00000000000E+00  0.39999999674E+01  0.40000000000E+01  0.51100000000E-03 0.  1.
    9000002   -1    0    0    0    0 -0.00000000000E+00 -0.00000000000E+00  0.00000000000E+00  0.93800000000E+00  0.93800000000E+00 0. -1.
         11    1    1    2    0    0  0.41705889815E-02  0.18880634525E-01  0.13405385116E-01  0.23533755408E-01  0.51100000000E-03 0.  1.
    9000002    1    1    2    0    0  0.33119069148E-01 -0.26032349622E+00  0.55297522260E-01  0.97558547108E+00  0.93800000000E+00 0. -1.
         22    1    1    2    0    0 -0.37289658129E-01  0.24144286169E+00  0.39312970600E+01  0.39388807735E+01  0.00000000000E+00 0.  1.
</event>
<event>
 5    1  0.1560836E+002  0.1599676E+01  0.7818608E-02  0.3353716E+00
         11   -1    0    0    0    0  0.00000000000E+00  0.00000000000E+00  0.39999999674E+01  0.40000000000E+01  0.51100000000E-03 0.  1.
    9000002   -1    0    0    0    0 -0.00000000000E+00 -0.00000000000E+00  0.00000000000E+00  0.93800000000E+00  0.93800000000E+00 0. -1.
         11    1    1    2    0    0 -0.83582629352E-01  0.75640045116E-01  0.12670734167E+01  0.12720781331E+01  0.51100000000E-03 0.  1.
    9000002    1    1    2    0    0  0.25505015037E+00 -0.23629306094E+00  0.81035196310E-01  0.10036412172E+01  0.93800000000E+00 0. -1.
         22    1    1    2    0    0 -0.17146752102E+00  0.16065301583E+00  0.26518913543E+01  0.26622806496E+01  0.00000000000E+00 0.  1.
</event>
<event>
 5    1  0.1560836E+002  0.1599554E+01  0.7818608E-02  0.3353848E+00
         11   -1    0    0    0    0  0.00000000000E+00  0.00000000000E+00  0.39999999674E+01  0.40000000000E+01  0.51100000000E-03 0.  1.
    9000002   -1    0    0    0    0 -0.00000000000E+00 -0.00000000000E+00  0.00000000000E+00  0.93800000000E+00  0.93800000000E+00 0.  1.
         11    1    1    2    0    0  0.16240621032E+00  0.12534518386E-01  0.15378609181E+01  0.15464634996E+01  0.51100000000E-03 0.  1.
    9000002    1    1    2    0    0 -0.40022746502E+00 -0.62991235789E-01  0.11089890519E+00  0.10277609093E+01  0.93800000000E+00 0.  1.
         22    1    1    2    0    0  0.23782125470E+00  0.50456717403E-01  0.23512401441E+01  0.23637755910E+01  0.00000000000E+00 0.  1.
</event>
<event>
 5    1  0.1560836E+002  0.1530609E+01  0.7818608E-02  0.3432302E+00
         11   -1    0    0    0    0  0.00000000000E+00  0.00000000000E+00  0.39999999674E+01  0.40000000000E+01  0.51100000000E-03 0.  1.
    9000002   -1    0    0    0    0 -0.00000000000E+00 -0.00000000000E+00  0.00000000000E+00  0.93800000000E+00  0.93800000000E+00 0.  1.
         11    1    1    2    0    0 -0.10686409230E+01 -0.15955545413E+00  0.13890558767E+01  0.17598090393E+01  0.51100000000E-03 0.  1.
    9000002    1    1    2    0    0  0.11269146880E+01  0.43596400649E+00  0.22066266130E+01  0.26849667295E+01  0.93800000000E+00 0.  1.
         22    1    1    2    0    0 -0.58273765081E-01 -0.27640855237E+00  0.40431747767E+00  0.49322423123E+00  0.00000000000E+00 0.  1.
</event>
<event>
 5    1  0.1560836E+002  0.1560978E+01  0.7818608E-02  0.3396837E+00
         11   -1    0    0    0    0  0.00000000000E+00  0.00000000000E+00  0.39999999674E+01  0.40000000000E+01  0.51100000000E-03 0. -1.
    9000002   -1    0    0    0    0 -0.00000000000E+00 -0.00000000000E+00  0.00000000000E+00  0.93800000000E+00  0.93800000000E+00 0.  1.
         11    1    1    2    0    0 -0.85707708915E-01  0.84621723585E-01  0.75567204802E+00  0.76521052838E+00  0.51100000000E-03 0. -1.
    9000002    1    1    2    0    0 -0.50558374090E-01  0.39366662824E+00  0.13907747449E+00  0.10279669777E+01  0.93800000000E+00 0.  1.
         22    1    1    2    0    0  0.13626608300E+00 -0.47828835182E+00  0.31052504449E+01  0.31448224939E+01  0.00000000000E+00 0. -1.
</event>
<event>
 5    1  0.1560836E+002  0.1596575E+01  0.7818608E-02  0.3357089E+00
         11   -1    0    0    0    0  0.00000000000E+00  0.00000000000E+00  0.39999999674E+01  0.40000000000E+01  0.51100000000E-03 0. -1.
    9000002   -1    0    0    0    0 -0.00000000000E+00 -0.00000000000E+00  0.00000000000E+00  0.93800000000E+00  0.93800000000E+00 0. -1.
         11    1    1    2    0    0 -0.75516989647E-01 -0.10868884279E+00  0.17839183766E+01  0.17888211525E+01  0.51100000000E-03 0. -1.
    9000002    1    1    2    0    0  0.30922344606E+00  0.21140809788E+00  0.96887849833E-01  0.10146643676E+01  0.93800000000E+00 0. -1.
         22    1    1    2    0    0 -0.23370645642E+00 -0.10271925509E+00  0.21191937410E+01  0.21345144799E+01  0.00000000000E+00 0. -1.
</event>
<event>
 5    1  0.1560836E+002  0.1597557E+01  0.7818608E-02  0.3356019E+00
         11   -1    0    0    0    0  0.00000000000E+00  0.00000000000E+00  0.39999999674E+01  0.40000000000E+01  0.51100000000E-03 0. -1.
    9000002   -1    0    0    0    0 -0.00000000000E+00 -0.00000000000E+00  0.00000000000E+00  0.93800000000E+00  0.93800000000E+00 0. -1.
         11    1    1    2    0    0  0.31522737167E-01  0.21378737007E-01  0.10838553417E+01  0.10845245024E+01  0.51100000000E-03 0. -1.
    9000002    1    1    2    0    0 -0.41339011462E-01 -0.24288275638E+00  0.41931442311E-01  0.97072302593E+00  0.93800000000E+00 0. -1.
         22    1    1    2    0    0  0.98162742955E-02  0.22150401938E+00  0.28742131833E+01  0.28827524717E+01  0.00000000000E+00 0. -1.
</event>
<event>
 5    1  0.1560836E+002  0.1598679E+01  0.7818608E-02  0.3354798E+00
         11   -1    0    0    0    0  0.00000000000E+00  0.00000000000E+00  0.39999999674E+01  0.40000000000E+01  0.51100000000E-03 0.  1.
    9000002   -1    0    0    0    0 -0.00000000000E+00 -0.00000000000E+00  0.00000000000E+00  0.93800000000E+00  0.93800000000E+00 0. -1.
         11    1    1    2    0    0 -0.59704133443E-01  0.16337111663E+00  0.19001807214E+01  0.19081251900E+01  0.51100000000E-03 0.  1.
    9000002    1    1    2    0    0  0.14310815868E+00 -0.40786320734E+00  0.12741975764E+00  0.10406306432E+01  0.93800000000E+00 0. -1.
         22    1    1    2    0    0 -0.83404025241E-01  0.24449209071E+00  0.19723994883E+01  0.19892441668E+01  0.00000000000E+00 0.  1.
</event>
<event>
 5    1  0.1560836E+002  0.1598655E+01  0.7818608E-02  0.3354825E+00
         11   -1    0    0    0    0  0.00000000000E+00  0.00000000000E+00  0.39999999674E+01  0.40000000000E+01  0.51100000000E-03 0.  1.
    9000002   -1    0    0    0    0 -0.00000000000E+00 -0.00000000000E+00  0.00000000000E+00  0.93800000000E+00  0.93800000000E+00 0. -1.
         11    1    1    2    0    0  0.90414926680E-02 -0.31645285144E-02  0.49520778136E+00  0.49530068713E+00  0.51100000000E-03 0.  1.
    9000002    1    1    2    0    0 -0.21733711650E+00 -0.11755499053E+00  0.41329536124E-01  0.97087935840E+00  0.93800000000E+00 0. -1.
         22    1    1    2    0    0  0.20829562383E+00  0.12071951905E+00  0.34634626499E+01  0.34718199545E+01  0.00000000000E+00 0.  1.
</event>
<event>
 5    1  0.1560836E+002  0.1599161E+01  0.7818608E-02  0.3354275E+00
         11   -1    0    0    0    0  0.00000000000E+00  0.00000000000E+00  0.39999999674E+01  0.40000000000E+01  0.51100000000E-03 0. -1.
    9000002   -1    0    0    0    0 -0.00000000000E+00 -0.00000000000E+00  0.00000000000E+00  0.93800000000E+00  0.93800000000E+00 0.  1.
         11    1    1    2    0    0  0.43503735214E-01  0.30034613033E+00  0.18523484402E+01  0.18770443197E+01  0.51100000000E-03 0. -1.
    9000002    1    1    2    0    0 -0.72928827130E-01 -0.65258094294E+00  0.30529876801E+00  0.11850028855E+01  0.93800000000E+00 0.  1.
         22    1    1    2    0    0  0.29425091915E-01  0.35223481261E+00  0.18423527592E+01  0.18759527948E+01  0.00000000000E+00 0.  1.
</event>
<event>
 5    1  0.1560836E+002  0.1599676E+01  0.7818608E-02  0.3353715E+00
         11   -1    0    0    0    0  0.00000000000E+00  0.00000000000E+00  0.39999999674E+01  0.40000000000E+01  0.51100000000E-03 0.  1.
    9000002   -1    0    0    0    0 -0.00000000000E+00 -0.00000000000E+00  0.00000000000E+00  0.93800000000E+00  0.93800000000E+00 0.  1.
         11    1    1    2    0    0  0.23072351811E-01 -0.45506744376E-01  0.68398665650E+00  0.68588716608E+00  0.51100000000E-03 0.  1.
    9000002    1    1    2    0    0 -0.13546139154E+00  0.25961474578E+00  0.57167405910E-01  0.98430773497E+00  0.93800000000E+00 0.  1.
         22    1    1    2    0    0  0.11238903973E+00 -0.21410800140E+00  0.32588459050E+01  0.32678050990E+01  0.00000000000E+00 0.  1.
</event>
<event>
 5    1  0.1560836E+002  0.1599667E+01  0.7818608E-02  0.3353725E+00
         11   -1    0    0    0    0  0.00000000000E+00  0.00000000000E+00  0.39999999674E+01  0.40000000000E+01  0.51100000000E-03 0.  1.
    9000002   -1    0    0    0    0 -0.00000000000E+00 -0.00000000000E+00  0.00000000000E+00  0.93800000000E+00  0.93800000000E+00 0.  1.
         11    1    1    2    0    0 -0.17884311172E-01  0.51145495414E-01  0.68598844925E+00  0.68812507868E+00  0.51100000000E-03 0.  1.
    9000002    1    1    2    0    0  0.10452466351E+00 -0.27707703532E+00  0.58491065721E-01  0.98537418961E+00  0.93800000000E+00 0.  1.
         22    1    1    2    0    0 -0.86640352336E-01  0.22593153991E+00  0.32555204524E+01  0.32645007317E+01  0.00000000000E+00 0.  1.
</event>
<event>
 5    1  0.1560836E+002  0.1599652E+01  0.7818608E-02  0.3353742E+00
         11   -1    0    0    0    0  0.00000000000E+00  0.00000000000E+00  0.39999999674E+01  0.40000000000E+01  0.51100000000E-03 0.  1.
    9000002   -1    0    0    0    0 -0.00000000000E+00 -0.00000000000E+00  0.00000000000E+00  0.93800000000E+00  0.93800000000E+00 0. -1.
         11    1    1    2    0    0 -0.10945469143E+00 -0.13951491934E+00  0.14276845644E+01  0.14386550034E+01  0.51100000000E-03 0.  1.
    9000002    1    1    2    0    0  0.29951795090E+00  0.36098122479E+00  0.14988690597E+00  0.10594000812E+01  0.93800000000E+00 0. -1.
         22    1    1    2    0    0 -0.19006325947E+00 -0.22146630545E+00  0.24224284970E+01  0.24399449153E+01  0.00000000000E+00 0.  1.
</event>
<event>
 5    1  0.1560836E+002  0.1599036E+01  0.7818608E-02  0.3354411E+00
         11   -1    0    0    0    0  0.00000000000E+00  0.00000000000E+00  0.39999999674E+01  0.40000000000E+01  0.51100000000E-03 0.  1.
    9000002   -1    0    0    0    0 -0.00000000000E+00 -0.00000000000E+00  0.00000000000E+00  0.93800000000E+00  0.93800000000E+00 0. -1.
         11    1    1    2    0    0  0.40224682370E-01  0.21333998884E+00  0.20982194304E+01  0.21094210142E+01  0.51100000000E-03 0.  1.
    9000002    1    1    2    0    0 -0.12555377033E+00 -0.41641540564E+00  0.12874628040E+00  0.10419141731E+01  0.93800000000E+00 0. -1.
         22    1    1    2    0    0  0.85329087962E-01  0.20307541679E+00  0.17730342565E+01  0.17866648127E+01  0.00000000000E+00 0.  1.
</event>
<event>
 5    1  0.1560836E+002  0.1599648E+01  0.7818608E-02  0.3353746E+00
         11   -1    0    0    0    0  0.00000000000E+00  0.00000000000E+00  0.39999999674E+01  0.40000000000E+01  0.51100000000E-03 0. -1.
    9000002   -1    0    0    0    0 -0.00000000000E+00 -0.00000000000E+00  0.00000000000E+00  0.93800000000E+00  0.93800000000E+00 0.  1.
         11    1    1    2    0    0 -0.79188222501E-02  0.87695064620E-02  0.23048140362E+00  0.23078464100E+00  0.51100000000E-03 0. -1.
    9000002    1    1    2    0    0  0.13526659790E+00 -0.20265029384E+00  0.39438537919E-01  0.96992968424E+00  0.93800000000E+00 0.  1.
         22    1    1    2    0    0 -0.12734777565E+00  0.19388078738E+00  0.37300800258E+01  0.37372856748E+01  0.00000000000E+00 0. -1.
</event>
<event>
 5    1  0.1560836E+002  0.1596505E+01  0.7818608E-02  0.3357165E+00
         11   -1    0    0    0    0  0.00000000000E+00  0.00000000000E+00  0.39999999674E+01  0.40000000000E+01  0.51100000000E-03 0. -1.
    9000002   -1    0    0    0    0 -0.00000000000E+00 -0.00000000000E+00  0.00000000000E+00  0.93800000000E+00  0.93800000000E+00 0.  1.
         11    1    1    2    0    0  0.54954880518E-01 -0.56606638016E-01  0.15792965234E+01  0.15812659866E+01  0.51100000000E-03 0. -1.
    9000002    1    1    2    0    0 -0.78665574819E-01  0.29624343877E+00  0.65207850920E-01  0.98896132963E+00  0.93800000000E+00 0.  1.
         22    1    1    2    0    0  0.23710694301E-01 -0.23963680076E+00  0.23554955931E+01  0.23677726838E+01  0.00000000000E+00 0. -1.
</event>
<event>
 5    1  0.1560836E+002  0.1599673E+01  0.7818608E-02  0.3353719E+00
         11   -1    0    0    0    0  0.00000000000E+00  0.00000000000E+00  0.39999999674E+01  0.40000000000E+01  0.51100000000E-03 0. -1.
    9000002   -1    0    0    0    0 -0.00000000000E+00 -0.00000000000E+00  0.00000000000E+00  0.93800000000E+00  0.93800000000E+00 0. -1.
         11    1    1    2    0    0 -0.30294413193E+00 -0.64235694168E+00  0.19122749814E+01  0.20399003537E+01  0.51100000000E-03 0. -1.
    9000002    1    1    2    0    0  0.47228736257E+00  0.99390055670E+00  0.10429349079E+01  0.17828210487E+01  0.93800000000E+00 0. -1.
         22    1    1    2    0    0 -0.16934323064E+00 -0.35154361502E+00  0.10447900781E+01  0.11152785976E+01  0.00000000000E+00 0. -1.
</event>
<event>
 5    1  0.1560836E+002  0.1599674E+01  0.7818608E-02  0.3353717E+00
         11   -1    0    0    0    0  0.00000000000E+00  0.00000000000E+00  0.39999999674E+01  0.40000000000E+01  0.51100000000E-03 0.  1.
    9000002   -1    0    0    0    0 -0.00000000000E+00 -0.00000000000E+00  0.00000000000E+00  0.93800000000E+00  0.93800000000E+00 0. -1.
         11    1    1    2    0    0 -0.32808746212E+00  0.76311555866E-01  0.19801910328E+01  0.20086367576E+01  0.51100000000E-03 0.  1.
    9000002    1    1    2    0    0  0.61462227003E+00 -0.14010306358E+00  0.27913300356E+00  0.11641085160E+01  0.93800000000E+00 0. -1.
         22    1    1    2    0    0 -0.28653480790E+00  0.63791507714E-01  0.17406759310E+01  0.17652547265E+01  0.00000000000E+00 0.  1.
</event>
<event>
 5    1  0.1560836E+002  0.1598082E+01  0.7818608E-02  0.3355448E+00
         11   -1    0    0    0    0  0.00000000000E+00  0.00000000000E+00  0.39999999674E+01  0.40000000000E+01  0.51100000000E-03 0. -1.
    9000002   -1    0    0    0    0 -0.00000000000E+00 -0.00000000000E+00  0.00000000000E+00  0.93800000000E+00  0.93800000000E+00 0. -1.
         11    1    1    2    0    0  0.85962022902E-04 -0.24053835563E-01  0.57345430398E+00  0.57395879143E+00  0.51100000000E-03 0. -1.
    9000002    1    1    2    0    0  0.22892018683E+00  0.20470915878E+00  0.64211779513E-01  0.98907908898E+00  0.93800000000E+00 0. -1.
         22    1    1    2    0    0 -0.22900614886E+00 -0.18065532321E+00  0.33623338839E+01  0.33749621196E+01  0.00000000000E+00 0. -1.
</event>
<event>
 5    1  0.1560836E+002  0.1599668E+01  0.7818608E-02  0.3353724E+00
         11   -1    0    0    0    0  0.00000000000E+00  0.00000000000E+00  0.39999999674E+01  0.40000000000E+01  0.51100000000E-03 0.  1.
    9000002   -1    0    0    0    0 -0.00000000000E+00 -0.00000000000E+00  0.00000000000E+00  0.93800000000E+00  0.93800000000E+00 0.  1.
         11    1    1    2    0    0  0.14536734348E-01 -0.15635328801E-01  0.30666397280E+00  0.30740662564E+00  0.51100000000E-03 0.  1.
    9000002    1    1    2    0    0 -0.16354135977E+00  0.20884238268E+00  0.46803769831E-01  0.97590753149E+00  0.93800000000E+00 0.  1.
         22    1    1    2    0    0  0.14900462542E+00 -0.19320705388E+00  0.36465322247E+01  0.36546858429E+01  0.00000000000E+00 0.  1.
</event>
<event>
 5    1  0.1560836E+002  0.1599676E+01  0.7818608E-02  0.3353715E+00
         11   -1    0    0    0    0  0.00000000000E+00  0.00000000000E+00  0.39999999674E+01  0.40000000000E+01  0.51100000000E-03 0.  1.
    9000002   -1    0    0    0    0 -0.00000000000E+00 -0.00000000000E+00  0.00000000000E+00  0.93800000000E+00  0.93800000000E+00 0. -1.
         11    1    1    2    0    0 -0.21601327958E-02 -0.75252696196E-01  0.10177278176E+01  0.10205086018E+01  0.51100000000E-03 0.  1.
    9000002    1    1    2    0    0  0.65626859745E-02  0.29386357920E+00  0.57606013022E-01  0.98466305139E+00  0.93800000000E+00 0. -1.
         22    1    1    2    0    0 -0.44025531787E-02 -0.21861088300E+00  0.29246661367E+01  0.29328283468E+01  0.00000000000E+00 0.  1.
</event>
<event>
 5    1  0.1560836E+002  0.1599673E+01  0.7818608E-02  0.3353719E+00
         11   -1    0    0    0    0  0.00000000000E+00  0.00000000000E+00  0.39999999674E+01  0.40000000000E+01  0.51100000000E-03 0.  1.
    9000002   -1    0    0    0    0 -0.00000000000E+00 -0.00000000000E+00  0.00000000000E+00  0.93800000000E+00  0.93800000000E+00 0. -1.
         11    1    1    2    0    0 -0.14839643788E+00  0.10509256224E+00  0.16554040703E+01  0.16653614762E+01  0.51100000000E-03 0.  1.
    9000002    1    1    2    0    0  0.34416127963E+00 -0.24192593720E+00  0.11970374003E+00  0.10349628645E+01  0.93800000000E+00 0. -1.
         22    1    1    2    0    0 -0.19576484175E+00  0.13683337495E+00  0.22248921571E+01  0.22376756593E+01  0.00000000000E+00 0.  1.
</event>
<event>
 5    1  0.1560836E+002  0.1537852E+01  0.7818608E-02  0.3423708E+00
         11   -1    0    0    0    0  0.00000000000E+00  0.00000000000E+00  0.39999999674E+01  0.40000000000E+01  0.51100000000E-03 0. -1.
    9000002   -1    0    0    0    0 -0.00000000000E+00 -0.00000000000E+00  0.00000000000E+00  0.93800000000E+00  0.93800000000E+00 0. -1.
         11    1    1    2    0    0  0.41447961439E-02  0.18699744064E-02  0.29995416312E+01  0.29995451213E+01  0.51100000000E-03 0. -1.
    9000002    1    1    2    0    0 -0.10379609123E+00  0.31157916865E+00  0.12304367695E+00  0.10014184706E+01  0.93800000000E+00 0. -1.
         22    1    1    2    0    0  0.99651295088E-01 -0.31344914305E+00  0.87741465922E+00  0.93703640810E+00  0.00000000000E+00 0.  1.
</event>
<event>
 5    1  0.1560836E+002  0.1599619E+01  0.7818608E-02  0.3353777E+00
         11   -1    0    0    0    0  0.00000000000E+00  0.00000000000E+00  0.39999999674E+01  0.40000000000E+01  0.51100000000E-03 0. -1.
    9000002   -1    0    0    0    0 -0.00000000000E+00 -0.00000000000E+00  0.00000000000E+00  0.93800000000E+00  0.93800000000E+00 0. -1.
         11    1    1    2    0    0 -0.14065390349E+00  0.12619831960E+00  0.17830472608E+01  0.17930329980E+01  0.51100000000E-03 0. -1.
    9000002    1    1    2    0    0  0.31987202317E+00 -0.28826929068E+00  0.12563150859E+00  0.10397329326E+01  0.93800000000E+00 0. -1.
         22    1    1    2    0    0 -0.17921811968E+00  0.16207097108E+00  0.20913211980E+01  0.21052340695E+01  0.00000000000E+00 0. -1.
</event>
<event>
 5    1  0.1560836E+002  0.1599677E+01  0.7818608E-02  0.3353714E+00
         11   -1    0    0    0    0  0.00000000000E+00  0.00000000000E+00  0.39999999674E+01  0.40000000000E+01  0.51100000000E-03 0. -1.
    9000002   -1    0    0    0    0 -0.00000000000E+00 -0.00000000000E+00  0.00000000000E+00  0.93800000000E+00  0.93800000000E+00 0.  1.
         11    1    1    2    0    0 -0.43464404390E+00 -0.10106813985E+00  0.24546043001E+01  0.24948372182E+01  0.51100000000E-03 0. -1.
    9000002    1    1    2    0    0  0.65163897906E+00  0.15200516096E+00  0.31743259481E+00  0.11951344612E+01  0.93800000000E+00 0.  1.
         22    1    1    2    0    0 -0.21699493517E+00 -0.50937021108E-01  0.12279630724E+01  0.12480283207E+01  0.00000000000E+00 0. -1.
</event>
<event>
 5    1  0.1560836E+002  0.1599676E+01  0.7818608E-02  0.3353715E+00
         11   -1    0    0    0    0  0.00000000000E+00  0.00000000000E+00  0.39999999674E+01  0.40000000000E+01  0.51100000000E-03 0. -1.
    9000002   -1    0    0    0    0 -0.00000000000E+00 -0.00000000000E+00  0.00000000000E+00  0.93800000000E+00  0.93800000000E+00 0. -1.
         11    1    1    2    0    0 -0.20706759855E-01  0.72303605147E-02  0.28669936516E+00  0.28753753689E+00  0.51100000000E-03 0.  1.
    9000002    1    1    2    0    0  0.28779650839E+00 -0.93931747204E-01  0.61157294477E-01  0.98753947670E+00  0.93800000000E+00 0. -1.
         22    1    1    2    0    0 -0.26708974853E+00  0.86701386689E-01  0.36521433077E+01  0.36629229864E+01  0.00000000000E+00 0. -1.
</event>
<event>
 5    1  0.1560836E+002  0.1598525E+01  0.7818608E-02  0.3354966E+00
         11   -1    0    0    0    0  0.00000000000E+00  0.00000000000E+00  0.39999999674E+01  0.40000000000E+01  0.51100000000E-03 0.  1.
    9000002   -1    0    0    0    0 -0.00000000000E+00 -0.00000000000E+00  0.00000000000E+00  0.93800000000E+00  0.93800000000E+00 0.  1.
         11    1    1    2    0    0 -0.62150589194E-02  0.15405527958E-01  0.94488137037E-01  0.95938659626E-01  0.51100000000E-03 0.  1.
    9000002    1    1    2    0    0 -0.46512705003E-01 -0.22065841284E+00  0.34593685569E-01  0.96534672008E+00  0.93800000000E+00 0.  1.
         22    1    1    2    0    0  0.52727763923E-01  0.20525288488E+00  0.38709181448E+01  0.38767146203E+01  0.00000000000E+00 0.  1.
</event>
<event>
 5    1  0.1560836E+002  0.1597180E+01  0.7818608E-02  0.3356430E+00
         11   -1    0    0    0    0  0.00000000000E+00  0.00000000000E+00  0.39999999674E+01  0.40000000000E+01  0.51100000000E-03 0.  1.
    9000002   -1    0    0    0    0 -0.00000000000E+00 -0.00000000000E+00  0.00000000000E+00  0.93800000000E+00  0.93800000000E+00 0. -1.
         11    1    1    2    0    0 -0.32231018591E-01 -0.50940238332E-01  0.55890823587E+00  0.56214982316E+00  0.51100000000E-03 0.  1.
    9000002    1    1    2    0    0 -0.47301893313E-01  0.24999344831E+00  0.44931671452E-01  0.97293219106E+00  0.93800000000E+00 0. -1.
         22    1    1    2    0    0  0.79532911904E-01 -0.19905320998E+00  0.33961600600E+01  0.34029179858E+01  0.00000000000E+00 0.  1.
</event>
<event>
 5    1  0.1560836E+002  0.1526447E+01  0.7818608E-02  0.3437281E+00
         11   -1    0    0    0    0  0.00000000000E+00  0.00000000000E+00  0.39999999674E+01  0.40000000000E+01  0.51100000000E-03 0.  1.
    9000002   -1    0    0    0    0 -0.00000000000E+00 -0.00000000000E+00  0.00000000000E+00  0.93800000000E+00  0.93800000000E+00 0.  1.
         11    1    1    2    0    0  0.15358811638E+00  0.26587951852E-01  0.25685022817E+00  0.30044721585E+00  0.51100000000E-03 0.  1.
    9000002    1    1    2    0    0  0.14386665842E+00  0.63014343525E-01  0.72540562696E-01  0.95382102940E+00  0.93800000000E+00 0.  1.
         22    1    1    2    0    0 -0.29745477481E+00 -0.89602295377E-01  0.36706091765E+01  0.36837317547E+01  0.00000000000E+00 0.  1.
</event>
<event>
 5    1  0.1560836E+002  0.1599226E+01  0.7818608E-02  0.3354204E+00
         11   -1    0    0    0    0  0.00000000000E+00  0.00000000000E+00  0.39999999674E+01  0.40000000000E+01  0.51100000000E-03 0.  1.
    9000002   -1    0    0    0    0 -0.00000000000E+00 -0.00000000000E+00  0.00000000000E+00  0.93800000000E+00  0.93800000000E+00 0. -1.
         11    1    1    2    0    0 -0.53457985542E-01 -0.94437442184E-02  0.68245497585E+00  0.68461083522E+00  0.51100000000E-03 0.  1.
    9000002    1    1    2    0    0  0.34423370379E+00 -0.50656451016E-01  0.81518285226E-01  0.10037689723E+01  0.93800000000E+00 0. -1.
         22    1    1    2    0    0 -0.29077571825E+00  0.60100195235E-01  0.32360267063E+01  0.32496201925E+01  0.00000000000E+00 0.  1.
</event>
<event>
 5    1  0.1560836E+002  0.1599676E+01  0.7818608E-02  0.3353715E+00
         11   -1    0    0    0    0  0.00000000000E+00  0.00000000000E+00  0.39999999674E+01  0.40000000000E+01  0.51100000000E-03 0. -1.
    9000002   -1    0    0    0    0 -0.00000000000E+00 -0.00000000000E+00  0.00000000000E+00  0.93800000000E+00  0.93800000000E+00 0. -1.
         11    1    1    2    0    0  0.12871828502E-01  0.35847938472E-02  0.19481077434E+00  0.19526913130E+00  0.51100000000E-03 0. -1.
    9000002    1    1    2    0    0 -0.26299434565E+00 -0.70054748850E-01  0.49294645113E-01  0.97793029185E+00  0.93800000000E+00 0. -1.
         22    1    1    2    0    0  0.25012251715E+00  0.66469955003E-01  0.37558945479E+01  0.37648005769E+01  0.00000000000E+00 0. -1.
</event>
<event>
 5    1  0.1560836E+002  0.1599666E+01  0.7818608E-02  0.3353726E+00
         11   -1    0    0    0    0  0.00000000000E+00  0.00000000000E+00  0.39999999674E+01  0.40000000000E+01  0.51100000000E-03 0.  1.
    9000002   -1    0    0    0    0 -0.00000000000E+00 -0.00000000000E+00  0.00000000000E+00  0.93800000000E+00  0.93800000000E+00 0.  1.
         11    1    1    2    0    0 -0.20931898669E+00 -0.68390251170E-01  0.18467023000E+01  0.18597852861E+01  0.51100000000E-03 0.  1.
    9000002    1    1    2    0    0  0.44482428100E+00  0.14407191371E+00  0.14889112955E+00  0.10586018731E+01  0.93800000000E+00 0.  1.
         22    1    1    2    0    0 -0.23550529431E+00 -0.75681662538E-01  0.20044065378E+01  0.20196128408E+01  0.00000000000E+00 0.  1.
</event>
<event>
 5    1  0.1560836E+002  0.1569433E+01  0.7818608E-02  0.3387223E+00
         11   -1    0    0    0    0  0.00000000000E+00  0.00000000000E+00  0.39999999674E+01  0.40000000000E+01  0.51100000000E-03 0.  1.
    9000002   -1    0    0    0    0 -0.00000000000E+00 -0.00000000000E+00  0.00000000000E+00  0.93800000000E+00  0.93800000000E+00 0.  1.
         11    1    1    2    0    0 -0.16895761927E+00 -0.17212337062E-02  0.25760396827E+01  0.25815751680E+01  0.51100000000E-03 0.  1.
    9000002    1    1    2    0    0  0.15120367091E+00  0.28568316699E+00  0.94227436005E-01  0.99659431651E+00  0.93800000000E+00 0.  1.
         22    1    1    2    0    0  0.17753948367E-01 -0.28396193329E+00  0.13297328486E+01  0.13598305155E+01  0.00000000000E+00 0.  1.
</event>
<event>
 5    1  0.1560836E+002  0.1598994E+01  0.7818608E-02  0.3354456E+00
         11   -1    0    0    0    0  0.00000000000E+00  0.00000000000E+00  0.39999999674E+01  0.40000000000E+01  0.51100000000E-03 0.  1.
    9000002   -1    0    0    0    0 -0.00000000000E+00 -0.00000000000E+00  0.00000000000E+00  0.93800000000E+00  0.93800000000E+00 0.  1.
         11    1    1    2    0    0 -0.10241645572E+00 -0.51322107959E-01  0.87559508232E+00  0.88305724530E+00  0.51100000000E-03 0.  1.
    9000002    1    1    2    0    0  0.34480946636E+00  0.18916075572E+00  0.10480868406E+00  0.10224990073E+01  0.93800000000E+00 0.  1.
         22    1    1    2    0    0 -0.24239301064E+00 -0.13783864776E+00  0.30195962010E+01  0.30324437474E+01  0.00000000000E+00 0.  1.
</event>
<event>
 5    1  0.1560836E+002  0.1588792E+01  0.7818608E-02  0.3365619E+00
         11   -1    0    0    0    0  0.00000000000E+00  0.00000000000E+00  0.39999999674E+01  0.40000000000E+01  0.51100000000E-03 0.  1.
    9000002   -1    0    0    0    0 -0.00000000000E+00 -0.00000000000E+00  0.00000000000E+00  0.93800000000E+00  0.93800000000E+00 0. -1.
         11    1    1    2    0    0  0.62813925581E-01  0.12043613474E-01  0.29179140675E+00  0.29871913907E+00  0.51100000000E-03 0.  1.
    9000002    1    1    2    0    0 -0.71191439269E-01  0.27369457828E+00  0.61765059029E-01  0.98164956360E+00  0.93800000000E+00 0. -1.
         22    1    1    2    0    0  0.83775136878E-02 -0.28573819176E+00  0.36464435016E+01  0.36576312973E+01  0.00000000000E+00 0.  1.
</event>
<event>
 5    1  0.1560836E+002  0.1599676E+01  0.7818608E-02  0.3353715E+00
         11   -1    0    0    0    0  0.00000000000E+00  0.00000000000E+00  0.39999999674E+01  0.40000000000E+01  0.51100000000E-03 0. -1.
    9000002   -1    0    0    0    0 -0.00000000000E+00 -0.00000000000E+00  0.00000000000E+00  0.93800000000E+00  0.93800000000E+00 0. -1.
         11    1    1    2    0    0  0.64415086129E-01  0.49484923231E-01  0.71357320834E+00  0.71818176371E+00  0.51100000000E-03 0. -1.
    9000002    1    1    2    0    0 -0.34801032075E+00 -0.26439533796E+00  0.12949259955E+00  0.10428942475E+01  0.93800000000E+00 0. -1.
         22    1    1    2    0    0  0.28359523462E+00  0.21491041472E+00  0.31569341595E+01  0.31769239888E+01  0.00000000000E+00 0. -1.
</event>
<event>
 5    1  0.1560836E+002  0.1598316E+01  0.7818608E-02  0.3355193E+00
         11   -1    0    0    0    0  0.00000000000E+00  0.00000000000E+00  0.39999999674E+01  0.40000000000E+01  0.51100000000E-03 0. -1.
    9000002   -1    0    0    0    0 -0.00000000000E+00 -0.00000000000E+00  0.00000000000E+00  0.93800000000E+00  0.93800000000E+00 0. -1.
         11    1    1    2    0    0 -0.96156709094E-01 -0.17608141598E+00  0.20531989371E+01  0.20629776815E+01  0.51100000000E-03 0. -1.
    9000002    1    1    2    0    0  0.14583314606E+00  0.40797811905E+00  0.12834590850E+00  0.10411676735E+01  0.93800000000E+00 0. -1.
         22    1    1    2    0    0 -0.49676436968E-01 -0.23189670306E+00  0.18184551217E+01  0.18338546450E+01  0.00000000000E+00 0.  1.
</event>
<event>
 5    1  0.1560836E+002  0.1599666E+01  0.7818608E-02  0.3353726E+00
         11   -1    0    0    0    0  0.00000000000E+00  0.00000000000E+00  0.39999999674E+01  0.40000000000E+01  0.51100000000E-03 0.  1.
    9000002   -1    0    0    0    0 -0.00000000000E+00 -0.00000000000E+00  0.00000000000E+00  0.93800000000E+00  0.93800000000E+00 0. -1.
         11    1    1    2    0    0  0.15871034481E+00  0.13106248585E+00  0.19117115418E+01  0.19227604190E+01  0.51100000000E-03 0.  1.
    9000002    1    1    2    0    0 -0.32342631785E+00 -0.25817132062E+00  0.11573504447E+00  0.10317439675E+01  0.93800000000E+00 0. -1.
         22    1    1    2    0    0  0.16471597304E+00  0.12710883477E+00  0.19725533811E+01  0.19834956135E+01  0.00000000000E+00 0.  1.
</event>
<event>
 5    1  0.1560836E+002  0.1599675E+01  0.7818608E-02  0.3353716E+00
         11   -1    0    0    0    0  0.00000000000E+00  0.00000000000E+00  0.39999999674E+01  0.40000000000E+01  0.51100000000E-03 0.  1.
    9000002   -1    0    0    0    0 -0.00000000000E+00 -0.00000000000E+00  0.00000000000E+00  0.93800000000E+00  0.93800000000E+00 0.  1.
         11    1    1    2    0    0  0.41874932268E-01  0.12000262275E-01  0.68135739571E+00  0.68274861996E+00  0.51100000000E-03 0.  1.
    9000002    1    1    2    0    0 -0.24076759908E+00 -0.76194137070E-01  0.42374529662E-01  0.97232411471E+00  0.93800000000E+00 0.  1.
         22    1    1    2    0    0  0.19889266681E+00  0.64193874795E-01  0.32762680420E+01  0.32829272653E+01  0.00000000000E+00 0.  1.
</event>
<event>
 5    1  0.1560836E+002  0.1598463E+01  0.7818608E-02  0.3355034E+00
         11   -1    0    0    0    0  0.00000000000E+00  0.00000000000E+00  0.39999999674E+01  0.40000000000E+01  0.51100000000E-03 0. -1.
    9000002   -1    0    0    0    0 -0.00000000000E+00 -0.00000000000E+00  0.00000000000E+00  0.93800000000E+00  0.93800000000E+00 0.  1.
         11    1    1    2    0    0 -0.47139158325E-02  0.14522071494E+00  0.11496644261E+01  0.11588096612E+01  0.51100000000E-03 0. -1.
    9000002    1    1    2    0    0  0.14356447715E+00 -0.47662357913E+00  0.17064912137E+00  0.10755212308E+01  0.93800000000E+00 0.  1.
         22    1    1    2    0    0 -0.13885056132E+00  0.33140286420E+00  0.26796864199E+01  0.27036691080E+01  0.00000000000E+00 0. -1.
</event>
<event>
 5    1  0.1560836E+002  0.1599290E+01  0.7818608E-02  0.3354135E+00
         11   -1    0    0    0    0  0.00000000000E+00  0.00000000000E+00  0.39999999674E+01  0.40000000000E+01  0.51100000000E-03 0.  1.
    9000002   -1    0    0    0    0 -0.00000000000E+00 -0.00000000000E+00  0.00000000000E+00  0.93800000000E+00  0.93800000000E+00 0. -1.
         11    1    1    2    0    0  0.22289155147E+00 -0.14328281826E+00  0.15978361972E+01  0.16196577984E+01  0.51100000000E-03 0.  1.
    9000002    1    1    2    0    0 -0.53515431196E+00  0.28232443980E+00  0.25609079152E+00  0.11452177611E+01  0.93800000000E+00 0. -1.
         22    1    1    2    0    0  0.31226276048E+00 -0.13904162155E+00  0.21460729787E+01  0.21731244405E+01  0.00000000000E+00 0.  1.
</event>
<event>
 5    1  0.1560836E+002  0.1599674E+01  0.7818608E-02  0.3353717E+00
         11   -1    0    0    0    0  0.00000000000E+00  0.00000000000E+00  0.39999999674E+01  0.40000000000E+01  0.51100000000E-03 0.  1.
    9000002   -1    0    0    0    0 -0.00000000000E+00 -0.00000000000E+00  0.00000000000E+00  0.93800000000E+00  0.93800000000E+00 0.  1.
         11    1    1    2    0    0 -0.59995251474E-01 -0.10255137037E+00  0.12117254807E+01  0.12175364945E+01  0.51100000000E-03 0.  1.
    9000002    1    1    2    0    0  0.19448001082E+00  0.32445138302E+00  0.96259781566E-01  0.10159729918E+01  0.93800000000E+00 0.  1.
         22    1    1    2    0    0 -0.13448475935E+00 -0.22190001265E+00  0.26920147051E+01  0.27044905137E+01  0.00000000000E+00 0.  1.
</event>
<event>
 5    1  0.1560836E+002  0.1599674E+01  0.7818608E-02  0.3353718E+00
         11   -1    0    0    0    0  0.00000000000E+00  0.00000000000E+00  0.39999999674E+01  0.40000000000E+01  0.51100000000E-03 0. -1.
    9000002   -1    0    0    0    0 -0.00000000000E+00 -0.00000000000E+00  0.00000000000E+00  0.93800000000E+00  0.93800000000E+00 0.  1.
         11    1    1    2    0    0  0.13046651606E+00 -0.10267480183E+00  0.15213766653E+01  0.15304087185E+01  0.51100000000E-03 0. -1.
    9000002    1    1    2    0    0 -0.33747914263E+00  0.26369593609E+00  0.12419717593E+00  0.10386032240E+01  0.93800000000E+00 0.  1.
         22    1    1    2    0    0  0.20701262657E+00 -0.16102113426E+00  0.23544261261E+01  0.23689880575E+01  0.00000000000E+00 0. -1.
</event>
<event>
 5    1  0.1560836E+002  0.1597109E+01  0.7818608E-02  0.3356507E+00
         11   -1    0    0    0    0  0.00000000000E+00  0.00000000000E+00  0.39999999674E+01  0.40000000000E+01  0.51100000000E-03 0.  1.
    9000002   -1    0    0    0    0 -0.00000000000E+00 -0.00000000000E+00  0.00000000000E+00  0.93800000000E+00  0.93800000000E+00 0. -1.
         11    1    1    2    0    0  0.10402146928E-01 -0.25523873393E-01  0.94033101836E+00  0.94073500944E+00  0.51100000000E-03 0.  1.
    9000002    1    1    2    0    0  0.98246165095E-01  0.27273327625E+00  0.58011804232E-01  0.98348620649E+00  0.93800000000E+00 0. -1.
         22    1    1    2    0    0 -0.10864831202E+00 -0.24720940286E+00  0.30016571448E+01  0.30137787841E+01  0.00000000000E+00 0.  1.
</event>
<event>
 5    1  0.1560836E+002  0.1599653E+01  0.7818608E-02  0.3353740E+00
         11   -1    0    0    0    0  0.00000000000E+00  0.00000000000E+00  0.39999999674E+01  0.40000000000E+01  0.51100000000E-03 0.  1.
    9000002   -1    0    0    0    0 -0.00000000000E+00 -0.00000000000E+00  0.00000000000E+00  0.93800000000E+00  0.93800000000E+00 0.  1.
         11    1    1    2    0    0 -0.51911043358E-01 -0.25233383498E-01  0.86646156145E+00  0.86838204648E+00  0.51100000000E-03 0.  1.
    9000002    1    1    2    0    0  0.25043978556E+00  0.13202339144E+00  0.53406126809E-01  0.98124740838E+00  0.93800000000E+00 0.  1.
         22    1    1    2    0    0 -0.19852874220E+00 -0.10679000794E+00  0.30801322791E+01  0.30883705451E+01  0.00000000000E+00 0.  1.
</event>
<event>
 5    1  0.1560836E+002  0.1599270E+01  0.7818608E-02  0.3354156E+00
         11   -1    0    0    0    0  0.00000000000E+00  0.00000000000E+00  0.39999999674E+01  0.40000000000E+01  0.51100000000E-03 0.  1.
    9000002   -1    0    0    0    0 -0.00000000000E+00 -0.00000000000E+00  0.00000000000E+00  0.93800000000E+00  0.93800000000E+00 0.  1.
         11    1    1    2    0    0  0.45050068579E-01 -0.28514246428E-01  0.10830409487E+01  0.10843525850E+01  0.51100000000E-03 0.  1.
    9000002    1    1    2    0    0 -0.18921216561E+00  0.17925887447E+00  0.45478366995E-01  0.97460108227E+00  0.93800000000E+00 0.  1.
         22    1    1    2    0    0  0.14416209703E+00 -0.15074462804E+00  0.28714806517E+01  0.28790463327E+01  0.00000000000E+00 0. -1.
</event>
<event>
 5    1  0.1560836E+002  0.1596011E+01  0.7818608E-02  0.3357704E+00
         11   -1    0    0    0    0  0.00000000000E+00  0.00000000000E+00  0.39999999674E+01  0.40000000000E+01  0.51100000000E-03 0. -1.
    9000002   -1    0    0    0    0 -0.00000000000E+00 -0.00000000000E+00  0.00000000000E+00  0.93800000000E+00  0.93800000000E+00 0.  1.
         11    1    1    2    0    0  0.19332253077E+00 -0.14814916684E+00  0.20311774930E+01  0.20457282434E+01  0.51100000000E-03 0. -1.
    9000002    1    1    2    0    0 -0.46631354573E+00  0.18768284236E+00  0.17636350327E+00  0.10787127781E+01  0.93800000000E+00 0.  1.
         22    1    1    2    0    0  0.27299101496E+00 -0.39533675521E-01  0.17924589710E+01  0.18135589785E+01  0.00000000000E+00 0. -1.
</event>
<event>
 5    1  0.1560836E+002  0.1599663E+01  0.7818608E-02  0.3353729E+00
         11   -1    0    0    0    0  0.00000000000E+00  0.00000000000E+00  0.39999999674E+01  0.40000000000E+01  0.51100000000E-03 0. -1.
    9000002   -1    0    0    0    0 -0.00000000000E+00 -0.00000000000E+00  0.00000000000E+00  0.93800000000E+00  0.93800000000E+00 0. -1.
         11    1    1    2    0    0 -0.13563259036E+00  0.28755782074E-02  0.41308732047E+00  0.43479404777E+00  0.51100000000E-03 0. -1.
    9000002    1    1    2    0    0  0.10345565499E+01 -0.41980427104E-01  0.88117068616E+00  0.16517794615E+01  0.93800000000E+00 0. -1.
         22    1    1    2    0    0 -0.89892395953E+00  0.39104848897E-01  0.27057419607E+01  0.28514264908E+01  0.00000000000E+00 0. -1.
</event>
<event>
 5    1  0.1560836E+002  0.1599677E+01  0.7818608E-02  0.3353714E+00
         11   -1    0    0    0    0  0.00000000000E+00  0.00000000000E+00  0.39999999674E+01  0.40000000000E+01  0.51100000000E-03 0. -1.
    9000002   -1    0    0    0    0 -0.00000000000E+00 -0.00000000000E+00  0.00000000000E+00  0.93800000000E+00  0.93800000000E+00 0. -1.
         11    1    1    2    0    0 -0.84704849663E-01  0.78070398947E-01  0.11248503886E+01  0.11307336365E+01  0.51100000000E-03 0. -1.
    9000002    1    1    2    0    0  0.29437635662E+00 -0.27058093702E+00  0.10783442557E+00  0.10253505479E+01  0.93800000000E+00 0. -1.
         22    1    1    2    0    0 -0.20967150696E+00  0.19251053807E+00  0.27673151532E+01  0.27819158156E+01  0.00000000000E+00 0. -1.
</event>
<event>
 5    1  0.1560836E+002  0.1598765E+01  0.7818608E-02  0.3354705E+00
         11   -1    0    0    0    0  0.00000000000E+00  0.00000000000E+00  0.39999999674E+01  0.40000000000E+01  0.51100000000E-03 0.  1.
    9000002   -1    0    0    0    0 -0.00000000000E+00 -0.00000000000E+00  0.00000000000E+00  0.93800000000E+00  0.93800000000E+00 0. -1.
         11    1    1    2    0    0  0.64916801188E-01  0.16797953401E-01  0.78933443761E+00  0.79217768072E+00  0.51100000000E-03 0.  1.
    9000002    1    1    2    0    0 -0.20597329262E+00 -0.16781224715E+00  0.47650031421E-01  0.97606376485E+00  0.93800000000E+00 0. -1.
         22    1    1    2    0    0  0.14105649143E+00  0.15101429374E+00  0.31630154983E+01  0.31697585544E+01  0.00000000000E+00 0.  1.
</event>
<event>
 5    1  0.1560836E+002  0.1599673E+01  0.7818608E-02  0.3353719E+00
         11   -1    0    0    0    0  0.00000000000E+00  0.00000000000E+00  0.39999999674E+01  0.40000000000E+01  0.51100000000E-03 0. -1.
    9000002   -1    0    0    0    0 -0.00000000000E+00 -0.00000000000E+00  0.00000000000E+00  0.93800000000E+00  0.93800000000E+00 0.  1.
         11    1    1    2    0    0  0.81977740637E-01  0.59923681697E-01  0.91419568618E+00  0.91981803164E+00  0.51100000000E-03 0. -1.
    9000002    1    1    2    0    0 -0.34135347561E+00 -0.26046257453E+00  0.12485014297E+00  0.10391316116E+01  0.93800000000E+00 0.  1.
         22    1    1    2    0    0  0.25937573497E+00  0.20053889284E+00  0.29609541382E+01  0.29790503567E+01  0.00000000000E+00 0.  1.
</event>
<event>
 5    1  0.1560836E+002  0.1599607E+01  0.7818608E-02  0.3353790E+00
         11   -1    0    0    0    0  0.00000000000E+00  0.00000000000E+00  0.39999999674E+01  0.40000000000E+01  0.51100000000E-03 0.  1.
    9000002   -1    0    0    0    0 -0.00000000000E+00 -0.00000000000E+00  0.00000000000E+00  0.93800000000E+00  0.93800000000E+00 0.  1.
         11    1    1    2    0    0 -0.58722420494E-01  0.66583030357E-01  0.90735915129E+00  0.91169211533E+00  0.51100000000E-03 0.  1.
    9000002    1    1    2    0    0  0.21783101127E+00 -0.29734252383E+00  0.91347296083E-01  0.10119541761E+01  0.93800000000E+00 0.  1.
         22    1    1    2    0    0 -0.15910859078E+00  0.23075949348E+00  0.30012935200E+01  0.30143537086E+01  0.00000000000E+00 0.  1.
</event>
<event>
 5    1  0.1560836E+002  0.1596453E+01  0.7818608E-02  0.3357222E+00
         11   -1    0    0    0    0  0.00000000000E+00  0.00000000000E+00  0.39999999674E+01  0.40000000000E+01  0.51100000000E-03 0.  1.
    9000002   -1    0    0    0    0 -0.00000000000E+00 -0.00000000000E+00  0.00000000000E+00  0.93800000000E+00  0.93800000000E+00 0.  1.
         11    1    1    2    0    0  0.85070589032E-02  0.32270827823E-01  0.23473424523E+00  0.23709534661E+00  0.51100000000E-03 0.  1.
    9000002    1    1    2    0    0 -0.24156276011E+00 -0.81595460593E-02  0.41241774043E-01  0.96951742078E+00  0.93800000000E+00 0.  1.
         22    1    1    2    0    0  0.23305570121E+00 -0.24111281763E-01  0.37240239481E+01  0.37313872326E+01  0.00000000000E+00 0.  1.
</event>
<event>
 5    1  0.1560836E+002  0.1599569E+01  0.7818608E-02  0.3353831E+00
         11   -1    0    0    0    0  0.00000000000E+00  0.00000000000E+00  0.39999999674E+01  0.40000000000E+01  0.51100000000E-03 0.  1.
    9000002   -1    0    0    0    0 -0.00000000000E+00 -0.00000000000E+00  0.00000000000E+00  0.93800000000E+00  0.93800000000E+00 0. -1.
         11    1    1    2    0    0  0.34003264431E-01 -0.95109657560E-02  0.46172910591E+00  0.46307743286E+00  0.51100000000E-03 0.  1.
    9000002    1    1    2    0    0 -0.22973042116E+00  0.11199540245E+00  0.43492225840E-01  0.97316730848E+00  0.93800000000E+00 0. -1.
         22    1    1    2    0    0  0.19572715673E+00 -0.10248443670E+00  0.34947786356E+01  0.35017552587E+01  0.00000000000E+00 0.  1.
</event>
<event>
 5    1  0.1560836E+002  0.1599579E+01  0.7818608E-02  0.3353821E+00
         11   -1    0    0    0    0  0.00000000000E+00  0.00000000000E+00  0.39999999674E+01  0.40000000000E+01  0.51100000000E-03 0.  1.
    9000002   -1    0    0    0    0 -0.00000000000E+00 -0.00000000000E+00  0.00000000000E+00  0.93800000000E+00  0.93800000000E+00 0. -1.
         11    1    1    2    0    0  0.68688261499E-01  0.41877870541E-01  0.10684860051E+01  0.10715103534E+01  0.51100000000E-03 0.  1.
    9000002    1    1    2    0    0 -0.28911796803E+00 -0.13987076698E+00  0.69033405515E-01  0.99386248645E+00  0.93800000000E+00 0. -1.
         22    1    1    2    0    0  0.22042970653E+00  0.97992896442E-01  0.28624805567E+01  0.28726271601E+01  0.00000000000E+00 0.  1.
</event>
<event>
 5    1  0.1560836E+002  0.1544814E+01  0.7818608E-02  0.3415528E+00
         11   -1    0    0    0    0  0.00000000000E+00  0.00000000000E+00  0.39999999674E+01  0.40000000000E+01  0.51100000000E-03 0.  1.
    9000002   -1    0    0    0    0 -0.00000000000E+00 -0.00000000000E+00  0.00000000000E+00  0.93800000000E+00  0.93800000000E+00 0. -1.
         11    1    1    2    0    0 -0.32864552161E+00  0.16047014631E+00  0.18695728474E+01  0.19050095642E+01  0.51100000000E-03 0.  1.
    9000002    1    1    2    0    0  0.10658723101E+00 -0.23553674164E+00  0.87768735800E-01  0.97692668377E+00  0.93800000000E+00 0. -1.
         22    1    1    2    0    0  0.22205829060E+00  0.75066595323E-01  0.20426583841E+01  0.20560637520E+01  0.00000000000E+00 0. -1.
</event>
<event>
 5    1  0.1560836E+002  0.1561195E+01  0.7818608E-02  0.3396588E+00
         11   -1    0    0    0    0  0.00000000000E+00  0.00000000000E+00  0.39999999674E+01  0.40000000000E+01  0.51100000000E-03 0.  1.
    9000002   -1    0    0    0    0 -0.00000000000E+00 -0.00000000000E+00  0.00000000000E+00  0.93800000000E+00  0.93800000000E+00 0. -1.
         11    1    1    2    0    0 -0.10133258915E+00 -0.46610064012E+00  0.26026043793E+01  0.26459531206E+01  0.51100000000E-03 0.  1.
    9000002    1    1    2    0    0 -0.17306804940E-01  0.84148019609E+00  0.58525061144E+00  0.13895145642E+01  0.93800000000E+00 0. -1.
         22    1    1    2    0    0  0.11863939409E+00 -0.37537955598E+00  0.81214497662E+00  0.90253231517E+00  0.00000000000E+00 0.  1.
</event>
<event>
 5    1  0.1560836E+002  0.1599676E+01  0.7818608E-02  0.3353715E+00
         11   -1    0    0    0    0  0.00000000000E+00  0.00000000000E+00  0.39999999674E+01  0.40000000000E+01  0.51100000000E-03 0. -1.
    9000002   -1    0    0    0    0 -0.00000000000E+00 -0.00000000000E+00  0.00000000000E+00  0.93800000000E+00  0.93800000000E+00 0.  1.
         11    1    1    2    0    0  0.23818148369E-02 -0.84182797299E-01  0.11533166862E+01  0.11563875026E+01  0.51100000000E-03 0. -1.
    9000002    1    1    2    0    0 -0.10924056721E-01  0.28533495864E+00  0.54322830071E-01  0.98200322988E+00  0.93800000000E+00 0.  1.
         22    1    1    2    0    0  0.85422418845E-02 -0.20115216134E+00  0.27923604511E+01  0.27996092675E+01  0.00000000000E+00 0. -1.
</event>
<event>
 5    1  0.1560836E+002  0.1599087E+01  0.7818608E-02  0.3354355E+00
         11   -1    0    0    0    0  0.00000000000E+00  0.00000000000E+00  0.39999999674E+01  0.40000000000E+01  0.51100000000E-03 0. -1.
    9000002   -1    0    0    0    0 -0.00000000000E+00 -0.00000000000E+00  0.00000000000E+00  0.93800000000E+00  0.93800000000E+00 0. -1.
         11    1    1    2    0    0 -0.15745445401E+00 -0.12180558917E+00  0.11296192125E+01  0.11470258641E+01  0.51100000000E-03 0. -1.
    9000002    1    1    2    0    0  0.44049931959E+00  0.37459819561E+00  0.23280273091E+00  0.11262346870E+01  0.93800000000E+00 0. -1.
         22    1    1    2    0    0 -0.28304486558E+00 -0.25279260643E+00  0.26375780240E+01  0.26647394489E+01  0.00000000000E+00 0. -1.
</event>
<event>
 5    1  0.1560836E+002  0.1599563E+01  0.7818608E-02  0.3353837E+00
         11   -1    0    0    0    0  0.00000000000E+00  0.00000000000E+00  0.39999999674E+01  0.40000000000E+01  0.51100000000E-03 0.  1.
    9000002   -1    0    0    0    0 -0.00000000000E+00 -0.00000000000E+00  0.00000000000E+00  0.93800000000E+00  0.93800000000E+00 0. -1.
         11    1    1    2    0    0  0.31259265847E-01  0.53339037097E-01  0.84505028352E+00  0.84730893857E+00  0.51100000000E-03 0.  1.
    9000002    1    1    2    0    0 -0.14574852871E+00 -0.29692216674E+00  0.73297126167E-01  0.99730731243E+00  0.93800000000E+00 0. -1.
         22    1    1    2    0    0  0.11448926287E+00  0.24358312965E+00  0.30816525577E+01  0.30933837490E+01  0.00000000000E+00 0.  1.
</event>
<event>
 5    1  0.1560836E+002  0.1599144E+01  0.7818608E-02  0.3354293E+00
         11   -1    0    0    0    0  0.00000000000E+00  0.00000000000E+00  0.39999999674E+01  0.40000000000E+01  0.51100000000E-03 0.  1.
    9000002   -1    0    0    0    0 -0.00000000000E+00 -0.00000000000E+00  0.00000000000E+00  0.93800000000E+00  0.93800000000E+00 0. -1.
         11    1    1    2    0    0  0.24535578520E-02  0.25325298963E-01  0.21304404640E+00  0.21455865758E+00  0.51100000000E-03 0.  1.
    9000002    1    1    2    0    0 -0.12788950073E+00 -0.25103750278E+00  0.53279150805E-01  0.98084566580E+00  0.93800000000E+00 0. -1.
         22    1    1    2    0    0  0.12543594288E+00  0.22571220382E+00  0.37336767702E+01  0.37425956766E+01  0.00000000000E+00 0.  1.
</event>
<event>
 5    1  0.1560836E+002  0.1599677E+01  0.7818608E-02  0.3353714E+00
         11   -1    0    0    0    0  0.00000000000E+00  0.00000000000E+00  0.39999999674E+01  0.40000000000E+01  0.51100000000E-03 0.  1.
    9000002   -1    0    0    0    0 -0.00000000000E+00 -0.00000000000E+00  0.00000000000E+00  0.93800000000E+00  0.93800000000E+00 0.  1.
         11    1    1    2    0    0 -0.20861497588E-01 -0.21488662226E-01  0.44242300028E+00  0.44343583186E+00  0.51100000000E-03 0. -1.
    9000002    1    1    2    0    0  0.18624819317E+00  0.19222303034E+00  0.47655479507E-01  0.97660285049E+00  0.93800000000E+00 0.  1.
         22    1    1    2    0    0 -0.16538669558E+00 -0.17073436811E+00  0.35099214876E+01  0.35179613177E+01  0.00000000000E+00 0.  1.
</event>
<event>
 5    1  0.1560836E+002  0.1589515E+01  0.7818608E-02  0.3364823E+00
         11   -1    0    0    0    0  0.00000000000E+00  0.00000000000E+00  0.39999999674E+01  0.40000000000E+01  0.51100000000E-03 0.  1.
    9000002   -1    0    0    0    0 -0.00000000000E+00 -0.00000000000E+00  0.00000000000E+00  0.93800000000E+00  0.93800000000E+00 0. -1.
         11    1    1    2    0    0 -0.83687933144E-02  0.95767435808E-01  0.54564773523E+00  0.55405157751E+00  0.51100000000E-03 0.  1.
    9000002    1    1    2    0    0  0.22735589379E+00 -0.10897023260E+00  0.50046456227E-01  0.97258103098E+00  0.93800000000E+00 0. -1.
         22    1    1    2    0    0 -0.21898710047E+00  0.13202796789E-01  0.34043057759E+01  0.34113673915E+01  0.00000000000E+00 0.  1.
</event>
<event>
 5    1  0.1560836E+002  0.1599674E+01  0.7818608E-02  0.3353717E+00
         11   -1    0    0    0    0  0.00000000000E+00  0.00000000000E+00  0.39999999674E+01  0.40000000000E+01  0.51100000000E-03 0.  1.
    9000002   -1    0    0    0    0 -0.00000000000E+00 -0.00000000000E+00  0.00000000000E+00  0.93800000000E+00  0.93800000000E+00 0. -1.
         11    1    1    2    0    0 -0.91638398410E-01  0.33232320147E-01  0.11912492980E+01  0.11952309962E+01  0.51100000000E-03 0.  1.
    9000002    1    1    2    0    0  0.30040041228E+00 -0.11520473039E+00  0.69201921426E-01  0.99405505055E+00  0.93800000000E+00 0. -1.
         22    1    1    2    0    0 -0.20876201387E+00  0.81972410248E-01  0.27395487480E+01  0.27487139533E+01  0.00000000000E+00 0.  1.
</event>
<event>
 5    1  0.1560836E+002  0.1569789E+01  0.7818608E-02  0.3386821E+00
         11   -1    0    0    0    0  0.00000000000E+00  0.00000000000E+00  0.39999999674E+01  0.40000000000E+01  0.51100000000E-03 0.  1.
    9000002   -1    0    0    0    0 -0.00000000000E+00 -0.00000000000E+00  0.00000000000E+00  0.93800000000E+00  0.93800000000E+00 0.  1.
         11    1    1    2    0    0  0.13354438147E+00  0.20517225143E+00  0.28069911255E+01  0.28176460378E+01  0.51100000000E-03 0.  1.
    9000002    1    1    2    0    0 -0.27014312339E+00 -0.37250850435E-01  0.72935229627E-01  0.97955524637E+00  0.93800000000E+00 0.  1.
         22    1    1    2    0    0  0.13659874193E+00 -0.16792140100E+00  0.11200736122E+01  0.11407987158E+01  0.00000000000E+00 0.  1.
</event>
<event>
 5    1  0.1560836E+002  0.1599624E+01  0.7818608E-02  0.3353772E+00
         11   -1    0    0    0    0  0.00000000000E+00  0.00000000000E+00  0.39999999674E+01  0.40000000000E+01  0.51100000000E-03 0. -1.
    9000002   -1    0    0    0    0 -0.00000000000E+00 -0.00000000000E+00  0.00000000000E+00  0.93800000000E+00  0.93800000000E+00 0. -1.
         11    1    1    2    0    0  0.11401528989E+00 -0.17070498310E-01  0.13555325753E+01  0.13604262979E+01  0.51100000000E-03 0. -1.
    9000002    1    1    2    0    0 -0.33432675119E+00  0.25667509173E-01  0.75310770953E-01  0.99897392849E+00  0.93800000000E+00 0. -1.
         22    1    1    2    0    0  0.22031146130E+00 -0.85970108626E-02  0.25691566211E+01  0.25785997736E+01  0.00000000000E+00 0. -1.
</event>
<event>
 5    1  0.1560836E+002  0.1599677E+01  0.7818608E-02  0.3353714E+00
         11   -1    0    0    0    0  0.00000000000E+00  0.00000000000E+00  0.39999999674E+01  0.40000000000E+01  0.51100000000E-03 0. -1.
    9000002   -1    0    0    0    0 -0.00000000000E+00 -0.00000000000E+00  0.00000000000E+00  0.93800000000E+00  0.93800000000E+00 0. -1.
         11    1    1    2    0    0 -0.71706682554E-01  0.44712532896E-01  0.87147732578E+00  0.87556498867E+00  0.51100000000E-03 0. -1.
    9000002    1    1    2    0    0  0.32056856315E+00 -0.20237646851E+00  0.96690691804E-01  0.10163235354E+01  0.93800000000E+00 0. -1.
         22    1    1    2    0    0 -0.24886188059E+00  0.15766393562E+00  0.30318319498E+01  0.30461114759E+01  0.00000000000E+00 0. -1.
</event>
<event>
 5    1  0.1560836E+002  0.1597636E+01  0.7818608E-02  0.3355933E+00
         11   -1    0    0    0    0  0.00000000000E+00  0.00000000000E+00  0.39999999674E+01  0.40000000000E+01  0.51100000000E-03 0.  1.
    9000002   -1    0    0    0    0 -0.00000000000E+00 -0.00000000000E+00  0.00000000000E+00  0.93800000000E+00  0.93800000000E+00 0. -1.
         11    1    1    2    0    0 -0.81950580451E-02 -0.37755245473E-01  0.22070337782E+00  0.22405994653E+00  0.51100000000E-03 0.  1.
    9000002    1    1    2    0    0  0.17484006708E+00  0.22653842279E+00  0.56148179728E-01  0.98228576501E+00  0.93800000000E+00 0. -1.
         22    1    1    2    0    0 -0.16664500904E+00 -0.18878317732E+00  0.37231484098E+01  0.37316542885E+01  0.00000000000E+00 0.  1.
</event>
<event>
 5    1  0.1560836E+002  0.1593779E+01  0.7818608E-02  0.3360143E+00
         11   -1    0    0    0    0  0.00000000000E+00  0.00000000000E+00  0.39999999674E+01  0.40000000000E+01  0.51100000000E-03 0. -1.
    9000002   -1    0    0    0    0 -0.00000000000E+00 -0.00000000000E+00  0.00000000000E+00  0.93800000000E+00  0.93800000000E+00 0.  1.
         11    1    1    2    0    0  0.26002509454E-01  0.77835896606E-02  0.12296864586E+00  0.12592959839E+00  0.51100000000E-03 0. -1.
    9000002    1    1    2    0    0  0.12074237039E+00  0.14018456201E+00  0.27051944844E-01  0.95645503771E+00  0.93800000000E+00 0.  1.
         22    1    1    2    0    0 -0.14674487984E+00 -0.14796815167E+00  0.38499793767E+01  0.38556153639E+01  0.00000000000E+00 0. -1.
</event>
<event>
 5    1  0.1560836E+002  0.1517078E+01  0.7818608E-02  0.3448593E+00
         11   -1    0    0    0    0  0.00000000000E+00  0.00000000000E+00  0.39999999674E+01  0.40000000000E+01  0.51100000000E-03 0. -1.
    9000002   -1    0    0    0    0 -0.00000000000E+00 -0.00000000000E+00  0.00000000000E+00  0.93800000000E+00  0.93800000000E+00 0.  1.
         11    1    1    2    0    0 -0.25136489871E+00 -0.24877570568E+00  0.17298110894E+01  0.17655934781E+01  0.51100000000E-03 0. -1.
    9000002    1    1    2    0    0 -0.65586376546E-01  0.11400587396E+00  0.74755259458E-01  0.95012170847E+00  0.93800000000E+00 0.  1.
         22    1    1    2    0    0  0.31695127526E+00  0.13476983171E+00  0.21954336185E+01  0.22222848134E+01  0.00000000000E+00 0.  1.
</event>
<event>
 5    1  0.1560836E+002  0.1579160E+01  0.7818608E-02  0.3376297E+00
         11   -1    0    0    0    0  0.00000000000E+00  0.00000000000E+00  0.39999999674E+01  0.40000000000E+01  0.51100000000E-03 0. -1.
    9000002   -1    0    0    0    0 -0.00000000000E+00 -0.00000000000E+00  0.00000000000E+00  0.93800000000E+00  0.93800000000E+00 0. -1.
         11    1    1    2    0    0 -0.62328871715E-01  0.93727979869E-01  0.98665074643E+00  0.99305074342E+00  0.51100000000E-03 0. -1.
    9000002    1    1    2    0    0  0.21738269583E+00  0.22117727164E+00  0.80544701994E-01  0.99121444247E+00  0.93800000000E+00 0. -1.
         22    1    1    2    0    0 -0.15505382411E+00 -0.31490525151E+00  0.29328045189E+01  0.29537348141E+01  0.00000000000E+00 0. -1.
</event>
<event>
 5    1  0.1560836E+002  0.1599672E+01  0.7818608E-02  0.3353720E+00
         11   -1    0    0    0    0  0.00000000000E+00  0.00000000000E+00  0.39999999674E+01  0.40000000000E+01  0.51100000000E-03 0.  1.
    9000002   -1    0    0    0    0 -0.00000000000E+00 -0.00000000000E+00  0.00000000000E+00  0.93800000000E+00  0.93800000000E+00 0. -1.
         11    1    1    2    0    0 -0.18136944627E+00 -0.92235595581E-01  0.16329256471E+01  0.16455542261E+01  0.51100000000E-03 0.  1.
    9000002    1    1    2    0    0  0.42237132568E+00  0.21302966910E+00  0.15252579584E+00  0.10615494784E+01  0.93800000000E+00 0. -1.
         22    1    1    2    0    0 -0.24100187941E+00 -0.12079407352E+00  0.22145485244E+01  0.22308962955E+01  0.00000000000E+00 0.  1.
</event>
<event>
 5    1  0.1560836E+002  0.1594782E+01  0.7818608E-02  0.3359046E+00
         11   -1    0    0    0    0  0.00000000000E+00  0.00000000000E+00  0.39999999674E+01  0.40000000000E+01  0.51100000000E-03 0. -1.
    9000002   -1    0    0    0    0 -0.00000000000E+00 -0.00000000000E+00  0.00000000000E+00  0.93800000000E+00  0.93800000000E+00 0.  1.
         11    1    1    2    0    0 -0.58279873168E-02 -0.75865842240E-01  0.12137577154E+01  0.12161404706E+01  0.51100000000E-03 0. -1.
    9000002    1    1    2    0    0  0.24459705678E+00  0.13303768547E+00  0.55418763463E-01  0.98002142083E+00  0.93800000000E+00 0.  1.
         22    1    1    2    0    0 -0.23876906947E+00 -0.57171843234E-01  0.27308234885E+01  0.27418381086E+01  0.00000000000E+00 0. -1.
</event>
<event>
 5    1  0.1560836E+002  0.1599618E+01  0.7818608E-02  0.3353778E+00
         11   -1    0    0    0    0  0.00000000000E+00  0.00000000000E+00  0.39999999674E+01  0.40000000000E+01  0.51100000000E-03 0.  1.
    9000002   -1    0    0    0    0 -0.00000000000E+00 -0.00000000000E+00  0.00000000000E+00  0.93800000000E+00  0.93800000000E+00 0. -1.
         11    1    1    2    0    0 -0.12778150196E-01  0.55619513937E-01  0.67500094985E+00  0.67740929642E+00  0.51100000000E-03 0.  1.
    9000002    1    1    2    0    0  0.34111441410E-01 -0.32852748277E+00  0.73041707836E-01  0.99713238261E+00  0.93800000000E+00 0. -1.
         22    1    1    2    0    0 -0.21333291214E-01  0.27290796883E+00  0.32519573097E+01  0.32634583210E+01  0.00000000000E+00 0. -1.
</event>
<event>
 5    1  0.1560836E+002  0.1529047E+01  0.7818608E-02  0.3434167E+00
         11   -1    0    0    0    0  0.00000000000E+00  0.00000000000E+00  0.39999999674E+01  0.40000000000E+01  0.51100000000E-03 0. -1.
    9000002   -1    0    0    0    0 -0.00000000000E+00 -0.00000000000E+00  0.00000000000E+00  0.93800000000E+00  0.93800000000E+00 0. -1.
         11    1    1    2    0    0  0.46075488029E-01  0.14300152881E+00  0.34939927305E+01  0.34972214470E+01  0.51100000000E-03 0. -1.
    9000002    1    1    2    0    0 -0.26622177478E+00 -0.99795997064E-01  0.11086639435E+00  0.98639172330E+00  0.93800000000E+00 0. -1.
         22    1    1    2    0    0  0.22014628675E+00 -0.43205531746E-01  0.39514084254E+00  0.45438682968E+00  0.00000000000E+00 0. -1.
</event>
<event>
 5    1  0.1560836E+002  0.1599608E+01  0.7818608E-02  0.3353789E+00
         11   -1    0    0    0    0  0.00000000000E+00  0.00000000000E+00  0.39999999674E+01  0.40000000000E+01  0.51100000000E-03 0.  1.
    9000002   -1    0    0    0    0 -0.00000000000E+00 -0.00000000000E+00  0.00000000000E+00  0.93800000000E+00  0.93800000000E+00 0.  1.
         11    1    1    2    0    0 -0.39812793953E+00  0.67621070241E+00  0.12445340780E+01  0.14712688750E+01  0.51100000000E-03 0.  1.
    9000002    1    1    2    0    0  0.63958972384E+00 -0.11165241009E+01  0.19500377357E+01  0.25175766629E+01  0.93800000000E+00 0.  1.
         22    1    1    2    0    0 -0.24146178431E+00  0.44031339850E+00  0.80542815366E+00  0.94915446208E+00  0.00000000000E+00 0.  1.
</event>
<event>
 5    1  0.1560836E+002  0.1599677E+01  0.7818608E-02  0.3353714E+00
         11   -1    0    0    0    0  0.00000000000E+00  0.00000000000E+00  0.39999999674E+01  0.40000000000E+01  0.51100000000E-03 0. -1.
    9000002   -1    0    0    0    0 -0.00000000000E+00 -0.00000000000E+00  0.00000000000E+00  0.93800000000E+00  0.93800000000E+00 0. -1.
         11    1    1    2    0    0 -0.17650595250E-01  0.10274668606E+00  0.13251381588E+01  0.13292327960E+01  0.51100000000E-03 0. -1.
    9000002    1    1    2    0    0  0.52953600625E-01 -0.30619705605E+00  0.64482623282E-01  0.99023367427E+00  0.93800000000E+00 0. -1.
         22    1    1    2    0    0 -0.35303005375E-01  0.20345036999E+00  0.26103791853E+01  0.26185335297E+01  0.00000000000E+00 0. -1.
</event>
<event>
 5    1  0.1560836E+002  0.1576144E+01  0.7818608E-02  0.3379670E+00
         11   -1    0    0    0    0  0.00000000000E+00  0.00000000000E+00  0.39999999674E+01  0.40000000000E+01  0.51100000000E-03 0. -1.
    9000002   -1    0    0    0    0 -0.00000000000E+00 -0.00000000000E+00  0.00000000000E+00  0.93800000000E+00  0.93800000000E+00 0.  1.
         11    1    1    2    0    0  0.18442428966E+00  0.86074793422E-01  0.19611526620E+01  0.19716848667E+01  0.51100000000E-03 0. -1.
    9000002    1    1    2    0    0 -0.19186786230E+00  0.15207429315E+00  0.57966286309E-01  0.97115599034E+00  0.93800000000E+00 0.  1.
         22    1    1    2    0    0  0.74435726374E-02 -0.23814908657E+00  0.19808810190E+01  0.19951591429E+01  0.00000000000E+00 0. -1.
</event>
<event>
 5    1  0.1560836E+002  0.1597119E+01  0.7818608E-02  0.3356496E+00
         11   -1    0    0    0    0  0.00000000000E+00  0.00000000000E+00  0.39999999674E+01  0.40000000000E+01  0.51100000000E-03 0. -1.
    9000002   -1    0    0    0    0 -0.00000000000E+00 -0.00000000000E+00  0.00000000000E+00  0.93800000000E+00  0.93800000000E+00 0. -1.
         11    1    1    2    0    0 -0.13172687243E-01  0.16988401171E-01  0.24515555495E+00  0.24609679541E+00  0.51100000000E-03 0. -1.
    9000002    1    1    2    0    0  0.26092436504E+00  0.19683779724E+00  0.73486773707E-01  0.99602758426E+00  0.93800000000E+00 0. -1.
         22    1    1    2    0    0 -0.24775167780E+00 -0.21382619841E+00  0.36813576387E+01  0.36958756203E+01  0.00000000000E+00 0. -1.
</event>
<event>
 5    1  0.1560836E+002  0.1599676E+01  0.7818608E-02  0.3353716E+00
         11   -1    0    0    0    0  0.00000000000E+00  0.00000000000E+00  0.39999999674E+01  0.40000000000E+01  0.51100000000E-03 0.  1.
    9000002   -1    0    0    0    0 -0.00000000000E+00 -0.00000000000E+00  0.00000000000E+00  0.93800000000E+00  0.93800000000E+00 0.  1.
         11    1    1    2    0    0 -0.13784876051E+00  0.62317866466E-01  0.13563729441E+01  0.13647833608E+01  0.51100000000E-03 0.  1.
    9000002    1    1    2    0    0  0.39646071416E+00 -0.18028208838E+00  0.12856125620E+00  0.10421394944E+01  0.93800000000E+00 0.  1.
         22    1    1    2    0    0 -0.25861195365E+00  0.11796422191E+00  0.25150657670E+01  0.25310771448E+01  0.00000000000E+00 0.  1.
</event>
<event>
 5    1  0.1560836E+002  0.1578832E+01  0.7818608E-02  0.3376664E+00
         11   -1    0    0    0    0  0.00000000000E+00  0.00000000000E+00  0.39999999674E+01  0.40000000000E+01  0.51100000000E-03 0. -1.
    9000002   -1    0    0    0    0 -0.00000000000E+00 -0.00000000000E+00  0.00000000000E+00  0.93800000000E+00  0.93800000000E+00 0. -1.
         11    1    1    2    0    0  0.32925961871E-01  0.30985126709E+00  0.17659263245E+01  0.17932060594E+01  0.51100000000E-03 0. -1.
    9000002    1    1    2    0    0  0.27018633215E+00 -0.51683741014E+00  0.25711572370E+00  0.11340520526E+01  0.93800000000E+00 0. -1.
         22    1    1    2    0    0 -0.30311229402E+00  0.20698614305E+00  0.19769579192E+01  0.20107418880E+01  0.00000000000E+00 0. -1.
</event>
<event>
 5    1  0.1560836E+002  0.1556140E+01  0.7818608E-02  0.3402388E+00
         11   -1    0    0    0    0  0.00000000000E+00  0.00000000000E+00  0.39999999674E+01  0.40000000000E+01  0.51100000000E-03 0. -1.
    9000002   -1    0    0    0    0 -0.00000000000E+00 -0.00000000000E+00  0.00000000000E+00  0.93800000000E+00  0.93800000000E+00 0. -1.
         11    1    1    2    0    0 -0.14634501376E+00  0.93260431175E-01  0.23470944225E+01  0.23535009794E+01  0.51100000000E-03 0. -1.
    9000002    1    1    2    0    0 -0.15661884114E+00 -0.24741121525E+00  0.91921950325E-01  0.98693232584E+00  0.93800000000E+00 0. -1.
         22    1    1    2    0    0  0.30296385490E+00  0.15415078408E+00  0.15609835946E+01  0.15975666947E+01  0.00000000000E+00 0.  1.
</event>
<event>
 5    1  0.1560836E+002  0.1599589E+01  0.7818608E-02  0.3353810E+00
         11   -1    0    0    0    0  0.00000000000E+00  0.00000000000E+00  0.39999999674E+01  0.40000000000E+01  0.51100000000E-03 0.  1.
    9000002   -1    0    0    0    0 -0.00000000000E+00 -0.00000000000E+00  0.00000000000E+00  0.93800000000E+00  0.93800000000E+00 0. -1.
         11    1    1    2    0    0 -0.23496019043E-01 -0.18893549292E-01  0.12903467436E+00  0.13251127282E+00  0.51100000000E-03 0.  1.
    9000002    1    1    2    0    0  0.61034157449E+00  0.61623206459E+00  0.56815325927E+00  0.13981777144E+01  0.93800000000E+00 0. -1.
         22    1    1    2    0    0 -0.58684555545E+00 -0.59733851529E+00  0.33028120337E+01  0.34073110128E+01  0.00000000000E+00 0.  1.
</event>
<event>
 5    1  0.1560836E+002  0.1599666E+01  0.7818608E-02  0.3353726E+00
         11   -1    0    0    0    0  0.00000000000E+00  0.00000000000E+00  0.39999999674E+01  0.40000000000E+01  0.51100000000E-03 0. -1.
    9000002   -1    0    0    0    0 -0.00000000000E+00 -0.00000000000E+00  0.00000000000E+00  0.93800000000E+00  0.93800000000E+00 0.  1.
         11    1    1    2    0    0 -0.77937393736E-02 -0.11997791156E-01  0.99659918110E-01  0.10068291695E+00  0.51100000000E-03 0. -1.
    9000002    1    1    2    0    0  0.27945356647E+00  0.41855076366E+00  0.17348958528E+00  0.10785275489E+01  0.93800000000E+00 0.  1.
         22    1    1    2    0    0 -0.27165982710E+00 -0.40655297251E+00  0.37268504640E+01  0.37587895341E+01  0.00000000000E+00 0. -1.
</event>
<event>
 5    1  0.1560836E+002  0.1599657E+01  0.7818608E-02  0.3353736E+00
         11   -1    0    0    0    0  0.00000000000E+00  0.00000000000E+00  0.39999999674E+01  0.40000000000E+01  0.51100000000E-03 0.  1.
    9000002   -1    0    0    0    0 -0.00000000000E+00 -0.00000000000E+00  0.00000000000E+00  0.93800000000E+00  0.93800000000E+00 0.  1.
         11    1    1    2    0    0 -0.51512869197E+00 -0.66219302339E+00  0.17114351554E+01  0.19060083215E+01  0.51100000000E-03 0.  1.
    9000002    1    1    2    0    0  0.74987559338E+00  0.97274000295E+00  0.15056235402E+01  0.21576104291E+01  0.93800000000E+00 0.  1.
         22    1    1    2    0    0 -0.23474690140E+00 -0.31054697956E+00  0.78294127177E+00  0.87438124939E+00  0.00000000000E+00 0. -1.
</event>
<event>
 5    1  0.1560836E+002  0.1599675E+01  0.7818608E-02  0.3353716E+00
         11   -1    0    0    0    0  0.00000000000E+00  0.00000000000E+00  0.39999999674E+01  0.40000000000E+01  0.51100000000E-03 0. -1.
    9000002   -1    0    0    0    0 -0.00000000000E+00 -0.00000000000E+00  0.00000000000E+00  0.93800000000E+00  0.93800000000E+00 0. -1.
         11    1    1    2    0    0  0.29908892936E-01  0.13902320182E-01  0.56528252218E+00  0.56624412349E+00  0.51100000000E-03 0. -1.
    9000002    1    1    2    0    0 -0.21551694944E+00 -0.93469410059E-01  0.36618495519E-01  0.96766161458E+00  0.93800000000E+00 0. -1.
         22    1    1    2    0    0  0.18560805651E+00  0.79567089877E-01  0.33980989497E+01  0.34040942619E+01  0.00000000000E+00 0. -1.
</event>
<event>
 5    1  0.1560836E+002  0.1521710E+01  0.7818608E-02  0.3442981E+00
         11   -1    0    0    0    0  0.00000000000E+00  0.00000000000E+00  0.39999999674E+01  0.40000000000E+01  0.51100000000E-03 0. -1.
    9000002   -1    0    0    0    0 -0.00000000000E+00 -0.00000000000E+00  0.00000000000E+00  0.93800000000E+00  0.93800000000E+00 0. -1.
         11    1    1    2    0    0  0.11514914260E+00  0.16925962364E+00  0.27973837476E+01  0.28048643885E+01  0.51100000000E-03 0. -1.
    9000002    1    1    2    0    0  0.99648314947E-01 -0.53045561999E+00  0.27775294085E+00  0.11172750993E+01  0.93800000000E+00 0. -1.
         22    1    1    2    0    0 -0.21479745755E+00  0.36119599635E+00  0.92486327887E+00  0.10158605121E+01  0.00000000000E+00 0. -1.
</event>
<event>
 5    1  0.1560836E+002  0.1599560E+01  0.7818608E-02  0.3353841E+00
         11   -1    0    0    0    0  0.00000000000E+00  0.00000000000E+00  0.39999999674E+01  0.40000000000E+01  0.51100000000E-03 0. -1.
    9000002   -1    0    0    0    0 -0.00000000000E+00 -0.00000000000E+00  0.00000000000E+00  0.93800000000E+00  0.93800000000E+00 0.  1.
         11    1    1    2    0    0 -0.40073724900E-02  0.17575774571E-02  0.34593658962E-01  0.34873062300E-01  0.51100000000E-03 0. -1.
    9000002    1    1    2    0    0  0.18973251520E+00 -0.15643532028E+00  0.40246915274E-01  0.97053297262E+00  0.93800000000E+00 0.  1.
         22    1    1    2    0    0 -0.18572514271E+00  0.15467774282E+00  0.39251593931E+01  0.39325939651E+01  0.00000000000E+00 0. -1.
</event>
<event>
 5    1  0.1560836E+002  0.1577919E+01  0.7818608E-02  0.3377683E+00
         11   -1    0    0    0    0  0.00000000000E+00  0.00000000000E+00  0.39999999674E+01  0.40000000000E+01  0.51100000000E-03 0.  1.
    9000002   -1    0    0    0    0 -0.00000000000E+00 -0.00000000000E+00  0.00000000000E+00  0.93800000000E+00  0.93800000000E+00 0. -1.
         11    1    1    2    0    0  0.38477548312E-01  0.98717391055E-01  0.18207327353E+01  0.18238129289E+01  0.51100000000E-03 0.  1.
    9000002    1    1    2    0    0  0.24916840960E+00 -0.22583236904E-01  0.58399039748E-01  0.97254786349E+00  0.93800000000E+00 0. -1.
         22    1    1    2    0    0 -0.28764595791E+00 -0.76134154151E-01  0.21208681923E+01  0.21416392076E+01  0.00000000000E+00 0.  1.
</event>
<event>
 5    1  0.1560836E+002  0.1579151E+01  0.7818608E-02  0.3376308E+00
         11   -1    0    0    0    0  0.00000000000E+00  0.00000000000E+00  0.39999999674E+01  0.40000000000E+01  0.51100000000E-03 0.  1.
    9000002   -1    0    0    0    0 -0.00000000000E+00 -0.00000000000E+00  0.00000000000E+00  0.93800000000E+00  0.93800000000E+00 0.  1.
         11    1    1    2    0    0  0.42380949165E-01 -0.26304120074E-01  0.23051529191E+01  0.23056925843E+01  0.51100000000E-03 0.  1.
    9000002    1    1    2    0    0  0.21634753982E+00  0.86077254501E-01  0.51708030176E-01  0.96784981899E+00  0.93800000000E+00 0.  1.
         22    1    1    2    0    0 -0.25872848899E+00 -0.59773134427E-01  0.16431390180E+01  0.16644575967E+01  0.00000000000E+00 0.  1.
</event>
<event>
 5    1  0.1560836E+002  0.1599666E+01  0.7818608E-02  0.3353726E+00
         11   -1    0    0    0    0  0.00000000000E+00  0.00000000000E+00  0.39999999674E+01  0.40000000000E+01  0.51100000000E-03 0. -1.
    9000002   -1    0    0    0    0 -0.00000000000E+00 -0.00000000000E+00  0.00000000000E+00  0.93800000000E+00  0.93800000000E+00 0. -1.
         11    1    1    2    0    0  0.18892675886E+00  0.31272072119E-01  0.16087445697E+01  0.16201020382E+01  0.51100000000E-03 0. -1.
    9000002    1    1    2    0    0 -0.44632073427E+00 -0.81189628018E-01  0.13985676079E+00  0.10512839136E+01  0.93800000000E+00 0. -1.
         22    1    1    2    0    0  0.25739397541E+00  0.49917555899E-01  0.22513986369E+01  0.22666140481E+01  0.00000000000E+00 0.  1.
</event>
<event>
 5    1  0.1560836E+002  0.1599464E+01  0.7818608E-02  0.3353946E+00
         11   -1    0    0    0    0  0.00000000000E+00  0.00000000000E+00  0.39999999674E+01  0.40000000000E+01  0.51100000000E-03 0.  1.
    9000002   -1    0    0    0    0 -0.00000000000E+00 -0.00000000000E+00  0.00000000000E+00  0.93800000000E+00  0.93800000000E+00 0.  1.
         11    1    1    2    0    0  0.30644859668E+00 -0.30117598502E+00  0.23420715309E+01  0.23811587586E+01  0.51100000000E-03 0.  1.
    9000002    1    1    2    0    0 -0.46906267909E+00  0.45310570544E+00  0.30051152760E+00  0.11813025673E+01  0.93800000000E+00 0.  1.
         22    1    1    2    0    0  0.16261408241E+00 -0.15192972042E+00  0.13574169088E+01  0.13755386742E+01  0.00000000000E+00 0. -1.
</event>
<event>
 5    1  0.1560836E+002  0.1599461E+01  0.7818608E-02  0.3353948E+00
         11   -1    0    0    0    0  0.00000000000E+00  0.00000000000E+00  0.39999999674E+01  0.40000000000E+01  0.51100000000E-03 0.  1.
    9000002   -1    0    0    0    0 -0.00000000000E+00 -0.00000000000E+00  0.00000000000E+00  0.93800000000E+00  0.93800000000E+00 0. -1.
         11    1    1    2    0    0  0.12935659729E+00  0.63641399186E-01  0.11578466209E+01  0.11667872195E+01  0.51100000000E-03 0.  1.
    9000002    1    1    2    0    0 -0.47928495338E+00 -0.21517860185E+00  0.18998001547E+00  0.10917656816E+01  0.93800000000E+00 0. -1.
         22    1    1    2    0    0  0.34992835610E+00  0.15153720266E+00  0.26521733310E+01  0.26794470989E+01  0.00000000000E+00 0.  1.
</event>
<event>
 5    1  0.1560836E+002  0.1599642E+01  0.7818608E-02  0.3353752E+00
         11   -1    0    0    0    0  0.00000000000E+00  0.00000000000E+00  0.39999999674E+01  0.40000000000E+01  0.51100000000E-03 0.  1.
    9000002   -1    0    0    0    0 -0.00000000000E+00 -0.00000000000E+00  0.00000000000E+00  0.93800000000E+00  0.93800000000E+00 0. -1.
         11    1    1    2    0    0 -0.35687192658E-01 -0.12080701544E-01  0.65727064902E+00  0.65834982058E+00  0.51100000000E-03 0.  1.
    9000002    1    1    2    0    0  0.22644418638E+00  0.10236353678E+00  0.41045264894E-01  0.97122807670E+00  0.93800000000E+00 0. -1.
         22    1    1    2    0    0 -0.19075699372E+00 -0.90282835232E-01  0.33016840534E+01  0.33084221027E+01  0.00000000000E+00 0.  1.
</event>
<event>
 5    1  0.1560836E+002  0.1599672E+01  0.7818608E-02  0.3353720E+00
         11   -1    0    0    0    0  0.00000000000E+00  0.00000000000E+00  0.39999999674E+01  0.40000000000E+01  0.51100000000E-03 0. -1.
    9000002   -1    0    0    0    0 -0.00000000000E+00 -0.00000000000E+00  0.00000000000E+00  0.93800000000E+00  0.93800000000E+00 0. -1.
         11    1    1    2    0    0 -0.42963807740E-01 -0.54466055785E-01  0.78956119541E+00  0.79260304215E+00  0.51100000000E-03 0. -1.
    9000002    1    1    2    0    0  0.22011716571E+00  0.26212906256E+00  0.78497315520E-01  0.10015832669E+01  0.93800000000E+00 0. -1.
         22    1    1    2    0    0 -0.17715335797E+00 -0.20766300677E+00  0.31319414564E+01  0.31438136909E+01  0.00000000000E+00 0. -1.
</event>
<event>
 5    1  0.1560836E+002  0.1597076E+01  0.7818608E-02  0.3356543E+00
         11   -1    0    0    0    0  0.00000000000E+00  0.00000000000E+00  0.39999999674E+01  0.40000000000E+01  0.51100000000E-03 0.  1.
    9000002   -1    0    0    0    0 -0.00000000000E+00 -0.00000000000E+00  0.00000000000E+00  0.93800000000E+00  0.93800000000E+00 0. -1.
         11    1    1    2    0    0 -0.14067222643E-01  0.10491499708E+00  0.12211342684E+01  0.12257137537E+01  0.51100000000E-03 0.  1.
    9000002    1    1    2    0    0  0.19350347774E+00 -0.23076258646E+00  0.62550139674E-01  0.98714309357E+00  0.93800000000E+00 0. -1.
         22    1    1    2    0    0 -0.17943625510E+00  0.12584758939E+00  0.27163155593E+01  0.27251431527E+01  0.00000000000E+00 0.  1.
</event>
<event>
 5    1  0.1560836E+002  0.1599212E+01  0.7818608E-02  0.3354219E+00
         11   -1    0    0    0    0  0.00000000000E+00  0.00000000000E+00  0.39999999674E+01  0.40000000000E+01  0.51100000000E-03 0. -1.
    9000002   -1    0    0    0    0 -0.00000000000E+00 -0.00000000000E+00  0.00000000000E+00  0.93800000000E+00  0.93800000000E+00 0.  1.
         11    1    1    2    0    0 -0.62345082037E-02 -0.19993546813E-02  0.32934556899E-01  0.33582922309E-01  0.51100000000E-03 0. -1.
    9000002    1    1    2    0    0  0.26513907476E+00 -0.57043609487E-01  0.49302004318E-01  0.97766425217E+00  0.93800000000E+00 0.  1.
         22    1    1    2    0    0 -0.25890456655E+00  0.59042964168E-01  0.39177634061E+01  0.39267528255E+01  0.00000000000E+00 0. -1.
</event>
<event>
 5    1  0.1560836E+002  0.1599670E+01  0.7818608E-02  0.3353722E+00
         11   -1    0    0    0    0  0.00000000000E+00  0.00000000000E+00  0.39999999674E+01  0.40000000000E+01  0.51100000000E-03 0.  1.
    9000002   -1    0    0    0    0 -0.00000000000E+00 -0.00000000000E+00  0.00000000000E+00  0.93800000000E+00  0.93800000000E+00 0.  1.
         11    1    1    2    0    0 -0.11100419061E+00 -0.15936094499E+00  0.18013821628E+01  0.18118211277E+01  0.51100000000E-03 0.  1.
    9000002    1    1    2    0    0  0.23463969348E+00  0.34867169892E+00  0.11946468586E+00  0.10347673896E+01  0.93800000000E+00 0.  1.
         22    1    1    2    0    0 -0.12363550287E+00 -0.18931075393E+00  0.20791531187E+01  0.20914114827E+01  0.00000000000E+00 0.  1.
</event>
<event>
 5    1  0.1560836E+002  0.1595520E+01  0.7818608E-02  0.3358240E+00
         11   -1    0    0    0    0  0.00000000000E+00  0.00000000000E+00  0.39999999674E+01  0.40000000000E+01  0.51100000000E-03 0.  1.
    9000002   -1    0    0    0    0 -0.00000000000E+00 -0.00000000000E+00  0.00000000000E+00  0.93800000000E+00  0.93800000000E+00 0.  1.
         11    1    1    2    0    0  0.13620272865E-01  0.35675369264E-01  0.26394990422E+00  0.26669843806E+00  0.51100000000E-03 0.  1.
    9000002    1    1    2    0    0  0.17929757759E+00 -0.98945296769E-01  0.30898664398E-01  0.96059175540E+00  0.93800000000E+00 0.  1.
         22    1    1    2    0    0 -0.19291785045E+00  0.63269927505E-01  0.37051513987E+01  0.37107098065E+01  0.00000000000E+00 0.  1.
</event>
<event>
 5    1  0.1560836E+002  0.1599664E+01  0.7818608E-02  0.3353728E+00
         11   -1    0    0    0    0  0.00000000000E+00  0.00000000000E+00  0.39999999674E+01  0.40000000000E+01  0.51100000000E-03 0.  1.
    9000002   -1    0    0    0    0 -0.00000000000E+00 -0.00000000000E+00  0.00000000000E+00  0.93800000000E+00  0.93800000000E+00 0.  1.
         11    1    1    2    0    0 -0.63214742785E-02  0.24567055321E-02  0.77986632774E-01  0.78282644638E-01  0.51100000000E-03 0.  1.
    9000002    1    1    2    0    0  0.36453455001E+00 -0.94348244412E-01  0.95371088080E-01  0.10152470999E+01  0.93800000000E+00 0.  1.
         22    1    1    2    0    0 -0.35821307573E+00  0.91891538880E-01  0.38266422465E+01  0.38444702555E+01  0.00000000000E+00 0.  1.
</event>
<event>
 5    1  0.1560836E+002  0.1599568E+01  0.7818608E-02  0.3353833E+00
         11   -1    0    0    0    0  0.00000000000E+00  0.00000000000E+00  0.39999999674E+01  0.40000000000E+01  0.51100000000E-03 0.  1.
    9000002   -1    0    0    0    0 -0.00000000000E+00 -0.00000000000E+00  0.00000000000E+00  0.93800000000E+00  0.93800000000E+00 0.  1.
         11    1    1    2    0    0  0.55706146844E-01  0.10179540376E+00  0.11494441166E+01  0.11552867685E+01  0.51100000000E-03 0.  1.
    9000002    1    1    2    0    0 -0.22541377602E+00 -0.33229526413E+00  0.10886629886E+00  0.10261224995E+01  0.93800000000E+00 0.  1.
         22    1    1    2    0    0  0.16970762917E+00  0.23049986036E+00  0.27416895519E+01  0.27565907320E+01  0.00000000000E+00 0.  1.
</event>
<event>
 5    1  0.1560836E+002  0.1599661E+01  0.7818608E-02  0.3353731E+00
         11   -1    0    0    0    0  0.00000000000E+00  0.00000000000E+00  0.39999999674E+01  0.40000000000E+01  0.51100000000E-03 0. -1.
    9000002   -1    0    0    0    0 -0.00000000000E+00 -0.00000000000E+00  0.00000000000E+00  0.93800000000E+00  0.93800000000E+00 0.  1.
         11    1    1    2    0    0 -0.14645497482E-01 -0.62496974845E-02  0.28509232853E+00  0.28553711882E+00  0.51100000000E-03 0. -1.
    9000002    1    1    2    0    0  0.22708969404E+00  0.62660262519E-01  0.36837962889E-01  0.96783111809E+00  0.93800000000E+00 0.  1.
         22    1    1    2    0    0 -0.21244419656E+00 -0.56410565034E-01  0.36780696759E+01  0.36846317631E+01  0.00000000000E+00 0. -1.
</event>
<event>
 5    1  0.1560836E+002  0.1505006E+01  0.7818608E-02  0.3463392E+00
         11   -1    0    0    0    0  0.00000000000E+00  0.00000000000E+00  0.39999999674E+01  0.40000000000E+01  0.51100000000E-03 0.  1.
    9000002   -1    0    0    0    0 -0.00000000000E+00 -0.00000000000E+00  0.00000000000E+00  0.93800000000E+00  0.93800000000E+00 0. -1.
         11    1    1    2    0    0  0.13093190386E+00  0.15641521791E+00  0.35899078532E+00  0.41289651114E+00  0.51100000000E-03 0.  1.
    9000002    1    1    2    0    0  0.20900935702E+00  0.36046891376E-01  0.10478950203E+00  0.96737228068E+00  0.93800000000E+00 0. -1.
         22    1    1    2    0    0 -0.33994126088E+00 -0.19246210929E+00  0.35362196800E+01  0.35577312082E+01  0.00000000000E+00 0.  1.
</event>
<event>
 5    1  0.1560836E+002  0.1599675E+01  0.7818608E-02  0.3353716E+00
         11   -1    0    0    0    0  0.00000000000E+00  0.00000000000E+00  0.39999999674E+01  0.40000000000E+01  0.51100000000E-03 0. -1.
    9000002   -1    0    0    0    0 -0.00000000000E+00 -0.00000000000E+00  0.00000000000E+00  0.93800000000E+00  0.93800000000E+00 0. -1.
         11    1    1    2    0    0 -0.21761556234E+00 -0.60535514080E-01  0.15072605889E+01  0.15240918034E+01  0.51100000000E-03 0. -1.
    9000002    1    1    2    0    0  0.54670124402E+00  0.15533271104E+00  0.22390092257E+00  0.11193686276E+01  0.93800000000E+00 0. -1.
         22    1    1    2    0    0 -0.32908568168E+00 -0.94797196958E-01  0.22688384559E+01  0.22945395690E+01  0.00000000000E+00 0. -1.
</event>
<event>
 5    1  0.1560836E+002  0.1598227E+01  0.7818608E-02  0.3355290E+00
         11   -1    0    0    0    0  0.00000000000E+00  0.00000000000E+00  0.39999999674E+01  0.40000000000E+01  0.51100000000E-03 0. -1.
    9000002   -1    0    0    0    0 -0.00000000000E+00 -0.00000000000E+00  0.00000000000E+00  0.93800000000E+00  0.93800000000E+00 0. -1.
         11    1    1    2    0    0  0.16307441230E-01  0.56306918181E-01  0.77216843562E+00  0.77439057056E+00  0.51100000000E-03 0. -1.
    9000002    1    1    2    0    0  0.10025075872E+00 -0.25924224043E+00  0.52560840770E-01  0.97972618411E+00  0.93800000000E+00 0. -1.
         22    1    1    2    0    0 -0.11655819995E+00  0.20293532225E+00  0.31752706910E+01  0.31838832453E+01  0.00000000000E+00 0. -1.
</event>
<event>
 5    1  0.1560836E+002  0.1599669E+01  0.7818608E-02  0.3353722E+00
         11   -1    0    0    0    0  0.00000000000E+00  0.00000000000E+00  0.39999999674E+01  0.40000000000E+01  0.51100000000E-03 0. -1.
    9000002   -1    0    0    0    0 -0.00000000000E+00 -0.00000000000E+00  0.00000000000E+00  0.93800000000E+00  0.93800000000E+00 0.  1.
         11    1    1    2    0    0 -0.57034816224E-02  0.39129471610E-01  0.54378228989E+00  0.54521838301E+00  0.51100000000E-03 0. -1.
    9000002    1    1    2    0    0  0.24897556409E-01 -0.28304216701E+00  0.53786587059E-01  0.98156495127E+00  0.93800000000E+00 0.  1.
         22    1    1    2    0    0 -0.19194074787E-01  0.24391269540E+00  0.34024310904E+01  0.34112166657E+01  0.00000000000E+00 0. -1.
</event>
<event>
 5    1  0.1560836E+002  0.1599677E+01  0.7818608E-02  0.3353714E+00
         11   -1    0    0    0    0  0.00000000000E+00  0.00000000000E+00  0.39999999674E+01  0.40000000000E+01  0.51100000000E-03 0.  1.
    9000002   -1    0    0    0    0 -0.00000000000E+00 -0.00000000000E+00  0.00000000000E+00  0.93800000000E+00  0.93800000000E+00 0.  1.
         11    1    1    2    0    0 -0.73479259616E-01  0.74474777680E-01  0.12096975609E+01  0.12142133849E+01  0.51100000000E-03 0.  1.
    9000002    1    1    2    0    0  0.23622117917E+00 -0.24225135242E+00  0.76667796840E-01  0.10001040517E+01  0.93800000000E+00 0.  1.
         22    1    1    2    0    0 -0.16274191956E+00  0.16777657474E+00  0.27136346096E+01  0.27236825633E+01  0.00000000000E+00 0.  1.
</event>
<event>
 5    1  0.1560836E+002  0.1599147E+01  0.7818608E-02  0.3354290E+00
         11   -1    0    0    0    0  0.00000000000E+00  0.00000000000E+00  0.39999999674E+01  0.40000000000E+01  0.51100000000E-03 0. -1.
    9000002   -1    0    0    0    0 -0.00000000000E+00 -0.00000000000E+00  0.00000000000E+00  0.93800000000E+00  0.93800000000E+00 0.  1.
         11    1    1    2    0    0  0.93758631584E-01  0.84010648896E-01  0.13055363008E+01  0.13115920722E+01  0.51100000000E-03 0. -1.
    9000002    1    1    2    0    0 -0.21659540851E+00 -0.29638171593E+00  0.90961904181E-01  0.10113722166E+01  0.93800000000E+00 0.  1.
         22    1    1    2    0    0  0.12283677692E+00  0.21237106704E+00  0.26035017624E+01  0.26150357112E+01  0.00000000000E+00 0. -1.
</event>
<event>
 5    1  0.1560836E+002  0.1594956E+01  0.7818608E-02  0.3358856E+00
         11   -1    0    0    0    0  0.00000000000E+00  0.00000000000E+00  0.39999999674E+01  0.40000000000E+01  0.51100000000E-03 0.  1.
    9000002   -1    0    0    0    0 -0.00000000000E+00 -0.00000000000E+00  0.00000000000E+00  0.93800000000E+00  0.93800000000E+00 0.  1.
         11    1    1    2    0    0  0.96990834752E-02 -0.86816111937E-01  0.19912933552E+01  0.19932086185E+01  0.51100000000E-03 0.  1.
    9000002    1    1    2    0    0 -0.14916018027E+00  0.27088735707E+00  0.67573329344E-01  0.98996912802E+00  0.93800000000E+00 0.  1.
         22    1    1    2    0    0  0.13946109680E+00 -0.18407124513E+00  0.19411332829E+01  0.19548222535E+01  0.00000000000E+00 0.  1.
</event>
<event>
 5    1  0.1560836E+002  0.1599621E+01  0.7818608E-02  0.3353775E+00
         11   -1    0    0    0    0  0.00000000000E+00  0.00000000000E+00  0.39999999674E+01  0.40000000000E+01  0.51100000000E-03 0. -1.
    9000002   -1    0    0    0    0 -0.00000000000E+00 -0.00000000000E+00  0.00000000000E+00  0.93800000000E+00  0.93800000000E+00 0. -1.
         11    1    1    2    0    0 -0.22464358453E-01 -0.51017538224E-01  0.74356212610E+00  0.74564893422E+00  0.51100000000E-03 0. -1.
    9000002    1    1    2    0    0  0.13560502402E+00  0.30282089943E+00  0.73717167779E-01  0.99768103144E+00  0.93800000000E+00 0. -1.
         22    1    1    2    0    0 -0.11314066557E+00 -0.25180336121E+00  0.31827206735E+01  0.31946700343E+01  0.00000000000E+00 0. -1.
</event>
<event>
 5    1  0.1560836E+002  0.1599185E+01  0.7818608E-02  0.3354248E+00
         11   -1    0    0    0    0  0.00000000000E+00  0.00000000000E+00  0.39999999674E+01  0.40000000000E+01  0.51100000000E-03 0. -1.
    9000002   -1    0    0    0    0 -0.00000000000E+00 -0.00000000000E+00  0.00000000000E+00  0.93800000000E+00  0.93800000000E+00 0.  1.
         11    1    1    2    0    0 -0.40706694514E-01  0.97813775623E-01  0.11873603102E+01  0.11920777396E+01  0.51100000000E-03 0. -1.
    9000002    1    1    2    0    0  0.21436271666E+00 -0.32279837229E+00  0.10152535259E+00  0.10199517443E+01  0.93800000000E+00 0.  1.
         22    1    1    2    0    0 -0.17365602215E+00  0.22498459666E+00  0.27111143045E+01  0.27259705162E+01  0.00000000000E+00 0. -1.
</event>
<event>
 5    1  0.1560836E+002  0.1599676E+01  0.7818608E-02  0.3353715E+00
         11   -1    0    0    0    0  0.00000000000E+00  0.00000000000E+00  0.39999999674E+01  0.40000000000E+01  0.51100000000E-03 0.  1.
    9000002   -1    0    0    0    0 -0.00000000000E+00 -0.00000000000E+00  0.00000000000E+00  0.93800000000E+00  0.93800000000E+00 0. -1.
         11    1    1    2    0    0  0.61870578190E-01 -0.35262701173E-01  0.91312866682E+00  0.91590155030E+00  0.51100000000E-03 0.  1.
    9000002    1    1    2    0    0 -0.26424119511E+00  0.14873890255E+00  0.61358061781E-01  0.98770212214E+00  0.93800000000E+00 0. -1.
         22    1    1    2    0    0  0.20237061692E+00 -0.11347620137E+00  0.30255132388E+01  0.30343963276E+01  0.00000000000E+00 0.  1.
</event>
<event>
 5    1  0.1560836E+002  0.1557455E+01  0.7818608E-02  0.3400876E+00
         11   -1    0    0    0    0  0.00000000000E+00  0.00000000000E+00  0.39999999674E+01  0.40000000000E+01  0.51100000000E-03 0. -1.
    9000002   -1    0    0    0    0 -0.00000000000E+00 -0.00000000000E+00  0.00000000000E+00  0.93800000000E+00  0.93800000000E+00 0. -1.
         11    1    1    2    0    0 -0.12692736185E+00 -0.17256606184E+00  0.66916772835E+00  0.70262031758E+00  0.51100000000E-03 0. -1.
    9000002    1    1    2    0    0 -0.10388822697E+00  0.30399698604E+00  0.10320982930E+00  0.99684662817E+00  0.93800000000E+00 0. -1.
         22    1    1    2    0    0  0.23081558882E+00 -0.13143092420E+00  0.32276224097E+01  0.32385330543E+01  0.00000000000E+00 0. -1.
</event>
<event>
 5    1  0.1560836E+002  0.1599651E+01  0.7818608E-02  0.3353743E+00
         11   -1    0    0    0    0  0.00000000000E+00  0.00000000000E+00  0.39999999674E+01  0.40000000000E+01  0.51100000000E-03 0. -1.
    9000002   -1    0    0    0    0 -0.00000000000E+00 -0.00000000000E+00  0.00000000000E+00  0.93800000000E+00  0.93800000000E+00 0. -1.
         11    1    1    2    0    0 -0.29456911689E-01  0.49889862707E-01  0.80547334308E+00  0.80755450316E+00  0.51100000000E-03 0. -1.
    9000002    1    1    2    0    0  0.12051932361E+00 -0.24950709467E+00  0.51135807790E-01  0.97940674313E+00  0.93800000000E+00 0. -1.
         22    1    1    2    0    0 -0.91062411919E-01  0.19961723196E+00  0.31433908165E+01  0.31510387537E+01  0.00000000000E+00 0. -1.
</event>
<event>
 5    1  0.1560836E+002  0.1574252E+01  0.7818608E-02  0.3381792E+00
         11   -1    0    0    0    0  0.00000000000E+00  0.00000000000E+00  0.39999999674E+01  0.40000000000E+01  0.51100000000E-03 0.  1.
    9000002   -1    0    0    0    0 -0.00000000000E+00 -0.00000000000E+00  0.00000000000E+00  0.93800000000E+00  0.93800000000E+00 0.  1.
         11    1    1    2    0    0  0.83793791563E-01 -0.49169210753E-01  0.28914037074E+00  0.30502692653E+00  0.51100000000E-03 0.  1.
    9000002    1    1    2    0    0 -0.78354316203E-01 -0.20252181740E+00  0.50674283296E-01  0.96414022236E+00  0.93800000000E+00 0.  1.
         22    1    1    2    0    0 -0.54394753598E-02  0.25169102816E+00  0.36601853133E+01  0.36688328511E+01  0.00000000000E+00 0.  1.
</event>
<event>
 5    1  0.1560836E+002  0.1599669E+01  0.7818608E-02  0.3353722E+00
         11   -1    0    0    0    0  0.00000000000E+00  0.00000000000E+00  0.39999999674E+01  0.40000000000E+01  0.51100000000E-03 0. -1.
    9000002   -1    0    0    0    0 -0.00000000000E+00 -0.00000000000E+00  0.00000000000E+00  0.93800000000E+00  0.93800000000E+00 0. -1.
         11    1    1    2    0    0 -0.30357053080E-01  0.13086258180E-01  0.22825621681E+00  0.23063816349E+00  0.51100000000E-03 0. -1.
    9000002    1    1    2    0    0  0.51501775789E+00 -0.23830385524E+00  0.22319013895E+00  0.11187894603E+01  0.93800000000E+00 0. -1.
         22    1    1    2    0    0 -0.48466070481E+00  0.22521759706E+00  0.35485536116E+01  0.35885723762E+01  0.00000000000E+00 0. -1.
</event>
<event>
 5    1  0.1560836E+002  0.1599531E+01  0.7818608E-02  0.3353873E+00
         11   -1    0    0    0    0  0.00000000000E+00  0.00000000000E+00  0.39999999674E+01  0.40000000000E+01  0.51100000000E-03 0.  1.
    9000002   -1    0    0    0    0 -0.00000000000E+00 -0.00000000000E+00  0.00000000000E+00  0.93800000000E+00  0.93800000000E+00 0.  1.
         11    1    1    2    0    0 -0.20356576455E+00 -0.23324343196E-01  0.14005769962E+01  0.14154855099E+01  0.51100000000E-03 0.  1.
    9000002    1    1    2    0    0  0.51852667545E+00  0.49060668332E-01  0.18650682632E+00  0.10889929562E+01  0.93800000000E+00 0.  1.
         22    1    1    2    0    0 -0.31496091090E+00 -0.25736325136E-01  0.24129161449E+01  0.24335215339E+01  0.00000000000E+00 0.  1.
</event>
<event>
 5    1  0.1560836E+002  0.1599668E+01  0.7818608E-02  0.3353724E+00
         11   -1    0    0    0    0  0.00000000000E+00  0.00000000000E+00  0.39999999674E+01  0.40000000000E+01  0.51100000000E-03 0.  1.
    9000002   -1    0    0    0    0 -0.00000000000E+00 -0.00000000000E+00  0.00000000000E+00  0.93800000000E+00  0.93800000000E+00 0.  1.
         11    1    1    2    0    0  0.18007188629E+00  0.25286768317E+00  0.22778489298E+01  0.22989049475E+01  0.51100000000E-03 0.  1.
    9000002    1    1    2    0    0 -0.29588754926E+00 -0.42514138598E+00  0.18423867384E+00  0.10872361881E+01  0.93800000000E+00 0.  1.
         22    1    1    2    0    0  0.11581566298E+00  0.17227370280E+00  0.15379123637E+01  0.15518588643E+01  0.00000000000E+00 0.  1.
</event>
<event>
 5    1  0.1560836E+002  0.1599675E+01  0.7818608E-02  0.3353717E+00
         11   -1    0    0    0    0  0.00000000000E+00  0.00000000000E+00  0.39999999674E+01  0.40000000000E+01  0.51100000000E-03 0. -1.
    9000002   -1    0    0    0    0 -0.00000000000E+00 -0.00000000000E+00  0.00000000000E+00  0.93800000000E+00  0.93800000000E+00 0. -1.
         11    1    1    2    0    0  0.18489643497E+00  0.20989755095E-01  0.18381902470E+01  0.18475851554E+01  0.51100000000E-03 0. -1.
    9000002    1    1    2    0    0 -0.39284151204E+00 -0.40736171356E-01  0.10514845852E+00  0.10231735374E+01  0.93800000000E+00 0. -1.
         22    1    1    2    0    0  0.20794507707E+00  0.19746416261E-01  0.20566612619E+01  0.20672413072E+01  0.00000000000E+00 0. -1.
</event>
<event>
 5    1  0.1560836E+002  0.1596882E+01  0.7818608E-02  0.3356754E+00
         11   -1    0    0    0    0  0.00000000000E+00  0.00000000000E+00  0.39999999674E+01  0.40000000000E+01  0.51100000000E-03 0.  1.
    9000002   -1    0    0    0    0 -0.00000000000E+00 -0.00000000000E+00  0.00000000000E+00  0.93800000000E+00  0.93800000000E+00 0. -1.
         11    1    1    2    0    0 -0.22607167876E-01  0.76641604990E+00  0.17953302079E+01  0.19522078429E+01  0.51100000000E-03 0.  1.
    9000002    1    1    2    0    0  0.82093898264E-01 -0.11285140387E+01  0.11411284855E+01  0.18607260852E+01  0.93800000000E+00 0. -1.
         22    1    1    2    0    0 -0.59486730387E-01  0.36209798884E+00  0.10635412739E+01  0.11250660718E+01  0.00000000000E+00 0.  1.
</event>
<event>
 5    1  0.1560836E+002  0.1599589E+01  0.7818608E-02  0.3353810E+00
         11   -1    0    0    0    0  0.00000000000E+00  0.00000000000E+00  0.39999999674E+01  0.40000000000E+01  0.51100000000E-03 0.  1.
    9000002   -1    0    0    0    0 -0.00000000000E+00 -0.00000000000E+00  0.00000000000E+00  0.93800000000E+00  0.93800000000E+00 0.  1.
         11    1    1    2    0    0  0.11890970465E-01 -0.47385358850E-01  0.53288373515E+00  0.53511877534E+00  0.51100000000E-03 0.  1.
    9000002    1    1    2    0    0 -0.14393270904E+00  0.34399317040E+00  0.93549616118E-01  0.10137275061E+01  0.93800000000E+00 0.  1.
         22    1    1    2    0    0  0.13204173858E+00 -0.29660781155E+00  0.33735666161E+01  0.33891537185E+01  0.00000000000E+00 0.  1.
</event>
<event>
 5    1  0.1560836E+002  0.1597666E+01  0.7818608E-02  0.3355901E+00
         11   -1    0    0    0    0  0.00000000000E+00  0.00000000000E+00  0.39999999674E+01  0.40000000000E+01  0.51100000000E-03 0. -1.
    9000002   -1    0    0    0    0 -0.00000000000E+00 -0.00000000000E+00  0.00000000000E+00  0.93800000000E+00  0.93800000000E+00 0. -1.
         11    1    1    2    0    0  0.14062763862E-01 -0.33373203618E-01  0.96214627951E+00  0.96282773971E+00  0.51100000000E-03 0. -1.
    9000002    1    1    2    0    0 -0.82859238796E-01  0.32413839543E+00  0.76532770992E-01  0.99881560755E+00  0.93800000000E+00 0. -1.
         22    1    1    2    0    0  0.68796474934E-01 -0.29076519181E+00  0.29613209169E+01  0.29763566527E+01  0.00000000000E+00 0. -1.
</event>
<event>
 5    1  0.1560836E+002  0.1599458E+01  0.7818608E-02  0.3353952E+00
         11   -1    0    0    0    0  0.00000000000E+00  0.00000000000E+00  0.39999999674E+01  0.40000000000E+01  0.51100000000E-03 0.  1.
    9000002   -1    0    0    0    0 -0.00000000000E+00 -0.00000000000E+00  0.00000000000E+00  0.93800000000E+00  0.93800000000E+00 0.  1.
         11    1    1    2    0    0  0.55778262771E-02 -0.74292673222E-03  0.84533620197E-01  0.84722241181E-01  0.51100000000E-03 0.  1.
    9000002    1    1    2    0    0 -0.22843827107E+00  0.27136696457E+00  0.84587528413E-01  0.10063911382E+01  0.93800000000E+00 0.  1.
         22    1    1    2    0    0  0.22286044479E+00 -0.27062403784E+00  0.38308788187E+01  0.38468866206E+01  0.00000000000E+00 0.  1.
</event>
<event>
 5    1  0.1560836E+002  0.1599677E+01  0.7818608E-02  0.3353714E+00
         11   -1    0    0    0    0  0.00000000000E+00  0.00000000000E+00  0.39999999674E+01  0.40000000000E+01  0.51100000000E-03 0. -1.
    9000002   -1    0    0    0    0 -0.00000000000E+00 -0.00000000000E+00  0.00000000000E+00  0.93800000000E+00  0.93800000000E+00 0.  1.
         11    1    1    2    0    0  0.16039701697E+00 -0.58818573506E-01  0.17558610650E+01  0.17641528189E+01  0.51100000000E-03 0.  1.
    9000002    1    1    2    0    0 -0.35659207862E+00  0.13006193915E+00  0.96933799807E-01  0.10165206245E+01  0.93800000000E+00 0.  1.
         22    1    1    2    0    0  0.19619506165E+00 -0.71243365640E-01  0.21472051026E+01  0.21573265566E+01  0.00000000000E+00 0. -1.
</event>
<event>
 5    1  0.1560836E+002  0.1599640E+01  0.7818608E-02  0.3353754E+00
         11   -1    0    0    0    0  0.00000000000E+00  0.00000000000E+00  0.39999999674E+01  0.40000000000E+01  0.51100000000E-03 0. -1.
    9000002   -1    0    0    0    0 -0.00000000000E+00 -0.00000000000E+00  0.00000000000E+00  0.93800000000E+00  0.93800000000E+00 0. -1.
         11    1    1    2    0    0 -0.98096117835E-02  0.11838845424E-01  0.26301260758E+00  0.26346210280E+00  0.51100000000E-03 0. -1.
    9000002    1    1    2    0    0  0.17351646831E+00 -0.22505272849E+00  0.53825215589E-01  0.98157926283E+00  0.93800000000E+00 0. -1.
         22    1    1    2    0    0 -0.16370685653E+00  0.21321388307E+00  0.36831621442E+01  0.36929586344E+01  0.00000000000E+00 0.  1.
</event>
<event>
 5    1  0.1560836E+002  0.1402610E+01  0.7818608E-02  0.3602700E+00
         11   -1    0    0    0    0  0.00000000000E+00  0.00000000000E+00  0.39999999674E+01  0.40000000000E+01  0.51100000000E-03 0.  1.
    9000002   -1    0    0    0    0 -0.00000000000E+00 -0.00000000000E+00  0.00000000000E+00  0.93800000000E+00  0.93800000000E+00 0.  1.
         11    1    1    2    0    0  0.52040645874E+00  0.13615112165E+00  0.14928257169E+01  0.15867857109E+01  0.51100000000E-03 0.  1.
    9000002    1    1    2    0    0 -0.36608515046E-01 -0.21121755022E-01  0.16067511564E+00  0.95260002346E+00  0.93800000000E+00 0.  1.
         22    1    1    2    0    0 -0.48379794369E+00 -0.11502936663E+00  0.23464991349E+01  0.23986142657E+01  0.00000000000E+00 0. -1.
</event>
<event>
 5    1  0.1560836E+002  0.1599574E+01  0.7818608E-02  0.3353826E+00
         11   -1    0    0    0    0  0.00000000000E+00  0.00000000000E+00  0.39999999674E+01  0.40000000000E+01  0.51100000000E-03 0.  1.
    9000002   -1    0    0    0    0 -0.00000000000E+00 -0.00000000000E+00  0.00000000000E+00  0.93800000000E+00  0.93800000000E+00 0. -1.
         11    1    1    2    0    0  0.84423790070E-01  0.89142020696E-01  0.89502406716E+00  0.90340578817E+00  0.51100000000E-03 0.  1.
    9000002    1    1    2    0    0 -0.32015963298E+00 -0.36685514584E+00  0.16203942075E+00  0.10691986076E+01  0.93800000000E+00 0. -1.
         22    1    1    2    0    0  0.23573584291E+00  0.27771312515E+00  0.29429364794E+01  0.29653956042E+01  0.00000000000E+00 0. -1.
</event>
<event>
 5    1  0.1560836E+002  0.1599677E+01  0.7818608E-02  0.3353714E+00
         11   -1    0    0    0    0  0.00000000000E+00  0.00000000000E+00  0.39999999674E+01  0.40000000000E+01  0.51100000000E-03 0. -1.
    9000002   -1    0    0    0    0 -0.00000000000E+00 -0.00000000000E+00  0.00000000000E+00  0.93800000000E+00  0.93800000000E+00 0. -1.
         11    1    1    2    0    0  0.31615866680E-01 -0.36847282823E-01  0.69096907546E+00  0.69267294566E+00  0.51100000000E-03 0. -1.
    9000002    1    1    2    0    0 -0.18091833620E+00  0.21243247812E+00  0.51843419536E-01  0.97999527666E+00  0.93800000000E+00 0. -1.
         22    1    1    2    0    0  0.14930246952E+00 -0.17558519530E+00  0.32571874724E+01  0.32653317777E+01  0.00000000000E+00 0. -1.
</event>
<event>
 5    1  0.1560836E+002  0.1599674E+01  0.7818608E-02  0.3353717E+00
         11   -1    0    0    0    0  0.00000000000E+00  0.00000000000E+00  0.39999999674E+01  0.40000000000E+01  0.51100000000E-03 0. -1.
    9000002   -1    0    0    0    0 -0.00000000000E+00 -0.00000000000E+00  0.00000000000E+00  0.93800000000E+00  0.93800000000E+00 0.  1.
         11    1    1    2    0    0 -0.47091852038E-01  0.14805732872E-01  0.54052551759E+00  0.54277522838E+00  0.51100000000E-03 0. -1.
    9000002    1    1    2    0    0  0.33452541074E+00 -0.10004161786E+00  0.81740501638E-01  0.10042116736E+01  0.93800000000E+00 0.  1.
         22    1    1    2    0    0 -0.28743355871E+00  0.85235884985E-01  0.33777339481E+01  0.33910130980E+01  0.00000000000E+00 0. -1.
</event>
<event>
 5    1  0.1560836E+002  0.1588522E+01  0.7818608E-02  0.3365916E+00
         11   -1    0    0    0    0  0.00000000000E+00  0.00000000000E+00  0.39999999674E+01  0.40000000000E+01  0.51100000000E-03 0.  1.
    9000002   -1    0    0    0    0 -0.00000000000E+00 -0.00000000000E+00  0.00000000000E+00  0.93800000000E+00  0.93800000000E+00 0.  1.
         11    1    1    2    0    0 -0.87788603713E-02  0.96004271543E-02  0.21910749283E+01  0.21911136070E+01  0.51100000000E-03 0.  1.
    9000002    1    1    2    0    0  0.15259832516E+00 -0.20003545013E+00  0.50634669233E-01  0.97247534667E+00  0.93800000000E+00 0.  1.
         22    1    1    2    0    0 -0.14381946479E+00  0.19043502298E+00  0.17582903699E+01  0.17744110463E+01  0.00000000000E+00 0. -1.
</event>
<event>
 5    1  0.1560836E+002  0.1599594E+01  0.7818608E-02  0.3353805E+00
         11   -1    0    0    0    0  0.00000000000E+00  0.00000000000E+00  0.39999999674E+01  0.40000000000E+01  0.51100000000E-03 0.  1.
    9000002   -1    0    0    0    0 -0.00000000000E+00 -0.00000000000E+00  0.00000000000E+00  0.93800000000E+00  0.93800000000E+00 0.  1.
         11    1    1    2    0    0 -0.32418388452E-01 -0.17426110714E-01  0.38587639587E+00  0.38762801145E+00  0.51100000000E-03 0.  1.
    9000002    1    1    2    0    0  0.26754114035E+00  0.15606417165E+00  0.64123522163E-01  0.98989399107E+00  0.93800000000E+00 0.  1.
         22    1    1    2    0    0 -0.23512275190E+00 -0.13863806093E+00  0.35500000493E+01  0.35604779975E+01  0.00000000000E+00 0.  1.
</event>
<event>
 5    1  0.1560836E+002  0.1599675E+01  0.7818608E-02  0.3353717E+00
         11   -1    0    0    0    0  0.00000000000E+00  0.00000000000E+00  0.39999999674E+01  0.40000000000E+01  0.51100000000E-03 0.  1.
    9000002   -1    0    0    0    0 -0.00000000000E+00 -0.00000000000E+00  0.00000000000E+00  0.93800000000E+00  0.93800000000E+00 0.  1.
         11    1    1    2    0    0 -0.16449158958E-01  0.31400085554E-01  0.38527446246E+00  0.38690207127E+00  0.51100000000E-03 0.  1.
    9000002    1    1    2    0    0  0.17710433267E+00 -0.31617226972E+00  0.88183497423E-01  0.10094311160E+01  0.93800000000E+00 0.  1.
         22    1    1    2    0    0 -0.16065517371E+00  0.28477218417E+00  0.35265420075E+01  0.35416668127E+01  0.00000000000E+00 0.  1.
</event>
<event>
 5    1  0.1560836E+002  0.1599407E+01  0.7818608E-02  0.3354007E+00
         11   -1    0    0    0    0  0.00000000000E+00  0.00000000000E+00  0.39999999674E+01  0.40000000000E+01  0.51100000000E-03 0.  1.
    9000002   -1    0    0    0    0 -0.00000000000E+00 -0.00000000000E+00  0.00000000000E+00  0.93800000000E+00  0.93800000000E+00 0.  1.
         11    1    1    2    0    0  0.34223717079E-03 -0.31354831357E-02  0.12913749057E-01  0.13303173173E-01  0.51100000000E-03 0.  1.
    9000002    1    1    2    0    0 -0.15702558661E+00  0.27717775820E+00  0.68036135455E-01  0.99295390639E+00  0.93800000000E+00 0.  1.
         22    1    1    2    0    0  0.15668334944E+00 -0.27404227507E+00  0.39190500828E+01  0.39317429204E+01  0.00000000000E+00 0.  1.
</event>
<event>
 5    1  0.1560836E+002  0.1568530E+01  0.7818608E-02  0.3388244E+00
         11   -1    0    0    0    0  0.00000000000E+00  0.00000000000E+00  0.39999999674E+01  0.40000000000E+01  0.51100000000E-03 0.  1.
    9000002   -1    0    0    0    0 -0.00000000000E+00 -0.00000000000E+00  0.00000000000E+00  0.93800000000E+00  0.93800000000E+00 0.  1.
         11    1    1    2    0    0 -0.64383364126E-02 -0.43306576052E-02  0.23851388438E+01  0.23851515197E+01  0.51100000000E-03 0.  1.
    9000002    1    1    2    0    0  0.34638721546E+00  0.58259627147E-01  0.10827646162E+00  0.10074453232E+01  0.93800000000E+00 0.  1.
         22    1    1    2    0    0 -0.33994887905E+00 -0.53928969541E-01  0.15065846620E+01  0.15454031570E+01  0.00000000000E+00 0. -1.
</event>
<event>
 5    1  0.1560836E+002  0.1599643E+01  0.7818608E-02  0.3353751E+00
         11   -1    0    0    0    0  0.00000000000E+00  0.00000000000E+00  0.39999999674E+01  0.40000000000E+01  0.51100000000E-03 0. -1.
    9000002   -1    0    0    0    0 -0.00000000000E+00 -0.00000000000E+00  0.00000000000E+00  0.93800000000E+00  0.93800000000E+00 0.  1.
         11    1    1    2    0    0 -0.78388915105E-01  0.16107124369E+00  0.18592695063E+01  0.18678790447E+01  0.51100000000E-03 0. -1.
    9000002    1    1    2    0    0  0.15904910671E+00 -0.35159956616E+00  0.10029894529E+00  0.10192265458E+01  0.93800000000E+00 0.  1.
         22    1    1    2    0    0 -0.80660191601E-01  0.19052832248E+00  0.20404315158E+01  0.20508944094E+01  0.00000000000E+00 0. -1.
</event>
<event>
 5    1  0.1560836E+002  0.1596970E+01  0.7818608E-02  0.3356659E+00
         11   -1    0    0    0    0  0.00000000000E+00  0.00000000000E+00  0.39999999674E+01  0.40000000000E+01  0.51100000000E-03 0.  1.
    9000002   -1    0    0    0    0 -0.00000000000E+00 -0.00000000000E+00  0.00000000000E+00  0.93800000000E+00  0.93800000000E+00 0. -1.
         11    1    1    2    0    0 -0.12765042542E+00  0.29260867531E-01  0.18323020337E+01  0.18369762746E+01  0.51100000000E-03 0.  1.
    9000002    1    1    2    0    0  0.29819209078E+00 -0.19369471540E+00  0.87019976366E-01  0.10069024988E+01  0.93800000000E+00 0. -1.
         22    1    1    2    0    0 -0.17054166536E+00  0.16443384787E+00  0.20806779573E+01  0.20941212266E+01  0.00000000000E+00 0.  1.
</event>
<event>
 5    1  0.1560836E+002  0.1599673E+01  0.7818608E-02  0.3353718E+00
         11   -1    0    0    0    0  0.00000000000E+00  0.00000000000E+00  0.39999999674E+01  0.40000000000E+01  0.51100000000E-03 0.  1.
    9000002   -1    0    0    0    0 -0.00000000000E+00 -0.00000000000E+00  0.00000000000E+00  0.93800000000E+00  0.93800000000E+00 0. -1.
         11    1    1    2    0    0 -0.24745129912E-01  0.56338318073E-01  0.54969186926E+00  0.55312542862E+00  0.51100000000E-03 0.  1.
    9000002    1    1    2    0    0  0.16604886022E+00 -0.39037899813E+00  0.12178658158E+00  0.10366503546E+01  0.93800000000E+00 0. -1.
         22    1    1    2    0    0 -0.14130373031E+00  0.33404068006E+00  0.33285215165E+01  0.33482242168E+01  0.00000000000E+00 0.  1.
</event>
<event>
 5    1  0.1560836E+002  0.1599447E+01  0.7818608E-02  0.3353964E+00
         11   -1    0    0    0    0  0.00000000000E+00  0.00000000000E+00  0.39999999674E+01  0.40000000000E+01  0.51100000000E-03 0. -1.
    9000002   -1    0    0    0    0 -0.00000000000E+00 -0.00000000000E+00  0.00000000000E+00  0.93800000000E+00  0.93800000000E+00 0. -1.
         11    1    1    2    0    0 -0.21303504692E-01  0.55736953045E-02  0.31293097939E+00  0.31370521891E+00  0.51100000000E-03 0. -1.
    9000002    1    1    2    0    0  0.17883754813E+00 -0.15576168171E+00  0.37501961278E-01  0.96824323763E+00  0.93800000000E+00 0. -1.
         22    1    1    2    0    0 -0.15753404344E+00  0.15018798640E+00  0.36495670267E+01  0.36560515435E+01  0.00000000000E+00 0. -1.
</event>
<event>
 5    1  0.1560836E+002  0.1599662E+01  0.7818608E-02  0.3353731E+00
         11   -1    0    0    0    0  0.00000000000E+00  0.00000000000E+00  0.39999999674E+01  0.40000000000E+01  0.51100000000E-03 0.  1.
    9000002   -1    0    0    0    0 -0.00000000000E+00 -0.00000000000E+00  0.00000000000E+00  0.93800000000E+00  0.93800000000E+00 0. -1.
         11    1    1    2    0    0 -0.36715252573E-01 -0.36339454210E-02  0.58896687582E+00  0.59012156143E+00  0.51100000000E-03 0.  1.
    9000002    1    1    2    0    0  0.23796952572E+00  0.38635582061E-02  0.37606360611E-01  0.96845374728E+00  0.93800000000E+00 0. -1.
         22    1    1    2    0    0 -0.20125427315E+00 -0.22961278512E-03  0.33734267309E+01  0.33794246913E+01  0.00000000000E+00 0.  1.
</event>
<event>
 5    1  0.1560836E+002  0.1599556E+01  0.7818608E-02  0.3353846E+00
         11   -1    0    0    0    0  0.00000000000E+00  0.00000000000E+00  0.39999999674E+01  0.40000000000E+01  0.51100000000E-03 0.  1.
    9000002   -1    0    0    0    0 -0.00000000000E+00 -0.00000000000E+00  0.00000000000E+00  0.93800000000E+00  0.93800000000E+00 0.  1.
         11    1    1    2    0    0  0.61546194666E-01  0.15755134881E-01  0.74558167839E+00  0.74828367523E+00  0.51100000000E-03 0.  1.
    9000002    1    1    2    0    0 -0.27071682649E+00 -0.84876615872E-01  0.53712215543E-01  0.98143804805E+00  0.93800000000E+00 0.  1.
         22    1    1    2    0    0  0.20917063182E+00  0.69121480991E-01  0.32007060734E+01  0.32082782767E+01  0.00000000000E+00 0.  1.
</event>
<event>
 5    1  0.1560836E+002  0.1586579E+01  0.7818608E-02  0.3368060E+00
         11   -1    0    0    0    0  0.00000000000E+00  0.00000000000E+00  0.39999999674E+01  0.40000000000E+01  0.51100000000E-03 0. -1.
    9000002   -1    0    0    0    0 -0.00000000000E+00 -0.00000000000E+00  0.00000000000E+00  0.93800000000E+00  0.93800000000E+00 0. -1.
         11    1    1    2    0    0 -0.13868155306E-01  0.84125549955E-01  0.15528765318E+01  0.15552154893E+01  0.51100000000E-03 0. -1.
    9000002    1    1    2    0    0  0.66092817115E-01  0.12733965837E+00  0.23301169233E-01  0.94919470793E+00  0.93800000000E+00 0. -1.
         22    1    1    2    0    0 -0.52224661809E-01 -0.21146520833E+00  0.24238222663E+01  0.24335898028E+01  0.00000000000E+00 0. -1.
</event>
<event>
 5    1  0.1560836E+002  0.1599312E+01  0.7818608E-02  0.3354110E+00
         11   -1    0    0    0    0  0.00000000000E+00  0.00000000000E+00  0.39999999674E+01  0.40000000000E+01  0.51100000000E-03 0.  1.
    9000002   -1    0    0    0    0 -0.00000000000E+00 -0.00000000000E+00  0.00000000000E+00  0.93800000000E+00  0.93800000000E+00 0.  1.
         11    1    1    2    0    0 -0.68164858786E-01 -0.13974390750E+00  0.13941062191E+01  0.14027498775E+01  0.51100000000E-03 0.  1.
    9000002    1    1    2    0    0  0.18441206239E+00  0.32970037473E+00  0.96294418824E-01  0.10157887383E+01  0.93800000000E+00 0.  1.
         22    1    1    2    0    0 -0.11624720361E+00 -0.18995646723E+00  0.25095993294E+01  0.25194613841E+01  0.00000000000E+00 0.  1.
</event>
<event>
 5    1  0.1560836E+002  0.1599513E+01  0.7818608E-02  0.3353892E+00
         11   -1    0    0    0    0  0.00000000000E+00  0.00000000000E+00  0.39999999674E+01  0.40000000000E+01  0.51100000000E-03 0.  1.
    9000002   -1    0    0    0    0 -0.00000000000E+00 -0.00000000000E+00  0.00000000000E+00  0.93800000000E+00  0.93800000000E+00 0. -1.
         11    1    1    2    0    0  0.58072416662E-01  0.21440707296E-01  0.76429522676E+00  0.76679825526E+00  0.51100000000E-03 0.  1.
    9000002    1    1    2    0    0 -0.29864893918E+00 -0.47705007084E-01  0.61161119824E-01  0.98744703106E+00  0.93800000000E+00 0. -1.
         22    1    1    2    0    0  0.24057652252E+00  0.26264299788E-01  0.31745436208E+01  0.31837547137E+01  0.00000000000E+00 0.  1.
</event>
<event>
 5    1  0.1560836E+002  0.1598942E+01  0.7818608E-02  0.3354513E+00
         11   -1    0    0    0    0  0.00000000000E+00  0.00000000000E+00  0.39999999674E+01  0.40000000000E+01  0.51100000000E-03 0. -1.
    9000002   -1    0    0    0    0 -0.00000000000E+00 -0.00000000000E+00  0.00000000000E+00  0.93800000000E+00  0.93800000000E+00 0. -1.
         11    1    1    2    0    0  0.10169449836E+00  0.44423492219E-01  0.13138881121E+01  0.13185664374E+01  0.51100000000E-03 0. -1.
    9000002    1    1    2    0    0 -0.34259169679E+00 -0.49427138795E-01  0.80891926017E-01  0.10030950187E+01  0.93800000000E+00 0. -1.
         22    1    1    2    0    0  0.24089719842E+00  0.50036465755E-02  0.26052199293E+01  0.26163385440E+01  0.00000000000E+00 0. -1.
</event>
<event>
 5    1  0.1560836E+002  0.1599677E+01  0.7818608E-02  0.3353714E+00
         11   -1    0    0    0    0  0.00000000000E+00  0.00000000000E+00  0.39999999674E+01  0.40000000000E+01  0.51100000000E-03 0. -1.
    9000002   -1    0    0    0    0 -0.00000000000E+00 -0.00000000000E+00  0.00000000000E+00  0.93800000000E+00  0.93800000000E+00 0.  1.
         11    1    1    2    0    0 -0.26393509982E+00 -0.10462220495E+00  0.22484268462E+01  0.22662813343E+01  0.51100000000E-03 0. -1.
    9000002    1    1    2    0    0  0.45099715160E+00  0.17914987372E+00  0.16081760424E+00  0.10682693527E+01  0.93800000000E+00 0.  1.
         22    1    1    2    0    0 -0.18706205178E+00 -0.74527668770E-01  0.15907555170E+01  0.16034493130E+01  0.00000000000E+00 0.  1.
</event>
<event>
 5    1  0.1560836E+002  0.1599614E+01  0.7818608E-02  0.3353782E+00
         11   -1    0    0    0    0  0.00000000000E+00  0.00000000000E+00  0.39999999674E+01  0.40000000000E+01  0.51100000000E-03 0. -1.
    9000002   -1    0    0    0    0 -0.00000000000E+00 -0.00000000000E+00  0.00000000000E+00  0.93800000000E+00  0.93800000000E+00 0. -1.
         11    1    1    2    0    0 -0.24660582179E-01 -0.35073577032E-01  0.68504346806E+00  0.68638408663E+00  0.51100000000E-03 0. -1.
    9000002    1    1    2    0    0  0.17707352822E+00  0.22457836051E+00  0.54542990280E-01  0.98214531114E+00  0.93800000000E+00 0. -1.
         22    1    1    2    0    0 -0.15241294604E+00 -0.18950478347E+00  0.32604135090E+01  0.32694706022E+01  0.00000000000E+00 0. -1.
</event>
<event>
 5    1  0.1560836E+002  0.1599676E+01  0.7818608E-02  0.3353715E+00
         11   -1    0    0    0    0  0.00000000000E+00  0.00000000000E+00  0.39999999674E+01  0.40000000000E+01  0.51100000000E-03 0.  1.
    9000002   -1    0    0    0    0 -0.00000000000E+00 -0.00000000000E+00  0.00000000000E+00  0.93800000000E+00  0.93800000000E+00 0. -1.
         11    1    1    2    0    0 -0.27915357891E-01 -0.39316077016E-01  0.32202524771E+00  0.32561563599E+00  0.51100000000E-03 0.  1.
    9000002    1    1    2    0    0  0.32768335559E+00  0.45537101508E+00  0.21785282223E+00  0.11144698269E+01  0.93800000000E+00 0. -1.
         22    1    1    2    0    0 -0.29976799770E+00 -0.41605493806E+00  0.34601218974E+01  0.34979145371E+01  0.00000000000E+00 0.  1.
</event>
<event>
 5    1  0.1560836E+002  0.1530873E+01  0.7818608E-02  0.3431988E+00
         11   -1    0    0    0    0  0.00000000000E+00  0.00000000000E+00  0.39999999674E+01  0.40000000000E+01  0.51100000000E-03 0. -1.
    9000002   -1    0    0    0    0 -0.00000000000E+00 -0.00000000000E+00  0.00000000000E+00  0.93800000000E+00  0.93800000000E+00 0.  1.
         11    1    1    2    0    0 -0.15460054164E+00 -0.44648857228E-01  0.25913329127E+00  0.30503306655E+00  0.51100000000E-03 0. -1.
    9000002    1    1    2    0    0 -0.52289721850E-01  0.12414478066E+00  0.64382411539E-01  0.94980799980E+00  0.93800000000E+00 0.  1.
         22    1    1    2    0    0  0.20689026349E+00 -0.79495923428E-01  0.36764842646E+01  0.36831589336E+01  0.00000000000E+00 0. -1.
</event>
<event>
 5    1  0.1560836E+002  0.1599672E+01  0.7818608E-02  0.3353719E+00
         11   -1    0    0    0    0  0.00000000000E+00  0.00000000000E+00  0.39999999674E+01  0.40000000000E+01  0.51100000000E-03 0.  1.
    9000002   -1    0    0    0    0 -0.00000000000E+00 -0.00000000000E+00  0.00000000000E+00  0.93800000000E+00  0.93800000000E+00 0.  1.
         11    1    1    2    0    0  0.42994754085E-01  0.32615241232E+00  0.18626882259E+01  0.18915156972E+01  0.51100000000E-03 0.  1.
    9000002    1    1    2    0    0 -0.80924062510E-01 -0.64542393833E+00  0.29861385572E+00  0.11798877061E+01  0.93800000000E+00 0.  1.
         22    1    1    2    0    0  0.37929308425E-01  0.31927152601E+00  0.18386978858E+01  0.18665965967E+01  0.00000000000E+00 0.  1.
</event>
<event>
 5    1  0.1560836E+002  0.1599676E+01  0.7818608E-02  0.3353715E+00
         11   -1    0    0    0    0  0.00000000000E+00  0.00000000000E+00  0.39999999674E+01  0.40000000000E+01  0.51100000000E-03 0.  1.
    9000002   -1    0    0    0    0 -0.00000000000E+00 -0.00000000000E+00  0.00000000000E+00  0.93800000000E+00  0.93800000000E+00 0.  1.
         11    1    1    2    0    0  0.39498948123E-01  0.10059106670E+00  0.91740639374E+00  0.92374968579E+00  0.51100000000E-03 0.  1.
    9000002    1    1    2    0    0 -0.16875596828E+00 -0.42532027776E+00  0.14236605329E+00  0.10533223669E+01  0.93800000000E+00 0.  1.
         22    1    1    2    0    0  0.12925702015E+00  0.32472921106E+00  0.29402275203E+01  0.29609279473E+01  0.00000000000E+00 0.  1.
</event>
<event>
 5    1  0.1560836E+002  0.1598913E+01  0.7818608E-02  0.3354544E+00
         11   -1    0    0    0    0  0.00000000000E+00  0.00000000000E+00  0.39999999674E+01  0.40000000000E+01  0.51100000000E-03 0. -1.
    9000002   -1    0    0    0    0 -0.00000000000E+00 -0.00000000000E+00  0.00000000000E+00  0.93800000000E+00  0.93800000000E+00 0. -1.
         11    1    1    2    0    0 -0.15977472334E+00  0.36467614734E+00  0.17550997807E+01  0.17996922392E+01  0.51100000000E-03 0. -1.
    9000002    1    1    2    0    0  0.29322659577E+00 -0.68644671241E+00  0.40440880642E+00  0.12651408649E+01  0.93800000000E+00 0. -1.
         22    1    1    2    0    0 -0.13345187244E+00  0.32177056508E+00  0.18404913803E+01  0.18731668958E+01  0.00000000000E+00 0. -1.
</event>
<event>
 5    1  0.1560836E+002  0.1599676E+01  0.7818608E-02  0.3353715E+00
         11   -1    0    0    0    0  0.00000000000E+00  0.00000000000E+00  0.39999999674E+01  0.40000000000E+01  0.51100000000E-03 0.  1.
    9000002   -1    0    0    0    0 -0.00000000000E+00 -0.00000000000E+00  0.00000000000E+00  0.93800000000E+00  0.93800000000E+00 0.  1.
         11    1    1    2    0    0 -0.15112322366E+00 -0.91541044374E-01  0.11269002840E+01  0.11406675689E+01  0.51100000000E-03 0.  1.
    9000002    1    1    2    0    0  0.50514013221E+00  0.30140367840E+00  0.24081408688E+00  0.11330693513E+01  0.93800000000E+00 0.  1.
         22    1    1    2    0    0 -0.35401690855E+00 -0.20986263403E+00  0.26322855964E+01  0.26642630797E+01  0.00000000000E+00 0.  1.
</event>
<event>
 5    1  0.1560836E+002  0.1599632E+01  0.7818608E-02  0.3353763E+00
         11   -1    0    0    0    0  0.00000000000E+00  0.00000000000E+00  0.39999999674E+01  0.40000000000E+01  0.51100000000E-03 0.  1.
    9000002   -1    0    0    0    0 -0.00000000000E+00 -0.00000000000E+00  0.00000000000E+00  0.93800000000E+00  0.93800000000E+00 0.  1.
         11    1    1    2    0    0  0.43829517693E-02 -0.42351671317E-01  0.44987665288E+00  0.45188730704E+00  0.51100000000E-03 0.  1.
    9000002    1    1    2    0    0 -0.16935229982E-01  0.33018884795E+00  0.73178604756E-01  0.99725151568E+00  0.93800000000E+00 0.  1.
         22    1    1    2    0    0  0.12552278212E-01 -0.28783717663E+00  0.34769447097E+01  0.34888611773E+01  0.00000000000E+00 0.  1.
</event>
<event>
 5    1  0.1560836E+002  0.1599661E+01  0.7818608E-02  0.3353731E+00
         11   -1    0    0    0    0  0.00000000000E+00  0.00000000000E+00  0.39999999674E+01  0.40000000000E+01  0.51100000000E-03 0.  1.
    9000002   -1    0    0    0    0 -0.00000000000E+00 -0.00000000000E+00  0.00000000000E+00  0.93800000000E+00  0.93800000000E+00 0.  1.
         11    1    1    2    0    0  0.10997560234E-01 -0.12939406928E-01  0.23547005979E+00  0.23608215681E+00  0.51100000000E-03 0.  1.
    9000002    1    1    2    0    0 -0.16390822080E+00  0.24753880588E+00  0.58795412384E-01  0.98561770772E+00  0.93800000000E+00 0.  1.
         22    1    1    2    0    0  0.15291066057E+00 -0.23459939895E+00  0.37057344952E+01  0.37163001355E+01  0.00000000000E+00 0.  1.
</event>
<event>
 5    1  0.1560836E+002  0.1599677E+01  0.7818608E-02  0.3353714E+00
         11   -1    0    0    0    0  0.00000000000E+00  0.00000000000E+00  0.39999999674E+01  0.40000000000E+01  0.51100000000E-03 0.  1.
    9000002   -1    0    0    0    0 -0.00000000000E+00 -0.00000000000E+00  0.00000000000E+00  0.93800000000E+00  0.93800000000E+00 0. -1.
         11    1    1    2    0    0 -0.73035966467E-01 -0.16877483574E-01  0.82361339788E+00  0.82701777015E+00  0.51100000000E-03 0. -1.
    9000002    1    1    2    0    0  0.34640706820E+00  0.81686647636E-01  0.84989984652E-01  0.10068455010E+01  0.93800000000E+00 0. -1.
         22    1    1    2    0    0 -0.27337110174E+00 -0.64809164062E-01  0.30913965848E+01  0.31041367289E+01  0.00000000000E+00 0.  1.
</event>
<event>
 5    1  0.1560836E+002  0.1599671E+01  0.7818608E-02  0.3353720E+00
         11   -1    0    0    0    0  0.00000000000E+00  0.00000000000E+00  0.39999999674E+01  0.40000000000E+01  0.51100000000E-03 0.  1.
    9000002   -1    0    0    0    0 -0.00000000000E+00 -0.00000000000E+00  0.00000000000E+00  0.93800000000E+00  0.93800000000E+00 0.  1.
         11    1    1    2    0    0  0.22697684451E-01  0.74586307552E-01  0.95545740895E+00  0.95863310165E+00  0.51100000000E-03 0.  1.
    9000002    1    1    2    0    0 -0.84539997864E-01 -0.30239133024E+00  0.65861268408E-01  0.99134718163E+00  0.93800000000E+00 0.  1.
         22    1    1    2    0    0  0.61842313413E-01  0.22780502268E+00  0.29786812900E+01  0.29880197167E+01  0.00000000000E+00 0.  1.
</event>
<event>
 5    1  0.1560836E+002  0.1599677E+01  0.7818608E-02  0.3353714E+00
         11   -1    0    0    0    0  0.00000000000E+00  0.00000000000E+00  0.39999999674E+01  0.40000000000E+01  0.51100000000E-03 0. -1.
    9000002   -1    0    0    0    0 -0.00000000000E+00 -0.00000000000E+00  0.00000000000E+00  0.93800000000E+00  0.93800000000E+00 0.  1.
         11    1    1    2    0    0 -0.45327465434E+00 -0.13251753691E+00  0.22316961090E+01  0.22811152084E+01  0.51100000000E-03 0. -1.
    9000002    1    1    2    0    0  0.72718826459E+00  0.21274880672E+00  0.41713098872E+00  0.12758946229E+01  0.93800000000E+00 0.  1.
         22    1    1    2    0    0 -0.27391361025E+00 -0.80231269817E-01  0.13511728696E+01  0.13809901687E+01  0.00000000000E+00 0. -1.
</event>
<event>
 5    1  0.1560836E+002  0.1599677E+01  0.7818608E-02  0.3353714E+00
         11   -1    0    0    0    0  0.00000000000E+00  0.00000000000E+00  0.39999999674E+01  0.40000000000E+01  0.51100000000E-03 0. -1.
    9000002   -1    0    0    0    0 -0.00000000000E+00 -0.00000000000E+00  0.00000000000E+00  0.93800000000E+00  0.93800000000E+00 0.  1.
         11    1    1    2    0    0 -0.15113203776E+00 -0.38716671426E-01  0.14561882260E+01  0.14645218619E+01  0.51100000000E-03 0. -1.
    9000002    1    1    2    0    0  0.40133134745E+00  0.10274803627E+00  0.11598084425E+00  0.10319494007E+01  0.93800000000E+00 0.  1.
         22    1    1    2    0    0 -0.25019930969E+00 -0.64031364846E-01  0.24278308971E+01  0.24415287374E+01  0.00000000000E+00 0. -1.
</event>
<event>
 5    1  0.1560836E+002  0.1593320E+01  0.7818608E-02  0.3360645E+00
         11   -1    0    0    0    0  0.00000000000E+00  0.00000000000E+00  0.39999999674E+01  0.40000000000E+01  0.51100000000E-03 0.  1.
    9000002   -1    0    0    0    0 -0.00000000000E+00 -0.00000000000E+00  0.00000000000E+00  0.93800000000E+00  0.93800000000E+00 0.  1.
         11    1    1    2    0    0 -0.31904491778E-01  0.21686796106E-01  0.11850273735E+00  0.12462493170E+00  0.51100000000E-03 0.  1.
    9000002    1    1    2    0    0  0.77548133480E-01 -0.22121644290E+00  0.41302623338E-01  0.96772947372E+00  0.93800000000E+00 0.  1.
         22    1    1    2    0    0 -0.45643641702E-01  0.19952964680E+00  0.38401946067E+01  0.38456455946E+01  0.00000000000E+00 0.  1.
</event>
<event>
 5    1  0.1560836E+002  0.1599600E+01  0.7818608E-02  0.3353797E+00
         11   -1    0    0    0    0  0.00000000000E+00  0.00000000000E+00  0.39999999674E+01  0.40000000000E+01  0.51100000000E-03 0. -1.
    9000002   -1    0    0    0    0 -0.00000000000E+00 -0.00000000000E+00  0.00000000000E+00  0.93800000000E+00  0.93800000000E+00 0. -1.
         11    1    1    2    0    0  0.37592118172E-01 -0.14301507979E-01  0.42962233428E+00  0.43150123026E+00  0.51100000000E-03 0. -1.
    9000002    1    1    2    0    0 -0.28425276506E+00  0.12584743332E+00  0.64594805667E-01  0.99027960690E+00  0.93800000000E+00 0. -1.
         22    1    1    2    0    0  0.24666064689E+00 -0.11154592534E+00  0.35057828274E+01  0.35162191628E+01  0.00000000000E+00 0. -1.
</event>
<event>
 5    1  0.1560836E+002  0.1594285E+01  0.7818608E-02  0.3359590E+00
         11   -1    0    0    0    0  0.00000000000E+00  0.00000000000E+00  0.39999999674E+01  0.40000000000E+01  0.51100000000E-03 0.  1.
    9000002   -1    0    0    0    0 -0.00000000000E+00 -0.00000000000E+00  0.00000000000E+00  0.93800000000E+00  0.93800000000E+00 0. -1.
         11    1    1    2    0    0  0.49364490226E-01 -0.26314898330E-01  0.11917753130E+01  0.11930875846E+01  0.51100000000E-03 0.  1.
    9000002    1    1    2    0    0 -0.12719641450E+00 -0.17948767732E+00  0.36160578156E-01  0.96412983648E+00  0.93800000000E+00 0. -1.
         22    1    1    2    0    0  0.77831924271E-01  0.20580257565E+00  0.27720640762E+01  0.27807825789E+01  0.00000000000E+00 0.  1.
</event>
<event>
 5    1  0.1560836E+002  0.1599644E+01  0.7818608E-02  0.3353750E+00
         11   -1    0    0    0    0  0.00000000000E+00  0.00000000000E+00  0.39999999674E+01  0.40000000000E+01  0.51100000000E-03 0.  1.
    9000002   -1    0    0    0    0 -0.00000000000E+00 -0.00000000000E+00  0.00000000000E+00  0.93800000000E+00  0.93800000000E+00 0. -1.
         11    1    1    2    0    0  0.11556910200E-02 -0.10180847202E-01  0.16433406228E+00  0.16465397176E+00  0.51100000000E-03 0.  1.
    9000002    1    1    2    0    0  0.31920648275E-01  0.21957861767E+00  0.32664041399E-01  0.96444006383E+00  0.93800000000E+00 0. -1.
         22    1    1    2    0    0 -0.33076339295E-01 -0.20939777047E+00  0.38030018637E+01  0.38089059644E+01  0.00000000000E+00 0.  1.
</event>
<event>
 5    1  0.1560836E+002  0.1477839E+01  0.7818608E-02  0.3497652E+00
         11   -1    0    0    0    0  0.00000000000E+00  0.00000000000E+00  0.39999999674E+01  0.40000000000E+01  0.51100000000E-03 0.  1.
    9000002   -1    0    0    0    0 -0.00000000000E+00 -0.00000000000E+00  0.00000000000E+00  0.93800000000E+00  0.93800000000E+00 0.  1.
         11    1    1    2    0    0  0.88724952805E-01 -0.47280393282E+00  0.16355678558E+01  0.17048454910E+01  0.51100000000E-03 0.  1.
    9000002    1    1    2    0    0  0.33935729034E-01  0.16616587155E+00  0.11559068162E+00  0.96019161434E+00  0.93800000000E+00 0.  1.
         22    1    1    2    0    0 -0.12266068184E+00  0.30663806127E+00  0.22488414300E+01  0.22729628947E+01  0.00000000000E+00 0. -1.
</event>
<event>
 5    1  0.1560836E+002  0.1595375E+01  0.7818608E-02  0.3358399E+00
         11   -1    0    0    0    0  0.00000000000E+00  0.00000000000E+00  0.39999999674E+01  0.40000000000E+01  0.51100000000E-03 0.  1.
    9000002   -1    0    0    0    0 -0.00000000000E+00 -0.00000000000E+00  0.00000000000E+00  0.93800000000E+00  0.93800000000E+00 0. -1.
         11    1    1    2    0    0  0.31063344476E+00 -0.70631873828E+00  0.23916363296E+01  0.25130268385E+01  0.51100000000E-03 0.  1.
    9000002    1    1    2    0    0 -0.49064861840E+00  0.91439505715E+00  0.89563580158E+00  0.16609822023E+01  0.93800000000E+00 0. -1.
         22    1    1    2    0    0  0.18001517364E+00 -0.20807631886E+00  0.71272783620E+00  0.76399095918E+00  0.00000000000E+00 0.  1.
</event>
<event>
 5    1  0.1560836E+002  0.1593457E+01  0.7818608E-02  0.3360496E+00
         11   -1    0    0    0    0  0.00000000000E+00  0.00000000000E+00  0.39999999674E+01  0.40000000000E+01  0.51100000000E-03 0. -1.
    9000002   -1    0    0    0    0 -0.00000000000E+00 -0.00000000000E+00  0.00000000000E+00  0.93800000000E+00  0.93800000000E+00 0.  1.
         11    1    1    2    0    0  0.29838787712E+00  0.16151051498E+00  0.24206299666E+01  0.24442934906E+01  0.51100000000E-03 0. -1.
    9000002    1    1    2    0    0 -0.54272745308E+00 -0.13229057891E+00  0.22183794405E+00  0.11140511474E+01  0.93800000000E+00 0.  1.
         22    1    1    2    0    0  0.24433957595E+00 -0.29219936070E-01  0.13575320567E+01  0.13796553620E+01  0.00000000000E+00 0. -1.
</event>
<event>
 5    1  0.1560836E+002  0.1586484E+01  0.7818608E-02  0.3368165E+00
         11   -1    0    0    0    0  0.00000000000E+00  0.00000000000E+00  0.39999999674E+01  0.40000000000E+01  0.51100000000E-03 0.  1.
    9000002   -1    0    0    0    0 -0.00000000000E+00 -0.00000000000E+00  0.00000000000E+00  0.93800000000E+00  0.93800000000E+00 0. -1.
         11    1    1    2    0    0 -0.94327283067E-02 -0.11291853564E+00  0.35143824135E+00  0.36925420872E+00  0.51100000000E-03 0.  1.
    9000002    1    1    2    0    0 -0.40196135209E-01  0.36953896840E+00  0.10372587364E+00  0.10142868605E+01  0.93800000000E+00 0. -1.
         22    1    1    2    0    0  0.49628863516E-01 -0.25662043276E+00  0.35448358524E+01  0.35544589308E+01  0.00000000000E+00 0.  1.
</event>
<event>
 5    1  0.1560836E+002  0.1598864E+01  0.7818608E-02  0.3354597E+00
         11   -1    0    0    0    0  0.00000000000E+00  0.00000000000E+00  0.39999999674E+01  0.40000000000E+01  0.51100000000E-03 0.  1.
    9000002   -1    0    0    0    0 -0.00000000000E+00 -0.00000000000E+00  0.00000000000E+00  0.93800000000E+00  0.93800000000E+00 0. -1.
         11    1    1    2    0    0  0.23611451382E+00  0.20599301349E+00  0.21627373102E+01  0.21853183108E+01  0.51100000000E-03 0.  1.
    9000002    1    1    2    0    0 -0.35817946660E+00 -0.37838051993E+00  0.18725349631E+00  0.10892071520E+01  0.93800000000E+00 0. -1.
         22    1    1    2    0    0  0.12206495279E+00  0.17238750644E+00  0.16500091608E+01  0.16634745372E+01  0.00000000000E+00 0.  1.
</event>
<event>
 5    1  0.1560836E+002  0.1598604E+01  0.7818608E-02  0.3354880E+00
         11   -1    0    0    0    0  0.00000000000E+00  0.00000000000E+00  0.39999999674E+01  0.40000000000E+01  0.51100000000E-03 0. -1.
    9000002   -1    0    0    0    0 -0.00000000000E+00 -0.00000000000E+00  0.00000000000E+00  0.93800000000E+00  0.93800000000E+00 0.  1.
         11    1    1    2    0    0  0.76786913231E-01 -0.11380041362E+00  0.17815560259E+01  0.17868376812E+01  0.51100000000E-03 0. -1.
    9000002    1    1    2    0    0 -0.18238190273E+00  0.33438580586E+00  0.98506041558E-01  0.10171649157E+01  0.93800000000E+00 0.  1.
         22    1    1    2    0    0  0.10559498950E+00 -0.22058539224E+00  0.21199378999E+01  0.21339974031E+01  0.00000000000E+00 0.  1.
</event>
<event>
 5    1  0.1560836E+002  0.1599233E+01  0.7818608E-02  0.3354197E+00
         11   -1    0    0    0    0  0.00000000000E+00  0.00000000000E+00  0.39999999674E+01  0.40000000000E+01  0.51100000000E-03 0. -1.
    9000002   -1    0    0    0    0 -0.00000000000E+00 -0.00000000000E+00  0.00000000000E+00  0.93800000000E+00  0.93800000000E+00 0.  1.
         11    1    1    2    0    0  0.16316098339E-01 -0.75257441385E-01  0.79752500343E+00  0.80123422903E+00  0.51100000000E-03 0. -1.
    9000002    1    1    2    0    0 -0.69045086405E-01  0.27203672989E+00  0.52802446171E-01  0.98051175653E+00  0.93800000000E+00 0.  1.
         22    1    1    2    0    0  0.52728988066E-01 -0.19677928851E+00  0.31496725178E+01  0.31562540144E+01  0.00000000000E+00 0. -1.
</event>
<event>
 5    1  0.1560836E+002  0.1599676E+01  0.7818608E-02  0.3353715E+00
         11   -1    0    0    0    0  0.00000000000E+00  0.00000000000E+00  0.39999999674E+01  0.40000000000E+01  0.51100000000E-03 0. -1.
    9000002   -1    0    0    0    0 -0.00000000000E+00 -0.00000000000E+00  0.00000000000E+00  0.93800000000E+00  0.93800000000E+00 0.  1.
         11    1    1    2    0    0  0.10757436376E+00  0.61181069647E-01  0.13189415156E+01  0.13247348224E+01  0.51100000000E-03 0.  1.
    9000002    1    1    2    0    0 -0.32247360058E+00 -0.18109498702E+00  0.91923865930E-01  0.10124616608E+01  0.93800000000E+00 0.  1.
         22    1    1    2    0    0  0.21489923682E+00  0.11991391738E+00  0.25891345859E+01  0.26008035168E+01  0.00000000000E+00 0. -1.
</event>
<event>
 5    1  0.1560836E+002  0.1599253E+01  0.7818608E-02  0.3354174E+00
         11   -1    0    0    0    0  0.00000000000E+00  0.00000000000E+00  0.39999999674E+01  0.40000000000E+01  0.51100000000E-03 0. -1.
    9000002   -1    0    0    0    0 -0.00000000000E+00 -0.00000000000E+00  0.00000000000E+00  0.93800000000E+00  0.93800000000E+00 0. -1.
         11    1    1    2    0    0 -0.17781257725E-02  0.70743058904E-03  0.10578600432E-01  0.10762439194E-01  0.51100000000E-03 0.  1.
    9000002    1    1    2    0    0 -0.26152137503E+00 -0.10579202477E+00  0.53335595999E-01  0.98095569110E+00  0.93800000000E+00 0. -1.
         22    1    1    2    0    0  0.26329950080E+00  0.10508459418E+00  0.39360857709E+01  0.39462818697E+01  0.00000000000E+00 0. -1.
</event>
<event>
 5    1  0.1560836E+002  0.1594665E+01  0.7818608E-02  0.3359174E+00
         11   -1    0    0    0    0  0.00000000000E+00  0.00000000000E+00  0.39999999674E+01  0.40000000000E+01  0.51100000000E-03 0.  1.
    9000002   -1    0    0    0    0 -0.00000000000E+00 -0.00000000000E+00  0.00000000000E+00  0.93800000000E+00  0.93800000000E+00 0. -1.
         11    1    1    2    0    0  0.23430072184E+00 -0.31716424740E-01  0.12836310535E+01  0.13052247708E+01  0.51100000000E-03 0.  1.
    9000002    1    1    2    0    0 -0.48581816925E+00  0.21297316112E+00  0.19830030095E+00  0.10956933286E+01  0.93800000000E+00 0. -1.
         22    1    1    2    0    0  0.25151744741E+00 -0.18125673638E+00  0.25180686129E+01  0.25370819006E+01  0.00000000000E+00 0.  1.
</event>
<event>
 5    1  0.1560836E+002  0.1599449E+01  0.7818608E-02  0.3353961E+00
         11   -1    0    0    0    0  0.00000000000E+00  0.00000000000E+00  0.39999999674E+01  0.40000000000E+01  0.51100000000E-03 0. -1.
    9000002   -1    0    0    0    0 -0.00000000000E+00 -0.00000000000E+00  0.00000000000E+00  0.93800000000E+00  0.93800000000E+00 0.  1.
         11    1    1    2    0    0  0.25054196590E-01  0.62803497115E-01  0.11764255741E+01  0.11783672536E+01  0.51100000000E-03 0. -1.
    9000002    1    1    2    0    0 -0.10959725385E+00 -0.26033015149E+00  0.53316857913E-01  0.98105557089E+00  0.93800000000E+00 0.  1.
         22    1    1    2    0    0  0.84543057262E-01  0.19752665438E+00  0.27702575354E+01  0.27785771755E+01  0.00000000000E+00 0.  1.
</event>
<event>
 5    1  0.1560836E+002  0.1597501E+01  0.7818608E-02  0.3356080E+00
         11   -1    0    0    0    0  0.00000000000E+00  0.00000000000E+00  0.39999999674E+01  0.40000000000E+01  0.51100000000E-03 0. -1.
    9000002   -1    0    0    0    0 -0.00000000000E+00 -0.00000000000E+00  0.00000000000E+00  0.93800000000E+00  0.93800000000E+00 0. -1.
         11    1    1    2    0    0 -0.85211092512E-01 -0.14272053489E+00  0.11977220461E+01  0.12092015722E+01  0.51100000000E-03 0. -1.
    9000002    1    1    2    0    0  0.26110949117E+00  0.29553993439E+00  0.10663290143E+00  0.10231014587E+01  0.93800000000E+00 0. -1.
         22    1    1    2    0    0 -0.17589839866E+00 -0.15281939950E+00  0.26956450199E+01  0.27056969691E+01  0.00000000000E+00 0. -1.
</event>
<event>
 5    1  0.1560836E+002  0.1583383E+01  0.7818608E-02  0.3371599E+00
         11   -1    0    0    0    0  0.00000000000E+00  0.00000000000E+00  0.39999999674E+01  0.40000000000E+01  0.51100000000E-03 0. -1.
    9000002   -1    0    0    0    0 -0.00000000000E+00 -0.00000000000E+00  0.00000000000E+00  0.93800000000E+00  0.93800000000E+00 0.  1.
         11    1    1    2    0    0 -0.83677668433E-01 -0.96681803388E-02  0.20677026663E+01  0.20694177933E+01  0.51100000000E-03 0. -1.
    9000002    1    1    2    0    0 -0.99318345108E-01 -0.12071140145E+00  0.28283718595E-01  0.95135658134E+00  0.93800000000E+00 0.  1.
         22    1    1    2    0    0  0.18299601354E+00  0.13037958179E+00  0.19040135825E+01  0.19172256254E+01  0.00000000000E+00 0. -1.
</event>
<event>
 5    1  0.1560836E+002  0.1599456E+01  0.7818608E-02  0.3353954E+00
         11   -1    0    0    0    0  0.00000000000E+00  0.00000000000E+00  0.39999999674E+01  0.40000000000E+01  0.51100000000E-03 0. -1.
    9000002   -1    0    0    0    0 -0.00000000000E+00 -0.00000000000E+00  0.00000000000E+00  0.93800000000E+00  0.93800000000E+00 0. -1.
         11    1    1    2    0    0 -0.10321738191E-01 -0.47668841167E-02  0.19837948390E+00  0.19870566730E+00  0.51100000000E-03 0. -1.
    9000002    1    1    2    0    0  0.91668936982E-01  0.20058328762E+00  0.32407674747E-01  0.96412193558E+00  0.93800000000E+00 0. -1.
         22    1    1    2    0    0 -0.81347198792E-01 -0.19581640350E+00  0.37692128087E+01  0.37751723971E+01  0.00000000000E+00 0. -1.
</event>
<event>
 5    1  0.1560836E+002  0.1598266E+01  0.7818608E-02  0.3355248E+00
         11   -1    0    0    0    0  0.00000000000E+00  0.00000000000E+00  0.39999999674E+01  0.40000000000E+01  0.51100000000E-03 0. -1.
    9000002   -1    0    0    0    0 -0.00000000000E+00 -0.00000000000E+00  0.00000000000E+00  0.93800000000E+00  0.93800000000E+00 0. -1.
         11    1    1    2    0    0 -0.18464270159E-01  0.66868087382E-02  0.26803657126E+00  0.26875547871E+00  0.51100000000E-03 0. -1.
    9000002    1    1    2    0    0 -0.24032880766E-01 -0.25513702586E+00  0.44729106911E-01  0.97340493852E+00  0.93800000000E+00 0. -1.
         22    1    1    2    0    0  0.42497150924E-01  0.24845021712E+00  0.36872342892E+01  0.36958395828E+01  0.00000000000E+00 0. -1.
</event>
<event>
 5    1  0.1560836E+002  0.1599666E+01  0.7818608E-02  0.3353726E+00
         11   -1    0    0    0    0  0.00000000000E+00  0.00000000000E+00  0.39999999674E+01  0.40000000000E+01  0.51100000000E-03 0. -1.
    9000002   -1    0    0    0    0 -0.00000000000E+00 -0.00000000000E+00  0.00000000000E+00  0.93800000000E+00  0.93800000000E+00 0.  1.
         11    1    1    2    0    0 -0.16644571849E+00 -0.54463700599E-01  0.17745375587E+01  0.17831585123E+01  0.51100000000E-03 0. -1.
    9000002    1    1    2    0    0  0.36026872111E+00  0.11311604361E+00  0.95921174931E-01  0.10156936854E+01  0.93800000000E+00 0.  1.
         22    1    1    2    0    0 -0.19382300262E+00 -0.58652343012E-01  0.21295412338E+01  0.21391478023E+01  0.00000000000E+00 0.  1.
</event>
<event>
 5    1  0.1560836E+002  0.1599642E+01  0.7818608E-02  0.3353752E+00
         11   -1    0    0    0    0  0.00000000000E+00  0.00000000000E+00  0.39999999674E+01  0.40000000000E+01  0.51100000000E-03 0. -1.
    9000002   -1    0    0    0    0 -0.00000000000E+00 -0.00000000000E+00  0.00000000000E+00  0.93800000000E+00  0.93800000000E+00 0.  1.
         11    1    1    2    0    0 -0.73814923476E-01 -0.42786430136E-02  0.10037201595E+01  0.10064399482E+01  0.51100000000E-03 0. -1.
    9000002    1    1    2    0    0  0.30694297435E+00  0.33903011052E-01  0.63698841094E-01  0.98957816569E+00  0.93800000000E+00 0.  1.
         22    1    1    2    0    0 -0.23312805087E+00 -0.29624368039E-01  0.29325809668E+01  0.29419818861E+01  0.00000000000E+00 0. -1.
</event>
<event>
 5    1  0.1560836E+002  0.1598765E+01  0.7818608E-02  0.3354705E+00
         11   -1    0    0    0    0  0.00000000000E+00  0.00000000000E+00  0.39999999674E+01  0.40000000000E+01  0.51100000000E-03 0. -1.
    9000002   -1    0    0    0    0 -0.00000000000E+00 -0.00000000000E+00  0.00000000000E+00  0.93800000000E+00  0.93800000000E+00 0. -1.
         11    1    1    2    0    0 -0.95808270991E-02 -0.35656407007E-02  0.84163619000E-01  0.84783736210E-01  0.51100000000E-03 0. -1.
    9000002    1    1    2    0    0  0.35451941669E-03  0.37066568578E+00  0.93085316932E-01  0.10128682306E+01  0.93800000000E+00 0. -1.
         22    1    1    2    0    0  0.92263076824E-02 -0.36710004508E+00  0.38227510314E+01  0.38403480332E+01  0.00000000000E+00 0. -1.
</event>
<event>
 5    1  0.1560836E+002  0.1599668E+01  0.7818608E-02  0.3353724E+00
         11   -1    0    0    0    0  0.00000000000E+00  0.00000000000E+00  0.39999999674E+01  0.40000000000E+01  0.51100000000E-03 0. -1.
    9000002   -1    0    0    0    0 -0.00000000000E+00 -0.00000000000E+00  0.00000000000E+00  0.93800000000E+00  0.93800000000E+00 0.  1.
         11    1    1    2    0    0 -0.15318837629E-01 -0.61125526143E-01  0.80219214759E+00  0.80466359400E+00  0.51100000000E-03 0. -1.
    9000002    1    1    2    0    0  0.88728732637E-01  0.29565980580E+00  0.63626778872E-01  0.98953518166E+00  0.93800000000E+00 0.  1.
         22    1    1    2    0    0 -0.73409895008E-01 -0.23453427966E+00  0.31341810409E+01  0.31438012243E+01  0.00000000000E+00 0. -1.
</event>
<event>
 5    1  0.1560836E+002  0.1562000E+01  0.7818608E-02  0.3395668E+00
         11   -1    0    0    0    0  0.00000000000E+00  0.00000000000E+00  0.39999999674E+01  0.40000000000E+01  0.51100000000E-03 0. -1.
    9000002   -1    0    0    0    0 -0.00000000000E+00 -0.00000000000E+00  0.00000000000E+00  0.93800000000E+00  0.93800000000E+00 0.  1.
         11    1    1    2    0    0 -0.13035991941E+00 -0.33342341470E-01  0.47150708473E+00  0.49033112526E+00  0.51100000000E-03 0. -1.
    9000002    1    1    2    0    0 -0.11268555197E+00 -0.13778053745E+00  0.49521118492E-01  0.95602188850E+00  0.93800000000E+00 0.  1.
         22    1    1    2    0    0  0.24304547138E+00  0.17112287892E+00  0.34789717641E+01  0.34916469862E+01  0.00000000000E+00 0. -1.
</event>
<event>
 5    1  0.1560836E+002  0.1599676E+01  0.7818608E-02  0.3353715E+00
         11   -1    0    0    0    0  0.00000000000E+00  0.00000000000E+00  0.39999999674E+01  0.40000000000E+01  0.51100000000E-03 0.  1.
    9000002   -1    0    0    0    0 -0.00000000000E+00 -0.00000000000E+00  0.00000000000E+00  0.93800000000E+00  0.93800000000E+00 0. -1.
         11    1    1    2    0    0  0.46662464405E-01  0.37863750474E-01  0.64834634271E+00  0.65112540299E+00  0.51100000000E-03 0.  1.
    9000002    1    1    2    0    0 -0.27924289037E+00 -0.23261266705E+00  0.88699438221E-01  0.10098499072E+01  0.93800000000E+00 0. -1.
         22    1    1    2    0    0  0.23258042597E+00  0.19474891657E+00  0.32629541864E+01  0.32770246898E+01  0.00000000000E+00 0.  1.
</event>
<event>
 5    1  0.1560836E+002  0.1599676E+01  0.7818608E-02  0.3353716E+00
         11   -1    0    0    0    0  0.00000000000E+00  0.00000000000E+00  0.39999999674E+01  0.40000000000E+01  0.51100000000E-03 0.  1.
    9000002   -1    0    0    0    0 -0.00000000000E+00 -0.00000000000E+00  0.00000000000E+00  0.93800000000E+00  0.93800000000E+00 0. -1.
         11    1    1    2    0    0  0.15022371341E-01  0.18662251827E-01  0.23417035597E+00  0.23539322000E+00  0.51100000000E-03 0. -1.
    9000002    1    1    2    0    0 -0.25666483848E+00 -0.30579226520E+00  0.10749942927E+00  0.10250784731E+01  0.93800000000E+00 0. -1.
         22    1    1    2    0    0  0.24164246714E+00  0.28713001337E+00  0.36583301821E+01  0.36775283069E+01  0.00000000000E+00 0.  1.
</event>
<event>
 5    1  0.1560836E+002  0.1599668E+01  0.7818608E-02  0.3353724E+00
         11   -1    0    0    0    0  0.00000000000E+00  0.00000000000E+00  0.39999999674E+01  0.40000000000E+01  0.51100000000E-03 0. -1.
    9000002   -1    0    0    0    0 -0.00000000000E+00 -0.00000000000E+00  0.00000000000E+00  0.93800000000E+00  0.93800000000E+00 0. -1.
         11    1    1    2    0    0 -0.72353626764E-01  0.12127411129E-01  0.63746832154E+00  0.64167612040E+00  0.51100000000E-03 0. -1.
    9000002    1    1    2    0    0  0.44627227157E+00 -0.59230988311E-01  0.13766010913E+00  0.10495053864E+01  0.93800000000E+00 0. -1.
         22    1    1    2    0    0 -0.37391864480E+00  0.47103577182E-01  0.32248715367E+01  0.32468184932E+01  0.00000000000E+00 0. -1.
</event>
<event>
 5    1  0.1560836E+002  0.1599636E+01  0.7818608E-02  0.3353759E+00
         11   -1    0    0    0    0  0.00000000000E+00  0.00000000000E+00  0.39999999674E+01  0.40000000000E+01  0.51100000000E-03 0.  1.
    9000002   -1    0    0    0    0 -0.00000000000E+00 -0.00000000000E+00  0.00000000000E+00  0.93800000000E+00  0.93800000000E+00 0.  1.
         11    1    1    2    0    0 -0.39740514179E+00 -0.12683033502E+00  0.17558732697E+01  0.18047459602E+01  0.51100000000E-03 0.  1.
    9000002    1    1    2    0    0  0.78343090415E+00  0.24024406799E+00  0.49802915527E+00  0.13414015928E+01  0.93800000000E+00 0.  1.
         22    1    1    2    0    0 -0.38602576236E+00 -0.11341373297E+00  0.17460975424E+01  0.17918524470E+01  0.00000000000E+00 0. -1.
</event>
<event>
 5    1  0.1560836E+002  0.1599576E+01  0.7818608E-02  0.3353824E+00
         11   -1    0    0    0    0  0.00000000000E+00  0.00000000000E+00  0.39999999674E+01  0.40000000000E+01  0.51100000000E-03 0.  1.
    9000002   -1    0    0    0    0 -0.00000000000E+00 -0.00000000000E+00  0.00000000000E+00  0.93800000000E+00  0.93800000000E+00 0.  1.
         11    1    1    2    0    0 -0.79350502484E-02  0.16016976337E-03  0.12185579066E+00  0.12211505033E+00  0.51100000000E-03 0.  1.
    9000002    1    1    2    0    0  0.26576815208E+00  0.12912391718E+00  0.58297312806E-01  0.98516408447E+00  0.93800000000E+00 0.  1.
         22    1    1    2    0    0 -0.25783310183E+00 -0.12928408695E+00  0.38198468639E+01  0.38307208652E+01  0.00000000000E+00 0.  1.
</event>
<event>
 5    1  0.1560836E+002  0.1598908E+01  0.7818608E-02  0.3354550E+00
         11   -1    0    0    0    0  0.00000000000E+00  0.00000000000E+00  0.39999999674E+01  0.40000000000E+01  0.51100000000E-03 0.  1.
    9000002   -1    0    0    0    0 -0.00000000000E+00 -0.00000000000E+00  0.00000000000E+00  0.93800000000E+00  0.93800000000E+00 0.  1.
         11    1    1    2    0    0 -0.36168855909E-01  0.45799504585E-01  0.11322916220E+01  0.11337946724E+01  0.51100000000E-03 0.  1.
    9000002    1    1    2    0    0  0.64370265798E-01 -0.24536345119E+00  0.43346199328E-01  0.97266111637E+00  0.93800000000E+00 0.  1.
         22    1    1    2    0    0 -0.28201409889E-01  0.19956394660E+00  0.28243621460E+01  0.28315442112E+01  0.00000000000E+00 0.  1.
</event>
<event>
 5    1  0.1560836E+002  0.1599525E+01  0.7818608E-02  0.3353879E+00
         11   -1    0    0    0    0  0.00000000000E+00  0.00000000000E+00  0.39999999674E+01  0.40000000000E+01  0.51100000000E-03 0. -1.
    9000002   -1    0    0    0    0 -0.00000000000E+00 -0.00000000000E+00  0.00000000000E+00  0.93800000000E+00  0.93800000000E+00 0. -1.
         11    1    1    2    0    0  0.45837847039E-01  0.10232123709E-01  0.45769987175E+00  0.46010350824E+00  0.51100000000E-03 0. -1.
    9000002    1    1    2    0    0 -0.31483108144E+00 -0.65320841447E-01  0.69233859463E-01  0.99399333472E+00  0.93800000000E+00 0. -1.
         22    1    1    2    0    0  0.26899323440E+00  0.55088717738E-01  0.34730662361E+01  0.34839031570E+01  0.00000000000E+00 0. -1.
</event>
<event>
 5    1  0.1560836E+002  0.1599676E+01  0.7818608E-02  0.3353716E+00
         11   -1    0    0    0    0  0.00000000000E+00  0.00000000000E+00  0.39999999674E+01  0.40000000000E+01  0.51100000000E-03 0. -1.
    9000002   -1    0    0    0    0 -0.00000000000E+00 -0.00000000000E+00  0.00000000000E+00  0.93800000000E+00  0.93800000000E+00 0.  1.
         11    1    1    2    0    0 -0.98055581472E-02 -0.58556447760E-02  0.11432651984E+00  0.11489670058E+00  0.51100000000E-03 0.  1.
    9000002    1    1    2    0    0  0.33430747430E+00  0.19591100468E+00  0.10111576101E+00  0.10199073518E+01  0.93800000000E+00 0.  1.
         22    1    1    2    0    0 -0.32450191616E+00 -0.19005535990E+00  0.37845576865E+01  0.38031959476E+01  0.00000000000E+00 0. -1.
</event>
<event>
 5    1  0.1560836E+002  0.1599675E+01  0.7818608E-02  0.3353716E+00
         11   -1    0    0    0    0  0.00000000000E+00  0.00000000000E+00  0.39999999674E+01  0.40000000000E+01  0.51100000000E-03 0. -1.
    9000002   -1    0    0    0    0 -0.00000000000E+00 -0.00000000000E+00  0.00000000000E+00  0.93800000000E+00  0.93800000000E+00 0.  1.
         11    1    1    2    0    0  0.54808527684E-02  0.31252797528E-01  0.38234943498E+00  0.38366408309E+00  0.51100000000E-03 0. -1.
    9000002    1    1    2    0    0 -0.62813576387E-01 -0.31561182339E+00  0.69230973530E-01  0.99407911966E+00  0.93800000000E+00 0.  1.
         22    1    1    2    0    0  0.57332723619E-01  0.28435902586E+00  0.35484195589E+01  0.35602567973E+01  0.00000000000E+00 0. -1.
</event>
<event>
 5    1  0.1560836E+002  0.1599652E+01  0.7818608E-02  0.3353741E+00
         11   -1    0    0    0    0  0.00000000000E+00  0.00000000000E+00  0.39999999674E+01  0.40000000000E+01  0.51100000000E-03 0.  1.
    9000002   -1    0    0    0    0 -0.00000000000E+00 -0.00000000000E+00  0.00000000000E+00  0.93800000000E+00  0.93800000000E+00 0. -1.
         11    1    1    2    0    0 -0.79810172735E-02 -0.24879099633E-01  0.42199690693E+00  0.42280529421E+00  0.51100000000E-03 0.  1.
    9000002    1    1    2    0    0  0.10447989964E+00  0.25063733236E+00  0.49085380987E-01  0.97774664225E+00  0.93800000000E+00 0. -1.
         22    1    1    2    0    0 -0.96498882371E-01 -0.22575823273E+00  0.35289176794E+01  0.35374480635E+01  0.00000000000E+00 0.  1.
</event>
<event>
 5    1  0.1560836E+002  0.1599670E+01  0.7818608E-02  0.3353721E+00
         11   -1    0    0    0    0  0.00000000000E+00  0.00000000000E+00  0.39999999674E+01  0.40000000000E+01  0.51100000000E-03 0. -1.
    9000002   -1    0    0    0    0 -0.00000000000E+00 -0.00000000000E+00  0.00000000000E+00  0.93800000000E+00  0.93800000000E+00 0. -1.
         11    1    1    2    0    0 -0.37699591999E-01  0.26194052379E-01  0.57140231288E+00  0.57324362352E+00  0.51100000000E-03 0.  1.
    9000002    1    1    2    0    0  0.24486937774E+00 -0.18115464209E+00  0.61925307815E-01  0.98815826680E+00  0.93800000000E+00 0. -1.
         22    1    1    2    0    0 -0.20716978574E+00  0.15496058971E+00  0.33666723467E+01  0.33765981097E+01  0.00000000000E+00 0. -1.
</event>
<event>
 5    1  0.1560836E+002  0.1574774E+01  0.7818608E-02  0.3381206E+00
         11   -1    0    0    0    0  0.00000000000E+00  0.00000000000E+00  0.39999999674E+01  0.40000000000E+01  0.51100000000E-03 0. -1.
    9000002   -1    0    0    0    0 -0.00000000000E+00 -0.00000000000E+00  0.00000000000E+00  0.93800000000E+00  0.93800000000E+00 0. -1.
         11    1    1    2    0    0 -0.69511886324E-01 -0.46159067349E-01  0.23305513510E+00  0.24754296386E+00  0.51100000000E-03 0. -1.
    9000002    1    1    2    0    0  0.46370020466E-02 -0.20278324558E+00  0.46160576121E-01  0.96078995897E+00  0.93800000000E+00 0. -1.
         22    1    1    2    0    0  0.64874884277E-01  0.24894231293E+00  0.37207842561E+01  0.37296670772E+01  0.00000000000E+00 0. -1.
</event>
<event>
 5    1  0.1560836E+002  0.1599406E+01  0.7818608E-02  0.3354008E+00
         11   -1    0    0    0    0  0.00000000000E+00  0.00000000000E+00  0.39999999674E+01  0.40000000000E+01  0.51100000000E-03 0. -1.
    9000002   -1    0    0    0    0 -0.00000000000E+00 -0.00000000000E+00  0.00000000000E+00  0.93800000000E+00  0.93800000000E+00 0. -1.
         11    1    1    2    0    0 -0.53205560339E+00  0.41507618986E+00  0.26122852891E+01  0.26980374537E+01  0.51100000000E-03 0. -1.
    9000002    1    1    2    0    0  0.69498702515E+00 -0.56052957113E+00  0.60873817230E+00  0.14309460254E+01  0.93800000000E+00 0. -1.
         22    1    1    2    0    0 -0.16293142176E+00  0.14545338127E+00  0.77897650591E+00  0.80901652089E+00  0.00000000000E+00 0. -1.
</event>
<event>
 5    1  0.1560836E+002  0.1598883E+01  0.7818608E-02  0.3354577E+00
         11   -1    0    0    0    0  0.00000000000E+00  0.00000000000E+00  0.39999999674E+01  0.40000000000E+01  0.51100000000E-03 0.  1.
    9000002   -1    0    0    0    0 -0.00000000000E+00 -0.00000000000E+00  0.00000000000E+00  0.93800000000E+00  0.93800000000E+00 0. -1.
         11    1    1    2    0    0  0.25486357529E-01  0.11671834485E-01  0.28517281051E+00  0.28654769082E+00  0.51100000000E-03 0.  1.
    9000002    1    1    2    0    0 -0.12445641217E+00 -0.24475598100E+00  0.50797203722E-01  0.97868240235E+00  0.93800000000E+00 0. -1.
         22    1    1    2    0    0  0.98970054641E-01  0.23308414652E+00  0.36640299531E+01  0.36727699068E+01  0.00000000000E+00 0.  1.
</event>
<event>
 5    1  0.1560836E+002  0.1582310E+01  0.7818608E-02  0.3372790E+00
         11   -1    0    0    0    0  0.00000000000E+00  0.00000000000E+00  0.39999999674E+01  0.40000000000E+01  0.51100000000E-03 0.  1.
    9000002   -1    0    0    0    0 -0.00000000000E+00 -0.00000000000E+00  0.00000000000E+00  0.93800000000E+00  0.93800000000E+00 0. -1.
         11    1    1    2    0    0 -0.66584649191E-01  0.14211099771E+00  0.87212823340E+00  0.88613597591E+00  0.51100000000E-03 0.  1.
    9000002    1    1    2    0    0  0.36166334087E+00 -0.46950665533E-01  0.10357858356E+00  0.10117199514E+01  0.93800000000E+00 0. -1.
         22    1    1    2    0    0 -0.29507869167E+00 -0.95160332180E-01  0.30242931504E+01  0.30401440727E+01  0.00000000000E+00 0.  1.
</event>
<event>
 5    1  0.1560836E+002  0.1597592E+01  0.7818608E-02  0.3355982E+00
         11   -1    0    0    0    0  0.00000000000E+00  0.00000000000E+00  0.39999999674E+01  0.40000000000E+01  0.51100000000E-03 0.  1.
    9000002   -1    0    0    0    0 -0.00000000000E+00 -0.00000000000E+00  0.00000000000E+00  0.93800000000E+00  0.93800000000E+00 0.  1.
         11    1    1    2    0    0  0.83721650226E-01 -0.80623784210E-01  0.11053979580E+01  0.11114919774E+01  0.51100000000E-03 0.  1.
    9000002    1    1    2    0    0 -0.34527662002E+00  0.11713236994E+00  0.90978332938E-01  0.10104736481E+01  0.93800000000E+00 0.  1.
         22    1    1    2    0    0  0.26155496980E+00 -0.36508585726E-01  0.28036236764E+01  0.28160343745E+01  0.00000000000E+00 0.  1.
</event>
<event>
 5    1  0.1560836E+002  0.1599673E+01  0.7818608E-02  0.3353719E+00
         11   -1    0    0    0    0  0.00000000000E+00  0.00000000000E+00  0.39999999674E+01  0.40000000000E+01  0.51100000000E-03 0. -1.
    9000002   -1    0    0    0    0 -0.00000000000E+00 -0.00000000000E+00  0.00000000000E+00  0.93800000000E+00  0.93800000000E+00 0. -1.
         11    1    1    2    0    0 -0.17552170089E-01  0.22942442347E-01  0.51566182131E+00  0.51647053102E+00  0.51100000000E-03 0. -1.
    9000002    1    1    2    0    0  0.14098114579E+00 -0.18726136324E+00  0.36458834801E-01  0.96753074797E+00  0.93800000000E+00 0. -1.
         22    1    1    2    0    0 -0.12342897570E+00  0.16431892089E+00  0.34478793112E+01  0.34539987210E+01  0.00000000000E+00 0. -1.
</event>
<event>
 5    1  0.1560836E+002  0.1595163E+01  0.7818608E-02  0.3358630E+00
         11   -1    0    0    0    0  0.00000000000E+00  0.00000000000E+00  0.39999999674E+01  0.40000000000E+01  0.51100000000E-03 0. -1.
    9000002   -1    0    0    0    0 -0.00000000000E+00 -0.00000000000E+00  0.00000000000E+00  0.93800000000E+00  0.93800000000E+00 0.  1.
         11    1    1    2    0    0 -0.18318282685E-01 -0.24645712288E+00  0.14030820791E+01  0.14246811063E+01  0.51100000000E-03 0. -1.
    9000002    1    1    2    0    0  0.11373095757E+00  0.46917382691E+00  0.16310655539E+00  0.10674767253E+01  0.93800000000E+00 0.  1.
         22    1    1    2    0    0 -0.95412674885E-01 -0.22271670403E+00  0.24338113329E+01  0.24458421684E+01  0.00000000000E+00 0. -1.
</event>
<event>
 5    1  0.1560836E+002  0.1544314E+01  0.7818608E-02  0.3416113E+00
         11   -1    0    0    0    0  0.00000000000E+00  0.00000000000E+00  0.39999999674E+01  0.40000000000E+01  0.51100000000E-03 0. -1.
    9000002   -1    0    0    0    0 -0.00000000000E+00 -0.00000000000E+00  0.00000000000E+00  0.93800000000E+00  0.93800000000E+00 0.  1.
         11    1    1    2    0    0  0.15429993640E+00 -0.33399076532E+00  0.24865881307E+01  0.25136585080E+01  0.51100000000E-03 0. -1.
    9000002    1    1    2    0    0 -0.87260523151E-01  0.12587632725E+00  0.57561495773E-01  0.95216415310E+00  0.93800000000E+00 0.  1.
         22    1    1    2    0    0 -0.67039413248E-01  0.20811443808E+00  0.14558503408E+01  0.14721773389E+01  0.00000000000E+00 0.  1.
</event>
<event>
 5    1  0.1560836E+002  0.1581729E+01  0.7818608E-02  0.3373436E+00
         11   -1    0    0    0    0  0.00000000000E+00  0.00000000000E+00  0.39999999674E+01  0.40000000000E+01  0.51100000000E-03 0. -1.
    9000002   -1    0    0    0    0 -0.00000000000E+00 -0.00000000000E+00  0.00000000000E+00  0.93800000000E+00  0.93800000000E+00 0. -1.
         11    1    1    2    0    0  0.18955409087E+00  0.71610837086E-01  0.13335286296E+01  0.13488356952E+01  0.51100000000E-03 0. -1.
    9000002    1    1    2    0    0 -0.11345352720E+00 -0.28044309237E+00  0.75270352892E-01  0.98844810532E+00  0.93800000000E+00 0. -1.
         22    1    1    2    0    0 -0.76100563670E-01  0.20883225529E+00  0.25912009848E+01  0.26007161995E+01  0.00000000000E+00 0. -1.
</event>
<event>
 5    1  0.1560836E+002  0.1599650E+01  0.7818608E-02  0.3353743E+00
         11   -1    0    0    0    0  0.00000000000E+00  0.00000000000E+00  0.39999999674E+01  0.40000000000E+01  0.51100000000E-03 0.  1.
    9000002   -1    0    0    0    0 -0.00000000000E+00 -0.00000000000E+00  0.00000000000E+00  0.93800000000E+00  0.93800000000E+00 0. -1.
         11    1    1    2    0    0 -0.44288578097E-01 -0.29745934443E-01  0.63824488660E+00  0.64047099478E+00  0.51100000000E-03 0.  1.
    9000002    1    1    2    0    0  0.24701494899E+00  0.19432548044E+00  0.66007558609E-01  0.99145336510E+00  0.93800000000E+00 0. -1.
         22    1    1    2    0    0 -0.20272637089E+00 -0.16457954600E+00  0.32957475222E+01  0.33060756401E+01  0.00000000000E+00 0.  1.
</event>
<event>
 5    1  0.1560836E+002  0.1599651E+01  0.7818608E-02  0.3353742E+00
         11   -1    0    0    0    0  0.00000000000E+00  0.00000000000E+00  0.39999999674E+01  0.40000000000E+01  0.51100000000E-03 0.  1.
    9000002   -1    0    0    0    0 -0.00000000000E+00 -0.00000000000E+00  0.00000000000E+00  0.93800000000E+00  0.93800000000E+00 0. -1.
         11    1    1    2    0    0  0.19094999751E+00 -0.49411535746E-01  0.96992054346E+00  0.98977246030E+00  0.51100000000E-03 0.  1.
    9000002    1    1    2    0    0 -0.72682438809E+00  0.17636938098E+00  0.40528897503E+00  0.12662870934E+01  0.93800000000E+00 0. -1.
         22    1    1    2    0    0  0.53587439058E+00 -0.12695784524E+00  0.26247904489E+01  0.26819404463E+01  0.00000000000E+00 0.  1.
</event>
<event>
 5    1  0.1560836E+002  0.1671384E+01  0.7818608E-02  0.3279353E+00
         11   -1    0    0    0    0  0.00000000000E+00  0.00000000000E+00  0.39999999674E+01  0.40000000000E+01  0.51100000000E-03 0.  1.
    9000002   -1    0    0    0    0 -0.00000000000E+00 -0.00000000000E+00  0.00000000000E+00  0.93800000000E+00  0.93800000000E+00 0.  1.
         11    1    1    2    0    0  0.52370583579E-01 -0.30741365239E+00  0.35804984657E-02  0.31186361249E+00  0.51100000000E-03 0.  1.
    9000002    1    1    2    0    0  0.25787333059E+00  0.30641501539E+00  0.53665441070E+00  0.11524889469E+01  0.93800000000E+00 0.  1.
         22    1    1    2    0    0 -0.31024391417E+00  0.99863700817E-03  0.34597650582E+01  0.34736474406E+01  0.00000000000E+00 0.  1.
</event>
<event>
 5    1  0.1560836E+002  0.1599660E+01  0.7818608E-02  0.3353732E+00
         11   -1    0    0    0    0  0.00000000000E+00  0.00000000000E+00  0.39999999674E+01  0.40000000000E+01  0.51100000000E-03 0.  1.
    9000002   -1    0    0    0    0 -0.00000000000E+00 -0.00000000000E+00  0.00000000000E+00  0.93800000000E+00  0.93800000000E+00 0. -1.
         11    1    1    2    0    0 -0.30761125714E-01 -0.42117371269E+00  0.15660855646E+01  0.16220227495E+01  0.51100000000E-03 0.  1.
    9000002    1    1    2    0    0  0.61182682908E-01  0.91225757833E+00  0.64393795254E+00  0.14596086108E+01  0.93800000000E+00 0. -1.
         22    1    1    2    0    0 -0.30421557194E-01 -0.49108386564E+00  0.17899764502E+01  0.18563686397E+01  0.00000000000E+00 0.  1.
</event>
<event>
 5    1  0.1560836E+002  0.1598586E+01  0.7818608E-02  0.3354900E+00
         11   -1    0    0    0    0  0.00000000000E+00  0.00000000000E+00  0.39999999674E+01  0.40000000000E+01  0.51100000000E-03 0. -1.
    9000002   -1    0    0    0    0 -0.00000000000E+00 -0.00000000000E+00  0.00000000000E+00  0.93800000000E+00  0.93800000000E+00 0.  1.
         11    1    1    2    0    0  0.52258942017E-01  0.20538454370E-01  0.81429700329E+00  0.81623078588E+00  0.51100000000E-03 0. -1.
    9000002    1    1    2    0    0 -0.26073813949E+00  0.56188435395E-01  0.48161886295E-01  0.97637343519E+00  0.93800000000E+00 0.  1.
         22    1    1    2    0    0  0.20847919747E+00 -0.76726889765E-01  0.31375410778E+01  0.31453957789E+01  0.00000000000E+00 0. -1.
</event>
<event>
 5    1  0.1560836E+002  0.1598268E+01  0.7818608E-02  0.3355245E+00
         11   -1    0    0    0    0  0.00000000000E+00  0.00000000000E+00  0.39999999674E+01  0.40000000000E+01  0.51100000000E-03 0.  1.
    9000002   -1    0    0    0    0 -0.00000000000E+00 -0.00000000000E+00  0.00000000000E+00  0.93800000000E+00  0.93800000000E+00 0.  1.
         11    1    1    2    0    0  0.38870861049E-01 -0.13162750568E+00  0.12126008549E+01  0.12203433281E+01  0.51100000000E-03 0.  1.
    9000002    1    1    2    0    0 -0.25508079876E+00  0.42834345556E+00  0.17136916915E+00  0.10759905771E+01  0.93800000000E+00 0.  1.
         22    1    1    2    0    0  0.21620993772E+00 -0.29671594988E+00  0.26160299434E+01  0.26416660948E+01  0.00000000000E+00 0. -1.
</event>
<event>
 5    1  0.1560836E+002  0.1572604E+01  0.7818608E-02  0.3383646E+00
         11   -1    0    0    0    0  0.00000000000E+00  0.00000000000E+00  0.39999999674E+01  0.40000000000E+01  0.51100000000E-03 0. -1.
    9000002   -1    0    0    0    0 -0.00000000000E+00 -0.00000000000E+00  0.00000000000E+00  0.93800000000E+00  0.93800000000E+00 0. -1.
         11    1    1    2    0    0  0.18159326172E+00  0.49175177951E-02  0.10910820079E+01  0.11061014889E+01  0.51100000000E-03 0. -1.
    9000002    1    1    2    0    0 -0.26735775137E-01 -0.13153754702E+00  0.32062990343E-01  0.94809754946E+00  0.93800000000E+00 0. -1.
         22    1    1    2    0    0 -0.15485748658E+00  0.12662002923E+00  0.28768549691E+01  0.28838009616E+01  0.00000000000E+00 0. -1.
</event>
<event>
 5    1  0.1560836E+002  0.1599203E+01  0.7818608E-02  0.3354229E+00
         11   -1    0    0    0    0  0.00000000000E+00  0.00000000000E+00  0.39999999674E+01  0.40000000000E+01  0.51100000000E-03 0.  1.
    9000002   -1    0    0    0    0 -0.00000000000E+00 -0.00000000000E+00  0.00000000000E+00  0.93800000000E+00  0.93800000000E+00 0. -1.
         11    1    1    2    0    0 -0.75699787077E-01  0.60638268663E-01  0.10078555100E+01  0.10125119494E+01  0.51100000000E-03 0.  1.
    9000002    1    1    2    0    0  0.21868817629E+00 -0.28290400288E+00  0.86186970407E-01  0.10075372882E+01  0.93800000000E+00 0. -1.
         22    1    1    2    0    0 -0.14298838921E+00  0.22226573421E+00  0.29059574869E+01  0.29179507624E+01  0.00000000000E+00 0.  1.
</event>
<event>
 5    1  0.1560836E+002  0.1599676E+01  0.7818608E-02  0.3353715E+00
         11   -1    0    0    0    0  0.00000000000E+00  0.00000000000E+00  0.39999999674E+01  0.40000000000E+01  0.51100000000E-03 0.  1.
    9000002   -1    0    0    0    0 -0.00000000000E+00 -0.00000000000E+00  0.00000000000E+00  0.93800000000E+00  0.93800000000E+00 0. -1.
         11    1    1    2    0    0  0.14654692424E-01  0.37328272755E-01  0.26026178841E+00  0.26333366588E+00  0.51100000000E-03 0.  1.
    9000002    1    1    2    0    0 -0.21064378746E+00 -0.54711863460E+00  0.23911540542E+00  0.11316933253E+01  0.93800000000E+00 0. -1.
         22    1    1    2    0    0  0.19598909503E+00  0.50979036184E+00  0.35006227735E+01  0.35429730088E+01  0.00000000000E+00 0.  1.
</event>
<event>
 5    1  0.1560836E+002  0.1598564E+01  0.7818608E-02  0.3354923E+00
         11   -1    0    0    0    0  0.00000000000E+00  0.00000000000E+00  0.39999999674E+01  0.40000000000E+01  0.51100000000E-03 0.  1.
    9000002   -1    0    0    0    0 -0.00000000000E+00 -0.00000000000E+00  0.00000000000E+00  0.93800000000E+00  0.93800000000E+00 0.  1.
         11    1    1    2    0    0 -0.85567814718E-01 -0.11214698465E+00  0.12475643805E+01  0.12555142140E+01  0.51100000000E-03 0.  1.
    9000002    1    1    2    0    0  0.35356524730E+00  0.27200872281E+00  0.13603670039E+00  0.10475433706E+01  0.93800000000E+00 0.  1.
         22    1    1    2    0    0 -0.26799743258E+00 -0.15986173816E+00  0.26163988865E+01  0.26349424154E+01  0.00000000000E+00 0.  1.
</event>
<event>
 5    1  0.1560836E+002  0.1599509E+01  0.7818608E-02  0.3353897E+00
         11   -1    0    0    0    0  0.00000000000E+00  0.00000000000E+00  0.39999999674E+01  0.40000000000E+01  0.51100000000E-03 0. -1.
    9000002   -1    0    0    0    0 -0.00000000000E+00 -0.00000000000E+00  0.00000000000E+00  0.93800000000E+00  0.93800000000E+00 0.  1.
         11    1    1    2    0    0 -0.32683674337E-01 -0.39053893939E-01  0.85204929042E+00  0.85356996411E+00  0.51100000000E-03 0. -1.
    9000002    1    1    2    0    0  0.12244195901E+00  0.23310431090E+00  0.46232528689E-01  0.97535178259E+00  0.93800000000E+00 0.  1.
         22    1    1    2    0    0 -0.89758284668E-01 -0.19405041696E+00  0.31017181483E+01  0.31090782533E+01  0.00000000000E+00 0. -1.
</event>
<event>
 5    1  0.1560836E+002  0.1599677E+01  0.7818608E-02  0.3353714E+00
         11   -1    0    0    0    0  0.00000000000E+00  0.00000000000E+00  0.39999999674E+01  0.40000000000E+01  0.51100000000E-03 0. -1.
    9000002   -1    0    0    0    0 -0.00000000000E+00 -0.00000000000E+00  0.00000000000E+00  0.93800000000E+00  0.93800000000E+00 0. -1.
         11    1    1    2    0    0  0.31979628943E-01 -0.66964015668E-01  0.99962600833E+00  0.10023768222E+01  0.51100000000E-03 0.  1.
    9000002    1    1    2    0    0 -0.12643761521E+00  0.26438530754E+00  0.57259152711E-01  0.98438238096E+00  0.93800000000E+00 0. -1.
         22    1    1    2    0    0  0.94457986268E-01 -0.19742129187E+00  0.29431148063E+01  0.29512407968E+01  0.00000000000E+00 0. -1.
</event>
<event>
 5    1  0.1560836E+002  0.1581022E+01  0.7818608E-02  0.3374223E+00
         11   -1    0    0    0    0  0.00000000000E+00  0.00000000000E+00  0.39999999674E+01  0.40000000000E+01  0.51100000000E-03 0.  1.
    9000002   -1    0    0    0    0 -0.00000000000E+00 -0.00000000000E+00  0.00000000000E+00  0.93800000000E+00  0.93800000000E+00 0. -1.
         11    1    1    2    0    0 -0.10315083858E+00 -0.23879344396E+00  0.25323160231E+01  0.25456408047E+01  0.51100000000E-03 0.  1.
    9000002    1    1    2    0    0  0.31500694727E+00  0.51349518203E+00  0.27217010262E+00  0.11475309336E+01  0.93800000000E+00 0. -1.
         22    1    1    2    0    0 -0.21185610869E+00 -0.27470173807E+00  0.11955138416E+01  0.12448282617E+01  0.00000000000E+00 0. -1.
</event>
<event>
 5    1  0.1560836E+002  0.1580129E+01  0.7818608E-02  0.3375217E+00
         11   -1    0    0    0    0  0.00000000000E+00  0.00000000000E+00  0.39999999674E+01  0.40000000000E+01  0.51100000000E-03 0. -1.
    9000002   -1    0    0    0    0 -0.00000000000E+00 -0.00000000000E+00  0.00000000000E+00  0.93800000000E+00  0.93800000000E+00 0. -1.
         11    1    1    2    0    0  0.86282655320E-01  0.40753887964E+00  0.11184745848E+01  0.11935318567E+01  0.51100000000E-03 0. -1.
    9000002    1    1    2    0    0 -0.44370262522E+00 -0.77555577597E+00  0.63988313859E+00  0.14448713480E+01  0.93800000000E+00 0. -1.
         22    1    1    2    0    0  0.35741996990E+00  0.36801689633E+00  0.22416422440E+01  0.22995967953E+01  0.00000000000E+00 0. -1.
</event>
<event>
 5    1  0.1560836E+002  0.1599462E+01  0.7818608E-02  0.3353947E+00
         11   -1    0    0    0    0  0.00000000000E+00  0.00000000000E+00  0.39999999674E+01  0.40000000000E+01  0.51100000000E-03 0.  1.
    9000002   -1    0    0    0    0 -0.00000000000E+00 -0.00000000000E+00  0.00000000000E+00  0.93800000000E+00  0.93800000000E+00 0. -1.
         11    1    1    2    0    0  0.26253188038E-01  0.18265617077E-01  0.51976292700E+00  0.52074621848E+00  0.51100000000E-03 0.  1.
    9000002    1    1    2    0    0 -0.14920790519E+00 -0.21412846716E+00  0.45451177497E-01  0.97469164814E+00  0.93800000000E+00 0. -1.
         22    1    1    2    0    0  0.12295471715E+00  0.19586285008E+00  0.34347858629E+01  0.34425621334E+01  0.00000000000E+00 0.  1.
</event>
<event>
 5    1  0.1560836E+002  0.1599677E+01  0.7818608E-02  0.3353714E+00
         11   -1    0    0    0    0  0.00000000000E+00  0.00000000000E+00  0.39999999674E+01  0.40000000000E+01  0.51100000000E-03 0. -1.
    9000002   -1    0    0    0    0 -0.00000000000E+00 -0.00000000000E+00  0.00000000000E+00  0.93800000000E+00  0.93800000000E+00 0.  1.
         11    1    1    2    0    0 -0.92840948485E-01 -0.11704036213E+00  0.13971014496E+01  0.14050660517E+01  0.51100000000E-03 0.  1.
    9000002    1    1    2    0    0  0.25872451973E+00  0.32527123682E+00  0.11675561726E+00  0.10325771781E+01  0.93800000000E+00 0.  1.
         22    1    1    2    0    0 -0.16588357124E+00 -0.20823087469E+00  0.24861429005E+01  0.25003567702E+01  0.00000000000E+00 0. -1.
</event>
<event>
 5    1  0.1560836E+002  0.1523801E+01  0.7818608E-02  0.3440460E+00
         11   -1    0    0    0    0  0.00000000000E+00  0.00000000000E+00  0.39999999674E+01  0.40000000000E+01  0.51100000000E-03 0.  1.
    9000002   -1    0    0    0    0 -0.00000000000E+00 -0.00000000000E+00  0.00000000000E+00  0.93800000000E+00  0.93800000000E+00 0. -1.
         11    1    1    2    0    0 -0.27435491659E+00 -0.64341710156E-01  0.19231108197E+01  0.19436475920E+01  0.51100000000E-03 0.  1.
    9000002    1    1    2    0    0 -0.11229161693E+00  0.54222879321E-01  0.68136738887E-01  0.94870234693E+00  0.93800000000E+00 0. -1.
         22    1    1    2    0    0  0.38664653352E+00  0.10118830834E-01  0.20087524088E+01  0.20456500611E+01  0.00000000000E+00 0.  1.
</event>
<event>
 5    1  0.1560836E+002  0.1599677E+01  0.7818608E-02  0.3353714E+00
         11   -1    0    0    0    0  0.00000000000E+00  0.00000000000E+00  0.39999999674E+01  0.40000000000E+01  0.51100000000E-03 0.  1.
    9000002   -1    0    0    0    0 -0.00000000000E+00 -0.00000000000E+00  0.00000000000E+00  0.93800000000E+00  0.93800000000E+00 0.  1.
         11    1    1    2    0    0 -0.28838060827E+00 -0.10502262567E+00  0.21719345750E+01  0.21935116108E+01  0.51100000000E-03 0.  1.
    9000002    1    1    2    0    0  0.50451004791E+00  0.18323669569E+00  0.19850330910E+00  0.10987964501E+01  0.93800000000E+00 0.  1.
         22    1    1    2    0    0 -0.21612943963E+00 -0.78214070017E-01  0.16295620832E+01  0.16456919391E+01  0.00000000000E+00 0.  1.
</event>
<event>
 5    1  0.1560836E+002  0.1599650E+01  0.7818608E-02  0.3353744E+00
         11   -1    0    0    0    0  0.00000000000E+00  0.00000000000E+00  0.39999999674E+01  0.40000000000E+01  0.51100000000E-03 0.  1.
    9000002   -1    0    0    0    0 -0.00000000000E+00 -0.00000000000E+00  0.00000000000E+00  0.93800000000E+00  0.93800000000E+00 0. -1.
         11    1    1    2    0    0  0.18368874201E-01  0.48678772996E-01  0.63095160373E+00  0.63309337846E+00  0.51100000000E-03 0.  1.
    9000002    1    1    2    0    0 -0.13130992100E+00 -0.28037519955E+00  0.64023961889E-01  0.98984625855E+00  0.93800000000E+00 0. -1.
         22    1    1    2    0    0  0.11294104680E+00  0.23169642656E+00  0.33050244017E+01  0.33150603630E+01  0.00000000000E+00 0.  1.
</event>
<event>
 5    1  0.1560836E+002  0.1599651E+01  0.7818608E-02  0.3353742E+00
         11   -1    0    0    0    0  0.00000000000E+00  0.00000000000E+00  0.39999999674E+01  0.40000000000E+01  0.51100000000E-03 0.  1.
    9000002   -1    0    0    0    0 -0.00000000000E+00 -0.00000000000E+00  0.00000000000E+00  0.93800000000E+00  0.93800000000E+00 0. -1.
         11    1    1    2    0    0 -0.10103283078E-01 -0.81416189280E-01  0.66706206049E+00  0.67208833189E+00  0.51100000000E-03 0.  1.
    9000002    1    1    2    0    0  0.65303217477E-01  0.49320151540E+00  0.16938836856E+00  0.10751970352E+01  0.93800000000E+00 0. -1.
         22    1    1    2    0    0 -0.55199934399E-01 -0.41178532612E+00  0.31635495383E+01  0.31907146329E+01  0.00000000000E+00 0.  1.
</event>
<event>
 5    1  0.1560836E+002  0.1561795E+01  0.7818608E-02  0.3395904E+00
         11   -1    0    0    0    0  0.00000000000E+00  0.00000000000E+00  0.39999999674E+01  0.40000000000E+01  0.51100000000E-03 0. -1.
    9000002   -1    0    0    0    0 -0.00000000000E+00 -0.00000000000E+00  0.00000000000E+00  0.93800000000E+00  0.93800000000E+00 0. -1.
         11    1    1    2    0    0  0.24156598186E+00 -0.91878429661E+00  0.23254252745E+01  0.25119955564E+01  0.51100000000E-03 0. -1.
    9000002    1    1    2    0    0 -0.44900265360E+00  0.96837803951E+00  0.10523246869E+01  0.17682168015E+01  0.93800000000E+00 0. -1.
         22    1    1    2    0    0  0.20743667175E+00 -0.49593742903E-01  0.62225000602E+00  0.65778764211E+00  0.00000000000E+00 0. -1.
</event>
<event>
 5    1  0.1560836E+002  0.1599654E+01  0.7818608E-02  0.3353739E+00
         11   -1    0    0    0    0  0.00000000000E+00  0.00000000000E+00  0.39999999674E+01  0.40000000000E+01  0.51100000000E-03 0. -1.
    9000002   -1    0    0    0    0 -0.00000000000E+00 -0.00000000000E+00  0.00000000000E+00  0.93800000000E+00  0.93800000000E+00 0.  1.
         11    1    1    2    0    0  0.44282682734E-01  0.58455768123E-01  0.73869796566E+00  0.74232942714E+00  0.51100000000E-03 0. -1.
    9000002    1    1    2    0    0 -0.25726269759E+00 -0.30549204935E+00  0.10760338210E+00  0.10251497333E+01  0.93800000000E+00 0.  1.
         22    1    1    2    0    0  0.21298001485E+00  0.24703628123E+00  0.31536986196E+01  0.31705208396E+01  0.00000000000E+00 0. -1.
</event>
<event>
 5    1  0.1560836E+002  0.1590241E+01  0.7818608E-02  0.3364025E+00
         11   -1    0    0    0    0  0.00000000000E+00  0.00000000000E+00  0.39999999674E+01  0.40000000000E+01  0.51100000000E-03 0.  1.
    9000002   -1    0    0    0    0 -0.00000000000E+00 -0.00000000000E+00  0.00000000000E+00  0.93800000000E+00  0.93800000000E+00 0. -1.
         11    1    1    2    0    0  0.87034177311E-01 -0.49126625105E-01  0.83068814804E+00  0.83667881157E+00  0.51100000000E-03 0.  1.
    9000002    1    1    2    0    0  0.39186767969E-01  0.24174861715E+00  0.47057779825E-01  0.97058561257E+00  0.93800000000E+00 0. -1.
         22    1    1    2    0    0 -0.12622094528E+00 -0.19262199204E+00  0.31222540395E+01  0.31307355759E+01  0.00000000000E+00 0.  1.
</event>
<event>
 5    1  0.1560836E+002  0.1599671E+01  0.7818608E-02  0.3353721E+00
         11   -1    0    0    0    0  0.00000000000E+00  0.00000000000E+00  0.39999999674E+01  0.40000000000E+01  0.51100000000E-03 0. -1.
    9000002   -1    0    0    0    0 -0.00000000000E+00 -0.00000000000E+00  0.00000000000E+00  0.93800000000E+00  0.93800000000E+00 0.  1.
         11    1    1    2    0    0  0.78325667507E-01  0.21319392989E-01  0.40495749807E+00  0.41301363546E+00  0.51100000000E-03 0. -1.
    9000002    1    1    2    0    0 -0.71135723647E+00 -0.19954196381E+00  0.39439287795E+00  0.12574720098E+01  0.93800000000E+00 0.  1.
         22    1    1    2    0    0  0.63303156896E+00  0.17822257082E+00  0.32006495913E+01  0.32675143548E+01  0.00000000000E+00 0. -1.
</event>
<event>
 5    1  0.1560836E+002  0.1599395E+01  0.7818608E-02  0.3354020E+00
         11   -1    0    0    0    0  0.00000000000E+00  0.00000000000E+00  0.39999999674E+01  0.40000000000E+01  0.51100000000E-03 0.  1.
    9000002   -1    0    0    0    0 -0.00000000000E+00 -0.00000000000E+00  0.00000000000E+00  0.93800000000E+00  0.93800000000E+00 0. -1.
         11    1    1    2    0    0  0.14828687478E-01 -0.51603168381E-01  0.54112016582E+00  0.54377759419E+00  0.51100000000E-03 0.  1.
    9000002    1    1    2    0    0 -0.84480759246E-01  0.46504807808E+00  0.15250574606E+00  0.10613711491E+01  0.93800000000E+00 0. -1.
         22    1    1    2    0    0  0.69652071768E-01 -0.41344490970E+00  0.33063740555E+01  0.33328512567E+01  0.00000000000E+00 0.  1.
</event>
<event>
 5    1  0.1560836E+002  0.1599630E+01  0.7818608E-02  0.3353765E+00
         11   -1    0    0    0    0  0.00000000000E+00  0.00000000000E+00  0.39999999674E+01  0.40000000000E+01  0.51100000000E-03 0. -1.
    9000002   -1    0    0    0    0 -0.00000000000E+00 -0.00000000000E+00  0.00000000000E+00  0.93800000000E+00  0.93800000000E+00 0.  1.
         11    1    1    2    0    0  0.49289444941E-01 -0.17184317227E+00  0.16908088501E+01  0.17002336175E+01  0.51100000000E-03 0. -1.
    9000002    1    1    2    0    0 -0.11041928939E+00  0.37732995386E+00  0.10420876809E+00  0.10223863169E+01  0.93800000000E+00 0.  1.
         22    1    1    2    0    0  0.61129844446E-01 -0.20548678159E+00  0.22049823492E+01  0.22153800657E+01  0.00000000000E+00 0. -1.
</event>
<event>
 5    1  0.1560836E+002  0.1587021E+01  0.7818608E-02  0.3367572E+00
         11   -1    0    0    0    0  0.00000000000E+00  0.00000000000E+00  0.39999999674E+01  0.40000000000E+01  0.51100000000E-03 0.  1.
    9000002   -1    0    0    0    0 -0.00000000000E+00 -0.00000000000E+00  0.00000000000E+00  0.93800000000E+00  0.93800000000E+00 0.  1.
         11    1    1    2    0    0 -0.16644413070E-01  0.24864847500E-01  0.56956054667E-01  0.64339337981E-01  0.51100000000E-03 0.  1.
    9000002    1    1    2    0    0  0.38167421722E+00  0.47005538053E+00  0.26886721636E+00  0.11483731314E+01  0.93800000000E+00 0.  1.
         22    1    1    2    0    0 -0.36502980415E+00 -0.49492022803E+00  0.36741766963E+01  0.37252875306E+01  0.00000000000E+00 0.  1.
</event>
<event>
 5    1  0.1560836E+002  0.1598978E+01  0.7818608E-02  0.3354473E+00
         11   -1    0    0    0    0  0.00000000000E+00  0.00000000000E+00  0.39999999674E+01  0.40000000000E+01  0.51100000000E-03 0.  1.
    9000002   -1    0    0    0    0 -0.00000000000E+00 -0.00000000000E+00  0.00000000000E+00  0.93800000000E+00  0.93800000000E+00 0.  1.
         11    1    1    2    0    0 -0.10557270151E+00 -0.11479582520E+00  0.18478838295E+01  0.18544537161E+01  0.51100000000E-03 0.  1.
    9000002    1    1    2    0    0  0.27500315464E+00  0.28395885721E+00  0.10591675751E+00  0.10233873788E+01  0.93800000000E+00 0.  1.
         22    1    1    2    0    0 -0.16943045313E+00 -0.16916303202E+00  0.20461993804E+01  0.20601589050E+01  0.00000000000E+00 0.  1.
</event>
<event>
 5    1  0.1560836E+002  0.1599676E+01  0.7818608E-02  0.3353716E+00
         11   -1    0    0    0    0  0.00000000000E+00  0.00000000000E+00  0.39999999674E+01  0.40000000000E+01  0.51100000000E-03 0. -1.
    9000002   -1    0    0    0    0 -0.00000000000E+00 -0.00000000000E+00  0.00000000000E+00  0.93800000000E+00  0.93800000000E+00 0.  1.
         11    1    1    2    0    0  0.15488584756E-01  0.16214710380E-02  0.25643443410E+00  0.25690738709E+00  0.51100000000E-03 0. -1.
    9000002    1    1    2    0    0 -0.23969155887E+00 -0.16398732337E-01  0.38316560620E-01  0.96903721323E+00  0.93800000000E+00 0.  1.
         22    1    1    2    0    0  0.22420297411E+00  0.14777261299E-01  0.37052489726E+01  0.37120553997E+01  0.00000000000E+00 0. -1.
</event>
<event>
 5    1  0.1560836E+002  0.1599651E+01  0.7818608E-02  0.3353742E+00
         11   -1    0    0    0    0  0.00000000000E+00  0.00000000000E+00  0.39999999674E+01  0.40000000000E+01  0.51100000000E-03 0.  1.
    9000002   -1    0    0    0    0 -0.00000000000E+00 -0.00000000000E+00  0.00000000000E+00  0.93800000000E+00  0.93800000000E+00 0. -1.
         11    1    1    2    0    0  0.16907948317E-01  0.11704983678E+00  0.10398213058E+01  0.10465252754E+01  0.51100000000E-03 0.  1.
    9000002    1    1    2    0    0 -0.78408716618E-01 -0.42311589596E+00  0.12543483388E+00  0.10395926538E+01  0.93800000000E+00 0. -1.
         22    1    1    2    0    0  0.61500768301E-01  0.30606605918E+00  0.28347438277E+01  0.28518820708E+01  0.00000000000E+00 0.  1.
</event>
<event>
 5    1  0.1560836E+002  0.1599631E+01  0.7818608E-02  0.3353763E+00
         11   -1    0    0    0    0  0.00000000000E+00  0.00000000000E+00  0.39999999674E+01  0.40000000000E+01  0.51100000000E-03 0.  1.
    9000002   -1    0    0    0    0 -0.00000000000E+00 -0.00000000000E+00  0.00000000000E+00  0.93800000000E+00  0.93800000000E+00 0. -1.
         11    1    1    2    0    0 -0.46227847987E-01 -0.78745324524E-01  0.10415562156E+01  0.10455512668E+01  0.51100000000E-03 0.  1.
    9000002    1    1    2    0    0  0.18273341678E+00  0.27126291611E+00  0.71589497142E-01  0.99596391871E+00  0.93800000000E+00 0. -1.
         22    1    1    2    0    0 -0.13650556879E+00 -0.19251759158E+00  0.28868542546E+01  0.28964848145E+01  0.00000000000E+00 0.  1.
</event>
<event>
 5    1  0.1560836E+002  0.1599677E+01  0.7818608E-02  0.3353714E+00
         11   -1    0    0    0    0  0.00000000000E+00  0.00000000000E+00  0.39999999674E+01  0.40000000000E+01  0.51100000000E-03 0. -1.
    9000002   -1    0    0    0    0 -0.00000000000E+00 -0.00000000000E+00  0.00000000000E+00  0.93800000000E+00  0.93800000000E+00 0.  1.
         11    1    1    2    0    0  0.40116054515E+00  0.25253480476E+00  0.21254621808E+01  0.21776807282E+01  0.51100000000E-03 0. -1.
    9000002    1    1    2    0    0 -0.66892959262E+00 -0.41979290428E+00  0.45785007975E+00  0.13088787484E+01  0.93800000000E+00 0.  1.
         22    1    1    2    0    0  0.26776904746E+00  0.16725809952E+00  0.14166877068E+01  0.14514405235E+01  0.00000000000E+00 0.  1.
</event>
<event>
 5    1  0.1560836E+002  0.1599649E+01  0.7818608E-02  0.3353744E+00
         11   -1    0    0    0    0  0.00000000000E+00  0.00000000000E+00  0.39999999674E+01  0.40000000000E+01  0.51100000000E-03 0. -1.
    9000002   -1    0    0    0    0 -0.00000000000E+00 -0.00000000000E+00  0.00000000000E+00  0.93800000000E+00  0.93800000000E+00 0.  1.
         11    1    1    2    0    0  0.21515186412E+00  0.12088063412E+00  0.18095403838E+01  0.18262910814E+01  0.51100000000E-03 0. -1.
    9000002    1    1    2    0    0 -0.46425403500E+00 -0.26043871840E+00  0.19510051165E+00  0.10960238796E+01  0.93800000000E+00 0.  1.
         22    1    1    2    0    0  0.24910217089E+00  0.13955808427E+00  0.19953590719E+01  0.20156850390E+01  0.00000000000E+00 0. -1.
</event>
<event>
 5    1  0.1560836E+002  0.1535489E+01  0.7818608E-02  0.3426502E+00
         11   -1    0    0    0    0  0.00000000000E+00  0.00000000000E+00  0.39999999674E+01  0.40000000000E+01  0.51100000000E-03 0.  1.
    9000002   -1    0    0    0    0 -0.00000000000E+00 -0.00000000000E+00  0.00000000000E+00  0.93800000000E+00  0.93800000000E+00 0.  1.
         11    1    1    2    0    0  0.23239331659E+00  0.21113673499E+00  0.33576614010E+01  0.33723101457E+01  0.51100000000E-03 0.  1.
    9000002    1    1    2    0    0 -0.12943157511E+00 -0.35807481656E-01  0.60666212396E-01  0.94950465913E+00  0.93800000000E+00 0.  1.
         22    1    1    2    0    0 -0.10296174149E+00 -0.17532925333E+00  0.58167235400E+00  0.61618519513E+00  0.00000000000E+00 0.  1.
</event>
<event>
 5    1  0.1560836E+002  0.1598630E+01  0.7818608E-02  0.3354852E+00
         11   -1    0    0    0    0  0.00000000000E+00  0.00000000000E+00  0.39999999674E+01  0.40000000000E+01  0.51100000000E-03 0.  1.
    9000002   -1    0    0    0    0 -0.00000000000E+00 -0.00000000000E+00  0.00000000000E+00  0.93800000000E+00  0.93800000000E+00 0.  1.
         11    1    1    2    0    0  0.20306898804E-02 -0.74026240120E-02  0.54736457904E-01  0.55274437931E-01  0.51100000000E-03 0.  1.
    9000002    1    1    2    0    0  0.41072469705E+00  0.18515172903E+00  0.13877383642E+00  0.10497990842E+01  0.93800000000E+00 0.  1.
         22    1    1    2    0    0 -0.41275538693E+00 -0.17774910502E+00  0.38064896730E+01  0.38329264779E+01  0.00000000000E+00 0.  1.
</event>
<event>
 5    1  0.1560836E+002  0.1592236E+01  0.7818608E-02  0.3361834E+00
         11   -1    0    0    0    0  0.00000000000E+00  0.00000000000E+00  0.39999999674E+01  0.40000000000E+01  0.51100000000E-03 0.  1.
    9000002   -1    0    0    0    0 -0.00000000000E+00 -0.00000000000E+00  0.00000000000E+00  0.93800000000E+00  0.93800000000E+00 0. -1.
         11    1    1    2    0    0 -0.15372747885E-01  0.22573216973E-01  0.13100617183E+00  0.13382357670E+00  0.51100000000E-03 0.  1.
    9000002    1    1    2    0    0 -0.20113443111E+00  0.22555382702E+00  0.66793567484E-01  0.98774235959E+00  0.93800000000E+00 0. -1.
         22    1    1    2    0    0  0.21650717900E+00 -0.24812704400E+00  0.38022002280E+01  0.38164340637E+01  0.00000000000E+00 0.  1.
</event>
<event>
 5    1  0.1560836E+002  0.1592474E+01  0.7818608E-02  0.3361572E+00
         11   -1    0    0    0    0  0.00000000000E+00  0.00000000000E+00  0.39999999674E+01  0.40000000000E+01  0.51100000000E-03 0. -1.
    9000002   -1    0    0    0    0 -0.00000000000E+00 -0.00000000000E+00  0.00000000000E+00  0.93800000000E+00  0.93800000000E+00 0.  1.
         11    1    1    2    0    0 -0.83211597207E-02 -0.10647848222E-01  0.18217133784E-01  0.22687958374E-01  0.51100000000E-03 0. -1.
    9000002    1    1    2    0    0 -0.95274454579E-01 -0.19624908344E+00  0.36995499543E-01  0.96374456752E+00  0.93800000000E+00 0.  1.
         22    1    1    2    0    0  0.10359561430E+00  0.20689693166E+00  0.39447873340E+01  0.39515674741E+01  0.00000000000E+00 0. -1.
</event>
<event>
 5    1  0.1560836E+002  0.1599011E+01  0.7818608E-02  0.3354437E+00
         11   -1    0    0    0    0  0.00000000000E+00  0.00000000000E+00  0.39999999674E+01  0.40000000000E+01  0.51100000000E-03 0.  1.
    9000002   -1    0    0    0    0 -0.00000000000E+00 -0.00000000000E+00  0.00000000000E+00  0.93800000000E+00  0.93800000000E+00 0.  1.
         11    1    1    2    0    0  0.11561766080E+00  0.30947392158E+00  0.21498339210E+01  0.21750695853E+01  0.51100000000E-03 0.  1.
    9000002    1    1    2    0    0 -0.24043918511E+00 -0.50496122558E+00  0.21706883361E+00  0.11134449783E+01  0.93800000000E+00 0.  1.
         22    1    1    2    0    0  0.12482152432E+00  0.19548730401E+00  0.16330972127E+01  0.16494854365E+01  0.00000000000E+00 0.  1.
</event>
<event>
 5    1  0.1560836E+002  0.1599232E+01  0.7818608E-02  0.3354197E+00
         11   -1    0    0    0    0  0.00000000000E+00  0.00000000000E+00  0.39999999674E+01  0.40000000000E+01  0.51100000000E-03 0. -1.
    9000002   -1    0    0    0    0 -0.00000000000E+00 -0.00000000000E+00  0.00000000000E+00  0.93800000000E+00  0.93800000000E+00 0. -1.
         11    1    1    2    0    0 -0.10427457604E+00  0.33339587338E-01  0.10160161235E+01  0.10218971277E+01  0.51100000000E-03 0. -1.
    9000002    1    1    2    0    0  0.32091197407E+00 -0.10148506906E+00  0.76203213916E-01  0.99946718013E+00  0.93800000000E+00 0. -1.
         22    1    1    2    0    0 -0.21663739802E+00  0.68145481723E-01  0.29077806300E+01  0.29166356922E+01  0.00000000000E+00 0. -1.
</event>
<event>
 5    1  0.1560836E+002  0.1598642E+01  0.7818608E-02  0.3354838E+00
         11   -1    0    0    0    0  0.00000000000E+00  0.00000000000E+00  0.39999999674E+01  0.40000000000E+01  0.51100000000E-03 0.  1.
    9000002   -1    0    0    0    0 -0.00000000000E+00 -0.00000000000E+00  0.00000000000E+00  0.93800000000E+00  0.93800000000E+00 0. -1.
         11    1    1    2    0    0 -0.12288220661E-01 -0.28357706797E-02  0.47998196933E-01  0.49629930407E-01  0.51100000000E-03 0.  1.
    9000002    1    1    2    0    0  0.62956728345E+00 -0.38599638251E+00  0.39520918391E+00  0.12575303061E+01  0.93800000000E+00 0. -1.
         22    1    1    2    0    0 -0.61727906279E+00  0.38883215319E+00  0.35567925865E+01  0.36308397635E+01  0.00000000000E+00 0.  1.
</event>
<event>
 5    1  0.1560836E+002  0.1599642E+01  0.7818608E-02  0.3353752E+00
         11   -1    0    0    0    0  0.00000000000E+00  0.00000000000E+00  0.39999999674E+01  0.40000000000E+01  0.51100000000E-03 0. -1.
    9000002   -1    0    0    0    0 -0.00000000000E+00 -0.00000000000E+00  0.00000000000E+00  0.93800000000E+00  0.93800000000E+00 0. -1.
         11    1    1    2    0    0 -0.44501388546E-01  0.17308228031E+00  0.16501652167E+01  0.16598142525E+01  0.51100000000E-03 0. -1.
    9000002    1    1    2    0    0  0.97027463621E-01 -0.42112825174E+00  0.12655118619E+00  0.10404914876E+01  0.93800000000E+00 0. -1.
         22    1    1    2    0    0 -0.52526075074E-01  0.24804597142E+00  0.22232835645E+01  0.22376942598E+01  0.00000000000E+00 0. -1.
</event>
<event>
 5    1  0.1560836E+002  0.1599030E+01  0.7818608E-02  0.3354416E+00
         11   -1    0    0    0    0  0.00000000000E+00  0.00000000000E+00  0.39999999674E+01  0.40000000000E+01  0.51100000000E-03 0.  1.
    9000002   -1    0    0    0    0 -0.00000000000E+00 -0.00000000000E+00  0.00000000000E+00  0.93800000000E+00  0.93800000000E+00 0.  1.
         11    1    1    2    0    0 -0.79511919847E-01 -0.75282985673E-01  0.11854134269E+01  0.11904599646E+01  0.51100000000E-03 0.  1.
    9000002    1    1    2    0    0  0.31073459152E+00  0.16922945001E+00  0.84501974139E-01  0.10060711589E+01  0.93800000000E+00 0.  1.
         22    1    1    2    0    0 -0.23122267167E+00 -0.93946464333E-01  0.27300845663E+01  0.27414688765E+01  0.00000000000E+00 0.  1.
</event>
<event>
 5    1  0.1560836E+002  0.1559310E+01  0.7818608E-02  0.3398747E+00
         11   -1    0    0    0    0  0.00000000000E+00  0.00000000000E+00  0.39999999674E+01  0.40000000000E+01  0.51100000000E-03 0. -1.
    9000002   -1    0    0    0    0 -0.00000000000E+00 -0.00000000000E+00  0.00000000000E+00  0.93800000000E+00  0.93800000000E+00 0. -1.
         11    1    1    2    0    0  0.85451751267E-01 -0.14706550529E+00  0.10623149425E+01  0.10758455107E+01  0.51100000000E-03 0. -1.
    9000002    1    1    2    0    0 -0.24709506754E-01 -0.19481088862E+00  0.56368995799E-01  0.95999130503E+00  0.93800000000E+00 0. -1.
         22    1    1    2    0    0 -0.60742244514E-01  0.34187639392E+00  0.28813160291E+01  0.29021631843E+01  0.00000000000E+00 0. -1.
</event>
<event>
 5    1  0.1560836E+002  0.1594692E+01  0.7818608E-02  0.3359145E+00
         11   -1    0    0    0    0  0.00000000000E+00  0.00000000000E+00  0.39999999674E+01  0.40000000000E+01  0.51100000000E-03 0. -1.
    9000002   -1    0    0    0    0 -0.00000000000E+00 -0.00000000000E+00  0.00000000000E+00  0.93800000000E+00  0.93800000000E+00 0.  1.
         11    1    1    2    0    0 -0.46767708377E-01 -0.12059370132E-01  0.11781013029E+01  0.11790910007E+01  0.51100000000E-03 0. -1.
    9000002    1    1    2    0    0  0.51468590820E-01 -0.19845639245E+00  0.31587774657E-01  0.96066421972E+00  0.93800000000E+00 0.  1.
         22    1    1    2    0    0 -0.47008824434E-02  0.21051576258E+00  0.27903108898E+01  0.27982447796E+01  0.00000000000E+00 0. -1.
</event>
<event>
 5    1  0.1560836E+002  0.1599637E+01  0.7818608E-02  0.3353757E+00
         11   -1    0    0    0    0  0.00000000000E+00  0.00000000000E+00  0.39999999674E+01  0.40000000000E+01  0.51100000000E-03 0. -1.
    9000002   -1    0    0    0    0 -0.00000000000E+00 -0.00000000000E+00  0.00000000000E+00  0.93800000000E+00  0.93800000000E+00 0.  1.
         11    1    1    2    0    0  0.65457961980E-01 -0.34287908054E-02  0.80173025248E+00  0.80440547005E+00  0.51100000000E-03 0. -1.
    9000002    1    1    2    0    0 -0.29195376776E+00  0.15026111158E-01  0.57004060346E-01  0.98415255394E+00  0.93800000000E+00 0.  1.
         22    1    1    2    0    0  0.22649580578E+00 -0.11597320352E-01  0.31412656545E+01  0.31494419760E+01  0.00000000000E+00 0. -1.
</event>
<event>
 5    1  0.1560836E+002  0.1599598E+01  0.7818608E-02  0.3353800E+00
         11   -1    0    0    0    0  0.00000000000E+00  0.00000000000E+00  0.39999999674E+01  0.40000000000E+01  0.51100000000E-03 0.  1.
    9000002   -1    0    0    0    0 -0.00000000000E+00 -0.00000000000E+00  0.00000000000E+00  0.93800000000E+00  0.93800000000E+00 0. -1.
         11    1    1    2    0    0  0.13089425293E+00 -0.35269517909E-01  0.10811633171E+01  0.10896291221E+01  0.51100000000E-03 0.  1.
    9000002    1    1    2    0    0 -0.45249256790E+00  0.94518644764E-01  0.14546597099E+00  0.10557876903E+01  0.93800000000E+00 0. -1.
         22    1    1    2    0    0  0.32159831498E+00 -0.59249126855E-01  0.27733706793E+01  0.27925831876E+01  0.00000000000E+00 0.  1.
</event>
<event>
 5    1  0.1560836E+002  0.1599674E+01  0.7818608E-02  0.3353717E+00
         11   -1    0    0    0    0  0.00000000000E+00  0.00000000000E+00  0.39999999674E+01  0.40000000000E+01  0.51100000000E-03 0. -1.
    9000002   -1    0    0    0    0 -0.00000000000E+00 -0.00000000000E+00  0.00000000000E+00  0.93800000000E+00  0.93800000000E+00 0. -1.
         11    1    1    2    0    0 -0.36976693568E+00 -0.18428985709E+00  0.20868713678E+01  0.21273746038E+01  0.51100000000E-03 0. -1.
    9000002    1    1    2    0    0  0.64448070900E+00  0.32338724687E+00  0.37375119965E+00  0.12407532611E+01  0.93800000000E+00 0. -1.
         22    1    1    2    0    0 -0.27471377332E+00 -0.13909738978E+00  0.15393774000E+01  0.15698721351E+01  0.00000000000E+00 0.  1.
</event>
<event>
 5    1  0.1560836E+002  0.1597084E+01  0.7818608E-02  0.3356534E+00
         11   -1    0    0    0    0  0.00000000000E+00  0.00000000000E+00  0.39999999674E+01  0.40000000000E+01  0.51100000000E-03 0.  1.
    9000002   -1    0    0    0    0 -0.00000000000E+00 -0.00000000000E+00  0.00000000000E+00  0.93800000000E+00  0.93800000000E+00 0.  1.
         11    1    1    2    0    0 -0.99577681549E-02 -0.97162168533E-01  0.19723592122E+01  0.19747761309E+01  0.51100000000E-03 0.  1.
    9000002    1    1    2    0    0  0.88539326791E-01  0.29533631992E+00  0.65508607069E-01  0.98954440621E+00  0.93800000000E+00 0.  1.
         22    1    1    2    0    0 -0.78581558637E-01 -0.19817415139E+00  0.19621321481E+01  0.19736794629E+01  0.00000000000E+00 0.  1.
</event>
<event>
 5    1  0.1560836E+002  0.1598407E+01  0.7818608E-02  0.3355094E+00
         11   -1    0    0    0    0  0.00000000000E+00  0.00000000000E+00  0.39999999674E+01  0.40000000000E+01  0.51100000000E-03 0. -1.
    9000002   -1    0    0    0    0 -0.00000000000E+00 -0.00000000000E+00  0.00000000000E+00  0.93800000000E+00  0.93800000000E+00 0. -1.
         11    1    1    2    0    0 -0.22856446799E-01 -0.12810670605E+00  0.13882077928E+01  0.13942936858E+01  0.51100000000E-03 0. -1.
    9000002    1    1    2    0    0 -0.19888044168E-01  0.43603555808E+00  0.13023295279E+00  0.10427498090E+01  0.93800000000E+00 0. -1.
         22    1    1    2    0    0  0.42744490966E-01 -0.30792885203E+00  0.24815592218E+01  0.25009565052E+01  0.00000000000E+00 0. -1.
</event>
<event>
 5    1  0.1560836E+002  0.1594743E+01  0.7818608E-02  0.3359089E+00
         11   -1    0    0    0    0  0.00000000000E+00  0.00000000000E+00  0.39999999674E+01  0.40000000000E+01  0.51100000000E-03 0. -1.
    9000002   -1    0    0    0    0 -0.00000000000E+00 -0.00000000000E+00  0.00000000000E+00  0.93800000000E+00  0.93800000000E+00 0.  1.
         11    1    1    2    0    0 -0.11533453381E-01 -0.56772344910E-01  0.44885276615E+00  0.45257616651E+00  0.51100000000E-03 0. -1.
    9000002    1    1    2    0    0  0.26332736450E+00  0.55581974524E-01  0.52001420877E-01  0.97723016969E+00  0.93800000000E+00 0.  1.
         22    1    1    2    0    0 -0.25179391112E+00  0.11903703855E-02  0.34991457803E+01  0.35081936638E+01  0.00000000000E+00 0. -1.
</event>
<event>
 5    1  0.1560836E+002  0.1598163E+01  0.7818608E-02  0.3355360E+00
         11   -1    0    0    0    0  0.00000000000E+00  0.00000000000E+00  0.39999999674E+01  0.40000000000E+01  0.51100000000E-03 0. -1.
    9000002   -1    0    0    0    0 -0.00000000000E+00 -0.00000000000E+00  0.00000000000E+00  0.93800000000E+00  0.93800000000E+00 0.  1.
         11    1    1    2    0    0  0.15851435445E-01 -0.25821857762E-02  0.23761786863E+00  0.23816055152E+00  0.51100000000E-03 0. -1.
    9000002    1    1    2    0    0 -0.31464382804E-01 -0.24531954703E+00  0.41784091986E-01  0.97095911236E+00  0.93800000000E+00 0.  1.
         22    1    1    2    0    0  0.15612947359E-01  0.24790173281E+00  0.37205980067E+01  0.37288803361E+01  0.00000000000E+00 0. -1.
</event>
<event>
 5    1  0.1560836E+002  0.1599674E+01  0.7818608E-02  0.3353718E+00
         11   -1    0    0    0    0  0.00000000000E+00  0.00000000000E+00  0.39999999674E+01  0.40000000000E+01  0.51100000000E-03 0.  1.
    9000002   -1    0    0    0    0 -0.00000000000E+00 -0.00000000000E+00  0.00000000000E+00  0.93800000000E+00  0.93800000000E+00 0. -1.
         11    1    1    2    0    0  0.10498213463E+00  0.16911358483E-01  0.92368240340E+00  0.92978313929E+00  0.51100000000E-03 0.  1.
    9000002    1    1    2    0    0 -0.43309248052E+00 -0.67070785759E-01  0.13022982784E+00  0.10434900072E+01  0.93800000000E+00 0. -1.
         22    1    1    2    0    0  0.32811034588E+00  0.50159427276E-01  0.29460877361E+01  0.29647268535E+01  0.00000000000E+00 0.  1.
</event>
<event>
 5    1  0.1560836E+002  0.1599674E+01  0.7818608E-02  0.3353717E+00
         11   -1    0    0    0    0  0.00000000000E+00  0.00000000000E+00  0.39999999674E+01  0.40000000000E+01  0.51100000000E-03 0.  1.
    9000002   -1    0    0    0    0 -0.00000000000E+00 -0.00000000000E+00  0.00000000000E+00  0.93800000000E+00  0.93800000000E+00 0. -1.
         11    1    1    2    0    0  0.25812911932E+00 -0.12544731796E+00  0.18614744978E+01  0.18834689376E+01  0.51100000000E-03 0.  1.
    9000002    1    1    2    0    0 -0.52163879312E+00  0.24996762655E+00  0.23239953411E+00  0.11262523644E+01  0.93800000000E+00 0. -1.
         22    1    1    2    0    0  0.26350967380E+00 -0.12452030859E+00  0.19061259354E+01  0.19282786980E+01  0.00000000000E+00 0.  1.
</event>
<event>
 5    1  0.1560836E+002  0.1599507E+01  0.7818608E-02  0.3353898E+00
         11   -1    0    0    0    0  0.00000000000E+00  0.00000000000E+00  0.39999999674E+01  0.40000000000E+01  0.51100000000E-03 0. -1.
    9000002   -1    0    0    0    0 -0.00000000000E+00 -0.00000000000E+00  0.00000000000E+00  0.93800000000E+00  0.93800000000E+00 0.  1.
         11    1    1    2    0    0  0.96227103481E-01 -0.15705234572E+00  0.97826507216E+00  0.99545361884E+00  0.51100000000E-03 0. -1.
    9000002    1    1    2    0    0 -0.37790577732E+00  0.54215618364E+00  0.30918491395E+00  0.11883540781E+01  0.93800000000E+00 0.  1.
         22    1    1    2    0    0  0.28167867384E+00 -0.38510383792E+00  0.27125499813E+01  0.27541923030E+01  0.00000000000E+00 0. -1.
</event>
<event>
 5    1  0.1560836E+002  0.1599676E+01  0.7818608E-02  0.3353716E+00
         11   -1    0    0    0    0  0.00000000000E+00  0.00000000000E+00  0.39999999674E+01  0.40000000000E+01  0.51100000000E-03 0. -1.
    9000002   -1    0    0    0    0 -0.00000000000E+00 -0.00000000000E+00  0.00000000000E+00  0.93800000000E+00  0.93800000000E+00 0.  1.
         11    1    1    2    0    0 -0.75393522837E-01 -0.54813026493E-01  0.11564939812E+01  0.11602444746E+01  0.51100000000E-03 0. -1.
    9000002    1    1    2    0    0  0.25213210384E+00  0.18556066481E+00  0.65461747545E-01  0.99102603321E+00  0.93800000000E+00 0.  1.
         22    1    1    2    0    0 -0.17673858101E+00 -0.13074763832E+00  0.27780442386E+01  0.27867294922E+01  0.00000000000E+00 0. -1.
</event>
<event>
 5    1  0.1560836E+002  0.1598245E+01  0.7818608E-02  0.3355270E+00
         11   -1    0    0    0    0  0.00000000000E+00  0.00000000000E+00  0.39999999674E+01  0.40000000000E+01  0.51100000000E-03 0. -1.
    9000002   -1    0    0    0    0 -0.00000000000E+00 -0.00000000000E+00  0.00000000000E+00  0.93800000000E+00  0.93800000000E+00 0. -1.
         11    1    1    2    0    0  0.19613201272E+00 -0.14998580245E+00  0.13644831514E+01  0.13866427222E+01  0.51100000000E-03 0. -1.
    9000002    1    1    2    0    0 -0.43841674239E+00  0.35202224411E+00  0.22023587393E+00  0.11155611774E+01  0.93800000000E+00 0. -1.
         22    1    1    2    0    0  0.24228472967E+00 -0.20203644166E+00  0.24152809420E+01  0.24357961004E+01  0.00000000000E+00 0. -1.
</event>
<event>
 5    1  0.1560836E+002  0.1599660E+01  0.7818608E-02  0.3353732E+00
         11   -1    0    0    0    0  0.00000000000E+00  0.00000000000E+00  0.39999999674E+01  0.40000000000E+01  0.51100000000E-03 0.  1.
    9000002   -1    0    0    0    0 -0.00000000000E+00 -0.00000000000E+00  0.00000000000E+00  0.93800000000E+00  0.93800000000E+00 0. -1.
         11    1    1    2    0    0  0.23374288646E-01 -0.71344863958E-01  0.80969090432E+00  0.81316423227E+00  0.51100000000E-03 0.  1.
    9000002    1    1    2    0    0 -0.10251847427E+00  0.32914265540E+00  0.79654563252E-01  0.10025137279E+01  0.93800000000E+00 0. -1.
         22    1    1    2    0    0  0.79144185629E-01 -0.25779779144E+00  0.31106544998E+01  0.31223220398E+01  0.00000000000E+00 0.  1.
</event>
<event>
 5    1  0.1560836E+002  0.1599464E+01  0.7818608E-02  0.3353946E+00
         11   -1    0    0    0    0  0.00000000000E+00  0.00000000000E+00  0.39999999674E+01  0.40000000000E+01  0.51100000000E-03 0.  1.
    9000002   -1    0    0    0    0 -0.00000000000E+00 -0.00000000000E+00  0.00000000000E+00  0.93800000000E+00  0.93800000000E+00 0. -1.
         11    1    1    2    0    0 -0.32215188589E-01 -0.51556490137E-01  0.64715673997E+00  0.65000615171E+00  0.51100000000E-03 0.  1.
    9000002    1    1    2    0    0  0.13672922096E+00  0.36456951072E+00  0.10229995614E+00  0.10207424205E+01  0.93800000000E+00 0. -1.
         22    1    1    2    0    0 -0.10451403238E+00 -0.31301302059E+00  0.32505432712E+01  0.32672514278E+01  0.00000000000E+00 0.  1.
</event>
<event>
 5    1  0.1560836E+002  0.1599666E+01  0.7818608E-02  0.3353727E+00
         11   -1    0    0    0    0  0.00000000000E+00  0.00000000000E+00  0.39999999674E+01  0.40000000000E+01  0.51100000000E-03 0.  1.
    9000002   -1    0    0    0    0 -0.00000000000E+00 -0.00000000000E+00  0.00000000000E+00  0.93800000000E+00  0.93800000000E+00 0.  1.
         11    1    1    2    0    0  0.41570313069E-01 -0.41812873057E-02  0.52491081116E+00  0.52657116793E+00  0.51100000000E-03 0.  1.
    9000002    1    1    2    0    0 -0.32803281655E+00  0.19582444054E-01  0.72252094717E-01  0.99652063001E+00  0.93800000000E+00 0.  1.
         22    1    1    2    0    0  0.28646250349E+00 -0.15401156749E-01  0.34028370615E+01  0.34149082021E+01  0.00000000000E+00 0.  1.
</event>
<event>
 5    1  0.1560836E+002  0.1599674E+01  0.7818608E-02  0.3353718E+00
         11   -1    0    0    0    0  0.00000000000E+00  0.00000000000E+00  0.39999999674E+01  0.40000000000E+01  0.51100000000E-03 0. -1.
    9000002   -1    0    0    0    0 -0.00000000000E+00 -0.00000000000E+00  0.00000000000E+00  0.93800000000E+00  0.93800000000E+00 0. -1.
         11    1    1    2    0    0  0.83348409558E-01  0.17155798392E-01  0.11704831176E+01  0.11735724386E+01  0.51100000000E-03 0. -1.
    9000002    1    1    2    0    0 -0.28212197448E+00 -0.64348266459E-01  0.55807965125E-01  0.98320498211E+00  0.93800000000E+00 0. -1.
         22    1    1    2    0    0  0.19877356493E+00  0.47192468067E-01  0.27737088846E+01  0.27812225793E+01  0.00000000000E+00 0. -1.
</event>
<event>
 5    1  0.1560836E+002  0.1598025E+01  0.7818608E-02  0.3355510E+00
         11   -1    0    0    0    0  0.00000000000E+00  0.00000000000E+00  0.39999999674E+01  0.40000000000E+01  0.51100000000E-03 0. -1.
    9000002   -1    0    0    0    0 -0.00000000000E+00 -0.00000000000E+00  0.00000000000E+00  0.93800000000E+00  0.93800000000E+00 0. -1.
         11    1    1    2    0    0  0.38424722288E-01  0.77161553133E-01  0.68839874418E+00  0.69377478815E+00  0.51100000000E-03 0. -1.
    9000002    1    1    2    0    0 -0.37390398457E+00 -0.29501809991E+00  0.15614448861E+00  0.10635153832E+01  0.93800000000E+00 0. -1.
         22    1    1    2    0    0  0.33547926228E+00  0.21785654678E+00  0.31554567346E+01  0.31807098287E+01  0.00000000000E+00 0. -1.
</event>
<event>
 5    1  0.1560836E+002  0.1599644E+01  0.7818608E-02  0.3353750E+00
         11   -1    0    0    0    0  0.00000000000E+00  0.00000000000E+00  0.39999999674E+01  0.40000000000E+01  0.51100000000E-03 0.  1.
    9000002   -1    0    0    0    0 -0.00000000000E+00 -0.00000000000E+00  0.00000000000E+00  0.93800000000E+00  0.93800000000E+00 0.  1.
         11    1    1    2    0    0  0.12677350061E-01  0.71808679046E-01  0.98060888566E+00  0.98331645433E+00  0.51100000000E-03 0.  1.
    9000002    1    1    2    0    0 -0.26873575130E-01 -0.28760093046E+00  0.55630895471E-01  0.98304388548E+00  0.93800000000E+00 0.  1.
         22    1    1    2    0    0  0.14196225070E-01  0.21579225142E+00  0.29637601862E+01  0.29716396602E+01  0.00000000000E+00 0.  1.
</event>
<event>
 5    1  0.1560836E+002  0.1599674E+01  0.7818608E-02  0.3353717E+00
         11   -1    0    0    0    0  0.00000000000E+00  0.00000000000E+00  0.39999999674E+01  0.40000000000E+01  0.51100000000E-03 0.  1.
    9000002   -1    0    0    0    0 -0.00000000000E+00 -0.00000000000E+00  0.00000000000E+00  0.93800000000E+00  0.93800000000E+00 0. -1.
         11    1    1    2    0    0 -0.33257808465E-01  0.90076197078E-01  0.10982753556E+01  0.11024648843E+01  0.51100000000E-03 0.  1.
    9000002    1    1    2    0    0  0.12424849375E+00 -0.31889368514E+00  0.78473195944E-01  0.10015652316E+01  0.93800000000E+00 0. -1.
         22    1    1    2    0    0 -0.90990685287E-01  0.22881748806E+00  0.28232514158E+01  0.28339698842E+01  0.00000000000E+00 0.  1.
</event>
<event>
 5    1  0.1560836E+002  0.1591504E+01  0.7818608E-02  0.3362636E+00
         11   -1    0    0    0    0  0.00000000000E+00  0.00000000000E+00  0.39999999674E+01  0.40000000000E+01  0.51100000000E-03 0.  1.
    9000002   -1    0    0    0    0 -0.00000000000E+00 -0.00000000000E+00  0.00000000000E+00  0.93800000000E+00  0.93800000000E+00 0.  1.
         11    1    1    2    0    0 -0.86001348603E-01  0.11087833311E+00  0.80241572549E+00  0.81459283962E+00  0.51100000000E-03 0.  1.
    9000002    1    1    2    0    0  0.35285405277E-02 -0.42269505611E+00  0.12783413440E+00  0.10367589532E+01  0.93800000000E+00 0.  1.
         22    1    1    2    0    0  0.82472808075E-01  0.31181672301E+00  0.30697501075E+01  0.30866482072E+01  0.00000000000E+00 0.  1.
</event>
<event>
 5    1  0.1560836E+002  0.1596643E+01  0.7818608E-02  0.3357015E+00
         11   -1    0    0    0    0  0.00000000000E+00  0.00000000000E+00  0.39999999674E+01  0.40000000000E+01  0.51100000000E-03 0. -1.
    9000002   -1    0    0    0    0 -0.00000000000E+00 -0.00000000000E+00  0.00000000000E+00  0.93800000000E+00  0.93800000000E+00 0.  1.
         11    1    1    2    0    0 -0.10342150060E+00  0.17731235326E+00  0.21053233107E+01  0.21153066400E+01  0.51100000000E-03 0. -1.
    9000002    1    1    2    0    0  0.93674596382E-01 -0.40080783496E+00  0.11700118942E+00  0.10309971527E+01  0.93800000000E+00 0.  1.
         22    1    1    2    0    0  0.97469042208E-02  0.22349548170E+00  0.17776754672E+01  0.17916962073E+01  0.00000000000E+00 0. -1.
</event>
<event>
 5    1  0.1560836E+002  0.1599597E+01  0.7818608E-02  0.3353800E+00
         11   -1    0    0    0    0  0.00000000000E+00  0.00000000000E+00  0.39999999674E+01  0.40000000000E+01  0.51100000000E-03 0.  1.
    9000002   -1    0    0    0    0 -0.00000000000E+00 -0.00000000000E+00  0.00000000000E+00  0.93800000000E+00  0.93800000000E+00 0. -1.
         11    1    1    2    0    0 -0.75994744301E-01  0.13613530643E+00  0.16190759027E+01  0.16265654191E+01  0.51100000000E-03 0.  1.
    9000002    1    1    2    0    0  0.20837337651E+00 -0.32972499767E+00  0.10255682504E+00  0.10210288637E+01  0.93800000000E+00 0. -1.
         22    1    1    2    0    0 -0.13237863220E+00  0.19358969125E+00  0.22783672396E+01  0.22904057172E+01  0.00000000000E+00 0.  1.
</event>
<event>
 5    1  0.1560836E+002  0.1599660E+01  0.7818608E-02  0.3353733E+00
         11   -1    0    0    0    0  0.00000000000E+00  0.00000000000E+00  0.39999999674E+01  0.40000000000E+01  0.51100000000E-03 0. -1.
    9000002   -1    0    0    0    0 -0.00000000000E+00 -0.00000000000E+00  0.00000000000E+00  0.93800000000E+00  0.93800000000E+00 0. -1.
         11    1    1    2    0    0 -0.15752075136E-01  0.62540032985E-02  0.22894575359E+00  0.22957277634E+00  0.51100000000E-03 0. -1.
    9000002    1    1    2    0    0  0.24604764399E+00 -0.13823984752E+00  0.53063729785E-01  0.98097372950E+00  0.93800000000E+00 0. -1.
         22    1    1    2    0    0 -0.23029556885E+00  0.13198584423E+00  0.37179904840E+01  0.37274534942E+01  0.00000000000E+00 0. -1.
</event>
<event>
 5    1  0.1560836E+002  0.1599677E+01  0.7818608E-02  0.3353714E+00
         11   -1    0    0    0    0  0.00000000000E+00  0.00000000000E+00  0.39999999674E+01  0.40000000000E+01  0.51100000000E-03 0.  1.
    9000002   -1    0    0    0    0 -0.00000000000E+00 -0.00000000000E+00  0.00000000000E+00  0.93800000000E+00  0.93800000000E+00 0. -1.
         11    1    1    2    0    0  0.35998131641E-01 -0.40853686063E-01  0.80719829453E+00  0.80903290227E+00  0.51100000000E-03 0. -1.
    9000002    1    1    2    0    0 -0.17668090362E+00  0.19981169713E+00  0.47320960304E-01  0.97633197699E+00  0.93800000000E+00 0. -1.
         22    1    1    2    0    0  0.14068277198E+00 -0.15895801107E+00  0.31454807125E+01  0.31526351207E+01  0.00000000000E+00 0.  1.
</event>
<event>
 5    1  0.1560836E+002  0.1599441E+01  0.7818608E-02  0.3353971E+00
         11   -1    0    0    0    0  0.00000000000E+00  0.00000000000E+00  0.39999999674E+01  0.40000000000E+01  0.51100000000E-03 0.  1.
    9000002   -1    0    0    0    0 -0.00000000000E+00 -0.00000000000E+00  0.00000000000E+00  0.93800000000E+00  0.93800000000E+00 0. -1.
         11    1    1    2    0    0 -0.18584183008E-01  0.35115598366E-02  0.23859104840E+00  0.23934003511E+00  0.51100000000E-03 0.  1.
    9000002    1    1    2    0    0  0.22371472040E+00  0.60493107825E-01  0.35808940935E-01  0.96686812569E+00  0.93800000000E+00 0. -1.
         22    1    1    2    0    0 -0.20513053739E+00 -0.64004667662E-01  0.37255999780E+01  0.37317918392E+01  0.00000000000E+00 0.  1.
</event>
<event>
 5    1  0.1560836E+002  0.1599668E+01  0.7818608E-02  0.3353724E+00
         11   -1    0    0    0    0  0.00000000000E+00  0.00000000000E+00  0.39999999674E+01  0.40000000000E+01  0.51100000000E-03 0.  1.
    9000002   -1    0    0    0    0 -0.00000000000E+00 -0.00000000000E+00  0.00000000000E+00  0.93800000000E+00  0.93800000000E+00 0.  1.
         11    1    1    2    0    0  0.99201320739E-01  0.96471168186E-01  0.14917610246E+01  0.14981651458E+01  0.51100000000E-03 0.  1.
    9000002    1    1    2    0    0 -0.26790641212E+00 -0.24797698510E+00  0.89516050510E-01  0.10105065829E+01  0.93800000000E+00 0.  1.
         22    1    1    2    0    0  0.16870509139E+00  0.15150581692E+00  0.24187228922E+01  0.24293282713E+01  0.00000000000E+00 0.  1.
</event>
<event>
 5    1  0.1560836E+002  0.1599673E+01  0.7818608E-02  0.3353718E+00
         11   -1    0    0    0    0  0.00000000000E+00  0.00000000000E+00  0.39999999674E+01  0.40000000000E+01  0.51100000000E-03 0.  1.
    9000002   -1    0    0    0    0 -0.00000000000E+00 -0.00000000000E+00  0.00000000000E+00  0.93800000000E+00  0.93800000000E+00 0. -1.
         11    1    1    2    0    0 -0.19969920459E+00 -0.27452242888E+00  0.21615413411E+01  0.21880364638E+01  0.51100000000E-03 0.  1.
    9000002    1    1    2    0    0  0.34363314665E+00  0.47926290157E+00  0.24212123925E+00  0.11341266961E+01  0.93800000000E+00 0. -1.
         22    1    1    2    0    0 -0.14393394206E+00 -0.20474047270E+00  0.15963373870E+01  0.16158368401E+01  0.00000000000E+00 0.  1.
</event>
<event>
 5    1  0.1560836E+002  0.1558839E+01  0.7818608E-02  0.3399286E+00
         11   -1    0    0    0    0  0.00000000000E+00  0.00000000000E+00  0.39999999674E+01  0.40000000000E+01  0.51100000000E-03 0.  1.
    9000002   -1    0    0    0    0 -0.00000000000E+00 -0.00000000000E+00  0.00000000000E+00  0.93800000000E+00  0.93800000000E+00 0.  1.
         11    1    1    2    0    0  0.25007786278E+00  0.71654194223E-01  0.20652969680E+01  0.20816159800E+01  0.51100000000E-03 0.  1.
    9000002    1    1    2    0    0 -0.96055463550E-01  0.12700211320E+00  0.47597129470E-01  0.95260992834E+00  0.93800000000E+00 0.  1.
         22    1    1    2    0    0 -0.15402239923E+00 -0.19865630742E+00  0.18871058699E+01  0.19037740917E+01  0.00000000000E+00 0.  1.
</event>
<event>
 5    1  0.1560836E+002  0.1597673E+01  0.7818608E-02  0.3355893E+00
         11   -1    0    0    0    0  0.00000000000E+00  0.00000000000E+00  0.39999999674E+01  0.40000000000E+01  0.51100000000E-03 0.  1.
    9000002   -1    0    0    0    0 -0.00000000000E+00 -0.00000000000E+00  0.00000000000E+00  0.93800000000E+00  0.93800000000E+00 0. -1.
         11    1    1    2    0    0 -0.48127874995E-02  0.28659809842E-01  0.11222193746E+00  0.11592485493E+00  0.51100000000E-03 0.  1.
    9000002    1    1    2    0    0 -0.42962578600E-01 -0.39562155206E+00  0.10845715060E+00  0.10246800228E+01  0.93800000000E+00 0. -1.
         22    1    1    2    0    0  0.47775366100E-01  0.36696174222E+00  0.37793208793E+01  0.37973951223E+01  0.00000000000E+00 0.  1.
</event>
<event>
 5    1  0.1560836E+002  0.1599672E+01  0.7818608E-02  0.3353720E+00
         11   -1    0    0    0    0  0.00000000000E+00  0.00000000000E+00  0.39999999674E+01  0.40000000000E+01  0.51100000000E-03 0.  1.
    9000002   -1    0    0    0    0 -0.00000000000E+00 -0.00000000000E+00  0.00000000000E+00  0.93800000000E+00  0.93800000000E+00 0. -1.
         11    1    1    2    0    0 -0.18546332655E-01  0.27230460692E-01  0.50755867698E+00  0.50862710913E+00  0.51100000000E-03 0.  1.
    9000002    1    1    2    0    0  0.14676665531E+00 -0.19860284584E+00  0.40505314164E-01  0.97080802529E+00  0.93800000000E+00 0. -1.
         22    1    1    2    0    0 -0.12822032266E+00  0.17137238515E+00  0.34519359762E+01  0.34585648656E+01  0.00000000000E+00 0.  1.
</event>
<event>
 5    1  0.1560836E+002  0.1543876E+01  0.7818608E-02  0.3416626E+00
         11   -1    0    0    0    0  0.00000000000E+00  0.00000000000E+00  0.39999999674E+01  0.40000000000E+01  0.51100000000E-03 0.  1.
    9000002   -1    0    0    0    0 -0.00000000000E+00 -0.00000000000E+00  0.00000000000E+00  0.93800000000E+00  0.93800000000E+00 0. -1.
         11    1    1    2    0    0 -0.24415391896E+00 -0.17577949819E+00  0.27113904824E+01  0.27280300909E+01  0.51100000000E-03 0.  1.
    9000002    1    1    2    0    0  0.40848840995E+00 -0.11358390244E+00  0.17050788557E+00  0.10433987843E+01  0.93800000000E+00 0. -1.
         22    1    1    2    0    0 -0.16433449099E+00  0.28936340063E+00  0.11181015994E+01  0.11665711248E+01  0.00000000000E+00 0.  1.
</event>
<event>
 5    1  0.1560836E+002  0.1599676E+01  0.7818608E-02  0.3353715E+00
         11   -1    0    0    0    0  0.00000000000E+00  0.00000000000E+00  0.39999999674E+01  0.40000000000E+01  0.51100000000E-03 0. -1.
    9000002   -1    0    0    0    0 -0.00000000000E+00 -0.00000000000E+00  0.00000000000E+00  0.93800000000E+00  0.93800000000E+00 0. -1.
         11    1    1    2    0    0  0.56576595318E-01 -0.76712830803E-01  0.12371160459E+01  0.12407828745E+01  0.51100000000E-03 0. -1.
    9000002    1    1    2    0    0 -0.18289093712E+00  0.24217683907E+00  0.61460931832E-01  0.98778548400E+00  0.93800000000E+00 0. -1.
         22    1    1    2    0    0  0.12631434180E+00 -0.16546400827E+00  0.27014229896E+01  0.27094316415E+01  0.00000000000E+00 0. -1.
</event>
<event>
 5    1  0.1560836E+002  0.1599521E+01  0.7818608E-02  0.3353884E+00
         11   -1    0    0    0    0  0.00000000000E+00  0.00000000000E+00  0.39999999674E+01  0.40000000000E+01  0.51100000000E-03 0.  1.
    9000002   -1    0    0    0    0 -0.00000000000E+00 -0.00000000000E+00  0.00000000000E+00  0.93800000000E+00  0.93800000000E+00 0. -1.
         11    1    1    2    0    0  0.11060388681E-01  0.12434005468E+00  0.10960273075E+01  0.11031132768E+01  0.51100000000E-03 0.  1.
    9000002    1    1    2    0    0  0.78075032877E-02 -0.42970568308E+00  0.12522014562E+00  0.10393421073E+01  0.93800000000E+00 0. -1.
         22    1    1    2    0    0 -0.18867891969E-01  0.30536562841E+00  0.27787525142E+01  0.27955446159E+01  0.00000000000E+00 0.  1.
</event>
<event>
 5    1  0.1560836E+002  0.1599674E+01  0.7818608E-02  0.3353717E+00
         11   -1    0    0    0    0  0.00000000000E+00  0.00000000000E+00  0.39999999674E+01  0.40000000000E+01  0.51100000000E-03 0. -1.
    9000002   -1    0    0    0    0 -0.00000000000E+00 -0.00000000000E+00  0.00000000000E+00  0.93800000000E+00  0.93800000000E+00 0. -1.
         11    1    1    2    0    0 -0.12375392221E+00 -0.48135263838E-01  0.13565700063E+01  0.13630533666E+01  0.51100000000E-03 0. -1.
    9000002    1    1    2    0    0  0.35947362906E+00  0.14204702613E+00  0.10060364397E+00  0.10194919033E+01  0.93800000000E+00 0. -1.
         22    1    1    2    0    0 -0.23571970686E+00 -0.93911762297E-01  0.25428263171E+01  0.25554547302E+01  0.00000000000E+00 0. -1.
</event>
<event>
 5    1  0.1560836E+002  0.1596959E+01  0.7818608E-02  0.3356670E+00
         11   -1    0    0    0    0  0.00000000000E+00  0.00000000000E+00  0.39999999674E+01  0.40000000000E+01  0.51100000000E-03 0.  1.
    9000002   -1    0    0    0    0 -0.00000000000E+00 -0.00000000000E+00  0.00000000000E+00  0.93800000000E+00  0.93800000000E+00 0. -1.
         11    1    1    2    0    0 -0.39586954900E+00  0.46099352640E+00  0.24280016367E+01  0.25028823265E+01  0.51100000000E-03 0.  1.
    9000002    1    1    2    0    0  0.49412586139E+00 -0.69913281583E+00  0.55488786494E+00  0.13858901846E+01  0.93800000000E+00 0. -1.
         22    1    1    2    0    0 -0.98256312391E-01  0.23813928942E+00  0.10171104657E+01  0.10492274889E+01  0.00000000000E+00 0. -1.
</event>
<event>
 5    1  0.1560836E+002  0.1599676E+01  0.7818608E-02  0.3353715E+00
         11   -1    0    0    0    0  0.00000000000E+00  0.00000000000E+00  0.39999999674E+01  0.40000000000E+01  0.51100000000E-03 0.  1.
    9000002   -1    0    0    0    0 -0.00000000000E+00 -0.00000000000E+00  0.00000000000E+00  0.93800000000E+00  0.93800000000E+00 0. -1.
         11    1    1    2    0    0 -0.10677313483E-01  0.11321507949E-01  0.23506538248E+00  0.23558051008E+00  0.51100000000E-03 0. -1.
    9000002    1    1    2    0    0  0.17593317309E+00 -0.19060997538E+00  0.44729930764E-01  0.97423272929E+00  0.93800000000E+00 0. -1.
         22    1    1    2    0    0 -0.16525585961E+00  0.17928846743E+00  0.37202046541E+01  0.37281867606E+01  0.00000000000E+00 0.  1.
</event>
<event>
 5    1  0.1560836E+002  0.1594295E+01  0.7818608E-02  0.3359579E+00
         11   -1    0    0    0    0  0.00000000000E+00  0.00000000000E+00  0.39999999674E+01  0.40000000000E+01  0.51100000000E-03 0. -1.
    9000002   -1    0    0    0    0 -0.00000000000E+00 -0.00000000000E+00  0.00000000000E+00  0.93800000000E+00  0.93800000000E+00 0.  1.
         11    1    1    2    0    0  0.44105048916E+00  0.58885915296E-01  0.22258260262E+01  0.22698667020E+01  0.51100000000E-03 0. -1.
    9000002    1    1    2    0    0 -0.64074083383E+00  0.12356774777E-01  0.29480743785E+00  0.11736511115E+01  0.93800000000E+00 0.  1.
         22    1    1    2    0    0  0.19969034467E+00 -0.71242690073E-01  0.14793665033E+01  0.14944821865E+01  0.00000000000E+00 0. -1.
</event>
<event>
 5    1  0.1560836E+002  0.1599641E+01  0.7818608E-02  0.3353753E+00
         11   -1    0    0    0    0  0.00000000000E+00  0.00000000000E+00  0.39999999674E+01  0.40000000000E+01  0.51100000000E-03 0. -1.
    9000002   -1    0    0    0    0 -0.00000000000E+00 -0.00000000000E+00  0.00000000000E+00  0.93800000000E+00  0.93800000000E+00 0. -1.
         11    1    1    2    0    0  0.47301747851E-02  0.23156923502E-02  0.65124746965E-01  0.65339350875E-01  0.51100000000E-03 0. -1.
    9000002    1    1    2    0    0 -0.19929561253E+00 -0.81188626504E-01  0.30714460814E-01  0.96285913422E+00  0.93800000000E+00 0. -1.
         22    1    1    2    0    0  0.19456543774E+00  0.78872934154E-01  0.39041607596E+01  0.39098015149E+01  0.00000000000E+00 0. -1.
</event>
<event>
 5    1  0.1560836E+002  0.1599659E+01  0.7818608E-02  0.3353734E+00
         11   -1    0    0    0    0  0.00000000000E+00  0.00000000000E+00  0.39999999674E+01  0.40000000000E+01  0.51100000000E-03 0. -1.
    9000002   -1    0    0    0    0 -0.00000000000E+00 -0.00000000000E+00  0.00000000000E+00  0.93800000000E+00  0.93800000000E+00 0.  1.
         11    1    1    2    0    0 -0.20705041351E-02 -0.18756772381E-02  0.44323590349E-01  0.44414490146E-01  0.51100000000E-03 0. -1.
    9000002    1    1    2    0    0  0.10395801836E+00  0.19469004308E+00  0.32304277471E-01  0.96415717017E+00  0.93800000000E+00 0.  1.
         22    1    1    2    0    0 -0.10188751423E+00 -0.19281436584E+00  0.39233720995E+01  0.39294283397E+01  0.00000000000E+00 0. -1.
</event>
<event>
 5    1  0.1560836E+002  0.1599586E+01  0.7818608E-02  0.3353813E+00
         11   -1    0    0    0    0  0.00000000000E+00  0.00000000000E+00  0.39999999674E+01  0.40000000000E+01  0.51100000000E-03 0.  1.
    9000002   -1    0    0    0    0 -0.00000000000E+00 -0.00000000000E+00  0.00000000000E+00  0.93800000000E+00  0.93800000000E+00 0. -1.
         11    1    1    2    0    0 -0.35400206868E-01  0.20813561568E-01  0.51528385733E+00  0.51691787911E+00  0.51100000000E-03 0.  1.
    9000002    1    1    2    0    0  0.21313280903E+00 -0.14932356476E+00  0.45094000607E-01  0.97447452002E+00  0.93800000000E+00 0. -1.
         22    1    1    2    0    0 -0.17773260216E+00  0.12851000319E+00  0.34396221094E+01  0.34466076009E+01  0.00000000000E+00 0.  1.
</event>
<event>
 5    1  0.1560836E+002  0.1599677E+01  0.7818608E-02  0.3353714E+00
         11   -1    0    0    0    0  0.00000000000E+00  0.00000000000E+00  0.39999999674E+01  0.40000000000E+01  0.51100000000E-03 0.  1.
    9000002   -1    0    0    0    0 -0.00000000000E+00 -0.00000000000E+00  0.00000000000E+00  0.93800000000E+00  0.93800000000E+00 0. -1.
         11    1    1    2    0    0  0.48075764343E-01 -0.16775639836E+00  0.13677143811E+01  0.13788025158E+01  0.51100000000E-03 0.  1.
    9000002    1    1    2    0    0 -0.13341409989E+00  0.47036444166E+00  0.16333795311E+00  0.10703108506E+01  0.93800000000E+00 0. -1.
         22    1    1    2    0    0  0.85338335549E-01 -0.30260804330E+00  0.24689476331E+01  0.24888866335E+01  0.00000000000E+00 0. -1.
</event>
<event>
 5    1  0.1560836E+002  0.1599672E+01  0.7818608E-02  0.3353720E+00
         11   -1    0    0    0    0  0.00000000000E+00  0.00000000000E+00  0.39999999674E+01  0.40000000000E+01  0.51100000000E-03 0. -1.
    9000002   -1    0    0    0    0 -0.00000000000E+00 -0.00000000000E+00  0.00000000000E+00  0.93800000000E+00  0.93800000000E+00 0.  1.
         11    1    1    2    0    0 -0.19403708053E-01 -0.38241647076E-01  0.69762942439E+00  0.69894635156E+00  0.51100000000E-03 0.  1.
    9000002    1    1    2    0    0  0.11053499063E+00  0.22855098766E+00  0.42832590745E-01  0.97269325532E+00  0.93800000000E+00 0.  1.
         22    1    1    2    0    0 -0.91131282579E-01 -0.19030934059E+00  0.32595379522E+01  0.32663603931E+01  0.00000000000E+00 0. -1.
</event>
<event>
 5    1  0.1560836E+002  0.1542883E+01  0.7818608E-02  0.3417789E+00
         11   -1    0    0    0    0  0.00000000000E+00  0.00000000000E+00  0.39999999674E+01  0.40000000000E+01  0.51100000000E-03 0. -1.
    9000002   -1    0    0    0    0 -0.00000000000E+00 -0.00000000000E+00  0.00000000000E+00  0.93800000000E+00  0.93800000000E+00 0. -1.
         11    1    1    2    0    0  0.54616367467E+00  0.50498315448E+00  0.27574173256E+01  0.28559855242E+01  0.51100000000E-03 0. -1.
    9000002    1    1    2    0    0 -0.82517996527E+00 -0.43119512192E+00  0.77373375865E+00  0.15314565412E+01  0.93800000000E+00 0. -1.
         22    1    1    2    0    0  0.27901629061E+00 -0.73788032561E-01  0.46884888313E+00  0.55055793463E+00  0.00000000000E+00 0. -1.
</event>
<event>
 5    1  0.1560836E+002  0.1482430E+01  0.7818608E-02  0.3491768E+00
         11   -1    0    0    0    0  0.00000000000E+00  0.00000000000E+00  0.39999999674E+01  0.40000000000E+01  0.51100000000E-03 0. -1.
    9000002   -1    0    0    0    0 -0.00000000000E+00 -0.00000000000E+00  0.00000000000E+00  0.93800000000E+00  0.93800000000E+00 0.  1.
         11    1    1    2    0    0 -0.60198546471E-01  0.21469205819E+00  0.23858311830E+00  0.32655583031E+00  0.51100000000E-03 0. -1.
    9000002    1    1    2    0    0 -0.27321492163E+00 -0.21686301490E+00  0.18278712589E+00  0.10173156315E+01  0.93800000000E+00 0.  1.
         22    1    1    2    0    0  0.33341346810E+00  0.21709567137E-02  0.35786297232E+01  0.35941285382E+01  0.00000000000E+00 0. -1.
</event>
<event>
 5    1  0.1560836E+002  0.1599677E+01  0.7818608E-02  0.3353715E+00
         11   -1    0    0    0    0  0.00000000000E+00  0.00000000000E+00  0.39999999674E+01  0.40000000000E+01  0.51100000000E-03 0. -1.
    9000002   -1    0    0    0    0 -0.00000000000E+00 -0.00000000000E+00  0.00000000000E+00  0.93800000000E+00  0.93800000000E+00 0.  1.
         11    1    1    2    0    0 -0.61585887660E-01 -0.16844684211E-03  0.69358019155E+00  0.69630926546E+00  0.51100000000E-03 0. -1.
    9000002    1    1    2    0    0  0.34613094751E+00 -0.13748266851E-02  0.80299193835E-01  0.10030456039E+01  0.93800000000E+00 0.  1.
         22    1    1    2    0    0 -0.28454505985E+00  0.15432735272E-02  0.32261205820E+01  0.32386451306E+01  0.00000000000E+00 0. -1.
</event>
<event>
 5    1  0.1560836E+002  0.1599642E+01  0.7818608E-02  0.3353752E+00
         11   -1    0    0    0    0  0.00000000000E+00  0.00000000000E+00  0.39999999674E+01  0.40000000000E+01  0.51100000000E-03 0. -1.
    9000002   -1    0    0    0    0 -0.00000000000E+00 -0.00000000000E+00  0.00000000000E+00  0.93800000000E+00  0.93800000000E+00 0. -1.
         11    1    1    2    0    0  0.20786322653E-01  0.25900931480E-01  0.39867420414E+00  0.40005538570E+00  0.51100000000E-03 0. -1.
    9000002    1    1    2    0    0 -0.20650978284E+00 -0.21362334058E+00  0.58905277226E-01  0.98569521341E+00  0.93800000000E+00 0. -1.
         22    1    1    2    0    0  0.18572346018E+00  0.18772240910E+00  0.35424204860E+01  0.35522494009E+01  0.00000000000E+00 0. -1.
</event>
<event>
 5    1  0.1560836E+002  0.1599641E+01  0.7818608E-02  0.3353754E+00
         11   -1    0    0    0    0  0.00000000000E+00  0.00000000000E+00  0.39999999674E+01  0.40000000000E+01  0.51100000000E-03 0. -1.
    9000002   -1    0    0    0    0 -0.00000000000E+00 -0.00000000000E+00  0.00000000000E+00  0.93800000000E+00  0.93800000000E+00 0.  1.
         11    1    1    2    0    0 -0.26506910140E-03  0.76694912531E-03  0.24280592674E-01  0.24299522098E-01  0.51100000000E-03 0. -1.
    9000002    1    1    2    0    0  0.20900852948E+00 -0.12045263357E+00  0.38659628177E-01  0.96929457297E+00  0.93800000000E+00 0.  1.
         22    1    1    2    0    0 -0.20874346038E+00  0.11968568445E+00  0.39370597465E+01  0.39444059049E+01  0.00000000000E+00 0. -1.
</event>
<event>
 5    1  0.1560836E+002  0.1597560E+01  0.7818608E-02  0.3356016E+00
         11   -1    0    0    0    0  0.00000000000E+00  0.00000000000E+00  0.39999999674E+01  0.40000000000E+01  0.51100000000E-03 0. -1.
    9000002   -1    0    0    0    0 -0.00000000000E+00 -0.00000000000E+00  0.00000000000E+00  0.93800000000E+00  0.93800000000E+00 0. -1.
         11    1    1    2    0    0 -0.16041845083E+00 -0.13565239692E-01  0.12909600977E+01  0.13009597726E+01  0.51100000000E-03 0. -1.
    9000002    1    1    2    0    0  0.52164488537E+00 -0.10675705587E+00  0.19715007073E+00  0.10964591218E+01  0.93800000000E+00 0. -1.
         22    1    1    2    0    0 -0.36122643454E+00  0.12032229556E+00  0.25118897990E+01  0.25405811056E+01  0.00000000000E+00 0. -1.
</event>
<event>
 5    1  0.1560836E+002  0.1593858E+01  0.7818608E-02  0.3360057E+00
         11   -1    0    0    0    0  0.00000000000E+00  0.00000000000E+00  0.39999999674E+01  0.40000000000E+01  0.51100000000E-03 0.  1.
    9000002   -1    0    0    0    0 -0.00000000000E+00 -0.00000000000E+00  0.00000000000E+00  0.93800000000E+00  0.93800000000E+00 0.  1.
         11    1    1    2    0    0  0.66628138998E-01  0.19637588681E+00  0.15152625749E+01  0.15293867169E+01  0.51100000000E-03 0.  1.
    9000002    1    1    2    0    0  0.54592442770E-01 -0.53329417178E+00  0.20341911208E+00  0.10993663373E+01  0.93800000000E+00 0.  1.
         22    1    1    2    0    0 -0.12122058177E+00  0.33691828498E+00  0.22813182804E+01  0.23092469458E+01  0.00000000000E+00 0.  1.
</event>
<event>
 5    1  0.1560836E+002  0.1599675E+01  0.7818608E-02  0.3353716E+00
         11   -1    0    0    0    0  0.00000000000E+00  0.00000000000E+00  0.39999999674E+01  0.40000000000E+01  0.51100000000E-03 0. -1.
    9000002   -1    0    0    0    0 -0.00000000000E+00 -0.00000000000E+00  0.00000000000E+00  0.93800000000E+00  0.93800000000E+00 0.  1.
         11    1    1    2    0    0  0.12673948420E-02 -0.10490435923E-01  0.14792686847E+00  0.14830466976E+00  0.51100000000E-03 0.  1.
    9000002    1    1    2    0    0 -0.37685835292E-01  0.28846531483E+00  0.56413719209E-01  0.98369658318E+00  0.93800000000E+00 0.  1.
         22    1    1    2    0    0  0.36418440450E-01 -0.27797487890E+00  0.37956593797E+01  0.38059987471E+01  0.00000000000E+00 0. -1.
</event>
<event>
 5    1  0.1560836E+002  0.1599676E+01  0.7818608E-02  0.3353716E+00
         11   -1    0    0    0    0  0.00000000000E+00  0.00000000000E+00  0.39999999674E+01  0.40000000000E+01  0.51100000000E-03 0. -1.
    9000002   -1    0    0    0    0 -0.00000000000E+00 -0.00000000000E+00  0.00000000000E+00  0.93800000000E+00  0.93800000000E+00 0. -1.
         11    1    1    2    0    0 -0.22218844255E-01  0.35210311293E+00  0.18148935783E+01  0.18488670155E+01  0.51100000000E-03 0. -1.
    9000002    1    1    2    0    0  0.47011990229E-01 -0.70767338382E+00  0.36039489193E+00  0.12299350485E+01  0.93800000000E+00 0. -1.
         22    1    1    2    0    0 -0.24793145974E-01  0.35557027089E+00  0.18247114971E+01  0.18591979360E+01  0.00000000000E+00 0.  1.
</event>
<event>
 5    1  0.1560836E+002  0.1522847E+01  0.7818608E-02  0.3441610E+00
         11   -1    0    0    0    0  0.00000000000E+00  0.00000000000E+00  0.39999999674E+01  0.40000000000E+01  0.51100000000E-03 0.  1.
    9000002   -1    0    0    0    0 -0.00000000000E+00 -0.00000000000E+00  0.00000000000E+00  0.93800000000E+00  0.93800000000E+00 0. -1.
         11    1    1    2    0    0 -0.66830205412E-01  0.24479702382E+00  0.52854326666E+00  0.58630205959E+00  0.51100000000E-03 0.  1.
    9000002    1    1    2    0    0  0.61591723646E+00 -0.51481059526E-01  0.35023128224E+00  0.11766521545E+01  0.93800000000E+00 0. -1.
         22    1    1    2    0    0 -0.54908703105E+00 -0.19331596429E+00  0.31212254185E+01  0.31750457859E+01  0.00000000000E+00 0.  1.
</event>
<event>
 5    1  0.1560836E+002  0.1596502E+01  0.7818608E-02  0.3357169E+00
         11   -1    0    0    0    0  0.00000000000E+00  0.00000000000E+00  0.39999999674E+01  0.40000000000E+01  0.51100000000E-03 0. -1.
    9000002   -1    0    0    0    0 -0.00000000000E+00 -0.00000000000E+00  0.00000000000E+00  0.93800000000E+00  0.93800000000E+00 0.  1.
         11    1    1    2    0    0  0.27727434643E-02  0.72211705090E-01  0.55375972637E+00  0.55845529287E+00  0.51100000000E-03 0. -1.
    9000002    1    1    2    0    0 -0.23611815689E+00 -0.25570741472E+00  0.83765011600E-01  0.10039913561E+01  0.93800000000E+00 0.  1.
         22    1    1    2    0    0  0.23334541343E+00  0.18349570963E+00  0.33624752294E+01  0.33755533510E+01  0.00000000000E+00 0. -1.
</event>
<event>
 5    1  0.1560836E+002  0.1599517E+01  0.7818608E-02  0.3353888E+00
         11   -1    0    0    0    0  0.00000000000E+00  0.00000000000E+00  0.39999999674E+01  0.40000000000E+01  0.51100000000E-03 0.  1.
    9000002   -1    0    0    0    0 -0.00000000000E+00 -0.00000000000E+00  0.00000000000E+00  0.93800000000E+00  0.93800000000E+00 0. -1.
         11    1    1    2    0    0 -0.53096936880E-01  0.43052685010E-02  0.63029989194E+00  0.63254725906E+00  0.51100000000E-03 0.  1.
    9000002    1    1    2    0    0  0.35422096083E+00  0.38314446448E-01  0.85303894536E-01  0.10070060776E+01  0.93800000000E+00 0. -1.
         22    1    1    2    0    0 -0.30112402395E+00 -0.42619714949E-01  0.32843961809E+01  0.32984466633E+01  0.00000000000E+00 0.  1.
</event>
<event>
 5    1  0.1560836E+002  0.1599671E+01  0.7818608E-02  0.3353720E+00
         11   -1    0    0    0    0  0.00000000000E+00  0.00000000000E+00  0.39999999674E+01  0.40000000000E+01  0.51100000000E-03 0. -1.
    9000002   -1    0    0    0    0 -0.00000000000E+00 -0.00000000000E+00  0.00000000000E+00  0.93800000000E+00  0.93800000000E+00 0.  1.
         11    1    1    2    0    0  0.10589740629E+00  0.18146028867E+00  0.17690833186E+01  0.17815156879E+01  0.51100000000E-03 0. -1.
    9000002    1    1    2    0    0 -0.23695924321E+00 -0.39472424842E+00  0.14418645124E+00  0.10547941259E+01  0.93800000000E+00 0.  1.
         22    1    1    2    0    0  0.13106183692E+00  0.21326395975E+00  0.20867301975E+01  0.21016901862E+01  0.00000000000E+00 0.  1.
</event>
<event>
 5    1  0.1560836E+002  0.1599595E+01  0.7818608E-02  0.3353803E+00
         11   -1    0    0    0    0  0.00000000000E+00  0.00000000000E+00  0.39999999674E+01  0.40000000000E+01  0.51100000000E-03 0. -1.
    9000002   -1    0    0    0    0 -0.00000000000E+00 -0.00000000000E+00  0.00000000000E+00  0.93800000000E+00  0.93800000000E+00 0. -1.
         11    1    1    2    0    0  0.14949253959E+00 -0.95370893594E-01  0.13527852854E+01  0.13643576936E+01  0.51100000000E-03 0. -1.
    9000002    1    1    2    0    0 -0.39742397923E+00  0.28336379431E+00  0.16284145174E+00  0.10698608309E+01  0.93800000000E+00 0. -1.
         22    1    1    2    0    0  0.24793143964E+00 -0.18799290072E+00  0.24843732302E+01  0.25037814754E+01  0.00000000000E+00 0. -1.
</event>
<event>
 5    1  0.1560836E+002  0.1599677E+01  0.7818608E-02  0.3353714E+00
         11   -1    0    0    0    0  0.00000000000E+00  0.00000000000E+00  0.39999999674E+01  0.40000000000E+01  0.51100000000E-03 0.  1.
    9000002   -1    0    0    0    0 -0.00000000000E+00 -0.00000000000E+00  0.00000000000E+00  0.93800000000E+00  0.93800000000E+00 0. -1.
         11    1    1    2    0    0 -0.14418390274E+00  0.18671982108E+00  0.17993112970E+01  0.18147106365E+01  0.51100000000E-03 0.  1.
    9000002    1    1    2    0    0  0.30749973047E+00 -0.39723382706E+00  0.17281658088E+00  0.10779890390E+01  0.93800000000E+00 0. -1.
         22    1    1    2    0    0 -0.16331582773E+00  0.21051400598E+00  0.20278720894E+01  0.20453003245E+01  0.00000000000E+00 0.  1.
</event>
<event>
 5    1  0.1560836E+002  0.1599677E+01  0.7818608E-02  0.3353714E+00
         11   -1    0    0    0    0  0.00000000000E+00  0.00000000000E+00  0.39999999674E+01  0.40000000000E+01  0.51100000000E-03 0.  1.
    9000002   -1    0    0    0    0 -0.00000000000E+00 -0.00000000000E+00  0.00000000000E+00  0.93800000000E+00  0.93800000000E+00 0. -1.
         11    1    1    2    0    0  0.29797424871E+00  0.24757816325E+00  0.19235127026E+01  0.19621378591E+01  0.51100000000E-03 0.  1.
    9000002    1    1    2    0    0 -0.56143320258E+00 -0.46450789407E+00  0.38251276512E+00  0.12478520906E+01  0.93800000000E+00 0. -1.
         22    1    1    2    0    0  0.26345895388E+00  0.21692973083E+00  0.16939744996E+01  0.17280100503E+01  0.00000000000E+00 0.  1.
</event>
<event>
 5    1  0.1560836E+002  0.1572854E+01  0.7818608E-02  0.3383364E+00
         11   -1    0    0    0    0  0.00000000000E+00  0.00000000000E+00  0.39999999674E+01  0.40000000000E+01  0.51100000000E-03 0.  1.
    9000002   -1    0    0    0    0 -0.00000000000E+00 -0.00000000000E+00  0.00000000000E+00  0.93800000000E+00  0.93800000000E+00 0.  1.
         11    1    1    2    0    0  0.19190672766E-01  0.72889374269E-01  0.15973698807E+00  0.17662760057E+00  0.51100000000E-03 0.  1.
    9000002    1    1    2    0    0 -0.13389275380E+00  0.12601388703E+00  0.42626074909E-01  0.95680078988E+00  0.93800000000E+00 0.  1.
         22    1    1    2    0    0  0.11470208103E+00 -0.19890326130E+00  0.37976369044E+01  0.38045716096E+01  0.00000000000E+00 0.  1.
</event>
<event>
 5    1  0.1560836E+002  0.1599667E+01  0.7818608E-02  0.3353725E+00
         11   -1    0    0    0    0  0.00000000000E+00  0.00000000000E+00  0.39999999674E+01  0.40000000000E+01  0.51100000000E-03 0. -1.
    9000002   -1    0    0    0    0 -0.00000000000E+00 -0.00000000000E+00  0.00000000000E+00  0.93800000000E+00  0.93800000000E+00 0. -1.
         11    1    1    2    0    0  0.54358905037E+00  0.60341399210E+00  0.22010300849E+01  0.23460884888E+01  0.51100000000E-03 0. -1.
    9000002    1    1    2    0    0 -0.73028044760E+00 -0.81735639321E+00  0.10311543795E+01  0.17732750379E+01  0.93800000000E+00 0. -1.
         22    1    1    2    0    0  0.18669139723E+00  0.21394240111E+00  0.76781550300E+00  0.81863647332E+00  0.00000000000E+00 0. -1.
</event>
<event>
 5    1  0.1560836E+002  0.1577907E+01  0.7818608E-02  0.3377697E+00
         11   -1    0    0    0    0  0.00000000000E+00  0.00000000000E+00  0.39999999674E+01  0.40000000000E+01  0.51100000000E-03 0. -1.
    9000002   -1    0    0    0    0 -0.00000000000E+00 -0.00000000000E+00  0.00000000000E+00  0.93800000000E+00  0.93800000000E+00 0. -1.
         11    1    1    2    0    0 -0.14397162684E-01  0.53685062728E-02  0.29571706922E+01  0.29572106558E+01  0.51100000000E-03 0. -1.
    9000002    1    1    2    0    0  0.28972625926E-01 -0.21408212020E+00  0.47520904886E-01  0.96372859439E+00  0.93800000000E+00 0. -1.
         22    1    1    2    0    0 -0.14575463243E-01  0.20871361392E+00  0.99530837028E+00  0.10170607498E+01  0.00000000000E+00 0.  1.
</event>
<event>
 5    1  0.1560836E+002  0.1599491E+01  0.7818608E-02  0.3353916E+00
         11   -1    0    0    0    0  0.00000000000E+00  0.00000000000E+00  0.39999999674E+01  0.40000000000E+01  0.51100000000E-03 0. -1.
    9000002   -1    0    0    0    0 -0.00000000000E+00 -0.00000000000E+00  0.00000000000E+00  0.93800000000E+00  0.93800000000E+00 0.  1.
         11    1    1    2    0    0  0.38659244679E-01  0.45706094593E-01  0.36630010031E+00  0.37115981583E+00  0.51100000000E-03 0. -1.
    9000002    1    1    2    0    0 -0.48674940867E+00 -0.43897968367E+00  0.30376321207E+00  0.11839528025E+01  0.93800000000E+00 0.  1.
         22    1    1    2    0    0  0.44809016399E+00  0.39327358908E+00  0.33299366550E+01  0.33828873817E+01  0.00000000000E+00 0. -1.
</event>
<event>
 5    1  0.1560836E+002  0.1599676E+01  0.7818608E-02  0.3353715E+00
         11   -1    0    0    0    0  0.00000000000E+00  0.00000000000E+00  0.39999999674E+01  0.40000000000E+01  0.51100000000E-03 0.  1.
    9000002   -1    0    0    0    0 -0.00000000000E+00 -0.00000000000E+00  0.00000000000E+00  0.93800000000E+00  0.93800000000E+00 0. -1.
         11    1    1    2    0    0  0.11595130747E+00 -0.15262913129E-01  0.12935960122E+01  0.12988720360E+01  0.51100000000E-03 0.  1.
    9000002    1    1    2    0    0 -0.35126933743E+00  0.43229038501E-01  0.84024551267E-01  0.10060631304E+01  0.93800000000E+00 0. -1.
         22    1    1    2    0    0  0.23531802996E+00 -0.27966125371E-01  0.26223794039E+01  0.26330648335E+01  0.00000000000E+00 0.  1.
</event>
<event>
 5    1  0.1560836E+002  0.1599643E+01  0.7818608E-02  0.3353751E+00
         11   -1    0    0    0    0  0.00000000000E+00  0.00000000000E+00  0.39999999674E+01  0.40000000000E+01  0.51100000000E-03 0. -1.
    9000002   -1    0    0    0    0 -0.00000000000E+00 -0.00000000000E+00  0.00000000000E+00  0.93800000000E+00  0.93800000000E+00 0. -1.
         11    1    1    2    0    0  0.26581642453E-01 -0.25175503815E+00  0.20312048402E+01  0.20469197705E+01  0.51100000000E-03 0. -1.
    9000002    1    1    2    0    0 -0.62828045886E-01  0.47237959476E+00  0.15489212659E+00  0.10634497712E+01  0.93800000000E+00 0. -1.
         22    1    1    2    0    0  0.36246403433E-01 -0.22062455661E+00  0.18139030006E+01  0.18276304584E+01  0.00000000000E+00 0. -1.
</event>
<event>
 5    1  0.1560836E+002  0.1599674E+01  0.7818608E-02  0.3353718E+00
         11   -1    0    0    0    0  0.00000000000E+00  0.00000000000E+00  0.39999999674E+01  0.40000000000E+01  0.51100000000E-03 0. -1.
    9000002   -1    0    0    0    0 -0.00000000000E+00 -0.00000000000E+00  0.00000000000E+00  0.93800000000E+00  0.93800000000E+00 0.  1.
         11    1    1    2    0    0  0.87030257862E-01 -0.86350461490E-02  0.10290503436E+01  0.10327602339E+01  0.51100000000E-03 0. -1.
    9000002    1    1    2    0    0 -0.33300736904E+00  0.25810947745E-01  0.74676300928E-01  0.99848919012E+00  0.93800000000E+00 0.  1.
         22    1    1    2    0    0  0.24597711118E+00 -0.17175901596E-01  0.28962733228E+01  0.29067505760E+01  0.00000000000E+00 0. -1.
</event>
<event>
 5    1  0.1560836E+002  0.1593932E+01  0.7818608E-02  0.3359976E+00
         11   -1    0    0    0    0  0.00000000000E+00  0.00000000000E+00  0.39999999674E+01  0.40000000000E+01  0.51100000000E-03 0.  1.
    9000002   -1    0    0    0    0 -0.00000000000E+00 -0.00000000000E+00  0.00000000000E+00  0.93800000000E+00  0.93800000000E+00 0.  1.
         11    1    1    2    0    0 -0.24942750413E-01 -0.19588656819E-01  0.83150330476E-01  0.88994914762E-01  0.51100000000E-03 0.  1.
    9000002    1    1    2    0    0  0.28829343333E+00  0.26558976395E-01  0.60348510745E-01  0.98351635761E+00  0.93800000000E+00 0.  1.
         22    1    1    2    0    0 -0.26335068292E+00 -0.69703195755E-02  0.38565011261E+01  0.38654887276E+01  0.00000000000E+00 0.  1.
</event>
<event>
 5    1  0.1560836E+002  0.1586919E+01  0.7818608E-02  0.3367684E+00
         11   -1    0    0    0    0  0.00000000000E+00  0.00000000000E+00  0.39999999674E+01  0.40000000000E+01  0.51100000000E-03 0.  1.
    9000002   -1    0    0    0    0 -0.00000000000E+00 -0.00000000000E+00  0.00000000000E+00  0.93800000000E+00  0.93800000000E+00 0.  1.
         11    1    1    2    0    0 -0.94803031801E-01  0.30971650522E+00  0.28616346438E+01  0.28799071207E+01  0.51100000000E-03 0.  1.
    9000002    1    1    2    0    0  0.16037550767E+00 -0.55685032165E+00  0.24580336523E+00  0.11296308594E+01  0.93800000000E+00 0. -1.
         22    1    1    2    0    0 -0.65572475869E-01  0.24713381643E+00  0.89256195836E+00  0.92846201987E+00  0.00000000000E+00 0.  1.
</event>
<event>
 5    1  0.1560836E+002  0.1335222E+01  0.7818608E-02  0.3716690E+00
         11   -1    0    0    0    0  0.00000000000E+00  0.00000000000E+00  0.39999999674E+01  0.40000000000E+01  0.51100000000E-03 0. -1.
    9000002   -1    0    0    0    0 -0.00000000000E+00 -0.00000000000E+00  0.00000000000E+00  0.93800000000E+00  0.93800000000E+00 0.  1.
         11    1    1    2    0    0  0.52433924571E+00  0.16997456962E+00  0.19256614873E+01  0.20029966111E+01  0.51100000000E-03 0. -1.
    9000002    1    1    2    0    0  0.10752516675E+00  0.93755656305E-01  0.24235527945E+00  0.97925066559E+00  0.93800000000E+00 0.  1.
         22    1    1    2    0    0 -0.63186441246E+00 -0.26373022592E+00  0.18319832006E+01  0.19557527234E+01  0.00000000000E+00 0. -1.
</event>
<event>
 5    1  0.1560836E+002  0.1599229E+01  0.7818608E-02  0.3354201E+00
         11   -1    0    0    0    0  0.00000000000E+00  0.00000000000E+00  0.39999999674E+01  0.40000000000E+01  0.51100000000E-03 0. -1.
    9000002   -1    0    0    0    0 -0.00000000000E+00 -0.00000000000E+00  0.00000000000E+00  0.93800000000E+00  0.93800000000E+00 0. -1.
         11    1    1    2    0    0  0.19003854930E-01 -0.11569882062E-01  0.60580222404E+00  0.60621085808E+00  0.51100000000E-03 0. -1.
    9000002    1    1    2    0    0 -0.23624119841E+00  0.11777093083E+00  0.46683481518E-01  0.97555278864E+00  0.93800000000E+00 0. -1.
         22    1    1    2    0    0  0.21723734348E+00 -0.10620104877E+00  0.33475142618E+01  0.33562363533E+01  0.00000000000E+00 0. -1.
</event>
<event>
 5    1  0.1560836E+002  0.1599469E+01  0.7818608E-02  0.3353940E+00
         11   -1    0    0    0    0  0.00000000000E+00  0.00000000000E+00  0.39999999674E+01  0.40000000000E+01  0.51100000000E-03 0. -1.
    9000002   -1    0    0    0    0 -0.00000000000E+00 -0.00000000000E+00  0.00000000000E+00  0.93800000000E+00  0.93800000000E+00 0. -1.
         11    1    1    2    0    0 -0.15959065005E-01  0.24266500429E-02  0.14046493998E+00  0.14139038464E+00  0.51100000000E-03 0. -1.
    9000002    1    1    2    0    0  0.38352177576E+00  0.10192708036E+00  0.10635214039E+00  0.10240277633E+01  0.93800000000E+00 0. -1.
         22    1    1    2    0    0 -0.36756271076E+00 -0.10435373041E+00  0.37531828870E+01  0.37725818521E+01  0.00000000000E+00 0. -1.
</event>
<event>
 5    1  0.1560836E+002  0.1599671E+01  0.7818608E-02  0.3353720E+00
         11   -1    0    0    0    0  0.00000000000E+00  0.00000000000E+00  0.39999999674E+01  0.40000000000E+01  0.51100000000E-03 0.  1.
    9000002   -1    0    0    0    0 -0.00000000000E+00 -0.00000000000E+00  0.00000000000E+00  0.93800000000E+00  0.93800000000E+00 0.  1.
         11    1    1    2    0    0 -0.37682295806E-01  0.35961729158E-01  0.80527023237E+00  0.80695328839E+00  0.51100000000E-03 0.  1.
    9000002    1    1    2    0    0  0.19547825650E+00 -0.18107210229E+00  0.47229910436E-01  0.97625484349E+00  0.93800000000E+00 0.  1.
         22    1    1    2    0    0 -0.15779596069E+00  0.14511037313E+00  0.31474998246E+01  0.31547918681E+01  0.00000000000E+00 0.  1.
</event>
<event>
 5    1  0.1560836E+002  0.1599516E+01  0.7818608E-02  0.3353889E+00
         11   -1    0    0    0    0  0.00000000000E+00  0.00000000000E+00  0.39999999674E+01  0.40000000000E+01  0.51100000000E-03 0. -1.
    9000002   -1    0    0    0    0 -0.00000000000E+00 -0.00000000000E+00  0.00000000000E+00  0.93800000000E+00  0.93800000000E+00 0.  1.
         11    1    1    2    0    0  0.24626551277E-02  0.18165103492E-01  0.18639285187E+00  0.18729279753E+00  0.51100000000E-03 0. -1.
    9000002    1    1    2    0    0  0.59772712442E-01 -0.45388510734E+00  0.14265200945E+00  0.10534600437E+01  0.93800000000E+00 0.  1.
         22    1    1    2    0    0 -0.62235367569E-01  0.43572000384E+00  0.36709551060E+01  0.36972471588E+01  0.00000000000E+00 0. -1.
</event>
<event>
 5    1  0.1560836E+002  0.1599582E+01  0.7818608E-02  0.3353818E+00
         11   -1    0    0    0    0  0.00000000000E+00  0.00000000000E+00  0.39999999674E+01  0.40000000000E+01  0.51100000000E-03 0. -1.
    9000002   -1    0    0    0    0 -0.00000000000E+00 -0.00000000000E+00  0.00000000000E+00  0.93800000000E+00  0.93800000000E+00 0. -1.
         11    1    1    2    0    0 -0.39649580574E-03 -0.11810536759E-02  0.48166263850E-01  0.48185082660E-01  0.51100000000E-03 0. -1.
    9000002    1    1    2    0    0 -0.17555960166E+00  0.99211342311E-01  0.26994615097E-01  0.95981080085E+00  0.93800000000E+00 0. -1.
         22    1    1    2    0    0  0.17595609746E+00 -0.98030288635E-01  0.39248390884E+01  0.39300041165E+01  0.00000000000E+00 0. -1.
</event>
<event>
 5    1  0.1560836E+002  0.1599669E+01  0.7818608E-02  0.3353723E+00
         11   -1    0    0    0    0  0.00000000000E+00  0.00000000000E+00  0.39999999674E+01  0.40000000000E+01  0.51100000000E-03 0. -1.
    9000002   -1    0    0    0    0 -0.00000000000E+00 -0.00000000000E+00  0.00000000000E+00  0.93800000000E+00  0.93800000000E+00 0.  1.
         11    1    1    2    0    0  0.10755094474E+00  0.10052715818E-01  0.86052611056E+00  0.86727948833E+00  0.51100000000E-03 0. -1.
    9000002    1    1    2    0    0 -0.48408697775E+00 -0.56543802771E-01  0.16227592661E+00  0.10694460622E+01  0.93800000000E+00 0.  1.
         22    1    1    2    0    0  0.37653603301E+00  0.46491086953E-01  0.29771979302E+01  0.30012744494E+01  0.00000000000E+00 0. -1.
</event>
<event>
 5    1  0.1560836E+002  0.1599674E+01  0.7818608E-02  0.3353717E+00
         11   -1    0    0    0    0  0.00000000000E+00  0.00000000000E+00  0.39999999674E+01  0.40000000000E+01  0.51100000000E-03 0. -1.
    9000002   -1    0    0    0    0 -0.00000000000E+00 -0.00000000000E+00  0.00000000000E+00  0.93800000000E+00  0.93800000000E+00 0.  1.
         11    1    1    2    0    0  0.39522072930E-01 -0.11784932299E+00  0.13136045936E+01  0.13194725259E+01  0.51100000000E-03 0. -1.
    9000002    1    1    2    0    0 -0.11276575349E+00  0.34831543452E+00  0.90041174285E-01  0.10109357893E+01  0.93800000000E+00 0.  1.
         22    1    1    2    0    0  0.73243680558E-01 -0.23046611153E+00  0.25963541995E+01  0.26075916848E+01  0.00000000000E+00 0. -1.
</event>
<event>
 5    1  0.1560836E+002  0.1599674E+01  0.7818608E-02  0.3353717E+00
         11   -1    0    0    0    0  0.00000000000E+00  0.00000000000E+00  0.39999999674E+01  0.40000000000E+01  0.51100000000E-03 0. -1.
    9000002   -1    0    0    0    0 -0.00000000000E+00 -0.00000000000E+00  0.00000000000E+00  0.93800000000E+00  0.93800000000E+00 0. -1.
         11    1    1    2    0    0 -0.53713074920E-02 -0.62200852979E-02  0.15535386763E+00  0.15557193100E+00  0.51100000000E-03 0. -1.
    9000002    1    1    2    0    0  0.13654033108E+00  0.17612050702E+00  0.32927531128E-01  0.96467088549E+00  0.93800000000E+00 0. -1.
         22    1    1    2    0    0 -0.13116902359E+00 -0.16990042172E+00  0.38117185686E+01  0.38177571835E+01  0.00000000000E+00 0. -1.
</event>
<event>
 5    1  0.1560836E+002  0.1599626E+01  0.7818608E-02  0.3353769E+00
         11   -1    0    0    0    0  0.00000000000E+00  0.00000000000E+00  0.39999999674E+01  0.40000000000E+01  0.51100000000E-03 0.  1.
    9000002   -1    0    0    0    0 -0.00000000000E+00 -0.00000000000E+00  0.00000000000E+00  0.93800000000E+00  0.93800000000E+00 0. -1.
         11    1    1    2    0    0  0.34015507406E-01  0.10535435791E+00  0.11815435831E+01  0.11867190465E+01  0.51100000000E-03 0.  1.
    9000002    1    1    2    0    0 -0.12140280520E+00 -0.37192284225E+00  0.10317300748E+00  0.10215448650E+01  0.93800000000E+00 0. -1.
         22    1    1    2    0    0  0.87387297789E-01  0.26656848435E+00  0.27152833768E+01  0.27297360885E+01  0.00000000000E+00 0.  1.
</event>
<event>
 5    1  0.1560836E+002  0.1599250E+01  0.7818608E-02  0.3354178E+00
         11   -1    0    0    0    0  0.00000000000E+00  0.00000000000E+00  0.39999999674E+01  0.40000000000E+01  0.51100000000E-03 0.  1.
    9000002   -1    0    0    0    0 -0.00000000000E+00 -0.00000000000E+00  0.00000000000E+00  0.93800000000E+00  0.93800000000E+00 0.  1.
         11    1    1    2    0    0  0.15793712042E-01  0.74774773113E-01  0.86559150989E+00  0.86895893525E+00  0.51100000000E-03 0.  1.
    9000002    1    1    2    0    0 -0.16339666182E+00 -0.35017213530E+00  0.10089893347E+00  0.10194820196E+01  0.93800000000E+00 0.  1.
         22    1    1    2    0    0  0.14760294978E+00  0.27539736219E+00  0.30335095240E+01  0.30495590452E+01  0.00000000000E+00 0.  1.
</event>
<event>
 5    1  0.1560836E+002  0.1599677E+01  0.7818608E-02  0.3353714E+00
         11   -1    0    0    0    0  0.00000000000E+00  0.00000000000E+00  0.39999999674E+01  0.40000000000E+01  0.51100000000E-03 0.  1.
    9000002   -1    0    0    0    0 -0.00000000000E+00 -0.00000000000E+00  0.00000000000E+00  0.93800000000E+00  0.93800000000E+00 0.  1.
         11    1    1    2    0    0 -0.22870835185E-01  0.13267306711E+00  0.13749929616E+01  0.13815683564E+01  0.51100000000E-03 0.  1.
    9000002    1    1    2    0    0  0.64045191039E-01 -0.37618410713E+00  0.97995534236E-01  0.10173806533E+01  0.93800000000E+00 0.  1.
         22    1    1    2    0    0 -0.41174355854E-01  0.24351104001E+00  0.25270114715E+01  0.25390509903E+01  0.00000000000E+00 0.  1.
</event>
<event>
 5    1  0.1560836E+002  0.1599677E+01  0.7818608E-02  0.3353714E+00
         11   -1    0    0    0    0  0.00000000000E+00  0.00000000000E+00  0.39999999674E+01  0.40000000000E+01  0.51100000000E-03 0.  1.
    9000002   -1    0    0    0    0 -0.00000000000E+00 -0.00000000000E+00  0.00000000000E+00  0.93800000000E+00  0.93800000000E+00 0.  1.
         11    1    1    2    0    0  0.14616579895E+00 -0.13540714861E+00  0.14744870939E+01  0.14878884327E+01  0.51100000000E-03 0.  1.
    9000002    1    1    2    0    0 -0.38014095778E+00  0.34965750541E+00  0.18313476151E+00  0.10863470255E+01  0.93800000000E+00 0.  1.
         22    1    1    2    0    0  0.23397515883E+00 -0.21425035680E+00  0.23423781119E+01  0.23637645419E+01  0.00000000000E+00 0.  1.
</event>
<event>
 5    1  0.1560836E+002  0.1599652E+01  0.7818608E-02  0.3353741E+00
         11   -1    0    0    0    0  0.00000000000E+00  0.00000000000E+00  0.39999999674E+01  0.40000000000E+01  0.51100000000E-03 0.  1.
    9000002   -1    0    0    0    0 -0.00000000000E+00 -0.00000000000E+00  0.00000000000E+00  0.93800000000E+00  0.93800000000E+00 0.  1.
         11    1    1    2    0    0 -0.16223000753E+00 -0.67923371653E-01  0.13015857439E+01  0.13134145841E+01  0.51100000000E-03 0.  1.
    9000002    1    1    2    0    0  0.46044072947E+00  0.19765137713E+00  0.17192597658E+00  0.10772531149E+01  0.93800000000E+00 0.  1.
         22    1    1    2    0    0 -0.29821072194E+00 -0.12972800548E+00  0.25264882468E+01  0.25473323010E+01  0.00000000000E+00 0.  1.
</event>
<event>
 5    1  0.1560836E+002  0.1599151E+01  0.7818608E-02  0.3354285E+00
         11   -1    0    0    0    0  0.00000000000E+00  0.00000000000E+00  0.39999999674E+01  0.40000000000E+01  0.51100000000E-03 0. -1.
    9000002   -1    0    0    0    0 -0.00000000000E+00 -0.00000000000E+00  0.00000000000E+00  0.93800000000E+00  0.93800000000E+00 0. -1.
         11    1    1    2    0    0  0.82745009425E-02 -0.55061225348E-02  0.26225660134E+00  0.26244536730E+00  0.51100000000E-03 0. -1.
    9000002    1    1    2    0    0 -0.32631180559E-01  0.26830236571E+00  0.49011278283E-01  0.97739299097E+00  0.93800000000E+00 0. -1.
         22    1    1    2    0    0  0.24356679617E-01 -0.26279624318E+00  0.36887320877E+01  0.36981616417E+01  0.00000000000E+00 0. -1.
</event>
<event>
 5    1  0.1560836E+002  0.1580935E+01  0.7818608E-02  0.3374319E+00
         11   -1    0    0    0    0  0.00000000000E+00  0.00000000000E+00  0.39999999674E+01  0.40000000000E+01  0.51100000000E-03 0. -1.
    9000002   -1    0    0    0    0 -0.00000000000E+00 -0.00000000000E+00  0.00000000000E+00  0.93800000000E+00  0.93800000000E+00 0.  1.
         11    1    1    2    0    0 -0.13896690223E+00 -0.44351134118E-01  0.13234676671E+01  0.13314825384E+01  0.51100000000E-03 0. -1.
    9000002    1    1    2    0    0 -0.48840853841E-01  0.12109417333E+00  0.25143910594E-01  0.94737819484E+00  0.93800000000E+00 0.  1.
         22    1    1    2    0    0  0.18780775607E+00 -0.76743039216E-01  0.26513883897E+01  0.26591392668E+01  0.00000000000E+00 0. -1.
</event>
<event>
 5    1  0.1560836E+002  0.1541133E+01  0.7818608E-02  0.3419843E+00
         11   -1    0    0    0    0  0.00000000000E+00  0.00000000000E+00  0.39999999674E+01  0.40000000000E+01  0.51100000000E-03 0. -1.
    9000002   -1    0    0    0    0 -0.00000000000E+00 -0.00000000000E+00  0.00000000000E+00  0.93800000000E+00  0.93800000000E+00 0.  1.
         11    1    1    2    0    0 -0.22699179651E-01 -0.17659611635E+00  0.12989772648E+01  0.13111230441E+01  0.51100000000E-03 0. -1.
    9000002    1    1    2    0    0  0.42841760765E-01 -0.29340016690E+00  0.10586844743E+00  0.98942973604E+00  0.93800000000E+00 0.  1.
         22    1    1    2    0    0 -0.20142581114E-01  0.46999628325E+00  0.25951542551E+01  0.26374472199E+01  0.00000000000E+00 0. -1.
</event>
<event>
 5    1  0.1560836E+002  0.1599676E+01  0.7818608E-02  0.3353715E+00
         11   -1    0    0    0    0  0.00000000000E+00  0.00000000000E+00  0.39999999674E+01  0.40000000000E+01  0.51100000000E-03 0. -1.
    9000002   -1    0    0    0    0 -0.00000000000E+00 -0.00000000000E+00  0.00000000000E+00  0.93800000000E+00  0.93800000000E+00 0. -1.
         11    1    1    2    0    0  0.90313243191E-01  0.68832395224E-01  0.11351268073E+01  0.11407924922E+01  0.51100000000E-03 0. -1.
    9000002    1    1    2    0    0 -0.31338894927E+00 -0.23812186415E+00  0.10440884619E+00  0.10225751136E+01  0.93800000000E+00 0. -1.
         22    1    1    2    0    0  0.22307570608E+00  0.16928946893E+00  0.27604643139E+01  0.27746323943E+01  0.00000000000E+00 0. -1.
</event>
<event>
 5    1  0.1560836E+002  0.1574774E+01  0.7818608E-02  0.3381206E+00
         11   -1    0    0    0    0  0.00000000000E+00  0.00000000000E+00  0.39999999674E+01  0.40000000000E+01  0.51100000000E-03 0.  1.
    9000002   -1    0    0    0    0 -0.00000000000E+00 -0.00000000000E+00  0.00000000000E+00  0.93800000000E+00  0.93800000000E+00 0. -1.
         11    1    1    2    0    0  0.13651504686E+00 -0.73553428245E-01  0.93364526050E+00  0.94643552258E+00  0.51100000000E-03 0.  1.
    9000002    1    1    2    0    0  0.80030912172E-01  0.12814124833E+00  0.33687634468E-01  0.95068605919E+00  0.93800000000E+00 0. -1.
         22    1    1    2    0    0 -0.21654595903E+00 -0.54587820084E-01  0.30326670724E+01  0.30408784182E+01  0.00000000000E+00 0.  1.
</event>
<event>
 5    1  0.1560836E+002  0.1599312E+01  0.7818608E-02  0.3354110E+00
         11   -1    0    0    0    0  0.00000000000E+00  0.00000000000E+00  0.39999999674E+01  0.40000000000E+01  0.51100000000E-03 0.  1.
    9000002   -1    0    0    0    0 -0.00000000000E+00 -0.00000000000E+00  0.00000000000E+00  0.93800000000E+00  0.93800000000E+00 0. -1.
         11    1    1    2    0    0  0.18844531068E-02  0.39447557459E+00  0.16986646584E+01  0.17438682326E+01  0.51100000000E-03 0.  1.
    9000002    1    1    2    0    0  0.40140714948E-01 -0.80033559337E+00  0.47370882842E+00  0.13215114048E+01  0.93800000000E+00 0. -1.
         22    1    1    2    0    0 -0.42025168055E-01  0.40586001878E+00  0.18276264806E+01  0.18726203625E+01  0.00000000000E+00 0.  1.
</event>
<event>
 5    1  0.1560836E+002  0.1579248E+01  0.7818608E-02  0.3376199E+00
         11   -1    0    0    0    0  0.00000000000E+00  0.00000000000E+00  0.39999999674E+01  0.40000000000E+01  0.51100000000E-03 0.  1.
    9000002   -1    0    0    0    0 -0.00000000000E+00 -0.00000000000E+00  0.00000000000E+00  0.93800000000E+00  0.93800000000E+00 0.  1.
         11    1    1    2    0    0 -0.63207068851E-01 -0.11949227909E+00  0.59015471157E+00  0.60543900025E+00  0.51100000000E-03 0.  1.
    9000002    1    1    2    0    0  0.23828198156E+00 -0.41765759973E-02  0.53394925327E-01  0.96927331779E+00  0.93800000000E+00 0.  1.
         22    1    1    2    0    0 -0.17507491271E+00  0.12366885509E+00  0.33564503305E+01  0.33632876820E+01  0.00000000000E+00 0.  1.
</event>
<event>
 5    1  0.1560836E+002  0.1570991E+01  0.7818608E-02  0.3385463E+00
         11   -1    0    0    0    0  0.00000000000E+00  0.00000000000E+00  0.39999999674E+01  0.40000000000E+01  0.51100000000E-03 0. -1.
    9000002   -1    0    0    0    0 -0.00000000000E+00 -0.00000000000E+00  0.00000000000E+00  0.93800000000E+00  0.93800000000E+00 0.  1.
         11    1    1    2    0    0 -0.12082202227E+00 -0.70682056194E-01  0.45907030556E+00  0.47993720496E+00  0.51100000000E-03 0. -1.
    9000002    1    1    2    0    0  0.24184751806E+00 -0.20401321150E+00  0.89897608717E-01  0.99400059986E+00  0.93800000000E+00 0.  1.
         22    1    1    2    0    0 -0.12102549580E+00  0.27469526770E+00  0.34510320531E+01  0.34640621952E+01  0.00000000000E+00 0. -1.
</event>
<event>
 5    1  0.1560836E+002  0.1599672E+01  0.7818608E-02  0.3353719E+00
         11   -1    0    0    0    0  0.00000000000E+00  0.00000000000E+00  0.39999999674E+01  0.40000000000E+01  0.51100000000E-03 0. -1.
    9000002   -1    0    0    0    0 -0.00000000000E+00 -0.00000000000E+00  0.00000000000E+00  0.93800000000E+00  0.93800000000E+00 0.  1.
         11    1    1    2    0    0 -0.26696031081E-01  0.19400196696E-01  0.50848678934E+00  0.50955678954E+00  0.51100000000E-03 0. -1.
    9000002    1    1    2    0    0  0.20202540149E+00 -0.13876015504E+00  0.39891942699E-01  0.97031129570E+00  0.93800000000E+00 0.  1.
         22    1    1    2    0    0 -0.17532937041E+00  0.11935995834E+00  0.34516212353E+01  0.34581319148E+01  0.00000000000E+00 0. -1.
</event>
<event>
 5    1  0.1560836E+002  0.1598765E+01  0.7818608E-02  0.3354705E+00
         11   -1    0    0    0    0  0.00000000000E+00  0.00000000000E+00  0.39999999674E+01  0.40000000000E+01  0.51100000000E-03 0.  1.
    9000002   -1    0    0    0    0 -0.00000000000E+00 -0.00000000000E+00  0.00000000000E+00  0.93800000000E+00  0.93800000000E+00 0.  1.
         11    1    1    2    0    0 -0.10584748512E+00 -0.15592551153E-01  0.68303374972E+00  0.69136255477E+00  0.51100000000E-03 0.  1.
    9000002    1    1    2    0    0  0.44848344921E+00  0.38214427124E-01  0.13839119127E+00  0.10495684201E+01  0.93800000000E+00 0.  1.
         22    1    1    2    0    0 -0.34263596409E+00 -0.22621875971E-01  0.31785750264E+01  0.31970690251E+01  0.00000000000E+00 0.  1.
</event>
<event>
 5    1  0.1560836E+002  0.1495053E+01  0.7818608E-02  0.3475789E+00
         11   -1    0    0    0    0  0.00000000000E+00  0.00000000000E+00  0.39999999674E+01  0.40000000000E+01  0.51100000000E-03 0.  1.
    9000002   -1    0    0    0    0 -0.00000000000E+00 -0.00000000000E+00  0.00000000000E+00  0.93800000000E+00  0.93800000000E+00 0. -1.
         11    1    1    2    0    0 -0.12920684684E+00 -0.21678055499E+00  0.30128460974E+01  0.30233971102E+01  0.51100000000E-03 0.  1.
    9000002    1    1    2    0    0 -0.13409870912E+00 -0.23886260997E-01  0.93567217376E-01  0.95244519077E+00  0.93800000000E+00 0. -1.
         22    1    1    2    0    0  0.26330555595E+00  0.24066681599E+00  0.89358665263E+00  0.96215769907E+00  0.00000000000E+00 0.  1.
</event>
<event>
 5    1  0.1560836E+002  0.1593427E+01  0.7818608E-02  0.3360529E+00
         11   -1    0    0    0    0  0.00000000000E+00  0.00000000000E+00  0.39999999674E+01  0.40000000000E+01  0.51100000000E-03 0.  1.
    9000002   -1    0    0    0    0 -0.00000000000E+00 -0.00000000000E+00  0.00000000000E+00  0.93800000000E+00  0.93800000000E+00 0.  1.
         11    1    1    2    0    0  0.26975818842E-01 -0.11482934786E-01  0.13664163702E+00  0.13975246217E+00  0.51100000000E-03 0.  1.
    9000002    1    1    2    0    0  0.99828098133E-01 -0.15702180728E+00  0.27578026215E-01  0.95667447163E+00  0.93800000000E+00 0.  1.
         22    1    1    2    0    0 -0.12680391698E+00  0.16850474206E+00  0.38357803041E+01  0.38415730662E+01  0.00000000000E+00 0.  1.
</event>
<event>
 5    1  0.1560836E+002  0.1599676E+01  0.7818608E-02  0.3353715E+00
         11   -1    0    0    0    0  0.00000000000E+00  0.00000000000E+00  0.39999999674E+01  0.40000000000E+01  0.51100000000E-03 0. -1.
    9000002   -1    0    0    0    0 -0.00000000000E+00 -0.00000000000E+00  0.00000000000E+00  0.93800000000E+00  0.93800000000E+00 0. -1.
         11    1    1    2    0    0  0.38290325641E-01  0.16588666043E-01  0.65532447200E+00  0.65665193033E+00  0.51100000000E-03 0. -1.
    9000002    1    1    2    0    0 -0.22616058636E+00 -0.10160798529E+00  0.40830209709E-01  0.97107358090E+00  0.93800000000E+00 0. -1.
         22    1    1    2    0    0  0.18787026072E+00  0.85019319245E-01  0.33038452857E+01  0.33102744888E+01  0.00000000000E+00 0. -1.
</event>
<event>
 5    1  0.1560836E+002  0.1599675E+01  0.7818608E-02  0.3353716E+00
         11   -1    0    0    0    0  0.00000000000E+00  0.00000000000E+00  0.39999999674E+01  0.40000000000E+01  0.51100000000E-03 0.  1.
    9000002   -1    0    0    0    0 -0.00000000000E+00 -0.00000000000E+00  0.00000000000E+00  0.93800000000E+00  0.93800000000E+00 0.  1.
         11    1    1    2    0    0  0.25769898246E+00  0.22530060526E+00  0.23260413603E+01  0.23510928947E+01  0.51100000000E-03 0.  1.
    9000002    1    1    2    0    0 -0.41986758213E+00 -0.36900805761E+00  0.21618728425E+00  0.11131202428E+01  0.93800000000E+00 0.  1.
         22    1    1    2    0    0  0.16216859966E+00  0.14370745235E+00  0.14577713228E+01  0.14737868625E+01  0.00000000000E+00 0. -1.
</event>
<event>
 5    1  0.1560836E+002  0.1599551E+01  0.7818608E-02  0.3353851E+00
         11   -1    0    0    0    0  0.00000000000E+00  0.00000000000E+00  0.39999999674E+01  0.40000000000E+01  0.51100000000E-03 0.  1.
    9000002   -1    0    0    0    0 -0.00000000000E+00 -0.00000000000E+00  0.00000000000E+00  0.93800000000E+00  0.93800000000E+00 0. -1.
         11    1    1    2    0    0  0.29769095749E-01  0.38424808031E-02  0.54279038360E+00  0.54361992731E+00  0.51100000000E-03 0.  1.
    9000002    1    1    2    0    0 -0.23865535974E+00  0.36217069397E-01  0.38777730503E-01  0.96933779934E+00  0.93800000000E+00 0. -1.
         22    1    1    2    0    0  0.20888626399E+00 -0.40059550200E-01  0.34184318533E+01  0.34250422734E+01  0.00000000000E+00 0.  1.
</event>
<event>
 5    1  0.1560836E+002  0.1599401E+01  0.7818608E-02  0.3354013E+00
         11   -1    0    0    0    0  0.00000000000E+00  0.00000000000E+00  0.39999999674E+01  0.40000000000E+01  0.51100000000E-03 0. -1.
    9000002   -1    0    0    0    0 -0.00000000000E+00 -0.00000000000E+00  0.00000000000E+00  0.93800000000E+00  0.93800000000E+00 0.  1.
         11    1    1    2    0    0 -0.14184174841E+00  0.15526622347E-01  0.12958488558E+01  0.13036812017E+01  0.51100000000E-03 0. -1.
    9000002    1    1    2    0    0  0.38212793564E+00 -0.11903459679E-01  0.98598870922E-01  0.10177078112E+01  0.93800000000E+00 0.  1.
         22    1    1    2    0    0 -0.24028618723E+00 -0.36231626678E-02  0.26055522407E+01  0.26166109871E+01  0.00000000000E+00 0.  1.
</event>
<event>
 5    1  0.1560836E+002  0.1599054E+01  0.7818608E-02  0.3354390E+00
         11   -1    0    0    0    0  0.00000000000E+00  0.00000000000E+00  0.39999999674E+01  0.40000000000E+01  0.51100000000E-03 0. -1.
    9000002   -1    0    0    0    0 -0.00000000000E+00 -0.00000000000E+00  0.00000000000E+00  0.93800000000E+00  0.93800000000E+00 0. -1.
         11    1    1    2    0    0  0.15036734528E-02 -0.59823449078E-02  0.92903391588E-01  0.93109348478E-01  0.51100000000E-03 0. -1.
    9000002    1    1    2    0    0  0.21044196526E+00 -0.17453911329E-01  0.30008800358E-01  0.96194333922E+00  0.93800000000E+00 0. -1.
         22    1    1    2    0    0 -0.21194563871E+00  0.23436256237E-01  0.38770877754E+01  0.38829473123E+01  0.00000000000E+00 0. -1.
</event>
<event>
 5    1  0.1560836E+002  0.1542585E+01  0.7818608E-02  0.3418139E+00
         11   -1    0    0    0    0  0.00000000000E+00  0.00000000000E+00  0.39999999674E+01  0.40000000000E+01  0.51100000000E-03 0. -1.
    9000002   -1    0    0    0    0 -0.00000000000E+00 -0.00000000000E+00  0.00000000000E+00  0.93800000000E+00  0.93800000000E+00 0.  1.
         11    1    1    2    0    0  0.14291514777E+00 -0.18927105577E+00  0.61843999824E+00  0.66235682570E+00  0.51100000000E-03 0. -1.
    9000002    1    1    2    0    0 -0.35678188834E+00 -0.39430718931E-01  0.13424712048E+00  0.10132691581E+01  0.93800000000E+00 0.  1.
         22    1    1    2    0    0  0.21386674058E+00  0.22870177470E+00  0.32473128486E+01  0.32623740162E+01  0.00000000000E+00 0.  1.
</event>
<event>
 5    1  0.1560836E+002  0.1597995E+01  0.7818608E-02  0.3355542E+00
         11   -1    0    0    0    0  0.00000000000E+00  0.00000000000E+00  0.39999999674E+01  0.40000000000E+01  0.51100000000E-03 0.  1.
    9000002   -1    0    0    0    0 -0.00000000000E+00 -0.00000000000E+00  0.00000000000E+00  0.93800000000E+00  0.93800000000E+00 0.  1.
         11    1    1    2    0    0 -0.57815771667E-01 -0.13813881429E+00  0.47851750340E+00  0.50140229123E+00  0.51100000000E-03 0.  1.
    9000002    1    1    2    0    0  0.36193413865E+00  0.75438948305E+00  0.52477745700E+00  0.13621068946E+01  0.93800000000E+00 0.  1.
         22    1    1    2    0    0 -0.30411836698E+00 -0.61625066876E+00  0.29967050070E+01  0.30744908142E+01  0.00000000000E+00 0.  1.
</event>
<event>
 5    1  0.1560836E+002  0.1599661E+01  0.7818608E-02  0.3353732E+00
         11   -1    0    0    0    0  0.00000000000E+00  0.00000000000E+00  0.39999999674E+01  0.40000000000E+01  0.51100000000E-03 0.  1.
    9000002   -1    0    0    0    0 -0.00000000000E+00 -0.00000000000E+00  0.00000000000E+00  0.93800000000E+00  0.93800000000E+00 0.  1.
         11    1    1    2    0    0 -0.30084012676E+00 -0.29804109291E+00  0.24259000932E+01  0.24625849829E+01  0.51100000000E-03 0.  1.
    9000002    1    1    2    0    0  0.46606169458E+00  0.45371502595E+00  0.29858814831E+00  0.11798600384E+01  0.93800000000E+00 0.  1.
         22    1    1    2    0    0 -0.16522156782E+00 -0.15567393304E+00  0.12755117259E+01  0.12955549787E+01  0.00000000000E+00 0.  1.
</event>
<event>
 5    1  0.1560836E+002  0.1599661E+01  0.7818608E-02  0.3353731E+00
         11   -1    0    0    0    0  0.00000000000E+00  0.00000000000E+00  0.39999999674E+01  0.40000000000E+01  0.51100000000E-03 0. -1.
    9000002   -1    0    0    0    0 -0.00000000000E+00 -0.00000000000E+00  0.00000000000E+00  0.93800000000E+00  0.93800000000E+00 0.  1.
         11    1    1    2    0    0 -0.13989192332E+00  0.20612221356E+00  0.17495035426E+01  0.17671499721E+01  0.51100000000E-03 0. -1.
    9000002    1    1    2    0    0  0.30926116373E+00 -0.45508083769E+00  0.20912710242E+00  0.11073929660E+01  0.93800000000E+00 0.  1.
         22    1    1    2    0    0 -0.16936924040E+00  0.24895862413E+00  0.20413693223E+01  0.20634570619E+01  0.00000000000E+00 0. -1.
</event>
<event>
 5    1  0.1560836E+002  0.1599673E+01  0.7818608E-02  0.3353719E+00
         11   -1    0    0    0    0  0.00000000000E+00  0.00000000000E+00  0.39999999674E+01  0.40000000000E+01  0.51100000000E-03 0.  1.
    9000002   -1    0    0    0    0 -0.00000000000E+00 -0.00000000000E+00  0.00000000000E+00  0.93800000000E+00  0.93800000000E+00 0. -1.
         11    1    1    2    0    0  0.16146156129E-01 -0.45832974471E+00  0.22264812187E+01  0.22732236431E+01  0.51100000000E-03 0.  1.
    9000002    1    1    2    0    0 -0.22632695506E-01  0.74006746799E+00  0.39628645488E+00  0.12590071685E+01  0.93800000000E+00 0. -1.
         22    1    1    2    0    0  0.64865393775E-02 -0.28173772328E+00  0.13772322938E+01  0.14057691884E+01  0.00000000000E+00 0. -1.
</event>
<event>
 5    1  0.1560836E+002  0.1599676E+01  0.7818608E-02  0.3353715E+00
         11   -1    0    0    0    0  0.00000000000E+00  0.00000000000E+00  0.39999999674E+01  0.40000000000E+01  0.51100000000E-03 0.  1.
    9000002   -1    0    0    0    0 -0.00000000000E+00 -0.00000000000E+00  0.00000000000E+00  0.93800000000E+00  0.93800000000E+00 0. -1.
         11    1    1    2    0    0 -0.92726713955E-01 -0.10102827495E+00  0.12175417606E+01  0.12252400401E+01  0.51100000000E-03 0.  1.
    9000002    1    1    2    0    0  0.29536883953E+00  0.32507397609E+00  0.13082141083E+00  0.10439703458E+01  0.93800000000E+00 0. -1.
         22    1    1    2    0    0 -0.20264212558E+00 -0.22404570115E+00  0.26516367959E+01  0.26687896142E+01  0.00000000000E+00 0. -1.
</event>
<event>
 5    1  0.1560836E+002  0.1599648E+01  0.7818608E-02  0.3353745E+00
         11   -1    0    0    0    0  0.00000000000E+00  0.00000000000E+00  0.39999999674E+01  0.40000000000E+01  0.51100000000E-03 0. -1.
    9000002   -1    0    0    0    0 -0.00000000000E+00 -0.00000000000E+00  0.00000000000E+00  0.93800000000E+00  0.93800000000E+00 0. -1.
         11    1    1    2    0    0 -0.80228967356E-01 -0.26419695722E+00  0.20163418049E+01  0.20351587788E+01  0.51100000000E-03 0. -1.
    9000002    1    1    2    0    0  0.14894118662E+00  0.51063372345E+00  0.19479152248E+00  0.10957727930E+01  0.93800000000E+00 0. -1.
         22    1    1    2    0    0 -0.68712219269E-01 -0.24643676623E+00  0.17888666400E+01  0.18070684283E+01  0.00000000000E+00 0. -1.
</event>
<event>
 5    1  0.1560836E+002  0.1599667E+01  0.7818608E-02  0.3353724E+00
         11   -1    0    0    0    0  0.00000000000E+00  0.00000000000E+00  0.39999999674E+01  0.40000000000E+01  0.51100000000E-03 0.  1.
    9000002   -1    0    0    0    0 -0.00000000000E+00 -0.00000000000E+00  0.00000000000E+00  0.93800000000E+00  0.93800000000E+00 0.  1.
         11    1    1    2    0    0 -0.17932400006E-01  0.32062129186E-02  0.24295703849E+00  0.24363955845E+00  0.51100000000E-03 0.  1.
    9000002    1    1    2    0    0  0.26844183917E+00 -0.35902335389E-01  0.48814360068E-01  0.97753610698E+00  0.93800000000E+00 0.  1.
         22    1    1    2    0    0 -0.25050943916E+00  0.32696122471E-01  0.37082285688E+01  0.37168243346E+01  0.00000000000E+00 0.  1.
</event>
<event>
 5    1  0.1560836E+002  0.1574674E+01  0.7818608E-02  0.3381318E+00
         11   -1    0    0    0    0  0.00000000000E+00  0.00000000000E+00  0.39999999674E+01  0.40000000000E+01  0.51100000000E-03 0.  1.
    9000002   -1    0    0    0    0 -0.00000000000E+00 -0.00000000000E+00  0.00000000000E+00  0.93800000000E+00  0.93800000000E+00 0.  1.
         11    1    1    2    0    0 -0.15048199516E+00  0.17883792973E+00  0.14291517159E+01  0.14481376744E+01  0.51100000000E-03 0.  1.
    9000002    1    1    2    0    0  0.27279694141E+00 -0.80115690610E-02  0.69132269733E-01  0.97933938305E+00  0.93800000000E+00 0.  1.
         22    1    1    2    0    0 -0.12231494625E+00 -0.17082636067E+00  0.25017159818E+01  0.25105229425E+01  0.00000000000E+00 0.  1.
</event>
<event>
 5    1  0.1560836E+002  0.1596733E+01  0.7818608E-02  0.3356917E+00
         11   -1    0    0    0    0  0.00000000000E+00  0.00000000000E+00  0.39999999674E+01  0.40000000000E+01  0.51100000000E-03 0.  1.
    9000002   -1    0    0    0    0 -0.00000000000E+00 -0.00000000000E+00  0.00000000000E+00  0.93800000000E+00  0.93800000000E+00 0.  1.
         11    1    1    2    0    0 -0.50261064934E-01 -0.59795946500E-01  0.10271904493E+01  0.10301564008E+01  0.51100000000E-03 0.  1.
    9000002    1    1    2    0    0  0.30532343832E+00  0.40541235115E-01  0.65651516125E-01  0.98945445337E+00  0.93800000000E+00 0.  1.
         22    1    1    2    0    0 -0.25506237339E+00  0.19254711385E-01  0.29071580019E+01  0.29183891458E+01  0.00000000000E+00 0.  1.
</event>
<event>
 5    1  0.1560836E+002  0.1599669E+01  0.7818608E-02  0.3353723E+00
         11   -1    0    0    0    0  0.00000000000E+00  0.00000000000E+00  0.39999999674E+01  0.40000000000E+01  0.51100000000E-03 0. -1.
    9000002   -1    0    0    0    0 -0.00000000000E+00 -0.00000000000E+00  0.00000000000E+00  0.93800000000E+00  0.93800000000E+00 0. -1.
         11    1    1    2    0    0  0.46279210325E-01  0.27666227296E-01  0.45893769715E+00  0.46209442371E+00  0.51100000000E-03 0. -1.
    9000002    1    1    2    0    0 -0.40666401042E+00 -0.23271043220E+00  0.14952668765E+00  0.10591184981E+01  0.93800000000E+00 0. -1.
         22    1    1    2    0    0  0.36038480009E+00  0.20504420491E+00  0.33915355826E+01  0.34167870782E+01  0.00000000000E+00 0. -1.
</event>
<event>
 5    1  0.1560836E+002  0.1588981E+01  0.7818608E-02  0.3365411E+00
         11   -1    0    0    0    0  0.00000000000E+00  0.00000000000E+00  0.39999999674E+01  0.40000000000E+01  0.51100000000E-03 0.  1.
    9000002   -1    0    0    0    0 -0.00000000000E+00 -0.00000000000E+00  0.00000000000E+00  0.93800000000E+00  0.93800000000E+00 0. -1.
         11    1    1    2    0    0  0.93203214628E-01 -0.14139364921E-01  0.58627710247E+00  0.59380793431E+00  0.51100000000E-03 0.  1.
    9000002    1    1    2    0    0 -0.44535103618E-01  0.22068322463E+00  0.41742913672E-01  0.96554178156E+00  0.93800000000E+00 0. -1.
         22    1    1    2    0    0 -0.48668111010E-01 -0.20654385971E+00  0.33719799512E+01  0.33786502841E+01  0.00000000000E+00 0.  1.
</event>
<event>
 5    1  0.1560836E+002  0.1587136E+01  0.7818608E-02  0.3367445E+00
         11   -1    0    0    0    0  0.00000000000E+00  0.00000000000E+00  0.39999999674E+01  0.40000000000E+01  0.51100000000E-03 0.  1.
    9000002   -1    0    0    0    0 -0.00000000000E+00 -0.00000000000E+00  0.00000000000E+00  0.93800000000E+00  0.93800000000E+00 0. -1.
         11    1    1    2    0    0  0.13844231274E+00 -0.11022814427E+00  0.19493022890E+01  0.19573186232E+01  0.51100000000E-03 0.  1.
    9000002    1    1    2    0    0 -0.49903909079E-01  0.36607630185E+00  0.10202250122E+00  0.10132891244E+01  0.93800000000E+00 0. -1.
         22    1    1    2    0    0 -0.88538403663E-01 -0.25584815758E+00  0.19486751771E+01  0.19673922523E+01  0.00000000000E+00 0.  1.
</event>
<event>
 5    1  0.1560836E+002  0.1599108E+01  0.7818608E-02  0.3354332E+00
         11   -1    0    0    0    0  0.00000000000E+00  0.00000000000E+00  0.39999999674E+01  0.40000000000E+01  0.51100000000E-03 0. -1.
    9000002   -1    0    0    0    0 -0.00000000000E+00 -0.00000000000E+00  0.00000000000E+00  0.93800000000E+00  0.93800000000E+00 0.  1.
         11    1    1    2    0    0 -0.25758434808E-01  0.82249758938E-01  0.12692270254E+01  0.12721501573E+01  0.51100000000E-03 0. -1.
    9000002    1    1    2    0    0  0.64615101392E-02 -0.29464444157E+00  0.58359546786E-01  0.98494006658E+00  0.93800000000E+00 0.  1.
         22    1    1    2    0    0  0.19296924668E-01  0.21239468263E+00  0.26724133952E+01  0.26809097761E+01  0.00000000000E+00 0. -1.
</event>
<event>
 5    1  0.1560836E+002  0.1594323E+01  0.7818608E-02  0.3359548E+00
         11   -1    0    0    0    0  0.00000000000E+00  0.00000000000E+00  0.39999999674E+01  0.40000000000E+01  0.51100000000E-03 0. -1.
    9000002   -1    0    0    0    0 -0.00000000000E+00 -0.00000000000E+00  0.00000000000E+00  0.93800000000E+00  0.93800000000E+00 0.  1.
         11    1    1    2    0    0 -0.52513614145E-01 -0.34843078967E-01  0.45080431482E+00  0.45518843483E+00  0.51100000000E-03 0. -1.
    9000002    1    1    2    0    0 -0.25873410303E-01  0.23635323862E+00  0.41601216359E-01  0.96855921242E+00  0.93800000000E+00 0.  1.
         22    1    1    2    0    0  0.78387024448E-01 -0.20151015966E+00  0.35075944362E+01  0.35142523527E+01  0.00000000000E+00 0. -1.
</event>
<event>
 5    1  0.1560836E+002  0.1599677E+01  0.7818608E-02  0.3353714E+00
         11   -1    0    0    0    0  0.00000000000E+00  0.00000000000E+00  0.39999999674E+01  0.40000000000E+01  0.51100000000E-03 0.  1.
    9000002   -1    0    0    0    0 -0.00000000000E+00 -0.00000000000E+00  0.00000000000E+00  0.93800000000E+00  0.93800000000E+00 0. -1.
         11    1    1    2    0    0 -0.19317497045E+00  0.53311052566E-01  0.15397917685E+01  0.15527773791E+01  0.51100000000E-03 0. -1.
    9000002    1    1    2    0    0  0.47967252632E+00 -0.13310878859E+00  0.16957311698E+00  0.10753616713E+01  0.93800000000E+00 0. -1.
         22    1    1    2    0    0 -0.28649755587E+00  0.79797736028E-01  0.22906350818E+01  0.23098609496E+01  0.00000000000E+00 0.  1.
</event>
<event>
 5    1  0.1560836E+002  0.1596933E+01  0.7818608E-02  0.3356699E+00
         11   -1    0    0    0    0  0.00000000000E+00  0.00000000000E+00  0.39999999674E+01  0.40000000000E+01  0.51100000000E-03 0.  1.
    9000002   -1    0    0    0    0 -0.00000000000E+00 -0.00000000000E+00  0.00000000000E+00  0.93800000000E+00  0.93800000000E+00 0.  1.
         11    1    1    2    0    0 -0.11771419478E-01 -0.61310171554E-04  0.18157226775E+00  0.18195416899E+00  0.51100000000E-03 0.  1.
    9000002    1    1    2    0    0 -0.29506150028E+00  0.16135424125E+00  0.77915258592E-01  0.99950551156E+00  0.93800000000E+00 0.  1.
         22    1    1    2    0    0  0.30683291976E+00 -0.16129293108E+00  0.37405124410E+01  0.37565403195E+01  0.00000000000E+00 0.  1.
</event>
<event>
 5    1  0.1560836E+002  0.1599663E+01  0.7818608E-02  0.3353729E+00
         11   -1    0    0    0    0  0.00000000000E+00  0.00000000000E+00  0.39999999674E+01  0.40000000000E+01  0.51100000000E-03 0.  1.
    9000002   -1    0    0    0    0 -0.00000000000E+00 -0.00000000000E+00  0.00000000000E+00  0.93800000000E+00  0.93800000000E+00 0. -1.
         11    1    1    2    0    0  0.70523994132E-01  0.82244154045E-01  0.13367498893E+01  0.13411332008E+01  0.51100000000E-03 0.  1.
    9000002    1    1    2    0    0 -0.21884205933E+00 -0.24627855674E+00  0.72632296007E-01  0.99682717904E+00  0.93800000000E+00 0. -1.
         22    1    1    2    0    0  0.14831806520E+00  0.16403440270E+00  0.25906177820E+01  0.26000396201E+01  0.00000000000E+00 0.  1.
</event>
<event>
 5    1  0.1560836E+002  0.1599569E+01  0.7818608E-02  0.3353831E+00
         11   -1    0    0    0    0  0.00000000000E+00  0.00000000000E+00  0.39999999674E+01  0.40000000000E+01  0.51100000000E-03 0.  1.
    9000002   -1    0    0    0    0 -0.00000000000E+00 -0.00000000000E+00  0.00000000000E+00  0.93800000000E+00  0.93800000000E+00 0. -1.
         11    1    1    2    0    0 -0.60889518648E-02 -0.68756503134E-01  0.93107696936E+00  0.93363221670E+00  0.51100000000E-03 0.  1.
    9000002    1    1    2    0    0  0.49265112837E-01  0.32822033024E+00  0.73803459603E-01  0.99772069598E+00  0.93800000000E+00 0. -1.
         22    1    1    2    0    0 -0.43176160972E-01 -0.25946382711E+00  0.29951195384E+01  0.30066470873E+01  0.00000000000E+00 0. -1.
</event>
<event>
 5    1  0.1560836E+002  0.1599677E+01  0.7818608E-02  0.3353714E+00
         11   -1    0    0    0    0  0.00000000000E+00  0.00000000000E+00  0.39999999674E+01  0.40000000000E+01  0.51100000000E-03 0.  1.
    9000002   -1    0    0    0    0 -0.00000000000E+00 -0.00000000000E+00  0.00000000000E+00  0.93800000000E+00  0.93800000000E+00 0.  1.
         11    1    1    2    0    0 -0.74477916549E-01 -0.63801065821E-01  0.12589034639E+01  0.12627175966E+01  0.51100000000E-03 0.  1.
    9000002    1    1    2    0    0  0.23345003450E+00  0.20036589158E+00  0.63184739735E-01  0.98918234945E+00  0.93800000000E+00 0.  1.
         22    1    1    2    0    0 -0.15897211795E+00 -0.13656482576E+00  0.26779117637E+01  0.26861000540E+01  0.00000000000E+00 0.  1.
</event>
<event>
 5    1  0.1560836E+002  0.1556294E+01  0.7818608E-02  0.3402211E+00
         11   -1    0    0    0    0  0.00000000000E+00  0.00000000000E+00  0.39999999674E+01  0.40000000000E+01  0.51100000000E-03 0. -1.
    9000002   -1    0    0    0    0 -0.00000000000E+00 -0.00000000000E+00  0.00000000000E+00  0.93800000000E+00  0.93800000000E+00 0. -1.
         11    1    1    2    0    0  0.28833408249E+00 -0.48741062535E-01  0.26553312742E+01  0.26713847853E+01  0.51100000000E-03 0. -1.
    9000002    1    1    2    0    0 -0.15516222410E+00 -0.14514882729E+00  0.63308257794E-01  0.96384409183E+00  0.93800000000E+00 0. -1.
         22    1    1    2    0    0 -0.13317185839E+00  0.19388988982E+00  0.12813604353E+01  0.13027711228E+01  0.00000000000E+00 0. -1.
</event>
<event>
 5    1  0.1560836E+002  0.1599675E+01  0.7818608E-02  0.3353717E+00
         11   -1    0    0    0    0  0.00000000000E+00  0.00000000000E+00  0.39999999674E+01  0.40000000000E+01  0.51100000000E-03 0.  1.
    9000002   -1    0    0    0    0 -0.00000000000E+00 -0.00000000000E+00  0.00000000000E+00  0.93800000000E+00  0.93800000000E+00 0.  1.
         11    1    1    2    0    0  0.32576116208E-01 -0.25559706284E-01  0.25880019030E+00  0.26209216232E+00  0.51100000000E-03 0.  1.
    9000002    1    1    2    0    0 -0.47209036062E+00  0.38197379188E+00  0.25769847042E+00  0.11467457381E+01  0.93800000000E+00 0.  1.
         22    1    1    2    0    0  0.43951424441E+00 -0.35641408560E+00  0.34835013066E+01  0.35291620995E+01  0.00000000000E+00 0.  1.
</event>
<event>
 5    1  0.1560836E+002  0.1519983E+01  0.7818608E-02  0.3445070E+00
         11   -1    0    0    0    0  0.00000000000E+00  0.00000000000E+00  0.39999999674E+01  0.40000000000E+01  0.51100000000E-03 0. -1.
    9000002   -1    0    0    0    0 -0.00000000000E+00 -0.00000000000E+00  0.00000000000E+00  0.93800000000E+00  0.93800000000E+00 0.  1.
         11    1    1    2    0    0 -0.94056238288E-01 -0.40740078713E-01  0.67712732973E-01  0.12284789498E+00  0.51100000000E-03 0. -1.
    9000002    1    1    2    0    0  0.75908723711E-02 -0.19568637366E+00  0.87587506330E-01  0.96221949130E+00  0.93800000000E+00 0.  1.
         22    1    1    2    0    0  0.86465365917E-01  0.23642645237E+00  0.38446997281E+01  0.38529326137E+01  0.00000000000E+00 0. -1.
</event>
<event>
 5    1  0.1560836E+002  0.1599674E+01  0.7818608E-02  0.3353718E+00
         11   -1    0    0    0    0  0.00000000000E+00  0.00000000000E+00  0.39999999674E+01  0.40000000000E+01  0.51100000000E-03 0. -1.
    9000002   -1    0    0    0    0 -0.00000000000E+00 -0.00000000000E+00  0.00000000000E+00  0.93800000000E+00  0.93800000000E+00 0. -1.
         11    1    1    2    0    0  0.31542014945E+00 -0.42402328058E+00  0.22017022247E+01  0.22642390688E+01  0.51100000000E-03 0. -1.
    9000002    1    1    2    0    0 -0.50066036578E+00  0.66768831469E+00  0.51933763737E+00  0.13586846834E+01  0.93800000000E+00 0. -1.
         22    1    1    2    0    0  0.18524021633E+00 -0.24366503411E+00  0.12789601053E+01  0.13150762478E+01  0.00000000000E+00 0. -1.
</event>
<event>
 5    1  0.1560836E+002  0.1599096E+01  0.7818608E-02  0.3354345E+00
         11   -1    0    0    0    0  0.00000000000E+00  0.00000000000E+00  0.39999999674E+01  0.40000000000E+01  0.51100000000E-03 0. -1.
    9000002   -1    0    0    0    0 -0.00000000000E+00 -0.00000000000E+00  0.00000000000E+00  0.93800000000E+00  0.93800000000E+00 0. -1.
         11    1    1    2    0    0 -0.45686502714E-02  0.12978040971E-02  0.33567987648E-01  0.33906161336E-01  0.51100000000E-03 0. -1.
    9000002    1    1    2    0    0  0.68056258312E-01  0.25852519283E+00  0.47987462265E-01  0.97653147730E+00  0.93800000000E+00 0. -1.
         22    1    1    2    0    0 -0.63487608041E-01 -0.25982299692E+00  0.39184445174E+01  0.39275623614E+01  0.00000000000E+00 0. -1.
</event>
<event>
 5    1  0.1560836E+002  0.1598741E+01  0.7818608E-02  0.3354731E+00
         11   -1    0    0    0    0  0.00000000000E+00  0.00000000000E+00  0.39999999674E+01  0.40000000000E+01  0.51100000000E-03 0.  1.
    9000002   -1    0    0    0    0 -0.00000000000E+00 -0.00000000000E+00  0.00000000000E+00  0.93800000000E+00  0.93800000000E+00 0.  1.
         11    1    1    2    0    0  0.35344727098E-01 -0.74346715337E-01  0.85013603188E+00  0.85411253218E+00  0.51100000000E-03 0.  1.
    9000002    1    1    2    0    0 -0.27682956860E-01  0.37798951093E+00  0.97404582111E-01  0.10163533190E+01  0.93800000000E+00 0.  1.
         22    1    1    2    0    0 -0.76617702371E-02 -0.30364279559E+00  0.30524593534E+01  0.30675341488E+01  0.00000000000E+00 0.  1.
</event>
<event>
 5    1  0.1560836E+002  0.1599490E+01  0.7818608E-02  0.3353917E+00
         11   -1    0    0    0    0  0.00000000000E+00  0.00000000000E+00  0.39999999674E+01  0.40000000000E+01  0.51100000000E-03 0. -1.
    9000002   -1    0    0    0    0 -0.00000000000E+00 -0.00000000000E+00  0.00000000000E+00  0.93800000000E+00  0.93800000000E+00 0.  1.
         11    1    1    2    0    0 -0.56093851415E-01  0.19042886471E-01  0.62965989441E+00  0.63244050743E+00  0.51100000000E-03 0. -1.
    9000002    1    1    2    0    0  0.36183313858E+00 -0.44421973841E-01  0.89406801989E-01  0.10103138662E+01  0.93800000000E+00 0.  1.
         22    1    1    2    0    0 -0.30573928717E+00  0.25379087370E-01  0.32809332710E+01  0.32952456264E+01  0.00000000000E+00 0. -1.
</event>
<event>
 5    1  0.1560836E+002  0.1599376E+01  0.7818608E-02  0.3354041E+00
         11   -1    0    0    0    0  0.00000000000E+00  0.00000000000E+00  0.39999999674E+01  0.40000000000E+01  0.51100000000E-03 0. -1.
    9000002   -1    0    0    0    0 -0.00000000000E+00 -0.00000000000E+00  0.00000000000E+00  0.93800000000E+00  0.93800000000E+00 0. -1.
         11    1    1    2    0    0  0.20422483106E-01  0.80098251072E-02  0.48048613101E+00  0.48098692116E+00  0.51100000000E-03 0. -1.
    9000002    1    1    2    0    0 -0.21668993419E+00  0.35452034298E-01  0.32183506110E-01  0.96389374538E+00  0.93800000000E+00 0. -1.
         22    1    1    2    0    0  0.19626745108E+00 -0.43461859405E-01  0.34873303302E+01  0.34931193335E+01  0.00000000000E+00 0. -1.
</event>
<event>
 5    1  0.1560836E+002  0.1533203E+01  0.7818608E-02  0.3429215E+00
         11   -1    0    0    0    0  0.00000000000E+00  0.00000000000E+00  0.39999999674E+01  0.40000000000E+01  0.51100000000E-03 0. -1.
    9000002   -1    0    0    0    0 -0.00000000000E+00 -0.00000000000E+00  0.00000000000E+00  0.93800000000E+00  0.93800000000E+00 0.  1.
         11    1    1    2    0    0  0.14942538575E+00 -0.13447861885E-01  0.24503893553E+01  0.24549780131E+01  0.51100000000E-03 0. -1.
    9000002    1    1    2    0    0  0.22859607291E+00  0.13440248604E+00  0.99793432942E-01  0.97985862351E+00  0.93800000000E+00 0.  1.
         22    1    1    2    0    0 -0.37802145866E+00 -0.12095462415E+00  0.14498171791E+01  0.15031633634E+01  0.00000000000E+00 0. -1.
</event>
<event>
 5    1  0.1560836E+002  0.1590153E+01  0.7818608E-02  0.3364121E+00
         11   -1    0    0    0    0  0.00000000000E+00  0.00000000000E+00  0.39999999674E+01  0.40000000000E+01  0.51100000000E-03 0.  1.
    9000002   -1    0    0    0    0 -0.00000000000E+00 -0.00000000000E+00  0.00000000000E+00  0.93800000000E+00  0.93800000000E+00 0.  1.
         11    1    1    2    0    0  0.87278513264E-01  0.34193025175E-01  0.96216186415E+00  0.96671734017E+00  0.51100000000E-03 0.  1.
    9000002    1    1    2    0    0  0.48780037892E-01 -0.21430942428E+00  0.39245213687E-01  0.96420548029E+00  0.93800000000E+00 0.  1.
         22    1    1    2    0    0 -0.13605855116E+00  0.18011639910E+00  0.29985928895E+01  0.30070771795E+01  0.00000000000E+00 0.  1.
</event>
<event>
 5    1  0.1560836E+002  0.1599677E+01  0.7818608E-02  0.3353714E+00
         11   -1    0    0    0    0  0.00000000000E+00  0.00000000000E+00  0.39999999674E+01  0.40000000000E+01  0.51100000000E-03 0.  1.
    9000002   -1    0    0    0    0 -0.00000000000E+00 -0.00000000000E+00  0.00000000000E+00  0.93800000000E+00  0.93800000000E+00 0.  1.
         11    1    1    2    0    0 -0.12247382680E+00  0.33325050896E-01  0.13042839163E+01  0.13104454177E+01  0.51100000000E-03 0. -1.
    9000002    1    1    2    0    0  0.36667384132E+00 -0.98946124282E-01  0.97048085209E-01  0.10166131871E+01  0.93800000000E+00 0.  1.
         22    1    1    2    0    0 -0.24420001452E+00  0.65621073387E-01  0.25986679658E+01  0.26109413951E+01  0.00000000000E+00 0.  1.
</event>
<event>
 5    1  0.1560836E+002  0.1599677E+01  0.7818608E-02  0.3353714E+00
         11   -1    0    0    0    0  0.00000000000E+00  0.00000000000E+00  0.39999999674E+01  0.40000000000E+01  0.51100000000E-03 0. -1.
    9000002   -1    0    0    0    0 -0.00000000000E+00 -0.00000000000E+00  0.00000000000E+00  0.93800000000E+00  0.93800000000E+00 0. -1.
         11    1    1    2    0    0  0.19144371266E-01  0.61696294323E-01  0.97008584973E+00  0.97223441446E+00  0.51100000000E-03 0. -1.
    9000002    1    1    2    0    0 -0.78227230852E-01 -0.25390575688E+00  0.46949212453E-01  0.97603066631E+00  0.93800000000E+00 0. -1.
         22    1    1    2    0    0  0.59082859586E-01  0.19220946255E+00  0.29829649052E+01  0.29897349192E+01  0.00000000000E+00 0. -1.
</event>
<event>
 5    1  0.1560836E+002  0.1587094E+01  0.7818608E-02  0.3367491E+00
         11   -1    0    0    0    0  0.00000000000E+00  0.00000000000E+00  0.39999999674E+01  0.40000000000E+01  0.51100000000E-03 0. -1.
    9000002   -1    0    0    0    0 -0.00000000000E+00 -0.00000000000E+00  0.00000000000E+00  0.93800000000E+00  0.93800000000E+00 0.  1.
         11    1    1    2    0    0 -0.34239265946E-01  0.28467580091E-01  0.19980627450E+01  0.19985589120E+01  0.51100000000E-03 0. -1.
    9000002    1    1    2    0    0 -0.14150342791E+00  0.11118854624E+00  0.30842252616E-01  0.95560523098E+00  0.93800000000E+00 0.  1.
         22    1    1    2    0    0  0.17574269385E+00 -0.13965612633E+00  0.19710949697E+01  0.19838358570E+01  0.00000000000E+00 0. -1.
</event>
<event>
 5    1  0.1560836E+002  0.1599567E+01  0.7818608E-02  0.3353833E+00
         11   -1    0    0    0    0  0.00000000000E+00  0.00000000000E+00  0.39999999674E+01  0.40000000000E+01  0.51100000000E-03 0. -1.
    9000002   -1    0    0    0    0 -0.00000000000E+00 -0.00000000000E+00  0.00000000000E+00  0.93800000000E+00  0.93800000000E+00 0.  1.
         11    1    1    2    0    0 -0.27948339065E-01 -0.80769682368E-02  0.37963047423E+00  0.38074388394E+00  0.51100000000E-03 0. -1.
    9000002    1    1    2    0    0  0.22296978845E+00  0.12042777472E+00  0.42754921559E-01  0.97256894810E+00  0.93800000000E+00 0.  1.
         22    1    1    2    0    0 -0.19502144939E+00 -0.11235080649E+00  0.35776145716E+01  0.35846871680E+01  0.00000000000E+00 0. -1.
</event>
<event>
 5    1  0.1560836E+002  0.1329044E+01  0.7818608E-02  0.3727833E+00
         11   -1    0    0    0    0  0.00000000000E+00  0.00000000000E+00  0.39999999674E+01  0.40000000000E+01  0.51100000000E-03 0. -1.
    9000002   -1    0    0    0    0 -0.00000000000E+00 -0.00000000000E+00  0.00000000000E+00  0.93800000000E+00  0.93800000000E+00 0. -1.
         11    1    1    2    0    0  0.35426521469E+00 -0.25821401408E-01  0.33245977028E+01  0.33435192139E+01  0.51100000000E-03 0. -1.
    9000002    1    1    2    0    0  0.76804082592E-01  0.11939279447E+00  0.24864894774E+00  0.98072616244E+00  0.93800000000E+00 0.  1.
         22    1    1    2    0    0 -0.43106929728E+00 -0.93571393060E-01  0.42675331682E+00  0.61375462367E+00  0.00000000000E+00 0. -1.
</event>
<event>
 5    1  0.1560836E+002  0.1599623E+01  0.7818608E-02  0.3353773E+00
         11   -1    0    0    0    0  0.00000000000E+00  0.00000000000E+00  0.39999999674E+01  0.40000000000E+01  0.51100000000E-03 0.  1.
    9000002   -1    0    0    0    0 -0.00000000000E+00 -0.00000000000E+00  0.00000000000E+00  0.93800000000E+00  0.93800000000E+00 0.  1.
         11    1    1    2    0    0  0.19277380092E-02 -0.22520806913E-01  0.41214127285E+00  0.41276093907E+00  0.51100000000E-03 0.  1.
    9000002    1    1    2    0    0  0.33136323665E-01  0.22006740526E+00  0.32876463697E-01  0.96459967897E+00  0.93800000000E+00 0.  1.
         22    1    1    2    0    0 -0.35064061675E-01 -0.19754659835E+00  0.35549822308E+01  0.35606393820E+01  0.00000000000E+00 0.  1.
</event>
<event>
 5    1  0.1560836E+002  0.1599124E+01  0.7818608E-02  0.3354315E+00
         11   -1    0    0    0    0  0.00000000000E+00  0.00000000000E+00  0.39999999674E+01  0.40000000000E+01  0.51100000000E-03 0.  1.
    9000002   -1    0    0    0    0 -0.00000000000E+00 -0.00000000000E+00  0.00000000000E+00  0.93800000000E+00  0.93800000000E+00 0. -1.
         11    1    1    2    0    0  0.17668169036E-01  0.22714265242E+00  0.17866652654E+01  0.18011326937E+01  0.51100000000E-03 0.  1.
    9000002    1    1    2    0    0  0.20900191630E-01 -0.50112054523E+00  0.17275007271E+00  0.10776108790E+01  0.93800000000E+00 0. -1.
         22    1    1    2    0    0 -0.38568360666E-01  0.27397789281E+00  0.20405846293E+01  0.20592564273E+01  0.00000000000E+00 0.  1.
</event>
<event>
 5    1  0.1560836E+002  0.1599676E+01  0.7818608E-02  0.3353715E+00
         11   -1    0    0    0    0  0.00000000000E+00  0.00000000000E+00  0.39999999674E+01  0.40000000000E+01  0.51100000000E-03 0.  1.
    9000002   -1    0    0    0    0 -0.00000000000E+00 -0.00000000000E+00  0.00000000000E+00  0.93800000000E+00  0.93800000000E+00 0.  1.
         11    1    1    2    0    0  0.15214514395E+00 -0.20312775527E-01  0.16377181660E+01  0.16448956824E+01  0.51100000000E-03 0.  1.
    9000002    1    1    2    0    0 -0.36097817427E+00  0.48535968424E-01  0.89093968763E-01  0.10101696480E+01  0.93800000000E+00 0.  1.
         22    1    1    2    0    0  0.20883303032E+00 -0.28223192896E-01  0.22731878326E+01  0.22829346696E+01  0.00000000000E+00 0.  1.
</event>
<event>
 5    1  0.1560836E+002  0.1599586E+01  0.7818608E-02  0.3353812E+00
         11   -1    0    0    0    0  0.00000000000E+00  0.00000000000E+00  0.39999999674E+01  0.40000000000E+01  0.51100000000E-03 0. -1.
    9000002   -1    0    0    0    0 -0.00000000000E+00 -0.00000000000E+00  0.00000000000E+00  0.93800000000E+00  0.93800000000E+00 0. -1.
         11    1    1    2    0    0  0.32984583317E-01 -0.44689132366E-01  0.90506470942E+00  0.90676760564E+00  0.51100000000E-03 0. -1.
    9000002    1    1    2    0    0 -0.18598704093E+00  0.19705237383E+00  0.48924444872E-01  0.97757783257E+00  0.93800000000E+00 0. -1.
         22    1    1    2    0    0  0.15300245761E+00 -0.15236324147E+00  0.30460108131E+01  0.30536545618E+01  0.00000000000E+00 0. -1.
</event>
<event>
 5    1  0.1560836E+002  0.1599676E+01  0.7818608E-02  0.3353715E+00
         11   -1    0    0    0    0  0.00000000000E+00  0.00000000000E+00  0.39999999674E+01  0.40000000000E+01  0.51100000000E-03 0.  1.
    9000002   -1    0    0    0    0 -0.00000000000E+00 -0.00000000000E+00  0.00000000000E+00  0.93800000000E+00  0.93800000000E+00 0. -1.
         11    1    1    2    0    0 -0.83991801307E-01  0.30852741144E-01  0.11800104039E+01  0.11833982122E+01  0.51100000000E-03 0.  1.
    9000002    1    1    2    0    0  0.28205919946E+00 -0.10536750637E+00  0.60486869751E-01  0.98699663870E+00  0.93800000000E+00 0. -1.
         22    1    1    2    0    0 -0.19806739815E+00  0.74514765228E-01  0.27595026937E+01  0.27676051491E+01  0.00000000000E+00 0.  1.
</event>
<event>
 5    1  0.1560836E+002  0.1469034E+01  0.7818608E-02  0.3509050E+00
         11   -1    0    0    0    0  0.00000000000E+00  0.00000000000E+00  0.39999999674E+01  0.40000000000E+01  0.51100000000E-03 0. -1.
    9000002   -1    0    0    0    0 -0.00000000000E+00 -0.00000000000E+00  0.00000000000E+00  0.93800000000E+00  0.93800000000E+00 0.  1.
         11    1    1    2    0    0  0.20326894035E-01 -0.66594697922E-01 -0.26898551770E-01  0.74644689166E-01  0.51100000000E-03 0. -1.
    9000002    1    1    2    0    0 -0.36349972622E+00  0.11320335326E+00  0.21391237606E+00  0.10346736465E+01  0.93800000000E+00 0.  1.
         22    1    1    2    0    0  0.34317283218E+00 -0.46608655343E-01  0.38129861431E+01  0.38286816643E+01  0.00000000000E+00 0. -1.
</event>
<event>
 5    1  0.1560836E+002  0.1570560E+01  0.7818608E-02  0.3385950E+00
         11   -1    0    0    0    0  0.00000000000E+00  0.00000000000E+00  0.39999999674E+01  0.40000000000E+01  0.51100000000E-03 0. -1.
    9000002   -1    0    0    0    0 -0.00000000000E+00 -0.00000000000E+00  0.00000000000E+00  0.93800000000E+00  0.93800000000E+00 0.  1.
         11    1    1    2    0    0 -0.40116154906E-01 -0.69290014269E-01  0.16789181810E+00  0.18600627857E+00  0.51100000000E-03 0. -1.
    9000002    1    1    2    0    0 -0.16065913206E+00 -0.22427395738E-01  0.39264943431E-01  0.95273295344E+00  0.93800000000E+00 0.  1.
         22    1    1    2    0    0  0.20077528697E+00  0.91717410007E-01  0.37928432058E+01  0.37992607680E+01  0.00000000000E+00 0. -1.
</event>
<event>
 5    1  0.1560836E+002  0.1599481E+01  0.7818608E-02  0.3353927E+00
         11   -1    0    0    0    0  0.00000000000E+00  0.00000000000E+00  0.39999999674E+01  0.40000000000E+01  0.51100000000E-03 0.  1.
    9000002   -1    0    0    0    0 -0.00000000000E+00 -0.00000000000E+00  0.00000000000E+00  0.93800000000E+00  0.93800000000E+00 0.  1.
         11    1    1    2    0    0  0.14403184970E-01  0.51736670130E-01  0.10208355791E+01  0.10222473651E+01  0.51100000000E-03 0.  1.
    9000002    1    1    2    0    0 -0.82064475619E-01 -0.25115116348E+00  0.46577804575E-01  0.97561517872E+00  0.93800000000E+00 0.  1.
         22    1    1    2    0    0  0.67661290649E-01  0.19941449335E+00  0.29325865837E+01  0.29401374562E+01  0.00000000000E+00 0.  1.
</event>
<event>
 5    1  0.1560836E+002  0.1185131E+01  0.7818608E-02  0.4028402E+00
         11   -1    0    0    0    0  0.00000000000E+00  0.00000000000E+00  0.39999999674E+01  0.40000000000E+01  0.51100000000E-03 0. -1.
    9000002   -1    0    0    0    0 -0.00000000000E+00 -0.00000000000E+00  0.00000000000E+00  0.93800000000E+00  0.93800000000E+00 0. -1.
         11    1    1    2    0    0  0.18426765272E+00  0.31063125715E+00  0.94854671474E-02  0.36129846521E+00  0.51100000000E-03 0. -1.
    9000002    1    1    2    0    0  0.28467280529E+00  0.31118976147E+00  0.82987477137E+00  0.13215195079E+01  0.93800000000E+00 0. -1.
         22    1    1    2    0    0 -0.46894045801E+00 -0.62182101862E+00  0.31606397288E+01  0.32551820268E+01  0.00000000000E+00 0. -1.
</event>
<event>
 5    1  0.1560836E+002  0.1599676E+01  0.7818608E-02  0.3353715E+00
         11   -1    0    0    0    0  0.00000000000E+00  0.00000000000E+00  0.39999999674E+01  0.40000000000E+01  0.51100000000E-03 0. -1.
    9000002   -1    0    0    0    0 -0.00000000000E+00 -0.00000000000E+00  0.00000000000E+00  0.93800000000E+00  0.93800000000E+00 0.  1.
         11    1    1    2    0    0 -0.21084378589E-01 -0.47072325290E-02  0.35127258004E+00  0.35193663587E+00  0.51100000000E-03 0.  1.
    9000002    1    1    2    0    0  0.23478216303E+00  0.54806769539E-01  0.38587440967E-01  0.96925715714E+00  0.93800000000E+00 0.  1.
         22    1    1    2    0    0 -0.21369778444E+00 -0.50099537010E-01  0.36101399464E+01  0.36168062070E+01  0.00000000000E+00 0. -1.
</event>
<event>
 5    1  0.1560836E+002  0.1598843E+01  0.7818608E-02  0.3354621E+00
         11   -1    0    0    0    0  0.00000000000E+00  0.00000000000E+00  0.39999999674E+01  0.40000000000E+01  0.51100000000E-03 0.  1.
    9000002   -1    0    0    0    0 -0.00000000000E+00 -0.00000000000E+00  0.00000000000E+00  0.93800000000E+00  0.93800000000E+00 0.  1.
         11    1    1    2    0    0  0.46835261676E-01 -0.22278502035E-01  0.24700028401E+00  0.25238715262E+00  0.51100000000E-03 0.  1.
    9000002    1    1    2    0    0 -0.53466714073E+00  0.14832733463E+00  0.21363518693E+00  0.11105646954E+01  0.93800000000E+00 0.  1.
         22    1    1    2    0    0  0.48783187905E+00 -0.12604883260E+00  0.35393644964E+01  0.35750481520E+01  0.00000000000E+00 0.  1.
</event>
<event>
 5    1  0.1560836E+002  0.1599670E+01  0.7818608E-02  0.3353721E+00
         11   -1    0    0    0    0  0.00000000000E+00  0.00000000000E+00  0.39999999674E+01  0.40000000000E+01  0.51100000000E-03 0.  1.
    9000002   -1    0    0    0    0 -0.00000000000E+00 -0.00000000000E+00  0.00000000000E+00  0.93800000000E+00  0.93800000000E+00 0.  1.
         11    1    1    2    0    0 -0.30174036299E-01  0.37395761894E-02  0.48324587907E+00  0.48420171174E+00  0.51100000000E-03 0.  1.
    9000002    1    1    2    0    0  0.24568445870E+00 -0.14185360698E-01  0.40224048875E-01  0.97057923521E+00  0.93800000000E+00 0.  1.
         22    1    1    2    0    0 -0.21551042240E+00  0.10445784508E-01  0.34765300394E+01  0.34832190531E+01  0.00000000000E+00 0.  1.
</event>
<event>
 5    1  0.1560836E+002  0.1599676E+01  0.7818608E-02  0.3353715E+00
         11   -1    0    0    0    0  0.00000000000E+00  0.00000000000E+00  0.39999999674E+01  0.40000000000E+01  0.51100000000E-03 0.  1.
    9000002   -1    0    0    0    0 -0.00000000000E+00 -0.00000000000E+00  0.00000000000E+00  0.93800000000E+00  0.93800000000E+00 0. -1.
         11    1    1    2    0    0 -0.82387951458E-01  0.68997897642E-01  0.11393503911E+01  0.11444072961E+01  0.51100000000E-03 0.  1.
    9000002    1    1    2    0    0  0.28409264522E+00 -0.23374102770E+00  0.90934269872E-01  0.10116602891E+01  0.93800000000E+00 0. -1.
         22    1    1    2    0    0 -0.20170469377E+00  0.16474313006E+00  0.27697153063E+01  0.27819324148E+01  0.00000000000E+00 0.  1.
</event>
<event>
 5    1  0.1560836E+002  0.1598298E+01  0.7818608E-02  0.3355213E+00
         11   -1    0    0    0    0  0.00000000000E+00  0.00000000000E+00  0.39999999674E+01  0.40000000000E+01  0.51100000000E-03 0.  1.
    9000002   -1    0    0    0    0 -0.00000000000E+00 -0.00000000000E+00  0.00000000000E+00  0.93800000000E+00  0.93800000000E+00 0.  1.
         11    1    1    2    0    0  0.39746320931E-01 -0.24101236412E-01  0.59869405925E+00  0.60049602607E+00  0.51100000000E-03 0.  1.
    9000002    1    1    2    0    0 -0.26070495473E+00 -0.52418707250E-01  0.48096812250E-01  0.97615167758E+00  0.93800000000E+00 0.  1.
         22    1    1    2    0    0  0.22095863380E+00  0.76519943662E-01  0.33532090959E+01  0.33613522964E+01  0.00000000000E+00 0.  1.
</event>
<event>
 5    1  0.1560836E+002  0.1598119E+01  0.7818608E-02  0.3355407E+00
         11   -1    0    0    0    0  0.00000000000E+00  0.00000000000E+00  0.39999999674E+01  0.40000000000E+01  0.51100000000E-03 0.  1.
    9000002   -1    0    0    0    0 -0.00000000000E+00 -0.00000000000E+00  0.00000000000E+00  0.93800000000E+00  0.93800000000E+00 0. -1.
         11    1    1    2    0    0  0.60916452497E-02 -0.11464633889E-01  0.26462215126E+00  0.26494091800E+00  0.51100000000E-03 0.  1.
    9000002    1    1    2    0    0 -0.42820591616E+00  0.76357391038E-01  0.12954742306E+00  0.10420255720E+01  0.93800000000E+00 0. -1.
         22    1    1    2    0    0  0.42211427091E+00 -0.64892757149E-01  0.36058303930E+01  0.36310335100E+01  0.00000000000E+00 0.  1.
</event>
<event>
 5    1  0.1560836E+002  0.1599676E+01  0.7818608E-02  0.3353715E+00
         11   -1    0    0    0    0  0.00000000000E+00  0.00000000000E+00  0.39999999674E+01  0.40000000000E+01  0.51100000000E-03 0.  1.
    9000002   -1    0    0    0    0 -0.00000000000E+00 -0.00000000000E+00  0.00000000000E+00  0.93800000000E+00  0.93800000000E+00 0. -1.
         11    1    1    2    0    0  0.29070133836E-01  0.11018878633E+00  0.12022073649E+01  0.12075965596E+01  0.51100000000E-03 0.  1.
    9000002    1    1    2    0    0 -0.92456914816E-01 -0.35998089767E+00  0.92850422150E-01  0.10132125782E+01  0.93800000000E+00 0. -1.
         22    1    1    2    0    0  0.63386780979E-01  0.24979211133E+00  0.27049421803E+01  0.27171908622E+01  0.00000000000E+00 0.  1.
</event>
<event>
 5    1  0.1560836E+002  0.1599667E+01  0.7818608E-02  0.3353725E+00
         11   -1    0    0    0    0  0.00000000000E+00  0.00000000000E+00  0.39999999674E+01  0.40000000000E+01  0.51100000000E-03 0.  1.
    9000002   -1    0    0    0    0 -0.00000000000E+00 -0.00000000000E+00  0.00000000000E+00  0.93800000000E+00  0.93800000000E+00 0. -1.
         11    1    1    2    0    0 -0.26731749948E+00 -0.69383082318E-01  0.21907458855E+01  0.22080852460E+01  0.51100000000E-03 0.  1.
    9000002    1    1    2    0    0  0.46756390708E+00  0.12815601044E+00  0.16050490286E+00  0.10680102032E+01  0.93800000000E+00 0. -1.
         22    1    1    2    0    0 -0.20024640761E+00 -0.58772928121E-01  0.16487491790E+01  0.16619045509E+01  0.00000000000E+00 0.  1.
</event>
<event>
 5    1  0.1560836E+002  0.1584195E+01  0.7818608E-02  0.3370698E+00
         11   -1    0    0    0    0  0.00000000000E+00  0.00000000000E+00  0.39999999674E+01  0.40000000000E+01  0.51100000000E-03 0.  1.
    9000002   -1    0    0    0    0 -0.00000000000E+00 -0.00000000000E+00  0.00000000000E+00  0.93800000000E+00  0.93800000000E+00 0.  1.
         11    1    1    2    0    0 -0.65094507415E-01  0.74283726576E-01  0.33474328114E+00  0.34901102034E+00  0.51100000000E-03 0.  1.
    9000002    1    1    2    0    0 -0.38486135636E-01 -0.28956414788E+00  0.69049918894E-01  0.98485555777E+00  0.93800000000E+00 0.  1.
         22    1    1    2    0    0  0.10358064305E+00  0.21528042130E+00  0.35962067673E+01  0.36041334219E+01  0.00000000000E+00 0.  1.
</event>
<event>
 5    1  0.1560836E+002  0.1599153E+01  0.7818608E-02  0.3354283E+00
         11   -1    0    0    0    0  0.00000000000E+00  0.00000000000E+00  0.39999999674E+01  0.40000000000E+01  0.51100000000E-03 0. -1.
    9000002   -1    0    0    0    0 -0.00000000000E+00 -0.00000000000E+00  0.00000000000E+00  0.93800000000E+00  0.93800000000E+00 0. -1.
         11    1    1    2    0    0 -0.33715767212E-01 -0.87803205836E-02  0.30886892392E+00  0.31082812015E+00  0.51100000000E-03 0. -1.
    9000002    1    1    2    0    0  0.24660650601E+00  0.15795942818E+00  0.57586809699E-01  0.98434048500E+00  0.93800000000E+00 0. -1.
         22    1    1    2    0    0 -0.21289073879E+00 -0.14917910759E+00  0.36335442337E+01  0.36428313949E+01  0.00000000000E+00 0. -1.
</event>
<event>
 5    1  0.1560836E+002  0.1591542E+01  0.7818608E-02  0.3362595E+00
         11   -1    0    0    0    0  0.00000000000E+00  0.00000000000E+00  0.39999999674E+01  0.40000000000E+01  0.51100000000E-03 0. -1.
    9000002   -1    0    0    0    0 -0.00000000000E+00 -0.00000000000E+00  0.00000000000E+00  0.93800000000E+00  0.93800000000E+00 0.  1.
         11    1    1    2    0    0 -0.90354866449E-01  0.41059273021E-01  0.14711788645E+01  0.14745227629E+01  0.51100000000E-03 0. -1.
    9000002    1    1    2    0    0  0.23608537285E-01 -0.28715634622E+00  0.61676597696E-01  0.98319079171E+00  0.93800000000E+00 0.  1.
         22    1    1    2    0    0  0.66746329163E-01  0.24609707319E+00  0.24671445051E+01  0.24802864454E+01  0.00000000000E+00 0. -1.
</event>
<event>
 5    1  0.1560836E+002  0.1599674E+01  0.7818608E-02  0.3353717E+00
         11   -1    0    0    0    0  0.00000000000E+00  0.00000000000E+00  0.39999999674E+01  0.40000000000E+01  0.51100000000E-03 0. -1.
    9000002   -1    0    0    0    0 -0.00000000000E+00 -0.00000000000E+00  0.00000000000E+00  0.93800000000E+00  0.93800000000E+00 0.  1.
         11    1    1    2    0    0  0.33229391463E-01  0.26938043144E-01  0.63324759582E+00  0.63469097155E+00  0.51100000000E-03 0. -1.
    9000002    1    1    2    0    0 -0.19908012594E+00 -0.17000827833E+00  0.45571756695E-01  0.97491358399E+00  0.93800000000E+00 0.  1.
         22    1    1    2    0    0  0.16585073447E+00  0.14307023518E+00  0.33211806148E+01  0.33283954445E+01  0.00000000000E+00 0. -1.
</event>
<event>
 5    1  0.1560836E+002  0.1599669E+01  0.7818608E-02  0.3353723E+00
         11   -1    0    0    0    0  0.00000000000E+00  0.00000000000E+00  0.39999999674E+01  0.40000000000E+01  0.51100000000E-03 0.  1.
    9000002   -1    0    0    0    0 -0.00000000000E+00 -0.00000000000E+00  0.00000000000E+00  0.93800000000E+00  0.93800000000E+00 0.  1.
         11    1    1    2    0    0  0.18853565872E+00  0.71695246537E-03  0.14692591560E+01  0.14813064967E+01  0.51100000000E-03 0.  1.
    9000002    1    1    2    0    0 -0.49567273012E+00  0.61128874661E-02  0.16810234445E+00  0.10741653602E+01  0.93800000000E+00 0.  1.
         22    1    1    2    0    0  0.30713707141E+00 -0.68298399315E-02  0.23626384670E+01  0.23825281432E+01  0.00000000000E+00 0.  1.
</event>
<event>
 5    1  0.1560836E+002  0.1580560E+01  0.7818608E-02  0.3374738E+00
         11   -1    0    0    0    0  0.00000000000E+00  0.00000000000E+00  0.39999999674E+01  0.40000000000E+01  0.51100000000E-03 0. -1.
    9000002   -1    0    0    0    0 -0.00000000000E+00 -0.00000000000E+00  0.00000000000E+00  0.93800000000E+00  0.93800000000E+00 0.  1.
         11    1    1    2    0    0 -0.12814232753E+00  0.16339051296E+00  0.22144330060E+01  0.22241471882E+01  0.51100000000E-03 0. -1.
    9000002    1    1    2    0    0 -0.65023085959E-01 -0.27171852122E+00  0.66936277616E-01  0.98101142794E+00  0.93800000000E+00 0.  1.
         22    1    1    2    0    0  0.19316541349E+00  0.10832800826E+00  0.17186306838E+01  0.17328413838E+01  0.00000000000E+00 0. -1.
</event>
<event>
 5    1  0.1560836E+002  0.1599677E+01  0.7818608E-02  0.3353714E+00
         11   -1    0    0    0    0  0.00000000000E+00  0.00000000000E+00  0.39999999674E+01  0.40000000000E+01  0.51100000000E-03 0.  1.
    9000002   -1    0    0    0    0 -0.00000000000E+00 -0.00000000000E+00  0.00000000000E+00  0.93800000000E+00  0.93800000000E+00 0.  1.
         11    1    1    2    0    0  0.11295971579E+00 -0.26051360949E-01  0.11970351768E+01  0.12026354587E+01  0.51100000000E-03 0.  1.
    9000002    1    1    2    0    0 -0.36782765199E+00  0.85234219548E-01  0.95893474640E-01  0.10156779077E+01  0.93800000000E+00 0.  1.
         22    1    1    2    0    0  0.25486793620E+00 -0.59182858599E-01  0.27070713159E+01  0.27196866336E+01  0.00000000000E+00 0.  1.
</event>
<event>
 5    1  0.1560836E+002  0.1598176E+01  0.7818608E-02  0.3355345E+00
         11   -1    0    0    0    0  0.00000000000E+00  0.00000000000E+00  0.39999999674E+01  0.40000000000E+01  0.51100000000E-03 0. -1.
    9000002   -1    0    0    0    0 -0.00000000000E+00 -0.00000000000E+00  0.00000000000E+00  0.93800000000E+00  0.93800000000E+00 0. -1.
         11    1    1    2    0    0  0.54850856732E-02  0.37801052915E-02  0.44326669939E+00  0.44331704599E+00  0.51100000000E-03 0. -1.
    9000002    1    1    2    0    0  0.17465667390E+00  0.10441074621E+00  0.28544766213E-01  0.96024234511E+00  0.93800000000E+00 0. -1.
         22    1    1    2    0    0 -0.18014175957E+00 -0.10819085150E+00  0.35281885018E+01  0.35344406089E+01  0.00000000000E+00 0. -1.
</event>
<event>
 5    1  0.1560836E+002  0.1599155E+01  0.7818608E-02  0.3354281E+00
         11   -1    0    0    0    0  0.00000000000E+00  0.00000000000E+00  0.39999999674E+01  0.40000000000E+01  0.51100000000E-03 0.  1.
    9000002   -1    0    0    0    0 -0.00000000000E+00 -0.00000000000E+00  0.00000000000E+00  0.93800000000E+00  0.93800000000E+00 0.  1.
         11    1    1    2    0    0 -0.61294062855E-03 -0.74662314389E-02  0.34201726345E-01  0.35016274988E-01  0.51100000000E-03 0.  1.
    9000002    1    1    2    0    0  0.89695276347E-01  0.27050703493E+00  0.54514463545E-01  0.98185290410E+00  0.93800000000E+00 0.  1.
         22    1    1    2    0    0 -0.89082335718E-01 -0.26304080349E+00  0.39112837775E+01  0.39211308209E+01  0.00000000000E+00 0.  1.
</event>
<event>
 5    1  0.1560836E+002  0.1599488E+01  0.7818608E-02  0.3353919E+00
         11   -1    0    0    0    0  0.00000000000E+00  0.00000000000E+00  0.39999999674E+01  0.40000000000E+01  0.51100000000E-03 0. -1.
    9000002   -1    0    0    0    0 -0.00000000000E+00 -0.00000000000E+00  0.00000000000E+00  0.93800000000E+00  0.93800000000E+00 0.  1.
         11    1    1    2    0    0 -0.22629441801E-02  0.15598034990E-01  0.22357467592E+00  0.22413013284E+00  0.51100000000E-03 0. -1.
    9000002    1    1    2    0    0  0.23142175415E-01 -0.40440262051E+00  0.11090318870E+00  0.10277259153E+01  0.93800000000E+00 0.  1.
         22    1    1    2    0    0 -0.20879231235E-01  0.38880458552E+00  0.36655221027E+01  0.36861439518E+01  0.00000000000E+00 0. -1.
</event>
<event>
 5    1  0.1560836E+002  0.1599677E+01  0.7818608E-02  0.3353714E+00
         11   -1    0    0    0    0  0.00000000000E+00  0.00000000000E+00  0.39999999674E+01  0.40000000000E+01  0.51100000000E-03 0. -1.
    9000002   -1    0    0    0    0 -0.00000000000E+00 -0.00000000000E+00  0.00000000000E+00  0.93800000000E+00  0.93800000000E+00 0.  1.
         11    1    1    2    0    0 -0.84149247074E-01 -0.84895889818E-02  0.82313040609E+00  0.82746425630E+00  0.51100000000E-03 0. -1.
    9000002    1    1    2    0    0  0.39908378803E+00  0.41497914799E-01  0.10860840210E+00  0.10259774519E+01  0.93800000000E+00 0.  1.
         22    1    1    2    0    0 -0.31493454095E+00 -0.33008325818E-01  0.30682611592E+01  0.30845582918E+01  0.00000000000E+00 0. -1.
</event>
<event>
 5    1  0.1560836E+002  0.1599677E+01  0.7818608E-02  0.3353715E+00
         11   -1    0    0    0    0  0.00000000000E+00  0.00000000000E+00  0.39999999674E+01  0.40000000000E+01  0.51100000000E-03 0.  1.
    9000002   -1    0    0    0    0 -0.00000000000E+00 -0.00000000000E+00  0.00000000000E+00  0.93800000000E+00  0.93800000000E+00 0. -1.
         11    1    1    2    0    0 -0.15586866050E+00  0.22988893640E-01  0.12013715096E+01  0.12116589016E+01  0.51100000000E-03 0.  1.
    9000002    1    1    2    0    0  0.49814090284E+00 -0.71454503673E-01  0.17345904767E+00  0.10785092241E+01  0.93800000000E+00 0. -1.
         22    1    1    2    0    0 -0.34227224235E+00  0.48465610033E-01  0.26251694101E+01  0.26478318744E+01  0.00000000000E+00 0.  1.
</event>
<event>
 5    1  0.1560836E+002  0.1599422E+01  0.7818608E-02  0.3353991E+00
         11   -1    0    0    0    0  0.00000000000E+00  0.00000000000E+00  0.39999999674E+01  0.40000000000E+01  0.51100000000E-03 0.  1.
    9000002   -1    0    0    0    0 -0.00000000000E+00 -0.00000000000E+00  0.00000000000E+00  0.93800000000E+00  0.93800000000E+00 0.  1.
         11    1    1    2    0    0  0.12304346192E+00  0.33407423023E-01  0.97969758399E+00  0.98795919280E+00  0.51100000000E-03 0.  1.
    9000002    1    1    2    0    0 -0.42197822933E+00 -0.15160602438E+00  0.13673777315E+00  0.10486139572E+01  0.93800000000E+00 0.  1.
         22    1    1    2    0    0  0.29893476741E+00  0.11819860135E+00  0.28835646102E+01  0.29014268500E+01  0.00000000000E+00 0.  1.
</event>
<event>
 5    1  0.1560836E+002  0.1599255E+01  0.7818608E-02  0.3354173E+00
         11   -1    0    0    0    0  0.00000000000E+00  0.00000000000E+00  0.39999999674E+01  0.40000000000E+01  0.51100000000E-03 0.  1.
    9000002   -1    0    0    0    0 -0.00000000000E+00 -0.00000000000E+00  0.00000000000E+00  0.93800000000E+00  0.93800000000E+00 0. -1.
         11    1    1    2    0    0 -0.36585462782E-01  0.16991084758E-01  0.39884041215E+00  0.40087545264E+00  0.51100000000E-03 0.  1.
    9000002    1    1    2    0    0  0.21779406415E+00 -0.13855271255E+00  0.44614513268E-01  0.97389196697E+00  0.93800000000E+00 0. -1.
         22    1    1    2    0    0 -0.18120860137E+00  0.12156162779E+00  0.35565450419E+01  0.35632325804E+01  0.00000000000E+00 0.  1.
</event>
<event>
 5    1  0.1560836E+002  0.1589881E+01  0.7818608E-02  0.3364420E+00
         11   -1    0    0    0    0  0.00000000000E+00  0.00000000000E+00  0.39999999674E+01  0.40000000000E+01  0.51100000000E-03 0.  1.
    9000002   -1    0    0    0    0 -0.00000000000E+00 -0.00000000000E+00  0.00000000000E+00  0.93800000000E+00  0.93800000000E+00 0.  1.
         11    1    1    2    0    0  0.79268086593E-02  0.48904676097E-01  0.86710955472E+00  0.86852388721E+00  0.51100000000E-03 0.  1.
    9000002    1    1    2    0    0 -0.49191186289E-01  0.22630625937E+00  0.43046244193E-01  0.96712526333E+00  0.93800000000E+00 0.  1.
         22    1    1    2    0    0  0.41264377630E-01 -0.27521093547E+00  0.30898441684E+01  0.31023508495E+01  0.00000000000E+00 0.  1.
</event>
<event>
 5    1  0.1560836E+002  0.1599676E+01  0.7818608E-02  0.3353715E+00
         11   -1    0    0    0    0  0.00000000000E+00  0.00000000000E+00  0.39999999674E+01  0.40000000000E+01  0.51100000000E-03 0. -1.
    9000002   -1    0    0    0    0 -0.00000000000E+00 -0.00000000000E+00  0.00000000000E+00  0.93800000000E+00  0.93800000000E+00 0.  1.
         11    1    1    2    0    0  0.42534293043E-01  0.33504355970E-02  0.59896468709E+00  0.60048259675E+00  0.51100000000E-03 0.  1.
    9000002    1    1    2    0    0 -0.28354488138E+00 -0.22956000192E-01  0.53910447752E-01  0.98166950349E+00  0.93800000000E+00 0.  1.
         22    1    1    2    0    0  0.24101058833E+00  0.19605564595E-01  0.33471248325E+01  0.33558478998E+01  0.00000000000E+00 0. -1.
</event>
<event>
 5    1  0.1560836E+002  0.1599677E+01  0.7818608E-02  0.3353714E+00
         11   -1    0    0    0    0  0.00000000000E+00  0.00000000000E+00  0.39999999674E+01  0.40000000000E+01  0.51100000000E-03 0.  1.
    9000002   -1    0    0    0    0 -0.00000000000E+00 -0.00000000000E+00  0.00000000000E+00  0.93800000000E+00  0.93800000000E+00 0. -1.
         11    1    1    2    0    0  0.90478412342E-01 -0.26434809984E+00  0.20922841352E+01  0.21108575093E+01  0.51100000000E-03 0.  1.
    9000002    1    1    2    0    0 -0.16571521294E+00  0.48255031670E+00  0.17851089162E+00  0.10826017173E+01  0.93800000000E+00 0. -1.
         22    1    1    2    0    0  0.75236800603E-01 -0.21820221686E+00  0.17292049405E+01  0.17445407734E+01  0.00000000000E+00 0.  1.
</event>
<event>
 5    1  0.1560836E+002  0.1591722E+01  0.7818608E-02  0.3362397E+00
         11   -1    0    0    0    0  0.00000000000E+00  0.00000000000E+00  0.39999999674E+01  0.40000000000E+01  0.51100000000E-03 0. -1.
    9000002   -1    0    0    0    0 -0.00000000000E+00 -0.00000000000E+00  0.00000000000E+00  0.93800000000E+00  0.93800000000E+00 0. -1.
         11    1    1    2    0    0  0.84809250796E-01  0.14691975620E+00  0.27812311661E+01  0.27864000223E+01  0.51100000000E-03 0. -1.
    9000002    1    1    2    0    0 -0.22938712392E+00 -0.28765015295E+00  0.97451609703E-01  0.10122755946E+01  0.93800000000E+00 0. -1.
         22    1    1    2    0    0  0.14457787313E+00  0.14073039674E+00  0.11213171915E+01  0.11393243831E+01  0.00000000000E+00 0.  1.
</event>
<event>
 5    1  0.1560836E+002  0.1570044E+01  0.7818608E-02  0.3386532E+00
         11   -1    0    0    0    0  0.00000000000E+00  0.00000000000E+00  0.39999999674E+01  0.40000000000E+01  0.51100000000E-03 0. -1.
    9000002   -1    0    0    0    0 -0.00000000000E+00 -0.00000000000E+00  0.00000000000E+00  0.93800000000E+00  0.93800000000E+00 0. -1.
         11    1    1    2    0    0  0.10663496621E+00 -0.65672399553E-01 -0.59776125839E-01  0.13877076934E+00  0.51100000000E-03 0. -1.
    9000002    1    1    2    0    0  0.20090222526E+00 -0.48569364829E-01  0.27338386875E+00  0.99865080334E+00  0.93800000000E+00 0. -1.
         22    1    1    2    0    0 -0.30753719147E+00  0.11424176438E+00  0.37863922244E+01  0.38005784273E+01  0.00000000000E+00 0. -1.
</event>
<event>
 5    1  0.1560836E+002  0.1598392E+01  0.7818608E-02  0.3355111E+00
         11   -1    0    0    0    0  0.00000000000E+00  0.00000000000E+00  0.39999999674E+01  0.40000000000E+01  0.51100000000E-03 0. -1.
    9000002   -1    0    0    0    0 -0.00000000000E+00 -0.00000000000E+00  0.00000000000E+00  0.93800000000E+00  0.93800000000E+00 0.  1.
         11    1    1    2    0    0 -0.33066819016E-01 -0.20547376803E+00  0.13845907849E+01  0.14001445592E+01  0.51100000000E-03 0. -1.
    9000002    1    1    2    0    0  0.12372081956E+00  0.45931346485E+00  0.15542061882E+00  0.10631440490E+01  0.93800000000E+00 0.  1.
         22    1    1    2    0    0 -0.90654000542E-01 -0.25383969682E+00  0.24599885636E+01  0.24747113918E+01  0.00000000000E+00 0. -1.
</event>
<event>
 5    1  0.1560836E+002  0.1594504E+01  0.7818608E-02  0.3359350E+00
         11   -1    0    0    0    0  0.00000000000E+00  0.00000000000E+00  0.39999999674E+01  0.40000000000E+01  0.51100000000E-03 0. -1.
    9000002   -1    0    0    0    0 -0.00000000000E+00 -0.00000000000E+00  0.00000000000E+00  0.93800000000E+00  0.93800000000E+00 0. -1.
         11    1    1    2    0    0 -0.43947437171E-01  0.96638114586E-02  0.59172731353E+00  0.59343596215E+00  0.51100000000E-03 0. -1.
    9000002    1    1    2    0    0 -0.38537623687E-01  0.17979432059E+00  0.26228087846E-01  0.95621287313E+00  0.93800000000E+00 0. -1.
         22    1    1    2    0    0  0.82485060858E-01 -0.18945813205E+00  0.33820445660E+01  0.33883511647E+01  0.00000000000E+00 0. -1.
</event>
<event>
 5    1  0.1560836E+002  0.1593751E+01  0.7818608E-02  0.3360174E+00
         11   -1    0    0    0    0  0.00000000000E+00  0.00000000000E+00  0.39999999674E+01  0.40000000000E+01  0.51100000000E-03 0.  1.
    9000002   -1    0    0    0    0 -0.00000000000E+00 -0.00000000000E+00  0.00000000000E+00  0.93800000000E+00  0.93800000000E+00 0. -1.
         11    1    1    2    0    0 -0.73922435922E-01  0.59345869054E-01  0.62331813790E+00  0.63048570235E+00  0.51100000000E-03 0.  1.
    9000002    1    1    2    0    0  0.28548446008E+00  0.12721671221E-01  0.59027013432E-01  0.98233976107E+00  0.93800000000E+00 0. -1.
         22    1    1    2    0    0 -0.21156202416E+00 -0.72067540275E-01  0.33176548160E+01  0.33251745366E+01  0.00000000000E+00 0.  1.
</event>
<event>
 5    1  0.1560836E+002  0.1599577E+01  0.7818608E-02  0.3353823E+00
         11   -1    0    0    0    0  0.00000000000E+00  0.00000000000E+00  0.39999999674E+01  0.40000000000E+01  0.51100000000E-03 0.  1.
    9000002   -1    0    0    0    0 -0.00000000000E+00 -0.00000000000E+00  0.00000000000E+00  0.93800000000E+00  0.93800000000E+00 0.  1.
         11    1    1    2    0    0 -0.73233056325E-01 -0.27115450279E-01  0.10484523806E+01  0.10513567347E+01  0.51100000000E-03 0.  1.
    9000002    1    1    2    0    0  0.30620253444E+00  0.77068118500E-01  0.66690151835E-01  0.99196323689E+00  0.93800000000E+00 0.  1.
         22    1    1    2    0    0 -0.23296947811E+00 -0.49952668221E-01  0.28848574350E+01  0.28946800284E+01  0.00000000000E+00 0.  1.
</event>
<event>
 5    1  0.1560836E+002  0.1599674E+01  0.7818608E-02  0.3353717E+00
         11   -1    0    0    0    0  0.00000000000E+00  0.00000000000E+00  0.39999999674E+01  0.40000000000E+01  0.51100000000E-03 0. -1.
    9000002   -1    0    0    0    0 -0.00000000000E+00 -0.00000000000E+00  0.00000000000E+00  0.93800000000E+00  0.93800000000E+00 0. -1.
         11    1    1    2    0    0  0.30817649837E-01  0.38842230523E-01  0.59902304777E+00  0.60107180876E+00  0.51100000000E-03 0. -1.
    9000002    1    1    2    0    0 -0.19356232016E+00 -0.25723210529E+00  0.69284960893E-01  0.99412229307E+00  0.93800000000E+00 0. -1.
         22    1    1    2    0    0  0.16274467033E+00  0.21838987477E+00  0.33316919587E+01  0.33428058982E+01  0.00000000000E+00 0. -1.
</event>
<event>
 5    1  0.1560836E+002  0.1588463E+01  0.7818608E-02  0.3365981E+00
         11   -1    0    0    0    0  0.00000000000E+00  0.00000000000E+00  0.39999999674E+01  0.40000000000E+01  0.51100000000E-03 0.  1.
    9000002   -1    0    0    0    0 -0.00000000000E+00 -0.00000000000E+00  0.00000000000E+00  0.93800000000E+00  0.93800000000E+00 0.  1.
         11    1    1    2    0    0 -0.20544150559E-01  0.24280518630E-01  0.23480792317E+01  0.23482946887E+01  0.51100000000E-03 0.  1.
    9000002    1    1    2    0    0  0.95179432042E-01  0.16218995919E+00  0.31812449254E-01  0.95719420134E+00  0.93800000000E+00 0.  1.
         22    1    1    2    0    0 -0.74635281483E-01 -0.18647047782E+00  0.16201082864E+01  0.16325111099E+01  0.00000000000E+00 0.  1.
</event>
<event>
 5    1  0.1560836E+002  0.1599677E+01  0.7818608E-02  0.3353714E+00
         11   -1    0    0    0    0  0.00000000000E+00  0.00000000000E+00  0.39999999674E+01  0.40000000000E+01  0.51100000000E-03 0.  1.
    9000002   -1    0    0    0    0 -0.00000000000E+00 -0.00000000000E+00  0.00000000000E+00  0.93800000000E+00  0.93800000000E+00 0.  1.
         11    1    1    2    0    0 -0.48771208671E-01  0.28953057850E-01  0.81595235892E+00  0.81792140423E+00  0.51100000000E-03 0.  1.
    9000002    1    1    2    0    0  0.23778817164E+00 -0.14094920312E+00  0.50867141383E-01  0.97920445184E+00  0.93800000000E+00 0.  1.
         22    1    1    2    0    0 -0.18901696297E+00  0.11199614527E+00  0.31331804671E+01  0.31408741439E+01  0.00000000000E+00 0.  1.
</event>
<event>
 5    1  0.1560836E+002  0.1599665E+01  0.7818608E-02  0.3353727E+00
         11   -1    0    0    0    0  0.00000000000E+00  0.00000000000E+00  0.39999999674E+01  0.40000000000E+01  0.51100000000E-03 0.  1.
    9000002   -1    0    0    0    0 -0.00000000000E+00 -0.00000000000E+00  0.00000000000E+00  0.93800000000E+00  0.93800000000E+00 0. -1.
         11    1    1    2    0    0  0.12567177148E-02 -0.38553196658E-02  0.63520605901E-01  0.63651954598E-01  0.51100000000E-03 0.  1.
    9000002    1    1    2    0    0 -0.95973754337E-01  0.18606058356E+00  0.29041756267E-01  0.96151803201E+00  0.93800000000E+00 0. -1.
         22    1    1    2    0    0  0.94717036622E-01 -0.18220526390E+00  0.39074376052E+01  0.39128300134E+01  0.00000000000E+00 0.  1.
</event>
<event>
 5    1  0.1560836E+002  0.1599642E+01  0.7818608E-02  0.3353752E+00
         11   -1    0    0    0    0  0.00000000000E+00  0.00000000000E+00  0.39999999674E+01  0.40000000000E+01  0.51100000000E-03 0.  1.
    9000002   -1    0    0    0    0 -0.00000000000E+00 -0.00000000000E+00  0.00000000000E+00  0.93800000000E+00  0.93800000000E+00 0. -1.
         11    1    1    2    0    0 -0.71023043454E-01 -0.14750120799E-02  0.83871187016E+00  0.84171510063E+00  0.51100000000E-03 0.  1.
    9000002    1    1    2    0    0  0.35714129323E+00  0.16250821768E-01  0.85800817087E-01  0.10074818970E+01  0.93800000000E+00 0. -1.
         22    1    1    2    0    0 -0.28611824977E+00 -0.14775809688E-01  0.30754872801E+01  0.30888030024E+01  0.00000000000E+00 0.  1.
</event>
<event>
 5    1  0.1560836E+002  0.1599628E+01  0.7818608E-02  0.3353768E+00
         11   -1    0    0    0    0  0.00000000000E+00  0.00000000000E+00  0.39999999674E+01  0.40000000000E+01  0.51100000000E-03 0. -1.
    9000002   -1    0    0    0    0 -0.00000000000E+00 -0.00000000000E+00  0.00000000000E+00  0.93800000000E+00  0.93800000000E+00 0. -1.
         11    1    1    2    0    0 -0.37732195896E-01 -0.85669092676E-02  0.55080494629E+00  0.55216253090E+00  0.51100000000E-03 0. -1.
    9000002    1    1    2    0    0  0.24354294205E+00  0.29974437408E-01  0.40021674309E-01  0.97039031628E+00  0.93800000000E+00 0. -1.
         22    1    1    2    0    0 -0.20581074615E+00 -0.21407528141E-01  0.34091733468E+01  0.34154471528E+01  0.00000000000E+00 0. -1.
</event>
<event>
 5    1  0.1560836E+002  0.1599535E+01  0.7818608E-02  0.3353868E+00
         11   -1    0    0    0    0  0.00000000000E+00  0.00000000000E+00  0.39999999674E+01  0.40000000000E+01  0.51100000000E-03 0.  1.
    9000002   -1    0    0    0    0 -0.00000000000E+00 -0.00000000000E+00  0.00000000000E+00  0.93800000000E+00  0.93800000000E+00 0. -1.
         11    1    1    2    0    0 -0.41263823794E-02 -0.19026571318E-02  0.40299779650E-01  0.40558359145E-01  0.51100000000E-03 0.  1.
    9000002    1    1    2    0    0  0.24408520573E+00 -0.40474376463E-01  0.40765272797E-01  0.97093849974E+00  0.93800000000E+00 0. -1.
         22    1    1    2    0    0 -0.23995882335E+00  0.42377033594E-01  0.39189349149E+01  0.39265031411E+01  0.00000000000E+00 0.  1.
</event>
<event>
 5    1  0.1560836E+002  0.1599587E+01  0.7818608E-02  0.3353812E+00
         11   -1    0    0    0    0  0.00000000000E+00  0.00000000000E+00  0.39999999674E+01  0.40000000000E+01  0.51100000000E-03 0.  1.
    9000002   -1    0    0    0    0 -0.00000000000E+00 -0.00000000000E+00  0.00000000000E+00  0.93800000000E+00  0.93800000000E+00 0.  1.
         11    1    1    2    0    0 -0.12393623550E-01  0.18187907602E-01  0.27683632524E+00  0.27771030586E+00  0.51100000000E-03 0.  1.
    9000002    1    1    2    0    0  0.17990430423E+00 -0.17696292223E+00  0.42379414577E-01  0.97227642638E+00  0.93800000000E+00 0.  1.
         22    1    1    2    0    0 -0.16751068068E+00  0.15877501462E+00  0.36807842275E+01  0.36880132678E+01  0.00000000000E+00 0.  1.
</event>
<event>
 5    1  0.1560836E+002  0.1599536E+01  0.7818608E-02  0.3353867E+00
         11   -1    0    0    0    0  0.00000000000E+00  0.00000000000E+00  0.39999999674E+01  0.40000000000E+01  0.51100000000E-03 0. -1.
    9000002   -1    0    0    0    0 -0.00000000000E+00 -0.00000000000E+00  0.00000000000E+00  0.93800000000E+00  0.93800000000E+00 0. -1.
         11    1    1    2    0    0  0.12621364312E-01  0.33313651360E-01  0.46435790205E+00  0.46572268628E+00  0.51100000000E-03 0. -1.
    9000002    1    1    2    0    0 -0.14449352801E+00 -0.21466371979E+00  0.44618832717E-01  0.97406043573E+00  0.93800000000E+00 0. -1.
         22    1    1    2    0    0  0.13187216370E+00  0.18135006843E+00  0.34910232326E+01  0.34982168780E+01  0.00000000000E+00 0. -1.
</event>
<event>
 5    1  0.1560836E+002  0.1599640E+01  0.7818608E-02  0.3353754E+00
         11   -1    0    0    0    0  0.00000000000E+00  0.00000000000E+00  0.39999999674E+01  0.40000000000E+01  0.51100000000E-03 0. -1.
    9000002   -1    0    0    0    0 -0.00000000000E+00 -0.00000000000E+00  0.00000000000E+00  0.93800000000E+00  0.93800000000E+00 0. -1.
         11    1    1    2    0    0  0.13703661219E+00 -0.44743921530E-01  0.11632197460E+01  0.11721183772E+01  0.51100000000E-03 0. -1.
    9000002    1    1    2    0    0 -0.45050255874E+00  0.12618607320E+00  0.14908998911E+00  0.10587479895E+01  0.93800000000E+00 0. -1.
         22    1    1    2    0    0  0.31346594656E+00 -0.81442151666E-01  0.26876902323E+01  0.27071336332E+01  0.00000000000E+00 0. -1.
</event>
<event>
 5    1  0.1560836E+002  0.1599534E+01  0.7818608E-02  0.3353869E+00
         11   -1    0    0    0    0  0.00000000000E+00  0.00000000000E+00  0.39999999674E+01  0.40000000000E+01  0.51100000000E-03 0. -1.
    9000002   -1    0    0    0    0 -0.00000000000E+00 -0.00000000000E+00  0.00000000000E+00  0.93800000000E+00  0.93800000000E+00 0.  1.
         11    1    1    2    0    0  0.31267552619E-01 -0.24171266163E-01  0.43509388486E+00  0.43688540799E+00  0.51100000000E-03 0. -1.
    9000002    1    1    2    0    0 -0.20396174987E+00  0.20010800656E+00  0.54506041405E-01  0.98206848959E+00  0.93800000000E+00 0.  1.
         22    1    1    2    0    0  0.17269419725E+00 -0.17593674040E+00  0.35104000411E+01  0.35190461024E+01  0.00000000000E+00 0. -1.
</event>
<event>
 5    1  0.1560836E+002  0.1599566E+01  0.7818608E-02  0.3353835E+00
         11   -1    0    0    0    0  0.00000000000E+00  0.00000000000E+00  0.39999999674E+01  0.40000000000E+01  0.51100000000E-03 0.  1.
    9000002   -1    0    0    0    0 -0.00000000000E+00 -0.00000000000E+00  0.00000000000E+00  0.93800000000E+00  0.93800000000E+00 0.  1.
         11    1    1    2    0    0  0.13599126102E-01 -0.19507934332E-01  0.36003218355E+00  0.36081703126E+00  0.51100000000E-03 0.  1.
    9000002    1    1    2    0    0 -0.71351642075E-01  0.23201913301E+00  0.39205983740E-01  0.96969327319E+00  0.93800000000E+00 0.  1.
         22    1    1    2    0    0  0.57752515973E-01 -0.21251119868E+00  0.36007618001E+01  0.36074896956E+01  0.00000000000E+00 0.  1.
</event>
<event>
 5    1  0.1560836E+002  0.1581491E+01  0.7818608E-02  0.3373701E+00
         11   -1    0    0    0    0  0.00000000000E+00  0.00000000000E+00  0.39999999674E+01  0.40000000000E+01  0.51100000000E-03 0. -1.
    9000002   -1    0    0    0    0 -0.00000000000E+00 -0.00000000000E+00  0.00000000000E+00  0.93800000000E+00  0.93800000000E+00 0. -1.
         11    1    1    2    0    0  0.16882900472E+00  0.12786195659E+00  0.18206451598E+01  0.18329214309E+01  0.51100000000E-03 0. -1.
    9000002    1    1    2    0    0 -0.26212431055E+00  0.57917869237E-01  0.62089041157E-01  0.97763115887E+00  0.93800000000E+00 0. -1.
         22    1    1    2    0    0  0.93295305834E-01 -0.18577982582E+00  0.21172657664E+01  0.21274474102E+01  0.00000000000E+00 0.  1.
</event>
<event>
 5    1  0.1560836E+002  0.1599676E+01  0.7818608E-02  0.3353715E+00
         11   -1    0    0    0    0  0.00000000000E+00  0.00000000000E+00  0.39999999674E+01  0.40000000000E+01  0.51100000000E-03 0.  1.
    9000002   -1    0    0    0    0 -0.00000000000E+00 -0.00000000000E+00  0.00000000000E+00  0.93800000000E+00  0.93800000000E+00 0.  1.
         11    1    1    2    0    0 -0.15465733083E+00  0.76208925139E-01  0.14089773853E+01  0.14194873101E+01  0.51100000000E-03 0.  1.
    9000002    1    1    2    0    0  0.42456145263E+00 -0.20611854705E+00  0.15178549991E+00  0.10609524591E+01  0.93800000000E+00 0.  1.
         22    1    1    2    0    0 -0.26990412180E+00  0.12990962191E+00  0.24392370822E+01  0.24575602308E+01  0.00000000000E+00 0.  1.
</event>
<event>
 5    1  0.1560836E+002  0.1551073E+01  0.7818608E-02  0.3408242E+00
         11   -1    0    0    0    0  0.00000000000E+00  0.00000000000E+00  0.39999999674E+01  0.40000000000E+01  0.51100000000E-03 0. -1.
    9000002   -1    0    0    0    0 -0.00000000000E+00 -0.00000000000E+00  0.00000000000E+00  0.93800000000E+00  0.93800000000E+00 0. -1.
         11    1    1    2    0    0  0.16721858036E+00 -0.12403266639E+00  0.99679208008E+00  0.10183029353E+01  0.51100000000E-03 0. -1.
    9000002    1    1    2    0    0 -0.10554687083E-01 -0.14962176500E+00  0.51625282735E-01  0.95131868677E+00  0.93800000000E+00 0. -1.
         22    1    1    2    0    0 -0.15666389327E+00  0.27365443140E+00  0.29515826045E+01  0.29683783780E+01  0.00000000000E+00 0. -1.
</event>
<event>
 5    1  0.1560836E+002  0.1599149E+01  0.7818608E-02  0.3354288E+00
         11   -1    0    0    0    0  0.00000000000E+00  0.00000000000E+00  0.39999999674E+01  0.40000000000E+01  0.51100000000E-03 0. -1.
    9000002   -1    0    0    0    0 -0.00000000000E+00 -0.00000000000E+00  0.00000000000E+00  0.93800000000E+00  0.93800000000E+00 0. -1.
         11    1    1    2    0    0  0.84874690219E-01 -0.16084950393E+00  0.16211721223E+01  0.16313416525E+01  0.51100000000E-03 0. -1.
    9000002    1    1    2    0    0 -0.24821053420E+00  0.42491867121E+00  0.16603027229E+00  0.10721820730E+01  0.93800000000E+00 0. -1.
         22    1    1    2    0    0  0.16333584398E+00 -0.26406916728E+00  0.22127975728E+01  0.22344762745E+01  0.00000000000E+00 0. -1.
</event>
<event>
 5    1  0.1560836E+002  0.1599476E+01  0.7818608E-02  0.3353932E+00
         11   -1    0    0    0    0  0.00000000000E+00  0.00000000000E+00  0.39999999674E+01  0.40000000000E+01  0.51100000000E-03 0.  1.
    9000002   -1    0    0    0    0 -0.00000000000E+00 -0.00000000000E+00  0.00000000000E+00  0.93800000000E+00  0.93800000000E+00 0. -1.
         11    1    1    2    0    0 -0.28021264160E-01 -0.14229024616E-02  0.59621818550E+00  0.59687821349E+00  0.51100000000E-03 0.  1.
    9000002    1    1    2    0    0  0.23449136660E+00 -0.55687077832E-01  0.38713881374E-01  0.96924198024E+00  0.93800000000E+00 0. -1.
         22    1    1    2    0    0 -0.20647010244E+00  0.57109980294E-01  0.33650679005E+01  0.33718798063E+01  0.00000000000E+00 0.  1.
</event>
<event>
 5    1  0.1560836E+002  0.1599672E+01  0.7818608E-02  0.3353720E+00
         11   -1    0    0    0    0  0.00000000000E+00  0.00000000000E+00  0.39999999674E+01  0.40000000000E+01  0.51100000000E-03 0.  1.
    9000002   -1    0    0    0    0 -0.00000000000E+00 -0.00000000000E+00  0.00000000000E+00  0.93800000000E+00  0.93800000000E+00 0. -1.
         11    1    1    2    0    0  0.24356590419E-01 -0.24504621785E-01  0.48271450813E+00  0.48394966419E+00  0.51100000000E-03 0.  1.
    9000002    1    1    2    0    0 -0.20574621520E+00  0.18722057303E+00  0.51526744184E-01  0.97973570589E+00  0.93800000000E+00 0. -1.
         22    1    1    2    0    0  0.18138962478E+00 -0.16271595125E+00  0.34657587150E+01  0.34743146299E+01  0.00000000000E+00 0.  1.
</event>
<event>
 5    1  0.1560836E+002  0.1581093E+01  0.7818608E-02  0.3374143E+00
         11   -1    0    0    0    0  0.00000000000E+00  0.00000000000E+00  0.39999999674E+01  0.40000000000E+01  0.51100000000E-03 0.  1.
    9000002   -1    0    0    0    0 -0.00000000000E+00 -0.00000000000E+00  0.00000000000E+00  0.93800000000E+00  0.93800000000E+00 0.  1.
         11    1    1    2    0    0  0.12220872546E+00  0.45287901896E-01  0.74008603356E+00  0.75147426092E+00  0.51100000000E-03 0.  1.
    9000002    1    1    2    0    0  0.31536359569E-01 -0.21788248223E+00  0.46290464233E-01  0.96460050027E+00  0.93800000000E+00 0.  1.
         22    1    1    2    0    0 -0.15374508503E+00  0.17259458033E+00  0.32136234696E+01  0.32219252388E+01  0.00000000000E+00 0.  1.
</event>
<event>
 5    1  0.1560836E+002  0.1598421E+01  0.7818608E-02  0.3355079E+00
         11   -1    0    0    0    0  0.00000000000E+00  0.00000000000E+00  0.39999999674E+01  0.40000000000E+01  0.51100000000E-03 0.  1.
    9000002   -1    0    0    0    0 -0.00000000000E+00 -0.00000000000E+00  0.00000000000E+00  0.93800000000E+00  0.93800000000E+00 0.  1.
         11    1    1    2    0    0  0.12504774815E-01 -0.26154093944E-02  0.59259136181E-01  0.60622735845E-01  0.51100000000E-03 0.  1.
    9000002    1    1    2    0    0 -0.19297520257E+00 -0.90142058916E-01  0.31002904064E-01  0.96237736863E+00  0.93800000000E+00 0.  1.
         22    1    1    2    0    0  0.18047042776E+00  0.92757468310E-01  0.39097379271E+01  0.39149998955E+01  0.00000000000E+00 0.  1.
</event>
<event>
 5    1  0.1560836E+002  0.1599667E+01  0.7818608E-02  0.3353725E+00
         11   -1    0    0    0    0  0.00000000000E+00  0.00000000000E+00  0.39999999674E+01  0.40000000000E+01  0.51100000000E-03 0.  1.
    9000002   -1    0    0    0    0 -0.00000000000E+00 -0.00000000000E+00  0.00000000000E+00  0.93800000000E+00  0.93800000000E+00 0. -1.
         11    1    1    2    0    0  0.36201111876E-01 -0.38540292258E-01  0.54432361001E+00  0.54688602849E+00  0.51100000000E-03 0.  1.
    9000002    1    1    2    0    0 -0.27064629349E+00  0.29065020934E+00  0.10635970763E+00  0.10241500612E+01  0.93800000000E+00 0. -1.
         22    1    1    2    0    0  0.23444518162E+00 -0.25210991708E+00  0.33493166497E+01  0.33669639103E+01  0.00000000000E+00 0.  1.
</event>
<event>
 5    1  0.1560836E+002  0.1468194E+01  0.7818608E-02  0.3510146E+00
         11   -1    0    0    0    0  0.00000000000E+00  0.00000000000E+00  0.39999999674E+01  0.40000000000E+01  0.51100000000E-03 0. -1.
    9000002   -1    0    0    0    0 -0.00000000000E+00 -0.00000000000E+00  0.00000000000E+00  0.93800000000E+00  0.93800000000E+00 0.  1.
         11    1    1    2    0    0 -0.43227650989E+00  0.12182700828E+00  0.12160851217E+01  0.12963672648E+01  0.51100000000E-03 0. -1.
    9000002    1    1    2    0    0  0.10643077720E+00 -0.11901414649E+00  0.12134597759E+00  0.95919795854E+00  0.93800000000E+00 0.  1.
         22    1    1    2    0    0  0.32584573268E+00 -0.28128617957E-02  0.26625688681E+01  0.26824347766E+01  0.00000000000E+00 0. -1.
</event>
<event>
 5    1  0.1560836E+002  0.1599528E+01  0.7818608E-02  0.3353876E+00
         11   -1    0    0    0    0  0.00000000000E+00  0.00000000000E+00  0.39999999674E+01  0.40000000000E+01  0.51100000000E-03 0. -1.
    9000002   -1    0    0    0    0 -0.00000000000E+00 -0.00000000000E+00  0.00000000000E+00  0.93800000000E+00  0.93800000000E+00 0. -1.
         11    1    1    2    0    0 -0.24496687196E-02 -0.27304825190E-02  0.16044371546E+00  0.16048645850E+00  0.51100000000E-03 0. -1.
    9000002    1    1    2    0    0  0.39776643459E-01  0.20866745102E+00  0.30008286703E-01  0.96222075625E+00  0.93800000000E+00 0. -1.
         22    1    1    2    0    0 -0.37326974739E-01 -0.20593696850E+00  0.38095479652E+01  0.38152927853E+01  0.00000000000E+00 0. -1.
</event>
<event>
 5    1  0.1560836E+002  0.1599676E+01  0.7818608E-02  0.3353715E+00
         11   -1    0    0    0    0  0.00000000000E+00  0.00000000000E+00  0.39999999674E+01  0.40000000000E+01  0.51100000000E-03 0. -1.
    9000002   -1    0    0    0    0 -0.00000000000E+00 -0.00000000000E+00  0.00000000000E+00  0.93800000000E+00  0.93800000000E+00 0.  1.
         11    1    1    2    0    0  0.31396515406E-02  0.11127634697E-01  0.21077457944E+00  0.21109207973E+00  0.51100000000E-03 0.  1.
    9000002    1    1    2    0    0 -0.54516802929E-01 -0.20528638593E+00  0.29890639498E-01  0.96221205167E+00  0.93800000000E+00 0.  1.
         22    1    1    2    0    0  0.51377151389E-01  0.19415875123E+00  0.37593347484E+01  0.37646958686E+01  0.00000000000E+00 0. -1.
</event>
<event>
 5    1  0.1560836E+002  0.1515328E+01  0.7818608E-02  0.3450723E+00
         11   -1    0    0    0    0  0.00000000000E+00  0.00000000000E+00  0.39999999674E+01  0.40000000000E+01  0.51100000000E-03 0. -1.
    9000002   -1    0    0    0    0 -0.00000000000E+00 -0.00000000000E+00  0.00000000000E+00  0.93800000000E+00  0.93800000000E+00 0.  1.
         11    1    1    2    0    0  0.23641524965E+00  0.74553005017E-01  0.34991647487E+01  0.35079345092E+01  0.51100000000E-03 0. -1.
    9000002    1    1    2    0    0 -0.14747842134E+00  0.13291788942E+00  0.92168396869E-01  0.96320094657E+00  0.93800000000E+00 0.  1.
         22    1    1    2    0    0 -0.88936828318E-01 -0.20747089444E+00  0.40866682178E+00  0.46686454427E+00  0.00000000000E+00 0. -1.
</event>
<event>
 5    1  0.1560836E+002  0.1588275E+01  0.7818608E-02  0.3366189E+00
         11   -1    0    0    0    0  0.00000000000E+00  0.00000000000E+00  0.39999999674E+01  0.40000000000E+01  0.51100000000E-03 0.  1.
    9000002   -1    0    0    0    0 -0.00000000000E+00 -0.00000000000E+00  0.00000000000E+00  0.93800000000E+00  0.93800000000E+00 0.  1.
         11    1    1    2    0    0  0.12027091726E+00 -0.28153076378E+00  0.16508751897E+01  0.16790216846E+01  0.51100000000E-03 0.  1.
    9000002    1    1    2    0    0 -0.35527065576E-01  0.48401366802E+00  0.17105527458E+00  0.10698763060E+01  0.93800000000E+00 0.  1.
         22    1    1    2    0    0 -0.84743851682E-01 -0.20248290424E+00  0.21780695031E+01  0.21891020094E+01  0.00000000000E+00 0. -1.
</event>
<event>
 5    1  0.1560836E+002  0.1599613E+01  0.7818608E-02  0.3353783E+00
         11   -1    0    0    0    0  0.00000000000E+00  0.00000000000E+00  0.39999999674E+01  0.40000000000E+01  0.51100000000E-03 0. -1.
    9000002   -1    0    0    0    0 -0.00000000000E+00 -0.00000000000E+00  0.00000000000E+00  0.93800000000E+00  0.93800000000E+00 0. -1.
         11    1    1    2    0    0 -0.14551364602E+00  0.13089174897E+00  0.12202802528E+01  0.12358766231E+01  0.51100000000E-03 0. -1.
    9000002    1    1    2    0    0  0.46510875104E+00 -0.41817531982E+00  0.27453690584E+00  0.11603496288E+01  0.93800000000E+00 0. -1.
         22    1    1    2    0    0 -0.31959510502E+00  0.28728357085E+00  0.25051828087E+01  0.25417737481E+01  0.00000000000E+00 0. -1.
</event>
<event>
 5    1  0.1560836E+002  0.1586746E+01  0.7818608E-02  0.3367876E+00
         11   -1    0    0    0    0  0.00000000000E+00  0.00000000000E+00  0.39999999674E+01  0.40000000000E+01  0.51100000000E-03 0. -1.
    9000002   -1    0    0    0    0 -0.00000000000E+00 -0.00000000000E+00  0.00000000000E+00  0.93800000000E+00  0.93800000000E+00 0. -1.
         11    1    1    2    0    0 -0.58114339302E-01  0.81337677163E-02  0.22225897690E+01  0.22233643374E+01  0.51100000000E-03 0. -1.
    9000002    1    1    2    0    0 -0.23189732943E-01  0.19233525478E+00  0.34569450769E-01  0.95842039882E+00  0.93800000000E+00 0. -1.
         22    1    1    2    0    0  0.81304072245E-01 -0.20046902249E+00  0.17428407476E+01  0.17562152638E+01  0.00000000000E+00 0. -1.
</event>
<event>
 5    1  0.1560836E+002  0.1599676E+01  0.7818608E-02  0.3353715E+00
         11   -1    0    0    0    0  0.00000000000E+00  0.00000000000E+00  0.39999999674E+01  0.40000000000E+01  0.51100000000E-03 0.  1.
    9000002   -1    0    0    0    0 -0.00000000000E+00 -0.00000000000E+00  0.00000000000E+00  0.93800000000E+00  0.93800000000E+00 0.  1.
         11    1    1    2    0    0  0.26216257048E-01  0.19691824425E-01  0.47918124800E+00  0.48030197755E+00  0.51100000000E-03 0.  1.
    9000002    1    1    2    0    0 -0.21423153092E+00 -0.16508047643E+00  0.48670529078E-01  0.97742495003E+00  0.93800000000E+00 0.  1.
         22    1    1    2    0    0  0.18801527387E+00  0.14538865200E+00  0.34721481903E+01  0.34802730724E+01  0.00000000000E+00 0.  1.
</event>
<event>
 5    1  0.1560836E+002  0.1599658E+01  0.7818608E-02  0.3353735E+00
         11   -1    0    0    0    0  0.00000000000E+00  0.00000000000E+00  0.39999999674E+01  0.40000000000E+01  0.51100000000E-03 0. -1.
    9000002   -1    0    0    0    0 -0.00000000000E+00 -0.00000000000E+00  0.00000000000E+00  0.93800000000E+00  0.93800000000E+00 0.  1.
         11    1    1    2    0    0  0.24556708248E-01 -0.62957608982E-01  0.96056734219E+00  0.96294162463E+00  0.51100000000E-03 0. -1.
    9000002    1    1    2    0    0 -0.10102022222E+00  0.27689771099E+00  0.57943813498E-01  0.98492584146E+00  0.93800000000E+00 0.  1.
         22    1    1    2    0    0  0.76463513971E-01 -0.21394010201E+00  0.29814888117E+01  0.29901325339E+01  0.00000000000E+00 0. -1.
</event>
<event>
 5    1  0.1560836E+002  0.1575567E+01  0.7818608E-02  0.3380316E+00
         11   -1    0    0    0    0  0.00000000000E+00  0.00000000000E+00  0.39999999674E+01  0.40000000000E+01  0.51100000000E-03 0.  1.
    9000002   -1    0    0    0    0 -0.00000000000E+00 -0.00000000000E+00  0.00000000000E+00  0.93800000000E+00  0.93800000000E+00 0.  1.
         11    1    1    2    0    0  0.23123970196E+00 -0.18967350957E-01  0.18886995102E+01  0.19028971756E+01  0.51100000000E-03 0.  1.
    9000002    1    1    2    0    0 -0.33069962312E+00 -0.31494467441E+00  0.16302934998E+00  0.10559237461E+01  0.93800000000E+00 0.  1.
         22    1    1    2    0    0  0.99459921165E-01  0.33391202537E+00  0.19482711072E+01  0.19791790783E+01  0.00000000000E+00 0.  1.
</event>
<event>
 5    1  0.1560836E+002  0.1591748E+01  0.7818608E-02  0.3362369E+00
         11   -1    0    0    0    0  0.00000000000E+00  0.00000000000E+00  0.39999999674E+01  0.40000000000E+01  0.51100000000E-03 0. -1.
    9000002   -1    0    0    0    0 -0.00000000000E+00 -0.00000000000E+00  0.00000000000E+00  0.93800000000E+00  0.93800000000E+00 0. -1.
         11    1    1    2    0    0  0.27037041021E+00 -0.66984310435E-01  0.22856391644E+01  0.23025493931E+01  0.51100000000E-03 0. -1.
    9000002    1    1    2    0    0 -0.55413458189E+00 -0.26718997357E-01  0.22033586775E+00  0.11118322420E+01  0.93800000000E+00 0. -1.
         22    1    1    2    0    0  0.28376417168E+00  0.93703307791E-01  0.14940249352E+01  0.15236183649E+01  0.00000000000E+00 0. -1.
</event>
<event>
 5    1  0.1560836E+002  0.1595203E+01  0.7818608E-02  0.3358586E+00
         11   -1    0    0    0    0  0.00000000000E+00  0.00000000000E+00  0.39999999674E+01  0.40000000000E+01  0.51100000000E-03 0.  1.
    9000002   -1    0    0    0    0 -0.00000000000E+00 -0.00000000000E+00  0.00000000000E+00  0.93800000000E+00  0.93800000000E+00 0.  1.
         11    1    1    2    0    0  0.17845731717E-01  0.13483300444E+00  0.11779972561E+01  0.11858230077E+01  0.51100000000E-03 0.  1.
    9000002    1    1    2    0    0  0.17389004661E+00 -0.37138813958E+00  0.11733951963E+00  0.10304268346E+01  0.93800000000E+00 0.  1.
         22    1    1    2    0    0 -0.19173577832E+00  0.23655513514E+00  0.27046631916E+01  0.27217501577E+01  0.00000000000E+00 0.  1.
</event>
<event>
 5    1  0.1560836E+002  0.1599627E+01  0.7818608E-02  0.3353768E+00
         11   -1    0    0    0    0  0.00000000000E+00  0.00000000000E+00  0.39999999674E+01  0.40000000000E+01  0.51100000000E-03 0. -1.
    9000002   -1    0    0    0    0 -0.00000000000E+00 -0.00000000000E+00  0.00000000000E+00  0.93800000000E+00  0.93800000000E+00 0. -1.
         11    1    1    2    0    0 -0.32604182826E+00 -0.23398962218E+00  0.24491171843E+01  0.24817795351E+01  0.51100000000E-03 0. -1.
    9000002    1    1    2    0    0  0.49384960345E+00  0.34636321256E+00  0.25408546750E+00  0.11437912094E+01  0.93800000000E+00 0. -1.
         22    1    1    2    0    0 -0.16780777519E+00 -0.11237359038E+00  0.12967973155E+01  0.13124292555E+01  0.00000000000E+00 0.  1.
</event>
<event>
 5    1  0.1560836E+002  0.1527834E+01  0.7818608E-02  0.3435618E+00
         11   -1    0    0    0    0  0.00000000000E+00  0.00000000000E+00  0.39999999674E+01  0.40000000000E+01  0.51100000000E-03 0. -1.
    9000002   -1    0    0    0    0 -0.00000000000E+00 -0.00000000000E+00  0.00000000000E+00  0.93800000000E+00  0.93800000000E+00 0. -1.
         11    1    1    2    0    0 -0.17594478829E+00 -0.97810549174E-01  0.24191635663E-01  0.20275346708E+00  0.51100000000E-03 0. -1.
    9000002    1    1    2    0    0 -0.41825419134E+00  0.53668424395E+00  0.65053751866E+00  0.13289129428E+01  0.93800000000E+00 0. -1.
         22    1    1    2    0    0  0.59419897963E+00 -0.43887369477E+00  0.33252708130E+01  0.34063335902E+01  0.00000000000E+00 0. -1.
</event>
<event>
 5    1  0.1560836E+002  0.1599677E+01  0.7818608E-02  0.3353714E+00
         11   -1    0    0    0    0  0.00000000000E+00  0.00000000000E+00  0.39999999674E+01  0.40000000000E+01  0.51100000000E-03 0. -1.
    9000002   -1    0    0    0    0 -0.00000000000E+00 -0.00000000000E+00  0.00000000000E+00  0.93800000000E+00  0.93800000000E+00 0.  1.
         11    1    1    2    0    0  0.16059929888E+00  0.97343927617E-01  0.18680366984E+01  0.18774528869E+01  0.51100000000E-03 0. -1.
    9000002    1    1    2    0    0 -0.33471446571E+00 -0.20273091954E+00  0.10317813820E+00  0.10215788406E+01  0.93800000000E+00 0.  1.
         22    1    1    2    0    0  0.17411516683E+00  0.10538699192E+00  0.20287851308E+01  0.20389682725E+01  0.00000000000E+00 0. -1.
</event>
<event>
 5    1  0.1560836E+002  0.1599656E+01  0.7818608E-02  0.3353737E+00
         11   -1    0    0    0    0  0.00000000000E+00  0.00000000000E+00  0.39999999674E+01  0.40000000000E+01  0.51100000000E-03 0.  1.
    9000002   -1    0    0    0    0 -0.00000000000E+00 -0.00000000000E+00  0.00000000000E+00  0.93800000000E+00  0.93800000000E+00 0. -1.
         11    1    1    2    0    0  0.15375152165E-01  0.45483620391E-02  0.24683817825E+00  0.24735890981E+00  0.51100000000E-03 0.  1.
    9000002    1    1    2    0    0 -0.21824305638E+00 -0.42265765872E-01  0.32777192574E-01  0.96453863115E+00  0.93800000000E+00 0. -1.
         22    1    1    2    0    0  0.20286790422E+00  0.37717403833E-01  0.37203845965E+01  0.37261024590E+01  0.00000000000E+00 0.  1.
</event>
<event>
 5    1  0.1560836E+002  0.1581171E+01  0.7818608E-02  0.3374057E+00
         11   -1    0    0    0    0  0.00000000000E+00  0.00000000000E+00  0.39999999674E+01  0.40000000000E+01  0.51100000000E-03 0.  1.
    9000002   -1    0    0    0    0 -0.00000000000E+00 -0.00000000000E+00  0.00000000000E+00  0.93800000000E+00  0.93800000000E+00 0.  1.
         11    1    1    2    0    0 -0.31834778998E-01 -0.86515095057E-01  0.21103007948E+01  0.21123134286E+01  0.51100000000E-03 0.  1.
    9000002    1    1    2    0    0  0.27697944795E-01 -0.14320742703E+00  0.27816043017E-01  0.94968061766E+00  0.93800000000E+00 0.  1.
         22    1    1    2    0    0  0.41368342028E-02  0.22972252209E+00  0.18618831295E+01  0.18760059538E+01  0.00000000000E+00 0.  1.
</event>
<event>
 5    1  0.1560836E+002  0.1599550E+01  0.7818608E-02  0.3353852E+00
         11   -1    0    0    0    0  0.00000000000E+00  0.00000000000E+00  0.39999999674E+01  0.40000000000E+01  0.51100000000E-03 0.  1.
    9000002   -1    0    0    0    0 -0.00000000000E+00 -0.00000000000E+00  0.00000000000E+00  0.93800000000E+00  0.93800000000E+00 0.  1.
         11    1    1    2    0    0 -0.21501279741E-01  0.35880311311E-01  0.47131017697E+00  0.47316302244E+00  0.51100000000E-03 0.  1.
    9000002    1    1    2    0    0  0.10624296632E+00 -0.29285189635E+00  0.64914277943E-01  0.99050879076E+00  0.93800000000E+00 0.  1.
         22    1    1    2    0    0 -0.84741686579E-01  0.25697158504E+00  0.34637755124E+01  0.34743281868E+01  0.00000000000E+00 0.  1.
</event>
<event>
 5    1  0.1560836E+002  0.1574380E+01  0.7818608E-02  0.3381649E+00
         11   -1    0    0    0    0  0.00000000000E+00  0.00000000000E+00  0.39999999674E+01  0.40000000000E+01  0.51100000000E-03 0.  1.
    9000002   -1    0    0    0    0 -0.00000000000E+00 -0.00000000000E+00  0.00000000000E+00  0.93800000000E+00  0.93800000000E+00 0.  1.
         11    1    1    2    0    0  0.22009393865E+00  0.63936068360E+00  0.10376495235E+01  0.12385234032E+01  0.51100000000E-03 0.  1.
    9000002    1    1    2    0    0 -0.29369644059E+00 -0.11457721755E+01  0.14126845614E+01  0.20675040864E+01  0.93800000000E+00 0.  1.
         22    1    1    2    0    0  0.73602501936E-01  0.50641149188E+00  0.15496658824E+01  0.16319725104E+01  0.00000000000E+00 0.  1.
</event>
<event>
 5    1  0.1560836E+002  0.1599677E+01  0.7818608E-02  0.3353714E+00
         11   -1    0    0    0    0  0.00000000000E+00  0.00000000000E+00  0.39999999674E+01  0.40000000000E+01  0.51100000000E-03 0.  1.
    9000002   -1    0    0    0    0 -0.00000000000E+00 -0.00000000000E+00  0.00000000000E+00  0.93800000000E+00  0.93800000000E+00 0.  1.
         11    1    1    2    0    0 -0.74324896600E-01  0.74609185765E-01  0.13464621379E+01  0.13505744225E+01  0.51100000000E-03 0.  1.
    9000002    1    1    2    0    0  0.21931571709E+00 -0.21791409809E+00  0.63822188677E-01  0.98969854485E+00  0.93800000000E+00 0.  1.
         22    1    1    2    0    0 -0.14499082050E+00  0.14330491232E+00  0.25897156408E+01  0.25977270326E+01  0.00000000000E+00 0.  1.
</event>
<event>
 5    1  0.1560836E+002  0.1599675E+01  0.7818608E-02  0.3353716E+00
         11   -1    0    0    0    0  0.00000000000E+00  0.00000000000E+00  0.39999999674E+01  0.40000000000E+01  0.51100000000E-03 0.  1.
    9000002   -1    0    0    0    0 -0.00000000000E+00 -0.00000000000E+00  0.00000000000E+00  0.93800000000E+00  0.93800000000E+00 0.  1.
         11    1    1    2    0    0 -0.37534024134E-03 -0.16950042676E-01  0.28591177675E+00  0.28641447245E+00  0.51100000000E-03 0.  1.
    9000002    1    1    2    0    0 -0.58164264988E-02  0.23374808059E+00  0.36276265133E-01  0.96738408267E+00  0.93800000000E+00 0.  1.
         22    1    1    2    0    0  0.61917667401E-02 -0.21679803791E+00  0.36778119255E+01  0.36842014449E+01  0.00000000000E+00 0.  1.
</event>
<event>
 5    1  0.1560836E+002  0.1570679E+01  0.7818608E-02  0.3385815E+00
         11   -1    0    0    0    0  0.00000000000E+00  0.00000000000E+00  0.39999999674E+01  0.40000000000E+01  0.51100000000E-03 0.  1.
    9000002   -1    0    0    0    0 -0.00000000000E+00 -0.00000000000E+00  0.00000000000E+00  0.93800000000E+00  0.93800000000E+00 0.  1.
         11    1    1    2    0    0 -0.52526063058E-01 -0.23373086048E+00  0.19633192388E+01  0.19778806327E+01  0.51100000000E-03 0.  1.
    9000002    1    1    2    0    0 -0.19345395424E+00  0.18669680214E+00  0.70781030687E-01  0.97833229664E+00  0.93800000000E+00 0.  1.
         22    1    1    2    0    0  0.24598001730E+00  0.47034058341E-01  0.19658996979E+01  0.19817870707E+01  0.00000000000E+00 0.  1.
</event>
<event>
 5    1  0.1560836E+002  0.1598990E+01  0.7818608E-02  0.3354461E+00
         11   -1    0    0    0    0  0.00000000000E+00  0.00000000000E+00  0.39999999674E+01  0.40000000000E+01  0.51100000000E-03 0. -1.
    9000002   -1    0    0    0    0 -0.00000000000E+00 -0.00000000000E+00  0.00000000000E+00  0.93800000000E+00  0.93800000000E+00 0. -1.
         11    1    1    2    0    0  0.45404718343E-01  0.68563219584E-01  0.12998737415E+01  0.13024724598E+01  0.51100000000E-03 0. -1.
    9000002    1    1    2    0    0 -0.22366643036E+00 -0.23223720088E+00  0.70048996406E-01  0.99433980683E+00  0.93800000000E+00 0. -1.
         22    1    1    2    0    0  0.17826171202E+00  0.16367398130E+00  0.26300772295E+01  0.26411877334E+01  0.00000000000E+00 0. -1.
</event>
<event>
 5    1  0.1560836E+002  0.1594150E+01  0.7818608E-02  0.3359737E+00
         11   -1    0    0    0    0  0.00000000000E+00  0.00000000000E+00  0.39999999674E+01  0.40000000000E+01  0.51100000000E-03 0.  1.
    9000002   -1    0    0    0    0 -0.00000000000E+00 -0.00000000000E+00  0.00000000000E+00  0.93800000000E+00  0.93800000000E+00 0. -1.
         11    1    1    2    0    0 -0.49447023353E-02  0.11328735471E-01  0.13411410972E-01  0.18246024055E-01  0.51100000000E-03 0.  1.
    9000002    1    1    2    0    0  0.15263606015E+00 -0.22654389398E+00  0.53941922805E-01  0.97845471729E+00  0.93800000000E+00 0. -1.
         22    1    1    2    0    0 -0.14769135782E+00  0.21521515850E+00  0.39326466336E+01  0.39412992587E+01  0.00000000000E+00 0.  1.
</event>
<event>
 5    1  0.1560836E+002  0.1599676E+01  0.7818608E-02  0.3353715E+00
         11   -1    0    0    0    0  0.00000000000E+00  0.00000000000E+00  0.39999999674E+01  0.40000000000E+01  0.51100000000E-03 0.  1.
    9000002   -1    0    0    0    0 -0.00000000000E+00 -0.00000000000E+00  0.00000000000E+00  0.93800000000E+00  0.93800000000E+00 0. -1.
         11    1    1    2    0    0 -0.34829051436E-01  0.11495929779E+00  0.97965116905E+00  0.98698803291E+00  0.51100000000E-03 0.  1.
    9000002    1    1    2    0    0  0.13395262540E+00 -0.44898557939E+00  0.14952164131E+00  0.10591185380E+01  0.93800000000E+00 0. -1.
         22    1    1    2    0    0 -0.99123573960E-01  0.33402628160E+00  0.28708271570E+01  0.28918934291E+01  0.00000000000E+00 0.  1.
</event>
<event>
 5    1  0.1560836E+002  0.1590346E+01  0.7818608E-02  0.3363909E+00
         11   -1    0    0    0    0  0.00000000000E+00  0.00000000000E+00  0.39999999674E+01  0.40000000000E+01  0.51100000000E-03 0. -1.
    9000002   -1    0    0    0    0 -0.00000000000E+00 -0.00000000000E+00  0.00000000000E+00  0.93800000000E+00  0.93800000000E+00 0. -1.
         11    1    1    2    0    0  0.10714361185E-01 -0.39310715923E-01  0.83150428850E+00  0.83250211581E+00  0.51100000000E-03 0. -1.
    9000002    1    1    2    0    0  0.33752160416E+00 -0.38854262038E-01  0.84816031179E-01  0.10012333625E+01  0.93800000000E+00 0. -1.
         22    1    1    2    0    0 -0.34823596534E+00  0.78164977961E-01  0.30836796477E+01  0.31042645217E+01  0.00000000000E+00 0. -1.
</event>
<event>
 5    1  0.1560836E+002  0.1599617E+01  0.7818608E-02  0.3353779E+00
         11   -1    0    0    0    0  0.00000000000E+00  0.00000000000E+00  0.39999999674E+01  0.40000000000E+01  0.51100000000E-03 0. -1.
    9000002   -1    0    0    0    0 -0.00000000000E+00 -0.00000000000E+00  0.00000000000E+00  0.93800000000E+00  0.93800000000E+00 0.  1.
         11    1    1    2    0    0  0.12532491083E-01  0.24028683166E-01  0.37050578428E+00  0.37149594648E+00  0.51100000000E-03 0. -1.
    9000002    1    1    2    0    0 -0.16735165144E+00 -0.20929367834E+00  0.47817443489E-01  0.97669899505E+00  0.93800000000E+00 0.  1.
         22    1    1    2    0    0  0.15481916036E+00  0.18526499518E+00  0.35816767396E+01  0.35898050585E+01  0.00000000000E+00 0. -1.
</event>
<event>
 5    1  0.1560836E+002  0.1599676E+01  0.7818608E-02  0.3353715E+00
         11   -1    0    0    0    0  0.00000000000E+00  0.00000000000E+00  0.39999999674E+01  0.40000000000E+01  0.51100000000E-03 0.  1.
    9000002   -1    0    0    0    0 -0.00000000000E+00 -0.00000000000E+00  0.00000000000E+00  0.93800000000E+00  0.93800000000E+00 0.  1.
         11    1    1    2    0    0  0.28818226570E-01  0.46598571805E-02  0.26481318930E+00  0.26641788754E+00  0.51100000000E-03 0. -1.
    9000002    1    1    2    0    0 -0.42223875400E+00 -0.74809293120E-01  0.12451200534E+00  0.10388595840E+01  0.93800000000E+00 0.  1.
         22    1    1    2    0    0  0.39342052743E+00  0.70149435939E-01  0.36106747727E+01  0.36327225285E+01  0.00000000000E+00 0.  1.
</event>
<event>
 5    1  0.1560836E+002  0.1592954E+01  0.7818608E-02  0.3361046E+00
         11   -1    0    0    0    0  0.00000000000E+00  0.00000000000E+00  0.39999999674E+01  0.40000000000E+01  0.51100000000E-03 0.  1.
    9000002   -1    0    0    0    0 -0.00000000000E+00 -0.00000000000E+00  0.00000000000E+00  0.93800000000E+00  0.93800000000E+00 0. -1.
         11    1    1    2    0    0 -0.58086472892E-01  0.22325278294E-01  0.15127827507E+01  0.15140622076E+01  0.51100000000E-03 0.  1.
    9000002    1    1    2    0    0  0.78417074399E-01  0.18180017630E+00  0.30999853432E-01  0.95916918871E+00  0.93800000000E+00 0. -1.
         22    1    1    2    0    0 -0.20330601507E-01 -0.20412545459E+00  0.24562173632E+01  0.24647686037E+01  0.00000000000E+00 0.  1.
</event>
<event>
 5    1  0.1560836E+002  0.1599676E+01  0.7818608E-02  0.3353715E+00
         11   -1    0    0    0    0  0.00000000000E+00  0.00000000000E+00  0.39999999674E+01  0.40000000000E+01  0.51100000000E-03 0. -1.
    9000002   -1    0    0    0    0 -0.00000000000E+00 -0.00000000000E+00  0.00000000000E+00  0.93800000000E+00  0.93800000000E+00 0.  1.
         11    1    1    2    0    0  0.44691775185E-01  0.83828297610E-01  0.11340505408E+01  0.11380225958E+01  0.51100000000E-03 0.  1.
    9000002    1    1    2    0    0 -0.15068297215E+00 -0.29149543576E+00  0.72030362339E-01  0.99634698788E+00  0.93800000000E+00 0.  1.
         22    1    1    2    0    0  0.10599119697E+00  0.20766713815E+00  0.27939190642E+01  0.28036304163E+01  0.00000000000E+00 0. -1.
</event>
<event>
 5    1  0.1560836E+002  0.1530235E+01  0.7818608E-02  0.3432748E+00
         11   -1    0    0    0    0  0.00000000000E+00  0.00000000000E+00  0.39999999674E+01  0.40000000000E+01  0.51100000000E-03 0. -1.
    9000002   -1    0    0    0    0 -0.00000000000E+00 -0.00000000000E+00  0.00000000000E+00  0.93800000000E+00  0.93800000000E+00 0. -1.
         11    1    1    2    0    0  0.31011294205E-01 -0.30567023858E+00  0.12250568694E+01  0.12629966705E+01  0.51100000000E-03 0. -1.
    9000002    1    1    2    0    0  0.20777314442E+00  0.86185796128E-01  0.88048105998E-01  0.96860422256E+00  0.93800000000E+00 0. -1.
         22    1    1    2    0    0 -0.23878443862E+00  0.21948444245E+00  0.26868949919E+01  0.27063991070E+01  0.00000000000E+00 0.  1.
</event>
<event>
 5    1  0.1560836E+002  0.1599631E+01  0.7818608E-02  0.3353764E+00
         11   -1    0    0    0    0  0.00000000000E+00  0.00000000000E+00  0.39999999674E+01  0.40000000000E+01  0.51100000000E-03 0.  1.
    9000002   -1    0    0    0    0 -0.00000000000E+00 -0.00000000000E+00  0.00000000000E+00  0.93800000000E+00  0.93800000000E+00 0. -1.
         11    1    1    2    0    0  0.19687892957E+00  0.14657154422E+00  0.19567580418E+01  0.19720919922E+01  0.51100000000E-03 0.  1.
    9000002    1    1    2    0    0 -0.37231538986E+00 -0.29458325532E+00  0.15370603376E+00  0.10624818063E+01  0.93800000000E+00 0. -1.
         22    1    1    2    0    0  0.17543646028E+00  0.14801171110E+00  0.18895358918E+01  0.19034262015E+01  0.00000000000E+00 0.  1.
</event>
<event>
 5    1  0.1560836E+002  0.1599636E+01  0.7818608E-02  0.3353759E+00
         11   -1    0    0    0    0  0.00000000000E+00  0.00000000000E+00  0.39999999674E+01  0.40000000000E+01  0.51100000000E-03 0.  1.
    9000002   -1    0    0    0    0 -0.00000000000E+00 -0.00000000000E+00  0.00000000000E+00  0.93800000000E+00  0.93800000000E+00 0. -1.
         11    1    1    2    0    0  0.33445816190E+00 -0.74130844525E-01  0.21838267073E+01  0.22105331920E+01  0.51100000000E-03 0.  1.
    9000002    1    1    2    0    0 -0.56544450741E+00  0.13480432453E+00  0.23487169424E+00  0.11282324271E+01  0.93800000000E+00 0. -1.
         22    1    1    2    0    0  0.23098634551E+00 -0.60673480004E-01  0.15813015658E+01  0.15992343809E+01  0.00000000000E+00 0.  1.
</event>
<event>
 5    1  0.1560836E+002  0.1575909E+01  0.7818608E-02  0.3379933E+00
         11   -1    0    0    0    0  0.00000000000E+00  0.00000000000E+00  0.39999999674E+01  0.40000000000E+01  0.51100000000E-03 0.  1.
    9000002   -1    0    0    0    0 -0.00000000000E+00 -0.00000000000E+00  0.00000000000E+00  0.93800000000E+00  0.93800000000E+00 0.  1.
         11    1    1    2    0    0  0.11820358085E+00 -0.20647760880E-01  0.21280793431E+01  0.21314596802E+01  0.51100000000E-03 0.  1.
    9000002    1    1    2    0    0  0.12433472714E+00  0.58136791310E-01  0.30126860819E-01  0.94846752112E+00  0.93800000000E+00 0.  1.
         22    1    1    2    0    0 -0.24253830799E+00 -0.37489030430E-01  0.18417937634E+01  0.18580727987E+01  0.00000000000E+00 0.  1.
</event>
<event>
 5    1  0.1560836E+002  0.1599676E+01  0.7818608E-02  0.3353715E+00
         11   -1    0    0    0    0  0.00000000000E+00  0.00000000000E+00  0.39999999674E+01  0.40000000000E+01  0.51100000000E-03 0. -1.
    9000002   -1    0    0    0    0 -0.00000000000E+00 -0.00000000000E+00  0.00000000000E+00  0.93800000000E+00  0.93800000000E+00 0. -1.
         11    1    1    2    0    0  0.26696433223E-01 -0.17022851623E+00  0.13232123500E+01  0.13343843642E+01  0.51100000000E-03 0. -1.
    9000002    1    1    2    0    0 -0.77633954972E-01  0.48947508878E+00  0.16801315809E+00  0.10740974419E+01  0.93800000000E+00 0. -1.
         22    1    1    2    0    0  0.50937521749E-01 -0.31924657255E+00  0.25087744593E+01  0.25295181938E+01  0.00000000000E+00 0. -1.
</event>
<event>
 5    1  0.1560836E+002  0.1598285E+01  0.7818608E-02  0.3355227E+00
         11   -1    0    0    0    0  0.00000000000E+00  0.00000000000E+00  0.39999999674E+01  0.40000000000E+01  0.51100000000E-03 0.  1.
    9000002   -1    0    0    0    0 -0.00000000000E+00 -0.00000000000E+00  0.00000000000E+00  0.93800000000E+00  0.93800000000E+00 0.  1.
         11    1    1    2    0    0  0.14690490803E+00  0.20007447130E+00  0.17267537273E+01  0.17445026632E+01  0.51100000000E-03 0.  1.
    9000002    1    1    2    0    0 -0.41339600915E+00 -0.40624216024E+00  0.23473631601E+00  0.11273305155E+01  0.93800000000E+00 0.  1.
         22    1    1    2    0    0  0.26649110112E+00  0.20616768894E+00  0.20385099240E+01  0.20661668213E+01  0.00000000000E+00 0.  1.
</event>
<event>
 5    1  0.1560836E+002  0.1595018E+01  0.7818608E-02  0.3358788E+00
         11   -1    0    0    0    0  0.00000000000E+00  0.00000000000E+00  0.39999999674E+01  0.40000000000E+01  0.51100000000E-03 0. -1.
    9000002   -1    0    0    0    0 -0.00000000000E+00 -0.00000000000E+00  0.00000000000E+00  0.93800000000E+00  0.93800000000E+00 0.  1.
         11    1    1    2    0    0 -0.17739579458E+00 -0.12046696591E+00  0.14119789573E+01  0.14281688957E+01  0.51100000000E-03 0. -1.
    9000002    1    1    2    0    0  0.39487470866E+00  0.13359177369E+00  0.12140686372E+00  0.10336132856E+01  0.93800000000E+00 0.  1.
         22    1    1    2    0    0 -0.21747891409E+00 -0.13124807782E-01  0.24666141463E+01  0.24762178187E+01  0.00000000000E+00 0. -1.
</event>
<event>
 5    1  0.1560836E+002  0.1599673E+01  0.7818608E-02  0.3353718E+00
         11   -1    0    0    0    0  0.00000000000E+00  0.00000000000E+00  0.39999999674E+01  0.40000000000E+01  0.51100000000E-03 0.  1.
    9000002   -1    0    0    0    0 -0.00000000000E+00 -0.00000000000E+00  0.00000000000E+00  0.93800000000E+00  0.93800000000E+00 0. -1.
         11    1    1    2    0    0 -0.12365818412E+00  0.82757574546E-01  0.14205430941E+01  0.14283147783E+01  0.51100000000E-03 0.  1.
    9000002    1    1    2    0    0  0.33321315992E+00 -0.22989381721E+00  0.11061403246E+00  0.10275999422E+01  0.93800000000E+00 0. -1.
         22    1    1    2    0    0 -0.20955497580E+00  0.14713624266E+00  0.24688428408E+01  0.24820852794E+01  0.00000000000E+00 0.  1.
</event>
<event>
 5    1  0.1560836E+002  0.1599675E+01  0.7818608E-02  0.3353716E+00
         11   -1    0    0    0    0  0.00000000000E+00  0.00000000000E+00  0.39999999674E+01  0.40000000000E+01  0.51100000000E-03 0. -1.
    9000002   -1    0    0    0    0 -0.00000000000E+00 -0.00000000000E+00  0.00000000000E+00  0.93800000000E+00  0.93800000000E+00 0.  1.
         11    1    1    2    0    0  0.48949294729E-01 -0.34575332165E-01  0.88883423112E+00  0.89085242245E+00  0.51100000000E-03 0. -1.
    9000002    1    1    2    0    0 -0.22339315192E+00  0.15527084758E+00  0.49254932512E-01  0.97789753288E+00  0.93800000000E+00 0.  1.
         22    1    1    2    0    0  0.17444385719E+00 -0.12069551541E+00  0.30619108037E+01  0.30692500447E+01  0.00000000000E+00 0. -1.
</event>
<event>
 5    1  0.1560836E+002  0.1594816E+01  0.7818608E-02  0.3359009E+00
         11   -1    0    0    0    0  0.00000000000E+00  0.00000000000E+00  0.39999999674E+01  0.40000000000E+01  0.51100000000E-03 0.  1.
    9000002   -1    0    0    0    0 -0.00000000000E+00 -0.00000000000E+00  0.00000000000E+00  0.93800000000E+00  0.93800000000E+00 0.  1.
         11    1    1    2    0    0 -0.13197396523E+00 -0.19746730466E+00  0.25256901609E+01  0.25368329692E+01  0.51100000000E-03 0.  1.
    9000002    1    1    2    0    0  0.13924116394E+00  0.40804564780E+00  0.13006008911E+00  0.10405041947E+01  0.93800000000E+00 0.  1.
         22    1    1    2    0    0 -0.72671987113E-02 -0.21057834314E+00  0.13442497174E+01  0.13606628361E+01  0.00000000000E+00 0.  1.
</event>
<event>
 5    1  0.1560836E+002  0.1594285E+01  0.7818608E-02  0.3359590E+00
         11   -1    0    0    0    0  0.00000000000E+00  0.00000000000E+00  0.39999999674E+01  0.40000000000E+01  0.51100000000E-03 0. -1.
    9000002   -1    0    0    0    0 -0.00000000000E+00 -0.00000000000E+00  0.00000000000E+00  0.93800000000E+00  0.93800000000E+00 0. -1.
         11    1    1    2    0    0 -0.33023100799E-01  0.40551987077E-01  0.15244342285E+01  0.15253311008E+01  0.51100000000E-03 0. -1.
    9000002    1    1    2    0    0  0.26083063363E+00  0.33031559908E-01  0.50120967450E-01  0.97543826805E+00  0.93800000000E+00 0. -1.
         22    1    1    2    0    0 -0.22780753284E+00 -0.73583546985E-01  0.24254447714E+01  0.24372306311E+01  0.00000000000E+00 0. -1.
</event>
<event>
 5    1  0.1560836E+002  0.1597048E+01  0.7818608E-02  0.3356574E+00
         11   -1    0    0    0    0  0.00000000000E+00  0.00000000000E+00  0.39999999674E+01  0.40000000000E+01  0.51100000000E-03 0.  1.
    9000002   -1    0    0    0    0 -0.00000000000E+00 -0.00000000000E+00  0.00000000000E+00  0.93800000000E+00  0.93800000000E+00 0.  1.
         11    1    1    2    0    0  0.19680829941E+00 -0.74423717360E-01  0.15817129171E+01  0.15956467058E+01  0.51100000000E-03 0.  1.
    9000002    1    1    2    0    0 -0.42192849209E+00  0.46257891727E-01  0.12414957114E+00  0.10370248604E+01  0.93800000000E+00 0.  1.
         22    1    1    2    0    0  0.22512019268E+00  0.28165825633E-01  0.22941374791E+01  0.23053284339E+01  0.00000000000E+00 0.  1.
</event>
<event>
 5    1  0.1560836E+002  0.1599676E+01  0.7818608E-02  0.3353715E+00
         11   -1    0    0    0    0  0.00000000000E+00  0.00000000000E+00  0.39999999674E+01  0.40000000000E+01  0.51100000000E-03 0. -1.
    9000002   -1    0    0    0    0 -0.00000000000E+00 -0.00000000000E+00  0.00000000000E+00  0.93800000000E+00  0.93800000000E+00 0. -1.
         11    1    1    2    0    0  0.26120264870E+00 -0.24343031397E+00  0.23523087698E+01  0.23792523933E+01  0.51100000000E-03 0. -1.
    9000002    1    1    2    0    0 -0.41783970400E+00  0.38926428304E+00  0.22617576395E+00  0.11212119231E+01  0.93800000000E+00 0. -1.
         22    1    1    2    0    0  0.15663705530E+00 -0.14583396907E+00  0.14215154336E+01  0.14375356836E+01  0.00000000000E+00 0. -1.
</event>
<event>
 5    1  0.1560836E+002  0.1599521E+01  0.7818608E-02  0.3353884E+00
         11   -1    0    0    0    0  0.00000000000E+00  0.00000000000E+00  0.39999999674E+01  0.40000000000E+01  0.51100000000E-03 0. -1.
    9000002   -1    0    0    0    0 -0.00000000000E+00 -0.00000000000E+00  0.00000000000E+00  0.93800000000E+00  0.93800000000E+00 0. -1.
         11    1    1    2    0    0  0.16135544617E+00  0.13449003007E-01  0.15893969726E+01  0.15976230636E+01  0.51100000000E-03 0. -1.
    9000002    1    1    2    0    0 -0.42897704376E+00 -0.25913865068E-01  0.12520937636E+00  0.10393335463E+01  0.93800000000E+00 0. -1.
         22    1    1    2    0    0  0.26762159758E+00  0.12464862061E-01  0.22853936183E+01  0.23010433901E+01  0.00000000000E+00 0. -1.
</event>
<event>
 5    1  0.1560836E+002  0.1597238E+01  0.7818608E-02  0.3356367E+00
         11   -1    0    0    0    0  0.00000000000E+00  0.00000000000E+00  0.39999999674E+01  0.40000000000E+01  0.51100000000E-03 0.  1.
    9000002   -1    0    0    0    0 -0.00000000000E+00 -0.00000000000E+00  0.00000000000E+00  0.93800000000E+00  0.93800000000E+00 0. -1.
         11    1    1    2    0    0  0.12689911763E-01 -0.39360156469E-03  0.15061555876E+00  0.15115057541E+00  0.51100000000E-03 0.  1.
    9000002    1    1    2    0    0  0.19229781858E+00 -0.27305528493E+00  0.76606024618E-01  0.99862411480E+00  0.93800000000E+00 0. -1.
         22    1    1    2    0    0 -0.20498773034E+00  0.27344888650E+00  0.37727783840E+01  0.37882253098E+01  0.00000000000E+00 0.  1.
</event>
<event>
 5    1  0.1560836E+002  0.1588188E+01  0.7818608E-02  0.3366284E+00
         11   -1    0    0    0    0  0.00000000000E+00  0.00000000000E+00  0.39999999674E+01  0.40000000000E+01  0.51100000000E-03 0.  1.
    9000002   -1    0    0    0    0 -0.00000000000E+00 -0.00000000000E+00  0.00000000000E+00  0.93800000000E+00  0.93800000000E+00 0.  1.
         11    1    1    2    0    0  0.14916545966E+00  0.27466905145E-01  0.19157864848E+01  0.19217811742E+01  0.51100000000E-03 0.  1.
    9000002    1    1    2    0    0 -0.19064413288E+00  0.18201135668E+00  0.55085574852E-01  0.97588510590E+00  0.93800000000E+00 0.  1.
         22    1    1    2    0    0  0.41478673226E-01 -0.20947826183E+00  0.20291279077E+01  0.20403337199E+01  0.00000000000E+00 0.  1.
</event>
<event>
 5    1  0.1560836E+002  0.1599672E+01  0.7818608E-02  0.3353719E+00
         11   -1    0    0    0    0  0.00000000000E+00  0.00000000000E+00  0.39999999674E+01  0.40000000000E+01  0.51100000000E-03 0.  1.
    9000002   -1    0    0    0    0 -0.00000000000E+00 -0.00000000000E+00  0.00000000000E+00  0.93800000000E+00  0.93800000000E+00 0.  1.
         11    1    1    2    0    0 -0.78127427315E-01 -0.16956703449E+00  0.18459425384E+01  0.18553600702E+01  0.51100000000E-03 0.  1.
    9000002    1    1    2    0    0  0.15975602636E+00  0.35573880938E+00  0.10244962753E+00  0.10209858053E+01  0.93800000000E+00 0.  1.
         22    1    1    2    0    0 -0.81628599041E-01 -0.18617177489E+00  0.20516078015E+01  0.20616541245E+01  0.00000000000E+00 0.  1.
</event>
<event>
 5    1  0.1560836E+002  0.1599677E+01  0.7818608E-02  0.3353714E+00
         11   -1    0    0    0    0  0.00000000000E+00  0.00000000000E+00  0.39999999674E+01  0.40000000000E+01  0.51100000000E-03 0.  1.
    9000002   -1    0    0    0    0 -0.00000000000E+00 -0.00000000000E+00  0.00000000000E+00  0.93800000000E+00  0.93800000000E+00 0. -1.
         11    1    1    2    0    0 -0.49252489269E-01  0.47087577893E-01  0.95995409618E+00  0.96236956289E+00  0.51100000000E-03 0. -1.
    9000002    1    1    2    0    0  0.20380600788E+00 -0.19341230618E+00  0.52575405385E-01  0.98058828378E+00  0.93800000000E+00 0. -1.
         22    1    1    2    0    0 -0.15455351861E+00  0.14632472829E+00  0.29874704658E+01  0.29950421533E+01  0.00000000000E+00 0.  1.
</event>
<event>
 5    1  0.1560836E+002  0.1599554E+01  0.7818608E-02  0.3353847E+00
         11   -1    0    0    0    0  0.00000000000E+00  0.00000000000E+00  0.39999999674E+01  0.40000000000E+01  0.51100000000E-03 0.  1.
    9000002   -1    0    0    0    0 -0.00000000000E+00 -0.00000000000E+00  0.00000000000E+00  0.93800000000E+00  0.93800000000E+00 0. -1.
         11    1    1    2    0    0  0.78112520953E-02 -0.76843560385E-01  0.67690677877E+00  0.68129949119E+00  0.51100000000E-03 0.  1.
    9000002    1    1    2    0    0  0.99879713142E-02  0.45709437088E+00  0.14223218007E+00  0.10531424483E+01  0.93800000000E+00 0. -1.
         22    1    1    2    0    0 -0.17799223409E-01 -0.38025081049E+00  0.31808610085E+01  0.32035580605E+01  0.00000000000E+00 0.  1.
</event>
<event>
 5    1  0.1560836E+002  0.1599676E+01  0.7818608E-02  0.3353715E+00
         11   -1    0    0    0    0  0.00000000000E+00  0.00000000000E+00  0.39999999674E+01  0.40000000000E+01  0.51100000000E-03 0. -1.
    9000002   -1    0    0    0    0 -0.00000000000E+00 -0.00000000000E+00  0.00000000000E+00  0.93800000000E+00  0.93800000000E+00 0. -1.
         11    1    1    2    0    0 -0.45007845312E-01  0.15961052572E-01  0.73692747913E+00  0.73847331161E+00  0.51100000000E-03 0. -1.
    9000002    1    1    2    0    0  0.24487171163E+00 -0.88922420915E-01  0.45122826470E-01  0.97455088198E+00  0.93800000000E+00 0. -1.
         22    1    1    2    0    0 -0.19986386632E+00  0.72961368343E-01  0.32179496618E+01  0.32249758064E+01  0.00000000000E+00 0. -1.
</event>
<event>
 5    1  0.1560836E+002  0.1599637E+01  0.7818608E-02  0.3353757E+00
         11   -1    0    0    0    0  0.00000000000E+00  0.00000000000E+00  0.39999999674E+01  0.40000000000E+01  0.51100000000E-03 0.  1.
    9000002   -1    0    0    0    0 -0.00000000000E+00 -0.00000000000E+00  0.00000000000E+00  0.93800000000E+00  0.93800000000E+00 0. -1.
         11    1    1    2    0    0 -0.19604253526E-01  0.42998067062E-01  0.44784264676E+00  0.45032927720E+00  0.51100000000E-03 0.  1.
    9000002    1    1    2    0    0  0.13139328375E+00 -0.35936514773E+00  0.98573262163E-01  0.10178252269E+01  0.93800000000E+00 0. -1.
         22    1    1    2    0    0 -0.11178903022E+00  0.31636708066E+00  0.34535840584E+01  0.34698454959E+01  0.00000000000E+00 0.  1.
</event>
<event>
 5    1  0.1560836E+002  0.1599654E+01  0.7818608E-02  0.3353739E+00
         11   -1    0    0    0    0  0.00000000000E+00  0.00000000000E+00  0.39999999674E+01  0.40000000000E+01  0.51100000000E-03 0.  1.
    9000002   -1    0    0    0    0 -0.00000000000E+00 -0.00000000000E+00  0.00000000000E+00  0.93800000000E+00  0.93800000000E+00 0. -1.
         11    1    1    2    0    0  0.23943477064E+00 -0.15895806732E+00  0.19984537062E+01  0.20190131632E+01  0.51100000000E-03 0.  1.
    9000002    1    1    2    0    0 -0.44542902207E+00  0.29796007692E+00  0.19786034496E+00  0.10982622352E+01  0.93800000000E+00 0. -1.
         22    1    1    2    0    0  0.20599425144E+00 -0.13900200960E+00  0.18036859162E+01  0.18207246016E+01  0.00000000000E+00 0. -1.
</event>
<event>
 5    1  0.1560836E+002  0.1599662E+01  0.7818608E-02  0.3353730E+00
         11   -1    0    0    0    0  0.00000000000E+00  0.00000000000E+00  0.39999999674E+01  0.40000000000E+01  0.51100000000E-03 0.  1.
    9000002   -1    0    0    0    0 -0.00000000000E+00 -0.00000000000E+00  0.00000000000E+00  0.93800000000E+00  0.93800000000E+00 0.  1.
         11    1    1    2    0    0  0.30744335751E+00  0.27270858070E+00  0.20816467007E+01  0.21218257788E+01  0.51100000000E-03 0.  1.
    9000002    1    1    2    0    0 -0.53050161073E+00 -0.48121015989E+00  0.36827671575E+00  0.12363118200E+01  0.93800000000E+00 0.  1.
         22    1    1    2    0    0  0.22305825322E+00  0.20850157919E+00  0.15500765509E+01  0.15798624011E+01  0.00000000000E+00 0. -1.
</event>
<event>
 5    1  0.1560836E+002  0.1599676E+01  0.7818608E-02  0.3353715E+00
         11   -1    0    0    0    0  0.00000000000E+00  0.00000000000E+00  0.39999999674E+01  0.40000000000E+01  0.51100000000E-03 0.  1.
    9000002   -1    0    0    0    0 -0.00000000000E+00 -0.00000000000E+00  0.00000000000E+00  0.93800000000E+00  0.93800000000E+00 0. -1.
         11    1    1    2    0    0 -0.15667835770E+00  0.10129560349E+00  0.17348821901E+01  0.17448854924E+01  0.51100000000E-03 0.  1.
    9000002    1    1    2    0    0  0.35262846743E+00 -0.22562898088E+00  0.11850458869E+00  0.10339935254E+01  0.93800000000E+00 0. -1.
         22    1    1    2    0    0 -0.19595010973E+00  0.12433337739E+00  0.21466131886E+01  0.21591209822E+01  0.00000000000E+00 0. -1.
</event>
<event>
 5    1  0.1560836E+002  0.1597972E+01  0.7818608E-02  0.3355567E+00
         11   -1    0    0    0    0  0.00000000000E+00  0.00000000000E+00  0.39999999674E+01  0.40000000000E+01  0.51100000000E-03 0. -1.
    9000002   -1    0    0    0    0 -0.00000000000E+00 -0.00000000000E+00  0.00000000000E+00  0.93800000000E+00  0.93800000000E+00 0. -1.
         11    1    1    2    0    0 -0.22540144890E-02  0.10549375232E-01  0.31312514529E-01  0.33122569137E-01  0.51100000000E-03 0. -1.
    9000002    1    1    2    0    0 -0.18955431792E+00 -0.29816389092E+00  0.85108954095E-01  0.10059423837E+01  0.93800000000E+00 0. -1.
         22    1    1    2    0    0  0.19180833241E+00  0.28761451569E+00  0.38835784987E+01  0.38989350471E+01  0.00000000000E+00 0. -1.
</event>
<event>
 5    1  0.1560836E+002  0.1591598E+01  0.7818608E-02  0.3362534E+00
         11   -1    0    0    0    0  0.00000000000E+00  0.00000000000E+00  0.39999999674E+01  0.40000000000E+01  0.51100000000E-03 0.  1.
    9000002   -1    0    0    0    0 -0.00000000000E+00 -0.00000000000E+00  0.00000000000E+00  0.93800000000E+00  0.93800000000E+00 0.  1.
         11    1    1    2    0    0 -0.16932851548E-01  0.26413362101E-01  0.17426640662E+01  0.17429465556E+01  0.51100000000E-03 0.  1.
    9000002    1    1    2    0    0 -0.33663443409E-01  0.17376120584E+00  0.26744745993E-01  0.95492694250E+00  0.93800000000E+00 0.  1.
         22    1    1    2    0    0  0.50596294957E-01 -0.20017456794E+00  0.22305911552E+01  0.22401265019E+01  0.00000000000E+00 0.  1.
</event>
<event>
 5    1  0.1560836E+002  0.1599673E+01  0.7818608E-02  0.3353718E+00
         11   -1    0    0    0    0  0.00000000000E+00  0.00000000000E+00  0.39999999674E+01  0.40000000000E+01  0.51100000000E-03 0. -1.
    9000002   -1    0    0    0    0 -0.00000000000E+00 -0.00000000000E+00  0.00000000000E+00  0.93800000000E+00  0.93800000000E+00 0.  1.
         11    1    1    2    0    0 -0.30192504023E-01 -0.17509370769E+00  0.14257528331E+01  0.14367814016E+01  0.51100000000E-03 0. -1.
    9000002    1    1    2    0    0  0.86370273948E-01  0.46834567606E+00  0.15466621414E+00  0.10632841268E+01  0.93800000000E+00 0.  1.
         22    1    1    2    0    0 -0.56177769925E-01 -0.29325196838E+00  0.24195809201E+01  0.24379344716E+01  0.00000000000E+00 0. -1.
</event>
<event>
 5    1  0.1560836E+002  0.1599676E+01  0.7818608E-02  0.3353715E+00
         11   -1    0    0    0    0  0.00000000000E+00  0.00000000000E+00  0.39999999674E+01  0.40000000000E+01  0.51100000000E-03 0.  1.
    9000002   -1    0    0    0    0 -0.00000000000E+00 -0.00000000000E+00  0.00000000000E+00  0.93800000000E+00  0.93800000000E+00 0. -1.
         11    1    1    2    0    0 -0.33509716732E+00  0.37623817444E-01  0.23519302380E+01  0.23759801701E+01  0.51100000000E-03 0.  1.
    9000002    1    1    2    0    0  0.53932242315E+00 -0.61669599761E-01  0.20325672590E+00  0.11026464131E+01  0.93800000000E+00 0. -1.
         22    1    1    2    0    0 -0.20422525583E+00  0.24045782317E-01  0.14448130034E+01  0.14593734168E+01  0.00000000000E+00 0.  1.
</event>
<event>
 5    1  0.1560836E+002  0.1598657E+01  0.7818608E-02  0.3354822E+00
         11   -1    0    0    0    0  0.00000000000E+00  0.00000000000E+00  0.39999999674E+01  0.40000000000E+01  0.51100000000E-03 0. -1.
    9000002   -1    0    0    0    0 -0.00000000000E+00 -0.00000000000E+00  0.00000000000E+00  0.93800000000E+00  0.93800000000E+00 0.  1.
         11    1    1    2    0    0 -0.49144664058E-01 -0.26373443948E-01  0.78461278358E+00  0.78659280306E+00  0.51100000000E-03 0. -1.
    9000002    1    1    2    0    0  0.37257883580E+00  0.21152054045E+00  0.12515047637E+00  0.10387793652E+01  0.93800000000E+00 0.  1.
         22    1    1    2    0    0 -0.32343417175E+00 -0.18514709650E+00  0.30902367074E+01  0.31126278317E+01  0.00000000000E+00 0. -1.
</event>
<event>
 5    1  0.1560836E+002  0.1599677E+01  0.7818608E-02  0.3353714E+00
         11   -1    0    0    0    0  0.00000000000E+00  0.00000000000E+00  0.39999999674E+01  0.40000000000E+01  0.51100000000E-03 0. -1.
    9000002   -1    0    0    0    0 -0.00000000000E+00 -0.00000000000E+00  0.00000000000E+00  0.93800000000E+00  0.93800000000E+00 0.  1.
         11    1    1    2    0    0  0.16111942155E+00 -0.41338964685E+00  0.17246822094E+01  0.17808367282E+01  0.51100000000E-03 0. -1.
    9000002    1    1    2    0    0 -0.31920107407E+00  0.81786326923E+00  0.58452117514E+00  0.14114881002E+01  0.93800000000E+00 0.  1.
         22    1    1    2    0    0  0.15808165252E+00 -0.40447362239E+00  0.16907965829E+01  0.17456751716E+01  0.00000000000E+00 0.  1.
</event>
<event>
 5    1  0.1560836E+002  0.1599554E+01  0.7818608E-02  0.3353847E+00
         11   -1    0    0    0    0  0.00000000000E+00  0.00000000000E+00  0.39999999674E+01  0.40000000000E+01  0.51100000000E-03 0. -1.
    9000002   -1    0    0    0    0 -0.00000000000E+00 -0.00000000000E+00  0.00000000000E+00  0.93800000000E+00  0.93800000000E+00 0.  1.
         11    1    1    2    0    0 -0.63230461640E+00 -0.14560577788E+00  0.25397648404E+01  0.26213385657E+01  0.51100000000E-03 0. -1.
    9000002    1    1    2    0    0  0.85505556535E+00  0.21026719234E+00  0.58877322263E+00  0.14148604948E+01  0.93800000000E+00 0.  1.
         22    1    1    2    0    0 -0.22275094895E+00 -0.64661414461E-01  0.87146190433E+00  0.90180093950E+00  0.00000000000E+00 0. -1.
</event>
<event>
 5    1  0.1560836E+002  0.1599615E+01  0.7818608E-02  0.3353781E+00
         11   -1    0    0    0    0  0.00000000000E+00  0.00000000000E+00  0.39999999674E+01  0.40000000000E+01  0.51100000000E-03 0. -1.
    9000002   -1    0    0    0    0 -0.00000000000E+00 -0.00000000000E+00  0.00000000000E+00  0.93800000000E+00  0.93800000000E+00 0. -1.
         11    1    1    2    0    0  0.29968616268E-01  0.14149335653E+00  0.16502412726E+01  0.16565672359E+01  0.51100000000E-03 0. -1.
    9000002    1    1    2    0    0 -0.49691986785E-01 -0.34173445678E+00  0.79968395631E-01  0.10027415803E+01  0.93800000000E+00 0. -1.
         22    1    1    2    0    0  0.19723370516E-01  0.20024110025E+00  0.22697902991E+01  0.22786911839E+01  0.00000000000E+00 0. -1.
</event>
<event>
 5    1  0.1560836E+002  0.1544161E+01  0.7818608E-02  0.3416292E+00
         11   -1    0    0    0    0  0.00000000000E+00  0.00000000000E+00  0.39999999674E+01  0.40000000000E+01  0.51100000000E-03 0.  1.
    9000002   -1    0    0    0    0 -0.00000000000E+00 -0.00000000000E+00  0.00000000000E+00  0.93800000000E+00  0.93800000000E+00 0.  1.
         11    1    1    2    0    0  0.18333033157E+00  0.19480938474E+00  0.33399560917E+01  0.33506518265E+01  0.51100000000E-03 0.  1.
    9000002    1    1    2    0    0  0.23303267860E-01 -0.23880944941E+00  0.81722169575E-01  0.97164577312E+00  0.93800000000E+00 0.  1.
         22    1    1    2    0    0 -0.20663359943E+00  0.44000064672E-01  0.57832170612E+00  0.61570240041E+00  0.00000000000E+00 0.  1.
</event>
<event>
 5    1  0.1560836E+002  0.1599677E+01  0.7818608E-02  0.3353714E+00
         11   -1    0    0    0    0  0.00000000000E+00  0.00000000000E+00  0.39999999674E+01  0.40000000000E+01  0.51100000000E-03 0. -1.
    9000002   -1    0    0    0    0 -0.00000000000E+00 -0.00000000000E+00  0.00000000000E+00  0.93800000000E+00  0.93800000000E+00 0.  1.
         11    1    1    2    0    0  0.27402270752E+00 -0.76249464873E-01  0.18808002815E+01  0.19021862120E+01  0.51100000000E-03 0. -1.
    9000002    1    1    2    0    0 -0.54928179538E+00  0.15393388369E+00  0.22565432043E+00  0.11207899016E+01  0.93800000000E+00 0.  1.
         22    1    1    2    0    0  0.27525908786E+00 -0.77684418819E-01  0.18935453654E+01  0.19150238863E+01  0.00000000000E+00 0. -1.
</event>
<event>
 5    1  0.1560836E+002  0.1599582E+01  0.7818608E-02  0.3353817E+00
         11   -1    0    0    0    0  0.00000000000E+00  0.00000000000E+00  0.39999999674E+01  0.40000000000E+01  0.51100000000E-03 0. -1.
    9000002   -1    0    0    0    0 -0.00000000000E+00 -0.00000000000E+00  0.00000000000E+00  0.93800000000E+00  0.93800000000E+00 0.  1.
         11    1    1    2    0    0  0.83529038527E-02  0.13725673950E-01  0.19227534177E+00  0.19294619276E+00  0.51100000000E-03 0. -1.
    9000002    1    1    2    0    0 -0.16531455457E+00 -0.17946542154E+00  0.39603994800E-01  0.97002536868E+00  0.93800000000E+00 0.  1.
         22    1    1    2    0    0  0.15696165071E+00  0.16573974759E+00  0.37681206308E+01  0.37750284386E+01  0.00000000000E+00 0. -1.
</event>
<event>
 5    1  0.1560836E+002  0.1598453E+01  0.7818608E-02  0.3355044E+00
         11   -1    0    0    0    0  0.00000000000E+00  0.00000000000E+00  0.39999999674E+01  0.40000000000E+01  0.51100000000E-03 0. -1.
    9000002   -1    0    0    0    0 -0.00000000000E+00 -0.00000000000E+00  0.00000000000E+00  0.93800000000E+00  0.93800000000E+00 0.  1.
         11    1    1    2    0    0 -0.52867993812E-01 -0.13364165369E+00  0.18833684344E+01  0.18888441008E+01  0.51100000000E-03 0. -1.
    9000002    1    1    2    0    0  0.67307001178E-01  0.35415488149E+00  0.88231907845E-01  0.10087540741E+01  0.93800000000E+00 0.  1.
         22    1    1    2    0    0 -0.14439007366E-01 -0.22051322780E+00  0.20283996251E+01  0.20404018250E+01  0.00000000000E+00 0. -1.
</event>
<event>
 5    1  0.1560836E+002  0.1599655E+01  0.7818608E-02  0.3353738E+00
         11   -1    0    0    0    0  0.00000000000E+00  0.00000000000E+00  0.39999999674E+01  0.40000000000E+01  0.51100000000E-03 0. -1.
    9000002   -1    0    0    0    0 -0.00000000000E+00 -0.00000000000E+00  0.00000000000E+00  0.93800000000E+00  0.93800000000E+00 0.  1.
         11    1    1    2    0    0 -0.55133830716E-06 -0.14727649226E+00  0.15248327763E+01  0.15319287261E+01  0.51100000000E-03 0. -1.
    9000002    1    1    2    0    0 -0.13954204844E-01  0.37986948186E+00  0.97242353022E-01  0.10167574039E+01  0.93800000000E+00 0.  1.
         22    1    1    2    0    0  0.13954756182E-01 -0.23259298960E+00  0.23779248381E+01  0.23893138700E+01  0.00000000000E+00 0. -1.
</event>
<event>
 5    1  0.1560836E+002  0.1599669E+01  0.7818608E-02  0.3353722E+00
         11   -1    0    0    0    0  0.00000000000E+00  0.00000000000E+00  0.39999999674E+01  0.40000000000E+01  0.51100000000E-03 0.  1.
    9000002   -1    0    0    0    0 -0.00000000000E+00 -0.00000000000E+00  0.00000000000E+00  0.93800000000E+00  0.93800000000E+00 0.  1.
         11    1    1    2    0    0 -0.33427568623E-01  0.26067956936E-01  0.48032619424E+00  0.48219337897E+00  0.51100000000E-03 0.  1.
    9000002    1    1    2    0    0  0.26041935132E+00 -0.22517560346E+00  0.79426838884E-01  0.10023347314E+01  0.93800000000E+00 0.  1.
         22    1    1    2    0    0 -0.22699178270E+00  0.19910764653E+00  0.34402469342E+01  0.34534718897E+01  0.00000000000E+00 0.  1.
</event>
<event>
 5    1  0.1560836E+002  0.1599652E+01  0.7818608E-02  0.3353742E+00
         11   -1    0    0    0    0  0.00000000000E+00  0.00000000000E+00  0.39999999674E+01  0.40000000000E+01  0.51100000000E-03 0. -1.
    9000002   -1    0    0    0    0 -0.00000000000E+00 -0.00000000000E+00  0.00000000000E+00  0.93800000000E+00  0.93800000000E+00 0. -1.
         11    1    1    2    0    0 -0.16505777655E+00  0.85450732952E-02  0.15595583474E+01  0.15682919332E+01  0.51100000000E-03 0. -1.
    9000002    1    1    2    0    0  0.41928226987E+00 -0.33340187097E-01  0.11967576172E+00  0.10349277646E+01  0.93800000000E+00 0. -1.
         22    1    1    2    0    0 -0.25422449333E+00  0.24795113802E-01  0.23207658583E+01  0.23347803022E+01  0.00000000000E+00 0.  1.
</event>
<event>
 5    1  0.1560836E+002  0.1594560E+01  0.7818608E-02  0.3359289E+00
         11   -1    0    0    0    0  0.00000000000E+00  0.00000000000E+00  0.39999999674E+01  0.40000000000E+01  0.51100000000E-03 0. -1.
    9000002   -1    0    0    0    0 -0.00000000000E+00 -0.00000000000E+00  0.00000000000E+00  0.93800000000E+00  0.93800000000E+00 0.  1.
         11    1    1    2    0    0 -0.82376502092E-01  0.39545819108E-01  0.59860767298E+00  0.60554204410E+00  0.51100000000E-03 0. -1.
    9000002    1    1    2    0    0  0.30448979451E+00  0.71846117676E-01  0.69417539036E-01  0.99123089859E+00  0.93800000000E+00 0.  1.
         22    1    1    2    0    0 -0.22211329242E+00 -0.11139193678E+00  0.33319747553E+01  0.33412270573E+01  0.00000000000E+00 0. -1.
</event>
<event>
 5    1  0.1560836E+002  0.1597542E+01  0.7818608E-02  0.3356035E+00
         11   -1    0    0    0    0  0.00000000000E+00  0.00000000000E+00  0.39999999674E+01  0.40000000000E+01  0.51100000000E-03 0. -1.
    9000002   -1    0    0    0    0 -0.00000000000E+00 -0.00000000000E+00  0.00000000000E+00  0.93800000000E+00  0.93800000000E+00 0. -1.
         11    1    1    2    0    0  0.52205220434E-02  0.77744580578E-01  0.57646773936E+00  0.58171022795E+00  0.51100000000E-03 0. -1.
    9000002    1    1    2    0    0 -0.77252002798E-01 -0.26559316937E+00  0.52585844540E-01  0.97934512538E+00  0.93800000000E+00 0. -1.
         22    1    1    2    0    0  0.72031480754E-01  0.18784858879E+00  0.33709463835E+01  0.33769446467E+01  0.00000000000E+00 0. -1.
</event>
<event>
 5    1  0.1560836E+002  0.1599659E+01  0.7818608E-02  0.3353734E+00
         11   -1    0    0    0    0  0.00000000000E+00  0.00000000000E+00  0.39999999674E+01  0.40000000000E+01  0.51100000000E-03 0. -1.
    9000002   -1    0    0    0    0 -0.00000000000E+00 -0.00000000000E+00  0.00000000000E+00  0.93800000000E+00  0.93800000000E+00 0. -1.
         11    1    1    2    0    0 -0.11154205123E-01  0.13617900134E-01  0.35248004480E+00  0.35291968860E+00  0.51100000000E-03 0. -1.
    9000002    1    1    2    0    0  0.13983457723E+00 -0.18224924012E+00  0.35015174709E-01  0.96635322578E+00  0.93800000000E+00 0. -1.
         22    1    1    2    0    0 -0.12868037211E+00  0.16863133998E+00  0.36125047479E+01  0.36187270856E+01  0.00000000000E+00 0. -1.
</event>
<event>
 5    1  0.1560836E+002  0.1599166E+01  0.7818608E-02  0.3354269E+00
         11   -1    0    0    0    0  0.00000000000E+00  0.00000000000E+00  0.39999999674E+01  0.40000000000E+01  0.51100000000E-03 0. -1.
    9000002   -1    0    0    0    0 -0.00000000000E+00 -0.00000000000E+00  0.00000000000E+00  0.93800000000E+00  0.93800000000E+00 0. -1.
         11    1    1    2    0    0  0.42633651157E-02  0.50631047125E-02  0.34547120564E-01  0.35179197997E-01  0.51100000000E-03 0. -1.
    9000002    1    1    2    0    0 -0.41047779883E-01 -0.21164597168E+00  0.31185546949E-01  0.96296182474E+00  0.93800000000E+00 0. -1.
         22    1    1    2    0    0  0.36784414767E-01  0.20658286697E+00  0.39342672998E+01  0.39398589773E+01  0.00000000000E+00 0. -1.
</event>
<event>
 5    1  0.1560836E+002  0.1599669E+01  0.7818608E-02  0.3353723E+00
         11   -1    0    0    0    0  0.00000000000E+00  0.00000000000E+00  0.39999999674E+01  0.40000000000E+01  0.51100000000E-03 0. -1.
    9000002   -1    0    0    0    0 -0.00000000000E+00 -0.00000000000E+00  0.00000000000E+00  0.93800000000E+00  0.93800000000E+00 0. -1.
         11    1    1    2    0    0  0.13748685660E-01 -0.11027743262E-01  0.30146741235E+00  0.30198261425E+00  0.51100000000E-03 0. -1.
    9000002    1    1    2    0    0 -0.16170750490E+00  0.15909256200E+00  0.34133023082E-01  0.96564425318E+00  0.93800000000E+00 0. -1.
         22    1    1    2    0    0  0.14795881924E+00 -0.14806481874E+00  0.36643995319E+01  0.36703731326E+01  0.00000000000E+00 0. -1.
</event>
<event>
 5    1  0.1560836E+002  0.1599676E+01  0.7818608E-02  0.3353715E+00
         11   -1    0    0    0    0  0.00000000000E+00  0.00000000000E+00  0.39999999674E+01  0.40000000000E+01  0.51100000000E-03 0. -1.
    9000002   -1    0    0    0    0 -0.00000000000E+00 -0.00000000000E+00  0.00000000000E+00  0.93800000000E+00  0.93800000000E+00 0.  1.
         11    1    1    2    0    0 -0.69153558719E-01 -0.84206945965E-02  0.99938483978E+00  0.10018100827E+01  0.51100000000E-03 0. -1.
    9000002    1    1    2    0    0  0.27201732918E+00  0.36445201237E-01  0.50134666703E-01  0.97861083423E+00  0.93800000000E+00 0.  1.
         22    1    1    2    0    0 -0.20286377046E+00 -0.28024506640E-01  0.29504804609E+01  0.29575790830E+01  0.00000000000E+00 0. -1.
</event>
<event>
 5    1  0.1560836E+002  0.1599669E+01  0.7818608E-02  0.3353722E+00
         11   -1    0    0    0    0  0.00000000000E+00  0.00000000000E+00  0.39999999674E+01  0.40000000000E+01  0.51100000000E-03 0. -1.
    9000002   -1    0    0    0    0 -0.00000000000E+00 -0.00000000000E+00  0.00000000000E+00  0.93800000000E+00  0.93800000000E+00 0.  1.
         11    1    1    2    0    0 -0.12244681339E+00 -0.18296721179E+00  0.17576020428E+01  0.17713371855E+01  0.51100000000E-03 0. -1.
    9000002    1    1    2    0    0  0.27235633276E+00  0.40482093312E+00  0.16264550722E+00  0.10697455403E+01  0.93800000000E+00 0.  1.
         22    1    1    2    0    0 -0.14990951938E+00 -0.22185372133E+00  0.20797524173E+01  0.20969172742E+01  0.00000000000E+00 0. -1.
</event>
<event>
 5    1  0.1560836E+002  0.1522095E+01  0.7818608E-02  0.3442516E+00
         11   -1    0    0    0    0  0.00000000000E+00  0.00000000000E+00  0.39999999674E+01  0.40000000000E+01  0.51100000000E-03 0. -1.
    9000002   -1    0    0    0    0 -0.00000000000E+00 -0.00000000000E+00  0.00000000000E+00  0.93800000000E+00  0.93800000000E+00 0. -1.
         11    1    1    2    0    0 -0.28006419956E+00  0.32274160151E-01  0.16436633603E+01  0.16676651583E+01  0.51100000000E-03 0. -1.
    9000002    1    1    2    0    0 -0.10855754542E+00  0.61982243140E-01  0.69547933556E-01  0.94884532680E+00  0.93800000000E+00 0. -1.
         22    1    1    2    0    0  0.38862174499E+00 -0.94256403291E-01  0.22867886735E+01  0.23214895149E+01  0.00000000000E+00 0. -1.
</event>
<event>
 5    1  0.1560836E+002  0.1478656E+01  0.7818608E-02  0.3496602E+00
         11   -1    0    0    0    0  0.00000000000E+00  0.00000000000E+00  0.39999999674E+01  0.40000000000E+01  0.51100000000E-03 0. -1.
    9000002   -1    0    0    0    0 -0.00000000000E+00 -0.00000000000E+00  0.00000000000E+00  0.93800000000E+00  0.93800000000E+00 0.  1.
         11    1    1    2    0    0  0.17186404588E+00  0.48457421962E+00  0.17898864238E+01  0.18622682663E+01  0.51100000000E-03 0. -1.
    9000002    1    1    2    0    0 -0.84644373914E-01 -0.19015540293E+00  0.12591169372E+00  0.96903121823E+00  0.93800000000E+00 0.  1.
         22    1    1    2    0    0 -0.87219671962E-01 -0.29441881669E+00  0.20842018499E+01  0.21067005155E+01  0.00000000000E+00 0. -1.
</event>
<event>
 5    1  0.1560836E+002  0.1599664E+01  0.7818608E-02  0.3353728E+00
         11   -1    0    0    0    0  0.00000000000E+00  0.00000000000E+00  0.39999999674E+01  0.40000000000E+01  0.51100000000E-03 0.  1.
    9000002   -1    0    0    0    0 -0.00000000000E+00 -0.00000000000E+00  0.00000000000E+00  0.93800000000E+00  0.93800000000E+00 0. -1.
         11    1    1    2    0    0 -0.28371187403E+00  0.28012054472E-01  0.17930884642E+01  0.18156110829E+01  0.51100000000E-03 0.  1.
    9000002    1    1    2    0    0  0.58581055082E+00 -0.60510242915E-01  0.24143446619E+00  0.11335652131E+01  0.93800000000E+00 0. -1.
         22    1    1    2    0    0 -0.30209867679E+00  0.32498188443E-01  0.19654770370E+01  0.19888237040E+01  0.00000000000E+00 0.  1.
</event>
<event>
 5    1  0.1560836E+002  0.1581076E+01  0.7818608E-02  0.3374162E+00
         11   -1    0    0    0    0  0.00000000000E+00  0.00000000000E+00  0.39999999674E+01  0.40000000000E+01  0.51100000000E-03 0.  1.
    9000002   -1    0    0    0    0 -0.00000000000E+00 -0.00000000000E+00  0.00000000000E+00  0.93800000000E+00  0.93800000000E+00 0. -1.
         11    1    1    2    0    0 -0.14121724304E+00  0.11114497037E+00  0.73540342052E+00  0.75704290909E+00  0.51100000000E-03 0.  1.
    9000002    1    1    2    0    0  0.52542132727E+00  0.67665953353E-01  0.21054280906E+00  0.10976422581E+01  0.93800000000E+00 0. -1.
         22    1    1    2    0    0 -0.38420408423E+00 -0.17881092372E+00  0.30540537378E+01  0.30833148328E+01  0.00000000000E+00 0.  1.
</event>
<event>
 5    1  0.1560836E+002  0.1567172E+01  0.7818608E-02  0.3389784E+00
         11   -1    0    0    0    0  0.00000000000E+00  0.00000000000E+00  0.39999999674E+01  0.40000000000E+01  0.51100000000E-03 0. -1.
    9000002   -1    0    0    0    0 -0.00000000000E+00 -0.00000000000E+00  0.00000000000E+00  0.93800000000E+00  0.93800000000E+00 0. -1.
         11    1    1    2    0    0 -0.30884929393E+00  0.74253073892E-01  0.11202645694E+01  0.11644287750E+01  0.51100000000E-03 0. -1.
    9000002    1    1    2    0    0  0.47605030645E+00  0.11015156517E+00  0.19272469506E+00  0.10750553798E+01  0.93800000000E+00 0. -1.
         22    1    1    2    0    0 -0.16720101252E+00 -0.18440463906E+00  0.26870107029E+01  0.26985158452E+01  0.00000000000E+00 0. -1.
</event>
<event>
 5    1  0.1560836E+002  0.1575049E+01  0.7818608E-02  0.3380898E+00
         11   -1    0    0    0    0  0.00000000000E+00  0.00000000000E+00  0.39999999674E+01  0.40000000000E+01  0.51100000000E-03 0.  1.
    9000002   -1    0    0    0    0 -0.00000000000E+00 -0.00000000000E+00  0.00000000000E+00  0.93800000000E+00  0.93800000000E+00 0. -1.
         11    1    1    2    0    0  0.31528537931E-01 -0.79552577231E-01  0.26832524535E+01  0.26846166676E+01  0.51100000000E-03 0.  1.
    9000002    1    1    2    0    0  0.13339901174E-01 -0.13743657480E+00  0.30929853713E-01  0.94861342016E+00  0.93800000000E+00 0. -1.
         22    1    1    2    0    0 -0.44868439105E-01  0.21698915203E+00  0.12858176601E+01  0.13047699123E+01  0.00000000000E+00 0.  1.
</event>
<event>
 5    1  0.1560836E+002  0.1599465E+01  0.7818608E-02  0.3353944E+00
         11   -1    0    0    0    0  0.00000000000E+00  0.00000000000E+00  0.39999999674E+01  0.40000000000E+01  0.51100000000E-03 0.  1.
    9000002   -1    0    0    0    0 -0.00000000000E+00 -0.00000000000E+00  0.00000000000E+00  0.93800000000E+00  0.93800000000E+00 0.  1.
         11    1    1    2    0    0  0.94393381833E+00  0.18909683624E+00  0.10182780463E+01  0.14013062148E+01  0.51100000000E-03 0.  1.
    9000002    1    1    2    0    0 -0.12419701611E+01 -0.23997242324E+00  0.26870179753E+01  0.31144800921E+01  0.93800000000E+00 0.  1.
         22    1    1    2    0    0  0.29803634276E+00  0.50875586997E-01  0.29470394581E+00  0.42221369309E+00  0.00000000000E+00 0.  1.
</event>
<event>
 5    1  0.1560836E+002  0.1599305E+01  0.7818608E-02  0.3354119E+00
         11   -1    0    0    0    0  0.00000000000E+00  0.00000000000E+00  0.39999999674E+01  0.40000000000E+01  0.51100000000E-03 0. -1.
    9000002   -1    0    0    0    0 -0.00000000000E+00 -0.00000000000E+00  0.00000000000E+00  0.93800000000E+00  0.93800000000E+00 0.  1.
         11    1    1    2    0    0  0.16479838910E+00  0.11443312368E+00  0.17066465956E+01  0.17183993460E+01  0.51100000000E-03 0. -1.
    9000002    1    1    2    0    0 -0.34370979108E+00 -0.21849796578E+00  0.11230511489E+00  0.10287537219E+01  0.93800000000E+00 0.  1.
         22    1    1    2    0    0  0.17891140198E+00  0.10406484210E+00  0.21810482568E+01  0.21908469321E+01  0.00000000000E+00 0.  1.
</event>
<event>
 5    1  0.1560836E+002  0.1437739E+01  0.7818608E-02  0.3550793E+00
         11   -1    0    0    0    0  0.00000000000E+00  0.00000000000E+00  0.39999999674E+01  0.40000000000E+01  0.51100000000E-03 0.  1.
    9000002   -1    0    0    0    0 -0.00000000000E+00 -0.00000000000E+00  0.00000000000E+00  0.93800000000E+00  0.93800000000E+00 0. -1.
         11    1    1    2    0    0 -0.29653872598E+00 -0.53716425990E+00  0.16167336108E+01  0.17292508458E+01  0.51100000000E-03 0.  1.
    9000002    1    1    2    0    0  0.10582418966E+00  0.29529187623E+00  0.20661312154E+00  0.10104103292E+01  0.93800000000E+00 0. -1.
         22    1    1    2    0    0  0.19071453632E+00  0.24187238367E+00  0.21766532350E+01  0.21983388251E+01  0.00000000000E+00 0.  1.
</event>
<event>
 5    1  0.1560836E+002  0.1598140E+01  0.7818608E-02  0.3355385E+00
         11   -1    0    0    0    0  0.00000000000E+00  0.00000000000E+00  0.39999999674E+01  0.40000000000E+01  0.51100000000E-03 0.  1.
    9000002   -1    0    0    0    0 -0.00000000000E+00 -0.00000000000E+00  0.00000000000E+00  0.93800000000E+00  0.93800000000E+00 0.  1.
         11    1    1    2    0    0  0.52455433492E+00 -0.75069375243E+00  0.19067274214E+01  0.21152560320E+01  0.51100000000E-03 0.  1.
    9000002    1    1    2    0    0 -0.65727758018E+00  0.10091781761E+01  0.14010644042E+01  0.20720231353E+01  0.93800000000E+00 0.  1.
         22    1    1    2    0    0  0.13272324526E+00 -0.25848442369E+00  0.69220814176E+00  0.75072083270E+00  0.00000000000E+00 0. -1.
</event>
<event>
 5    1  0.1560836E+002  0.1599676E+01  0.7818608E-02  0.3353715E+00
         11   -1    0    0    0    0  0.00000000000E+00  0.00000000000E+00  0.39999999674E+01  0.40000000000E+01  0.51100000000E-03 0.  1.
    9000002   -1    0    0    0    0 -0.00000000000E+00 -0.00000000000E+00  0.00000000000E+00  0.93800000000E+00  0.93800000000E+00 0.  1.
         11    1    1    2    0    0 -0.60133143035E-01  0.28546382601E+00  0.18806882536E+01  0.19031800123E+01  0.51100000000E-03 0.  1.
    9000002    1    1    2    0    0  0.12197079742E+00 -0.57214169358E+00  0.23801813782E+00  0.11308048580E+01  0.93800000000E+00 0.  1.
         22    1    1    2    0    0 -0.61837654381E-01  0.28667786757E+00  0.18812935760E+01  0.19040151297E+01  0.00000000000E+00 0.  1.
</event>
<event>
 5    1  0.1560836E+002  0.1599675E+01  0.7818608E-02  0.3353716E+00
         11   -1    0    0    0    0  0.00000000000E+00  0.00000000000E+00  0.39999999674E+01  0.40000000000E+01  0.51100000000E-03 0. -1.
    9000002   -1    0    0    0    0 -0.00000000000E+00 -0.00000000000E+00  0.00000000000E+00  0.93800000000E+00  0.93800000000E+00 0.  1.
         11    1    1    2    0    0 -0.21450201460E+00 -0.47181363740E-01  0.19909351574E+01  0.20030127951E+01  0.51100000000E-03 0. -1.
    9000002    1    1    2    0    0  0.42045524952E+00  0.91736391633E-01  0.12543046981E+00  0.10396032826E+01  0.93800000000E+00 0.  1.
         22    1    1    2    0    0 -0.20595323492E+00 -0.44555027893E-01  0.18836343402E+01  0.18953839223E+01  0.00000000000E+00 0. -1.
</event>
<event>
 5    1  0.1560836E+002  0.1563843E+01  0.7818608E-02  0.3393566E+00
         11   -1    0    0    0    0  0.00000000000E+00  0.00000000000E+00  0.39999999674E+01  0.40000000000E+01  0.51100000000E-03 0. -1.
    9000002   -1    0    0    0    0 -0.00000000000E+00 -0.00000000000E+00  0.00000000000E+00  0.93800000000E+00  0.93800000000E+00 0. -1.
         11    1    1    2    0    0 -0.85172908944E-01 -0.19459805477E+00  0.30352035978E+01  0.30426278065E+01  0.51100000000E-03 0. -1.
    9000002    1    1    2    0    0  0.22849764657E+00  0.32710690201E-01  0.63020335932E-01  0.96803756460E+00  0.93800000000E+00 0. -1.
         22    1    1    2    0    0 -0.14332473763E+00  0.16188736457E+00  0.90177603361E+00  0.92733462893E+00  0.00000000000E+00 0. -1.
</event>
<event>
 5    1  0.1560836E+002  0.1599677E+01  0.7818608E-02  0.3353714E+00
         11   -1    0    0    0    0  0.00000000000E+00  0.00000000000E+00  0.39999999674E+01  0.40000000000E+01  0.51100000000E-03 0. -1.
    9000002   -1    0    0    0    0 -0.00000000000E+00 -0.00000000000E+00  0.00000000000E+00  0.93800000000E+00  0.93800000000E+00 0.  1.
         11    1    1    2    0    0 -0.38309130401E-02  0.38337340090E-01  0.55219529135E+00  0.55353800994E+00  0.51100000000E-03 0. -1.
    9000002    1    1    2    0    0  0.24941578429E-01 -0.27421766971E+00  0.50468195570E-01  0.97888122440E+00  0.93800000000E+00 0.  1.
         22    1    1    2    0    0 -0.21110665389E-01  0.23588032962E+00  0.33973364804E+01  0.34055807657E+01  0.00000000000E+00 0. -1.
</event>
<event>
 5    1  0.1560836E+002  0.1598781E+01  0.7818608E-02  0.3354687E+00
         11   -1    0    0    0    0  0.00000000000E+00  0.00000000000E+00  0.39999999674E+01  0.40000000000E+01  0.51100000000E-03 0.  1.
    9000002   -1    0    0    0    0 -0.00000000000E+00 -0.00000000000E+00  0.00000000000E+00  0.93800000000E+00  0.93800000000E+00 0. -1.
         11    1    1    2    0    0  0.12344194338E+00 -0.26940080824E+00  0.12582741864E+01  0.12926983013E+01  0.51100000000E-03 0.  1.
    9000002    1    1    2    0    0 -0.31045098629E+00  0.67877131726E+00  0.40450078668E+00  0.12651384124E+01  0.93800000000E+00 0. -1.
         22    1    1    2    0    0  0.18700904291E+00 -0.40937050903E+00  0.23372249943E+01  0.23801632863E+01  0.00000000000E+00 0.  1.
</event>
<event>
 5    1  0.1560836E+002  0.1599371E+01  0.7818608E-02  0.3354046E+00
         11   -1    0    0    0    0  0.00000000000E+00  0.00000000000E+00  0.39999999674E+01  0.40000000000E+01  0.51100000000E-03 0. -1.
    9000002   -1    0    0    0    0 -0.00000000000E+00 -0.00000000000E+00  0.00000000000E+00  0.93800000000E+00  0.93800000000E+00 0. -1.
         11    1    1    2    0    0  0.18988774577E-02 -0.32367136609E-01  0.46991709107E+00  0.47103457503E+00  0.51100000000E-03 0. -1.
    9000002    1    1    2    0    0 -0.11828684234E-01  0.38267466980E+00  0.98910386712E-01  0.10179425746E+01  0.93800000000E+00 0. -1.
         22    1    1    2    0    0  0.99298067758E-02 -0.35030753319E+00  0.34311724896E+01  0.34490228503E+01  0.00000000000E+00 0. -1.
</event>
<event>
 5    1  0.1560836E+002  0.1599294E+01  0.7818608E-02  0.3354130E+00
         11   -1    0    0    0    0  0.00000000000E+00  0.00000000000E+00  0.39999999674E+01  0.40000000000E+01  0.51100000000E-03 0.  1.
    9000002   -1    0    0    0    0 -0.00000000000E+00 -0.00000000000E+00  0.00000000000E+00  0.93800000000E+00  0.93800000000E+00 0.  1.
         11    1    1    2    0    0  0.92762107566E-03  0.30490490308E-01  0.77640593196E+00  0.77700512404E+00  0.51100000000E-03 0.  1.
    9000002    1    1    2    0    0  0.42082099720E-01 -0.23874330745E+00  0.39309314968E-01  0.96961770416E+00  0.93800000000E+00 0.  1.
         22    1    1    2    0    0 -0.43009720796E-01  0.20825281715E+00  0.31842847204E+01  0.31913771718E+01  0.00000000000E+00 0.  1.
</event>
<event>
 5    1  0.1560836E+002  0.1596389E+01  0.7818608E-02  0.3357292E+00
         11   -1    0    0    0    0  0.00000000000E+00  0.00000000000E+00  0.39999999674E+01  0.40000000000E+01  0.51100000000E-03 0.  1.
    9000002   -1    0    0    0    0 -0.00000000000E+00 -0.00000000000E+00  0.00000000000E+00  0.93800000000E+00  0.93800000000E+00 0.  1.
         11    1    1    2    0    0 -0.28003809830E-01  0.69522196902E-02  0.13085085806E+00  0.13399535402E+00  0.51100000000E-03 0.  1.
    9000002    1    1    2    0    0  0.96780019184E-01 -0.20002670581E+00  0.35223453624E-01  0.96460445097E+00  0.93800000000E+00 0.  1.
         22    1    1    2    0    0 -0.68776209355E-01  0.19307448611E+00  0.38339256557E+01  0.38394001950E+01  0.00000000000E+00 0.  1.
</event>
<event>
 5    1  0.1560836E+002  0.1599650E+01  0.7818608E-02  0.3353743E+00
         11   -1    0    0    0    0  0.00000000000E+00  0.00000000000E+00  0.39999999674E+01  0.40000000000E+01  0.51100000000E-03 0.  1.
    9000002   -1    0    0    0    0 -0.00000000000E+00 -0.00000000000E+00  0.00000000000E+00  0.93800000000E+00  0.93800000000E+00 0.  1.
         11    1    1    2    0    0 -0.33419422266E-03 -0.10554198233E-03  0.74611854779E-02  0.74868708166E-02  0.51100000000E-03 0. -1.
    9000002    1    1    2    0    0  0.22483604546E+00  0.13517876052E+00  0.45784246619E-01  0.97507165987E+00  0.93800000000E+00 0.  1.
         22    1    1    2    0    0 -0.22450185124E+00 -0.13507321853E+00  0.39467545353E+01  0.39554414693E+01  0.00000000000E+00 0.  1.
</event>
<event>
 5    1  0.1560836E+002  0.1596037E+01  0.7818608E-02  0.3357676E+00
         11   -1    0    0    0    0  0.00000000000E+00  0.00000000000E+00  0.39999999674E+01  0.40000000000E+01  0.51100000000E-03 0.  1.
    9000002   -1    0    0    0    0 -0.00000000000E+00 -0.00000000000E+00  0.00000000000E+00  0.93800000000E+00  0.93800000000E+00 0. -1.
         11    1    1    2    0    0  0.12441900831E+00 -0.12066208287E+00  0.22709823534E+01  0.22775865601E+01  0.51100000000E-03 0.  1.
    9000002    1    1    2    0    0 -0.33027163442E+00  0.24277324226E+00  0.11653407557E+00  0.10302632627E+01  0.93800000000E+00 0. -1.
         22    1    1    2    0    0  0.20585262610E+00 -0.12211115939E+00  0.16124835384E+01  0.16301501773E+01  0.00000000000E+00 0.  1.
</event>
<event>
 5    1  0.1560836E+002  0.1599676E+01  0.7818608E-02  0.3353715E+00
         11   -1    0    0    0    0  0.00000000000E+00  0.00000000000E+00  0.39999999674E+01  0.40000000000E+01  0.51100000000E-03 0. -1.
    9000002   -1    0    0    0    0 -0.00000000000E+00 -0.00000000000E+00  0.00000000000E+00  0.93800000000E+00  0.93800000000E+00 0.  1.
         11    1    1    2    0    0 -0.41792728876E-01  0.21204445697E+00  0.12883099488E+01  0.13063124699E+01  0.51100000000E-03 0. -1.
    9000002    1    1    2    0    0  0.12067253522E+00 -0.61636773985E+00  0.27693456469E+00  0.11623286130E+01  0.93800000000E+00 0.  1.
         22    1    1    2    0    0 -0.78879806341E-01  0.40432328288E+00  0.24347554539E+01  0.24693589171E+01  0.00000000000E+00 0.  1.
</event>
<event>
 5    1  0.1560836E+002  0.1577906E+01  0.7818608E-02  0.3377698E+00
         11   -1    0    0    0    0  0.00000000000E+00  0.00000000000E+00  0.39999999674E+01  0.40000000000E+01  0.51100000000E-03 0.  1.
    9000002   -1    0    0    0    0 -0.00000000000E+00 -0.00000000000E+00  0.00000000000E+00  0.93800000000E+00  0.93800000000E+00 0.  1.
         11    1    1    2    0    0 -0.17263807056E+00  0.94061193902E-01  0.20412809455E+01  0.20507265959E+01  0.51100000000E-03 0.  1.
    9000002    1    1    2    0    0 -0.20616432155E-02 -0.25156941725E+00  0.58887047800E-01  0.97293530436E+00  0.93800000000E+00 0.  1.
         22    1    1    2    0    0  0.17469971378E+00  0.15750822334E+00  0.18998319741E+01  0.19143380998E+01  0.00000000000E+00 0.  1.
</event>
<event>
 5    1  0.1560836E+002  0.1599674E+01  0.7818608E-02  0.3353717E+00
         11   -1    0    0    0    0  0.00000000000E+00  0.00000000000E+00  0.39999999674E+01  0.40000000000E+01  0.51100000000E-03 0. -1.
    9000002   -1    0    0    0    0 -0.00000000000E+00 -0.00000000000E+00  0.00000000000E+00  0.93800000000E+00  0.93800000000E+00 0. -1.
         11    1    1    2    0    0 -0.70748098126E-01  0.70179133066E-01  0.12748626910E+01  0.12787515576E+01  0.51100000000E-03 0. -1.
    9000002    1    1    2    0    0  0.21328368022E+00 -0.21969280722E+00  0.62583815790E-01  0.98869388174E+00  0.93800000000E+00 0. -1.
         22    1    1    2    0    0 -0.14253558209E+00  0.14951367416E+00  0.26625534606E+01  0.26705545606E+01  0.00000000000E+00 0. -1.
</event>
<event>
 5    1  0.1560836E+002  0.1557870E+01  0.7818608E-02  0.3400399E+00
         11   -1    0    0    0    0  0.00000000000E+00  0.00000000000E+00  0.39999999674E+01  0.40000000000E+01  0.51100000000E-03 0.  1.
    9000002   -1    0    0    0    0 -0.00000000000E+00 -0.00000000000E+00  0.00000000000E+00  0.93800000000E+00  0.93800000000E+00 0.  1.
         11    1    1    2    0    0  0.11654557011E+00  0.65336869246E-01  0.35910014335E+00  0.38315134147E+00  0.51100000000E-03 0.  1.
    9000002    1    1    2    0    0  0.20982063137E+00 -0.20551524494E+00  0.90875006351E-01  0.98709851587E+00  0.93800000000E+00 0.  1.
         22    1    1    2    0    0 -0.32636620148E+00  0.14017837569E+00  0.35500248177E+01  0.35677501427E+01  0.00000000000E+00 0.  1.
</event>
<event>
 5    1  0.1560836E+002  0.1595995E+01  0.7818608E-02  0.3357722E+00
         11   -1    0    0    0    0  0.00000000000E+00  0.00000000000E+00  0.39999999674E+01  0.40000000000E+01  0.51100000000E-03 0.  1.
    9000002   -1    0    0    0    0 -0.00000000000E+00 -0.00000000000E+00  0.00000000000E+00  0.93800000000E+00  0.93800000000E+00 0. -1.
         11    1    1    2    0    0 -0.57364432740E-03 -0.95275363611E-02  0.10786236809E+01  0.10786660323E+01  0.51100000000E-03 0.  1.
    9000002    1    1    2    0    0  0.15646063906E-01 -0.20374506301E+00  0.30419923390E-01  0.96048228602E+00  0.93800000000E+00 0. -1.
         22    1    1    2    0    0 -0.15072419579E-01  0.21327259938E+00  0.28909563630E+01  0.28988516817E+01  0.00000000000E+00 0.  1.
</event>
<event>
 5    1  0.1560836E+002  0.1599677E+01  0.7818608E-02  0.3353714E+00
         11   -1    0    0    0    0  0.00000000000E+00  0.00000000000E+00  0.39999999674E+01  0.40000000000E+01  0.51100000000E-03 0. -1.
    9000002   -1    0    0    0    0 -0.00000000000E+00 -0.00000000000E+00  0.00000000000E+00  0.93800000000E+00  0.93800000000E+00 0. -1.
         11    1    1    2    0    0 -0.16630082672E+00  0.19047818183E+00  0.18546922792E+01  0.18718497841E+01  0.51100000000E-03 0. -1.
    9000002    1    1    2    0    0  0.34168038606E+00 -0.39132732410E+00  0.18537070652E+00  0.10881584718E+01  0.93800000000E+00 0. -1.
         22    1    1    2    0    0 -0.17537955934E+00  0.20084914228E+00  0.19599369817E+01  0.19779917442E+01  0.00000000000E+00 0.  1.
</event>
<event>
 5    1  0.1560836E+002  0.1599677E+01  0.7818608E-02  0.3353714E+00
         11   -1    0    0    0    0  0.00000000000E+00  0.00000000000E+00  0.39999999674E+01  0.40000000000E+01  0.51100000000E-03 0.  1.
    9000002   -1    0    0    0    0 -0.00000000000E+00 -0.00000000000E+00  0.00000000000E+00  0.93800000000E+00  0.93800000000E+00 0. -1.
         11    1    1    2    0    0  0.50456417105E-01  0.55853271165E+00  0.19259136952E+01  0.20059034031E+01  0.51100000000E-03 0.  1.
    9000002    1    1    2    0    0 -0.85628569492E-01 -0.95121253135E+00  0.71632977404E+00  0.15182588307E+01  0.93800000000E+00 0. -1.
         22    1    1    2    0    0  0.35172152388E-01  0.39267981969E+00  0.13577564981E+01  0.14138377663E+01  0.00000000000E+00 0.  1.
</event>
<event>
 5    1  0.1560836E+002  0.1599572E+01  0.7818608E-02  0.3353828E+00
         11   -1    0    0    0    0  0.00000000000E+00  0.00000000000E+00  0.39999999674E+01  0.40000000000E+01  0.51100000000E-03 0. -1.
    9000002   -1    0    0    0    0 -0.00000000000E+00 -0.00000000000E+00  0.00000000000E+00  0.93800000000E+00  0.93800000000E+00 0.  1.
         11    1    1    2    0    0  0.11185900659E-01  0.19920729002E-01  0.20718084895E+00  0.20843734097E+00  0.51100000000E-03 0. -1.
    9000002    1    1    2    0    0 -0.12463693101E+00 -0.31915359894E+00  0.78734660161E-01  0.10017167918E+01  0.93800000000E+00 0.  1.
         22    1    1    2    0    0  0.11345103035E+00  0.29923286994E+00  0.37140844582E+01  0.37278458672E+01  0.00000000000E+00 0. -1.
</event>
<event>
 5    1  0.1560836E+002  0.1599676E+01  0.7818608E-02  0.3353715E+00
         11   -1    0    0    0    0  0.00000000000E+00  0.00000000000E+00  0.39999999674E+01  0.40000000000E+01  0.51100000000E-03 0.  1.
    9000002   -1    0    0    0    0 -0.00000000000E+00 -0.00000000000E+00  0.00000000000E+00  0.93800000000E+00  0.93800000000E+00 0. -1.
         11    1    1    2    0    0  0.29532479214E+00 -0.13467826771E+00  0.21675040610E+01  0.21916726681E+01  0.51100000000E-03 0.  1.
    9000002    1    1    2    0    0 -0.51609100296E+00  0.23566147597E+00  0.22307680749E+00  0.11187017103E+01  0.93800000000E+00 0. -1.
         22    1    1    2    0    0  0.22076621082E+00 -0.10098320826E+00  0.16094190989E+01  0.16276256216E+01  0.00000000000E+00 0.  1.
</event>
<event>
 5    1  0.1560836E+002  0.1599502E+01  0.7818608E-02  0.3353904E+00
         11   -1    0    0    0    0  0.00000000000E+00  0.00000000000E+00  0.39999999674E+01  0.40000000000E+01  0.51100000000E-03 0. -1.
    9000002   -1    0    0    0    0 -0.00000000000E+00 -0.00000000000E+00  0.00000000000E+00  0.93800000000E+00  0.93800000000E+00 0. -1.
         11    1    1    2    0    0 -0.45592538584E+00 -0.34603749625E+00  0.20849235164E+01  0.21620629586E+01  0.51100000000E-03 0. -1.
    9000002    1    1    2    0    0  0.71433149698E+00  0.55084164807E+00  0.62364464047E+00  0.14430774915E+01  0.93800000000E+00 0. -1.
         22    1    1    2    0    0 -0.25840611114E+00 -0.20480415183E+00  0.12914318104E+01  0.13328595500E+01  0.00000000000E+00 0. -1.
</event>
<event>
 5    1  0.1560836E+002  0.1598458E+01  0.7818608E-02  0.3355039E+00
         11   -1    0    0    0    0  0.00000000000E+00  0.00000000000E+00  0.39999999674E+01  0.40000000000E+01  0.51100000000E-03 0. -1.
    9000002   -1    0    0    0    0 -0.00000000000E+00 -0.00000000000E+00  0.00000000000E+00  0.93800000000E+00  0.93800000000E+00 0.  1.
         11    1    1    2    0    0  0.35796877671E+00 -0.70221304127E-01  0.20614511688E+01  0.20934788892E+01  0.51100000000E-03 0. -1.
    9000002    1    1    2    0    0 -0.65820486597E+00  0.19586164195E+00  0.33719771947E+00  0.12104303906E+01  0.93800000000E+00 0.  1.
         22    1    1    2    0    0  0.30023608926E+00 -0.12564033782E+00  0.16013510790E+01  0.16340907203E+01  0.00000000000E+00 0. -1.
</event>
<event>
 5    1  0.1560836E+002  0.1599664E+01  0.7818608E-02  0.3353728E+00
         11   -1    0    0    0    0  0.00000000000E+00  0.00000000000E+00  0.39999999674E+01  0.40000000000E+01  0.51100000000E-03 0.  1.
    9000002   -1    0    0    0    0 -0.00000000000E+00 -0.00000000000E+00  0.00000000000E+00  0.93800000000E+00  0.93800000000E+00 0.  1.
         11    1    1    2    0    0 -0.83417382373E-01  0.74831664193E+00  0.24395864647E+01  0.25531389770E+01  0.51100000000E-03 0.  1.
    9000002    1    1    2    0    0  0.11113849055E+00 -0.98842710108E+00  0.79351589877E+00  0.15807755628E+01  0.93800000000E+00 0.  1.
         22    1    1    2    0    0 -0.27721108177E-01  0.24011045914E+00  0.76689760392E+00  0.80408546022E+00  0.00000000000E+00 0. -1.
</event>
<event>
 5    1  0.1560836E+002  0.1599644E+01  0.7818608E-02  0.3353750E+00
         11   -1    0    0    0    0  0.00000000000E+00  0.00000000000E+00  0.39999999674E+01  0.40000000000E+01  0.51100000000E-03 0.  1.
    9000002   -1    0    0    0    0 -0.00000000000E+00 -0.00000000000E+00  0.00000000000E+00  0.93800000000E+00  0.93800000000E+00 0. -1.
         11    1    1    2    0    0  0.35333585575E-01 -0.42764945186E-01  0.73058017197E+00  0.73268339111E+00  0.51100000000E-03 0.  1.
    9000002    1    1    2    0    0 -0.16398217467E+00  0.22013461693E+00  0.50178619208E-01  0.97862725131E+00  0.93800000000E+00 0. -1.
         22    1    1    2    0    0  0.12864858909E+00 -0.17736967174E+00  0.32192411762E+01  0.32266893576E+01  0.00000000000E+00 0.  1.
</event>
<event>
 5    1  0.1560836E+002  0.1591676E+01  0.7818608E-02  0.3362447E+00
         11   -1    0    0    0    0  0.00000000000E+00  0.00000000000E+00  0.39999999674E+01  0.40000000000E+01  0.51100000000E-03 0.  1.
    9000002   -1    0    0    0    0 -0.00000000000E+00 -0.00000000000E+00  0.00000000000E+00  0.93800000000E+00  0.93800000000E+00 0. -1.
         11    1    1    2    0    0  0.40566104636E-01 -0.11922020442E+00  0.47993989009E+00  0.49618708691E+00  0.51100000000E-03 0.  1.
    9000002    1    1    2    0    0  0.63396502893E-02  0.48003597561E+00  0.16437609144E+00  0.10664606080E+01  0.93800000000E+00 0. -1.
         22    1    1    2    0    0 -0.46905754925E-01 -0.36081577119E+00  0.33556839858E+01  0.33753523051E+01  0.00000000000E+00 0.  1.
</event>
<event>
 5    1  0.1560836E+002  0.1599676E+01  0.7818608E-02  0.3353715E+00
         11   -1    0    0    0    0  0.00000000000E+00  0.00000000000E+00  0.39999999674E+01  0.40000000000E+01  0.51100000000E-03 0. -1.
    9000002   -1    0    0    0    0 -0.00000000000E+00 -0.00000000000E+00  0.00000000000E+00  0.93800000000E+00  0.93800000000E+00 0.  1.
         11    1    1    2    0    0  0.43262071010E-01  0.17904209745E-01  0.51370019474E+00  0.51582973811E+00  0.51100000000E-03 0.  1.
    9000002    1    1    2    0    0 -0.32557546930E+00 -0.13718831585E+00  0.83724295065E-01  0.10058199530E+01  0.93800000000E+00 0.  1.
         22    1    1    2    0    0  0.28231339829E+00  0.11928410611E+00  0.34025754776E+01  0.34163503089E+01  0.00000000000E+00 0. -1.
</event>
<event>
 5    1  0.1560836E+002  0.1595568E+01  0.7818608E-02  0.3358187E+00
         11   -1    0    0    0    0  0.00000000000E+00  0.00000000000E+00  0.39999999674E+01  0.40000000000E+01  0.51100000000E-03 0.  1.
    9000002   -1    0    0    0    0 -0.00000000000E+00 -0.00000000000E+00  0.00000000000E+00  0.93800000000E+00  0.93800000000E+00 0.  1.
         11    1    1    2    0    0  0.39559350540E-01 -0.45440288187E-01  0.11203311707E+01  0.11219500681E+01  0.51100000000E-03 0.  1.
    9000002    1    1    2    0    0 -0.23124079654E+00 -0.67324552471E-01  0.41639690741E-01  0.96932077518E+00  0.93800000000E+00 0.  1.
         22    1    1    2    0    0  0.19168144600E+00  0.11276484066E+00  0.28380291059E+01  0.28467291567E+01  0.00000000000E+00 0.  1.
</event>
<event>
 5    1  0.1560836E+002  0.1599677E+01  0.7818608E-02  0.3353714E+00
         11   -1    0    0    0    0  0.00000000000E+00  0.00000000000E+00  0.39999999674E+01  0.40000000000E+01  0.51100000000E-03 0.  1.
    9000002   -1    0    0    0    0 -0.00000000000E+00 -0.00000000000E+00  0.00000000000E+00  0.93800000000E+00  0.93800000000E+00 0. -1.
         11    1    1    2    0    0  0.90724541311E-01  0.37803695810E+00  0.23145866876E+01  0.23470097315E+01  0.51100000000E-03 0.  1.
    9000002    1    1    2    0    0 -0.14569711883E+00 -0.60909074557E+00  0.27524011394E+00  0.11609566345E+01  0.93800000000E+00 0. -1.
         22    1    1    2    0    0  0.54972577520E-01  0.23105378746E+00  0.14101731658E+01  0.14300336341E+01  0.00000000000E+00 0.  1.
</event>
<event>
 5    1  0.1560836E+002  0.1599677E+01  0.7818608E-02  0.3353714E+00
         11   -1    0    0    0    0  0.00000000000E+00  0.00000000000E+00  0.39999999674E+01  0.40000000000E+01  0.51100000000E-03 0.  1.
    9000002   -1    0    0    0    0 -0.00000000000E+00 -0.00000000000E+00  0.00000000000E+00  0.93800000000E+00  0.93800000000E+00 0.  1.
         11    1    1    2    0    0 -0.74140776356E-01  0.47491625761E-01  0.10254404229E+01  0.10292135984E+01  0.51100000000E-03 0.  1.
    9000002    1    1    2    0    0  0.28479124493E+00 -0.18118783254E+00  0.76291954034E-01  0.99979975300E+00  0.93800000000E+00 0.  1.
         22    1    1    2    0    0 -0.21065046857E+00  0.13369620678E+00  0.28982675905E+01  0.29089866486E+01  0.00000000000E+00 0.  1.
</event>
<event>
 5    1  0.1560836E+002  0.1599518E+01  0.7818608E-02  0.3353887E+00
         11   -1    0    0    0    0  0.00000000000E+00  0.00000000000E+00  0.39999999674E+01  0.40000000000E+01  0.51100000000E-03 0.  1.
    9000002   -1    0    0    0    0 -0.00000000000E+00 -0.00000000000E+00  0.00000000000E+00  0.93800000000E+00  0.93800000000E+00 0. -1.
         11    1    1    2    0    0 -0.46683800178E-01 -0.27541292324E-01  0.69242745547E+00  0.69454585319E+00  0.51100000000E-03 0.  1.
    9000002    1    1    2    0    0  0.24119866060E+00  0.96421363470E-01  0.44978704878E-01  0.97434129395E+00  0.93800000000E+00 0. -1.
         22    1    1    2    0    0 -0.19451486042E+00 -0.68880071146E-01  0.32625938070E+01  0.32691128529E+01  0.00000000000E+00 0.  1.
</event>
<event>
 5    1  0.1560836E+002  0.1581119E+01  0.7818608E-02  0.3374114E+00
         11   -1    0    0    0    0  0.00000000000E+00  0.00000000000E+00  0.39999999674E+01  0.40000000000E+01  0.51100000000E-03 0.  1.
    9000002   -1    0    0    0    0 -0.00000000000E+00 -0.00000000000E+00  0.00000000000E+00  0.93800000000E+00  0.93800000000E+00 0. -1.
         11    1    1    2    0    0 -0.93354712044E-01  0.33971686641E-01  0.46136041336E+00  0.47193523908E+00  0.51100000000E-03 0.  1.
    9000002    1    1    2    0    0 -0.10675521188E+00 -0.31222768855E+00  0.87766716676E-01  0.99821330452E+00  0.93800000000E+00 0. -1.
         22    1    1    2    0    0  0.20010992392E+00  0.27825600191E+00  0.34508728373E+01  0.34678514564E+01  0.00000000000E+00 0.  1.
</event>
<event>
 5    1  0.1560836E+002  0.1599676E+01  0.7818608E-02  0.3353715E+00
         11   -1    0    0    0    0  0.00000000000E+00  0.00000000000E+00  0.39999999674E+01  0.40000000000E+01  0.51100000000E-03 0. -1.
    9000002   -1    0    0    0    0 -0.00000000000E+00 -0.00000000000E+00  0.00000000000E+00  0.93800000000E+00  0.93800000000E+00 0.  1.
         11    1    1    2    0    0 -0.17826626520E+00 -0.42106158077E+00  0.19130680749E+01  0.19669523218E+01  0.51100000000E-03 0. -1.
    9000002    1    1    2    0    0  0.32259177190E+00  0.76813450135E+00  0.51729544239E+00  0.13570315539E+01  0.93800000000E+00 0.  1.
         22    1    1    2    0    0 -0.14432550670E+00 -0.34707292058E+00  0.15696364501E+01  0.16140161243E+01  0.00000000000E+00 0. -1.
</event>
<event>
 5    1  0.1560836E+002  0.1598359E+01  0.7818608E-02  0.3355147E+00
         11   -1    0    0    0    0  0.00000000000E+00  0.00000000000E+00  0.39999999674E+01  0.40000000000E+01  0.51100000000E-03 0.  1.
    9000002   -1    0    0    0    0 -0.00000000000E+00 -0.00000000000E+00  0.00000000000E+00  0.93800000000E+00  0.93800000000E+00 0. -1.
         11    1    1    2    0    0 -0.53099029249E-01  0.47034541947E-01  0.86718979899E+00  0.87008629666E+00  0.51100000000E-03 0.  1.
    9000002    1    1    2    0    0  0.27586174050E+00 -0.52990595193E-01  0.53572536287E-01  0.98062312827E+00  0.93800000000E+00 0. -1.
         22    1    1    2    0    0 -0.22276271125E+00  0.59560532462E-02  0.30792376321E+01  0.30872905751E+01  0.00000000000E+00 0.  1.
</event>
<event>
 5    1  0.1560836E+002  0.1563258E+01  0.7818608E-02  0.3394233E+00
         11   -1    0    0    0    0  0.00000000000E+00  0.00000000000E+00  0.39999999674E+01  0.40000000000E+01  0.51100000000E-03 0.  1.
    9000002   -1    0    0    0    0 -0.00000000000E+00 -0.00000000000E+00  0.00000000000E+00  0.93800000000E+00  0.93800000000E+00 0.  1.
         11    1    1    2    0    0 -0.11079183878E+00  0.11956336881E-02  0.75981298024E+00  0.76784913045E+00  0.51100000000E-03 0.  1.
    9000002    1    1    2    0    0 -0.33964686738E+00  0.20862783923E+00  0.13807399398E+00  0.10284911267E+01  0.93800000000E+00 0.  1.
         22    1    1    2    0    0  0.45043870616E+00 -0.20982347292E+00  0.31021129931E+01  0.31416597429E+01  0.00000000000E+00 0.  1.
</event>
<event>
 5    1  0.1560836E+002  0.1599613E+01  0.7818608E-02  0.3353784E+00
         11   -1    0    0    0    0  0.00000000000E+00  0.00000000000E+00  0.39999999674E+01  0.40000000000E+01  0.51100000000E-03 0.  1.
    9000002   -1    0    0    0    0 -0.00000000000E+00 -0.00000000000E+00  0.00000000000E+00  0.93800000000E+00  0.93800000000E+00 0.  1.
         11    1    1    2    0    0  0.15418289081E+00  0.59034385767E+00  0.15080104116E+01  0.16267679296E+01  0.51100000000E-03 0.  1.
    9000002    1    1    2    0    0 -0.30447536129E+00 -0.10995104954E+01  0.11622719136E+01  0.18794543294E+01  0.93800000000E+00 0.  1.
         22    1    1    2    0    0  0.15029247048E+00  0.50916663778E+00  0.13297176422E+01  0.14317777410E+01  0.00000000000E+00 0.  1.
</event>
<event>
 5    1  0.1560836E+002  0.1599676E+01  0.7818608E-02  0.3353716E+00
         11   -1    0    0    0    0  0.00000000000E+00  0.00000000000E+00  0.39999999674E+01  0.40000000000E+01  0.51100000000E-03 0. -1.
    9000002   -1    0    0    0    0 -0.00000000000E+00 -0.00000000000E+00  0.00000000000E+00  0.93800000000E+00  0.93800000000E+00 0.  1.
         11    1    1    2    0    0 -0.20460056746E-02  0.36553130491E-01  0.30255835885E+00  0.30476571185E+00  0.51100000000E-03 0. -1.
    9000002    1    1    2    0    0  0.26002175794E-01 -0.47310517156E+00  0.15303516110E+00  0.10619643954E+01  0.93800000000E+00 0.  1.
         22    1    1    2    0    0 -0.23956170119E-01  0.43655204107E+00  0.35444064474E+01  0.35712698928E+01  0.00000000000E+00 0. -1.
</event>
<event>
 5    1  0.1560836E+002  0.1599668E+01  0.7818608E-02  0.3353724E+00
         11   -1    0    0    0    0  0.00000000000E+00  0.00000000000E+00  0.39999999674E+01  0.40000000000E+01  0.51100000000E-03 0.  1.
    9000002   -1    0    0    0    0 -0.00000000000E+00 -0.00000000000E+00  0.00000000000E+00  0.93800000000E+00  0.93800000000E+00 0.  1.
         11    1    1    2    0    0 -0.27886187353E-03 -0.32078827021E-01  0.48842016020E+00  0.48947282143E+00  0.51100000000E-03 0.  1.
    9000002    1    1    2    0    0  0.19937253518E-01  0.25205421425E+00  0.42483729157E-01  0.97240819013E+00  0.93800000000E+00 0.  1.
         22    1    1    2    0    0 -0.19658391644E-01 -0.21997538723E+00  0.34690960780E+01  0.34761189884E+01  0.00000000000E+00 0.  1.
</event>
<event>
 5    1  0.1560836E+002  0.1554511E+01  0.7818608E-02  0.3404265E+00
         11   -1    0    0    0    0  0.00000000000E+00  0.00000000000E+00  0.39999999674E+01  0.40000000000E+01  0.51100000000E-03 0.  1.
    9000002   -1    0    0    0    0 -0.00000000000E+00 -0.00000000000E+00  0.00000000000E+00  0.93800000000E+00  0.93800000000E+00 0.  1.
         11    1    1    2    0    0  0.49489961341E-01  0.37334119042E+00  0.20411039402E+01  0.20755573845E+01  0.51100000000E-03 0.  1.
    9000002    1    1    2    0    0  0.17504270018E+00 -0.30535739362E+00  0.12043589382E+00  0.10090747689E+01  0.93800000000E+00 0.  1.
         22    1    1    2    0    0 -0.22453266152E+00 -0.67983796798E-01  0.18384601333E+01  0.18533678465E+01  0.00000000000E+00 0.  1.
</event>
<event>
 5    1  0.1560836E+002  0.1599675E+01  0.7818608E-02  0.3353716E+00
         11   -1    0    0    0    0  0.00000000000E+00  0.00000000000E+00  0.39999999674E+01  0.40000000000E+01  0.51100000000E-03 0.  1.
    9000002   -1    0    0    0    0 -0.00000000000E+00 -0.00000000000E+00  0.00000000000E+00  0.93800000000E+00  0.93800000000E+00 0. -1.
         11    1    1    2    0    0 -0.15484063175E+00  0.69474323668E-01  0.15686646061E+01  0.15778184973E+01  0.51100000000E-03 0.  1.
    9000002    1    1    2    0    0  0.38415714093E+00 -0.17583291134E+00  0.12075888185E+00  0.10358188206E+01  0.93800000000E+00 0. -1.
         22    1    1    2    0    0 -0.22931650918E+00  0.10635858767E+00  0.23105764794E+01  0.23243626820E+01  0.00000000000E+00 0.  1.
</event>
<event>
 5    1  0.1560836E+002  0.1599659E+01  0.7818608E-02  0.3353734E+00
         11   -1    0    0    0    0  0.00000000000E+00  0.00000000000E+00  0.39999999674E+01  0.40000000000E+01  0.51100000000E-03 0.  1.
    9000002   -1    0    0    0    0 -0.00000000000E+00 -0.00000000000E+00  0.00000000000E+00  0.93800000000E+00  0.93800000000E+00 0. -1.
         11    1    1    2    0    0 -0.42267746774E-02 -0.58533240279E-02  0.78038985478E-01  0.78373920419E-01  0.51100000000E-03 0. -1.
    9000002    1    1    2    0    0  0.14724462666E+00  0.31325547267E+00  0.80314490638E-01  0.10030475505E+01  0.93800000000E+00 0. -1.
         22    1    1    2    0    0 -0.14301785199E+00 -0.30740214864E+00  0.38416464912E+01  0.38565785290E+01  0.00000000000E+00 0.  1.
</event>
<event>
 5    1  0.1560836E+002  0.1599648E+01  0.7818608E-02  0.3353746E+00
         11   -1    0    0    0    0  0.00000000000E+00  0.00000000000E+00  0.39999999674E+01  0.40000000000E+01  0.51100000000E-03 0. -1.
    9000002   -1    0    0    0    0 -0.00000000000E+00 -0.00000000000E+00  0.00000000000E+00  0.93800000000E+00  0.93800000000E+00 0.  1.
         11    1    1    2    0    0 -0.11295036009E+00 -0.31955155122E-01  0.14635934486E+01  0.14682932131E+01  0.51100000000E-03 0. -1.
    9000002    1    1    2    0    0  0.31100366912E+00  0.70748063464E-01  0.68011371826E-01  0.99307508145E+00  0.93800000000E+00 0.  1.
         22    1    1    2    0    0 -0.19805330904E+00 -0.38792908342E-01  0.24683951470E+01  0.24766317055E+01  0.00000000000E+00 0.  1.
</event>
<event>
 5    1  0.1560836E+002  0.1599533E+01  0.7818608E-02  0.3353871E+00
         11   -1    0    0    0    0  0.00000000000E+00  0.00000000000E+00  0.39999999674E+01  0.40000000000E+01  0.51100000000E-03 0. -1.
    9000002   -1    0    0    0    0 -0.00000000000E+00 -0.00000000000E+00  0.00000000000E+00  0.93800000000E+00  0.93800000000E+00 0.  1.
         11    1    1    2    0    0  0.33801946150E-01 -0.23221198421E-01  0.51401111356E+00  0.51564472421E+00  0.51100000000E-03 0. -1.
    9000002    1    1    2    0    0 -0.18608167020E+00  0.16867009134E+00  0.42014744224E-01  0.97194918922E+00  0.93800000000E+00 0.  1.
         22    1    1    2    0    0  0.15227972405E+00 -0.14544889292E+00  0.34439741096E+01  0.34504060866E+01  0.00000000000E+00 0. -1.
</event>
<event>
 5    1  0.1560836E+002  0.1589996E+01  0.7818608E-02  0.3364294E+00
         11   -1    0    0    0    0  0.00000000000E+00  0.00000000000E+00  0.39999999674E+01  0.40000000000E+01  0.51100000000E-03 0.  1.
    9000002   -1    0    0    0    0 -0.00000000000E+00 -0.00000000000E+00  0.00000000000E+00  0.93800000000E+00  0.93800000000E+00 0. -1.
         11    1    1    2    0    0 -0.15551897606E+00 -0.28639727791E+00  0.27283062568E+01  0.27477017386E+01  0.51100000000E-03 0.  1.
    9000002    1    1    2    0    0  0.35562326227E+00  0.34024313164E+00  0.17431826999E+00  0.10735288317E+01  0.93800000000E+00 0. -1.
         22    1    1    2    0    0 -0.20010428621E+00 -0.53845853738E-01  0.10973754406E+01  0.11167694296E+01  0.00000000000E+00 0.  1.
</event>
<event>
 5    1  0.1560836E+002  0.1599386E+01  0.7818608E-02  0.3354030E+00
         11   -1    0    0    0    0  0.00000000000E+00  0.00000000000E+00  0.39999999674E+01  0.40000000000E+01  0.51100000000E-03 0. -1.
    9000002   -1    0    0    0    0 -0.00000000000E+00 -0.00000000000E+00  0.00000000000E+00  0.93800000000E+00  0.93800000000E+00 0.  1.
         11    1    1    2    0    0  0.35321123817E-03  0.11855221305E-02  0.87116770082E-02  0.88138900717E-02  0.51100000000E-03 0. -1.
    9000002    1    1    2    0    0  0.14019950093E+00  0.24993174378E+00  0.54943724166E-01  0.98233629142E+00  0.93800000000E+00 0.  1.
         22    1    1    2    0    0 -0.14055271217E+00 -0.25111726591E+00  0.39363445662E+01  0.39468498185E+01  0.00000000000E+00 0. -1.
</event>
<event>
 5    1  0.1560836E+002  0.1599647E+01  0.7818608E-02  0.3353747E+00
         11   -1    0    0    0    0  0.00000000000E+00  0.00000000000E+00  0.39999999674E+01  0.40000000000E+01  0.51100000000E-03 0.  1.
    9000002   -1    0    0    0    0 -0.00000000000E+00 -0.00000000000E+00  0.00000000000E+00  0.93800000000E+00  0.93800000000E+00 0.  1.
         11    1    1    2    0    0 -0.22988128043E+00  0.76363957531E-02  0.12217627491E+01  0.12432249168E+01  0.51100000000E-03 0.  1.
    9000002    1    1    2    0    0  0.68629041061E+00 -0.45393015762E-02  0.33543695309E+00  0.12097012369E+01  0.93800000000E+00 0.  1.
         22    1    1    2    0    0 -0.45640913018E+00 -0.30970941769E-02  0.24428002652E+01  0.24850738464E+01  0.00000000000E+00 0.  1.
</event>
<event>
 5    1  0.1560836E+002  0.1599677E+01  0.7818608E-02  0.3353714E+00
         11   -1    0    0    0    0  0.00000000000E+00  0.00000000000E+00  0.39999999674E+01  0.40000000000E+01  0.51100000000E-03 0.  1.
    9000002   -1    0    0    0    0 -0.00000000000E+00 -0.00000000000E+00  0.00000000000E+00  0.93800000000E+00  0.93800000000E+00 0. -1.
         11    1    1    2    0    0  0.33278297370E-01 -0.70140884375E-01  0.37487381039E+00  0.38282871310E+00  0.51100000000E-03 0. -1.
    9000002    1    1    2    0    0 -0.31842460018E+00  0.67343806655E+00  0.40166291896E+00  0.12633646172E+01  0.93800000000E+00 0. -1.
         22    1    1    2    0    0  0.28514630281E+00 -0.60329718217E+00  0.32234632380E+01  0.32918066697E+01  0.00000000000E+00 0.  1.
</event>
<event>
 5    1  0.1560836E+002  0.1599551E+01  0.7818608E-02  0.3353850E+00
         11   -1    0    0    0    0  0.00000000000E+00  0.00000000000E+00  0.39999999674E+01  0.40000000000E+01  0.51100000000E-03 0.  1.
    9000002   -1    0    0    0    0 -0.00000000000E+00 -0.00000000000E+00  0.00000000000E+00  0.93800000000E+00  0.93800000000E+00 0.  1.
         11    1    1    2    0    0  0.20574946288E-01 -0.70792931657E-01  0.99179211991E+00  0.99452844998E+00  0.51100000000E-03 0.  1.
    9000002    1    1    2    0    0 -0.38970046134E-01  0.29945468089E+00  0.60944822656E-01  0.98729430354E+00  0.93800000000E+00 0.  1.
         22    1    1    2    0    0  0.18395099846E-01 -0.22866174923E+00  0.29472630248E+01  0.29561772465E+01  0.00000000000E+00 0. -1.
</event>
<event>
 5    1  0.1560836E+002  0.1599050E+01  0.7818608E-02  0.3354395E+00
         11   -1    0    0    0    0  0.00000000000E+00  0.00000000000E+00  0.39999999674E+01  0.40000000000E+01  0.51100000000E-03 0. -1.
    9000002   -1    0    0    0    0 -0.00000000000E+00 -0.00000000000E+00  0.00000000000E+00  0.93800000000E+00  0.93800000000E+00 0.  1.
         11    1    1    2    0    0 -0.86040003545E-01  0.89698042417E-01  0.14459258601E+01  0.14512582386E+01  0.51100000000E-03 0. -1.
    9000002    1    1    2    0    0  0.16508840796E+00 -0.28269503886E+00  0.72184778599E-01  0.99610506961E+00  0.93800000000E+00 0.  1.
         22    1    1    2    0    0 -0.79048404415E-01  0.19299699644E+00  0.24818893287E+01  0.24906366918E+01  0.00000000000E+00 0. -1.
</event>
<event>
 5    1  0.1560836E+002  0.1599675E+01  0.7818608E-02  0.3353716E+00
         11   -1    0    0    0    0  0.00000000000E+00  0.00000000000E+00  0.39999999674E+01  0.40000000000E+01  0.51100000000E-03 0.  1.
    9000002   -1    0    0    0    0 -0.00000000000E+00 -0.00000000000E+00  0.00000000000E+00  0.93800000000E+00  0.93800000000E+00 0.  1.
         11    1    1    2    0    0 -0.91123968272E-01  0.10509743189E+00  0.15048068926E+01  0.15112223837E+01  0.51100000000E-03 0.  1.
    9000002    1    1    2    0    0  0.24064242071E+00 -0.27277792717E+00  0.88858554182E-01  0.10099784230E+01  0.93800000000E+00 0.  1.
         22    1    1    2    0    0 -0.14951845244E+00  0.16768049529E+00  0.24063345205E+01  0.24167991933E+01  0.00000000000E+00 0.  1.
</event>
<event>
 5    1  0.1560836E+002  0.1599651E+01  0.7818608E-02  0.3353742E+00
         11   -1    0    0    0    0  0.00000000000E+00  0.00000000000E+00  0.39999999674E+01  0.40000000000E+01  0.51100000000E-03 0.  1.
    9000002   -1    0    0    0    0 -0.00000000000E+00 -0.00000000000E+00  0.00000000000E+00  0.93800000000E+00  0.93800000000E+00 0. -1.
         11    1    1    2    0    0  0.43947964351E-01  0.14148859404E+00  0.13524237660E+01  0.13605148841E+01  0.51100000000E-03 0.  1.
    9000002    1    1    2    0    0 -0.14244835781E+00 -0.40305000529E+00  0.12373728265E+00  0.10382175863E+01  0.93800000000E+00 0. -1.
         22    1    1    2    0    0  0.98500393459E-01  0.26156141126E+00  0.25238389187E+01  0.25392675296E+01  0.00000000000E+00 0.  1.
</event>
<event>
 5    1  0.1560836E+002  0.1560390E+01  0.7818608E-02  0.3397510E+00
         11   -1    0    0    0    0  0.00000000000E+00  0.00000000000E+00  0.39999999674E+01  0.40000000000E+01  0.51100000000E-03 0.  1.
    9000002   -1    0    0    0    0 -0.00000000000E+00 -0.00000000000E+00  0.00000000000E+00  0.93800000000E+00  0.93800000000E+00 0. -1.
         11    1    1    2    0    0  0.91310895418E-01 -0.49429314165E-01  0.39765891432E+00  0.41099125293E+00  0.51100000000E-03 0.  1.
    9000002    1    1    2    0    0  0.32601993273E+00 -0.23990053300E+00  0.14414676763E+00  0.10317284298E+01  0.93800000000E+00 0. -1.
         22    1    1    2    0    0 -0.41733082815E+00  0.28932984716E+00  0.34581942854E+01  0.34952803173E+01  0.00000000000E+00 0.  1.
</event>
<event>
 5    1  0.1560836E+002  0.1599677E+01  0.7818608E-02  0.3353714E+00
         11   -1    0    0    0    0  0.00000000000E+00  0.00000000000E+00  0.39999999674E+01  0.40000000000E+01  0.51100000000E-03 0.  1.
    9000002   -1    0    0    0    0 -0.00000000000E+00 -0.00000000000E+00  0.00000000000E+00  0.93800000000E+00  0.93800000000E+00 0.  1.
         11    1    1    2    0    0  0.35500912167E+00  0.12717110653E+00  0.16382561874E+01  0.16810971309E+01  0.51100000000E-03 0.  1.
    9000002    1    1    2    0    0 -0.76203849065E+00 -0.27271662681E+00  0.48409551985E+00  0.13301388996E+01  0.93800000000E+00 0.  1.
         22    1    1    2    0    0  0.40702936898E+00  0.14554552027E+00  0.18776482601E+01  0.19267639695E+01  0.00000000000E+00 0.  1.
</event>
<event>
 5    1  0.1560836E+002  0.1599346E+01  0.7818608E-02  0.3354074E+00
         11   -1    0    0    0    0  0.00000000000E+00  0.00000000000E+00  0.39999999674E+01  0.40000000000E+01  0.51100000000E-03 0. -1.
    9000002   -1    0    0    0    0 -0.00000000000E+00 -0.00000000000E+00  0.00000000000E+00  0.93800000000E+00  0.93800000000E+00 0. -1.
         11    1    1    2    0    0 -0.28309242329E-01 -0.11801902441E+00  0.11451121005E+01  0.11515258951E+01  0.51100000000E-03 0. -1.
    9000002    1    1    2    0    0  0.35359590791E-01  0.37260270099E+00  0.94459807212E-01  0.10143223002E+01  0.93800000000E+00 0. -1.
         22    1    1    2    0    0 -0.70503484616E-02 -0.25458367658E+00  0.27604280597E+01  0.27721518047E+01  0.00000000000E+00 0. -1.
</event>
<event>
 5    1  0.1560836E+002  0.1594727E+01  0.7818608E-02  0.3359106E+00
         11   -1    0    0    0    0  0.00000000000E+00  0.00000000000E+00  0.39999999674E+01  0.40000000000E+01  0.51100000000E-03 0. -1.
    9000002   -1    0    0    0    0 -0.00000000000E+00 -0.00000000000E+00  0.00000000000E+00  0.93800000000E+00  0.93800000000E+00 0.  1.
         11    1    1    2    0    0 -0.27374193736E+00 -0.94980981469E-01  0.17039352323E+01  0.17283956642E+01  0.51100000000E-03 0. -1.
    9000002    1    1    2    0    0  0.48090009490E+00  0.79387956906E-01  0.16671264252E+00  0.10701422588E+01  0.93800000000E+00 0.  1.
         22    1    1    2    0    0 -0.20715815754E+00  0.15593024563E-01  0.21293520925E+01  0.21394620769E+01  0.00000000000E+00 0.  1.
</event>
<event>
 5    1  0.1560836E+002  0.1574054E+01  0.7818608E-02  0.3382015E+00
         11   -1    0    0    0    0  0.00000000000E+00  0.00000000000E+00  0.39999999674E+01  0.40000000000E+01  0.51100000000E-03 0. -1.
    9000002   -1    0    0    0    0 -0.00000000000E+00 -0.00000000000E+00  0.00000000000E+00  0.93800000000E+00  0.93800000000E+00 0. -1.
         11    1    1    2    0    0 -0.12559438408E+00 -0.41028349413E-01  0.19211135218E+01  0.19256517597E+01  0.51100000000E-03 0. -1.
    9000002    1    1    2    0    0 -0.13761458142E+00  0.10593103066E+00  0.39221700907E-01  0.95474682408E+00  0.93800000000E+00 0. -1.
         22    1    1    2    0    0  0.26320896550E+00 -0.64902681243E-01  0.20396647447E+01  0.20576014163E+01  0.00000000000E+00 0. -1.
</event>
<event>
 5    1  0.1560836E+002  0.1599669E+01  0.7818608E-02  0.3353723E+00
         11   -1    0    0    0    0  0.00000000000E+00  0.00000000000E+00  0.39999999674E+01  0.40000000000E+01  0.51100000000E-03 0. -1.
    9000002   -1    0    0    0    0 -0.00000000000E+00 -0.00000000000E+00  0.00000000000E+00  0.93800000000E+00  0.93800000000E+00 0. -1.
         11    1    1    2    0    0 -0.50735291511E-02  0.13523797868E-01  0.29047703709E+00  0.29083638701E+00  0.51100000000E-03 0. -1.
    9000002    1    1    2    0    0  0.61602139522E-01 -0.20696270708E+00  0.30905879536E-01  0.96303040404E+00  0.93800000000E+00 0. -1.
         22    1    1    2    0    0 -0.56528610371E-01  0.19343890922E+00  0.36786170507E+01  0.36841332090E+01  0.00000000000E+00 0. -1.
</event>
<event>
 5    1  0.1560836E+002  0.1598051E+01  0.7818608E-02  0.3355482E+00
         11   -1    0    0    0    0  0.00000000000E+00  0.00000000000E+00  0.39999999674E+01  0.40000000000E+01  0.51100000000E-03 0. -1.
    9000002   -1    0    0    0    0 -0.00000000000E+00 -0.00000000000E+00  0.00000000000E+00  0.93800000000E+00  0.93800000000E+00 0. -1.
         11    1    1    2    0    0 -0.41076000257E-01 -0.98205318230E-01  0.87103771749E+00  0.87751836945E+00  0.51100000000E-03 0. -1.
    9000002    1    1    2    0    0  0.20520412279E+00  0.26138803885E+00  0.75202521646E-01  0.99796385612E+00  0.93800000000E+00 0. -1.
         22    1    1    2    0    0 -0.16412812254E+00 -0.16318272062E+00  0.30537597282E+01  0.30625177744E+01  0.00000000000E+00 0. -1.
</event>
<event>
 5    1  0.1560836E+002  0.1599534E+01  0.7818608E-02  0.3353869E+00
         11   -1    0    0    0    0  0.00000000000E+00  0.00000000000E+00  0.39999999674E+01  0.40000000000E+01  0.51100000000E-03 0.  1.
    9000002   -1    0    0    0    0 -0.00000000000E+00 -0.00000000000E+00  0.00000000000E+00  0.93800000000E+00  0.93800000000E+00 0.  1.
         11    1    1    2    0    0  0.32534353922E-01  0.28229617447E-01  0.42850207032E+00  0.43066191017E+00  0.51100000000E-03 0.  1.
    9000002    1    1    2    0    0 -0.22220904491E+00 -0.22793662278E+00  0.67831949525E-01  0.99286310085E+00  0.93800000000E+00 0.  1.
         22    1    1    2    0    0  0.18967469099E+00  0.19970700534E+00  0.35036659475E+01  0.35144749890E+01  0.00000000000E+00 0.  1.
</event>
<event>
 5    1  0.1560836E+002  0.1599654E+01  0.7818608E-02  0.3353739E+00
         11   -1    0    0    0    0  0.00000000000E+00  0.00000000000E+00  0.39999999674E+01  0.40000000000E+01  0.51100000000E-03 0.  1.
    9000002   -1    0    0    0    0 -0.00000000000E+00 -0.00000000000E+00  0.00000000000E+00  0.93800000000E+00  0.93800000000E+00 0.  1.
         11    1    1    2    0    0 -0.79680750184E-01  0.23416244397E-01  0.11726233135E+01  0.11755607339E+01  0.51100000000E-03 0.  1.
    9000002    1    1    2    0    0  0.27801060768E+00 -0.64145959678E-01  0.54251499371E-01  0.98193269999E+00  0.93800000000E+00 0.  1.
         22    1    1    2    0    0 -0.19832985749E+00  0.40729715281E-01  0.27731251545E+01  0.27805065662E+01  0.00000000000E+00 0.  1.
</event>
<event>
 5    1  0.1560836E+002  0.1599677E+01  0.7818608E-02  0.3353714E+00
         11   -1    0    0    0    0  0.00000000000E+00  0.00000000000E+00  0.39999999674E+01  0.40000000000E+01  0.51100000000E-03 0. -1.
    9000002   -1    0    0    0    0 -0.00000000000E+00 -0.00000000000E+00  0.00000000000E+00  0.93800000000E+00  0.93800000000E+00 0. -1.
         11    1    1    2    0    0 -0.87997364332E-01  0.40447165595E-02  0.11017485059E+01  0.11052646413E+01  0.51100000000E-03 0. -1.
    9000002    1    1    2    0    0  0.31489505947E+00 -0.15056164778E-01  0.66398223157E-01  0.99178541561E+00  0.93800000000E+00 0. -1.
         22    1    1    2    0    0 -0.22689769514E+00  0.11011448219E-01  0.28318532383E+01  0.28409499431E+01  0.00000000000E+00 0. -1.
</event>
<event>
 5    1  0.1560836E+002  0.1599659E+01  0.7818608E-02  0.3353734E+00
         11   -1    0    0    0    0  0.00000000000E+00  0.00000000000E+00  0.39999999674E+01  0.40000000000E+01  0.51100000000E-03 0.  1.
    9000002   -1    0    0    0    0 -0.00000000000E+00 -0.00000000000E+00  0.00000000000E+00  0.93800000000E+00  0.93800000000E+00 0.  1.
         11    1    1    2    0    0 -0.15582202953E-01  0.30858255054E-01  0.48786832036E+00  0.48909180742E+00  0.51100000000E-03 0.  1.
    9000002    1    1    2    0    0  0.10457267911E+00 -0.23403193296E+00  0.43683428395E-01  0.97337486755E+00  0.93800000000E+00 0.  1.
         22    1    1    2    0    0 -0.88990476159E-01  0.20317367791E+00  0.34684482186E+01  0.34755333250E+01  0.00000000000E+00 0.  1.
</event>
<event>
 5    1  0.1560836E+002  0.1599670E+01  0.7818608E-02  0.3353722E+00
         11   -1    0    0    0    0  0.00000000000E+00  0.00000000000E+00  0.39999999674E+01  0.40000000000E+01  0.51100000000E-03 0.  1.
    9000002   -1    0    0    0    0 -0.00000000000E+00 -0.00000000000E+00  0.00000000000E+00  0.93800000000E+00  0.93800000000E+00 0.  1.
         11    1    1    2    0    0 -0.14084730475E-02  0.43308884940E-02  0.80692684867E-01  0.80822712794E-01  0.51100000000E-03 0.  1.
    9000002    1    1    2    0    0  0.10337492799E+00 -0.19839915255E+00  0.33188944747E-01  0.96488035814E+00  0.93800000000E+00 0.  1.
         22    1    1    2    0    0 -0.10196645494E+00  0.19406826406E+00  0.38861183377E+01  0.38922969291E+01  0.00000000000E+00 0.  1.
</event>
<event>
 5    1  0.1560836E+002  0.1582168E+01  0.7818608E-02  0.3372948E+00
         11   -1    0    0    0    0  0.00000000000E+00  0.00000000000E+00  0.39999999674E+01  0.40000000000E+01  0.51100000000E-03 0.  1.
    9000002   -1    0    0    0    0 -0.00000000000E+00 -0.00000000000E+00  0.00000000000E+00  0.93800000000E+00  0.93800000000E+00 0. -1.
         11    1    1    2    0    0 -0.18444056646E-01  0.93177066562E-01  0.28882280255E+00  0.30404115075E+00  0.51100000000E-03 0.  1.
    9000002    1    1    2    0    0 -0.15577155576E+00 -0.19909457291E+00  0.55978373836E-01  0.97307810832E+00  0.93800000000E+00 0. -1.
         22    1    1    2    0    0  0.17421561241E+00  0.10591750635E+00  0.36551987910E+01  0.36608807409E+01  0.00000000000E+00 0.  1.
</event>
<event>
 5    1  0.1560836E+002  0.1573115E+01  0.7818608E-02  0.3383070E+00
         11   -1    0    0    0    0  0.00000000000E+00  0.00000000000E+00  0.39999999674E+01  0.40000000000E+01  0.51100000000E-03 0. -1.
    9000002   -1    0    0    0    0 -0.00000000000E+00 -0.00000000000E+00  0.00000000000E+00  0.93800000000E+00  0.93800000000E+00 0. -1.
         11    1    1    2    0    0 -0.53755300217E-01 -0.12895004070E+00  0.64747519314E+00  0.66237612589E+00  0.51100000000E-03 0. -1.
    9000002    1    1    2    0    0 -0.23130897004E+00  0.95740716070E-01  0.62216642166E-01  0.97282322901E+00  0.93800000000E+00 0. -1.
         22    1    1    2    0    0  0.28506427026E+00  0.33209324626E-01  0.32903081321E+01  0.33028006451E+01  0.00000000000E+00 0. -1.
</event>
<event>
 5    1  0.1560836E+002  0.1599657E+01  0.7818608E-02  0.3353736E+00
         11   -1    0    0    0    0  0.00000000000E+00  0.00000000000E+00  0.39999999674E+01  0.40000000000E+01  0.51100000000E-03 0. -1.
    9000002   -1    0    0    0    0 -0.00000000000E+00 -0.00000000000E+00  0.00000000000E+00  0.93800000000E+00  0.93800000000E+00 0.  1.
         11    1    1    2    0    0  0.26601426815E+00 -0.96510424700E-01  0.17725042310E+01  0.17949510754E+01  0.51100000000E-03 0. -1.
    9000002    1    1    2    0    0 -0.56443867927E+00  0.19297425110E+00  0.24809793026E+00  0.11389585889E+01  0.93800000000E+00 0.  1.
         22    1    1    2    0    0  0.29842441112E+00 -0.96463826399E-01  0.19793978061E+01  0.20040903357E+01  0.00000000000E+00 0. -1.
</event>
<event>
 5    1  0.1560836E+002  0.1593271E+01  0.7818608E-02  0.3360699E+00
         11   -1    0    0    0    0  0.00000000000E+00  0.00000000000E+00  0.39999999674E+01  0.40000000000E+01  0.51100000000E-03 0. -1.
    9000002   -1    0    0    0    0 -0.00000000000E+00 -0.00000000000E+00  0.00000000000E+00  0.93800000000E+00  0.93800000000E+00 0.  1.
         11    1    1    2    0    0  0.87922719819E-01 -0.84492631764E-01  0.97669883581E+00  0.98428160934E+00  0.51100000000E-03 0. -1.
    9000002    1    1    2    0    0 -0.10990136044E+00  0.55797957099E+00  0.23038527589E+00  0.11208661321E+01  0.93800000000E+00 0.  1.
         22    1    1    2    0    0  0.21978640625E-01 -0.47348693922E+00  0.27929158557E+01  0.28328522586E+01  0.00000000000E+00 0. -1.
</event>
<event>
 5    1  0.1560836E+002  0.1599676E+01  0.7818608E-02  0.3353715E+00
         11   -1    0    0    0    0  0.00000000000E+00  0.00000000000E+00  0.39999999674E+01  0.40000000000E+01  0.51100000000E-03 0.  1.
    9000002   -1    0    0    0    0 -0.00000000000E+00 -0.00000000000E+00  0.00000000000E+00  0.93800000000E+00  0.93800000000E+00 0.  1.
         11    1    1    2    0    0 -0.14413306833E-02 -0.53647451157E-01  0.59619827350E+00  0.59860902841E+00  0.51100000000E-03 0.  1.
    9000002    1    1    2    0    0  0.12955324906E-01  0.35411163390E+00  0.84232407465E-01  0.10062315778E+01  0.93800000000E+00 0.  1.
         22    1    1    2    0    0 -0.11513994223E-01 -0.30046418275E+00  0.33195692864E+01  0.33331593938E+01  0.00000000000E+00 0.  1.
</event>
<event>
 5    1  0.1560836E+002  0.1591657E+01  0.7818608E-02  0.3362468E+00
         11   -1    0    0    0    0  0.00000000000E+00  0.00000000000E+00  0.39999999674E+01  0.40000000000E+01  0.51100000000E-03 0. -1.
    9000002   -1    0    0    0    0 -0.00000000000E+00 -0.00000000000E+00  0.00000000000E+00  0.93800000000E+00  0.93800000000E+00 0.  1.
         11    1    1    2    0    0  0.11954612232E-01 -0.40197391078E-01  0.37847443943E+00  0.38079115723E+00  0.51100000000E-03 0. -1.
    9000002    1    1    2    0    0 -0.12849963884E+00 -0.24260441224E+00  0.56389489522E-01  0.97897539936E+00  0.93800000000E+00 0.  1.
         22    1    1    2    0    0  0.11654502660E+00  0.28280180332E+00  0.35651360384E+01  0.35782334434E+01  0.00000000000E+00 0. -1.
</event>
<event>
 5    1  0.1560836E+002  0.1578805E+01  0.7818608E-02  0.3376694E+00
         11   -1    0    0    0    0  0.00000000000E+00  0.00000000000E+00  0.39999999674E+01  0.40000000000E+01  0.51100000000E-03 0.  1.
    9000002   -1    0    0    0    0 -0.00000000000E+00 -0.00000000000E+00  0.00000000000E+00  0.93800000000E+00  0.93800000000E+00 0. -1.
         11    1    1    2    0    0 -0.19631798093E+00 -0.75038629095E-02  0.95644778340E+00  0.97641675584E+00  0.51100000000E-03 0.  1.
    9000002    1    1    2    0    0  0.21656878296E+00  0.20791020046E+00  0.76648689312E-01  0.98785004468E+00  0.93800000000E+00 0. -1.
         22    1    1    2    0    0 -0.20250802033E-01 -0.20040633755E+00  0.29669034947E+01  0.29737331995E+01  0.00000000000E+00 0.  1.
</event>
<event>
 5    1  0.1560836E+002  0.1599486E+01  0.7818608E-02  0.3353921E+00
         11   -1    0    0    0    0  0.00000000000E+00  0.00000000000E+00  0.39999999674E+01  0.40000000000E+01  0.51100000000E-03 0.  1.
    9000002   -1    0    0    0    0 -0.00000000000E+00 -0.00000000000E+00  0.00000000000E+00  0.93800000000E+00  0.93800000000E+00 0. -1.
         11    1    1    2    0    0 -0.69125337631E-01 -0.87820841559E-02  0.11676158462E+01  0.11696933200E+01  0.51100000000E-03 0.  1.
    9000002    1    1    2    0    0  0.27147053421E+00 -0.52956577796E-02  0.49205967378E-01  0.97774716679E+00  0.93800000000E+00 0. -1.
         22    1    1    2    0    0 -0.20234519658E+00  0.14077741935E-01  0.27831781537E+01  0.27905595132E+01  0.00000000000E+00 0.  1.
</event>
<event>
 5    1  0.1560836E+002  0.1594830E+01  0.7818608E-02  0.3358994E+00
         11   -1    0    0    0    0  0.00000000000E+00  0.00000000000E+00  0.39999999674E+01  0.40000000000E+01  0.51100000000E-03 0. -1.
    9000002   -1    0    0    0    0 -0.00000000000E+00 -0.00000000000E+00  0.00000000000E+00  0.93800000000E+00  0.93800000000E+00 0.  1.
         11    1    1    2    0    0  0.25442381330E-01  0.12921030044E-02  0.10119153130E+00  0.10435023443E+00  0.51100000000E-03 0. -1.
    9000002    1    1    2    0    0  0.59949307065E-02 -0.34548620252E+00  0.83920179042E-01  0.10031367064E+01  0.93800000000E+00 0.  1.
         22    1    1    2    0    0 -0.31437312037E-01  0.34419409952E+00  0.38148882570E+01  0.38305130591E+01  0.00000000000E+00 0. -1.
</event>
<event>
 5    1  0.1560836E+002  0.1598546E+01  0.7818608E-02  0.3354943E+00
         11   -1    0    0    0    0  0.00000000000E+00  0.00000000000E+00  0.39999999674E+01  0.40000000000E+01  0.51100000000E-03 0. -1.
    9000002   -1    0    0    0    0 -0.00000000000E+00 -0.00000000000E+00  0.00000000000E+00  0.93800000000E+00  0.93800000000E+00 0. -1.
         11    1    1    2    0    0 -0.13561278062E+00  0.45658179559E-01  0.18494921891E+01  0.18550194378E+01  0.51100000000E-03 0. -1.
    9000002    1    1    2    0    0  0.33052971954E+00 -0.16983286619E+00  0.93745517165E-01  0.10132745531E+01  0.93800000000E+00 0. -1.
         22    1    1    2    0    0 -0.19491693892E+00  0.12417468663E+00  0.20567622611E+01  0.20697060092E+01  0.00000000000E+00 0. -1.
</event>
<event>
 5    1  0.1560836E+002  0.1574674E+01  0.7818608E-02  0.3381319E+00
         11   -1    0    0    0    0  0.00000000000E+00  0.00000000000E+00  0.39999999674E+01  0.40000000000E+01  0.51100000000E-03 0.  1.
    9000002   -1    0    0    0    0 -0.00000000000E+00 -0.00000000000E+00  0.00000000000E+00  0.93800000000E+00  0.93800000000E+00 0.  1.
         11    1    1    2    0    0 -0.92724272651E-01 -0.89979855867E-01  0.17315474930E+01  0.17363614678E+01  0.51100000000E-03 0.  1.
    9000002    1    1    2    0    0 -0.18738591105E-01 -0.15929076670E+00  0.35733451260E-01  0.95228439171E+00  0.93800000000E+00 0.  1.
         22    1    1    2    0    0  0.11146286376E+00  0.24927062256E+00  0.22327190231E+01  0.22493541405E+01  0.00000000000E+00 0.  1.
</event>
<event>
 5    1  0.1560836E+002  0.1599493E+01  0.7818608E-02  0.3353914E+00
         11   -1    0    0    0    0  0.00000000000E+00  0.00000000000E+00  0.39999999674E+01  0.40000000000E+01  0.51100000000E-03 0. -1.
    9000002   -1    0    0    0    0 -0.00000000000E+00 -0.00000000000E+00  0.00000000000E+00  0.93800000000E+00  0.93800000000E+00 0. -1.
         11    1    1    2    0    0  0.60574493514E-02 -0.18389262767E-02  0.25189506569E+00  0.25197511699E+00  0.51100000000E-03 0. -1.
    9000002    1    1    2    0    0 -0.21847681923E+00  0.56707024632E-02  0.31796806857E-01  0.96364895804E+00  0.93800000000E+00 0. -1.
         22    1    1    2    0    0  0.21241936988E+00 -0.38317761865E-02  0.37163080948E+01  0.37223759250E+01  0.00000000000E+00 0. -1.
</event>
<event>
 5    1  0.1560836E+002  0.1568908E+01  0.7818608E-02  0.3387817E+00
         11   -1    0    0    0    0  0.00000000000E+00  0.00000000000E+00  0.39999999674E+01  0.40000000000E+01  0.51100000000E-03 0.  1.
    9000002   -1    0    0    0    0 -0.00000000000E+00 -0.00000000000E+00  0.00000000000E+00  0.93800000000E+00  0.93800000000E+00 0.  1.
         11    1    1    2    0    0  0.11857594218E-01 -0.29828900827E+00  0.24511840753E+01  0.24692955609E+01  0.51100000000E-03 0.  1.
    9000002    1    1    2    0    0 -0.19431223967E+00  0.20123443432E+00  0.76339734417E-01  0.98179646521E+00  0.93800000000E+00 0.  1.
         22    1    1    2    0    0  0.18245464546E+00  0.97054573957E-01  0.14724761576E+01  0.14869079739E+01  0.00000000000E+00 0.  1.
</event>
<event>
 5    1  0.1560836E+002  0.1582649E+01  0.7818608E-02  0.3372414E+00
         11   -1    0    0    0    0  0.00000000000E+00  0.00000000000E+00  0.39999999674E+01  0.40000000000E+01  0.51100000000E-03 0. -1.
    9000002   -1    0    0    0    0 -0.00000000000E+00 -0.00000000000E+00  0.00000000000E+00  0.93800000000E+00  0.93800000000E+00 0. -1.
         11    1    1    2    0    0  0.90082486347E-01  0.16045967275E+00  0.91410309718E+00  0.93244136240E+00  0.51100000000E-03 0. -1.
    9000002    1    1    2    0    0  0.48168508460E-01 -0.31593127692E+00  0.81856557328E-01  0.99432251957E+00  0.93800000000E+00 0. -1.
         22    1    1    2    0    0 -0.13825099481E+00  0.15547160418E+00  0.30040403128E+01  0.30112361180E+01  0.00000000000E+00 0. -1.
</event>
<event>
 5    1  0.1560836E+002  0.1599353E+01  0.7818608E-02  0.3354066E+00
         11   -1    0    0    0    0  0.00000000000E+00  0.00000000000E+00  0.39999999674E+01  0.40000000000E+01  0.51100000000E-03 0.  1.
    9000002   -1    0    0    0    0 -0.00000000000E+00 -0.00000000000E+00  0.00000000000E+00  0.93800000000E+00  0.93800000000E+00 0.  1.
         11    1    1    2    0    0  0.26119139444E+00 -0.51375067776E-01  0.17185926921E+01  0.17390863822E+01  0.51100000000E-03 0.  1.
    9000002    1    1    2    0    0 -0.53021188968E+00  0.10362735638E+00  0.20152412843E+00  0.11010537005E+01  0.93800000000E+00 0.  1.
         22    1    1    2    0    0  0.26902049525E+00 -0.52252288603E-01  0.20798831468E+01  0.20978599174E+01  0.00000000000E+00 0.  1.
</event>
<event>
 5    1  0.1560836E+002  0.1599675E+01  0.7818608E-02  0.3353716E+00
         11   -1    0    0    0    0  0.00000000000E+00  0.00000000000E+00  0.39999999674E+01  0.40000000000E+01  0.51100000000E-03 0.  1.
    9000002   -1    0    0    0    0 -0.00000000000E+00 -0.00000000000E+00  0.00000000000E+00  0.93800000000E+00  0.93800000000E+00 0.  1.
         11    1    1    2    0    0  0.53566708890E-01  0.48253472627E-01  0.78614359150E+00  0.78944271324E+00  0.51100000000E-03 0.  1.
    9000002    1    1    2    0    0 -0.26289603144E+00 -0.24537973541E+00  0.86809089724E-01  0.10083180827E+01  0.93800000000E+00 0.  1.
         22    1    1    2    0    0  0.20932932255E+00  0.19712626278E+00  0.31270472861E+01  0.31402392040E+01  0.00000000000E+00 0.  1.
</event>
<event>
 5    1  0.1560836E+002  0.1599661E+01  0.7818608E-02  0.3353732E+00
         11   -1    0    0    0    0  0.00000000000E+00  0.00000000000E+00  0.39999999674E+01  0.40000000000E+01  0.51100000000E-03 0.  1.
    9000002   -1    0    0    0    0 -0.00000000000E+00 -0.00000000000E+00  0.00000000000E+00  0.93800000000E+00  0.93800000000E+00 0. -1.
         11    1    1    2    0    0 -0.13573852181E-02  0.12190838278E+00  0.79354151709E+00  0.80285235053E+00  0.51100000000E-03 0.  1.
    9000002    1    1    2    0    0  0.25052533539E-01 -0.57986354035E+00  0.23408893602E+00  0.11276129588E+01  0.93800000000E+00 0. -1.
         22    1    1    2    0    0 -0.23695148321E-01  0.45795515757E+00  0.29723695143E+01  0.30075346907E+01  0.00000000000E+00 0.  1.
</event>
<event>
 5    1  0.1560836E+002  0.1573263E+01  0.7818608E-02  0.3382904E+00
         11   -1    0    0    0    0  0.00000000000E+00  0.00000000000E+00  0.39999999674E+01  0.40000000000E+01  0.51100000000E-03 0. -1.
    9000002   -1    0    0    0    0 -0.00000000000E+00 -0.00000000000E+00  0.00000000000E+00  0.93800000000E+00  0.93800000000E+00 0.  1.
         11    1    1    2    0    0  0.92408964135E-01 -0.18720556095E-01  0.30171736305E+00  0.31610679233E+00  0.51100000000E-03 0. -1.
    9000002    1    1    2    0    0  0.93660089440E-01 -0.17466420965E+00  0.46050561517E-01  0.95981480125E+00  0.93800000000E+00 0.  1.
         22    1    1    2    0    0 -0.18606905357E+00  0.19338476574E+00  0.36522320428E+01  0.36620784064E+01  0.00000000000E+00 0. -1.
</event>
<event>
 5    1  0.1560836E+002  0.1593011E+01  0.7818608E-02  0.3360984E+00
         11   -1    0    0    0    0  0.00000000000E+00  0.00000000000E+00  0.39999999674E+01  0.40000000000E+01  0.51100000000E-03 0. -1.
    9000002   -1    0    0    0    0 -0.00000000000E+00 -0.00000000000E+00  0.00000000000E+00  0.93800000000E+00  0.93800000000E+00 0.  1.
         11    1    1    2    0    0  0.94245160573E-02  0.34634869629E-02  0.16831263877E+01  0.16831564144E+01  0.51100000000E-03 0. -1.
    9000002    1    1    2    0    0 -0.20887748552E+00  0.12378876298E+00  0.44236629310E-01  0.96992491522E+00  0.93800000000E+00 0.  1.
         22    1    1    2    0    0  0.19945296946E+00 -0.12725224994E+00  0.22726369503E+01  0.22849186704E+01  0.00000000000E+00 0.  1.
</event>
<event>
 5    1  0.1560836E+002  0.1553654E+01  0.7818608E-02  0.3405255E+00
         11   -1    0    0    0    0  0.00000000000E+00  0.00000000000E+00  0.39999999674E+01  0.40000000000E+01  0.51100000000E-03 0.  1.
    9000002   -1    0    0    0    0 -0.00000000000E+00 -0.00000000000E+00  0.00000000000E+00  0.93800000000E+00  0.93800000000E+00 0. -1.
         11    1    1    2    0    0 -0.10442804862E+00 -0.35590427924E-01  0.19313356540E+00  0.22242466389E+00  0.51100000000E-03 0.  1.
    9000002    1    1    2    0    0 -0.38681700375E-01 -0.15153442655E+00  0.50986012589E-01  0.95231430203E+00  0.93800000000E+00 0. -1.
         22    1    1    2    0    0  0.14310974899E+00  0.18712485447E+00  0.37558803894E+01  0.37632610341E+01  0.00000000000E+00 0.  1.
</event>
<event>
 5    1  0.1560836E+002  0.1599659E+01  0.7818608E-02  0.3353734E+00
         11   -1    0    0    0    0  0.00000000000E+00  0.00000000000E+00  0.39999999674E+01  0.40000000000E+01  0.51100000000E-03 0. -1.
    9000002   -1    0    0    0    0 -0.00000000000E+00 -0.00000000000E+00  0.00000000000E+00  0.93800000000E+00  0.93800000000E+00 0.  1.
         11    1    1    2    0    0  0.14445803928E+00  0.32726903880E+00  0.21352416215E+01  0.21650011991E+01  0.51100000000E-03 0. -1.
    9000002    1    1    2    0    0 -0.25281310507E+00 -0.57897161597E+00  0.28045470921E+00  0.11651701344E+01  0.93800000000E+00 0.  1.
         22    1    1    2    0    0  0.10835506578E+00  0.25170257717E+00  0.15843036366E+01  0.16078286665E+01  0.00000000000E+00 0. -1.
</event>
<event>
 5    1  0.1560836E+002  0.1599078E+01  0.7818608E-02  0.3354365E+00
         11   -1    0    0    0    0  0.00000000000E+00  0.00000000000E+00  0.39999999674E+01  0.40000000000E+01  0.51100000000E-03 0. -1.
    9000002   -1    0    0    0    0 -0.00000000000E+00 -0.00000000000E+00  0.00000000000E+00  0.93800000000E+00  0.93800000000E+00 0.  1.
         11    1    1    2    0    0 -0.46007947192E-01  0.56536137495E-01  0.63756408295E+00  0.64171745109E+00  0.51100000000E-03 0. -1.
    9000002    1    1    2    0    0  0.15474885397E+00 -0.30830595547E+00  0.80227681903E-01  0.10026366495E+01  0.93800000000E+00 0.  1.
         22    1    1    2    0    0 -0.10874090678E+00  0.25176981798E+00  0.32822082025E+01  0.32936458994E+01  0.00000000000E+00 0. -1.
</event>
<event>
 5    1  0.1560836E+002  0.1598124E+01  0.7818608E-02  0.3355402E+00
         11   -1    0    0    0    0  0.00000000000E+00  0.00000000000E+00  0.39999999674E+01  0.40000000000E+01  0.51100000000E-03 0. -1.
    9000002   -1    0    0    0    0 -0.00000000000E+00 -0.00000000000E+00  0.00000000000E+00  0.93800000000E+00  0.93800000000E+00 0. -1.
         11    1    1    2    0    0 -0.52025887592E-01 -0.62840390063E-02  0.88900268358E+00  0.89054602052E+00  0.51100000000E-03 0. -1.
    9000002    1    1    2    0    0  0.18520846801E+00  0.19779104349E+00  0.50055063715E-01  0.97763642675E+00  0.93800000000E+00 0. -1.
         22    1    1    2    0    0 -0.13318258041E+00 -0.19150700448E+00  0.30609422201E+01  0.30698175527E+01  0.00000000000E+00 0. -1.
</event>
<event>
 5    1  0.1560836E+002  0.1532782E+01  0.7818608E-02  0.3429715E+00
         11   -1    0    0    0    0  0.00000000000E+00  0.00000000000E+00  0.39999999674E+01  0.40000000000E+01  0.51100000000E-03 0. -1.
    9000002   -1    0    0    0    0 -0.00000000000E+00 -0.00000000000E+00  0.00000000000E+00  0.93800000000E+00  0.93800000000E+00 0. -1.
         11    1    1    2    0    0  0.27334149657E+00  0.91820742457E-01  0.13081700066E+01  0.13395729356E+01  0.51100000000E-03 0. -1.
    9000002    1    1    2    0    0 -0.11914337664E+00  0.26025856659E+00  0.10852838304E+00  0.98668742548E+00  0.93800000000E+00 0. -1.
         22    1    1    2    0    0 -0.15419811993E+00 -0.35207930904E+00  0.25833015777E+01  0.26117396389E+01  0.00000000000E+00 0. -1.
</event>
<event>
 5    1  0.1560836E+002  0.1599576E+01  0.7818608E-02  0.3353824E+00
         11   -1    0    0    0    0  0.00000000000E+00  0.00000000000E+00  0.39999999674E+01  0.40000000000E+01  0.51100000000E-03 0. -1.
    9000002   -1    0    0    0    0 -0.00000000000E+00 -0.00000000000E+00  0.00000000000E+00  0.93800000000E+00  0.93800000000E+00 0.  1.
         11    1    1    2    0    0  0.74537840997E-01 -0.43384179375E-01  0.52677973960E+00  0.53379324830E+00  0.51100000000E-03 0. -1.
    9000002    1    1    2    0    0 -0.48031772230E+00  0.28592437312E+00  0.21628327377E+00  0.11131398457E+01  0.93800000000E+00 0.  1.
         22    1    1    2    0    0  0.40577988131E+00 -0.24254019375E+00  0.32569369540E+01  0.32910669060E+01  0.00000000000E+00 0. -1.
</event>
<event>
 5    1  0.1560836E+002  0.1562290E+01  0.7818608E-02  0.3395338E+00
         11   -1    0    0    0    0  0.00000000000E+00  0.00000000000E+00  0.39999999674E+01  0.40000000000E+01  0.51100000000E-03 0.  1.
    9000002   -1    0    0    0    0 -0.00000000000E+00 -0.00000000000E+00  0.00000000000E+00  0.93800000000E+00  0.93800000000E+00 0.  1.
         11    1    1    2    0    0  0.12032283357E+00  0.87567976823E-01  0.32581178559E+01  0.32615146725E+01  0.51100000000E-03 0.  1.
    9000002    1    1    2    0    0 -0.19083061368E+00 -0.30633200137E+00  0.11840117575E+00  0.10119873797E+01  0.93800000000E+00 0.  1.
         22    1    1    2    0    0  0.70507780109E-01  0.21876402455E+00  0.62348093567E+00  0.66449794781E+00  0.00000000000E+00 0.  1.
</event>
<event>
 5    1  0.1560836E+002  0.1599610E+01  0.7818608E-02  0.3353787E+00
         11   -1    0    0    0    0  0.00000000000E+00  0.00000000000E+00  0.39999999674E+01  0.40000000000E+01  0.51100000000E-03 0. -1.
    9000002   -1    0    0    0    0 -0.00000000000E+00 -0.00000000000E+00  0.00000000000E+00  0.93800000000E+00  0.93800000000E+00 0. -1.
         11    1    1    2    0    0  0.49030215165E-02 -0.21091892752E-02  0.60556740861E-01  0.60793653321E-01  0.51100000000E-03 0. -1.
    9000002    1    1    2    0    0 -0.43774769179E+00  0.21948590823E+00  0.16393436623E+00  0.10707546787E+01  0.93800000000E+00 0. -1.
         22    1    1    2    0    0  0.43284467027E+00 -0.21737671896E+00  0.37755088603E+01  0.38064516680E+01  0.00000000000E+00 0. -1.
</event>
<event>
 5    1  0.1560836E+002  0.1599676E+01  0.7818608E-02  0.3353715E+00
         11   -1    0    0    0    0  0.00000000000E+00  0.00000000000E+00  0.39999999674E+01  0.40000000000E+01  0.51100000000E-03 0.  1.
    9000002   -1    0    0    0    0 -0.00000000000E+00 -0.00000000000E+00  0.00000000000E+00  0.93800000000E+00  0.93800000000E+00 0.  1.
         11    1    1    2    0    0  0.10260091420E-01 -0.23328882636E-01  0.40024255151E+00  0.40105344706E+00  0.51100000000E-03 0.  1.
    9000002    1    1    2    0    0 -0.10231845740E+00  0.23614178830E+00  0.44023166586E-01  0.97366013069E+00  0.93800000000E+00 0.  1.
         22    1    1    2    0    0  0.92058365977E-01 -0.21281290566E+00  0.35557342493E+01  0.35632864222E+01  0.00000000000E+00 0.  1.
</event>
<event>
 5    1  0.1560836E+002  0.1599673E+01  0.7818608E-02  0.3353718E+00
         11   -1    0    0    0    0  0.00000000000E+00  0.00000000000E+00  0.39999999674E+01  0.40000000000E+01  0.51100000000E-03 0. -1.
    9000002   -1    0    0    0    0 -0.00000000000E+00 -0.00000000000E+00  0.00000000000E+00  0.93800000000E+00  0.93800000000E+00 0. -1.
         11    1    1    2    0    0 -0.21482788909E-02  0.30119769591E-02  0.78279273232E-01  0.78368315320E-01  0.51100000000E-03 0. -1.
    9000002    1    1    2    0    0  0.12304033095E+00 -0.17137966093E+00  0.29489528025E-01  0.96188541079E+00  0.93800000000E+00 0. -1.
         22    1    1    2    0    0 -0.12089205206E+00  0.16836768397E+00  0.38922311661E+01  0.38977462739E+01  0.00000000000E+00 0. -1.
</event>
<event>
 5    1  0.1560836E+002  0.1599521E+01  0.7818608E-02  0.3353883E+00
         11   -1    0    0    0    0  0.00000000000E+00  0.00000000000E+00  0.39999999674E+01  0.40000000000E+01  0.51100000000E-03 0.  1.
    9000002   -1    0    0    0    0 -0.00000000000E+00 -0.00000000000E+00  0.00000000000E+00  0.93800000000E+00  0.93800000000E+00 0.  1.
         11    1    1    2    0    0 -0.16078447810E-01 -0.81154696520E-01  0.89357150007E+00  0.89739338537E+00  0.51100000000E-03 0.  1.
    9000002    1    1    2    0    0  0.10217523523E+00  0.31111453141E+00  0.71851983964E-01  0.99611180996E+00  0.93800000000E+00 0.  1.
         22    1    1    2    0    0 -0.86096787423E-01 -0.22995983489E+00  0.30345764833E+01  0.30444948047E+01  0.00000000000E+00 0. -1.
</event>
<event>
 5    1  0.1560836E+002  0.1599670E+01  0.7818608E-02  0.3353722E+00
         11   -1    0    0    0    0  0.00000000000E+00  0.00000000000E+00  0.39999999674E+01  0.40000000000E+01  0.51100000000E-03 0. -1.
    9000002   -1    0    0    0    0 -0.00000000000E+00 -0.00000000000E+00  0.00000000000E+00  0.93800000000E+00  0.93800000000E+00 0. -1.
         11    1    1    2    0    0 -0.57673142737E-01  0.12388956718E-01  0.44157065444E+00  0.44549363814E+00  0.51100000000E-03 0. -1.
    9000002    1    1    2    0    0  0.50475540949E+00 -0.90443967685E-01  0.18040965547E+00  0.10841354982E+01  0.93800000000E+00 0. -1.
         22    1    1    2    0    0 -0.44708226676E+00  0.78055010967E-01  0.33780196575E+01  0.34083708636E+01  0.00000000000E+00 0. -1.
</event>
<event>
 5    1  0.1560836E+002  0.1599677E+01  0.7818608E-02  0.3353714E+00
         11   -1    0    0    0    0  0.00000000000E+00  0.00000000000E+00  0.39999999674E+01  0.40000000000E+01  0.51100000000E-03 0. -1.
    9000002   -1    0    0    0    0 -0.00000000000E+00 -0.00000000000E+00  0.00000000000E+00  0.93800000000E+00  0.93800000000E+00 0. -1.
         11    1    1    2    0    0 -0.93177300791E-01 -0.26962678389E-02  0.11728628307E+01  0.11765614136E+01  0.51100000000E-03 0. -1.
    9000002    1    1    2    0    0  0.31258063187E+00  0.82163097050E-02  0.65305240912E-01  0.99090006240E+00  0.93800000000E+00 0. -1.
         22    1    1    2    0    0 -0.21940333108E+00 -0.55200418662E-02  0.27618318957E+01  0.27705385240E+01  0.00000000000E+00 0. -1.
</event>
<event>
 5    1  0.1560836E+002  0.1590497E+01  0.7818608E-02  0.3363743E+00
         11   -1    0    0    0    0  0.00000000000E+00  0.00000000000E+00  0.39999999674E+01  0.40000000000E+01  0.51100000000E-03 0. -1.
    9000002   -1    0    0    0    0 -0.00000000000E+00 -0.00000000000E+00  0.00000000000E+00  0.93800000000E+00  0.93800000000E+00 0.  1.
         11    1    1    2    0    0  0.67182148852E-01 -0.32797133544E-01  0.74677774858E+00  0.75051073276E+00  0.51100000000E-03 0. -1.
    9000002    1    1    2    0    0 -0.79461048589E-01 -0.21620703458E+00  0.42186758289E-01  0.96679018542E+00  0.93800000000E+00 0.  1.
         22    1    1    2    0    0  0.12278899737E-01  0.24900416812E+00  0.32110354605E+01  0.32206990818E+01  0.00000000000E+00 0. -1.
</event>
<event>
 5    1  0.1560836E+002  0.1599663E+01  0.7818608E-02  0.3353729E+00
         11   -1    0    0    0    0  0.00000000000E+00  0.00000000000E+00  0.39999999674E+01  0.40000000000E+01  0.51100000000E-03 0.  1.
    9000002   -1    0    0    0    0 -0.00000000000E+00 -0.00000000000E+00  0.00000000000E+00  0.93800000000E+00  0.93800000000E+00 0.  1.
         11    1    1    2    0    0 -0.26782617609E+00  0.11865869530E-02  0.19802481633E+01  0.19982780883E+01  0.51100000000E-03 0.  1.
    9000002    1    1    2    0    0  0.50822131193E+00 -0.26230333819E-02  0.17707778866E+00  0.10814325339E+01  0.93800000000E+00 0.  1.
         22    1    1    2    0    0 -0.24039513584E+00  0.14364464288E-02  0.18426740154E+01  0.18582893778E+01  0.00000000000E+00 0.  1.
</event>
<event>
 5    1  0.1560836E+002  0.1596163E+01  0.7818608E-02  0.3357538E+00
         11   -1    0    0    0    0  0.00000000000E+00  0.00000000000E+00  0.39999999674E+01  0.40000000000E+01  0.51100000000E-03 0.  1.
    9000002   -1    0    0    0    0 -0.00000000000E+00 -0.00000000000E+00  0.00000000000E+00  0.93800000000E+00  0.93800000000E+00 0.  1.
         11    1    1    2    0    0 -0.28816454008E-01  0.11097557198E+00  0.14445198454E+01  0.14490630802E+01  0.51100000000E-03 0.  1.
    9000002    1    1    2    0    0 -0.10765000138E+00 -0.28140713732E+00  0.63323644862E-01  0.98723471562E+00  0.93800000000E+00 0.  1.
         22    1    1    2    0    0  0.13646645539E+00  0.17043156534E+00  0.24921564771E+01  0.25017022042E+01  0.00000000000E+00 0.  1.
</event>
<event>
 5    1  0.1560836E+002  0.1552031E+01  0.7818608E-02  0.3407131E+00
         11   -1    0    0    0    0  0.00000000000E+00  0.00000000000E+00  0.39999999674E+01  0.40000000000E+01  0.51100000000E-03 0. -1.
    9000002   -1    0    0    0    0 -0.00000000000E+00 -0.00000000000E+00  0.00000000000E+00  0.93800000000E+00  0.93800000000E+00 0.  1.
         11    1    1    2    0    0  0.10869381489E+00 -0.79675344037E-01  0.23307670271E+01  0.23346600827E+01  0.51100000000E-03 0. -1.
    9000002    1    1    2    0    0  0.11321984850E+00 -0.18613234785E+00  0.68299092985E-01  0.96538735807E+00  0.93800000000E+00 0.  1.
         22    1    1    2    0    0 -0.22191366339E+00  0.26580769189E+00  0.16009338473E+01  0.16379525593E+01  0.00000000000E+00 0.  1.
</event>
<event>
 5    1  0.1560836E+002  0.1592992E+01  0.7818608E-02  0.3361005E+00
         11   -1    0    0    0    0  0.00000000000E+00  0.00000000000E+00  0.39999999674E+01  0.40000000000E+01  0.51100000000E-03 0.  1.
    9000002   -1    0    0    0    0 -0.00000000000E+00 -0.00000000000E+00  0.00000000000E+00  0.93800000000E+00  0.93800000000E+00 0.  1.
         11    1    1    2    0    0 -0.31577274381E-01 -0.38246469228E-01  0.53772201639E+00  0.54000476359E+00  0.51100000000E-03 0.  1.
    9000002    1    1    2    0    0 -0.19626824873E+00  0.31838433152E-01  0.31195365499E-01  0.95934981217E+00  0.93800000000E+00 0.  1.
         22    1    1    2    0    0  0.22784552311E+00  0.64080360757E-02  0.34310825855E+01  0.34386454242E+01  0.00000000000E+00 0.  1.
</event>
<event>
 5    1  0.1560836E+002  0.1549733E+01  0.7818608E-02  0.3409796E+00
         11   -1    0    0    0    0  0.00000000000E+00  0.00000000000E+00  0.39999999674E+01  0.40000000000E+01  0.51100000000E-03 0.  1.
    9000002   -1    0    0    0    0 -0.00000000000E+00 -0.00000000000E+00  0.00000000000E+00  0.93800000000E+00  0.93800000000E+00 0.  1.
         11    1    1    2    0    0 -0.51237505809E-02 -0.56098519896E-01  0.25506838201E+01  0.25513058437E+01  0.51100000000E-03 0.  1.
    9000002    1    1    2    0    0  0.33799848590E+00 -0.12341911647E+00  0.12854103921E+00  0.10128386118E+01  0.93800000000E+00 0.  1.
         22    1    1    2    0    0 -0.33287473532E+00  0.17951763636E+00  0.13207751081E+01  0.13738555446E+01  0.00000000000E+00 0.  1.
</event>
<event>
 5    1  0.1560836E+002  0.1599649E+01  0.7818608E-02  0.3353745E+00
         11   -1    0    0    0    0  0.00000000000E+00  0.00000000000E+00  0.39999999674E+01  0.40000000000E+01  0.51100000000E-03 0.  1.
    9000002   -1    0    0    0    0 -0.00000000000E+00 -0.00000000000E+00  0.00000000000E+00  0.93800000000E+00  0.93800000000E+00 0.  1.
         11    1    1    2    0    0  0.95062300591E-01 -0.14834323185E-01  0.11721887651E+01  0.11761308006E+01  0.51100000000E-03 0.  1.
    9000002    1    1    2    0    0 -0.32408623351E+00  0.30910141582E-01  0.70904042763E-01  0.99541886002E+00  0.93800000000E+00 0.  1.
         22    1    1    2    0    0  0.22902393292E+00 -0.16075818396E-01  0.27569071595E+01  0.27664503393E+01  0.00000000000E+00 0.  1.
</event>
<event>
 5    1  0.1560836E+002  0.1599609E+01  0.7818608E-02  0.3353788E+00
         11   -1    0    0    0    0  0.00000000000E+00  0.00000000000E+00  0.39999999674E+01  0.40000000000E+01  0.51100000000E-03 0.  1.
    9000002   -1    0    0    0    0 -0.00000000000E+00 -0.00000000000E+00  0.00000000000E+00  0.93800000000E+00  0.93800000000E+00 0.  1.
         11    1    1    2    0    0 -0.76420882550E-03 -0.14962172895E-03  0.36712125835E-01  0.36723939142E-01  0.51100000000E-03 0.  1.
    9000002    1    1    2    0    0  0.26960414296E+00  0.80609296254E-01  0.52789388663E-01  0.98072165883E+00  0.93800000000E+00 0.  1.
         22    1    1    2    0    0 -0.26883993414E+00 -0.80459674525E-01  0.39104984529E+01  0.39205544020E+01  0.00000000000E+00 0.  1.
</event>
<event>
 5    1  0.1560836E+002  0.1599662E+01  0.7818608E-02  0.3353730E+00
         11   -1    0    0    0    0  0.00000000000E+00  0.00000000000E+00  0.39999999674E+01  0.40000000000E+01  0.51100000000E-03 0. -1.
    9000002   -1    0    0    0    0 -0.00000000000E+00 -0.00000000000E+00  0.00000000000E+00  0.93800000000E+00  0.93800000000E+00 0.  1.
         11    1    1    2    0    0  0.22186408861E-01  0.38845225655E-01  0.33373572917E+00  0.33672093243E+00  0.51100000000E-03 0. -1.
    9000002    1    1    2    0    0 -0.27001393060E+00 -0.46623355179E+00  0.20009022152E+00  0.11000733359E+01  0.93800000000E+00 0.  1.
         22    1    1    2    0    0  0.24782752174E+00  0.42738832613E+00  0.34661740167E+01  0.35012057317E+01  0.00000000000E+00 0. -1.
</event>
<event>
 5    1  0.1560836E+002  0.1592847E+01  0.7818608E-02  0.3361164E+00
         11   -1    0    0    0    0  0.00000000000E+00  0.00000000000E+00  0.39999999674E+01  0.40000000000E+01  0.51100000000E-03 0.  1.
    9000002   -1    0    0    0    0 -0.00000000000E+00 -0.00000000000E+00  0.00000000000E+00  0.93800000000E+00  0.93800000000E+00 0.  1.
         11    1    1    2    0    0 -0.41819303905E-01 -0.24348382571E+00  0.20931247854E+01  0.21076538748E+01  0.51100000000E-03 0.  1.
    9000002    1    1    2    0    0 -0.77959960039E-01  0.53477982026E+00  0.20778377843E+00  0.11023090810E+01  0.93800000000E+00 0.  1.
         22    1    1    2    0    0  0.11977926394E+00 -0.29129599456E+00  0.16990914036E+01  0.17280370442E+01  0.00000000000E+00 0.  1.
</event>
<event>
 5    1  0.1560836E+002  0.1599584E+01  0.7818608E-02  0.3353815E+00
         11   -1    0    0    0    0  0.00000000000E+00  0.00000000000E+00  0.39999999674E+01  0.40000000000E+01  0.51100000000E-03 0.  1.
    9000002   -1    0    0    0    0 -0.00000000000E+00 -0.00000000000E+00  0.00000000000E+00  0.93800000000E+00  0.93800000000E+00 0.  1.
         11    1    1    2    0    0 -0.75589519345E-01  0.15011583441E+00  0.96462989411E+00  0.97916272034E+00  0.51100000000E-03 0.  1.
    9000002    1    1    2    0    0  0.26076322884E+00 -0.60148368055E+00  0.30378066254E+00  0.11840214400E+01  0.93800000000E+00 0.  1.
         22    1    1    2    0    0 -0.18517370950E+00  0.45136784614E+00  0.27315894107E+01  0.27748158396E+01  0.00000000000E+00 0.  1.
</event>
<event>
 5    1  0.1560836E+002  0.1599677E+01  0.7818608E-02  0.3353714E+00
         11   -1    0    0    0    0  0.00000000000E+00  0.00000000000E+00  0.39999999674E+01  0.40000000000E+01  0.51100000000E-03 0. -1.
    9000002   -1    0    0    0    0 -0.00000000000E+00 -0.00000000000E+00  0.00000000000E+00  0.93800000000E+00  0.93800000000E+00 0. -1.
         11    1    1    2    0    0  0.19701288383E+00  0.20872291740E+00  0.20453308020E+01  0.20653710764E+01  0.51100000000E-03 0. -1.
    9000002    1    1    2    0    0 -0.36641404634E+00 -0.38874034564E+00  0.19653211107E+00  0.10971996994E+01  0.93800000000E+00 0. -1.
         22    1    1    2    0    0  0.16940116251E+00  0.18001742825E+00  0.17581370543E+01  0.17754292242E+01  0.00000000000E+00 0. -1.
</event>
<event>
 5    1  0.1560836E+002  0.1599656E+01  0.7818608E-02  0.3353737E+00
         11   -1    0    0    0    0  0.00000000000E+00  0.00000000000E+00  0.39999999674E+01  0.40000000000E+01  0.51100000000E-03 0.  1.
    9000002   -1    0    0    0    0 -0.00000000000E+00 -0.00000000000E+00  0.00000000000E+00  0.93800000000E+00  0.93800000000E+00 0.  1.
         11    1    1    2    0    0 -0.16473478758E+00 -0.44632386000E-01  0.14262253180E+01  0.14364012388E+01  0.51100000000E-03 0.  1.
    9000002    1    1    2    0    0  0.44806802283E+00  0.10643215317E+00  0.14429574138E+00  0.10548734603E+01  0.93800000000E+00 0.  1.
         22    1    1    2    0    0 -0.28333323526E+00 -0.61799767166E-01  0.24294789080E+01  0.24467253008E+01  0.00000000000E+00 0.  1.
</event>
<event>
 5    1  0.1560836E+002  0.1599674E+01  0.7818608E-02  0.3353717E+00
         11   -1    0    0    0    0  0.00000000000E+00  0.00000000000E+00  0.39999999674E+01  0.40000000000E+01  0.51100000000E-03 0.  1.
    9000002   -1    0    0    0    0 -0.00000000000E+00 -0.00000000000E+00  0.00000000000E+00  0.93800000000E+00  0.93800000000E+00 0. -1.
         11    1    1    2    0    0  0.18095185243E+00 -0.28110753394E-01  0.15899735078E+01  0.16004842405E+01  0.51100000000E-03 0.  1.
    9000002    1    1    2    0    0 -0.44334429143E+00  0.64810389665E-01  0.13631296468E+00  0.10484177467E+01  0.93800000000E+00 0. -1.
         22    1    1    2    0    0  0.26239243900E+00 -0.36699636271E-01  0.22737134949E+01  0.22890980128E+01  0.00000000000E+00 0.  1.
</event>
<event>
 5    1  0.1560836E+002  0.1596026E+01  0.7818608E-02  0.3357688E+00
         11   -1    0    0    0    0  0.00000000000E+00  0.00000000000E+00  0.39999999674E+01  0.40000000000E+01  0.51100000000E-03 0.  1.
    9000002   -1    0    0    0    0 -0.00000000000E+00 -0.00000000000E+00  0.00000000000E+00  0.93800000000E+00  0.93800000000E+00 0. -1.
         11    1    1    2    0    0  0.46610991472E-01  0.46326622161E-02  0.25333562195E+00  0.25763005367E+00  0.51100000000E-03 0.  1.
    9000002    1    1    2    0    0 -0.19856198613E+00 -0.25780093928E+00  0.73716978078E-01  0.99557339231E+00  0.93800000000E+00 0. -1.
         22    1    1    2    0    0  0.15195099465E+00  0.25316827706E+00  0.36729473673E+01  0.36847965540E+01  0.00000000000E+00 0.  1.
</event>
<event>
 5    1  0.1560836E+002  0.1599674E+01  0.7818608E-02  0.3353717E+00
         11   -1    0    0    0    0  0.00000000000E+00  0.00000000000E+00  0.39999999674E+01  0.40000000000E+01  0.51100000000E-03 0.  1.
    9000002   -1    0    0    0    0 -0.00000000000E+00 -0.00000000000E+00  0.00000000000E+00  0.93800000000E+00  0.93800000000E+00 0.  1.
         11    1    1    2    0    0 -0.23012245951E+00 -0.29001098573E+00  0.20001544583E+01  0.20341290118E+01  0.51100000000E-03 0.  1.
    9000002    1    1    2    0    0  0.42295237381E+00  0.53551687751E+00  0.33126241916E+00  0.12063357024E+01  0.93800000000E+00 0.  1.
         22    1    1    2    0    0 -0.19282991430E+00 -0.24550589178E+00  0.16685830899E+01  0.16975352858E+01  0.00000000000E+00 0.  1.
</event>
<event>
 5    1  0.1560836E+002  0.1599676E+01  0.7818608E-02  0.3353715E+00
         11   -1    0    0    0    0  0.00000000000E+00  0.00000000000E+00  0.39999999674E+01  0.40000000000E+01  0.51100000000E-03 0.  1.
    9000002   -1    0    0    0    0 -0.00000000000E+00 -0.00000000000E+00  0.00000000000E+00  0.93800000000E+00  0.93800000000E+00 0. -1.
         11    1    1    2    0    0 -0.79008496220E-01 -0.90888776432E-01  0.13889504921E+01  0.13941616989E+01  0.51100000000E-03 0.  1.
    9000002    1    1    2    0    0  0.22216851429E+00  0.25404536025E+00  0.76267129050E-01  0.99977926003E+00  0.93800000000E+00 0. -1.
         22    1    1    2    0    0 -0.14316001807E+00 -0.16315658382E+00  0.25347823462E+01  0.25440590411E+01  0.00000000000E+00 0. -1.
</event>
<event>
 5    1  0.1560836E+002  0.1599588E+01  0.7818608E-02  0.3353811E+00
         11   -1    0    0    0    0  0.00000000000E+00  0.00000000000E+00  0.39999999674E+01  0.40000000000E+01  0.51100000000E-03 0. -1.
    9000002   -1    0    0    0    0 -0.00000000000E+00 -0.00000000000E+00  0.00000000000E+00  0.93800000000E+00  0.93800000000E+00 0.  1.
         11    1    1    2    0    0 -0.20549596684E-01  0.58973658091E-02  0.40465764973E+00  0.40522233336E+00  0.51100000000E-03 0. -1.
    9000002    1    1    2    0    0  0.22953978447E+00  0.34102116148E-02  0.35023529936E-01  0.96631816181E+00  0.93800000000E+00 0.  1.
         22    1    1    2    0    0 -0.20899018778E+00 -0.93075774238E-02  0.35603187877E+01  0.35664595048E+01  0.00000000000E+00 0. -1.
</event>
<event>
 5    1  0.1560836E+002  0.1596624E+01  0.7818608E-02  0.3357036E+00
         11   -1    0    0    0    0  0.00000000000E+00  0.00000000000E+00  0.39999999674E+01  0.40000000000E+01  0.51100000000E-03 0. -1.
    9000002   -1    0    0    0    0 -0.00000000000E+00 -0.00000000000E+00  0.00000000000E+00  0.93800000000E+00  0.93800000000E+00 0. -1.
         11    1    1    2    0    0  0.20475277112E-01  0.80421013463E-01  0.74274552827E+00  0.74736735095E+00  0.51100000000E-03 0. -1.
    9000002    1    1    2    0    0 -0.34559172934E+00 -0.28753218333E+00  0.13990038503E+00  0.10495353818E+01  0.93800000000E+00 0. -1.
         22    1    1    2    0    0  0.32511645223E+00  0.20711116987E+00  0.31173540541E+01  0.31410972673E+01  0.00000000000E+00 0. -1.
</event>
<event>
 5    1  0.1560836E+002  0.1599663E+01  0.7818608E-02  0.3353730E+00
         11   -1    0    0    0    0  0.00000000000E+00  0.00000000000E+00  0.39999999674E+01  0.40000000000E+01  0.51100000000E-03 0. -1.
    9000002   -1    0    0    0    0 -0.00000000000E+00 -0.00000000000E+00  0.00000000000E+00  0.93800000000E+00  0.93800000000E+00 0.  1.
         11    1    1    2    0    0 -0.11303893632E+00 -0.87133432059E-01  0.15924161286E+01  0.15987993695E+01  0.51100000000E-03 0. -1.
    9000002    1    1    2    0    0  0.27166960649E+00  0.22337891979E+00  0.82971219572E-01  0.10052018405E+01  0.93800000000E+00 0.  1.
         22    1    1    2    0    0 -0.15863067017E+00 -0.13624548773E+00  0.23246126192E+01  0.23339987900E+01  0.00000000000E+00 0. -1.
</event>
<event>
 5    1  0.1560836E+002  0.1572341E+01  0.7818608E-02  0.3383942E+00
         11   -1    0    0    0    0  0.00000000000E+00  0.00000000000E+00  0.39999999674E+01  0.40000000000E+01  0.51100000000E-03 0. -1.
    9000002   -1    0    0    0    0 -0.00000000000E+00 -0.00000000000E+00  0.00000000000E+00  0.93800000000E+00  0.93800000000E+00 0. -1.
         11    1    1    2    0    0 -0.16626362584E+00 -0.22392048660E+00  0.24732820566E+01  0.24889572857E+01  0.51100000000E-03 0. -1.
    9000002    1    1    2    0    0 -0.32571742785E-01  0.41141013136E+00  0.13839582344E+00  0.10340776656E+01  0.93800000000E+00 0. -1.
         22    1    1    2    0    0  0.19883536863E+00 -0.18748964477E+00  0.13883220873E+01  0.14149650486E+01  0.00000000000E+00 0. -1.
</event>
<event>
 5    1  0.1560836E+002  0.1599676E+01  0.7818608E-02  0.3353715E+00
         11   -1    0    0    0    0  0.00000000000E+00  0.00000000000E+00  0.39999999674E+01  0.40000000000E+01  0.51100000000E-03 0. -1.
    9000002   -1    0    0    0    0 -0.00000000000E+00 -0.00000000000E+00  0.00000000000E+00  0.93800000000E+00  0.93800000000E+00 0. -1.
         11    1    1    2    0    0 -0.44864569158E+00  0.38272215487E+00  0.23609373809E+01  0.24334717549E+01  0.51100000000E-03 0. -1.
    9000002    1    1    2    0    0  0.65524447163E+00 -0.55706888926E+00  0.55691479215E+00  0.13891253186E+01  0.93800000000E+00 0. -1.
         22    1    1    2    0    0 -0.20659878004E+00  0.17434673439E+00  0.10821477943E+01  0.11154029265E+01  0.00000000000E+00 0. -1.
</event>
<event>
 5    1  0.1560836E+002  0.1592379E+01  0.7818608E-02  0.3361677E+00
         11   -1    0    0    0    0  0.00000000000E+00  0.00000000000E+00  0.39999999674E+01  0.40000000000E+01  0.51100000000E-03 0.  1.
    9000002   -1    0    0    0    0 -0.00000000000E+00 -0.00000000000E+00  0.00000000000E+00  0.93800000000E+00  0.93800000000E+00 0.  1.
         11    1    1    2    0    0 -0.42073751314E-01  0.70979667378E-01  0.60635365535E+00  0.61194226052E+00  0.51100000000E-03 0.  1.
    9000002    1    1    2    0    0 -0.16802486275E+00 -0.26556977069E+00  0.71751812866E-01  0.99184271951E+00  0.93800000000E+00 0.  1.
         22    1    1    2    0    0  0.21009861406E+00  0.19459010331E+00  0.33218944991E+01  0.33342150200E+01  0.00000000000E+00 0.  1.
</event>
<event>
 5    1  0.1560836E+002  0.1599676E+01  0.7818608E-02  0.3353715E+00
         11   -1    0    0    0    0  0.00000000000E+00  0.00000000000E+00  0.39999999674E+01  0.40000000000E+01  0.51100000000E-03 0.  1.
    9000002   -1    0    0    0    0 -0.00000000000E+00 -0.00000000000E+00  0.00000000000E+00  0.93800000000E+00  0.93800000000E+00 0.  1.
         11    1    1    2    0    0  0.15145289429E+00 -0.81774199427E-01  0.18161099897E+01  0.18242479970E+01  0.51100000000E-03 0.  1.
    9000002    1    1    2    0    0 -0.32728162494E+00  0.17720691491E+00  0.93112118834E-01  0.10134245998E+01  0.93800000000E+00 0.  1.
         22    1    1    2    0    0  0.17582873066E+00 -0.95432715485E-01  0.20907778588E+01  0.21003274032E+01  0.00000000000E+00 0. -1.
</event>
<event>
 5    1  0.1560836E+002  0.1568027E+01  0.7818608E-02  0.3388815E+00
         11   -1    0    0    0    0  0.00000000000E+00  0.00000000000E+00  0.39999999674E+01  0.40000000000E+01  0.51100000000E-03 0. -1.
    9000002   -1    0    0    0    0 -0.00000000000E+00 -0.00000000000E+00  0.00000000000E+00  0.93800000000E+00  0.93800000000E+00 0.  1.
         11    1    1    2    0    0  0.23605070113E-01  0.20384578461E-01  0.67109894236E-02  0.31906564749E-01  0.51100000000E-03 0. -1.
    9000002    1    1    2    0    0 -0.41199909661E+00  0.14751272087E+00  0.15742471430E+00  0.10469621765E+01  0.93800000000E+00 0.  1.
         22    1    1    2    0    0  0.38839402650E+00 -0.16789729933E+00  0.38358642636E+01  0.38591312587E+01  0.00000000000E+00 0. -1.
</event>
<event>
 5    1  0.1560836E+002  0.1599379E+01  0.7818608E-02  0.3354037E+00
         11   -1    0    0    0    0  0.00000000000E+00  0.00000000000E+00  0.39999999674E+01  0.40000000000E+01  0.51100000000E-03 0. -1.
    9000002   -1    0    0    0    0 -0.00000000000E+00 -0.00000000000E+00  0.00000000000E+00  0.93800000000E+00  0.93800000000E+00 0.  1.
         11    1    1    2    0    0 -0.47395101247E+00 -0.54175498394E+00  0.12124005533E+01  0.14099799246E+01  0.51100000000E-03 0. -1.
    9000002    1    1    2    0    0  0.82211941163E+00  0.97139258792E+00  0.17963392254E+01  0.23929401371E+01  0.93800000000E+00 0.  1.
         22    1    1    2    0    0 -0.34816839917E+00 -0.42963760398E+00  0.99126018862E+00  0.11350799384E+01  0.00000000000E+00 0. -1.
</event>
<event>
 5    1  0.1560836E+002  0.1598237E+01  0.7818608E-02  0.3355279E+00
         11   -1    0    0    0    0  0.00000000000E+00  0.00000000000E+00  0.39999999674E+01  0.40000000000E+01  0.51100000000E-03 0. -1.
    9000002   -1    0    0    0    0 -0.00000000000E+00 -0.00000000000E+00  0.00000000000E+00  0.93800000000E+00  0.93800000000E+00 0. -1.
         11    1    1    2    0    0  0.65872311684E-01  0.18845839503E-01  0.12787437810E+01  0.12805780904E+01  0.51100000000E-03 0. -1.
    9000002    1    1    2    0    0 -0.30062499615E+00 -0.14529469370E+00  0.75772603729E-01  0.99853463826E+00  0.93800000000E+00 0. -1.
         22    1    1    2    0    0  0.23475268447E+00  0.12644885419E+00  0.26454835827E+01  0.26588872713E+01  0.00000000000E+00 0. -1.
</event>
<event>
 5    1  0.1560836E+002  0.1598133E+01  0.7818608E-02  0.3355392E+00
         11   -1    0    0    0    0  0.00000000000E+00  0.00000000000E+00  0.39999999674E+01  0.40000000000E+01  0.51100000000E-03 0.  1.
    9000002   -1    0    0    0    0 -0.00000000000E+00 -0.00000000000E+00  0.00000000000E+00  0.93800000000E+00  0.93800000000E+00 0.  1.
         11    1    1    2    0    0 -0.13203967692E-02 -0.19771703932E-01  0.21892079189E+00  0.21981637329E+00  0.51100000000E-03 0.  1.
    9000002    1    1    2    0    0  0.30685731650E+00  0.87877697700E-01  0.69315711589E-01  0.99324345974E+00  0.93800000000E+00 0.  1.
         22    1    1    2    0    0 -0.30553691973E+00 -0.68105993769E-01  0.37117634639E+01  0.37249401670E+01  0.00000000000E+00 0.  1.
</event>
<event>
 5    1  0.1560836E+002  0.1599677E+01  0.7818608E-02  0.3353714E+00
         11   -1    0    0    0    0  0.00000000000E+00  0.00000000000E+00  0.39999999674E+01  0.40000000000E+01  0.51100000000E-03 0.  1.
    9000002   -1    0    0    0    0 -0.00000000000E+00 -0.00000000000E+00  0.00000000000E+00  0.93800000000E+00  0.93800000000E+00 0. -1.
         11    1    1    2    0    0  0.37942395697E+00 -0.81002337815E+00  0.18241608386E+01  0.20316651886E+01  0.51100000000E-03 0.  1.
    9000002    1    1    2    0    0 -0.51979700053E+00  0.11112627269E+01  0.14984481692E+01  0.21518096304E+01  0.93800000000E+00 0. -1.
         22    1    1    2    0    0  0.14037304355E+00 -0.30123934876E+00  0.67739095955E+00  0.75452518094E+00  0.00000000000E+00 0. -1.
</event>
<event>
 5    1  0.1560836E+002  0.1599677E+01  0.7818608E-02  0.3353714E+00
         11   -1    0    0    0    0  0.00000000000E+00  0.00000000000E+00  0.39999999674E+01  0.40000000000E+01  0.51100000000E-03 0. -1.
    9000002   -1    0    0    0    0 -0.00000000000E+00 -0.00000000000E+00  0.00000000000E+00  0.93800000000E+00  0.93800000000E+00 0. -1.
         11    1    1    2    0    0  0.32287803816E-01  0.65917545215E-01  0.91154515115E+00  0.91449573468E+00  0.51100000000E-03 0. -1.
    9000002    1    1    2    0    0 -0.14086937485E+00 -0.28264139078E+00  0.66632335933E-01  0.99197490127E+00  0.93800000000E+00 0. -1.
         22    1    1    2    0    0  0.10858157104E+00  0.21672384556E+00  0.30218224803E+01  0.30315293640E+01  0.00000000000E+00 0. -1.
</event>
<event>
 5    1  0.1560836E+002  0.1599648E+01  0.7818608E-02  0.3353746E+00
         11   -1    0    0    0    0  0.00000000000E+00  0.00000000000E+00  0.39999999674E+01  0.40000000000E+01  0.51100000000E-03 0.  1.
    9000002   -1    0    0    0    0 -0.00000000000E+00 -0.00000000000E+00  0.00000000000E+00  0.93800000000E+00  0.93800000000E+00 0.  1.
         11    1    1    2    0    0  0.19828915241E-01 -0.50778739719E-01  0.91077453413E+00  0.91240461388E+00  0.51100000000E-03 0.  1.
    9000002    1    1    2    0    0 -0.10550120199E+00  0.23453760354E+00  0.43982173318E-01  0.97361020058E+00  0.93800000000E+00 0.  1.
         22    1    1    2    0    0  0.85672286752E-01 -0.18375886382E+00  0.30452432599E+01  0.30519851855E+01  0.00000000000E+00 0.  1.
</event>
<event>
 5    1  0.1560836E+002  0.1583316E+01  0.7818608E-02  0.3371673E+00
         11   -1    0    0    0    0  0.00000000000E+00  0.00000000000E+00  0.39999999674E+01  0.40000000000E+01  0.51100000000E-03 0.  1.
    9000002   -1    0    0    0    0 -0.00000000000E+00 -0.00000000000E+00  0.00000000000E+00  0.93800000000E+00  0.93800000000E+00 0.  1.
         11    1    1    2    0    0 -0.21659115781E+00  0.21876362725E-01  0.19964740801E+01  0.20083075757E+01  0.51100000000E-03 0.  1.
    9000002    1    1    2    0    0  0.19782986212E+00 -0.24184916500E+00  0.78210094987E-01  0.99176029963E+00  0.93800000000E+00 0.  1.
         22    1    1    2    0    0  0.18761295691E-01  0.21997280228E+00  0.19253157923E+01  0.19379321247E+01  0.00000000000E+00 0.  1.
</event>
<event>
 5    1  0.1560836E+002  0.1599358E+01  0.7818608E-02  0.3354061E+00
         11   -1    0    0    0    0  0.00000000000E+00  0.00000000000E+00  0.39999999674E+01  0.40000000000E+01  0.51100000000E-03 0.  1.
    9000002   -1    0    0    0    0 -0.00000000000E+00 -0.00000000000E+00  0.00000000000E+00  0.93800000000E+00  0.93800000000E+00 0.  1.
         11    1    1    2    0    0 -0.77319571847E-02 -0.27286507660E-02  0.16018034977E+00  0.16039087964E+00  0.51100000000E-03 0.  1.
    9000002    1    1    2    0    0  0.39942831148E-01  0.21199341043E+00  0.31079361215E-01  0.96298835015E+00  0.93800000000E+00 0.  1.
         22    1    1    2    0    0 -0.32210873963E-01 -0.20926475966E+00  0.38087402564E+01  0.38146207702E+01  0.00000000000E+00 0.  1.
</event>
<event>
 5    1  0.1560836E+002  0.1599676E+01  0.7818608E-02  0.3353715E+00
         11   -1    0    0    0    0  0.00000000000E+00  0.00000000000E+00  0.39999999674E+01  0.40000000000E+01  0.51100000000E-03 0. -1.
    9000002   -1    0    0    0    0 -0.00000000000E+00 -0.00000000000E+00  0.00000000000E+00  0.93800000000E+00  0.93800000000E+00 0. -1.
         11    1    1    2    0    0  0.20181325260E-01 -0.35635400814E-01  0.46911066320E+00  0.47089515089E+00  0.51100000000E-03 0. -1.
    9000002    1    1    2    0    0 -0.16246771228E+00  0.29760773906E+00  0.76995642174E-01  0.10003691583E+01  0.93800000000E+00 0. -1.
         22    1    1    2    0    0  0.14228638702E+00 -0.26197233824E+00  0.34538936620E+01  0.34667356909E+01  0.00000000000E+00 0. -1.
</event>
<event>
 5    1  0.1560836E+002  0.1591582E+01  0.7818608E-02  0.3362551E+00
         11   -1    0    0    0    0  0.00000000000E+00  0.00000000000E+00  0.39999999674E+01  0.40000000000E+01  0.51100000000E-03 0. -1.
    9000002   -1    0    0    0    0 -0.00000000000E+00 -0.00000000000E+00  0.00000000000E+00  0.93800000000E+00  0.93800000000E+00 0.  1.
         11    1    1    2    0    0 -0.16914567635E-02  0.68522965543E-01  0.51854180139E+00  0.52305269213E+00  0.51100000000E-03 0. -1.
    9000002    1    1    2    0    0  0.27259130626E+00 -0.28655234130E-01  0.56284064703E-01  0.97884576856E+00  0.93800000000E+00 0.  1.
         22    1    1    2    0    0 -0.27089984949E+00 -0.39867731413E-01  0.34251741013E+01  0.34361015393E+01  0.00000000000E+00 0. -1.
</event>
<event>
 5    1  0.1560836E+002  0.1599530E+01  0.7818608E-02  0.3353873E+00
         11   -1    0    0    0    0  0.00000000000E+00  0.00000000000E+00  0.39999999674E+01  0.40000000000E+01  0.51100000000E-03 0. -1.
    9000002   -1    0    0    0    0 -0.00000000000E+00 -0.00000000000E+00  0.00000000000E+00  0.93800000000E+00  0.93800000000E+00 0.  1.
         11    1    1    2    0    0 -0.30585498909E-01  0.78151344667E-01  0.62962187355E+00  0.63519057785E+00  0.51100000000E-03 0. -1.
    9000002    1    1    2    0    0  0.14733518987E+00 -0.42639458413E+00  0.13837763363E+00  0.10500058900E+01  0.93800000000E+00 0.  1.
         22    1    1    2    0    0 -0.11674969096E+00  0.34824323946E+00  0.32320004602E+01  0.32528035322E+01  0.00000000000E+00 0. -1.
</event>
<event>
 5    1  0.1560836E+002  0.1598718E+01  0.7818608E-02  0.3354756E+00
         11   -1    0    0    0    0  0.00000000000E+00  0.00000000000E+00  0.39999999674E+01  0.40000000000E+01  0.51100000000E-03 0. -1.
    9000002   -1    0    0    0    0 -0.00000000000E+00 -0.00000000000E+00  0.00000000000E+00  0.93800000000E+00  0.93800000000E+00 0. -1.
         11    1    1    2    0    0 -0.34658810702E-01 -0.36337088892E-01  0.81033580272E+00  0.81189038144E+00  0.51100000000E-03 0. -1.
    9000002    1    1    2    0    0  0.30656809546E+00  0.12946743348E+00  0.74883972735E-01  0.99809690054E+00  0.93800000000E+00 0. -1.
         22    1    1    2    0    0 -0.27190928476E+00 -0.93130344584E-01  0.31147801919E+01  0.31280127180E+01  0.00000000000E+00 0. -1.
</event>
<event>
 5    1  0.1560836E+002  0.1599658E+01  0.7818608E-02  0.3353734E+00
         11   -1    0    0    0    0  0.00000000000E+00  0.00000000000E+00  0.39999999674E+01  0.40000000000E+01  0.51100000000E-03 0. -1.
    9000002   -1    0    0    0    0 -0.00000000000E+00 -0.00000000000E+00  0.00000000000E+00  0.93800000000E+00  0.93800000000E+00 0. -1.
         11    1    1    2    0    0  0.44997750274E-01  0.48037498946E-01  0.85136367451E+00  0.85390442453E+00  0.51100000000E-03 0. -1.
    9000002    1    1    2    0    0 -0.22564673081E+00 -0.21313626525E+00  0.64350009360E-01  0.99011536620E+00  0.93800000000E+00 0. -1.
         22    1    1    2    0    0  0.18064898054E+00  0.16509876630E+00  0.30842862835E+01  0.30939802093E+01  0.00000000000E+00 0.  1.
</event>
<event>
 5    1  0.1560836E+002  0.1599675E+01  0.7818608E-02  0.3353716E+00
         11   -1    0    0    0    0  0.00000000000E+00  0.00000000000E+00  0.39999999674E+01  0.40000000000E+01  0.51100000000E-03 0.  1.
    9000002   -1    0    0    0    0 -0.00000000000E+00 -0.00000000000E+00  0.00000000000E+00  0.93800000000E+00  0.93800000000E+00 0.  1.
         11    1    1    2    0    0 -0.20855600600E+00  0.13242100065E+00  0.18635275136E+01  0.18798313712E+01  0.51100000000E-03 0.  1.
    9000002    1    1    2    0    0  0.42689346609E+00 -0.26896044854E+00  0.17440832171E+00  0.10792775440E+01  0.93800000000E+00 0.  1.
         22    1    1    2    0    0 -0.21833746010E+00  0.13653944789E+00  0.19620641320E+01  0.19788910848E+01  0.00000000000E+00 0.  1.
</event>
<event>
 5    1  0.1560836E+002  0.1577614E+01  0.7818608E-02  0.3378025E+00
         11   -1    0    0    0    0  0.00000000000E+00  0.00000000000E+00  0.39999999674E+01  0.40000000000E+01  0.51100000000E-03 0.  1.
    9000002   -1    0    0    0    0 -0.00000000000E+00 -0.00000000000E+00  0.00000000000E+00  0.93800000000E+00  0.93800000000E+00 0. -1.
         11    1    1    2    0    0 -0.65523020686E-01 -0.11854120501E+00  0.37204820388E+00  0.39593611942E+00  0.51100000000E-03 0.  1.
    9000002    1    1    2    0    0  0.26278487985E+00  0.20499405285E+00  0.92148153296E-01  0.99970682549E+00  0.93800000000E+00 0. -1.
         22    1    1    2    0    0 -0.19726185916E+00 -0.86452847840E-01  0.35358036102E+01  0.35423570551E+01  0.00000000000E+00 0.  1.
</event>
<event>
 5    1  0.1560836E+002  0.1599677E+01  0.7818608E-02  0.3353714E+00
         11   -1    0    0    0    0  0.00000000000E+00  0.00000000000E+00  0.39999999674E+01  0.40000000000E+01  0.51100000000E-03 0. -1.
    9000002   -1    0    0    0    0 -0.00000000000E+00 -0.00000000000E+00  0.00000000000E+00  0.93800000000E+00  0.93800000000E+00 0. -1.
         11    1    1    2    0    0 -0.34129622702E-01  0.26598850085E-01  0.56011122190E+00  0.56178035920E+00  0.51100000000E-03 0.  1.
    9000002    1    1    2    0    0  0.24092152837E+00 -0.18863601805E+00  0.62494936199E-01  0.98862346077E+00  0.93800000000E+00 0. -1.
         22    1    1    2    0    0 -0.20679190567E+00  0.16203716797E+00  0.33773938093E+01  0.33875961800E+01  0.00000000000E+00 0. -1.
</event>
<event>
 5    1  0.1560836E+002  0.1598803E+01  0.7818608E-02  0.3354663E+00
         11   -1    0    0    0    0  0.00000000000E+00  0.00000000000E+00  0.39999999674E+01  0.40000000000E+01  0.51100000000E-03 0. -1.
    9000002   -1    0    0    0    0 -0.00000000000E+00 -0.00000000000E+00  0.00000000000E+00  0.93800000000E+00  0.93800000000E+00 0. -1.
         11    1    1    2    0    0  0.55597073799E-01  0.12043149421E-01  0.70880385674E+00  0.71108314600E+00  0.51100000000E-03 0. -1.
    9000002    1    1    2    0    0 -0.24434023120E+00  0.70016582609E-01  0.43599009934E-01  0.97280488490E+00  0.93800000000E+00 0. -1.
         22    1    1    2    0    0  0.18874315741E+00 -0.82059732030E-01  0.32475971007E+01  0.32541119691E+01  0.00000000000E+00 0. -1.
</event>
<event>
 5    1  0.1560836E+002  0.1558785E+01  0.7818608E-02  0.3399348E+00
         11   -1    0    0    0    0  0.00000000000E+00  0.00000000000E+00  0.39999999674E+01  0.40000000000E+01  0.51100000000E-03 0. -1.
    9000002   -1    0    0    0    0 -0.00000000000E+00 -0.00000000000E+00  0.00000000000E+00  0.93800000000E+00  0.93800000000E+00 0.  1.
         11    1    1    2    0    0 -0.83961135644E-01 -0.88781662244E-01  0.17350375922E+01  0.17393353223E+01  0.51100000000E-03 0. -1.
    9000002    1    1    2    0    0 -0.33218721116E+00  0.42215480676E-01  0.10844216927E+00  0.10018653573E+01  0.93800000000E+00 0.  1.
         22    1    1    2    0    0  0.41614834681E+00  0.46566181568E-01  0.21565202059E+01  0.21967993204E+01  0.00000000000E+00 0. -1.
</event>
<event>
 5    1  0.1560836E+002  0.1599671E+01  0.7818608E-02  0.3353720E+00
         11   -1    0    0    0    0  0.00000000000E+00  0.00000000000E+00  0.39999999674E+01  0.40000000000E+01  0.51100000000E-03 0.  1.
    9000002   -1    0    0    0    0 -0.00000000000E+00 -0.00000000000E+00  0.00000000000E+00  0.93800000000E+00  0.93800000000E+00 0. -1.
         11    1    1    2    0    0 -0.68263577351E-01 -0.12513428581E+00  0.14471792700E+01  0.14541824528E+01  0.51100000000E-03 0.  1.
    9000002    1    1    2    0    0  0.17969524731E+00  0.33152801610E+00  0.95649911881E-01  0.10154772834E+01  0.93800000000E+00 0. -1.
         22    1    1    2    0    0 -0.11143166996E+00 -0.20639373029E+00  0.24571707855E+01  0.24683402639E+01  0.00000000000E+00 0.  1.
</event>
<event>
 5    1  0.1560836E+002  0.1596468E+01  0.7818608E-02  0.3357205E+00
         11   -1    0    0    0    0  0.00000000000E+00  0.00000000000E+00  0.39999999674E+01  0.40000000000E+01  0.51100000000E-03 0. -1.
    9000002   -1    0    0    0    0 -0.00000000000E+00 -0.00000000000E+00  0.00000000000E+00  0.93800000000E+00  0.93800000000E+00 0. -1.
         11    1    1    2    0    0  0.20677395688E+00  0.13198785695E+00  0.18467727292E+01  0.18629938374E+01  0.51100000000E-03 0. -1.
    9000002    1    1    2    0    0 -0.29580800270E+00 -0.31529641447E+00  0.12936500324E+00  0.10409099421E+01  0.93800000000E+00 0. -1.
         22    1    1    2    0    0  0.89034045819E-01  0.18330855752E+00  0.20238622349E+01  0.20340962205E+01  0.00000000000E+00 0. -1.
</event>
<event>
 5    1  0.1560836E+002  0.1599562E+01  0.7818608E-02  0.3353839E+00
         11   -1    0    0    0    0  0.00000000000E+00  0.00000000000E+00  0.39999999674E+01  0.40000000000E+01  0.51100000000E-03 0.  1.
    9000002   -1    0    0    0    0 -0.00000000000E+00 -0.00000000000E+00  0.00000000000E+00  0.93800000000E+00  0.93800000000E+00 0.  1.
         11    1    1    2    0    0 -0.20456423848E-01  0.18147298703E-01  0.35838192154E+00  0.35942405670E+00  0.51100000000E-03 0.  1.
    9000002    1    1    2    0    0  0.23106539837E+00 -0.11864548266E+00  0.44941000983E-01  0.97433652423E+00  0.93800000000E+00 0.  1.
         22    1    1    2    0    0 -0.21060897452E+00  0.10049818396E+00  0.35966770448E+01  0.36042394191E+01  0.00000000000E+00 0.  1.
</event>
<event>
 5    1  0.1560836E+002  0.1599675E+01  0.7818608E-02  0.3353717E+00
         11   -1    0    0    0    0  0.00000000000E+00  0.00000000000E+00  0.39999999674E+01  0.40000000000E+01  0.51100000000E-03 0.  1.
    9000002   -1    0    0    0    0 -0.00000000000E+00 -0.00000000000E+00  0.00000000000E+00  0.93800000000E+00  0.93800000000E+00 0. -1.
         11    1    1    2    0    0 -0.28482444213E-01  0.25745564894E-01  0.49496226579E+00  0.49644938253E+00  0.51100000000E-03 0.  1.
    9000002    1    1    2    0    0  0.22556806462E+00 -0.19591464434E+00  0.59543746487E-01  0.98623169559E+00  0.93800000000E+00 0. -1.
         22    1    1    2    0    0 -0.19708562040E+00  0.17016907945E+00  0.34454939551E+01  0.34553189219E+01  0.00000000000E+00 0.  1.
</event>
<event>
 5    1  0.1560836E+002  0.1553627E+01  0.7818608E-02  0.3405286E+00
         11   -1    0    0    0    0  0.00000000000E+00  0.00000000000E+00  0.39999999674E+01  0.40000000000E+01  0.51100000000E-03 0. -1.
    9000002   -1    0    0    0    0 -0.00000000000E+00 -0.00000000000E+00  0.00000000000E+00  0.93800000000E+00  0.93800000000E+00 0. -1.
         11    1    1    2    0    0 -0.50911942273E-01 -0.30918251333E+00  0.74551072229E+00  0.80868556967E+00  0.51100000000E-03 0. -1.
    9000002    1    1    2    0    0 -0.16679205158E-01  0.52855089466E+00  0.23631196679E+00  0.11024207862E+01  0.93800000000E+00 0. -1.
         22    1    1    2    0    0  0.67591147431E-01 -0.21936838133E+00  0.30181772783E+01  0.30268936442E+01  0.00000000000E+00 0. -1.
</event>
<event>
 5    1  0.1560836E+002  0.1599674E+01  0.7818608E-02  0.3353717E+00
         11   -1    0    0    0    0  0.00000000000E+00  0.00000000000E+00  0.39999999674E+01  0.40000000000E+01  0.51100000000E-03 0. -1.
    9000002   -1    0    0    0    0 -0.00000000000E+00 -0.00000000000E+00  0.00000000000E+00  0.93800000000E+00  0.93800000000E+00 0. -1.
         11    1    1    2    0    0 -0.68917515656E+00 -0.15340840040E+00  0.20786470263E+01  0.21952836388E+01  0.51100000000E-03 0. -1.
    9000002    1    1    2    0    0  0.10249469208E+01  0.22539326961E+00  0.91355383063E+00  0.16780175559E+01  0.93800000000E+00 0. -1.
         22    1    1    2    0    0 -0.33577176422E+00 -0.71984869204E-01  0.10077991104E+01  0.10646988053E+01  0.00000000000E+00 0.  1.
</event>
<event>
 5    1  0.1560836E+002  0.1599619E+01  0.7818608E-02  0.3353777E+00
         11   -1    0    0    0    0  0.00000000000E+00  0.00000000000E+00  0.39999999674E+01  0.40000000000E+01  0.51100000000E-03 0.  1.
    9000002   -1    0    0    0    0 -0.00000000000E+00 -0.00000000000E+00  0.00000000000E+00  0.93800000000E+00  0.93800000000E+00 0. -1.
         11    1    1    2    0    0  0.12257779847E-02 -0.41310648177E+00  0.22575380329E+01  0.22950243351E+01  0.51100000000E-03 0.  1.
    9000002    1    1    2    0    0  0.10648078381E-01  0.66681754545E+00  0.31520681409E+00  0.11932972623E+01  0.93800000000E+00 0. -1.
         22    1    1    2    0    0 -0.11873856365E-01 -0.25371106368E+00  0.14272551204E+01  0.14496784026E+01  0.00000000000E+00 0.  1.
</event>
<event>
 5    1  0.1560836E+002  0.1599099E+01  0.7818608E-02  0.3354342E+00
         11   -1    0    0    0    0  0.00000000000E+00  0.00000000000E+00  0.39999999674E+01  0.40000000000E+01  0.51100000000E-03 0.  1.
    9000002   -1    0    0    0    0 -0.00000000000E+00 -0.00000000000E+00  0.00000000000E+00  0.93800000000E+00  0.93800000000E+00 0. -1.
         11    1    1    2    0    0  0.20077579135E-01 -0.65523352338E-01  0.56986742342E+00  0.57397348395E+00  0.51100000000E-03 0.  1.
    9000002    1    1    2    0    0 -0.17776095360E+00  0.31503030295E+00  0.88316276736E-01  0.10092010767E+01  0.93800000000E+00 0. -1.
         22    1    1    2    0    0  0.15768337447E+00 -0.24950695061E+00  0.33418162672E+01  0.33548254394E+01  0.00000000000E+00 0.  1.
</event>
<event>
 5    1  0.1560836E+002  0.1599466E+01  0.7818608E-02  0.3353943E+00
         11   -1    0    0    0    0  0.00000000000E+00  0.00000000000E+00  0.39999999674E+01  0.40000000000E+01  0.51100000000E-03 0.  1.
    9000002   -1    0    0    0    0 -0.00000000000E+00 -0.00000000000E+00  0.00000000000E+00  0.93800000000E+00  0.93800000000E+00 0. -1.
         11    1    1    2    0    0 -0.28577775094E+00  0.40765083183E-02  0.19636865089E+01  0.19843766042E+01  0.51100000000E-03 0.  1.
    9000002    1    1    2    0    0  0.56389321893E+00 -0.38490085233E-01  0.22150116205E+00  0.11173020244E+01  0.93800000000E+00 0. -1.
         22    1    1    2    0    0 -0.27811546799E+00  0.34413576914E-01  0.18148122964E+01  0.18363213714E+01  0.00000000000E+00 0.  1.
</event>
<event>
 5    1  0.1560836E+002  0.1595619E+01  0.7818608E-02  0.3358132E+00
         11   -1    0    0    0    0  0.00000000000E+00  0.00000000000E+00  0.39999999674E+01  0.40000000000E+01  0.51100000000E-03 0. -1.
    9000002   -1    0    0    0    0 -0.00000000000E+00 -0.00000000000E+00  0.00000000000E+00  0.93800000000E+00  0.93800000000E+00 0.  1.
         11    1    1    2    0    0  0.15519896965E+00  0.33403081105E-01  0.89892377710E+00  0.91283443415E+00  0.51100000000E-03 0. -1.
    9000002    1    1    2    0    0 -0.38916275179E+00 -0.13059301328E+00  0.11722293294E+00  0.10305762458E+01  0.93800000000E+00 0.  1.
         22    1    1    2    0    0  0.23396378214E+00  0.97189932172E-01  0.29838532573E+01  0.29945893200E+01  0.00000000000E+00 0. -1.
</event>
<event>
 5    1  0.1560836E+002  0.1599487E+01  0.7818608E-02  0.3353920E+00
         11   -1    0    0    0    0  0.00000000000E+00  0.00000000000E+00  0.39999999674E+01  0.40000000000E+01  0.51100000000E-03 0. -1.
    9000002   -1    0    0    0    0 -0.00000000000E+00 -0.00000000000E+00  0.00000000000E+00  0.93800000000E+00  0.93800000000E+00 0.  1.
         11    1    1    2    0    0  0.80974990017E-01  0.37333388262E-01  0.76247262341E+00  0.76766886967E+00  0.51100000000E-03 0. -1.
    9000002    1    1    2    0    0 -0.38164307448E+00 -0.24955433150E+00  0.14151276152E+00  0.10525201482E+01  0.93800000000E+00 0.  1.
         22    1    1    2    0    0  0.30066808447E+00  0.21222094324E+00  0.30960145824E+01  0.31178109821E+01  0.00000000000E+00 0. -1.
</event>
<event>
 5    1  0.1560836E+002  0.1599636E+01  0.7818608E-02  0.3353758E+00
         11   -1    0    0    0    0  0.00000000000E+00  0.00000000000E+00  0.39999999674E+01  0.40000000000E+01  0.51100000000E-03 0. -1.
    9000002   -1    0    0    0    0 -0.00000000000E+00 -0.00000000000E+00  0.00000000000E+00  0.93800000000E+00  0.93800000000E+00 0.  1.
         11    1    1    2    0    0  0.14820531072E+00  0.19231709149E-01  0.14309773296E+01  0.14387602482E+01  0.51100000000E-03 0. -1.
    9000002    1    1    2    0    0 -0.40079319712E+00 -0.72276402696E-01  0.11201464675E+00  0.10287129562E+01  0.93800000000E+00 0.  1.
         22    1    1    2    0    0  0.25258788640E+00  0.53044693547E-01  0.24570079910E+01  0.24705267956E+01  0.00000000000E+00 0. -1.
</event>
<event>
 5    1  0.1560836E+002  0.1599636E+01  0.7818608E-02  0.3353759E+00
         11   -1    0    0    0    0  0.00000000000E+00  0.00000000000E+00  0.39999999674E+01  0.40000000000E+01  0.51100000000E-03 0. -1.
    9000002   -1    0    0    0    0 -0.00000000000E+00 -0.00000000000E+00  0.00000000000E+00  0.93800000000E+00  0.93800000000E+00 0. -1.
         11    1    1    2    0    0  0.59829501676E-01 -0.62869645263E-01  0.73410791346E+00  0.73922043484E+00  0.51100000000E-03 0. -1.
    9000002    1    1    2    0    0 -0.28520972493E+00  0.34216879852E+00  0.13471193417E+00  0.10470985527E+01  0.93800000000E+00 0. -1.
         22    1    1    2    0    0  0.22538022325E+00 -0.27929915326E+00  0.31311801197E+01  0.31516810124E+01  0.00000000000E+00 0. -1.
</event>
<event>
 5    1  0.1560836E+002  0.1599675E+01  0.7818608E-02  0.3353717E+00
         11   -1    0    0    0    0  0.00000000000E+00  0.00000000000E+00  0.39999999674E+01  0.40000000000E+01  0.51100000000E-03 0.  1.
    9000002   -1    0    0    0    0 -0.00000000000E+00 -0.00000000000E+00  0.00000000000E+00  0.93800000000E+00  0.93800000000E+00 0. -1.
         11    1    1    2    0    0  0.50807310809E-01 -0.26715385374E-01  0.61458228257E+00  0.61725743237E+00  0.51100000000E-03 0.  1.
    9000002    1    1    2    0    0 -0.32908542160E+00  0.16423363780E+00  0.90885003773E-01  0.10116194870E+01  0.93800000000E+00 0. -1.
         22    1    1    2    0    0  0.27827811079E+00 -0.13751825243E+00  0.32945326810E+01  0.33091230807E+01  0.00000000000E+00 0.  1.
</event>
<event>
 5    1  0.1560836E+002  0.1599099E+01  0.7818608E-02  0.3354342E+00
         11   -1    0    0    0    0  0.00000000000E+00  0.00000000000E+00  0.39999999674E+01  0.40000000000E+01  0.51100000000E-03 0. -1.
    9000002   -1    0    0    0    0 -0.00000000000E+00 -0.00000000000E+00  0.00000000000E+00  0.93800000000E+00  0.93800000000E+00 0.  1.
         11    1    1    2    0    0  0.28634851607E+00  0.20328363569E+00  0.25091450933E+01  0.25336000216E+01  0.51100000000E-03 0. -1.
    9000002    1    1    2    0    0 -0.45484000817E+00 -0.33992447183E+00  0.22402872641E+00  0.11191340178E+01  0.93800000000E+00 0.  1.
         22    1    1    2    0    0  0.16849149210E+00  0.13664083614E+00  0.12668261476E+01  0.12852659606E+01  0.00000000000E+00 0. -1.
</event>
<event>
 5    1  0.1560836E+002  0.1599658E+01  0.7818608E-02  0.3353735E+00
         11   -1    0    0    0    0  0.00000000000E+00  0.00000000000E+00  0.39999999674E+01  0.40000000000E+01  0.51100000000E-03 0. -1.
    9000002   -1    0    0    0    0 -0.00000000000E+00 -0.00000000000E+00  0.00000000000E+00  0.93800000000E+00  0.93800000000E+00 0.  1.
         11    1    1    2    0    0 -0.50391433900E-01 -0.10795891890E+00  0.14091438775E+01  0.14141715431E+01  0.51100000000E-03 0. -1.
    9000002    1    1    2    0    0  0.12770059638E+00  0.30677566913E+00  0.73911708897E-01  0.99786055849E+00  0.93800000000E+00 0.  1.
         22    1    1    2    0    0 -0.77309162477E-01 -0.19881675022E+00  0.25169443810E+01  0.25259678984E+01  0.00000000000E+00 0. -1.
</event>
<event>
 5    1  0.1560836E+002  0.1554208E+01  0.7818608E-02  0.3404615E+00
         11   -1    0    0    0    0  0.00000000000E+00  0.00000000000E+00  0.39999999674E+01  0.40000000000E+01  0.51100000000E-03 0. -1.
    9000002   -1    0    0    0    0 -0.00000000000E+00 -0.00000000000E+00  0.00000000000E+00  0.93800000000E+00  0.93800000000E+00 0. -1.
         11    1    1    2    0    0  0.38492919255E-01  0.11105327768E+00  0.21734133789E+00  0.24708713765E+00  0.51100000000E-03 0. -1.
    9000002    1    1    2    0    0 -0.12839672978E+00  0.91419555697E-01  0.50822895129E-01  0.95250733438E+00  0.93800000000E+00 0. -1.
         22    1    1    2    0    0  0.89903810527E-01 -0.20247283338E+00  0.37318357343E+01  0.37384055280E+01  0.00000000000E+00 0. -1.
</event>
<event>
 5    1  0.1560836E+002  0.1560179E+01  0.7818608E-02  0.3397751E+00
         11   -1    0    0    0    0  0.00000000000E+00  0.00000000000E+00  0.39999999674E+01  0.40000000000E+01  0.51100000000E-03 0. -1.
    9000002   -1    0    0    0    0 -0.00000000000E+00 -0.00000000000E+00  0.00000000000E+00  0.93800000000E+00  0.93800000000E+00 0.  1.
         11    1    1    2    0    0 -0.25076381507E+00 -0.40938916412E-01  0.18267726326E+01  0.18443581535E+01  0.51100000000E-03 0. -1.
    9000002    1    1    2    0    0  0.28598798488E-01  0.13298866135E+00  0.41844383362E-01  0.94873538341E+00  0.93800000000E+00 0.  1.
         22    1    1    2    0    0  0.22216501658E+00 -0.92049744937E-01  0.21313829514E+01  0.21449064631E+01  0.00000000000E+00 0.  1.
</event>
<event>
 5    1  0.1560836E+002  0.1590346E+01  0.7818608E-02  0.3363908E+00
         11   -1    0    0    0    0  0.00000000000E+00  0.00000000000E+00  0.39999999674E+01  0.40000000000E+01  0.51100000000E-03 0.  1.
    9000002   -1    0    0    0    0 -0.00000000000E+00 -0.00000000000E+00  0.00000000000E+00  0.93800000000E+00  0.93800000000E+00 0. -1.
         11    1    1    2    0    0  0.26059968310E-02  0.41967078917E-01  0.19192854686E+00  0.19648118269E+00  0.51100000000E-03 0.  1.
    9000002    1    1    2    0    0 -0.19694155392E-01  0.16567908969E+00  0.25346302502E-01  0.95306025810E+00  0.93800000000E+00 0. -1.
         22    1    1    2    0    0  0.17088158561E-01 -0.20764616860E+00  0.37827251180E+01  0.37884585592E+01  0.00000000000E+00 0.  1.
</event>
<event>
 5    1  0.1560836E+002  0.1599624E+01  0.7818608E-02  0.3353772E+00
         11   -1    0    0    0    0  0.00000000000E+00  0.00000000000E+00  0.39999999674E+01  0.40000000000E+01  0.51100000000E-03 0.  1.
    9000002   -1    0    0    0    0 -0.00000000000E+00 -0.00000000000E+00  0.00000000000E+00  0.93800000000E+00  0.93800000000E+00 0.  1.
         11    1    1    2    0    0 -0.76986130475E-01  0.16258637551E+00  0.18305968444E+01  0.18394146519E+01  0.51100000000E-03 0.  1.
    9000002    1    1    2    0    0  0.15561351695E+00 -0.36268824016E+00  0.10503463134E+00  0.10230516116E+01  0.93800000000E+00 0.  1.
         22    1    1    2    0    0 -0.78627386473E-01  0.20010186465E+00  0.20643684916E+01  0.20755337365E+01  0.00000000000E+00 0.  1.
</event>
<event>
 5    1  0.1560836E+002  0.1599677E+01  0.7818608E-02  0.3353714E+00
         11   -1    0    0    0    0  0.00000000000E+00  0.00000000000E+00  0.39999999674E+01  0.40000000000E+01  0.51100000000E-03 0. -1.
    9000002   -1    0    0    0    0 -0.00000000000E+00 -0.00000000000E+00  0.00000000000E+00  0.93800000000E+00  0.93800000000E+00 0.  1.
         11    1    1    2    0    0  0.77941412671E-01 -0.14191077037E+00  0.15015135550E+01  0.15102174504E+01  0.51100000000E-03 0. -1.
    9000002    1    1    2    0    0 -0.20049358245E+00  0.36534569670E+00  0.11740588076E+00  0.10331037196E+01  0.93800000000E+00 0.  1.
         22    1    1    2    0    0  0.12255216978E+00 -0.22343492633E+00  0.23810805316E+01  0.23946788299E+01  0.00000000000E+00 0. -1.
</event>
<event>
 5    1  0.1560836E+002  0.1585572E+01  0.7818608E-02  0.3369173E+00
         11   -1    0    0    0    0  0.00000000000E+00  0.00000000000E+00  0.39999999674E+01  0.40000000000E+01  0.51100000000E-03 0.  1.
    9000002   -1    0    0    0    0 -0.00000000000E+00 -0.00000000000E+00  0.00000000000E+00  0.93800000000E+00  0.93800000000E+00 0. -1.
         11    1    1    2    0    0 -0.50388189538E-01  0.80986492189E-01  0.18870732531E+01  0.18894823379E+01  0.51100000000E-03 0.  1.
    9000002    1    1    2    0    0 -0.15794545684E+00 -0.26844722896E-01  0.27468510941E-01  0.95198000272E+00  0.93800000000E+00 0. -1.
         22    1    1    2    0    0  0.20833364638E+00 -0.54141769293E-01  0.20854582033E+01  0.20965376594E+01  0.00000000000E+00 0.  1.
</event>
<event>
 5    1  0.1560836E+002  0.1599480E+01  0.7818608E-02  0.3353928E+00
         11   -1    0    0    0    0  0.00000000000E+00  0.00000000000E+00  0.39999999674E+01  0.40000000000E+01  0.51100000000E-03 0.  1.
    9000002   -1    0    0    0    0 -0.00000000000E+00 -0.00000000000E+00  0.00000000000E+00  0.93800000000E+00  0.93800000000E+00 0. -1.
         11    1    1    2    0    0 -0.14781404118E-01 -0.18166147459E-02  0.40147598701E+00  0.40175243529E+00  0.51100000000E-03 0.  1.
    9000002    1    1    2    0    0  0.19335458333E+00  0.10685690584E+00  0.32501492587E-01  0.96421197889E+00  0.93800000000E+00 0. -1.
         22    1    1    2    0    0 -0.17857317922E+00 -0.10504029110E+00  0.35660224878E+01  0.35720355858E+01  0.00000000000E+00 0.  1.
</event>
<event>
 5    1  0.1560836E+002  0.1597477E+01  0.7818608E-02  0.3356107E+00
         11   -1    0    0    0    0  0.00000000000E+00  0.00000000000E+00  0.39999999674E+01  0.40000000000E+01  0.51100000000E-03 0. -1.
    9000002   -1    0    0    0    0 -0.00000000000E+00 -0.00000000000E+00  0.00000000000E+00  0.93800000000E+00  0.93800000000E+00 0.  1.
         11    1    1    2    0    0 -0.25768523396E-01  0.22343613221E-01  0.27040492444E+00  0.27254786393E+00  0.51100000000E-03 0. -1.
    9000002    1    1    2    0    0  0.22905081036E+00  0.63025519292E-01  0.39129897483E-01  0.96840675271E+00  0.93800000000E+00 0.  1.
         22    1    1    2    0    0 -0.20328228696E+00 -0.85369132513E-01  0.36904651454E+01  0.36970453834E+01  0.00000000000E+00 0. -1.
</event>
<event>
 5    1  0.1560836E+002  0.1599330E+01  0.7818608E-02  0.3354091E+00
         11   -1    0    0    0    0  0.00000000000E+00  0.00000000000E+00  0.39999999674E+01  0.40000000000E+01  0.51100000000E-03 0. -1.
    9000002   -1    0    0    0    0 -0.00000000000E+00 -0.00000000000E+00  0.00000000000E+00  0.93800000000E+00  0.93800000000E+00 0.  1.
         11    1    1    2    0    0 -0.15103395869E+00 -0.99722142740E-01  0.12571193681E+01  0.12700807570E+01  0.51100000000E-03 0. -1.
    9000002    1    1    2    0    0  0.40119316904E+00  0.27939451840E+00  0.16362947471E+00  0.10703438049E+01  0.93800000000E+00 0.  1.
         22    1    1    2    0    0 -0.25015921035E+00 -0.17967237566E+00  0.25792511245E+01  0.25975754381E+01  0.00000000000E+00 0. -1.
</event>
<event>
 5    1  0.1560836E+002  0.1599181E+01  0.7818608E-02  0.3354253E+00
         11   -1    0    0    0    0  0.00000000000E+00  0.00000000000E+00  0.39999999674E+01  0.40000000000E+01  0.51100000000E-03 0. -1.
    9000002   -1    0    0    0    0 -0.00000000000E+00 -0.00000000000E+00  0.00000000000E+00  0.93800000000E+00  0.93800000000E+00 0. -1.
         11    1    1    2    0    0 -0.21645148780E-01 -0.67889961858E-01  0.88580480625E+00  0.88866640270E+00  0.51100000000E-03 0. -1.
    9000002    1    1    2    0    0  0.15681093582E+00  0.22326214974E+00  0.49920997294E-01  0.97814710707E+00  0.93800000000E+00 0. -1.
         22    1    1    2    0    0 -0.13516578704E+00 -0.15537218789E+00  0.30642741638E+01  0.30711864902E+01  0.00000000000E+00 0. -1.
</event>
<event>
 5    1  0.1560836E+002  0.1599649E+01  0.7818608E-02  0.3353745E+00
         11   -1    0    0    0    0  0.00000000000E+00  0.00000000000E+00  0.39999999674E+01  0.40000000000E+01  0.51100000000E-03 0.  1.
    9000002   -1    0    0    0    0 -0.00000000000E+00 -0.00000000000E+00  0.00000000000E+00  0.93800000000E+00  0.93800000000E+00 0.  1.
         11    1    1    2    0    0 -0.62463463506E-01  0.33779455941E-01  0.10009673224E+01  0.10034832223E+01  0.51100000000E-03 0.  1.
    9000002    1    1    2    0    0  0.26770174070E+00 -0.13039778462E+00  0.59161212380E-01  0.98590661488E+00  0.93800000000E+00 0.  1.
         22    1    1    2    0    0 -0.20523827720E+00  0.96618328684E-01  0.29398714326E+01  0.29486101628E+01  0.00000000000E+00 0.  1.
</event>
<event>
 5    1  0.1560836E+002  0.1599318E+01  0.7818608E-02  0.3354104E+00
         11   -1    0    0    0    0  0.00000000000E+00  0.00000000000E+00  0.39999999674E+01  0.40000000000E+01  0.51100000000E-03 0. -1.
    9000002   -1    0    0    0    0 -0.00000000000E+00 -0.00000000000E+00  0.00000000000E+00  0.93800000000E+00  0.93800000000E+00 0. -1.
         11    1    1    2    0    0  0.23241266087E+00  0.43846086299E-01  0.16428699101E+01  0.16598071957E+01  0.51100000000E-03 0. -1.
    9000002    1    1    2    0    0 -0.58314264026E+00 -0.10623800127E+00  0.24510767705E+00  0.11363378130E+01  0.93800000000E+00 0. -1.
         22    1    1    2    0    0  0.35072997939E+00  0.62391914970E-01  0.21120223802E+01  0.21418549914E+01  0.00000000000E+00 0. -1.
</event>
<event>
 5    1  0.1560836E+002  0.1599675E+01  0.7818608E-02  0.3353716E+00
         11   -1    0    0    0    0  0.00000000000E+00  0.00000000000E+00  0.39999999674E+01  0.40000000000E+01  0.51100000000E-03 0. -1.
    9000002   -1    0    0    0    0 -0.00000000000E+00 -0.00000000000E+00  0.00000000000E+00  0.93800000000E+00  0.93800000000E+00 0. -1.
         11    1    1    2    0    0  0.29522440206E-01 -0.43132652397E-01  0.77705595145E+00  0.77881205241E+00  0.51100000000E-03 0. -1.
    9000002    1    1    2    0    0 -0.15667595744E+00  0.21934585472E+00  0.48344112020E-01  0.97715971713E+00  0.93800000000E+00 0. -1.
         22    1    1    2    0    0  0.12715351723E+00 -0.17621320233E+00  0.31745999039E+01  0.31820282305E+01  0.00000000000E+00 0. -1.
</event>
<event>
 5    1  0.1560836E+002  0.1572043E+01  0.7818608E-02  0.3384277E+00
         11   -1    0    0    0    0  0.00000000000E+00  0.00000000000E+00  0.39999999674E+01  0.40000000000E+01  0.51100000000E-03 0. -1.
    9000002   -1    0    0    0    0 -0.00000000000E+00 -0.00000000000E+00  0.00000000000E+00  0.93800000000E+00  0.93800000000E+00 0. -1.
         11    1    1    2    0    0 -0.11336231851E-01 -0.91463747048E-01  0.56485386203E+00  0.57232357434E+00  0.51100000000E-03 0. -1.
    9000002    1    1    2    0    0 -0.44489361154E+00 -0.18777448438E+00  0.18413261467E+00  0.10709521009E+01  0.93800000000E+00 0. -1.
         22    1    1    2    0    0  0.45622984339E+00  0.27923823143E+00  0.32510134907E+01  0.32947243248E+01  0.00000000000E+00 0. -1.
</event>
<event>
 5    1  0.1560836E+002  0.1589853E+01  0.7818608E-02  0.3364451E+00
         11   -1    0    0    0    0  0.00000000000E+00  0.00000000000E+00  0.39999999674E+01  0.40000000000E+01  0.51100000000E-03 0. -1.
    9000002   -1    0    0    0    0 -0.00000000000E+00 -0.00000000000E+00  0.00000000000E+00  0.93800000000E+00  0.93800000000E+00 0.  1.
         11    1    1    2    0    0  0.88804560875E-01 -0.33458946369E-01  0.12664768338E+01  0.12700273946E+01  0.51100000000E-03 0. -1.
    9000002    1    1    2    0    0 -0.14158895978E+00 -0.21537357097E+00  0.51729302395E-01  0.97414225313E+00  0.93800000000E+00 0.  1.
         22    1    1    2    0    0  0.52784398901E-01  0.24883251734E+00  0.26817938311E+01  0.26938303523E+01  0.00000000000E+00 0. -1.
</event>
<event>
 5    1  0.1560836E+002  0.1596489E+01  0.7818608E-02  0.3357183E+00
         11   -1    0    0    0    0  0.00000000000E+00  0.00000000000E+00  0.39999999674E+01  0.40000000000E+01  0.51100000000E-03 0. -1.
    9000002   -1    0    0    0    0 -0.00000000000E+00 -0.00000000000E+00  0.00000000000E+00  0.93800000000E+00  0.93800000000E+00 0.  1.
         11    1    1    2    0    0  0.37202300116E-01 -0.36295969852E-01  0.94057745454E+00  0.94201253584E+00  0.51100000000E-03 0. -1.
    9000002    1    1    2    0    0  0.79941974680E-01  0.21049004098E+00  0.36031983302E-01  0.96531812398E+00  0.93800000000E+00 0.  1.
         22    1    1    2    0    0 -0.11714427480E+00 -0.17419407113E+00  0.30233905295E+01  0.30306693402E+01  0.00000000000E+00 0. -1.
</event>
<event>
 5    1  0.1560836E+002  0.1463917E+01  0.7818608E-02  0.3515742E+00
         11   -1    0    0    0    0  0.00000000000E+00  0.00000000000E+00  0.39999999674E+01  0.40000000000E+01  0.51100000000E-03 0.  1.
    9000002   -1    0    0    0    0 -0.00000000000E+00 -0.00000000000E+00  0.00000000000E+00  0.93800000000E+00  0.93800000000E+00 0.  1.
         11    1    1    2    0    0 -0.40353893612E+00 -0.75238530566E-01  0.65595883926E+00  0.77381313595E+00  0.51100000000E-03 0.  1.
    9000002    1    1    2    0    0  0.15403428849E+00  0.43299189840E-01  0.15362534965E+00  0.96387039063E+00  0.93800000000E+00 0.  1.
         22    1    1    2    0    0  0.24950464762E+00  0.31939340726E-01  0.31904157784E+01  0.32003164734E+01  0.00000000000E+00 0.  1.
</event>
<event>
 5    1  0.1560836E+002  0.1599654E+01  0.7818608E-02  0.3353739E+00
         11   -1    0    0    0    0  0.00000000000E+00  0.00000000000E+00  0.39999999674E+01  0.40000000000E+01  0.51100000000E-03 0. -1.
    9000002   -1    0    0    0    0 -0.00000000000E+00 -0.00000000000E+00  0.00000000000E+00  0.93800000000E+00  0.93800000000E+00 0. -1.
         11    1    1    2    0    0 -0.25725515045E-01 -0.30435349495E-01  0.28902337073E+00  0.29175826051E+00  0.51100000000E-03 0. -1.
    9000002    1    1    2    0    0  0.34169523772E+00  0.36352146311E+00  0.17037734036E+00  0.10759999664E+01  0.93800000000E+00 0. -1.
         22    1    1    2    0    0 -0.31596972268E+00 -0.33308611362E+00  0.35405992563E+01  0.35702417731E+01  0.00000000000E+00 0. -1.
</event>
<event>
 5    1  0.1560836E+002  0.1599672E+01  0.7818608E-02  0.3353720E+00
         11   -1    0    0    0    0  0.00000000000E+00  0.00000000000E+00  0.39999999674E+01  0.40000000000E+01  0.51100000000E-03 0.  1.
    9000002   -1    0    0    0    0 -0.00000000000E+00 -0.00000000000E+00  0.00000000000E+00  0.93800000000E+00  0.93800000000E+00 0. -1.
         11    1    1    2    0    0  0.16674794968E-01 -0.44696299982E-01  0.63638424986E+00  0.63817002641E+00  0.51100000000E-03 0.  1.
    9000002    1    1    2    0    0 -0.94816458631E-01  0.26837963261E+00  0.53976819381E-01  0.98172057382E+00  0.93800000000E+00 0. -1.
         22    1    1    2    0    0  0.78141663663E-01 -0.22368333263E+00  0.33096388981E+01  0.33181093998E+01  0.00000000000E+00 0.  1.
</event>
<event>
 5    1  0.1560836E+002  0.1598888E+01  0.7818608E-02  0.3354572E+00
         11   -1    0    0    0    0  0.00000000000E+00  0.00000000000E+00  0.39999999674E+01  0.40000000000E+01  0.51100000000E-03 0. -1.
    9000002   -1    0    0    0    0 -0.00000000000E+00 -0.00000000000E+00  0.00000000000E+00  0.93800000000E+00  0.93800000000E+00 0.  1.
         11    1    1    2    0    0 -0.15821292487E+00  0.11354228035E+00  0.14559848901E+01  0.14689504554E+01  0.51100000000E-03 0. -1.
    9000002    1    1    2    0    0  0.41177207532E+00 -0.21378262964E+00  0.14719736578E+00  0.10567735421E+01  0.93800000000E+00 0.  1.
         22    1    1    2    0    0 -0.25355915044E+00  0.10024034930E+00  0.23968177115E+01  0.24122760025E+01  0.00000000000E+00 0. -1.
</event>
<event>
 5    1  0.1560836E+002  0.1599677E+01  0.7818608E-02  0.3353715E+00
         11   -1    0    0    0    0  0.00000000000E+00  0.00000000000E+00  0.39999999674E+01  0.40000000000E+01  0.51100000000E-03 0. -1.
    9000002   -1    0    0    0    0 -0.00000000000E+00 -0.00000000000E+00  0.00000000000E+00  0.93800000000E+00  0.93800000000E+00 0.  1.
         11    1    1    2    0    0  0.68817680583E-01  0.24560599581E+00  0.19828762770E+01  0.19992140379E+01  0.51100000000E-03 0. -1.
    9000002    1    1    2    0    0 -0.13260281190E+00 -0.47631893866E+00  0.16719394308E+00  0.10734342326E+01  0.93800000000E+00 0.  1.
         22    1    1    2    0    0  0.63785131317E-01  0.23071294285E+00  0.18499297473E+01  0.18653517295E+01  0.00000000000E+00 0.  1.
</event>
<event>
 5    1  0.1560836E+002  0.1599676E+01  0.7818608E-02  0.3353715E+00
         11   -1    0    0    0    0  0.00000000000E+00  0.00000000000E+00  0.39999999674E+01  0.40000000000E+01  0.51100000000E-03 0.  1.
    9000002   -1    0    0    0    0 -0.00000000000E+00 -0.00000000000E+00  0.00000000000E+00  0.93800000000E+00  0.93800000000E+00 0. -1.
         11    1    1    2    0    0 -0.83671600888E-01 -0.24439478942E+00  0.13591118287E+01  0.13834431589E+01  0.51100000000E-03 0.  1.
    9000002    1    1    2    0    0  0.22258898678E+00  0.65663568167E+00  0.34294602896E+00  0.12158010751E+01  0.93800000000E+00 0. -1.
         22    1    1    2    0    0 -0.13891738590E+00 -0.41224089225E+00  0.22979421097E+01  0.23387557660E+01  0.00000000000E+00 0.  1.
</event>
<event>
 5    1  0.1560836E+002  0.1599672E+01  0.7818608E-02  0.3353719E+00
         11   -1    0    0    0    0  0.00000000000E+00  0.00000000000E+00  0.39999999674E+01  0.40000000000E+01  0.51100000000E-03 0.  1.
    9000002   -1    0    0    0    0 -0.00000000000E+00 -0.00000000000E+00  0.00000000000E+00  0.93800000000E+00  0.93800000000E+00 0.  1.
         11    1    1    2    0    0 -0.58129375524E-02  0.30019405956E-01  0.45902191798E+00  0.46003949535E+00  0.51100000000E-03 0.  1.
    9000002    1    1    2    0    0  0.49323394835E-01 -0.24465352870E+00  0.41379764940E-01  0.97151656256E+00  0.93800000000E+00 0.  1.
         22    1    1    2    0    0 -0.43510457282E-01  0.21463412275E+00  0.34995982844E+01  0.35064439421E+01  0.00000000000E+00 0.  1.
</event>
<event>
 5    1  0.1560836E+002  0.1599521E+01  0.7818608E-02  0.3353883E+00
         11   -1    0    0    0    0  0.00000000000E+00  0.00000000000E+00  0.39999999674E+01  0.40000000000E+01  0.51100000000E-03 0.  1.
    9000002   -1    0    0    0    0 -0.00000000000E+00 -0.00000000000E+00  0.00000000000E+00  0.93800000000E+00  0.93800000000E+00 0.  1.
         11    1    1    2    0    0 -0.46829173627E-01 -0.94155765776E-02  0.84458374878E+00  0.84593356383E+00  0.51100000000E-03 0.  1.
    9000002    1    1    2    0    0  0.25739209710E+00  0.87176037379E-01  0.49264039081E-01  0.97781455230E+00  0.93800000000E+00 0.  1.
         22    1    1    2    0    0 -0.21056292347E+00 -0.77760460801E-01  0.31061521795E+01  0.31142518839E+01  0.00000000000E+00 0.  1.
</event>
<event>
 5    1  0.1560836E+002  0.1548925E+01  0.7818608E-02  0.3410735E+00
         11   -1    0    0    0    0  0.00000000000E+00  0.00000000000E+00  0.39999999674E+01  0.40000000000E+01  0.51100000000E-03 0.  1.
    9000002   -1    0    0    0    0 -0.00000000000E+00 -0.00000000000E+00  0.00000000000E+00  0.93800000000E+00  0.93800000000E+00 0. -1.
         11    1    1    2    0    0 -0.69870919812E-01  0.16236077138E+00  0.52124846108E+00  0.55040274782E+00  0.51100000000E-03 0.  1.
    9000002    1    1    2    0    0  0.86185502293E-01  0.99931847173E-01  0.49752947243E-01  0.94854291977E+00  0.93800000000E+00 0. -1.
         22    1    1    2    0    0 -0.16314582480E-01 -0.26229261855E+00  0.34289985590E+01  0.34390543324E+01  0.00000000000E+00 0.  1.
</event>
<event>
 5    1  0.1560836E+002  0.1599672E+01  0.7818608E-02  0.3353719E+00
         11   -1    0    0    0    0  0.00000000000E+00  0.00000000000E+00  0.39999999674E+01  0.40000000000E+01  0.51100000000E-03 0.  1.
    9000002   -1    0    0    0    0 -0.00000000000E+00 -0.00000000000E+00  0.00000000000E+00  0.93800000000E+00  0.93800000000E+00 0. -1.
         11    1    1    2    0    0  0.34507781054E+00 -0.18164949725E+00  0.21558519669E+01  0.21908384695E+01  0.51100000000E-03 0.  1.
    9000002    1    1    2    0    0 -0.58718547628E+00  0.30771737450E+00  0.31109936680E+00  0.11900015051E+01  0.93800000000E+00 0. -1.
         22    1    1    2    0    0  0.24210766574E+00 -0.12606787725E+00  0.15330486337E+01  0.15571600254E+01  0.00000000000E+00 0.  1.
</event>
<event>
 5    1  0.1560836E+002  0.1599557E+01  0.7818608E-02  0.3353844E+00
         11   -1    0    0    0    0  0.00000000000E+00  0.00000000000E+00  0.39999999674E+01  0.40000000000E+01  0.51100000000E-03 0. -1.
    9000002   -1    0    0    0    0 -0.00000000000E+00 -0.00000000000E+00  0.00000000000E+00  0.93800000000E+00  0.93800000000E+00 0. -1.
         11    1    1    2    0    0  0.53384686487E-01 -0.71699657692E-01  0.12194284475E+01  0.12227006033E+01  0.51100000000E-03 0. -1.
    9000002    1    1    2    0    0 -0.14769655434E+00  0.26226093611E+00  0.60536664274E-01  0.98696694904E+00  0.93800000000E+00 0. -1.
         22    1    1    2    0    0  0.94311867852E-01 -0.19056127842E+00  0.27200348556E+01  0.27283324476E+01  0.00000000000E+00 0. -1.
</event>
<event>
 5    1  0.1560836E+002  0.1599670E+01  0.7818608E-02  0.3353721E+00
         11   -1    0    0    0    0  0.00000000000E+00  0.00000000000E+00  0.39999999674E+01  0.40000000000E+01  0.51100000000E-03 0. -1.
    9000002   -1    0    0    0    0 -0.00000000000E+00 -0.00000000000E+00  0.00000000000E+00  0.93800000000E+00  0.93800000000E+00 0. -1.
         11    1    1    2    0    0 -0.30450274816E+00  0.14828548155E+00  0.16061868413E+01  0.16415075199E+01  0.51100000000E-03 0. -1.
    9000002    1    1    2    0    0  0.67848218174E+00 -0.32464315097E+00  0.41039197722E+00  0.12704317460E+01  0.93800000000E+00 0. -1.
         22    1    1    2    0    0 -0.37397943357E+00  0.17635766941E+00  0.19834211489E+01  0.20260607340E+01  0.00000000000E+00 0. -1.
</event>
<event>
 5    1  0.1560836E+002  0.1577619E+01  0.7818608E-02  0.3378019E+00
         11   -1    0    0    0    0  0.00000000000E+00  0.00000000000E+00  0.39999999674E+01  0.40000000000E+01  0.51100000000E-03 0.  1.
    9000002   -1    0    0    0    0 -0.00000000000E+00 -0.00000000000E+00  0.00000000000E+00  0.93800000000E+00  0.93800000000E+00 0. -1.
         11    1    1    2    0    0  0.87561553675E-02  0.72870965303E-01  0.17450233874E+00  0.18930973347E+00  0.51100000000E-03 0.  1.
    9000002    1    1    2    0    0 -0.23899515192E+00  0.42487989813E-01  0.56118186903E-01  0.97052416911E+00  0.93800000000E+00 0. -1.
         22    1    1    2    0    0  0.23023899655E+00 -0.11535895512E+00  0.37693794417E+01  0.37781660974E+01  0.00000000000E+00 0.  1.
</event>
<event>
 5    1  0.1560836E+002  0.1599592E+01  0.7818608E-02  0.3353806E+00
         11   -1    0    0    0    0  0.00000000000E+00  0.00000000000E+00  0.39999999674E+01  0.40000000000E+01  0.51100000000E-03 0.  1.
    9000002   -1    0    0    0    0 -0.00000000000E+00 -0.00000000000E+00  0.00000000000E+00  0.93800000000E+00  0.93800000000E+00 0.  1.
         11    1    1    2    0    0 -0.62393195318E-01  0.10440881642E-01  0.70380378502E+00  0.70664131762E+00  0.51100000000E-03 0.  1.
    9000002    1    1    2    0    0  0.39078805329E+00 -0.70818252046E-01  0.10642435991E+00  0.10241585189E+01  0.93800000000E+00 0.  1.
         22    1    1    2    0    0 -0.32839485797E+00  0.60377370405E-01  0.31897718224E+01  0.32072001635E+01  0.00000000000E+00 0.  1.
</event>
<event>
 5    1  0.1560836E+002  0.1599103E+01  0.7818608E-02  0.3354338E+00
         11   -1    0    0    0    0  0.00000000000E+00  0.00000000000E+00  0.39999999674E+01  0.40000000000E+01  0.51100000000E-03 0.  1.
    9000002   -1    0    0    0    0 -0.00000000000E+00 -0.00000000000E+00  0.00000000000E+00  0.93800000000E+00  0.93800000000E+00 0.  1.
         11    1    1    2    0    0  0.35672595198E+00 -0.32427093512E+00  0.23191661744E+01  0.23687416596E+01  0.51100000000E-03 0.  1.
    9000002    1    1    2    0    0 -0.52263586170E+00  0.48356166459E+00  0.36417039349E+00  0.12326573745E+01  0.93800000000E+00 0.  1.
         22    1    1    2    0    0  0.16590990971E+00 -0.15929072947E+00  0.13166633995E+01  0.13366009659E+01  0.00000000000E+00 0. -1.
</event>
<event>
 5    1  0.1560836E+002  0.1598665E+01  0.7818608E-02  0.3354814E+00
         11   -1    0    0    0    0  0.00000000000E+00  0.00000000000E+00  0.39999999674E+01  0.40000000000E+01  0.51100000000E-03 0.  1.
    9000002   -1    0    0    0    0 -0.00000000000E+00 -0.00000000000E+00  0.00000000000E+00  0.93800000000E+00  0.93800000000E+00 0. -1.
         11    1    1    2    0    0 -0.58176384284E-01 -0.10376427947E+00  0.12683593767E+01  0.12739259346E+01  0.51100000000E-03 0.  1.
    9000002    1    1    2    0    0  0.22915344280E+00  0.22193743854E+00  0.68815626732E-01  0.99315009815E+00  0.93800000000E+00 0. -1.
         22    1    1    2    0    0 -0.17097705851E+00 -0.11817315907E+00  0.26628249639E+01  0.26709239672E+01  0.00000000000E+00 0.  1.
</event>
<event>
 5    1  0.1560836E+002  0.1572021E+01  0.7818608E-02  0.3384303E+00
         11   -1    0    0    0    0  0.00000000000E+00  0.00000000000E+00  0.39999999674E+01  0.40000000000E+01  0.51100000000E-03 0. -1.
    9000002   -1    0    0    0    0 -0.00000000000E+00 -0.00000000000E+00  0.00000000000E+00  0.93800000000E+00  0.93800000000E+00 0.  1.
         11    1    1    2    0    0 -0.24799833623E+00 -0.12994964633E+00  0.19688074805E+01  0.19886159111E+01  0.51100000000E-03 0. -1.
    9000002    1    1    2    0    0  0.38328256734E+00 -0.12376245542E+00  0.13289025430E+00  0.10294301781E+01  0.93800000000E+00 0.  1.
         22    1    1    2    0    0 -0.13528423111E+00  0.25371210176E+00  0.18983022325E+01  0.19199539108E+01  0.00000000000E+00 0. -1.
</event>
<event>
 5    1  0.1560836E+002  0.1599575E+01  0.7818608E-02  0.3353825E+00
         11   -1    0    0    0    0  0.00000000000E+00  0.00000000000E+00  0.39999999674E+01  0.40000000000E+01  0.51100000000E-03 0. -1.
    9000002   -1    0    0    0    0 -0.00000000000E+00 -0.00000000000E+00  0.00000000000E+00  0.93800000000E+00  0.93800000000E+00 0. -1.
         11    1    1    2    0    0  0.88225408329E-02  0.76980054427E-01  0.77905860218E+00  0.78290250527E+00  0.51100000000E-03 0. -1.
    9000002    1    1    2    0    0 -0.27495442881E-01 -0.34156302287E+00  0.78750866854E-01  0.10017319986E+01  0.93800000000E+00 0. -1.
         22    1    1    2    0    0  0.18672902048E-01  0.26458296845E+00  0.31421904983E+01  0.31533654961E+01  0.00000000000E+00 0. -1.
</event>
<event>
 5    1  0.1560836E+002  0.1599644E+01  0.7818608E-02  0.3353750E+00
         11   -1    0    0    0    0  0.00000000000E+00  0.00000000000E+00  0.39999999674E+01  0.40000000000E+01  0.51100000000E-03 0.  1.
    9000002   -1    0    0    0    0 -0.00000000000E+00 -0.00000000000E+00  0.00000000000E+00  0.93800000000E+00  0.93800000000E+00 0.  1.
         11    1    1    2    0    0  0.18101487252E-01  0.13628799505E+00  0.13557468199E+01  0.13627001806E+01  0.51100000000E-03 0.  1.
    9000002    1    1    2    0    0 -0.64181862276E-01 -0.37759859099E+00  0.98768867565E-01  0.10179878666E+01  0.93800000000E+00 0.  1.
         22    1    1    2    0    0  0.46080375024E-01  0.24131059593E+00  0.25454842799E+01  0.25573119528E+01  0.00000000000E+00 0.  1.
</event>
<event>
 5    1  0.1560836E+002  0.1597723E+01  0.7818608E-02  0.3355838E+00
         11   -1    0    0    0    0  0.00000000000E+00  0.00000000000E+00  0.39999999674E+01  0.40000000000E+01  0.51100000000E-03 0.  1.
    9000002   -1    0    0    0    0 -0.00000000000E+00 -0.00000000000E+00  0.00000000000E+00  0.93800000000E+00  0.93800000000E+00 0.  1.
         11    1    1    2    0    0  0.66580244438E-02  0.33988135616E-01  0.32065877894E+00  0.32252416388E+00  0.51100000000E-03 0.  1.
    9000002    1    1    2    0    0  0.25153030356E+00 -0.28798127514E+00  0.10000583018E+00  0.10178633870E+01  0.93800000000E+00 0.  1.
         22    1    1    2    0    0 -0.25818832801E+00  0.25399313952E+00  0.35793353582E+01  0.35976124492E+01  0.00000000000E+00 0.  1.
</event>
<event>
 5    1  0.1560836E+002  0.1599677E+01  0.7818608E-02  0.3353714E+00
         11   -1    0    0    0    0  0.00000000000E+00  0.00000000000E+00  0.39999999674E+01  0.40000000000E+01  0.51100000000E-03 0.  1.
    9000002   -1    0    0    0    0 -0.00000000000E+00 -0.00000000000E+00  0.00000000000E+00  0.93800000000E+00  0.93800000000E+00 0. -1.
         11    1    1    2    0    0 -0.13433990376E+00  0.60469165659E-01  0.16095760306E+01  0.16163041140E+01  0.51100000000E-03 0.  1.
    9000002    1    1    2    0    0  0.32531899826E+00 -0.14825984965E+00  0.85772412986E-01  0.10074792010E+01  0.93800000000E+00 0. -1.
         22    1    1    2    0    0 -0.19097909451E+00  0.87790683986E-01  0.23046515238E+01  0.23142166850E+01  0.00000000000E+00 0.  1.
</event>
<event>
 5    1  0.1560836E+002  0.1593867E+01  0.7818608E-02  0.3360047E+00
         11   -1    0    0    0    0  0.00000000000E+00  0.00000000000E+00  0.39999999674E+01  0.40000000000E+01  0.51100000000E-03 0.  1.
    9000002   -1    0    0    0    0 -0.00000000000E+00 -0.00000000000E+00  0.00000000000E+00  0.93800000000E+00  0.93800000000E+00 0.  1.
         11    1    1    2    0    0 -0.22895515518E+00 -0.21058617780E+00  0.22928821935E+01  0.23138876411E+01  0.51100000000E-03 0.  1.
    9000002    1    1    2    0    0  0.29846510231E+00  0.47233665302E+00  0.22153907331E+00  0.11140497709E+01  0.93800000000E+00 0.  1.
         22    1    1    2    0    0 -0.69509947132E-01 -0.26175047522E+00  0.14855787005E+01  0.15100625879E+01  0.00000000000E+00 0.  1.
</event>
<event>
 5    1  0.1560836E+002  0.1599672E+01  0.7818608E-02  0.3353719E+00
         11   -1    0    0    0    0  0.00000000000E+00  0.00000000000E+00  0.39999999674E+01  0.40000000000E+01  0.51100000000E-03 0. -1.
    9000002   -1    0    0    0    0 -0.00000000000E+00 -0.00000000000E+00  0.00000000000E+00  0.93800000000E+00  0.93800000000E+00 0.  1.
         11    1    1    2    0    0 -0.88313058772E-02 -0.10341028373E-01  0.23475257094E+00  0.23514667659E+00  0.51100000000E-03 0. -1.
    9000002    1    1    2    0    0  0.15339953889E+00  0.15574096596E+00  0.31676599001E-01  0.96365661619E+00  0.93800000000E+00 0.  1.
         22    1    1    2    0    0 -0.14456823302E+00 -0.14539993759E+00  0.37335707974E+01  0.37391967072E+01  0.00000000000E+00 0. -1.
</event>
<event>
 5    1  0.1560836E+002  0.1599677E+01  0.7818608E-02  0.3353715E+00
         11   -1    0    0    0    0  0.00000000000E+00  0.00000000000E+00  0.39999999674E+01  0.40000000000E+01  0.51100000000E-03 0.  1.
    9000002   -1    0    0    0    0 -0.00000000000E+00 -0.00000000000E+00  0.00000000000E+00  0.93800000000E+00  0.93800000000E+00 0.  1.
         11    1    1    2    0    0  0.62365335955E-02  0.16219913114E+00  0.16772423130E+01  0.16850784819E+01  0.51100000000E-03 0.  1.
    9000002    1    1    2    0    0 -0.16518835834E-01 -0.37758122274E+00  0.96085360343E-01  0.10158330809E+01  0.93800000000E+00 0.  1.
         22    1    1    2    0    0  0.10282302239E-01  0.21538209160E+00  0.22266722940E+01  0.22370884372E+01  0.00000000000E+00 0.  1.
</event>
<event>
 5    1  0.1560836E+002  0.1596919E+01  0.7818608E-02  0.3356714E+00
         11   -1    0    0    0    0  0.00000000000E+00  0.00000000000E+00  0.39999999674E+01  0.40000000000E+01  0.51100000000E-03 0. -1.
    9000002   -1    0    0    0    0 -0.00000000000E+00 -0.00000000000E+00  0.00000000000E+00  0.93800000000E+00  0.93800000000E+00 0.  1.
         11    1    1    2    0    0  0.37516173425E-01  0.50174367237E-01  0.10003627738E+01  0.10023227378E+01  0.51100000000E-03 0. -1.
    9000002    1    1    2    0    0  0.58529944955E-01 -0.26431789673E+00  0.50896620146E-01  0.97761146215E+00  0.93800000000E+00 0.  1.
         22    1    1    2    0    0 -0.96046118380E-01  0.21414352949E+00  0.29487405735E+01  0.29580658001E+01  0.00000000000E+00 0. -1.
</event>
<event>
 5    1  0.1560836E+002  0.1597101E+01  0.7818608E-02  0.3356516E+00
         11   -1    0    0    0    0  0.00000000000E+00  0.00000000000E+00  0.39999999674E+01  0.40000000000E+01  0.51100000000E-03 0.  1.
    9000002   -1    0    0    0    0 -0.00000000000E+00 -0.00000000000E+00  0.00000000000E+00  0.93800000000E+00  0.93800000000E+00 0. -1.
         11    1    1    2    0    0 -0.16177053022E-01 -0.22473139265E-01  0.12411944598E+01  0.12415033980E+01  0.51100000000E-03 0.  1.
    9000002    1    1    2    0    0  0.18045342630E+00  0.19810944337E+00  0.49758485155E-01  0.97679613915E+00  0.93800000000E+00 0. -1.
         22    1    1    2    0    0 -0.16427637328E+00 -0.17563630410E+00  0.27090470224E+01  0.27197004629E+01  0.00000000000E+00 0.  1.
</event>
<event>
 5    1  0.1560836E+002  0.1597124E+01  0.7818608E-02  0.3356491E+00
         11   -1    0    0    0    0  0.00000000000E+00  0.00000000000E+00  0.39999999674E+01  0.40000000000E+01  0.51100000000E-03 0.  1.
    9000002   -1    0    0    0    0 -0.00000000000E+00 -0.00000000000E+00  0.00000000000E+00  0.93800000000E+00  0.93800000000E+00 0.  1.
         11    1    1    2    0    0  0.26038696746E+00 -0.18014759519E-01  0.98000561579E+00  0.10141682171E+01  0.51100000000E-03 0.  1.
    9000002    1    1    2    0    0 -0.74989490334E+00  0.84240439512E-01  0.41647428344E+00  0.12738656312E+01  0.93800000000E+00 0.  1.
         22    1    1    2    0    0  0.48950793588E+00 -0.66225679993E-01  0.26035200681E+01  0.26499661517E+01  0.00000000000E+00 0.  1.
</event>
<event>
 5    1  0.1560836E+002  0.1599507E+01  0.7818608E-02  0.3353898E+00
         11   -1    0    0    0    0  0.00000000000E+00  0.00000000000E+00  0.39999999674E+01  0.40000000000E+01  0.51100000000E-03 0. -1.
    9000002   -1    0    0    0    0 -0.00000000000E+00 -0.00000000000E+00  0.00000000000E+00  0.93800000000E+00  0.93800000000E+00 0.  1.
         11    1    1    2    0    0 -0.64421755322E-01 -0.33931654511E-01  0.88793908771E+00  0.89091952742E+00  0.51100000000E-03 0. -1.
    9000002    1    1    2    0    0  0.22899136418E+00  0.16091438507E+00  0.52292564807E-01  0.98025965771E+00  0.93800000000E+00 0.  1.
         22    1    1    2    0    0 -0.16456960886E+00 -0.12698273056E+00  0.30597683148E+01  0.30668208149E+01  0.00000000000E+00 0. -1.
</event>
<event>
 5    1  0.1560836E+002  0.1599617E+01  0.7818608E-02  0.3353779E+00
         11   -1    0    0    0    0  0.00000000000E+00  0.00000000000E+00  0.39999999674E+01  0.40000000000E+01  0.51100000000E-03 0. -1.
    9000002   -1    0    0    0    0 -0.00000000000E+00 -0.00000000000E+00  0.00000000000E+00  0.93800000000E+00  0.93800000000E+00 0. -1.
         11    1    1    2    0    0 -0.16390325916E+00  0.72305671822E-01  0.10057548883E+01  0.10215848202E+01  0.51100000000E-03 0. -1.
    9000002    1    1    2    0    0  0.59635006080E+00 -0.29504756791E+00  0.31361788910E+00  0.11920094977E+01  0.93800000000E+00 0. -1.
         22    1    1    2    0    0 -0.43244680164E+00  0.22274189609E+00  0.26806271900E+01  0.27244056820E+01  0.00000000000E+00 0. -1.
</event>
<event>
 5    1  0.1560836E+002  0.1599671E+01  0.7818608E-02  0.3353720E+00
         11   -1    0    0    0    0  0.00000000000E+00  0.00000000000E+00  0.39999999674E+01  0.40000000000E+01  0.51100000000E-03 0.  1.
    9000002   -1    0    0    0    0 -0.00000000000E+00 -0.00000000000E+00  0.00000000000E+00  0.93800000000E+00  0.93800000000E+00 0.  1.
         11    1    1    2    0    0 -0.76228364099E-01  0.67374790370E-01  0.11226329184E+01  0.11272333638E+01  0.51100000000E-03 0.  1.
    9000002    1    1    2    0    0  0.25713249355E+00 -0.23523342491E+00  0.81425772072E-01  0.10039551981E+01  0.93800000000E+00 0.  1.
         22    1    1    2    0    0 -0.18090412945E+00  0.16785863454E+00  0.27959412769E+01  0.28068114381E+01  0.00000000000E+00 0.  1.
</event>
<event>
 5    1  0.1560836E+002  0.1585087E+01  0.7818608E-02  0.3369710E+00
         11   -1    0    0    0    0  0.00000000000E+00  0.00000000000E+00  0.39999999674E+01  0.40000000000E+01  0.51100000000E-03 0.  1.
    9000002   -1    0    0    0    0 -0.00000000000E+00 -0.00000000000E+00  0.00000000000E+00  0.93800000000E+00  0.93800000000E+00 0.  1.
         11    1    1    2    0    0 -0.70680967437E-01  0.11599938066E+00  0.16156445145E+01  0.16213448473E+01  0.51100000000E-03 0.  1.
    9000002    1    1    2    0    0  0.22069384963E+00  0.62546254599E-01  0.46037490766E-01  0.96673743063E+00  0.93800000000E+00 0.  1.
         22    1    1    2    0    0 -0.15001288220E+00 -0.17854563526E+00  0.23383179621E+01  0.23499177221E+01  0.00000000000E+00 0.  1.
</event>
<event>
 5    1  0.1560836E+002  0.1525542E+01  0.7818608E-02  0.3438366E+00
         11   -1    0    0    0    0  0.00000000000E+00  0.00000000000E+00  0.39999999674E+01  0.40000000000E+01  0.51100000000E-03 0. -1.
    9000002   -1    0    0    0    0 -0.00000000000E+00 -0.00000000000E+00  0.00000000000E+00  0.93800000000E+00  0.93800000000E+00 0.  1.
         11    1    1    2    0    0  0.22332173035E+00 -0.26815096152E+00  0.12642599571E+01  0.13115376600E+01  0.51100000000E-03 0. -1.
    9000002    1    1    2    0    0 -0.14377284105E-01  0.16137768687E+00  0.74393789042E-01  0.95479207159E+00  0.93800000000E+00 0.  1.
         22    1    1    2    0    0 -0.20894444625E+00  0.10677327465E+00  0.26613462212E+01  0.26716702684E+01  0.00000000000E+00 0. -1.
</event>
<event>
 5    1  0.1560836E+002  0.1562025E+01  0.7818608E-02  0.3395640E+00
         11   -1    0    0    0    0  0.00000000000E+00  0.00000000000E+00  0.39999999674E+01  0.40000000000E+01  0.51100000000E-03 0. -1.
    9000002   -1    0    0    0    0 -0.00000000000E+00 -0.00000000000E+00  0.00000000000E+00  0.93800000000E+00  0.93800000000E+00 0. -1.
         11    1    1    2    0    0 -0.68481778471E+00 -0.33293764402E+00  0.21531279984E+01  0.22838089481E+01  0.51100000000E-03 0. -1.
    9000002    1    1    2    0    0  0.86336140395E+00  0.22607066334E+00  0.66763571427E+00  0.14567368690E+01  0.93800000000E+00 0. -1.
         22    1    1    2    0    0 -0.17854361925E+00  0.10686698068E+00  0.11792362547E+01  0.11974541828E+01  0.00000000000E+00 0. -1.
</event>
<event>
 5    1  0.1560836E+002  0.1599667E+01  0.7818608E-02  0.3353725E+00
         11   -1    0    0    0    0  0.00000000000E+00  0.00000000000E+00  0.39999999674E+01  0.40000000000E+01  0.51100000000E-03 0. -1.
    9000002   -1    0    0    0    0 -0.00000000000E+00 -0.00000000000E+00  0.00000000000E+00  0.93800000000E+00  0.93800000000E+00 0.  1.
         11    1    1    2    0    0  0.27479111820E-02  0.30537282732E-02  0.71114192831E-01  0.71234583000E-01  0.51100000000E-03 0. -1.
    9000002    1    1    2    0    0 -0.17561242654E+00 -0.12508039665E+00  0.30811909207E-01  0.96295285644E+00  0.93800000000E+00 0.  1.
         22    1    1    2    0    0  0.17286451535E+00  0.12202666838E+00  0.38980738653E+01  0.39038125606E+01  0.00000000000E+00 0. -1.
</event>
<event>
 5    1  0.1560836E+002  0.1597909E+01  0.7818608E-02  0.3355635E+00
         11   -1    0    0    0    0  0.00000000000E+00  0.00000000000E+00  0.39999999674E+01  0.40000000000E+01  0.51100000000E-03 0.  1.
    9000002   -1    0    0    0    0 -0.00000000000E+00 -0.00000000000E+00  0.00000000000E+00  0.93800000000E+00  0.93800000000E+00 0.  1.
         11    1    1    2    0    0  0.28642573959E+00 -0.32015253377E+00  0.23306794248E+01  0.23699375924E+01  0.51100000000E-03 0.  1.
    9000002    1    1    2    0    0 -0.46373482941E+00  0.43236155250E+00  0.28442321027E+00  0.11673590136E+01  0.93800000000E+00 0.  1.
         22    1    1    2    0    0  0.17730908982E+00 -0.11220901873E+00  0.13848973323E+01  0.14007033940E+01  0.00000000000E+00 0.  1.
</event>
<event>
 5    1  0.1560836E+002  0.1599674E+01  0.7818608E-02  0.3353717E+00
         11   -1    0    0    0    0  0.00000000000E+00  0.00000000000E+00  0.39999999674E+01  0.40000000000E+01  0.51100000000E-03 0. -1.
    9000002   -1    0    0    0    0 -0.00000000000E+00 -0.00000000000E+00  0.00000000000E+00  0.93800000000E+00  0.93800000000E+00 0.  1.
         11    1    1    2    0    0  0.34659270889E+00 -0.32599572563E+00  0.25252738132E+01  0.25697096746E+01  0.51100000000E-03 0. -1.
    9000002    1    1    2    0    0 -0.50357301469E+00  0.47457294921E+00  0.34146018748E+00  0.12145963629E+01  0.93800000000E+00 0.  1.
         22    1    1    2    0    0  0.15698030580E+00 -0.14857722358E+00  0.11332659666E+01  0.11536939624E+01  0.00000000000E+00 0. -1.
</event>
<event>
 5    1  0.1560836E+002  0.1599677E+01  0.7818608E-02  0.3353714E+00
         11   -1    0    0    0    0  0.00000000000E+00  0.00000000000E+00  0.39999999674E+01  0.40000000000E+01  0.51100000000E-03 0.  1.
    9000002   -1    0    0    0    0 -0.00000000000E+00 -0.00000000000E+00  0.00000000000E+00  0.93800000000E+00  0.93800000000E+00 0.  1.
         11    1    1    2    0    0 -0.11250003909E+00 -0.13072445212E+00  0.18029507617E+01  0.18111810653E+01  0.51100000000E-03 0.  1.
    9000002    1    1    2    0    0  0.24442195262E+00  0.28399141257E+00  0.94402132950E-01  0.10144698005E+01  0.93800000000E+00 0.  1.
         22    1    1    2    0    0 -0.13192191353E+00 -0.15326696045E+00  0.21026470727E+01  0.21123491342E+01  0.00000000000E+00 0.  1.
</event>
<event>
 5    1  0.1560836E+002  0.1593181E+01  0.7818608E-02  0.3360798E+00
         11   -1    0    0    0    0  0.00000000000E+00  0.00000000000E+00  0.39999999674E+01  0.40000000000E+01  0.51100000000E-03 0. -1.
    9000002   -1    0    0    0    0 -0.00000000000E+00 -0.00000000000E+00  0.00000000000E+00  0.93800000000E+00  0.93800000000E+00 0. -1.
         11    1    1    2    0    0 -0.36806566157E-02 -0.13912182954E-01  0.23913925375E-01  0.27914745485E-01  0.51100000000E-03 0. -1.
    9000002    1    1    2    0    0  0.76625218130E-02 -0.19342454429E+00  0.29671085420E-01  0.95822551724E+00  0.93800000000E+00 0. -1.
         22    1    1    2    0    0 -0.39818651973E-02  0.20733672724E+00  0.39464149566E+01  0.39518597373E+01  0.00000000000E+00 0. -1.
</event>
<event>
 5    1  0.1560836E+002  0.1599532E+01  0.7818608E-02  0.3353872E+00
         11   -1    0    0    0    0  0.00000000000E+00  0.00000000000E+00  0.39999999674E+01  0.40000000000E+01  0.51100000000E-03 0.  1.
    9000002   -1    0    0    0    0 -0.00000000000E+00 -0.00000000000E+00  0.00000000000E+00  0.93800000000E+00  0.93800000000E+00 0.  1.
         11    1    1    2    0    0 -0.35318112358E-02 -0.31242066237E+00  0.20313402297E+01  0.20552280977E+01  0.51100000000E-03 0.  1.
    9000002    1    1    2    0    0  0.18470143539E-01  0.55764001834E+00  0.21548340665E+00  0.11124660151E+01  0.93800000000E+00 0.  1.
         22    1    1    2    0    0 -0.14938332303E-01 -0.24521935597E+00  0.17531763310E+01  0.17703058871E+01  0.00000000000E+00 0.  1.
</event>
<event>
 5    1  0.1560836E+002  0.1598640E+01  0.7818608E-02  0.3354841E+00
         11   -1    0    0    0    0  0.00000000000E+00  0.00000000000E+00  0.39999999674E+01  0.40000000000E+01  0.51100000000E-03 0.  1.
    9000002   -1    0    0    0    0 -0.00000000000E+00 -0.00000000000E+00  0.00000000000E+00  0.93800000000E+00  0.93800000000E+00 0. -1.
         11    1    1    2    0    0  0.13188127101E-01  0.10928861771E+00  0.94659856323E+00  0.95297797964E+00  0.51100000000E-03 0.  1.
    9000002    1    1    2    0    0  0.58647059062E-01 -0.37291290344E+00  0.96703692245E-01  0.10157259055E+01  0.93800000000E+00 0. -1.
         22    1    1    2    0    0 -0.71835186164E-01  0.26362428573E+00  0.29566977119E+01  0.29692961148E+01  0.00000000000E+00 0.  1.
</event>
<event>
 5    1  0.1560836E+002  0.1592707E+01  0.7818608E-02  0.3361318E+00
         11   -1    0    0    0    0  0.00000000000E+00  0.00000000000E+00  0.39999999674E+01  0.40000000000E+01  0.51100000000E-03 0.  1.
    9000002   -1    0    0    0    0 -0.00000000000E+00 -0.00000000000E+00  0.00000000000E+00  0.93800000000E+00  0.93800000000E+00 0. -1.
         11    1    1    2    0    0 -0.10573527741E+00 -0.46466834271E-01  0.16921485868E+01  0.16960855570E+01  0.51100000000E-03 0.  1.
    9000002    1    1    2    0    0  0.11014972359E+00  0.29523119770E+00  0.71856632405E-01  0.99211985028E+00  0.93800000000E+00 0. -1.
         22    1    1    2    0    0 -0.44144461817E-02 -0.24876436343E+00  0.22359947481E+01  0.22497945927E+01  0.00000000000E+00 0.  1.
</event>
<event>
 5    1  0.1560836E+002  0.1599658E+01  0.7818608E-02  0.3353735E+00
         11   -1    0    0    0    0  0.00000000000E+00  0.00000000000E+00  0.39999999674E+01  0.40000000000E+01  0.51100000000E-03 0.  1.
    9000002   -1    0    0    0    0 -0.00000000000E+00 -0.00000000000E+00  0.00000000000E+00  0.93800000000E+00  0.93800000000E+00 0.  1.
         11    1    1    2    0    0 -0.32589260260E-01  0.17801074963E-01  0.46753144735E+00  0.46900410823E+00  0.51100000000E-03 0.  1.
    9000002    1    1    2    0    0  0.30166290436E+00 -0.15270241916E+00  0.76568361632E-01  0.10000126253E+01  0.93800000000E+00 0.  1.
         22    1    1    2    0    0 -0.26907364410E+00  0.13490134420E+00  0.34559001584E+01  0.34689832665E+01  0.00000000000E+00 0.  1.
</event>
<event>
 5    1  0.1560836E+002  0.1598396E+01  0.7818608E-02  0.3355106E+00
         11   -1    0    0    0    0  0.00000000000E+00  0.00000000000E+00  0.39999999674E+01  0.40000000000E+01  0.51100000000E-03 0.  1.
    9000002   -1    0    0    0    0 -0.00000000000E+00 -0.00000000000E+00  0.00000000000E+00  0.93800000000E+00  0.93800000000E+00 0.  1.
         11    1    1    2    0    0  0.11189683990E+00 -0.12153020226E+00  0.88117808406E+00  0.89652973726E+00  0.51100000000E-03 0.  1.
    9000002    1    1    2    0    0 -0.33546558685E+00  0.45660369128E+00  0.22367545936E+00  0.11184358730E+01  0.93800000000E+00 0.  1.
         22    1    1    2    0    0  0.22356874695E+00 -0.33507348902E+00  0.28951464239E+01  0.29230343898E+01  0.00000000000E+00 0.  1.
</event>
<event>
 5    1  0.1560836E+002  0.1599661E+01  0.7818608E-02  0.3353732E+00
         11   -1    0    0    0    0  0.00000000000E+00  0.00000000000E+00  0.39999999674E+01  0.40000000000E+01  0.51100000000E-03 0.  1.
    9000002   -1    0    0    0    0 -0.00000000000E+00 -0.00000000000E+00  0.00000000000E+00  0.93800000000E+00  0.93800000000E+00 0.  1.
         11    1    1    2    0    0  0.15905259786E+00 -0.39982009220E+00  0.24044113422E+01  0.24426108979E+01  0.51100000000E-03 0.  1.
    9000002    1    1    2    0    0 -0.24335193769E+00  0.62003228516E+00  0.31431826068E+00  0.11926022678E+01  0.93800000000E+00 0.  1.
         22    1    1    2    0    0  0.84299339829E-01 -0.22021219297E+00  0.12812703645E+01  0.13027868343E+01  0.00000000000E+00 0.  1.
</event>
<event>
 5    1  0.1560836E+002  0.1599189E+01  0.7818608E-02  0.3354244E+00
         11   -1    0    0    0    0  0.00000000000E+00  0.00000000000E+00  0.39999999674E+01  0.40000000000E+01  0.51100000000E-03 0. -1.
    9000002   -1    0    0    0    0 -0.00000000000E+00 -0.00000000000E+00  0.00000000000E+00  0.93800000000E+00  0.93800000000E+00 0. -1.
         11    1    1    2    0    0 -0.98732262712E-02  0.26847722573E-01  0.65938443779E+00  0.66000483235E+00  0.51100000000E-03 0. -1.
    9000002    1    1    2    0    0  0.17741100190E+00 -0.17516235140E+00  0.41660655307E-01  0.97146081915E+00  0.93800000000E+00 0. -1.
         22    1    1    2    0    0 -0.16753777563E+00  0.14831462883E+00  0.32989548743E+01  0.33065343485E+01  0.00000000000E+00 0. -1.
</event>
<event>
 5    1  0.1560836E+002  0.1510929E+01  0.7818608E-02  0.3456100E+00
         11   -1    0    0    0    0  0.00000000000E+00  0.00000000000E+00  0.39999999674E+01  0.40000000000E+01  0.51100000000E-03 0.  1.
    9000002   -1    0    0    0    0 -0.00000000000E+00 -0.00000000000E+00  0.00000000000E+00  0.93800000000E+00  0.93800000000E+00 0. -1.
         11    1    1    2    0    0  0.20529222830E+00 -0.12151128762E+00  0.43912763480E+00  0.49974316682E+00  0.51100000000E-03 0.  1.
    9000002    1    1    2    0    0  0.64667266033E-01  0.23508262996E+00  0.11046809698E+00  0.97544497469E+00  0.93800000000E+00 0. -1.
         22    1    1    2    0    0 -0.26995949433E+00 -0.11357134234E+00  0.34504042356E+01  0.34628118585E+01  0.00000000000E+00 0.  1.
</event>
<event>
 5    1  0.1560836E+002  0.1599600E+01  0.7818608E-02  0.3353797E+00
         11   -1    0    0    0    0  0.00000000000E+00  0.00000000000E+00  0.39999999674E+01  0.40000000000E+01  0.51100000000E-03 0.  1.
    9000002   -1    0    0    0    0 -0.00000000000E+00 -0.00000000000E+00  0.00000000000E+00  0.93800000000E+00  0.93800000000E+00 0. -1.
         11    1    1    2    0    0  0.34215271792E-02  0.17385534050E-01  0.34910654093E+00  0.34955629258E+00  0.51100000000E-03 0.  1.
    9000002    1    1    2    0    0  0.25137163932E-01 -0.21940151151E+00  0.32386693124E-01  0.96418971067E+00  0.93800000000E+00 0. -1.
         22    1    1    2    0    0 -0.28558691111E-01  0.20201597746E+00  0.36185067333E+01  0.36242539967E+01  0.00000000000E+00 0.  1.
</event>
<event>
 5    1  0.1560836E+002  0.1588496E+01  0.7818608E-02  0.3365944E+00
         11   -1    0    0    0    0  0.00000000000E+00  0.00000000000E+00  0.39999999674E+01  0.40000000000E+01  0.51100000000E-03 0. -1.
    9000002   -1    0    0    0    0 -0.00000000000E+00 -0.00000000000E+00  0.00000000000E+00  0.93800000000E+00  0.93800000000E+00 0.  1.
         11    1    1    2    0    0 -0.35159037677E-01  0.14727450599E+00  0.24568582308E+01  0.24615195643E+01  0.51100000000E-03 0. -1.
    9000002    1    1    2    0    0  0.21617347352E+00 -0.34289993317E+00  0.12030561194E+00  0.10288968729E+01  0.93800000000E+00 0.  1.
         22    1    1    2    0    0 -0.18101443584E+00  0.19562542718E+00  0.14228361246E+01  0.14475835628E+01  0.00000000000E+00 0.  1.
</event>
<event>
 5    1  0.1560836E+002  0.1599479E+01  0.7818608E-02  0.3353929E+00
         11   -1    0    0    0    0  0.00000000000E+00  0.00000000000E+00  0.39999999674E+01  0.40000000000E+01  0.51100000000E-03 0.  1.
    9000002   -1    0    0    0    0 -0.00000000000E+00 -0.00000000000E+00  0.00000000000E+00  0.93800000000E+00  0.93800000000E+00 0. -1.
         11    1    1    2    0    0 -0.26676678157E+00 -0.59069781826E-02  0.12851395888E+01  0.13125484494E+01  0.51100000000E-03 0.  1.
    9000002    1    1    2    0    0  0.75821726889E+00  0.59229393063E-01  0.42089388311E+00  0.12788264967E+01  0.93800000000E+00 0. -1.
         22    1    1    2    0    0 -0.49145048732E+00 -0.53322414881E-01  0.22939664954E+01  0.23466250539E+01  0.00000000000E+00 0. -1.
</event>
<event>
 5    1  0.1560836E+002  0.1599306E+01  0.7818608E-02  0.3354117E+00
         11   -1    0    0    0    0  0.00000000000E+00  0.00000000000E+00  0.39999999674E+01  0.40000000000E+01  0.51100000000E-03 0.  1.
    9000002   -1    0    0    0    0 -0.00000000000E+00 -0.00000000000E+00  0.00000000000E+00  0.93800000000E+00  0.93800000000E+00 0.  1.
         11    1    1    2    0    0  0.18312497554E+00  0.19363650142E+00  0.19770453103E+01  0.19949281370E+01  0.51100000000E-03 0.  1.
    9000002    1    1    2    0    0 -0.31881357312E+00 -0.35111585619E+00  0.15365725343E+00  0.10622518489E+01  0.93800000000E+00 0.  1.
         22    1    1    2    0    0  0.13568859757E+00  0.15747935477E+00  0.18692974036E+01  0.18808200142E+01  0.00000000000E+00 0.  1.
</event>
<event>
 5    1  0.1560836E+002  0.1591844E+01  0.7818608E-02  0.3362263E+00
         11   -1    0    0    0    0  0.00000000000E+00  0.00000000000E+00  0.39999999674E+01  0.40000000000E+01  0.51100000000E-03 0.  1.
    9000002   -1    0    0    0    0 -0.00000000000E+00 -0.00000000000E+00  0.00000000000E+00  0.93800000000E+00  0.93800000000E+00 0.  1.
         11    1    1    2    0    0 -0.66243091934E-01  0.34889587755E+00  0.11911432592E+01  0.12429557537E+01  0.51100000000E-03 0.  1.
    9000002    1    1    2    0    0 -0.62288503530E-01 -0.85556768456E+00  0.56485308047E+00  0.13909633076E+01  0.93800000000E+00 0.  1.
         22    1    1    2    0    0  0.12853159546E+00  0.50667180701E+00  0.22440036277E+01  0.23040809387E+01  0.00000000000E+00 0.  1.
</event>
<event>
 5    1  0.1560836E+002  0.1599676E+01  0.7818608E-02  0.3353715E+00
         11   -1    0    0    0    0  0.00000000000E+00  0.00000000000E+00  0.39999999674E+01  0.40000000000E+01  0.51100000000E-03 0. -1.
    9000002   -1    0    0    0    0 -0.00000000000E+00 -0.00000000000E+00  0.00000000000E+00  0.93800000000E+00  0.93800000000E+00 0. -1.
         11    1    1    2    0    0  0.10666184433E+00  0.25224201609E+00  0.14754648932E+01  0.15006664172E+01  0.51100000000E-03 0. -1.
    9000002    1    1    2    0    0 -0.26644568507E+00 -0.62504894038E+00  0.32817632980E+00  0.12038368595E+01  0.93800000000E+00 0. -1.
         22    1    1    2    0    0  0.15978384074E+00  0.37280692429E+00  0.21963587444E+01  0.22334967232E+01  0.00000000000E+00 0. -1.
</event>
<event>
 5    1  0.1560836E+002  0.1541966E+01  0.7818608E-02  0.3418865E+00
         11   -1    0    0    0    0  0.00000000000E+00  0.00000000000E+00  0.39999999674E+01  0.40000000000E+01  0.51100000000E-03 0.  1.
    9000002   -1    0    0    0    0 -0.00000000000E+00 -0.00000000000E+00  0.00000000000E+00  0.93800000000E+00  0.93800000000E+00 0.  1.
         11    1    1    2    0    0 -0.89075196732E-03  0.38565435252E+00  0.23896989444E+01  0.24206179746E+01  0.51100000000E-03 0.  1.
    9000002    1    1    2    0    0 -0.63029758497E-01 -0.17461261656E+00  0.67142297718E-01  0.95854807102E+00  0.93800000000E+00 0.  1.
         22    1    1    2    0    0  0.63920510464E-01 -0.21104173596E+00  0.15431587252E+01  0.15588339544E+01  0.00000000000E+00 0.  1.
</event>
<event>
 5    1  0.1560836E+002  0.1599318E+01  0.7818608E-02  0.3354104E+00
         11   -1    0    0    0    0  0.00000000000E+00  0.00000000000E+00  0.39999999674E+01  0.40000000000E+01  0.51100000000E-03 0. -1.
    9000002   -1    0    0    0    0 -0.00000000000E+00 -0.00000000000E+00  0.00000000000E+00  0.93800000000E+00  0.93800000000E+00 0.  1.
         11    1    1    2    0    0 -0.60091922198E-02  0.50799587617E-02  0.50840964749E-01  0.51448821072E-01  0.51100000000E-03 0. -1.
    9000002    1    1    2    0    0  0.10197537908E+00 -0.23359828519E+00  0.43448607574E-01  0.97298454165E+00  0.93800000000E+00 0.  1.
         22    1    1    2    0    0 -0.95966186865E-01  0.22851832643E+00  0.39057103950E+01  0.39135666373E+01  0.00000000000E+00 0. -1.
</event>
<event>
 5    1  0.1560836E+002  0.1598792E+01  0.7818608E-02  0.3354676E+00
         11   -1    0    0    0    0  0.00000000000E+00  0.00000000000E+00  0.39999999674E+01  0.40000000000E+01  0.51100000000E-03 0.  1.
    9000002   -1    0    0    0    0 -0.00000000000E+00 -0.00000000000E+00  0.00000000000E+00  0.93800000000E+00  0.93800000000E+00 0.  1.
         11    1    1    2    0    0  0.72562931239E-02 -0.22731671505E-02  0.75733217167E-01  0.76115717051E-01  0.51100000000E-03 0.  1.
    9000002    1    1    2    0    0  0.12597254758E+00  0.20217167193E+00  0.38333681552E-01  0.96853287957E+00  0.93800000000E+00 0.  1.
         22    1    1    2    0    0 -0.13322884070E+00 -0.19989850478E+00  0.38859330686E+01  0.38933514034E+01  0.00000000000E+00 0.  1.
</event>
<event>
 5    1  0.1560836E+002  0.1599671E+01  0.7818608E-02  0.3353721E+00
         11   -1    0    0    0    0  0.00000000000E+00  0.00000000000E+00  0.39999999674E+01  0.40000000000E+01  0.51100000000E-03 0.  1.
    9000002   -1    0    0    0    0 -0.00000000000E+00 -0.00000000000E+00  0.00000000000E+00  0.93800000000E+00  0.93800000000E+00 0. -1.
         11    1    1    2    0    0  0.99431001786E-02  0.13679075084E-02  0.18635465425E+00  0.18662543957E+00  0.51100000000E-03 0.  1.
    9000002    1    1    2    0    0 -0.21038879470E+00 -0.40932392438E-02  0.29337938887E-01  0.96176136032E+00  0.93800000000E+00 0. -1.
         22    1    1    2    0    0  0.20044569452E+00  0.27253317354E-02  0.37843073742E+01  0.37896132001E+01  0.00000000000E+00 0.  1.
</event>
<event>
 5    1  0.1560836E+002  0.1599673E+01  0.7818608E-02  0.3353718E+00
         11   -1    0    0    0    0  0.00000000000E+00  0.00000000000E+00  0.39999999674E+01  0.40000000000E+01  0.51100000000E-03 0.  1.
    9000002   -1    0    0    0    0 -0.00000000000E+00 -0.00000000000E+00  0.00000000000E+00  0.93800000000E+00  0.93800000000E+00 0. -1.
         11    1    1    2    0    0 -0.58971017576E-01  0.20204631122E-01  0.63352298450E+00  0.63658262703E+00  0.51100000000E-03 0.  1.
    9000002    1    1    2    0    0  0.37158087820E+00 -0.12903847771E+00  0.10427870440E+00  0.10224682518E+01  0.93800000000E+00 0. -1.
         22    1    1    2    0    0 -0.31260986062E+00  0.10883384659E+00  0.32621982785E+01  0.32789491212E+01  0.00000000000E+00 0.  1.
</event>
<event>
 5    1  0.1560836E+002  0.1599673E+01  0.7818608E-02  0.3353718E+00
         11   -1    0    0    0    0  0.00000000000E+00  0.00000000000E+00  0.39999999674E+01  0.40000000000E+01  0.51100000000E-03 0. -1.
    9000002   -1    0    0    0    0 -0.00000000000E+00 -0.00000000000E+00  0.00000000000E+00  0.93800000000E+00  0.93800000000E+00 0. -1.
         11    1    1    2    0    0  0.11602876652E-02  0.58443949686E-02  0.10424848472E+00  0.10441987793E+00  0.51100000000E-03 0.  1.
    9000002    1    1    2    0    0 -0.30468827141E-01 -0.20651234675E+00  0.28866262519E-01  0.96138075698E+00  0.93800000000E+00 0. -1.
         22    1    1    2    0    0  0.29308539476E-01  0.20066795178E+00  0.38668852201E+01  0.38721993651E+01  0.00000000000E+00 0. -1.
</event>
<event>
 5    1  0.1560836E+002  0.1595843E+01  0.7818608E-02  0.3357888E+00
         11   -1    0    0    0    0  0.00000000000E+00  0.00000000000E+00  0.39999999674E+01  0.40000000000E+01  0.51100000000E-03 0.  1.
    9000002   -1    0    0    0    0 -0.00000000000E+00 -0.00000000000E+00  0.00000000000E+00  0.93800000000E+00  0.93800000000E+00 0. -1.
         11    1    1    2    0    0 -0.18430427193E-01 -0.82213448423E-01  0.58005328573E+00  0.58614060358E+00  0.51100000000E-03 0.  1.
    9000002    1    1    2    0    0 -0.80740268769E-01  0.26402683931E+00  0.53716355425E-01  0.97926432066E+00  0.93800000000E+00 0. -1.
         22    1    1    2    0    0  0.99170695962E-01 -0.18181339089E+00  0.33662303262E+01  0.33725950758E+01  0.00000000000E+00 0.  1.
</event>
<event>
 5    1  0.1560836E+002  0.1599512E+01  0.7818608E-02  0.3353893E+00
         11   -1    0    0    0    0  0.00000000000E+00  0.00000000000E+00  0.39999999674E+01  0.40000000000E+01  0.51100000000E-03 0. -1.
    9000002   -1    0    0    0    0 -0.00000000000E+00 -0.00000000000E+00  0.00000000000E+00  0.93800000000E+00  0.93800000000E+00 0.  1.
         11    1    1    2    0    0  0.99146506558E-01  0.39548152145E-01  0.12183013084E+01  0.12229686935E+01  0.51100000000E-03 0. -1.
    9000002    1    1    2    0    0 -0.32096155193E+00 -0.17279978294E+00  0.89374632681E-01  0.10103008996E+01  0.93800000000E+00 0.  1.
         22    1    1    2    0    0  0.22181504537E+00  0.13325163080E+00  0.26923240263E+01  0.27047304069E+01  0.00000000000E+00 0. -1.
</event>
<event>
 5    1  0.1560836E+002  0.1599013E+01  0.7818608E-02  0.3354435E+00
         11   -1    0    0    0    0  0.00000000000E+00  0.00000000000E+00  0.39999999674E+01  0.40000000000E+01  0.51100000000E-03 0.  1.
    9000002   -1    0    0    0    0 -0.00000000000E+00 -0.00000000000E+00  0.00000000000E+00  0.93800000000E+00  0.93800000000E+00 0. -1.
         11    1    1    2    0    0  0.32523558389E-01  0.85443292968E-01  0.98971943263E+00  0.99393317412E+00  0.51100000000E-03 0.  1.
    9000002    1    1    2    0    0 -0.22910656049E+00 -0.30308228408E+00  0.97667805473E-01  0.10167259647E+01  0.93800000000E+00 0. -1.
         22    1    1    2    0    0  0.19658300210E+00  0.21763899112E+00  0.29126127293E+01  0.29273408612E+01  0.00000000000E+00 0.  1.
</event>
<event>
 5    1  0.1560836E+002  0.1545597E+01  0.7818608E-02  0.3414613E+00
         11   -1    0    0    0    0  0.00000000000E+00  0.00000000000E+00  0.39999999674E+01  0.40000000000E+01  0.51100000000E-03 0. -1.
    9000002   -1    0    0    0    0 -0.00000000000E+00 -0.00000000000E+00  0.00000000000E+00  0.93800000000E+00  0.93800000000E+00 0. -1.
         11    1    1    2    0    0  0.14737341009E+00  0.63778457303E-01  0.25542225489E+00  0.30170747925E+00  0.51100000000E-03 0. -1.
    9000002    1    1    2    0    0 -0.35143114889E+00  0.18783156717E+00  0.15349315840E+00  0.10306253925E+01  0.93800000000E+00 0. -1.
         22    1    1    2    0    0  0.20405773879E+00 -0.25161002447E+00  0.35910845541E+01  0.36056671282E+01  0.00000000000E+00 0. -1.
</event>
<event>
 5    1  0.1560836E+002  0.1599673E+01  0.7818608E-02  0.3353718E+00
         11   -1    0    0    0    0  0.00000000000E+00  0.00000000000E+00  0.39999999674E+01  0.40000000000E+01  0.51100000000E-03 0. -1.
    9000002   -1    0    0    0    0 -0.00000000000E+00 -0.00000000000E+00  0.00000000000E+00  0.93800000000E+00  0.93800000000E+00 0.  1.
         11    1    1    2    0    0 -0.15811914957E+00 -0.12237533657E+00  0.18345765822E+01  0.18454400249E+01  0.51100000000E-03 0. -1.
    9000002    1    1    2    0    0  0.32974087029E+00  0.26001392090E+00  0.11925884050E+00  0.10346027990E+01  0.93800000000E+00 0.  1.
         22    1    1    2    0    0 -0.17162172072E+00 -0.13763858433E+00  0.20461645446E+01  0.20579571761E+01  0.00000000000E+00 0. -1.
</event>
<event>
 5    1  0.1560836E+002  0.1598645E+01  0.7818608E-02  0.3354835E+00
         11   -1    0    0    0    0  0.00000000000E+00  0.00000000000E+00  0.39999999674E+01  0.40000000000E+01  0.51100000000E-03 0.  1.
    9000002   -1    0    0    0    0 -0.00000000000E+00 -0.00000000000E+00  0.00000000000E+00  0.93800000000E+00  0.93800000000E+00 0. -1.
         11    1    1    2    0    0  0.40677125674E+00  0.20555643941E+00  0.23613452131E+01  0.24049257331E+01  0.51100000000E-03 0.  1.
    9000002    1    1    2    0    0 -0.60565019374E+00 -0.36954425483E+00  0.36185067307E+00  0.12305100662E+01  0.93800000000E+00 0. -1.
         22    1    1    2    0    0  0.19887893701E+00  0.16398781543E+00  0.12768040812E+01  0.13025642007E+01  0.00000000000E+00 0.  1.
</event>
<event>
 5    1  0.1560836E+002  0.1599676E+01  0.7818608E-02  0.3353715E+00
         11   -1    0    0    0    0  0.00000000000E+00  0.00000000000E+00  0.39999999674E+01  0.40000000000E+01  0.51100000000E-03 0. -1.
    9000002   -1    0    0    0    0 -0.00000000000E+00 -0.00000000000E+00  0.00000000000E+00  0.93800000000E+00  0.93800000000E+00 0. -1.
         11    1    1    2    0    0 -0.80165098056E-01 -0.24477367330E+00  0.21502927616E+01  0.21656638279E+01  0.51100000000E-03 0. -1.
    9000002    1    1    2    0    0  0.14500978011E+00  0.43990145543E+00  0.14600218027E+00  0.10562678465E+01  0.93800000000E+00 0. -1.
         22    1    1    2    0    0 -0.64844682056E-01 -0.19512778213E+00  0.17037050255E+01  0.17160683256E+01  0.00000000000E+00 0. -1.
</event>
<event>
 5    1  0.1560836E+002  0.1599676E+01  0.7818608E-02  0.3353715E+00
         11   -1    0    0    0    0  0.00000000000E+00  0.00000000000E+00  0.39999999674E+01  0.40000000000E+01  0.51100000000E-03 0.  1.
    9000002   -1    0    0    0    0 -0.00000000000E+00 -0.00000000000E+00  0.00000000000E+00  0.93800000000E+00  0.93800000000E+00 0. -1.
         11    1    1    2    0    0  0.71787099600E-01  0.84446167063E-03  0.10325327123E+01  0.10350256827E+01  0.51100000000E-03 0.  1.
    9000002    1    1    2    0    0 -0.27201474723E+00 -0.42743508228E-02  0.49251709255E-01  0.97789571205E+00  0.93800000000E+00 0. -1.
         22    1    1    2    0    0  0.20022764763E+00  0.34298891522E-02  0.29182155458E+01  0.29250786052E+01  0.00000000000E+00 0.  1.
</event>
<event>
 5    1  0.1560836E+002  0.1598303E+01  0.7818608E-02  0.3355207E+00
         11   -1    0    0    0    0  0.00000000000E+00  0.00000000000E+00  0.39999999674E+01  0.40000000000E+01  0.51100000000E-03 0.  1.
    9000002   -1    0    0    0    0 -0.00000000000E+00 -0.00000000000E+00  0.00000000000E+00  0.93800000000E+00  0.93800000000E+00 0. -1.
         11    1    1    2    0    0  0.17129077490E-01 -0.14403843783E+00  0.15517029843E+01  0.15584681227E+01  0.51100000000E-03 0.  1.
    9000002    1    1    2    0    0 -0.14492043173E+00  0.32132180740E+00  0.84442156219E-01  0.10055963968E+01  0.93800000000E+00 0. -1.
         22    1    1    2    0    0  0.12779135424E+00 -0.17728336957E+00  0.23638548268E+01  0.23739354805E+01  0.00000000000E+00 0.  1.
</event>
<event>
 5    1  0.1560836E+002  0.1597710E+01  0.7818608E-02  0.3355853E+00
         11   -1    0    0    0    0  0.00000000000E+00  0.00000000000E+00  0.39999999674E+01  0.40000000000E+01  0.51100000000E-03 0.  1.
    9000002   -1    0    0    0    0 -0.00000000000E+00 -0.00000000000E+00  0.00000000000E+00  0.93800000000E+00  0.93800000000E+00 0.  1.
         11    1    1    2    0    0 -0.27200833512E-01  0.34273430737E-02  0.68660903560E+00  0.68715635841E+00  0.51100000000E-03 0.  1.
    9000002    1    1    2    0    0  0.13513546413E+00  0.21225216695E+00  0.43569142927E-01  0.97213931422E+00  0.93800000000E+00 0.  1.
         22    1    1    2    0    0 -0.10793463062E+00 -0.21567951002E+00  0.32698217888E+01  0.32787043274E+01  0.00000000000E+00 0.  1.
</event>
<event>
 5    1  0.1560836E+002  0.1599676E+01  0.7818608E-02  0.3353715E+00
         11   -1    0    0    0    0  0.00000000000E+00  0.00000000000E+00  0.39999999674E+01  0.40000000000E+01  0.51100000000E-03 0.  1.
    9000002   -1    0    0    0    0 -0.00000000000E+00 -0.00000000000E+00  0.00000000000E+00  0.93800000000E+00  0.93800000000E+00 0.  1.
         11    1    1    2    0    0  0.20929111652E-01  0.66841579021E-01  0.89476685185E+00  0.89750420873E+00  0.51100000000E-03 0.  1.
    9000002    1    1    2    0    0 -0.94443077728E-01 -0.29632684777E+00  0.64597156774E-01  0.99032615249E+00  0.93800000000E+00 0.  1.
         22    1    1    2    0    0  0.73513966076E-01  0.22948526875E+00  0.30406359587E+01  0.30501696388E+01  0.00000000000E+00 0.  1.
</event>
<event>
 5    1  0.1560836E+002  0.1599667E+01  0.7818608E-02  0.3353724E+00
         11   -1    0    0    0    0  0.00000000000E+00  0.00000000000E+00  0.39999999674E+01  0.40000000000E+01  0.51100000000E-03 0. -1.
    9000002   -1    0    0    0    0 -0.00000000000E+00 -0.00000000000E+00  0.00000000000E+00  0.93800000000E+00  0.93800000000E+00 0.  1.
         11    1    1    2    0    0 -0.15520701541E+00  0.14776867622E+00  0.15833602721E+01  0.15977968618E+01  0.51100000000E-03 0. -1.
    9000002    1    1    2    0    0  0.37019207017E+00 -0.34902715557E+00  0.17747879225E+00  0.10817600685E+01  0.93800000000E+00 0.  1.
         22    1    1    2    0    0 -0.21498505476E+00  0.20125847935E+00  0.22391609030E+01  0.22584430696E+01  0.00000000000E+00 0. -1.
</event>
<event>
 5    1  0.1560836E+002  0.1596512E+01  0.7818608E-02  0.3357158E+00
         11   -1    0    0    0    0  0.00000000000E+00  0.00000000000E+00  0.39999999674E+01  0.40000000000E+01  0.51100000000E-03 0. -1.
    9000002   -1    0    0    0    0 -0.00000000000E+00 -0.00000000000E+00  0.00000000000E+00  0.93800000000E+00  0.93800000000E+00 0.  1.
         11    1    1    2    0    0  0.13126110029E-01  0.61304390178E-01  0.13674556410E+01  0.13688921486E+01  0.51100000000E-03 0. -1.
    9000002    1    1    2    0    0  0.13903990892E+00 -0.23480503107E+00  0.52005869462E-01  0.97827097951E+00  0.93800000000E+00 0.  1.
         22    1    1    2    0    0 -0.15216601895E+00  0.17350064089E+00  0.25805384568E+01  0.25908368719E+01  0.00000000000E+00 0. -1.
</event>
<event>
 5    1  0.1560836E+002  0.1567605E+01  0.7818608E-02  0.3389292E+00
         11   -1    0    0    0    0  0.00000000000E+00  0.00000000000E+00  0.39999999674E+01  0.40000000000E+01  0.51100000000E-03 0. -1.
    9000002   -1    0    0    0    0 -0.00000000000E+00 -0.00000000000E+00  0.00000000000E+00  0.93800000000E+00  0.93800000000E+00 0.  1.
         11    1    1    2    0    0  0.18948556524E+00  0.27442138197E+00  0.94481445946E+00  0.10019413647E+01  0.51100000000E-03 0. -1.
    9000002    1    1    2    0    0 -0.26394461817E+00 -0.50547461790E+00  0.25706771580E+00  0.11274303355E+01  0.93800000000E+00 0.  1.
         22    1    1    2    0    0  0.74459052935E-01  0.23105323593E+00  0.27981177921E+01  0.28086282999E+01  0.00000000000E+00 0. -1.
</event>
<event>
 5    1  0.1560836E+002  0.1599525E+01  0.7818608E-02  0.3353879E+00
         11   -1    0    0    0    0  0.00000000000E+00  0.00000000000E+00  0.39999999674E+01  0.40000000000E+01  0.51100000000E-03 0. -1.
    9000002   -1    0    0    0    0 -0.00000000000E+00 -0.00000000000E+00  0.00000000000E+00  0.93800000000E+00  0.93800000000E+00 0. -1.
         11    1    1    2    0    0  0.36667232576E+00 -0.18546852795E-01  0.15488659991E+01  0.15917847607E+01  0.51100000000E-03 0. -1.
    9000002    1    1    2    0    0 -0.80160827096E+00  0.32690516049E-01  0.47468611803E+00  0.13224278432E+01  0.93800000000E+00 0. -1.
         22    1    1    2    0    0  0.43493594520E+00 -0.14143663254E-01  0.19764478502E+01  0.20237873960E+01  0.00000000000E+00 0. -1.
</event>
<event>
 5    1  0.1560836E+002  0.1599674E+01  0.7818608E-02  0.3353717E+00
         11   -1    0    0    0    0  0.00000000000E+00  0.00000000000E+00  0.39999999674E+01  0.40000000000E+01  0.51100000000E-03 0. -1.
    9000002   -1    0    0    0    0 -0.00000000000E+00 -0.00000000000E+00  0.00000000000E+00  0.93800000000E+00  0.93800000000E+00 0. -1.
         11    1    1    2    0    0 -0.38358618996E+00 -0.83522024922E+00  0.20652235743E+01  0.22605043470E+01  0.51100000000E-03 0. -1.
    9000002    1    1    2    0    0  0.49565292690E+00  0.10793010056E+01  0.13261077428E+01  0.20122048181E+01  0.93800000000E+00 0. -1.
         22    1    1    2    0    0 -0.11206673694E+00 -0.24408075635E+00  0.60866865024E+00  0.66529083485E+00  0.00000000000E+00 0. -1.
</event>
<event>
 5    1  0.1560836E+002  0.1599357E+01  0.7818608E-02  0.3354061E+00
         11   -1    0    0    0    0  0.00000000000E+00  0.00000000000E+00  0.39999999674E+01  0.40000000000E+01  0.51100000000E-03 0.  1.
    9000002   -1    0    0    0    0 -0.00000000000E+00 -0.00000000000E+00  0.00000000000E+00  0.93800000000E+00  0.93800000000E+00 0. -1.
         11    1    1    2    0    0 -0.56559372406E-01  0.21088225717E+00  0.17379522676E+01  0.17516131520E+01  0.51100000000E-03 0.  1.
    9000002    1    1    2    0    0  0.79111876042E-01 -0.47768135706E+00  0.16035321421E+00  0.10677056341E+01  0.93800000000E+00 0. -1.
         22    1    1    2    0    0 -0.22552503636E-01  0.26679909988E+00  0.21016944856E+01  0.21186812138E+01  0.00000000000E+00 0.  1.
</event>
<event>
 5    1  0.1560836E+002  0.1598812E+01  0.7818608E-02  0.3354654E+00
         11   -1    0    0    0    0  0.00000000000E+00  0.00000000000E+00  0.39999999674E+01  0.40000000000E+01  0.51100000000E-03 0.  1.
    9000002   -1    0    0    0    0 -0.00000000000E+00 -0.00000000000E+00  0.00000000000E+00  0.93800000000E+00  0.93800000000E+00 0. -1.
         11    1    1    2    0    0 -0.10697195356E+00  0.94870548882E-01  0.79355065708E+00  0.80632891946E+00  0.51100000000E-03 0.  1.
    9000002    1    1    2    0    0  0.37683278546E+00 -0.49876677227E+00  0.27503658642E+00  0.11602846053E+01  0.93800000000E+00 0. -1.
         22    1    1    2    0    0 -0.26986083190E+00  0.40389622339E+00  0.29314127239E+01  0.29713864753E+01  0.00000000000E+00 0.  1.
</event>
<event>
 5    1  0.1560836E+002  0.1599677E+01  0.7818608E-02  0.3353714E+00
         11   -1    0    0    0    0  0.00000000000E+00  0.00000000000E+00  0.39999999674E+01  0.40000000000E+01  0.51100000000E-03 0. -1.
    9000002   -1    0    0    0    0 -0.00000000000E+00 -0.00000000000E+00  0.00000000000E+00  0.93800000000E+00  0.93800000000E+00 0.  1.
         11    1    1    2    0    0  0.27838692310E+00  0.19392643217E+00  0.13544794539E+01  0.13963243148E+01  0.51100000000E-03 0. -1.
    9000002    1    1    2    0    0 -0.70606779621E+00 -0.49232078002E+00  0.55800568554E+00  0.13900092908E+01  0.93800000000E+00 0.  1.
         22    1    1    2    0    0  0.42768087311E+00  0.29839434785E+00  0.20875148279E+01  0.21516663944E+01  0.00000000000E+00 0. -1.
</event>
<event>
 5    1  0.1560836E+002  0.1599670E+01  0.7818608E-02  0.3353722E+00
         11   -1    0    0    0    0  0.00000000000E+00  0.00000000000E+00  0.39999999674E+01  0.40000000000E+01  0.51100000000E-03 0.  1.
    9000002   -1    0    0    0    0 -0.00000000000E+00 -0.00000000000E+00  0.00000000000E+00  0.93800000000E+00  0.93800000000E+00 0.  1.
         11    1    1    2    0    0 -0.11963191694E-01 -0.92946534304E-02  0.29875916657E+00  0.29914345934E+00  0.51100000000E-03 0. -1.
    9000002    1    1    2    0    0  0.17009393530E+00  0.14222171913E+00  0.32594803194E-01  0.96439897626E+00  0.93800000000E+00 0.  1.
         22    1    1    2    0    0 -0.15813074360E+00 -0.13292706570E+00  0.36686459976E+01  0.36744575644E+01  0.00000000000E+00 0.  1.
</event>
<event>
 5    1  0.1560836E+002  0.1567799E+01  0.7818608E-02  0.3389072E+00
         11   -1    0    0    0    0  0.00000000000E+00  0.00000000000E+00  0.39999999674E+01  0.40000000000E+01  0.51100000000E-03 0.  1.
    9000002   -1    0    0    0    0 -0.00000000000E+00 -0.00000000000E+00  0.00000000000E+00  0.93800000000E+00  0.93800000000E+00 0. -1.
         11    1    1    2    0    0 -0.12788113331E+00  0.18710039585E+00  0.18378163869E+01  0.18517368807E+01  0.51100000000E-03 0.  1.
    9000002    1    1    2    0    0 -0.13918684077E+00 -0.20036872686E+00  0.64226469616E-01  0.97133395017E+00  0.93800000000E+00 0. -1.
         22    1    1    2    0    0  0.26706797407E+00  0.13268331001E-01  0.20979571109E+01  0.21149291691E+01  0.00000000000E+00 0.  1.
</event>
<event>
 5    1  0.1560836E+002  0.1598796E+01  0.7818608E-02  0.3354671E+00
         11   -1    0    0    0    0  0.00000000000E+00  0.00000000000E+00  0.39999999674E+01  0.40000000000E+01  0.51100000000E-03 0.  1.
    9000002   -1    0    0    0    0 -0.00000000000E+00 -0.00000000000E+00  0.00000000000E+00  0.93800000000E+00  0.93800000000E+00 0.  1.
         11    1    1    2    0    0 -0.14653886954E+00  0.35086553022E+00  0.20659182381E+01  0.21006186442E+01  0.51100000000E-03 0.  1.
    9000002    1    1    2    0    0  0.32178719321E+00 -0.61397507792E+00  0.34376562809E+00  0.12159486836E+01  0.93800000000E+00 0.  1.
         22    1    1    2    0    0 -0.17524832367E+00  0.26310954771E+00  0.15903161012E+01  0.16214326723E+01  0.00000000000E+00 0. -1.
</event>
<event>
 5    1  0.1560836E+002  0.1599670E+01  0.7818608E-02  0.3353722E+00
         11   -1    0    0    0    0  0.00000000000E+00  0.00000000000E+00  0.39999999674E+01  0.40000000000E+01  0.51100000000E-03 0.  1.
    9000002   -1    0    0    0    0 -0.00000000000E+00 -0.00000000000E+00  0.00000000000E+00  0.93800000000E+00  0.93800000000E+00 0. -1.
         11    1    1    2    0    0 -0.99637214018E-01  0.41853528841E-01  0.10734948927E+01  0.10789211455E+01  0.51100000000E-03 0. -1.
    9000002    1    1    2    0    0  0.35724056054E+00 -0.16128071613E+00  0.10352825328E+00  0.10218583007E+01  0.93800000000E+00 0. -1.
         22    1    1    2    0    0 -0.25760334652E+00  0.11942718729E+00  0.28229768213E+01  0.28372205538E+01  0.00000000000E+00 0.  1.
</event>
<event>
 5    1  0.1560836E+002  0.1599666E+01  0.7818608E-02  0.3353726E+00
         11   -1    0    0    0    0  0.00000000000E+00  0.00000000000E+00  0.39999999674E+01  0.40000000000E+01  0.51100000000E-03 0. -1.
    9000002   -1    0    0    0    0 -0.00000000000E+00 -0.00000000000E+00  0.00000000000E+00  0.93800000000E+00  0.93800000000E+00 0. -1.
         11    1    1    2    0    0  0.10979709718E+00  0.47805312887E-02  0.12624701453E+01  0.12672448008E+01  0.51100000000E-03 0. -1.
    9000002    1    1    2    0    0 -0.33068113922E+00 -0.11220731376E-01  0.73263191349E-01  0.99734017058E+00  0.93800000000E+00 0. -1.
         22    1    1    2    0    0  0.22088404205E+00  0.64402000874E-02  0.26642666307E+01  0.26734150287E+01  0.00000000000E+00 0. -1.
</event>
<event>
 5    1  0.1560836E+002  0.1586942E+01  0.7818608E-02  0.3367659E+00
         11   -1    0    0    0    0  0.00000000000E+00  0.00000000000E+00  0.39999999674E+01  0.40000000000E+01  0.51100000000E-03 0. -1.
    9000002   -1    0    0    0    0 -0.00000000000E+00 -0.00000000000E+00  0.00000000000E+00  0.93800000000E+00  0.93800000000E+00 0. -1.
         11    1    1    2    0    0 -0.18605985039E-01  0.52944807793E-01  0.20350043519E+00  0.21109718993E+00  0.51100000000E-03 0. -1.
    9000002    1    1    2    0    0 -0.18869156259E+00  0.60836917071E-02  0.33148007553E-01  0.95738409612E+00  0.93800000000E+00 0. -1.
         22    1    1    2    0    0  0.20729754763E+00 -0.59028499500E-01  0.37633515246E+01  0.37695187139E+01  0.00000000000E+00 0. -1.
</event>
<event>
 5    1  0.1560836E+002  0.1599675E+01  0.7818608E-02  0.3353716E+00
         11   -1    0    0    0    0  0.00000000000E+00  0.00000000000E+00  0.39999999674E+01  0.40000000000E+01  0.51100000000E-03 0.  1.
    9000002   -1    0    0    0    0 -0.00000000000E+00 -0.00000000000E+00  0.00000000000E+00  0.93800000000E+00  0.93800000000E+00 0.  1.
         11    1    1    2    0    0  0.42731293962E-01  0.25585843134E-01  0.73473905884E+00  0.73642538288E+00  0.51100000000E-03 0.  1.
    9000002    1    1    2    0    0 -0.23413353312E+00 -0.13253847804E+00  0.48159072203E-01  0.97700985447E+00  0.93800000000E+00 0.  1.
         22    1    1    2    0    0  0.19140223915E+00  0.10695263491E+00  0.32171018363E+01  0.32245647626E+01  0.00000000000E+00 0.  1.
</event>
<event>
 5    1  0.1560836E+002  0.1599562E+01  0.7818608E-02  0.3353839E+00
         11   -1    0    0    0    0  0.00000000000E+00  0.00000000000E+00  0.39999999674E+01  0.40000000000E+01  0.51100000000E-03 0.  1.
    9000002   -1    0    0    0    0 -0.00000000000E+00 -0.00000000000E+00  0.00000000000E+00  0.93800000000E+00  0.93800000000E+00 0. -1.
         11    1    1    2    0    0 -0.84796179908E-01  0.40254022558E-01  0.12863336176E+01  0.12897539360E+01  0.51100000000E-03 0.  1.
    9000002    1    1    2    0    0  0.27118322128E+00 -0.15821527653E+00  0.65937054049E-01  0.99134459616E+00  0.93800000000E+00 0. -1.
         22    1    1    2    0    0 -0.18638704137E+00  0.11796125397E+00  0.26477292957E+01  0.26569014679E+01  0.00000000000E+00 0.  1.
</event>
<event>
 5    1  0.1560836E+002  0.1599676E+01  0.7818608E-02  0.3353715E+00
         11   -1    0    0    0    0  0.00000000000E+00  0.00000000000E+00  0.39999999674E+01  0.40000000000E+01  0.51100000000E-03 0. -1.
    9000002   -1    0    0    0    0 -0.00000000000E+00 -0.00000000000E+00  0.00000000000E+00  0.93800000000E+00  0.93800000000E+00 0.  1.
         11    1    1    2    0    0 -0.91001599656E-01  0.53535544877E-01  0.71255809506E+00  0.72033786910E+00  0.51100000000E-03 0. -1.
    9000002    1    1    2    0    0  0.48232807715E+00 -0.27987566684E+00  0.21510365475E+00  0.11122429344E+01  0.93800000000E+00 0.  1.
         22    1    1    2    0    0 -0.39132647749E+00  0.22634012196E+00  0.30723382176E+01  0.31054191965E+01  0.00000000000E+00 0. -1.
</event>
<event>
 5    1  0.1560836E+002  0.1599676E+01  0.7818608E-02  0.3353715E+00
         11   -1    0    0    0    0  0.00000000000E+00  0.00000000000E+00  0.39999999674E+01  0.40000000000E+01  0.51100000000E-03 0. -1.
    9000002   -1    0    0    0    0 -0.00000000000E+00 -0.00000000000E+00  0.00000000000E+00  0.93800000000E+00  0.93800000000E+00 0. -1.
         11    1    1    2    0    0 -0.12854412241E+00  0.82429204242E-01  0.16725273151E+01  0.16794838630E+01  0.51100000000E-03 0. -1.
    9000002    1    1    2    0    0  0.29793690912E+00 -0.19238010660E+00  0.84378985883E-01  0.10063499990E+01  0.93800000000E+00 0. -1.
         22    1    1    2    0    0 -0.16939278671E+00  0.10995090235E+00  0.22430936663E+01  0.22521661380E+01  0.00000000000E+00 0. -1.
</event>
<event>
 5    1  0.1560836E+002  0.1599628E+01  0.7818608E-02  0.3353767E+00
         11   -1    0    0    0    0  0.00000000000E+00  0.00000000000E+00  0.39999999674E+01  0.40000000000E+01  0.51100000000E-03 0. -1.
    9000002   -1    0    0    0    0 -0.00000000000E+00 -0.00000000000E+00  0.00000000000E+00  0.93800000000E+00  0.93800000000E+00 0. -1.
         11    1    1    2    0    0 -0.16699447454E+00  0.13573449086E+00  0.19349148617E+01  0.19468453430E+01  0.51100000000E-03 0. -1.
    9000002    1    1    2    0    0  0.32612935886E+00 -0.25805402484E+00  0.11694414604E+00  0.10327013952E+01  0.93800000000E+00 0. -1.
         22    1    1    2    0    0 -0.15913488431E+00  0.12231953398E+00  0.19481409596E+01  0.19584532617E+01  0.00000000000E+00 0. -1.
</event>
<event>
 5    1  0.1560836E+002  0.1599676E+01  0.7818608E-02  0.3353715E+00
         11   -1    0    0    0    0  0.00000000000E+00  0.00000000000E+00  0.39999999674E+01  0.40000000000E+01  0.51100000000E-03 0.  1.
    9000002   -1    0    0    0    0 -0.00000000000E+00 -0.00000000000E+00  0.00000000000E+00  0.93800000000E+00  0.93800000000E+00 0.  1.
         11    1    1    2    0    0 -0.39558373115E-02 -0.12584084486E-01  0.20357886991E+00  0.20400643427E+00  0.51100000000E-03 0.  1.
    9000002    1    1    2    0    0  0.81582423510E-01  0.23933705723E+00  0.42483620203E-01  0.97241286333E+00  0.93800000000E+00 0.  1.
         22    1    1    2    0    0 -0.77626586198E-01 -0.22675297274E+00  0.37539374773E+01  0.37615807024E+01  0.00000000000E+00 0.  1.
</event>
<event>
 5    1  0.1560836E+002  0.1599677E+01  0.7818608E-02  0.3353714E+00
         11   -1    0    0    0    0  0.00000000000E+00  0.00000000000E+00  0.39999999674E+01  0.40000000000E+01  0.51100000000E-03 0. -1.
    9000002   -1    0    0    0    0 -0.00000000000E+00 -0.00000000000E+00  0.00000000000E+00  0.93800000000E+00  0.93800000000E+00 0.  1.
         11    1    1    2    0    0  0.29266540349E-01 -0.76202569111E-01  0.10829247893E+01  0.10859971097E+01  0.51100000000E-03 0. -1.
    9000002    1    1    2    0    0 -0.10606784172E+00  0.27903786255E+00  0.59440045606E-01  0.98614889079E+00  0.93800000000E+00 0.  1.
         22    1    1    2    0    0  0.76801301366E-01 -0.20283529344E+00  0.28576351325E+01  0.28658539995E+01  0.00000000000E+00 0. -1.
</event>
<event>
 5    1  0.1560836E+002  0.1597853E+01  0.7818608E-02  0.3355697E+00
         11   -1    0    0    0    0  0.00000000000E+00  0.00000000000E+00  0.39999999674E+01  0.40000000000E+01  0.51100000000E-03 0. -1.
    9000002   -1    0    0    0    0 -0.00000000000E+00 -0.00000000000E+00  0.00000000000E+00  0.93800000000E+00  0.93800000000E+00 0. -1.
         11    1    1    2    0    0 -0.93705864642E-01 -0.32567934305E-01  0.10282292078E+01  0.10330038840E+01  0.51100000000E-03 0. -1.
    9000002    1    1    2    0    0  0.28663539708E+00 -0.32285414942E-01  0.56867691254E-01  0.98299548991E+00  0.93800000000E+00 0. -1.
         22    1    1    2    0    0 -0.19292953244E+00  0.64853349247E-01  0.29149030683E+01  0.29220006261E+01  0.00000000000E+00 0. -1.
</event>
<event>
 5    1  0.1560836E+002  0.1593925E+01  0.7818608E-02  0.3359983E+00
         11   -1    0    0    0    0  0.00000000000E+00  0.00000000000E+00  0.39999999674E+01  0.40000000000E+01  0.51100000000E-03 0. -1.
    9000002   -1    0    0    0    0 -0.00000000000E+00 -0.00000000000E+00  0.00000000000E+00  0.93800000000E+00  0.93800000000E+00 0.  1.
         11    1    1    2    0    0  0.26864291842E-02  0.13043395319E-01  0.22631826132E-01  0.26264191179E-01  0.51100000000E-03 0. -1.
    9000002    1    1    2    0    0  0.15079744898E+00  0.12207537152E+00  0.29225006121E-01  0.95830077112E+00  0.93800000000E+00 0.  1.
         22    1    1    2    0    0 -0.15348387817E+00 -0.13511876684E+00  0.39481431351E+01  0.39534350377E+01  0.00000000000E+00 0. -1.
</event>
<event>
 5    1  0.1560836E+002  0.1590813E+01  0.7818608E-02  0.3363395E+00
         11   -1    0    0    0    0  0.00000000000E+00  0.00000000000E+00  0.39999999674E+01  0.40000000000E+01  0.51100000000E-03 0. -1.
    9000002   -1    0    0    0    0 -0.00000000000E+00 -0.00000000000E+00  0.00000000000E+00  0.93800000000E+00  0.93800000000E+00 0. -1.
         11    1    1    2    0    0  0.81246316071E-01  0.68250112912E-02  0.15446302163E+01  0.15467806279E+01  0.51100000000E-03 0. -1.
    9000002    1    1    2    0    0 -0.93477353404E-02  0.18455312367E+00  0.29224045419E-01  0.95647544686E+00  0.93800000000E+00 0. -1.
         22    1    1    2    0    0 -0.71898580730E-01 -0.19137813496E+00  0.24261457056E+01  0.24347439252E+01  0.00000000000E+00 0. -1.
</event>
<event>
 5    1  0.1560836E+002  0.1594799E+01  0.7818608E-02  0.3359027E+00
         11   -1    0    0    0    0  0.00000000000E+00  0.00000000000E+00  0.39999999674E+01  0.40000000000E+01  0.51100000000E-03 0.  1.
    9000002   -1    0    0    0    0 -0.00000000000E+00 -0.00000000000E+00  0.00000000000E+00  0.93800000000E+00  0.93800000000E+00 0.  1.
         11    1    1    2    0    0  0.20474913530E-01  0.70560486246E-01  0.41357673475E+00  0.42005235501E+00  0.51100000000E-03 0.  1.
    9000002    1    1    2    0    0  0.16482944374E+00 -0.33176367575E+00  0.96221696879E-01  0.10130836575E+01  0.93800000000E+00 0.  1.
         22    1    1    2    0    0 -0.18530435727E+00  0.26120318950E+00  0.34902015357E+01  0.35048639875E+01  0.00000000000E+00 0.  1.
</event>
<event>
 5    1  0.1560836E+002  0.1570559E+01  0.7818608E-02  0.3385951E+00
         11   -1    0    0    0    0  0.00000000000E+00  0.00000000000E+00  0.39999999674E+01  0.40000000000E+01  0.51100000000E-03 0. -1.
    9000002   -1    0    0    0    0 -0.00000000000E+00 -0.00000000000E+00  0.00000000000E+00  0.93800000000E+00  0.93800000000E+00 0. -1.
         11    1    1    2    0    0  0.16110257731E+00  0.19135624426E+00  0.20241841215E+01  0.20395815432E+01  0.51100000000E-03 0. -1.
    9000002    1    1    2    0    0 -0.21699707243E+00  0.15138638127E-01  0.53650569465E-01  0.96438544753E+00  0.93800000000E+00 0. -1.
         22    1    1    2    0    0  0.55894495122E-01 -0.20649488239E+00  0.19221652764E+01  0.19340330093E+01  0.00000000000E+00 0. -1.
</event>
<event>
 5    1  0.1560836E+002  0.1596721E+01  0.7818608E-02  0.3356930E+00
         11   -1    0    0    0    0  0.00000000000E+00  0.00000000000E+00  0.39999999674E+01  0.40000000000E+01  0.51100000000E-03 0. -1.
    9000002   -1    0    0    0    0 -0.00000000000E+00 -0.00000000000E+00  0.00000000000E+00  0.93800000000E+00  0.93800000000E+00 0. -1.
         11    1    1    2    0    0  0.12178582482E-02 -0.18620814917E-01  0.34396950632E+00  0.34447568902E+00  0.51100000000E-03 0. -1.
    9000002    1    1    2    0    0  0.33289243136E+00 -0.28388495993E-01  0.77078337649E-01  0.99870333318E+00  0.93800000000E+00 0. -1.
         22    1    1    2    0    0 -0.33411028961E+00  0.47009310911E-01  0.35789521234E+01  0.35948209778E+01  0.00000000000E+00 0. -1.
</event>
<event>
 5    1  0.1560836E+002  0.1575563E+01  0.7818608E-02  0.3380321E+00
         11   -1    0    0    0    0  0.00000000000E+00  0.00000000000E+00  0.39999999674E+01  0.40000000000E+01  0.51100000000E-03 0.  1.
    9000002   -1    0    0    0    0 -0.00000000000E+00 -0.00000000000E+00  0.00000000000E+00  0.93800000000E+00  0.93800000000E+00 0.  1.
         11    1    1    2    0    0  0.34475524320E-02 -0.12283739163E+00  0.24351510010E+01  0.24382496938E+01  0.51100000000E-03 0.  1.
    9000002    1    1    2    0    0 -0.24678863280E+00  0.29794041729E-01  0.59692464152E-01  0.97221371338E+00  0.93800000000E+00 0.  1.
         22    1    1    2    0    0  0.24334108037E+00  0.93043349896E-01  0.15051565022E+01  0.15275365928E+01  0.00000000000E+00 0.  1.
</event>
<event>
 5    1  0.1560836E+002  0.1599629E+01  0.7818608E-02  0.3353766E+00
         11   -1    0    0    0    0  0.00000000000E+00  0.00000000000E+00  0.39999999674E+01  0.40000000000E+01  0.51100000000E-03 0. -1.
    9000002   -1    0    0    0    0 -0.00000000000E+00 -0.00000000000E+00  0.00000000000E+00  0.93800000000E+00  0.93800000000E+00 0.  1.
         11    1    1    2    0    0 -0.11356967155E+00  0.10443836084E+00  0.17616788879E+01  0.17684225193E+01  0.51100000000E-03 0. -1.
    9000002    1    1    2    0    0  0.26186442711E+00 -0.24778943130E+00  0.87289827438E-01  0.10086803728E+01  0.93800000000E+00 0.  1.
         22    1    1    2    0    0 -0.14829475557E+00  0.14335107046E+00  0.21510312520E+01  0.21608971080E+01  0.00000000000E+00 0. -1.
</event>
<event>
 5    1  0.1560836E+002  0.1589045E+01  0.7818608E-02  0.3365340E+00
         11   -1    0    0    0    0  0.00000000000E+00  0.00000000000E+00  0.39999999674E+01  0.40000000000E+01  0.51100000000E-03 0.  1.
    9000002   -1    0    0    0    0 -0.00000000000E+00 -0.00000000000E+00  0.00000000000E+00  0.93800000000E+00  0.93800000000E+00 0. -1.
         11    1    1    2    0    0  0.89368934373E-01 -0.26803232477E+00  0.13830610162E+01  0.14116253643E+01  0.51100000000E-03 0.  1.
    9000002    1    1    2    0    0 -0.31638261515E+00  0.41461269494E+00  0.19672482207E+00  0.10911215797E+01  0.93800000000E+00 0. -1.
         22    1    1    2    0    0  0.22701368077E+00 -0.14658037017E+00  0.24202141291E+01  0.24352530561E+01  0.00000000000E+00 0.  1.
</event>
<event>
 5    1  0.1560836E+002  0.1599676E+01  0.7818608E-02  0.3353715E+00
         11   -1    0    0    0    0  0.00000000000E+00  0.00000000000E+00  0.39999999674E+01  0.40000000000E+01  0.51100000000E-03 0.  1.
    9000002   -1    0    0    0    0 -0.00000000000E+00 -0.00000000000E+00  0.00000000000E+00  0.93800000000E+00  0.93800000000E+00 0.  1.
         11    1    1    2    0    0 -0.90489331534E-03 -0.23360737226E-01  0.41272763206E+00  0.41338952849E+00  0.51100000000E-03 0.  1.
    9000002    1    1    2    0    0  0.11285252358E-01  0.22646850005E+00  0.34097314043E-01  0.96561999009E+00  0.93800000000E+00 0.  1.
         22    1    1    2    0    0 -0.10380359043E-01 -0.20310776283E+00  0.35531750213E+01  0.35589904814E+01  0.00000000000E+00 0.  1.
</event>
<event>
 5    1  0.1560836E+002  0.1574523E+01  0.7818608E-02  0.3381489E+00
         11   -1    0    0    0    0  0.00000000000E+00  0.00000000000E+00  0.39999999674E+01  0.40000000000E+01  0.51100000000E-03 0.  1.
    9000002   -1    0    0    0    0 -0.00000000000E+00 -0.00000000000E+00  0.00000000000E+00  0.93800000000E+00  0.93800000000E+00 0.  1.
         11    1    1    2    0    0 -0.12121946865E+00 -0.14748174484E+00  0.95069593468E+00  0.96967419579E+00  0.51100000000E-03 0.  1.
    9000002    1    1    2    0    0 -0.12857193710E+00  0.35356569541E+00  0.11607933037E+00  0.10172796346E+01  0.93800000000E+00 0.  1.
         22    1    1    2    0    0  0.24979140575E+00 -0.20608395058E+00  0.29332247023E+01  0.29510461696E+01  0.00000000000E+00 0.  1.
</event>
<event>
 5    1  0.1560836E+002  0.1598473E+01  0.7818608E-02  0.3355023E+00
         11   -1    0    0    0    0  0.00000000000E+00  0.00000000000E+00  0.39999999674E+01  0.40000000000E+01  0.51100000000E-03 0.  1.
    9000002   -1    0    0    0    0 -0.00000000000E+00 -0.00000000000E+00  0.00000000000E+00  0.93800000000E+00  0.93800000000E+00 0.  1.
         11    1    1    2    0    0 -0.10960774779E+00  0.75722254902E-01  0.10439500745E+01  0.10524161427E+01  0.51100000000E-03 0.  1.
    9000002    1    1    2    0    0  0.50748069180E+00 -0.19421440427E+00  0.20480914426E+00  0.11031983833E+01  0.93800000000E+00 0.  1.
         22    1    1    2    0    0 -0.39787294401E+00  0.11849214937E+00  0.27512407486E+01  0.27823854740E+01  0.00000000000E+00 0.  1.
</event>
<event>
 5    1  0.1560836E+002  0.1599677E+01  0.7818608E-02  0.3353714E+00
         11   -1    0    0    0    0  0.00000000000E+00  0.00000000000E+00  0.39999999674E+01  0.40000000000E+01  0.51100000000E-03 0.  1.
    9000002   -1    0    0    0    0 -0.00000000000E+00 -0.00000000000E+00  0.00000000000E+00  0.93800000000E+00  0.93800000000E+00 0.  1.
         11    1    1    2    0    0 -0.44381717045E-01 -0.12817802469E+00  0.15574065189E+01  0.15633024880E+01  0.51100000000E-03 0.  1.
    9000002    1    1    2    0    0  0.11087381370E+00  0.32228580408E+00  0.77809706206E-01  0.10010292166E+01  0.93800000000E+00 0.  1.
         22    1    1    2    0    0 -0.66492096653E-01 -0.19410777939E+00  0.23647837423E+01  0.23736682954E+01  0.00000000000E+00 0.  1.
</event>
<event>
 5    1  0.1560836E+002  0.1599675E+01  0.7818608E-02  0.3353716E+00
         11   -1    0    0    0    0  0.00000000000E+00  0.00000000000E+00  0.39999999674E+01  0.40000000000E+01  0.51100000000E-03 0. -1.
    9000002   -1    0    0    0    0 -0.00000000000E+00 -0.00000000000E+00  0.00000000000E+00  0.93800000000E+00  0.93800000000E+00 0.  1.
         11    1    1    2    0    0 -0.47265657996E-01  0.17027822492E-01  0.66823320009E+00  0.67011928788E+00  0.51100000000E-03 0. -1.
    9000002    1    1    2    0    0  0.28068639213E+00 -0.93808293674E-01  0.58408448385E-01  0.98531233299E+00  0.93800000000E+00 0.  1.
         22    1    1    2    0    0 -0.23342073414E+00  0.76780471182E-01  0.32733583189E+01  0.32825683791E+01  0.00000000000E+00 0. -1.
</event>
<event>
 5    1  0.1560836E+002  0.1599640E+01  0.7818608E-02  0.3353754E+00
         11   -1    0    0    0    0  0.00000000000E+00  0.00000000000E+00  0.39999999674E+01  0.40000000000E+01  0.51100000000E-03 0.  1.
    9000002   -1    0    0    0    0 -0.00000000000E+00 -0.00000000000E+00  0.00000000000E+00  0.93800000000E+00  0.93800000000E+00 0. -1.
         11    1    1    2    0    0 -0.14439045112E+00 -0.32506330912E+00  0.16857310614E+01  0.17228477094E+01  0.51100000000E-03 0.  1.
    9000002    1    1    2    0    0  0.32068714883E+00  0.68400471406E+00  0.41445005605E+00  0.12737015134E+01  0.93800000000E+00 0. -1.
         22    1    1    2    0    0 -0.17629669771E+00 -0.35894140494E+00  0.18998188499E+01  0.19414507772E+01  0.00000000000E+00 0.  1.
</event>
<event>
 5    1  0.1560836E+002  0.1423893E+01  0.7818608E-02  0.3569901E+00
         11   -1    0    0    0    0  0.00000000000E+00  0.00000000000E+00  0.39999999674E+01  0.40000000000E+01  0.51100000000E-03 0. -1.
    9000002   -1    0    0    0    0 -0.00000000000E+00 -0.00000000000E+00  0.00000000000E+00  0.93800000000E+00  0.93800000000E+00 0. -1.
         11    1    1    2    0    0  0.21632398618E+00 -0.38982483547E+00  0.17982724744E+01  0.18527125041E+01  0.51100000000E-03 0. -1.
    9000002    1    1    2    0    0 -0.11780895587E+00 -0.18590328204E+00  0.17905977513E+00  0.97997213400E+00  0.93800000000E+00 0. -1.
         22    1    1    2    0    0 -0.98515030311E-01  0.57572811751E+00  0.20226677178E+01  0.21053153619E+01  0.00000000000E+00 0.  1.
</event>
<event>
 5    1  0.1560836E+002  0.1599654E+01  0.7818608E-02  0.3353739E+00
         11   -1    0    0    0    0  0.00000000000E+00  0.00000000000E+00  0.39999999674E+01  0.40000000000E+01  0.51100000000E-03 0.  1.
    9000002   -1    0    0    0    0 -0.00000000000E+00 -0.00000000000E+00  0.00000000000E+00  0.93800000000E+00  0.93800000000E+00 0. -1.
         11    1    1    2    0    0 -0.30770416007E-02 -0.16025759317E-01  0.24754498774E+00  0.24808279913E+00  0.51100000000E-03 0.  1.
    9000002    1    1    2    0    0  0.51704294565E-01  0.21236677077E+00  0.31681502440E-01  0.96364967545E+00  0.93800000000E+00 0. -1.
         22    1    1    2    0    0 -0.48627252964E-01 -0.19634101146E+00  0.37207734772E+01  0.37262675254E+01  0.00000000000E+00 0.  1.
</event>
<event>
 5    1  0.1560836E+002  0.1599677E+01  0.7818608E-02  0.3353714E+00
         11   -1    0    0    0    0  0.00000000000E+00  0.00000000000E+00  0.39999999674E+01  0.40000000000E+01  0.51100000000E-03 0.  1.
    9000002   -1    0    0    0    0 -0.00000000000E+00 -0.00000000000E+00  0.00000000000E+00  0.93800000000E+00  0.93800000000E+00 0. -1.
         11    1    1    2    0    0 -0.57109342079E-01  0.32754907730E+00  0.22823977179E+01  0.23064885603E+01  0.51100000000E-03 0.  1.
    9000002    1    1    2    0    0  0.95037710801E-01 -0.54339709324E+00  0.21025477564E+00  0.11083156762E+01  0.93800000000E+00 0. -1.
         22    1    1    2    0    0 -0.37928368722E-01  0.21584801594E+00  0.15073474738E+01  0.15231957635E+01  0.00000000000E+00 0.  1.
</event>
<event>
 5    1  0.1560836E+002  0.1599570E+01  0.7818608E-02  0.3353831E+00
         11   -1    0    0    0    0  0.00000000000E+00  0.00000000000E+00  0.39999999674E+01  0.40000000000E+01  0.51100000000E-03 0.  1.
    9000002   -1    0    0    0    0 -0.00000000000E+00 -0.00000000000E+00  0.00000000000E+00  0.93800000000E+00  0.93800000000E+00 0. -1.
         11    1    1    2    0    0  0.13888346683E+00  0.92900410107E-01  0.13827814066E+01  0.13928401858E+01  0.51100000000E-03 0.  1.
    9000002    1    1    2    0    0 -0.40892948749E+00 -0.23391750221E+00  0.15131622115E+00  0.10605099351E+01  0.93800000000E+00 0. -1.
         22    1    1    2    0    0  0.27004602066E+00  0.14101709210E+00  0.24659023396E+01  0.24846498791E+01  0.00000000000E+00 0.  1.
</event>
<event>
 5    1  0.1560836E+002  0.1599672E+01  0.7818608E-02  0.3353719E+00
         11   -1    0    0    0    0  0.00000000000E+00  0.00000000000E+00  0.39999999674E+01  0.40000000000E+01  0.51100000000E-03 0.  1.
    9000002   -1    0    0    0    0 -0.00000000000E+00 -0.00000000000E+00  0.00000000000E+00  0.93800000000E+00  0.93800000000E+00 0.  1.
         11    1    1    2    0    0  0.24613713847E-01  0.13505807146E-01  0.47455101539E+00  0.47538107773E+00  0.51100000000E-03 0.  1.
    9000002    1    1    2    0    0 -0.21166414459E+00 -0.10070968870E+00  0.36460179956E-01  0.96753165128E+00  0.93800000000E+00 0.  1.
         22    1    1    2    0    0  0.18705043074E+00  0.87203881556E-01  0.34889887720E+01  0.34950872710E+01  0.00000000000E+00 0.  1.
</event>
<event>
 5    1  0.1560836E+002  0.1594766E+01  0.7818608E-02  0.3359064E+00
         11   -1    0    0    0    0  0.00000000000E+00  0.00000000000E+00  0.39999999674E+01  0.40000000000E+01  0.51100000000E-03 0.  1.
    9000002   -1    0    0    0    0 -0.00000000000E+00 -0.00000000000E+00  0.00000000000E+00  0.93800000000E+00  0.93800000000E+00 0. -1.
         11    1    1    2    0    0 -0.13092236574E-01 -0.34575729301E-01  0.44818542013E+00  0.44970803824E+00  0.51100000000E-03 0.  1.
    9000002    1    1    2    0    0  0.80384012923E-01 -0.16509876563E+00  0.25970835492E-01  0.95615776744E+00  0.93800000000E+00 0. -1.
         22    1    1    2    0    0 -0.67291776349E-01  0.19967449493E+00  0.35258437117E+01  0.35321341943E+01  0.00000000000E+00 0.  1.
</event>
<event>
 5    1  0.1560836E+002  0.1599669E+01  0.7818608E-02  0.3353723E+00
         11   -1    0    0    0    0  0.00000000000E+00  0.00000000000E+00  0.39999999674E+01  0.40000000000E+01  0.51100000000E-03 0.  1.
    9000002   -1    0    0    0    0 -0.00000000000E+00 -0.00000000000E+00  0.00000000000E+00  0.93800000000E+00  0.93800000000E+00 0.  1.
         11    1    1    2    0    0 -0.21295726993E-01  0.34512587688E-01  0.58681461121E+00  0.58821448107E+00  0.51100000000E-03 0.  1.
    9000002    1    1    2    0    0  0.12698528095E+00 -0.23107727497E+00  0.46239010107E-01  0.97545067258E+00  0.93800000000E+00 0.  1.
         22    1    1    2    0    0 -0.10568955396E+00  0.19656468728E+00  0.33669463460E+01  0.33743348463E+01  0.00000000000E+00 0.  1.
</event>
<event>
 5    1  0.1560836E+002  0.1595408E+01  0.7818608E-02  0.3358362E+00
         11   -1    0    0    0    0  0.00000000000E+00  0.00000000000E+00  0.39999999674E+01  0.40000000000E+01  0.51100000000E-03 0. -1.
    9000002   -1    0    0    0    0 -0.00000000000E+00 -0.00000000000E+00  0.00000000000E+00  0.93800000000E+00  0.93800000000E+00 0.  1.
         11    1    1    2    0    0  0.23988898805E-01  0.33187255989E-01  0.15954419365E+00  0.16471633822E+00  0.51100000000E-03 0. -1.
    9000002    1    1    2    0    0  0.17501226160E+00 -0.63453429528E+00  0.31089234194E+00  0.11873336144E+01  0.93800000000E+00 0.  1.
         22    1    1    2    0    0 -0.19900116041E+00  0.60134703929E+00  0.35295634318E+01  0.35859500474E+01  0.00000000000E+00 0. -1.
</event>
<event>
 5    1  0.1560836E+002  0.1599638E+01  0.7818608E-02  0.3353756E+00
         11   -1    0    0    0    0  0.00000000000E+00  0.00000000000E+00  0.39999999674E+01  0.40000000000E+01  0.51100000000E-03 0.  1.
    9000002   -1    0    0    0    0 -0.00000000000E+00 -0.00000000000E+00  0.00000000000E+00  0.93800000000E+00  0.93800000000E+00 0.  1.
         11    1    1    2    0    0 -0.12737626498E+00  0.20621600204E-01  0.14124562321E+01  0.14183380528E+01  0.51100000000E-03 0.  1.
    9000002    1    1    2    0    0  0.33386144687E+00 -0.55199850059E-01  0.76715055723E-01  0.10001198373E+01  0.93800000000E+00 0.  1.
         22    1    1    2    0    0 -0.20648518189E+00  0.34578249855E-01  0.25108286795E+01  0.25195421099E+01  0.00000000000E+00 0.  1.
</event>
<event>
 5    1  0.1560836E+002  0.1599676E+01  0.7818608E-02  0.3353715E+00
         11   -1    0    0    0    0  0.00000000000E+00  0.00000000000E+00  0.39999999674E+01  0.40000000000E+01  0.51100000000E-03 0.  1.
    9000002   -1    0    0    0    0 -0.00000000000E+00 -0.00000000000E+00  0.00000000000E+00  0.93800000000E+00  0.93800000000E+00 0.  1.
         11    1    1    2    0    0  0.43887606825E-01  0.46031838301E-01  0.92987079437E+00  0.93204345795E+00  0.51100000000E-03 0.  1.
    9000002    1    1    2    0    0 -0.18470288132E+00 -0.19798182736E+00  0.48781741010E-01  0.97751502116E+00  0.93800000000E+00 0.  1.
         22    1    1    2    0    0  0.14081527450E+00  0.15194998906E+00  0.30213474320E+01  0.30284415209E+01  0.00000000000E+00 0.  1.
</event>
<event>
 5    1  0.1560836E+002  0.1599675E+01  0.7818608E-02  0.3353716E+00
         11   -1    0    0    0    0  0.00000000000E+00  0.00000000000E+00  0.39999999674E+01  0.40000000000E+01  0.51100000000E-03 0. -1.
    9000002   -1    0    0    0    0 -0.00000000000E+00 -0.00000000000E+00  0.00000000000E+00  0.93800000000E+00  0.93800000000E+00 0.  1.
         11    1    1    2    0    0  0.22903298636E+00 -0.10545670907E+00  0.12637895407E+01  0.12886975947E+01  0.51100000000E-03 0. -1.
    9000002    1    1    2    0    0 -0.66010853975E+00  0.30065759760E+00  0.37866922416E+00  0.12447379871E+01  0.93800000000E+00 0.  1.
         22    1    1    2    0    0  0.43107555339E+00 -0.19520088854E+00  0.23575412025E+01  0.24045644182E+01  0.00000000000E+00 0. -1.
</event>
<event>
 5    1  0.1560836E+002  0.1597634E+01  0.7818608E-02  0.3355936E+00
         11   -1    0    0    0    0  0.00000000000E+00  0.00000000000E+00  0.39999999674E+01  0.40000000000E+01  0.51100000000E-03 0. -1.
    9000002   -1    0    0    0    0 -0.00000000000E+00 -0.00000000000E+00  0.00000000000E+00  0.93800000000E+00  0.93800000000E+00 0. -1.
         11    1    1    2    0    0 -0.36743322109E-01  0.31316716492E+00  0.15138891160E+01  0.15463777875E+01  0.51100000000E-03 0. -1.
    9000002    1    1    2    0    0 -0.35977530657E-01 -0.71626059626E+00  0.37165516562E+00  0.12378591142E+01  0.93800000000E+00 0. -1.
         22    1    1    2    0    0  0.72720852766E-01  0.40309343134E+00  0.21144556857E+01  0.21537630983E+01  0.00000000000E+00 0. -1.
</event>
<event>
 5    1  0.1560836E+002  0.1599671E+01  0.7818608E-02  0.3353720E+00
         11   -1    0    0    0    0  0.00000000000E+00  0.00000000000E+00  0.39999999674E+01  0.40000000000E+01  0.51100000000E-03 0.  1.
    9000002   -1    0    0    0    0 -0.00000000000E+00 -0.00000000000E+00  0.00000000000E+00  0.93800000000E+00  0.93800000000E+00 0.  1.
         11    1    1    2    0    0 -0.11681346449E-01 -0.81897927903E-03  0.16560737680E+00  0.16602165207E+00  0.51100000000E-03 0.  1.
    9000002    1    1    2    0    0  0.26253766148E+00  0.39240312884E-01  0.46871526818E-01  0.97596453106E+00  0.93800000000E+00 0.  1.
         22    1    1    2    0    0 -0.25085631503E+00 -0.38421333605E-01  0.37875210637E+01  0.37960138169E+01  0.00000000000E+00 0.  1.
</event>
<event>
 5    1  0.1560836E+002  0.1599675E+01  0.7818608E-02  0.3353716E+00
         11   -1    0    0    0    0  0.00000000000E+00  0.00000000000E+00  0.39999999674E+01  0.40000000000E+01  0.51100000000E-03 0.  1.
    9000002   -1    0    0    0    0 -0.00000000000E+00 -0.00000000000E+00  0.00000000000E+00  0.93800000000E+00  0.93800000000E+00 0. -1.
         11    1    1    2    0    0  0.56532181379E-01  0.27376436060E-01  0.89718045292E+00  0.89937666358E+00  0.51100000000E-03 0.  1.
    9000002    1    1    2    0    0 -0.24768451087E+00 -0.12616068523E+00  0.51443766894E-01  0.97967065720E+00  0.93800000000E+00 0. -1.
         22    1    1    2    0    0  0.19115232949E+00  0.98784249172E-01  0.30513757475E+01  0.30589526792E+01  0.00000000000E+00 0.  1.
</event>
<event>
 5    1  0.1560836E+002  0.1591771E+01  0.7818608E-02  0.3362343E+00
         11   -1    0    0    0    0  0.00000000000E+00  0.00000000000E+00  0.39999999674E+01  0.40000000000E+01  0.51100000000E-03 0. -1.
    9000002   -1    0    0    0    0 -0.00000000000E+00 -0.00000000000E+00  0.00000000000E+00  0.93800000000E+00  0.93800000000E+00 0.  1.
         11    1    1    2    0    0  0.31804645024E-01 -0.54910735443E-01  0.65562611373E+00  0.65869005339E+00  0.51100000000E-03 0. -1.
    9000002    1    1    2    0    0 -0.12265523096E+00 -0.14353155871E+00  0.29508038696E-01  0.95726711966E+00  0.93800000000E+00 0.  1.
         22    1    1    2    0    0  0.90850585940E-01  0.19844229416E+00  0.33148658149E+01  0.33220428269E+01  0.00000000000E+00 0. -1.
</event>
<event>
 5    1  0.1560836E+002  0.1599676E+01  0.7818608E-02  0.3353715E+00
         11   -1    0    0    0    0  0.00000000000E+00  0.00000000000E+00  0.39999999674E+01  0.40000000000E+01  0.51100000000E-03 0.  1.
    9000002   -1    0    0    0    0 -0.00000000000E+00 -0.00000000000E+00  0.00000000000E+00  0.93800000000E+00  0.93800000000E+00 0. -1.
         11    1    1    2    0    0 -0.27905561409E-02  0.78851067416E-01  0.65788193827E+00  0.66259654682E+00  0.51100000000E-03 0.  1.
    9000002    1    1    2    0    0  0.13874441283E-01 -0.45730421401E+00  0.14232692650E+00  0.10532903675E+01  0.93800000000E+00 0. -1.
         22    1    1    2    0    0 -0.11083885142E-01  0.37845314660E+00  0.31997911026E+01  0.32221130857E+01  0.00000000000E+00 0.  1.
</event>
<event>
 5    1  0.1560836E+002  0.1598811E+01  0.7818608E-02  0.3354655E+00
         11   -1    0    0    0    0  0.00000000000E+00  0.00000000000E+00  0.39999999674E+01  0.40000000000E+01  0.51100000000E-03 0. -1.
    9000002   -1    0    0    0    0 -0.00000000000E+00 -0.00000000000E+00  0.00000000000E+00  0.93800000000E+00  0.93800000000E+00 0. -1.
         11    1    1    2    0    0  0.33973830650E-01  0.24215840524E-01  0.46904888360E+00  0.47090099217E+00  0.51100000000E-03 0. -1.
    9000002    1    1    2    0    0 -0.25005006933E+00 -0.14540653632E-01  0.42339282695E-01  0.97178859977E+00  0.93800000000E+00 0. -1.
         22    1    1    2    0    0  0.21607623868E+00 -0.96751868915E-02  0.34886118011E+01  0.34953104081E+01  0.00000000000E+00 0. -1.
</event>
<event>
 5    1  0.1560836E+002  0.1595702E+01  0.7818608E-02  0.3358041E+00
         11   -1    0    0    0    0  0.00000000000E+00  0.00000000000E+00  0.39999999674E+01  0.40000000000E+01  0.51100000000E-03 0. -1.
    9000002   -1    0    0    0    0 -0.00000000000E+00 -0.00000000000E+00  0.00000000000E+00  0.93800000000E+00  0.93800000000E+00 0.  1.
         11    1    1    2    0    0  0.65812035337E-02 -0.18375103232E-01  0.55456734316E+00  0.55491094410E+00  0.51100000000E-03 0. -1.
    9000002    1    1    2    0    0  0.17094607008E+00 -0.17514077521E+00  0.42809627135E-01  0.97034711016E+00  0.93800000000E+00 0.  1.
         22    1    1    2    0    0 -0.17752727361E+00  0.19351587844E+00  0.34026229971E+01  0.34127419457E+01  0.00000000000E+00 0. -1.
</event>
<event>
 5    1  0.1560836E+002  0.1597559E+01  0.7818608E-02  0.3356017E+00
         11   -1    0    0    0    0  0.00000000000E+00  0.00000000000E+00  0.39999999674E+01  0.40000000000E+01  0.51100000000E-03 0.  1.
    9000002   -1    0    0    0    0 -0.00000000000E+00 -0.00000000000E+00  0.00000000000E+00  0.93800000000E+00  0.93800000000E+00 0. -1.
         11    1    1    2    0    0 -0.36740392870E-01 -0.15926540511E-01  0.13968528716E+01  0.13974268200E+01  0.51100000000E-03 0.  1.
    9000002    1    1    2    0    0  0.22883769311E+00  0.12827398265E+00  0.47390751764E-01  0.97514654682E+00  0.93800000000E+00 0. -1.
         22    1    1    2    0    0 -0.19209730024E+00 -0.11234744214E+00  0.25557563440E+01  0.25654266332E+01  0.00000000000E+00 0.  1.
</event>
<event>
 5    1  0.1560836E+002  0.1599664E+01  0.7818608E-02  0.3353728E+00
         11   -1    0    0    0    0  0.00000000000E+00  0.00000000000E+00  0.39999999674E+01  0.40000000000E+01  0.51100000000E-03 0.  1.
    9000002   -1    0    0    0    0 -0.00000000000E+00 -0.00000000000E+00  0.00000000000E+00  0.93800000000E+00  0.93800000000E+00 0. -1.
         11    1    1    2    0    0 -0.82363996886E-01  0.48756622284E-01  0.11820082221E+01  0.11858772004E+01  0.51100000000E-03 0.  1.
    9000002    1    1    2    0    0  0.27103544882E+00 -0.17493436459E+00  0.69583441777E-01  0.99435813558E+00  0.93800000000E+00 0. -1.
         22    1    1    2    0    0 -0.18867145194E+00  0.12617774231E+00  0.27484083035E+01  0.27577646640E+01  0.00000000000E+00 0.  1.
</event>
<event>
 5    1  0.1560836E+002  0.1599675E+01  0.7818608E-02  0.3353716E+00
         11   -1    0    0    0    0  0.00000000000E+00  0.00000000000E+00  0.39999999674E+01  0.40000000000E+01  0.51100000000E-03 0.  1.
    9000002   -1    0    0    0    0 -0.00000000000E+00 -0.00000000000E+00  0.00000000000E+00  0.93800000000E+00  0.93800000000E+00 0.  1.
         11    1    1    2    0    0  0.15533397992E-01 -0.14873113769E+00  0.11686272580E+01  0.11781562575E+01  0.51100000000E-03 0.  1.
    9000002    1    1    2    0    0 -0.49173544901E-01  0.49233312516E+00  0.16744200734E+00  0.10736343742E+01  0.93800000000E+00 0.  1.
         22    1    1    2    0    0  0.33640146909E-01 -0.34360198746E+00  0.26639307020E+01  0.26862093683E+01  0.00000000000E+00 0.  1.
</event>
<event>
 5    1  0.1560836E+002  0.1474609E+01  0.7818608E-02  0.3501817E+00
         11   -1    0    0    0    0  0.00000000000E+00  0.00000000000E+00  0.39999999674E+01  0.40000000000E+01  0.51100000000E-03 0. -1.
    9000002   -1    0    0    0    0 -0.00000000000E+00 -0.00000000000E+00  0.00000000000E+00  0.93800000000E+00  0.93800000000E+00 0.  1.
         11    1    1    2    0    0 -0.65792288893E+00 -0.58536140946E-01  0.30229656661E+01  0.30942867816E+01  0.51100000000E-03 0. -1.
    9000002    1    1    2    0    0  0.58113368401E+00  0.36808036722E+00  0.49145275571E+00  0.12627625773E+01  0.93800000000E+00 0.  1.
         22    1    1    2    0    0  0.76789204914E-01 -0.30954422627E+00  0.48558154557E+00  0.58095064111E+00  0.00000000000E+00 0.  1.
</event>
<event>
 5    1  0.1560836E+002  0.1599535E+01  0.7818608E-02  0.3353868E+00
         11   -1    0    0    0    0  0.00000000000E+00  0.00000000000E+00  0.39999999674E+01  0.40000000000E+01  0.51100000000E-03 0.  1.
    9000002   -1    0    0    0    0 -0.00000000000E+00 -0.00000000000E+00  0.00000000000E+00  0.93800000000E+00  0.93800000000E+00 0. -1.
         11    1    1    2    0    0  0.58183103763E-02  0.69291788067E-02  0.15908168674E+00  0.15933960723E+00  0.51100000000E-03 0.  1.
    9000002    1    1    2    0    0 -0.21195418392E+00 -0.50012719163E-01  0.31539247013E-01  0.96346487858E+00  0.93800000000E+00 0. -1.
         22    1    1    2    0    0  0.20613587354E+00  0.43083540357E-01  0.38093790336E+01  0.38151955142E+01  0.00000000000E+00 0.  1.
</event>
<event>
 5    1  0.1560836E+002  0.1599648E+01  0.7818608E-02  0.3353746E+00
         11   -1    0    0    0    0  0.00000000000E+00  0.00000000000E+00  0.39999999674E+01  0.40000000000E+01  0.51100000000E-03 0.  1.
    9000002   -1    0    0    0    0 -0.00000000000E+00 -0.00000000000E+00  0.00000000000E+00  0.93800000000E+00  0.93800000000E+00 0.  1.
         11    1    1    2    0    0 -0.11940669549E+00  0.10073603140E+00  0.16085006884E+01  0.16160694393E+01  0.51100000000E-03 0.  1.
    9000002    1    1    2    0    0  0.28347076928E+00 -0.23083817426E+00  0.89789889551E-01  0.10107166586E+01  0.93800000000E+00 0.  1.
         22    1    1    2    0    0 -0.16406407379E+00  0.13010214286E+00  0.23017093895E+01  0.23112139021E+01  0.00000000000E+00 0. -1.
</event>
<event>
 5    1  0.1560836E+002  0.1597619E+01  0.7818608E-02  0.3355952E+00
         11   -1    0    0    0    0  0.00000000000E+00  0.00000000000E+00  0.39999999674E+01  0.40000000000E+01  0.51100000000E-03 0. -1.
    9000002   -1    0    0    0    0 -0.00000000000E+00 -0.00000000000E+00  0.00000000000E+00  0.93800000000E+00  0.93800000000E+00 0. -1.
         11    1    1    2    0    0 -0.24034430443E+00 -0.96634915209E-01  0.22114560194E+01  0.22265762233E+01  0.51100000000E-03 0. -1.
    9000002    1    1    2    0    0  0.37082227042E+00  0.24942765146E+00  0.13736276749E+00  0.10480628986E+01  0.93800000000E+00 0. -1.
         22    1    1    2    0    0 -0.13047796599E+00 -0.15279273625E+00  0.16511811805E+01  0.16633608781E+01  0.00000000000E+00 0.  1.
</event>
<event>
 5    1  0.1560836E+002  0.1599674E+01  0.7818608E-02  0.3353717E+00
         11   -1    0    0    0    0  0.00000000000E+00  0.00000000000E+00  0.39999999674E+01  0.40000000000E+01  0.51100000000E-03 0. -1.
    9000002   -1    0    0    0    0 -0.00000000000E+00 -0.00000000000E+00  0.00000000000E+00  0.93800000000E+00  0.93800000000E+00 0.  1.
         11    1    1    2    0    0  0.23456283477E-01  0.52882874620E+00  0.13774431111E+01  0.14756557273E+01  0.51100000000E-03 0. -1.
    9000002    1    1    2    0    0 -0.53625515614E-01 -0.11173575521E+01  0.10945029996E+01  0.18245943141E+01  0.93800000000E+00 0.  1.
         22    1    1    2    0    0  0.30169232137E-01  0.58852880587E+00  0.15280538567E+01  0.16377499586E+01  0.00000000000E+00 0. -1.
</event>
<event>
 5    1  0.1560836E+002  0.1599621E+01  0.7818608E-02  0.3353774E+00
         11   -1    0    0    0    0  0.00000000000E+00  0.00000000000E+00  0.39999999674E+01  0.40000000000E+01  0.51100000000E-03 0. -1.
    9000002   -1    0    0    0    0 -0.00000000000E+00 -0.00000000000E+00  0.00000000000E+00  0.93800000000E+00  0.93800000000E+00 0. -1.
         11    1    1    2    0    0 -0.43542522960E-01 -0.52841905749E-01  0.72125338971E+00  0.72449632959E+00  0.51100000000E-03 0. -1.
    9000002    1    1    2    0    0  0.21183322265E+00  0.25913405648E+00  0.75033908738E-01  0.99874814688E+00  0.93800000000E+00 0. -1.
         22    1    1    2    0    0 -0.16829069969E+00 -0.20629215073E+00  0.32037126689E+01  0.32147555235E+01  0.00000000000E+00 0. -1.
</event>
<event>
 5    1  0.1560836E+002  0.1599586E+01  0.7818608E-02  0.3353813E+00
         11   -1    0    0    0    0  0.00000000000E+00  0.00000000000E+00  0.39999999674E+01  0.40000000000E+01  0.51100000000E-03 0. -1.
    9000002   -1    0    0    0    0 -0.00000000000E+00 -0.00000000000E+00  0.00000000000E+00  0.93800000000E+00  0.93800000000E+00 0. -1.
         11    1    1    2    0    0 -0.17610862529E+00  0.10293334408E+00  0.11178744141E+01  0.11363331325E+01  0.51100000000E-03 0. -1.
    9000002    1    1    2    0    0  0.56457039087E+00 -0.31172423266E+00  0.29322698813E+00  0.11754734323E+01  0.93800000000E+00 0. -1.
         22    1    1    2    0    0 -0.38846176558E+00  0.20879088859E+00  0.25888985652E+01  0.26261934352E+01  0.00000000000E+00 0. -1.
</event>
<event>
 5    1  0.1560836E+002  0.1599512E+01  0.7818608E-02  0.3353893E+00
         11   -1    0    0    0    0  0.00000000000E+00  0.00000000000E+00  0.39999999674E+01  0.40000000000E+01  0.51100000000E-03 0.  1.
    9000002   -1    0    0    0    0 -0.00000000000E+00 -0.00000000000E+00  0.00000000000E+00  0.93800000000E+00  0.93800000000E+00 0.  1.
         11    1    1    2    0    0  0.20511465031E+00  0.21168999776E+00  0.17699446356E+01  0.17943213060E+01  0.51100000000E-03 0.  1.
    9000002    1    1    2    0    0 -0.40963845119E+00 -0.46940749022E+00  0.27234941308E+00  0.11585185607E+01  0.93800000000E+00 0.  1.
         22    1    1    2    0    0  0.20452380088E+00  0.25771749246E+00  0.19577059187E+01  0.19851601334E+01  0.00000000000E+00 0.  1.
</event>
<event>
 5    1  0.1560836E+002  0.1599676E+01  0.7818608E-02  0.3353715E+00
         11   -1    0    0    0    0  0.00000000000E+00  0.00000000000E+00  0.39999999674E+01  0.40000000000E+01  0.51100000000E-03 0.  1.
    9000002   -1    0    0    0    0 -0.00000000000E+00 -0.00000000000E+00  0.00000000000E+00  0.93800000000E+00  0.93800000000E+00 0. -1.
         11    1    1    2    0    0  0.22358329419E-04  0.31627349469E-01  0.51895087868E+00  0.51991399802E+00  0.51100000000E-03 0.  1.
    9000002    1    1    2    0    0 -0.50521665237E-02 -0.24154424833E+00  0.38750190716E-01  0.96938884126E+00  0.93800000000E+00 0. -1.
         22    1    1    2    0    0  0.50298081943E-02  0.20991689886E+00  0.34422988980E+01  0.34486971607E+01  0.00000000000E+00 0.  1.
</event>
<event>
 5    1  0.1560836E+002  0.1595781E+01  0.7818608E-02  0.3357956E+00
         11   -1    0    0    0    0  0.00000000000E+00  0.00000000000E+00  0.39999999674E+01  0.40000000000E+01  0.51100000000E-03 0. -1.
    9000002   -1    0    0    0    0 -0.00000000000E+00 -0.00000000000E+00  0.00000000000E+00  0.93800000000E+00  0.93800000000E+00 0.  1.
         11    1    1    2    0    0  0.13318129073E+00 -0.12082821303E-01  0.76277988082E+00  0.77441375148E+00  0.51100000000E-03 0. -1.
    9000002    1    1    2    0    0 -0.38319766345E+00  0.14249516931E+00  0.11614164910E+00  0.10297952249E+01  0.93800000000E+00 0.  1.
         22    1    1    2    0    0  0.25001637272E+00 -0.13041234800E+00  0.31210784374E+01  0.31337910236E+01  0.00000000000E+00 0. -1.
</event>
<event>
 5    1  0.1560836E+002  0.1599653E+01  0.7818608E-02  0.3353740E+00
         11   -1    0    0    0    0  0.00000000000E+00  0.00000000000E+00  0.39999999674E+01  0.40000000000E+01  0.51100000000E-03 0.  1.
    9000002   -1    0    0    0    0 -0.00000000000E+00 -0.00000000000E+00  0.00000000000E+00  0.93800000000E+00  0.93800000000E+00 0.  1.
         11    1    1    2    0    0  0.36318808866E-02 -0.22310143273E-01  0.31521672103E+00  0.31602654222E+00  0.51100000000E-03 0.  1.
    9000002    1    1    2    0    0 -0.43285649288E-01  0.24048265440E+00  0.39663222465E-01  0.97011480028E+00  0.93800000000E+00 0.  1.
         22    1    1    2    0    0  0.39653768402E-01 -0.21817251113E+00  0.36451200239E+01  0.36518586575E+01  0.00000000000E+00 0.  1.
</event>
<event>
 5    1  0.1560836E+002  0.1592469E+01  0.7818608E-02  0.3361578E+00
         11   -1    0    0    0    0  0.00000000000E+00  0.00000000000E+00  0.39999999674E+01  0.40000000000E+01  0.51100000000E-03 0. -1.
    9000002   -1    0    0    0    0 -0.00000000000E+00 -0.00000000000E+00  0.00000000000E+00  0.93800000000E+00  0.93800000000E+00 0. -1.
         11    1    1    2    0    0 -0.36671624277E-01 -0.22577657046E+00  0.13449176978E+01  0.13642300916E+01  0.51100000000E-03 0. -1.
    9000002    1    1    2    0    0 -0.93227050652E-01  0.44897456417E+00  0.14928857099E+00  0.10547039962E+01  0.93800000000E+00 0. -1.
         22    1    1    2    0    0  0.12989867493E+00 -0.22319799371E+00  0.25057936986E+01  0.25190659122E+01  0.00000000000E+00 0. -1.
</event>
<event>
 5    1  0.1560836E+002  0.1599428E+01  0.7818608E-02  0.3353984E+00
         11   -1    0    0    0    0  0.00000000000E+00  0.00000000000E+00  0.39999999674E+01  0.40000000000E+01  0.51100000000E-03 0. -1.
    9000002   -1    0    0    0    0 -0.00000000000E+00 -0.00000000000E+00  0.00000000000E+00  0.93800000000E+00  0.93800000000E+00 0. -1.
         11    1    1    2    0    0  0.22779746237E+00 -0.11966006086E+00  0.18342798316E+01  0.18522399887E+01  0.51100000000E-03 0. -1.
    9000002    1    1    2    0    0 -0.45289457503E+00  0.21672556428E+00  0.17285032605E+00  0.10778704475E+01  0.93800000000E+00 0. -1.
         22    1    1    2    0    0  0.22509711266E+00 -0.97065503413E-01  0.19928698097E+01  0.20078895638E+01  0.00000000000E+00 0. -1.
</event>
<event>
 5    1  0.1560836E+002  0.1599672E+01  0.7818608E-02  0.3353719E+00
         11   -1    0    0    0    0  0.00000000000E+00  0.00000000000E+00  0.39999999674E+01  0.40000000000E+01  0.51100000000E-03 0.  1.
    9000002   -1    0    0    0    0 -0.00000000000E+00 -0.00000000000E+00  0.00000000000E+00  0.93800000000E+00  0.93800000000E+00 0. -1.
         11    1    1    2    0    0  0.34799447294E-01 -0.25389193225E-01  0.67261156025E+00  0.67398975123E+00  0.51100000000E-03 0.  1.
    9000002    1    1    2    0    0 -0.19859440381E+00  0.15878696345E+00  0.42966075946E-01  0.97280168620E+00  0.93800000000E+00 0. -1.
         22    1    1    2    0    0  0.16379495652E+00 -0.13339777022E+00  0.32844223312E+01  0.32912085626E+01  0.00000000000E+00 0. -1.
</event>
<event>
 5    1  0.1560836E+002  0.1599672E+01  0.7818608E-02  0.3353719E+00
         11   -1    0    0    0    0  0.00000000000E+00  0.00000000000E+00  0.39999999674E+01  0.40000000000E+01  0.51100000000E-03 0. -1.
    9000002   -1    0    0    0    0 -0.00000000000E+00 -0.00000000000E+00  0.00000000000E+00  0.93800000000E+00  0.93800000000E+00 0.  1.
         11    1    1    2    0    0  0.13532648046E+00  0.63353604974E-02  0.12542725561E+01  0.12615677941E+01  0.51100000000E-03 0. -1.
    9000002    1    1    2    0    0 -0.41607306105E+00 -0.26687670810E-01  0.11751652688E+00  0.10331907655E+01  0.93800000000E+00 0.  1.
         22    1    1    2    0    0  0.28074658059E+00  0.20352310312E-01  0.26282108844E+01  0.26432414403E+01  0.00000000000E+00 0. -1.
</event>
<event>
 5    1  0.1560836E+002  0.1599676E+01  0.7818608E-02  0.3353715E+00
         11   -1    0    0    0    0  0.00000000000E+00  0.00000000000E+00  0.39999999674E+01  0.40000000000E+01  0.51100000000E-03 0. -1.
    9000002   -1    0    0    0    0 -0.00000000000E+00 -0.00000000000E+00  0.00000000000E+00  0.93800000000E+00  0.93800000000E+00 0.  1.
         11    1    1    2    0    0  0.37932625337E-02 -0.37281627966E-01  0.55769760642E+00  0.55895544540E+00  0.51100000000E-03 0.  1.
    9000002    1    1    2    0    0 -0.31407618471E-01  0.26049601599E+00  0.45778238367E-01  0.97508166835E+00  0.93800000000E+00 0.  1.
         22    1    1    2    0    0  0.27614355937E-01 -0.22321438803E+00  0.33965241226E+01  0.34039628862E+01  0.00000000000E+00 0. -1.
</event>
<event>
 5    1  0.1560836E+002  0.1599677E+01  0.7818608E-02  0.3353714E+00
         11   -1    0    0    0    0  0.00000000000E+00  0.00000000000E+00  0.39999999674E+01  0.40000000000E+01  0.51100000000E-03 0. -1.
    9000002   -1    0    0    0    0 -0.00000000000E+00 -0.00000000000E+00  0.00000000000E+00  0.93800000000E+00  0.93800000000E+00 0. -1.
         11    1    1    2    0    0 -0.24495700652E+00 -0.36165295004E+00  0.19231963285E+01  0.19721767595E+01  0.51100000000E-03 0. -1.
    9000002    1    1    2    0    0  0.44949811556E+00  0.66359823760E+00  0.47345567230E+00  0.13215201287E+01  0.93800000000E+00 0. -1.
         22    1    1    2    0    0 -0.20454110904E+00 -0.30194528756E+00  0.16033479665E+01  0.16443031119E+01  0.00000000000E+00 0. -1.
</event>
<event>
 5    1  0.1560836E+002  0.1554802E+01  0.7818608E-02  0.3403930E+00
         11   -1    0    0    0    0  0.00000000000E+00  0.00000000000E+00  0.39999999674E+01  0.40000000000E+01  0.51100000000E-03 0.  1.
    9000002   -1    0    0    0    0 -0.00000000000E+00 -0.00000000000E+00  0.00000000000E+00  0.93800000000E+00  0.93800000000E+00 0. -1.
         11    1    1    2    0    0  0.69889357269E-01 -0.16581958200E+00  0.17568467871E+01  0.17660383774E+01  0.51100000000E-03 0.  1.
    9000002    1    1    2    0    0  0.30314054637E+00  0.39973298860E-01  0.98509938154E-01  0.99148386946E+00  0.93800000000E+00 0. -1.
         22    1    1    2    0    0 -0.37302990364E+00  0.12584628314E+00  0.21446432421E+01  0.21804777531E+01  0.00000000000E+00 0.  1.
</event>
<event>
 5    1  0.1560836E+002  0.1599676E+01  0.7818608E-02  0.3353716E+00
         11   -1    0    0    0    0  0.00000000000E+00  0.00000000000E+00  0.39999999674E+01  0.40000000000E+01  0.51100000000E-03 0.  1.
    9000002   -1    0    0    0    0 -0.00000000000E+00 -0.00000000000E+00  0.00000000000E+00  0.93800000000E+00  0.93800000000E+00 0.  1.
         11    1    1    2    0    0 -0.19310293883E+00  0.19048552554E+00  0.20006434560E+01  0.20189472454E+01  0.51100000000E-03 0.  1.
    9000002    1    1    2    0    0  0.36909367500E+00 -0.36577898001E+00  0.18547383902E+00  0.10882412178E+01  0.93800000000E+00 0.  1.
         22    1    1    2    0    0 -0.17599073617E+00  0.17529345447E+00  0.18138826723E+01  0.18308115368E+01  0.00000000000E+00 0.  1.
</event>
<event>
 5    1  0.1560836E+002  0.1597957E+01  0.7818608E-02  0.3355584E+00
         11   -1    0    0    0    0  0.00000000000E+00  0.00000000000E+00  0.39999999674E+01  0.40000000000E+01  0.51100000000E-03 0.  1.
    9000002   -1    0    0    0    0 -0.00000000000E+00 -0.00000000000E+00  0.00000000000E+00  0.93800000000E+00  0.93800000000E+00 0. -1.
         11    1    1    2    0    0  0.98972307367E-01 -0.34744735496E-01  0.65481080742E+00  0.66315923344E+00  0.51100000000E-03 0.  1.
    9000002    1    1    2    0    0 -0.40739818961E+00  0.73446589282E-01  0.11724927795E+00  0.10319685458E+01  0.93800000000E+00 0. -1.
         22    1    1    2    0    0  0.30842588224E+00 -0.38701853786E-01  0.32279398820E+01  0.32428722207E+01  0.00000000000E+00 0.  1.
</event>
<event>
 5    1  0.1560836E+002  0.1599675E+01  0.7818608E-02  0.3353716E+00
         11   -1    0    0    0    0  0.00000000000E+00  0.00000000000E+00  0.39999999674E+01  0.40000000000E+01  0.51100000000E-03 0. -1.
    9000002   -1    0    0    0    0 -0.00000000000E+00 -0.00000000000E+00  0.00000000000E+00  0.93800000000E+00  0.93800000000E+00 0. -1.
         11    1    1    2    0    0  0.19238500039E-01  0.13584486344E-01  0.25737376985E+00  0.25844956313E+00  0.51100000000E-03 0. -1.
    9000002    1    1    2    0    0 -0.29314164236E+00 -0.19691890410E+00  0.83649244547E-01  0.10057585562E+01  0.93800000000E+00 0. -1.
         22    1    1    2    0    0  0.27390314232E+00  0.18333441776E+00  0.36589769530E+01  0.36737918807E+01  0.00000000000E+00 0. -1.
</event>
<event>
 5    1  0.1560836E+002  0.1599677E+01  0.7818608E-02  0.3353714E+00
         11   -1    0    0    0    0  0.00000000000E+00  0.00000000000E+00  0.39999999674E+01  0.40000000000E+01  0.51100000000E-03 0.  1.
    9000002   -1    0    0    0    0 -0.00000000000E+00 -0.00000000000E+00  0.00000000000E+00  0.93800000000E+00  0.93800000000E+00 0. -1.
         11    1    1    2    0    0  0.11292183123E+00 -0.89257249428E-01  0.92285714654E+00  0.93401486636E+00  0.51100000000E-03 0. -1.
    9000002    1    1    2    0    0 -0.46008747117E+00  0.36262884200E+00  0.23872363577E+00  0.11313766537E+01  0.93800000000E+00 0. -1.
         22    1    1    2    0    0  0.34716563993E+00 -0.27337159257E+00  0.28384191851E+01  0.28726084800E+01  0.00000000000E+00 0.  1.
</event>
<event>
 5    1  0.1560836E+002  0.1599545E+01  0.7818608E-02  0.3353857E+00
         11   -1    0    0    0    0  0.00000000000E+00  0.00000000000E+00  0.39999999674E+01  0.40000000000E+01  0.51100000000E-03 0.  1.
    9000002   -1    0    0    0    0 -0.00000000000E+00 -0.00000000000E+00  0.00000000000E+00  0.93800000000E+00  0.93800000000E+00 0.  1.
         11    1    1    2    0    0  0.56957380392E-01 -0.74912920727E-01  0.11004227242E+01  0.11044394605E+01  0.51100000000E-03 0.  1.
    9000002    1    1    2    0    0 -0.15985547343E+00  0.26177475653E+00  0.62904867241E-01  0.98887856578E+00  0.93800000000E+00 0.  1.
         22    1    1    2    0    0  0.10289809304E+00 -0.18686183581E+00  0.28366723759E+01  0.28446819737E+01  0.00000000000E+00 0.  1.
</event>
<event>
 5    1  0.1560836E+002  0.1599619E+01  0.7818608E-02  0.3353776E+00
         11   -1    0    0    0    0  0.00000000000E+00  0.00000000000E+00  0.39999999674E+01  0.40000000000E+01  0.51100000000E-03 0. -1.
    9000002   -1    0    0    0    0 -0.00000000000E+00 -0.00000000000E+00  0.00000000000E+00  0.93800000000E+00  0.93800000000E+00 0. -1.
         11    1    1    2    0    0  0.34166208959E-01 -0.53302801513E-01  0.78858526295E+00  0.79112293390E+00  0.51100000000E-03 0. -1.
    9000002    1    1    2    0    0 -0.15263602264E+00  0.23519286267E+00  0.52396232507E-01  0.98040950793E+00  0.93800000000E+00 0. -1.
         22    1    1    2    0    0  0.11846981368E+00 -0.18189006116E+00  0.31590184719E+01  0.31664675582E+01  0.00000000000E+00 0. -1.
</event>
<event>
 5    1  0.1560836E+002  0.1599674E+01  0.7818608E-02  0.3353717E+00
         11   -1    0    0    0    0  0.00000000000E+00  0.00000000000E+00  0.39999999674E+01  0.40000000000E+01  0.51100000000E-03 0.  1.
    9000002   -1    0    0    0    0 -0.00000000000E+00 -0.00000000000E+00  0.00000000000E+00  0.93800000000E+00  0.93800000000E+00 0. -1.
         11    1    1    2    0    0 -0.37620173759E-02 -0.55739292265E-02  0.10999176111E+00  0.11019832165E+00  0.51100000000E-03 0.  1.
    9000002    1    1    2    0    0  0.13186897919E+00  0.21837427824E+00  0.43249316403E-01  0.97303199148E+00  0.93800000000E+00 0. -1.
         22    1    1    2    0    0 -0.12810696181E+00 -0.21280034901E+00  0.38467588898E+01  0.38547696869E+01  0.00000000000E+00 0.  1.
</event>
<event>
 5    1  0.1560836E+002  0.1599677E+01  0.7818608E-02  0.3353714E+00
         11   -1    0    0    0    0  0.00000000000E+00  0.00000000000E+00  0.39999999674E+01  0.40000000000E+01  0.51100000000E-03 0.  1.
    9000002   -1    0    0    0    0 -0.00000000000E+00 -0.00000000000E+00  0.00000000000E+00  0.93800000000E+00  0.93800000000E+00 0.  1.
         11    1    1    2    0    0  0.68841877389E-01 -0.31458822779E-01  0.88632961020E+00  0.88955567597E+00  0.51100000000E-03 0.  1.
    9000002    1    1    2    0    0 -0.30392820404E+00  0.13832069372E+00  0.74636305191E-01  0.99845858481E+00  0.93800000000E+00 0.  1.
         22    1    1    2    0    0  0.23508632665E+00 -0.10686187094E+00  0.30390340520E+01  0.30499857392E+01  0.00000000000E+00 0.  1.
</event>
<event>
 5    1  0.1560836E+002  0.1450313E+01  0.7818608E-02  0.3533785E+00
         11   -1    0    0    0    0  0.00000000000E+00  0.00000000000E+00  0.39999999674E+01  0.40000000000E+01  0.51100000000E-03 0. -1.
    9000002   -1    0    0    0    0 -0.00000000000E+00 -0.00000000000E+00  0.00000000000E+00  0.93800000000E+00  0.93800000000E+00 0.  1.
         11    1    1    2    0    0 -0.24615426905E+00 -0.35374135735E-01  0.22930140784E+00  0.33826417252E+00  0.51100000000E-03 0. -1.
    9000002    1    1    2    0    0  0.21457322512E-01  0.19855601658E+00  0.15271209422E+00  0.97110755951E+00  0.93800000000E+00 0.  1.
         22    1    1    2    0    0  0.22469694654E+00 -0.16318188084E+00  0.36179864653E+01  0.36286282680E+01  0.00000000000E+00 0. -1.
</event>
<event>
 5    1  0.1560836E+002  0.1599667E+01  0.7818608E-02  0.3353724E+00
         11   -1    0    0    0    0  0.00000000000E+00  0.00000000000E+00  0.39999999674E+01  0.40000000000E+01  0.51100000000E-03 0. -1.
    9000002   -1    0    0    0    0 -0.00000000000E+00 -0.00000000000E+00  0.00000000000E+00  0.93800000000E+00  0.93800000000E+00 0.  1.
         11    1    1    2    0    0 -0.77872429954E-01  0.68078647010E-01  0.12184594101E+01  0.12228419411E+01  0.51100000000E-03 0. -1.
    9000002    1    1    2    0    0  0.24323535977E+00 -0.22736341185E+00  0.74202935379E-01  0.99810201729E+00  0.93800000000E+00 0.  1.
         22    1    1    2    0    0 -0.16536292982E+00  0.15928476484E+00  0.27073376218E+01  0.27170560417E+01  0.00000000000E+00 0. -1.
</event>
<event>
 5    1  0.1560836E+002  0.1599570E+01  0.7818608E-02  0.3353831E+00
         11   -1    0    0    0    0  0.00000000000E+00  0.00000000000E+00  0.39999999674E+01  0.40000000000E+01  0.51100000000E-03 0. -1.
    9000002   -1    0    0    0    0 -0.00000000000E+00 -0.00000000000E+00  0.00000000000E+00  0.93800000000E+00  0.93800000000E+00 0. -1.
         11    1    1    2    0    0  0.12906569399E-01 -0.15115990039E-01  0.41907768884E+00  0.41954909497E+00  0.51100000000E-03 0. -1.
    9000002    1    1    2    0    0 -0.18342101586E+00  0.18081896575E+00  0.44176441714E-01  0.97372189327E+00  0.93800000000E+00 0. -1.
         22    1    1    2    0    0  0.17051444646E+00 -0.16570297571E+00  0.35367458368E+01  0.35447290118E+01  0.00000000000E+00 0. -1.
</event>
<event>
 5    1  0.1560836E+002  0.1599676E+01  0.7818608E-02  0.3353715E+00
         11   -1    0    0    0    0  0.00000000000E+00  0.00000000000E+00  0.39999999674E+01  0.40000000000E+01  0.51100000000E-03 0. -1.
    9000002   -1    0    0    0    0 -0.00000000000E+00 -0.00000000000E+00  0.00000000000E+00  0.93800000000E+00  0.93800000000E+00 0. -1.
         11    1    1    2    0    0 -0.10764447011E+00 -0.12634947071E+00  0.11396852265E+01  0.11517092503E+01  0.51100000000E-03 0. -1.
    9000002    1    1    2    0    0  0.35608319605E+00  0.41735036752E+00  0.20783112150E+00  0.11063518187E+01  0.93800000000E+00 0. -1.
         22    1    1    2    0    0 -0.24843872594E+00 -0.29100089681E+00  0.26524836194E+01  0.26799389310E+01  0.00000000000E+00 0. -1.
</event>
<event>
 5    1  0.1560836E+002  0.1599529E+01  0.7818608E-02  0.3353874E+00
         11   -1    0    0    0    0  0.00000000000E+00  0.00000000000E+00  0.39999999674E+01  0.40000000000E+01  0.51100000000E-03 0. -1.
    9000002   -1    0    0    0    0 -0.00000000000E+00 -0.00000000000E+00  0.00000000000E+00  0.93800000000E+00  0.93800000000E+00 0.  1.
         11    1    1    2    0    0  0.70168487734E-01 -0.13143553130E+00  0.14412525086E+01  0.14489333905E+01  0.51100000000E-03 0. -1.
    9000002    1    1    2    0    0 -0.21105129960E+00  0.38367403404E+00  0.13013024483E+00  0.10433246360E+01  0.93800000000E+00 0.  1.
         22    1    1    2    0    0  0.14088281187E+00 -0.25223850275E+00  0.24286172140E+01  0.24457419735E+01  0.00000000000E+00 0. -1.
</event>
<event>
 5    1  0.1560836E+002  0.1599677E+01  0.7818608E-02  0.3353714E+00
         11   -1    0    0    0    0  0.00000000000E+00  0.00000000000E+00  0.39999999674E+01  0.40000000000E+01  0.51100000000E-03 0.  1.
    9000002   -1    0    0    0    0 -0.00000000000E+00 -0.00000000000E+00  0.00000000000E+00  0.93800000000E+00  0.93800000000E+00 0.  1.
         11    1    1    2    0    0 -0.24764961806E+00 -0.62737260455E-03  0.14269841226E+01  0.14483144251E+01  0.51100000000E-03 0.  1.
    9000002    1    1    2    0    0  0.64332573211E+00  0.32572658065E-02  0.29159008350E+00  0.11742007427E+01  0.93800000000E+00 0.  1.
         22    1    1    2    0    0 -0.39567611406E+00 -0.26298932019E-02  0.22814257613E+01  0.23154848322E+01  0.00000000000E+00 0. -1.
</event>
<event>
 5    1  0.1560836E+002  0.1597426E+01  0.7818608E-02  0.3356162E+00
         11   -1    0    0    0    0  0.00000000000E+00  0.00000000000E+00  0.39999999674E+01  0.40000000000E+01  0.51100000000E-03 0.  1.
    9000002   -1    0    0    0    0 -0.00000000000E+00 -0.00000000000E+00  0.00000000000E+00  0.93800000000E+00  0.93800000000E+00 0.  1.
         11    1    1    2    0    0  0.60326402923E-01  0.73248172266E-01  0.10771246864E+01  0.10812966387E+01  0.51100000000E-03 0.  1.
    9000002    1    1    2    0    0 -0.40830509820E-01 -0.31616381209E+00  0.69701340050E-01  0.99314095848E+00  0.93800000000E+00 0.  1.
         22    1    1    2    0    0 -0.19495893103E-01  0.24291563982E+00  0.28531739409E+01  0.28635624028E+01  0.00000000000E+00 0.  1.
</event>
<event>
 5    1  0.1560836E+002  0.1599670E+01  0.7818608E-02  0.3353722E+00
         11   -1    0    0    0    0  0.00000000000E+00  0.00000000000E+00  0.39999999674E+01  0.40000000000E+01  0.51100000000E-03 0. -1.
    9000002   -1    0    0    0    0 -0.00000000000E+00 -0.00000000000E+00  0.00000000000E+00  0.93800000000E+00  0.93800000000E+00 0.  1.
         11    1    1    2    0    0 -0.43482186369E-01  0.11267642448E+00  0.11190583032E+01  0.11255569396E+01  0.51100000000E-03 0. -1.
    9000002    1    1    2    0    0  0.15704171653E+00 -0.38291055048E+00  0.11574959359E+00  0.10317579943E+01  0.93800000000E+00 0.  1.
         22    1    1    2    0    0 -0.11355953016E+00  0.27023412600E+00  0.27651920705E+01  0.27806850661E+01  0.00000000000E+00 0. -1.
</event>
<event>
 5    1  0.1560836E+002  0.1590462E+01  0.7818608E-02  0.3363781E+00
         11   -1    0    0    0    0  0.00000000000E+00  0.00000000000E+00  0.39999999674E+01  0.40000000000E+01  0.51100000000E-03 0.  1.
    9000002   -1    0    0    0    0 -0.00000000000E+00 -0.00000000000E+00  0.00000000000E+00  0.93800000000E+00  0.93800000000E+00 0.  1.
         11    1    1    2    0    0 -0.77991422768E-01  0.29204931633E-01  0.60183145612E+00  0.60756641839E+00  0.51100000000E-03 0.  1.
    9000002    1    1    2    0    0 -0.32781526699E-01 -0.19854474403E+00  0.33751021901E-01  0.95993633922E+00  0.93800000000E+00 0.  1.
         22    1    1    2    0    0  0.11077294947E+00  0.16933981240E+00  0.33644174893E+01  0.33704972424E+01  0.00000000000E+00 0.  1.
</event>
<event>
 5    1  0.1560836E+002  0.1564878E+01  0.7818608E-02  0.3392388E+00
         11   -1    0    0    0    0  0.00000000000E+00  0.00000000000E+00  0.39999999674E+01  0.40000000000E+01  0.51100000000E-03 0.  1.
    9000002   -1    0    0    0    0 -0.00000000000E+00 -0.00000000000E+00  0.00000000000E+00  0.93800000000E+00  0.93800000000E+00 0.  1.
         11    1    1    2    0    0 -0.31320586040E+00  0.73649481320E+00  0.14163448582E+01  0.16268237579E+01  0.51100000000E-03 0.  1.
    9000002    1    1    2    0    0  0.65498782889E+00 -0.95164632519E+00  0.13362134136E+01  0.19999875177E+01  0.93800000000E+00 0.  1.
         22    1    1    2    0    0 -0.34178196849E+00  0.21515151200E+00  0.12474416956E+01  0.13111887245E+01  0.00000000000E+00 0.  1.
</event>
<event>
 5    1  0.1560836E+002  0.1582052E+01  0.7818608E-02  0.3373077E+00
         11   -1    0    0    0    0  0.00000000000E+00  0.00000000000E+00  0.39999999674E+01  0.40000000000E+01  0.51100000000E-03 0. -1.
    9000002   -1    0    0    0    0 -0.00000000000E+00 -0.00000000000E+00  0.00000000000E+00  0.93800000000E+00  0.93800000000E+00 0. -1.
         11    1    1    2    0    0  0.55763807147E-01  0.13464658900E+00  0.52931568707E+00  0.54901244413E+00  0.51100000000E-03 0. -1.
    9000002    1    1    2    0    0  0.87124221754E-01 -0.34749909173E+00  0.10054139177E+00  0.10091079329E+01  0.93800000000E+00 0. -1.
         22    1    1    2    0    0 -0.14288802890E+00  0.21285250273E+00  0.33701428885E+01  0.33798796230E+01  0.00000000000E+00 0. -1.
</event>
<event>
 5    1  0.1560836E+002  0.1599677E+01  0.7818608E-02  0.3353714E+00
         11   -1    0    0    0    0  0.00000000000E+00  0.00000000000E+00  0.39999999674E+01  0.40000000000E+01  0.51100000000E-03 0.  1.
    9000002   -1    0    0    0    0 -0.00000000000E+00 -0.00000000000E+00  0.00000000000E+00  0.93800000000E+00  0.93800000000E+00 0.  1.
         11    1    1    2    0    0 -0.96318205622E-01 -0.19142399493E+00  0.17338181455E+01  0.17470105797E+01  0.51100000000E-03 0.  1.
    9000002    1    1    2    0    0  0.21321710676E+00  0.42531680124E+00  0.15434324582E+00  0.10630248132E+01  0.93800000000E+00 0.  1.
         22    1    1    2    0    0 -0.11689890113E+00 -0.23389280631E+00  0.21118385760E+01  0.21279646071E+01  0.00000000000E+00 0.  1.
</event>
<event>
 5    1  0.1560836E+002  0.1599627E+01  0.7818608E-02  0.3353768E+00
         11   -1    0    0    0    0  0.00000000000E+00  0.00000000000E+00  0.39999999674E+01  0.40000000000E+01  0.51100000000E-03 0.  1.
    9000002   -1    0    0    0    0 -0.00000000000E+00 -0.00000000000E+00  0.00000000000E+00  0.93800000000E+00  0.93800000000E+00 0.  1.
         11    1    1    2    0    0  0.25923031708E+00 -0.28934763910E+00  0.20571401749E+01  0.20935014626E+01  0.51100000000E-03 0.  1.
    9000002    1    1    2    0    0 -0.44706551717E+00  0.51766713455E+00  0.33300255015E+00  0.12077174907E+01  0.93800000000E+00 0.  1.
         22    1    1    2    0    0  0.18783520009E+00 -0.22831949545E+00  0.16098572423E+01  0.16367810468E+01  0.00000000000E+00 0.  1.
</event>
<event>
 5    1  0.1560836E+002  0.1588565E+01  0.7818608E-02  0.3365869E+00
         11   -1    0    0    0    0  0.00000000000E+00  0.00000000000E+00  0.39999999674E+01  0.40000000000E+01  0.51100000000E-03 0. -1.
    9000002   -1    0    0    0    0 -0.00000000000E+00 -0.00000000000E+00  0.00000000000E+00  0.93800000000E+00  0.93800000000E+00 0.  1.
         11    1    1    2    0    0  0.97558284807E-02 -0.77616034791E-01  0.13637508138E+01  0.13659926677E+01  0.51100000000E-03 0. -1.
    9000002    1    1    2    0    0 -0.16661942656E+00 -0.96352475821E-01  0.32866559181E-01  0.95810753239E+00  0.93800000000E+00 0.  1.
         22    1    1    2    0    0  0.15686359808E+00  0.17396851061E+00  0.26033825944E+01  0.26138997999E+01  0.00000000000E+00 0. -1.
</event>
<event>
 5    1  0.1560836E+002  0.1599674E+01  0.7818608E-02  0.3353717E+00
         11   -1    0    0    0    0  0.00000000000E+00  0.00000000000E+00  0.39999999674E+01  0.40000000000E+01  0.51100000000E-03 0. -1.
    9000002   -1    0    0    0    0 -0.00000000000E+00 -0.00000000000E+00  0.00000000000E+00  0.93800000000E+00  0.93800000000E+00 0.  1.
         11    1    1    2    0    0 -0.97651475256E-01 -0.31135676306E-01  0.10152864135E+01  0.10204469626E+01  0.51100000000E-03 0. -1.
    9000002    1    1    2    0    0  0.37451104341E+00  0.12622926428E+00  0.10529294892E+00  0.10232902589E+01  0.93800000000E+00 0.  1.
         22    1    1    2    0    0 -0.27685956815E+00 -0.95093587979E-01  0.28794206049E+01  0.28942627785E+01  0.00000000000E+00 0. -1.
</event>
<event>
 5    1  0.1560836E+002  0.1599668E+01  0.7818608E-02  0.3353723E+00
         11   -1    0    0    0    0  0.00000000000E+00  0.00000000000E+00  0.39999999674E+01  0.40000000000E+01  0.51100000000E-03 0. -1.
    9000002   -1    0    0    0    0 -0.00000000000E+00 -0.00000000000E+00  0.00000000000E+00  0.93800000000E+00  0.93800000000E+00 0. -1.
         11    1    1    2    0    0  0.21926943230E+00 -0.69984778079E-01  0.19303823117E+01  0.19440558335E+01  0.51100000000E-03 0. -1.
    9000002    1    1    2    0    0 -0.44400387065E+00  0.14251123157E+00  0.14805890002E+00  0.10579292633E+01  0.93800000000E+00 0. -1.
         22    1    1    2    0    0  0.22473443835E+00 -0.72526453496E-01  0.19215587556E+01  0.19360149032E+01  0.00000000000E+00 0.  1.
</event>
<event>
 5    1  0.1560836E+002  0.1599672E+01  0.7818608E-02  0.3353720E+00
         11   -1    0    0    0    0  0.00000000000E+00  0.00000000000E+00  0.39999999674E+01  0.40000000000E+01  0.51100000000E-03 0.  1.
    9000002   -1    0    0    0    0 -0.00000000000E+00 -0.00000000000E+00  0.00000000000E+00  0.93800000000E+00  0.93800000000E+00 0.  1.
         11    1    1    2    0    0  0.13130832450E+00 -0.26326111962E-01  0.14215211661E+01  0.14278156839E+01  0.51100000000E-03 0.  1.
    9000002    1    1    2    0    0 -0.35598619984E+00  0.67306284224E-01  0.88134857414E-01  0.10093899462E+01  0.93800000000E+00 0.  1.
         22    1    1    2    0    0  0.22467787534E+00 -0.40980172262E-01  0.24903439438E+01  0.25007943699E+01  0.00000000000E+00 0.  1.
</event>
<event>
 5    1  0.1560836E+002  0.1561690E+01  0.7818608E-02  0.3396023E+00
         11   -1    0    0    0    0  0.00000000000E+00  0.00000000000E+00  0.39999999674E+01  0.40000000000E+01  0.51100000000E-03 0. -1.
    9000002   -1    0    0    0    0 -0.00000000000E+00 -0.00000000000E+00  0.00000000000E+00  0.93800000000E+00  0.93800000000E+00 0. -1.
         11    1    1    2    0    0 -0.13491485581E+00  0.12593579825E+00  0.20281331498E+01  0.20365132403E+01  0.51100000000E-03 0. -1.
    9000002    1    1    2    0    0 -0.17928642935E+00 -0.13152723694E+00  0.62052073434E-01  0.96599042315E+00  0.93800000000E+00 0. -1.
         22    1    1    2    0    0  0.31420128517E+00  0.55914386864E-02  0.19098147441E+01  0.19354963365E+01  0.00000000000E+00 0. -1.
</event>
<event>
 5    1  0.1560836E+002  0.1599676E+01  0.7818608E-02  0.3353715E+00
         11   -1    0    0    0    0  0.00000000000E+00  0.00000000000E+00  0.39999999674E+01  0.40000000000E+01  0.51100000000E-03 0. -1.
    9000002   -1    0    0    0    0 -0.00000000000E+00 -0.00000000000E+00  0.00000000000E+00  0.93800000000E+00  0.93800000000E+00 0.  1.
         11    1    1    2    0    0  0.38768246702E-01  0.47436935528E-01  0.71705092001E+00  0.71966347886E+00  0.51100000000E-03 0. -1.
    9000002    1    1    2    0    0 -0.20725942654E+00 -0.25869471126E+00  0.73530283455E-01  0.99756209135E+00  0.93800000000E+00 0.  1.
         22    1    1    2    0    0  0.16849117983E+00  0.21125777573E+00  0.32094187639E+01  0.32207744298E+01  0.00000000000E+00 0. -1.
</event>
<event>
 5    1  0.1560836E+002  0.1585081E+01  0.7818608E-02  0.3369717E+00
         11   -1    0    0    0    0  0.00000000000E+00  0.00000000000E+00  0.39999999674E+01  0.40000000000E+01  0.51100000000E-03 0. -1.
    9000002   -1    0    0    0    0 -0.00000000000E+00 -0.00000000000E+00  0.00000000000E+00  0.93800000000E+00  0.93800000000E+00 0.  1.
         11    1    1    2    0    0 -0.25958460232E-01 -0.17084385906E+00  0.21051749414E+01  0.21122554913E+01  0.51100000000E-03 0. -1.
    9000002    1    1    2    0    0 -0.21898430202E+00  0.33472379379E+00  0.12016485553E+00  0.10267802760E+01  0.93800000000E+00 0.  1.
         22    1    1    2    0    0  0.24494276226E+00 -0.16387993473E+00  0.17746601705E+01  0.17989642327E+01  0.00000000000E+00 0. -1.
</event>
<event>
 5    1  0.1560836E+002  0.1599419E+01  0.7818608E-02  0.3353994E+00
         11   -1    0    0    0    0  0.00000000000E+00  0.00000000000E+00  0.39999999674E+01  0.40000000000E+01  0.51100000000E-03 0. -1.
    9000002   -1    0    0    0    0 -0.00000000000E+00 -0.00000000000E+00  0.00000000000E+00  0.93800000000E+00  0.93800000000E+00 0.  1.
         11    1    1    2    0    0  0.47216400130E-01 -0.38707266706E-01  0.76403442249E+00  0.76647015651E+00  0.51100000000E-03 0. -1.
    9000002    1    1    2    0    0 -0.31783654522E+00  0.17913590546E+00  0.89610541301E-01  0.10104374257E+01  0.93800000000E+00 0.  1.
         22    1    1    2    0    0  0.27062014509E+00 -0.14042863875E+00  0.31463550036E+01  0.31610924178E+01  0.00000000000E+00 0. -1.
</event>
<event>
 5    1  0.1560836E+002  0.1599676E+01  0.7818608E-02  0.3353715E+00
         11   -1    0    0    0    0  0.00000000000E+00  0.00000000000E+00  0.39999999674E+01  0.40000000000E+01  0.51100000000E-03 0.  1.
    9000002   -1    0    0    0    0 -0.00000000000E+00 -0.00000000000E+00  0.00000000000E+00  0.93800000000E+00  0.93800000000E+00 0.  1.
         11    1    1    2    0    0 -0.18613371715E-01 -0.92062534835E-02  0.21290103934E+00  0.21391195942E+00  0.51100000000E-03 0.  1.
    9000002    1    1    2    0    0  0.34762450075E+00  0.17205521723E+00  0.10132467005E+00  0.10200767030E+01  0.93800000000E+00 0.  1.
         22    1    1    2    0    0 -0.32901112903E+00 -0.16284896375E+00  0.36857742580E+01  0.37040113376E+01  0.00000000000E+00 0.  1.
</event>
<event>
 5    1  0.1560836E+002  0.1599570E+01  0.7818608E-02  0.3353830E+00
         11   -1    0    0    0    0  0.00000000000E+00  0.00000000000E+00  0.39999999674E+01  0.40000000000E+01  0.51100000000E-03 0. -1.
    9000002   -1    0    0    0    0 -0.00000000000E+00 -0.00000000000E+00  0.00000000000E+00  0.93800000000E+00  0.93800000000E+00 0. -1.
         11    1    1    2    0    0  0.49283438473E-01  0.89168733483E-01  0.12517126860E+01  0.12558522325E+01  0.51100000000E-03 0. -1.
    9000002    1    1    2    0    0 -0.17631028270E+00 -0.25087291539E+00  0.62846761140E-01  0.98884591866E+00  0.93800000000E+00 0. -1.
         22    1    1    2    0    0  0.12702684422E+00  0.16170418191E+00  0.26854405202E+01  0.26933018489E+01  0.00000000000E+00 0. -1.
</event>
<event>
 5    1  0.1560836E+002  0.1599662E+01  0.7818608E-02  0.3353730E+00
         11   -1    0    0    0    0  0.00000000000E+00  0.00000000000E+00  0.39999999674E+01  0.40000000000E+01  0.51100000000E-03 0.  1.
    9000002   -1    0    0    0    0 -0.00000000000E+00 -0.00000000000E+00  0.00000000000E+00  0.93800000000E+00  0.93800000000E+00 0. -1.
         11    1    1    2    0    0  0.67781364272E-03 -0.16260456196E-01  0.26622850960E+00  0.26672596857E+00  0.51100000000E-03 0.  1.
    9000002    1    1    2    0    0 -0.30271869167E-01  0.21551659783E+00  0.31401669080E-01  0.96342817834E+00  0.93800000000E+00 0. -1.
         22    1    1    2    0    0  0.29594055524E-01 -0.19925614163E+00  0.37023697887E+01  0.37078458531E+01  0.00000000000E+00 0.  1.
</event>
<event>
 5    1  0.1560836E+002  0.1597909E+01  0.7818608E-02  0.3355636E+00
         11   -1    0    0    0    0  0.00000000000E+00  0.00000000000E+00  0.39999999674E+01  0.40000000000E+01  0.51100000000E-03 0. -1.
    9000002   -1    0    0    0    0 -0.00000000000E+00 -0.00000000000E+00  0.00000000000E+00  0.93800000000E+00  0.93800000000E+00 0.  1.
         11    1    1    2    0    0 -0.10531771616E+00 -0.16345050509E+00  0.11845097186E+01  0.12003630382E+01  0.51100000000E-03 0. -1.
    9000002    1    1    2    0    0  0.21841329996E+00  0.43827575819E+00  0.16544939290E+00  0.10709843656E+01  0.93800000000E+00 0.  1.
         22    1    1    2    0    0 -0.11309558380E+00 -0.27482525310E+00  0.26500408559E+01  0.26666525962E+01  0.00000000000E+00 0. -1.
</event>
<event>
 5    1  0.1560836E+002  0.1599647E+01  0.7818608E-02  0.3353747E+00
         11   -1    0    0    0    0  0.00000000000E+00  0.00000000000E+00  0.39999999674E+01  0.40000000000E+01  0.51100000000E-03 0.  1.
    9000002   -1    0    0    0    0 -0.00000000000E+00 -0.00000000000E+00  0.00000000000E+00  0.93800000000E+00  0.93800000000E+00 0. -1.
         11    1    1    2    0    0  0.15000757737E+00 -0.34149557860E+00  0.23700027920E+01  0.23991738159E+01  0.51100000000E-03 0.  1.
    9000002    1    1    2    0    0 -0.22983728426E+00  0.53629038127E+00  0.23672717676E+00  0.11297416990E+01  0.93800000000E+00 0. -1.
         22    1    1    2    0    0  0.79829706897E-01 -0.19479480267E+00  0.13932699986E+01  0.14090844851E+01  0.00000000000E+00 0.  1.
</event>
<event>
 5    1  0.1560836E+002  0.1599615E+01  0.7818608E-02  0.3353781E+00
         11   -1    0    0    0    0  0.00000000000E+00  0.00000000000E+00  0.39999999674E+01  0.40000000000E+01  0.51100000000E-03 0. -1.
    9000002   -1    0    0    0    0 -0.00000000000E+00 -0.00000000000E+00  0.00000000000E+00  0.93800000000E+00  0.93800000000E+00 0. -1.
         11    1    1    2    0    0 -0.17073978738E+00 -0.19106035996E+00  0.13615063696E+01  0.13854082401E+01  0.51100000000E-03 0. -1.
    9000002    1    1    2    0    0  0.45352514713E+00  0.53620601894E+00  0.35276552794E+00  0.12237195232E+01  0.93800000000E+00 0. -1.
         22    1    1    2    0    0 -0.28278535975E+00 -0.34514565897E+00  0.22857280698E+01  0.23288722366E+01  0.00000000000E+00 0. -1.
</event>
<event>
 5    1  0.1560836E+002  0.1595807E+01  0.7818608E-02  0.3357926E+00
         11   -1    0    0    0    0  0.00000000000E+00  0.00000000000E+00  0.39999999674E+01  0.40000000000E+01  0.51100000000E-03 0. -1.
    9000002   -1    0    0    0    0 -0.00000000000E+00 -0.00000000000E+00  0.00000000000E+00  0.93800000000E+00  0.93800000000E+00 0.  1.
         11    1    1    2    0    0  0.16164705713E-01  0.62672055606E-01  0.62300274373E+00  0.62635594040E+00  0.51100000000E-03 0. -1.
    9000002    1    1    2    0    0  0.15580466915E+00 -0.16758470284E+00  0.37665102097E-01  0.96624137123E+00  0.93800000000E+00 0.  1.
         22    1    1    2    0    0 -0.17196937486E+00  0.10491264723E+00  0.33393321215E+01  0.33454026884E+01  0.00000000000E+00 0. -1.
</event>
<event>
 5    1  0.1560836E+002  0.1599671E+01  0.7818608E-02  0.3353720E+00
         11   -1    0    0    0    0  0.00000000000E+00  0.00000000000E+00  0.39999999674E+01  0.40000000000E+01  0.51100000000E-03 0.  1.
    9000002   -1    0    0    0    0 -0.00000000000E+00 -0.00000000000E+00  0.00000000000E+00  0.93800000000E+00  0.93800000000E+00 0. -1.
         11    1    1    2    0    0  0.53971879279E-01 -0.64336196030E-01  0.42602172964E+00  0.43421985804E+00  0.51100000000E-03 0.  1.
    9000002    1    1    2    0    0 -0.47434369850E+00  0.54242035535E+00  0.37318996138E+00  0.12402969537E+01  0.93800000000E+00 0. -1.
         22    1    1    2    0    0  0.42037181922E+00 -0.47808415932E+00  0.32007882763E+01  0.32634831882E+01  0.00000000000E+00 0.  1.
</event>
<event>
 5    1  0.1560836E+002  0.1522647E+01  0.7818608E-02  0.3441851E+00
         11   -1    0    0    0    0  0.00000000000E+00  0.00000000000E+00  0.39999999674E+01  0.40000000000E+01  0.51100000000E-03 0. -1.
    9000002   -1    0    0    0    0 -0.00000000000E+00 -0.00000000000E+00  0.00000000000E+00  0.93800000000E+00  0.93800000000E+00 0.  1.
         11    1    1    2    0    0 -0.39439088963E+00 -0.65330873167E-01  0.18386889636E+01  0.18816454668E+01  0.51100000000E-03 0. -1.
    9000002    1    1    2    0    0  0.14097323930E+00  0.13916278146E-01  0.72285807158E-01  0.95138654337E+00  0.93800000000E+00 0.  1.
         22    1    1    2    0    0  0.25341765033E+00  0.51414595021E-01  0.20890251966E+01  0.21049679899E+01  0.00000000000E+00 0. -1.
</event>
<event>
 5    1  0.1560836E+002  0.1599668E+01  0.7818608E-02  0.3353724E+00
         11   -1    0    0    0    0  0.00000000000E+00  0.00000000000E+00  0.39999999674E+01  0.40000000000E+01  0.51100000000E-03 0.  1.
    9000002   -1    0    0    0    0 -0.00000000000E+00 -0.00000000000E+00  0.00000000000E+00  0.93800000000E+00  0.93800000000E+00 0.  1.
         11    1    1    2    0    0 -0.71325933650E-01 -0.70535793998E-02  0.94895240582E+00  0.95165543734E+00  0.51100000000E-03 0.  1.
    9000002    1    1    2    0    0  0.28353537461E+00  0.31020925811E-01  0.54207397351E-01  0.98190480619E+00  0.93800000000E+00 0.  1.
         22    1    1    2    0    0 -0.21220944096E+00 -0.23967346411E-01  0.29968401642E+01  0.30044397565E+01  0.00000000000E+00 0.  1.
</event>
<event>
 5    1  0.1560836E+002  0.1589483E+01  0.7818608E-02  0.3364858E+00
         11   -1    0    0    0    0  0.00000000000E+00  0.00000000000E+00  0.39999999674E+01  0.40000000000E+01  0.51100000000E-03 0. -1.
    9000002   -1    0    0    0    0 -0.00000000000E+00 -0.00000000000E+00  0.00000000000E+00  0.93800000000E+00  0.93800000000E+00 0.  1.
         11    1    1    2    0    0 -0.23863282472E-01 -0.50837157421E-01  0.34766669728E+00  0.35217363096E+00  0.51100000000E-03 0. -1.
    9000002    1    1    2    0    0 -0.44469193185E-01 -0.13753111012E+00  0.21343003137E-01  0.94931124463E+00  0.93800000000E+00 0.  1.
         22    1    1    2    0    0  0.68332475658E-01  0.18836826754E+00  0.36309902669E+01  0.36365151244E+01  0.00000000000E+00 0. -1.
</event>
<event>
 5    1  0.1560836E+002  0.1599677E+01  0.7818608E-02  0.3353714E+00
         11   -1    0    0    0    0  0.00000000000E+00  0.00000000000E+00  0.39999999674E+01  0.40000000000E+01  0.51100000000E-03 0. -1.
    9000002   -1    0    0    0    0 -0.00000000000E+00 -0.00000000000E+00  0.00000000000E+00  0.93800000000E+00  0.93800000000E+00 0.  1.
         11    1    1    2    0    0 -0.22004306940E-01 -0.25839874692E-01  0.57581231550E+00  0.57681190387E+00  0.51100000000E-03 0.  1.
    9000002    1    1    2    0    0  0.15348061756E+00  0.17830443235E+00  0.36727699615E-01  0.96775084318E+00  0.93800000000E+00 0.  1.
         22    1    1    2    0    0 -0.13147631062E+00 -0.15246455766E+00  0.33874599522E+01  0.33934372529E+01  0.00000000000E+00 0. -1.
</event>
<event>
 5    1  0.1560836E+002  0.1599666E+01  0.7818608E-02  0.3353726E+00
         11   -1    0    0    0    0  0.00000000000E+00  0.00000000000E+00  0.39999999674E+01  0.40000000000E+01  0.51100000000E-03 0. -1.
    9000002   -1    0    0    0    0 -0.00000000000E+00 -0.00000000000E+00  0.00000000000E+00  0.93800000000E+00  0.93800000000E+00 0. -1.
         11    1    1    2    0    0  0.16837621677E-01  0.12687021482E-01  0.22704660241E+00  0.22802387332E+00  0.51100000000E-03 0. -1.
    9000002    1    1    2    0    0 -0.30626324651E+00 -0.19140836744E+00  0.87576341719E-01  0.10089340687E+01  0.93800000000E+00 0. -1.
         22    1    1    2    0    0  0.28942562483E+00  0.17872134595E+00  0.36853770232E+01  0.37010420580E+01  0.00000000000E+00 0. -1.
</event>
<event>
 5    1  0.1560836E+002  0.1596616E+01  0.7818608E-02  0.3357044E+00
         11   -1    0    0    0    0  0.00000000000E+00  0.00000000000E+00  0.39999999674E+01  0.40000000000E+01  0.51100000000E-03 0.  1.
    9000002   -1    0    0    0    0 -0.00000000000E+00 -0.00000000000E+00  0.00000000000E+00  0.93800000000E+00  0.93800000000E+00 0. -1.
         11    1    1    2    0    0  0.85442680811E-02 -0.18007705216E-01  0.74833496850E+00  0.74860053978E+00  0.51100000000E-03 0.  1.
    9000002    1    1    2    0    0 -0.15574567788E+00  0.34424642745E+00  0.98543847068E-01  0.10160301220E+01  0.93800000000E+00 0. -1.
         22    1    1    2    0    0  0.14720140980E+00 -0.32623872224E+00  0.31531211518E+01  0.31733693382E+01  0.00000000000E+00 0.  1.
</event>
<event>
 5    1  0.1560836E+002  0.1599519E+01  0.7818608E-02  0.3353885E+00
         11   -1    0    0    0    0  0.00000000000E+00  0.00000000000E+00  0.39999999674E+01  0.40000000000E+01  0.51100000000E-03 0. -1.
    9000002   -1    0    0    0    0 -0.00000000000E+00 -0.00000000000E+00  0.00000000000E+00  0.93800000000E+00  0.93800000000E+00 0.  1.
         11    1    1    2    0    0  0.22789662523E-01  0.47312640711E-01  0.52881377457E+00  0.53141520865E+00  0.51100000000E-03 0. -1.
    9000002    1    1    2    0    0 -0.19144494596E+00 -0.27772835133E+00  0.76314994564E-01  0.99972605391E+00  0.93800000000E+00 0.  1.
         22    1    1    2    0    0  0.16865528344E+00  0.23041571062E+00  0.33948711982E+01  0.34068587374E+01  0.00000000000E+00 0. -1.
</event>
<event>
 5    1  0.1560836E+002  0.1599666E+01  0.7818608E-02  0.3353726E+00
         11   -1    0    0    0    0  0.00000000000E+00  0.00000000000E+00  0.39999999674E+01  0.40000000000E+01  0.51100000000E-03 0. -1.
    9000002   -1    0    0    0    0 -0.00000000000E+00 -0.00000000000E+00  0.00000000000E+00  0.93800000000E+00  0.93800000000E+00 0.  1.
         11    1    1    2    0    0 -0.43977965549E-01 -0.20339229532E-02  0.61806307637E+00  0.61962926479E+00  0.51100000000E-03 0. -1.
    9000002    1    1    2    0    0  0.29824233608E+00  0.10103143804E-01  0.59406251744E-01  0.98611544319E+00  0.93800000000E+00 0.  1.
         22    1    1    2    0    0 -0.25426437054E+00 -0.80692208506E-02  0.33225306393E+01  0.33322552920E+01  0.00000000000E+00 0. -1.
</event>
<event>
 5    1  0.1560836E+002  0.1594062E+01  0.7818608E-02  0.3359834E+00
         11   -1    0    0    0    0  0.00000000000E+00  0.00000000000E+00  0.39999999674E+01  0.40000000000E+01  0.51100000000E-03 0.  1.
    9000002   -1    0    0    0    0 -0.00000000000E+00 -0.00000000000E+00  0.00000000000E+00  0.93800000000E+00  0.93800000000E+00 0. -1.
         11    1    1    2    0    0 -0.79513896186E-02  0.35374009259E-02  0.27226701438E+00  0.27240654552E+00  0.51100000000E-03 0.  1.
    9000002    1    1    2    0    0 -0.53099950479E+00  0.53721634454E-01  0.20138351942E+00  0.10978368777E+01  0.93800000000E+00 0. -1.
         22    1    1    2    0    0  0.53895089441E+00 -0.57259035380E-01  0.35263494336E+01  0.35677565768E+01  0.00000000000E+00 0.  1.
</event>
<event>
 5    1  0.1560836E+002  0.1599577E+01  0.7818608E-02  0.3353822E+00
         11   -1    0    0    0    0  0.00000000000E+00  0.00000000000E+00  0.39999999674E+01  0.40000000000E+01  0.51100000000E-03 0. -1.
    9000002   -1    0    0    0    0 -0.00000000000E+00 -0.00000000000E+00  0.00000000000E+00  0.93800000000E+00  0.93800000000E+00 0.  1.
         11    1    1    2    0    0 -0.32912545639E-01 -0.17913145281E+00  0.14584341042E+01  0.14697624333E+01  0.51100000000E-03 0. -1.
    9000002    1    1    2    0    0  0.81179544627E-01  0.44382556150E+00  0.13837281820E+00  0.10500296588E+01  0.93800000000E+00 0.  1.
         22    1    1    2    0    0 -0.48266998988E-01 -0.26469410869E+00  0.24031930450E+01  0.24182079079E+01  0.00000000000E+00 0. -1.
</event>
<event>
 5    1  0.1560836E+002  0.1599677E+01  0.7818608E-02  0.3353714E+00
         11   -1    0    0    0    0  0.00000000000E+00  0.00000000000E+00  0.39999999674E+01  0.40000000000E+01  0.51100000000E-03 0. -1.
    9000002   -1    0    0    0    0 -0.00000000000E+00 -0.00000000000E+00  0.00000000000E+00  0.93800000000E+00  0.93800000000E+00 0. -1.
         11    1    1    2    0    0  0.26873771047E+00 -0.13852838849E+00  0.20749358583E+01  0.20968474310E+01  0.51100000000E-03 0.  1.
    9000002    1    1    2    0    0 -0.49084331754E+00  0.25356674509E+00  0.21091718897E+00  0.11088522522E+01  0.93800000000E+00 0. -1.
         22    1    1    2    0    0  0.22210560707E+00 -0.11503835660E+00  0.17141469201E+01  0.17323003168E+01  0.00000000000E+00 0. -1.
</event>
<event>
 5    1  0.1560836E+002  0.1599661E+01  0.7818608E-02  0.3353731E+00
         11   -1    0    0    0    0  0.00000000000E+00  0.00000000000E+00  0.39999999674E+01  0.40000000000E+01  0.51100000000E-03 0.  1.
    9000002   -1    0    0    0    0 -0.00000000000E+00 -0.00000000000E+00  0.00000000000E+00  0.93800000000E+00  0.93800000000E+00 0. -1.
         11    1    1    2    0    0  0.14348574506E+00 -0.18428056749E-01  0.11777319610E+01  0.11865835771E+01  0.51100000000E-03 0.  1.
    9000002    1    1    2    0    0 -0.45618039862E+00  0.55738910469E-01  0.14366753205E+00  0.10543679348E+01  0.93800000000E+00 0. -1.
         22    1    1    2    0    0  0.31269465356E+00 -0.37310853720E-01  0.26786004743E+01  0.26970484881E+01  0.00000000000E+00 0.  1.
</event>
<event>
 5    1  0.1560836E+002  0.1599677E+01  0.7818608E-02  0.3353715E+00
         11   -1    0    0    0    0  0.00000000000E+00  0.00000000000E+00  0.39999999674E+01  0.40000000000E+01  0.51100000000E-03 0. -1.
    9000002   -1    0    0    0    0 -0.00000000000E+00 -0.00000000000E+00  0.00000000000E+00  0.93800000000E+00  0.93800000000E+00 0. -1.
         11    1    1    2    0    0  0.16746017171E+00 -0.28525399183E+00  0.22947890899E+01  0.23185059796E+01  0.51100000000E-03 0. -1.
    9000002    1    1    2    0    0 -0.27543910287E+00  0.47163030619E+00  0.20588874334E+00  0.11047787198E+01  0.93800000000E+00 0. -1.
         22    1    1    2    0    0  0.10797893117E+00 -0.18637631437E+00  0.14993221341E+01  0.15147153006E+01  0.00000000000E+00 0. -1.
</event>
<event>
 5    1  0.1560836E+002  0.1599662E+01  0.7818608E-02  0.3353730E+00
         11   -1    0    0    0    0  0.00000000000E+00  0.00000000000E+00  0.39999999674E+01  0.40000000000E+01  0.51100000000E-03 0.  1.
    9000002   -1    0    0    0    0 -0.00000000000E+00 -0.00000000000E+00  0.00000000000E+00  0.93800000000E+00  0.93800000000E+00 0. -1.
         11    1    1    2    0    0 -0.12189086141E+00  0.10993360703E-01  0.11052064843E+01  0.11119621712E+01  0.51100000000E-03 0.  1.
    9000002    1    1    2    0    0  0.42230950300E+00 -0.52257149125E-01  0.12256795761E+00  0.10372767375E+01  0.93800000000E+00 0. -1.
         22    1    1    2    0    0 -0.30041864158E+00  0.41263788422E-01  0.27722255254E+01  0.27887610913E+01  0.00000000000E+00 0.  1.
</event>
<event>
 5    1  0.1560836E+002  0.1599676E+01  0.7818608E-02  0.3353715E+00
         11   -1    0    0    0    0  0.00000000000E+00  0.00000000000E+00  0.39999999674E+01  0.40000000000E+01  0.51100000000E-03 0. -1.
    9000002   -1    0    0    0    0 -0.00000000000E+00 -0.00000000000E+00  0.00000000000E+00  0.93800000000E+00  0.93800000000E+00 0. -1.
         11    1    1    2    0    0 -0.26028606218E+00  0.14531864739E+00  0.15377548223E+01  0.15663832539E+01  0.51100000000E-03 0. -1.
    9000002    1    1    2    0    0  0.61539184229E+00 -0.34689009557E+00  0.35727411566E+00  0.12274072884E+01  0.93800000000E+00 0.  1.
         22    1    1    2    0    0 -0.35510578011E+00  0.20157144818E+00  0.21049710294E+01  0.21442094577E+01  0.00000000000E+00 0. -1.
</event>
<event>
 5    1  0.1560836E+002  0.1587152E+01  0.7818608E-02  0.3367427E+00
         11   -1    0    0    0    0  0.00000000000E+00  0.00000000000E+00  0.39999999674E+01  0.40000000000E+01  0.51100000000E-03 0.  1.
    9000002   -1    0    0    0    0 -0.00000000000E+00 -0.00000000000E+00  0.00000000000E+00  0.93800000000E+00  0.93800000000E+00 0.  1.
         11    1    1    2    0    0 -0.16933299850E-01 -0.23777460356E+00  0.14204354456E+01  0.14402987936E+01  0.51100000000E-03 0.  1.
    9000002    1    1    2    0    0 -0.24738458646E+00  0.44701564351E+00  0.19049880918E+00  0.10849681633E+01  0.93800000000E+00 0.  1.
         22    1    1    2    0    0  0.26431788631E+00 -0.20924103996E+00  0.23890657126E+01  0.24127330430E+01  0.00000000000E+00 0.  1.
</event>
<event>
 5    1  0.1560836E+002  0.1597820E+01  0.7818608E-02  0.3355733E+00
         11   -1    0    0    0    0  0.00000000000E+00  0.00000000000E+00  0.39999999674E+01  0.40000000000E+01  0.51100000000E-03 0. -1.
    9000002   -1    0    0    0    0 -0.00000000000E+00 -0.00000000000E+00  0.00000000000E+00  0.93800000000E+00  0.93800000000E+00 0. -1.
         11    1    1    2    0    0  0.73287257858E-01 -0.18904744484E-01  0.10205592143E+01  0.10233619997E+01  0.51100000000E-03 0. -1.
    9000002    1    1    2    0    0 -0.26096247199E+00 -0.10102876649E+00  0.53585838783E-01  0.98031814507E+00  0.93800000000E+00 0. -1.
         22    1    1    2    0    0  0.18767521413E+00  0.11993351098E+00  0.29258549143E+01  0.29343198552E+01  0.00000000000E+00 0. -1.
</event>
<event>
 5    1  0.1560836E+002  0.1562148E+01  0.7818608E-02  0.3395500E+00
         11   -1    0    0    0    0  0.00000000000E+00  0.00000000000E+00  0.39999999674E+01  0.40000000000E+01  0.51100000000E-03 0. -1.
    9000002   -1    0    0    0    0 -0.00000000000E+00 -0.00000000000E+00  0.00000000000E+00  0.93800000000E+00  0.93800000000E+00 0. -1.
         11    1    1    2    0    0 -0.18645480511E-01  0.21076166042E+00  0.12229616912E+01  0.12411300055E+01  0.51100000000E-03 0. -1.
    9000002    1    1    2    0    0 -0.13500723196E+00 -0.12313797992E-01  0.40252824312E-01  0.94860048080E+00  0.93800000000E+00 0. -1.
         22    1    1    2    0    0  0.15365271247E+00 -0.19844786243E+00  0.27367854519E+01  0.27482695137E+01  0.00000000000E+00 0. -1.
</event>
<event>
 5    1  0.1560836E+002  0.1599511E+01  0.7818608E-02  0.3353894E+00
         11   -1    0    0    0    0  0.00000000000E+00  0.00000000000E+00  0.39999999674E+01  0.40000000000E+01  0.51100000000E-03 0. -1.
    9000002   -1    0    0    0    0 -0.00000000000E+00 -0.00000000000E+00  0.00000000000E+00  0.93800000000E+00  0.93800000000E+00 0.  1.
         11    1    1    2    0    0  0.65714856736E-01  0.31002092174E-01  0.83602180590E+00  0.83917357751E+00  0.51100000000E-03 0. -1.
    9000002    1    1    2    0    0 -0.28039154458E+00 -0.94104912430E-01  0.58462313348E-01  0.98525986161E+00  0.93800000000E+00 0.  1.
         22    1    1    2    0    0  0.21467668784E+00  0.63102820256E-01  0.31055158481E+01  0.31135665609E+01  0.00000000000E+00 0. -1.
</event>
<event>
 5    1  0.1560836E+002  0.1583632E+01  0.7818608E-02  0.3371323E+00
         11   -1    0    0    0    0  0.00000000000E+00  0.00000000000E+00  0.39999999674E+01  0.40000000000E+01  0.51100000000E-03 0.  1.
    9000002   -1    0    0    0    0 -0.00000000000E+00 -0.00000000000E+00  0.00000000000E+00  0.93800000000E+00  0.93800000000E+00 0.  1.
         11    1    1    2    0    0  0.24324815558E+00 -0.60268036724E-02  0.10646239544E+01  0.10920761938E+01  0.51100000000E-03 0.  1.
    9000002    1    1    2    0    0 -0.40728557310E+00 -0.12783535426E+00  0.13709607242E+00  0.10396454919E+01  0.93800000000E+00 0.  1.
         22    1    1    2    0    0  0.16403741752E+00  0.13386215794E+00  0.27982799405E+01  0.28062783143E+01  0.00000000000E+00 0.  1.
</event>
<event>
 5    1  0.1560836E+002  0.1594939E+01  0.7818608E-02  0.3358875E+00
         11   -1    0    0    0    0  0.00000000000E+00  0.00000000000E+00  0.39999999674E+01  0.40000000000E+01  0.51100000000E-03 0.  1.
    9000002   -1    0    0    0    0 -0.00000000000E+00 -0.00000000000E+00  0.00000000000E+00  0.93800000000E+00  0.93800000000E+00 0. -1.
         11    1    1    2    0    0  0.66587313592E-01  0.12652361466E-01  0.93706804591E+00  0.93951622464E+00  0.51100000000E-03 0.  1.
    9000002    1    1    2    0    0 -0.18451979917E+00  0.22755350206E+00  0.60924000406E-01  0.98457294621E+00  0.93800000000E+00 0. -1.
         22    1    1    2    0    0  0.11793248558E+00 -0.24020586353E+00  0.30020079210E+01  0.30139108291E+01  0.00000000000E+00 0.  1.
</event>
<event>
 5    1  0.1560836E+002  0.1584737E+01  0.7818608E-02  0.3370098E+00
         11   -1    0    0    0    0  0.00000000000E+00  0.00000000000E+00  0.39999999674E+01  0.40000000000E+01  0.51100000000E-03 0.  1.
    9000002   -1    0    0    0    0 -0.00000000000E+00 -0.00000000000E+00  0.00000000000E+00  0.93800000000E+00  0.93800000000E+00 0.  1.
         11    1    1    2    0    0  0.58671006284E-01  0.38619529885E-01  0.36790854803E+00  0.37455402268E+00  0.51100000000E-03 0.  1.
    9000002    1    1    2    0    0  0.97812209364E-01  0.14560034881E+00  0.31529467502E-01  0.95477997319E+00  0.93800000000E+00 0.  1.
         22    1    1    2    0    0 -0.15648321565E+00 -0.18421987870E+00  0.36005619518E+01  0.36086660041E+01  0.00000000000E+00 0.  1.
</event>
<event>
 5    1  0.1560836E+002  0.1599676E+01  0.7818608E-02  0.3353715E+00
         11   -1    0    0    0    0  0.00000000000E+00  0.00000000000E+00  0.39999999674E+01  0.40000000000E+01  0.51100000000E-03 0. -1.
    9000002   -1    0    0    0    0 -0.00000000000E+00 -0.00000000000E+00  0.00000000000E+00  0.93800000000E+00  0.93800000000E+00 0.  1.
         11    1    1    2    0    0  0.18895509519E-01  0.90582911802E-02  0.28153292548E+00  0.28231213606E+00  0.51100000000E-03 0. -1.
    9000002    1    1    2    0    0 -0.26303966543E+00 -0.13049436947E+00  0.57484352531E-01  0.98456441985E+00  0.93800000000E+00 0.  1.
         22    1    1    2    0    0  0.24414415592E+00  0.12143607829E+00  0.36609826893E+01  0.36711234441E+01  0.00000000000E+00 0. -1.
</event>
<event>
 5    1  0.1560836E+002  0.1599382E+01  0.7818608E-02  0.3354035E+00
         11   -1    0    0    0    0  0.00000000000E+00  0.00000000000E+00  0.39999999674E+01  0.40000000000E+01  0.51100000000E-03 0.  1.
    9000002   -1    0    0    0    0 -0.00000000000E+00 -0.00000000000E+00  0.00000000000E+00  0.93800000000E+00  0.93800000000E+00 0.  1.
         11    1    1    2    0    0 -0.26561319496E-02  0.13797438328E-01  0.21666250096E+00  0.21711822767E+00  0.51100000000E-03 0.  1.
    9000002    1    1    2    0    0  0.17939323675E+00 -0.14114536068E+00  0.34780781908E-01  0.96600085353E+00  0.93800000000E+00 0.  1.
         22    1    1    2    0    0 -0.17673710481E+00  0.12734792235E+00  0.37485566845E+01  0.37548809188E+01  0.00000000000E+00 0.  1.
</event>
<event>
 5    1  0.1560836E+002  0.1588751E+01  0.7818608E-02  0.3365663E+00
         11   -1    0    0    0    0  0.00000000000E+00  0.00000000000E+00  0.39999999674E+01  0.40000000000E+01  0.51100000000E-03 0.  1.
    9000002   -1    0    0    0    0 -0.00000000000E+00 -0.00000000000E+00  0.00000000000E+00  0.93800000000E+00  0.93800000000E+00 0.  1.
         11    1    1    2    0    0 -0.29005356124E+00 -0.15350443148E-01  0.12102166526E+01  0.12445847950E+01  0.51100000000E-03 0.  1.
    9000002    1    1    2    0    0  0.53820754989E+00  0.95687540150E-01  0.21661846830E+00  0.11070641503E+01  0.93800000000E+00 0.  1.
         22    1    1    2    0    0 -0.24815398865E+00 -0.80337097002E-01  0.25731648465E+01  0.25863510547E+01  0.00000000000E+00 0.  1.
</event>
<event>
 5    1  0.1560836E+002  0.1569209E+01  0.7818608E-02  0.3387477E+00
         11   -1    0    0    0    0  0.00000000000E+00  0.00000000000E+00  0.39999999674E+01  0.40000000000E+01  0.51100000000E-03 0. -1.
    9000002   -1    0    0    0    0 -0.00000000000E+00 -0.00000000000E+00  0.00000000000E+00  0.93800000000E+00  0.93800000000E+00 0.  1.
         11    1    1    2    0    0 -0.31103434035E-01 -0.19763557448E+00  0.20910926422E+01  0.21006417931E+01  0.51100000000E-03 0. -1.
    9000002    1    1    2    0    0  0.21044271456E+00  0.74239693607E-02  0.52654018388E-01  0.96278642340E+00  0.93800000000E+00 0.  1.
         22    1    1    2    0    0 -0.17933928052E+00  0.19021160511E+00  0.18562533068E+01  0.18745717835E+01  0.00000000000E+00 0. -1.
</event>
<event>
 5    1  0.1560836E+002  0.1598995E+01  0.7818608E-02  0.3354455E+00
         11   -1    0    0    0    0  0.00000000000E+00  0.00000000000E+00  0.39999999674E+01  0.40000000000E+01  0.51100000000E-03 0.  1.
    9000002   -1    0    0    0    0 -0.00000000000E+00 -0.00000000000E+00  0.00000000000E+00  0.93800000000E+00  0.93800000000E+00 0.  1.
         11    1    1    2    0    0  0.29241966318E+00 -0.30014474742E+00  0.19205389474E+01  0.19657228285E+01  0.51100000000E-03 0.  1.
    9000002    1    1    2    0    0 -0.53258739002E+00  0.60760942191E+00  0.48310498985E+00  0.13289367813E+01  0.93800000000E+00 0.  1.
         22    1    1    2    0    0  0.24016772684E+00 -0.30746467450E+00  0.15963560301E+01  0.16433403902E+01  0.00000000000E+00 0.  1.
</event>
<event>
 5    1  0.1560836E+002  0.1596295E+01  0.7818608E-02  0.3357395E+00
         11   -1    0    0    0    0  0.00000000000E+00  0.00000000000E+00  0.39999999674E+01  0.40000000000E+01  0.51100000000E-03 0.  1.
    9000002   -1    0    0    0    0 -0.00000000000E+00 -0.00000000000E+00  0.00000000000E+00  0.93800000000E+00  0.93800000000E+00 0. -1.
         11    1    1    2    0    0  0.29563274211E+00  0.50157352957E+00  0.24083108775E+01  0.24776876856E+01  0.51100000000E-03 0.  1.
    9000002    1    1    2    0    0 -0.44589094374E+00 -0.64216783016E+00  0.45177950339E+00  0.13019781010E+01  0.93800000000E+00 0. -1.
         22    1    1    2    0    0  0.15025820163E+00  0.14059430058E+00  0.11399095865E+01  0.11583342134E+01  0.00000000000E+00 0. -1.
</event>
<event>
 5    1  0.1560836E+002  0.1597496E+01  0.7818608E-02  0.3356085E+00
         11   -1    0    0    0    0  0.00000000000E+00  0.00000000000E+00  0.39999999674E+01  0.40000000000E+01  0.51100000000E-03 0.  1.
    9000002   -1    0    0    0    0 -0.00000000000E+00 -0.00000000000E+00  0.00000000000E+00  0.93800000000E+00  0.93800000000E+00 0. -1.
         11    1    1    2    0    0 -0.58836374094E-01  0.41273674785E-01  0.11393112197E+01  0.11415759071E+01  0.51100000000E-03 0.  1.
    9000002    1    1    2    0    0  0.25404496118E+00  0.26237857408E-01  0.45020353422E-01  0.97318965248E+00  0.93800000000E+00 0. -1.
         22    1    1    2    0    0 -0.19520858709E+00 -0.67511532193E-01  0.28156683942E+01  0.28232344404E+01  0.00000000000E+00 0.  1.
</event>
<event>
 5    1  0.1560836E+002  0.1599445E+01  0.7818608E-02  0.3353966E+00
         11   -1    0    0    0    0  0.00000000000E+00  0.00000000000E+00  0.39999999674E+01  0.40000000000E+01  0.51100000000E-03 0. -1.
    9000002   -1    0    0    0    0 -0.00000000000E+00 -0.00000000000E+00  0.00000000000E+00  0.93800000000E+00  0.93800000000E+00 0.  1.
         11    1    1    2    0    0  0.18049414927E+00 -0.39851946369E+00  0.16288206232E+01  0.16865505579E+01  0.51100000000E-03 0. -1.
    9000002    1    1    2    0    0 -0.34243199800E+00  0.84526415084E+00  0.64035854941E+00  0.14565830665E+01  0.93800000000E+00 0.  1.
         22    1    1    2    0    0  0.16193784873E+00 -0.44674468715E+00  0.17308207948E+01  0.17948663755E+01  0.00000000000E+00 0.  1.
</event>
<event>
 5    1  0.1560836E+002  0.1599677E+01  0.7818608E-02  0.3353714E+00
         11   -1    0    0    0    0  0.00000000000E+00  0.00000000000E+00  0.39999999674E+01  0.40000000000E+01  0.51100000000E-03 0. -1.
    9000002   -1    0    0    0    0 -0.00000000000E+00 -0.00000000000E+00  0.00000000000E+00  0.93800000000E+00  0.93800000000E+00 0.  1.
         11    1    1    2    0    0 -0.12537461392E+00 -0.13227106190E+00  0.17027871608E+01  0.17125124244E+01  0.51100000000E-03 0. -1.
    9000002    1    1    2    0    0  0.28487050693E+00  0.30218559083E+00  0.11656646548E+00  0.10324238848E+01  0.93800000000E+00 0.  1.
         22    1    1    2    0    0 -0.15949589301E+00 -0.16991452892E+00  0.21806463411E+01  0.21930636908E+01  0.00000000000E+00 0. -1.
</event>
<event>
 5    1  0.1560836E+002  0.1568181E+01  0.7818608E-02  0.3388640E+00
         11   -1    0    0    0    0  0.00000000000E+00  0.00000000000E+00  0.39999999674E+01  0.40000000000E+01  0.51100000000E-03 0. -1.
    9000002   -1    0    0    0    0 -0.00000000000E+00 -0.00000000000E+00  0.00000000000E+00  0.93800000000E+00  0.93800000000E+00 0. -1.
         11    1    1    2    0    0 -0.90749390224E-01  0.12411709947E+00  0.80509502728E+00  0.81964551502E+00  0.51100000000E-03 0. -1.
    9000002    1    1    2    0    0 -0.37468723520E+00 -0.40129202127E+00  0.23849256485E+00  0.11127212203E+01  0.93800000000E+00 0. -1.
         22    1    1    2    0    0  0.46543662543E+00  0.27717492180E+00  0.29564123752E+01  0.30056332647E+01  0.00000000000E+00 0.  1.
</event>
<event>
 5    1  0.1560836E+002  0.1530198E+01  0.7818608E-02  0.3432793E+00
         11   -1    0    0    0    0  0.00000000000E+00  0.00000000000E+00  0.39999999674E+01  0.40000000000E+01  0.51100000000E-03 0. -1.
    9000002   -1    0    0    0    0 -0.00000000000E+00 -0.00000000000E+00  0.00000000000E+00  0.93800000000E+00  0.93800000000E+00 0. -1.
         11    1    1    2    0    0 -0.18530810445E+00 -0.38751874849E+00  0.47398532446E+00  0.63966571186E+00  0.51100000000E-03 0. -1.
    9000002    1    1    2    0    0  0.42957946575E+00 -0.61273128250E-01  0.36466057182E+00  0.10959535785E+01  0.93800000000E+00 0. -1.
         22    1    1    2    0    0 -0.24427136130E+00  0.44879187674E+00  0.31613540711E+01  0.32023807096E+01  0.00000000000E+00 0. -1.
</event>
<event>
 5    1  0.1560836E+002  0.1599677E+01  0.7818608E-02  0.3353714E+00
         11   -1    0    0    0    0  0.00000000000E+00  0.00000000000E+00  0.39999999674E+01  0.40000000000E+01  0.51100000000E-03 0. -1.
    9000002   -1    0    0    0    0 -0.00000000000E+00 -0.00000000000E+00  0.00000000000E+00  0.93800000000E+00  0.93800000000E+00 0. -1.
         11    1    1    2    0    0  0.17616737116E+00 -0.21141823284E+00  0.84702310383E+00  0.89060710270E+00  0.51100000000E-03 0.  1.
    9000002    1    1    2    0    0 -0.65358417058E+00  0.78721381870E+00  0.85385215551E+00  0.16296580524E+01  0.93800000000E+00 0. -1.
         22    1    1    2    0    0  0.47741679942E+00 -0.57579558585E+00  0.22991247080E+01  0.24177348449E+01  0.00000000000E+00 0. -1.
</event>
<event>
 5    1  0.1560836E+002  0.1599665E+01  0.7818608E-02  0.3353727E+00
         11   -1    0    0    0    0  0.00000000000E+00  0.00000000000E+00  0.39999999674E+01  0.40000000000E+01  0.51100000000E-03 0. -1.
    9000002   -1    0    0    0    0 -0.00000000000E+00 -0.00000000000E+00  0.00000000000E+00  0.93800000000E+00  0.93800000000E+00 0.  1.
         11    1    1    2    0    0  0.74351959502E-01 -0.12517090496E-02  0.10051390360E+01  0.10078861660E+01  0.51100000000E-03 0. -1.
    9000002    1    1    2    0    0 -0.29729528602E+00  0.18074390045E-01  0.59178052360E-01  0.98592961846E+00  0.93800000000E+00 0.  1.
         22    1    1    2    0    0  0.22294332652E+00 -0.16822680995E-01  0.29356828790E+01  0.29441842156E+01  0.00000000000E+00 0. -1.
</event>
<event>
 5    1  0.1560836E+002  0.1592397E+01  0.7818608E-02  0.3361657E+00
         11   -1    0    0    0    0  0.00000000000E+00  0.00000000000E+00  0.39999999674E+01  0.40000000000E+01  0.51100000000E-03 0. -1.
    9000002   -1    0    0    0    0 -0.00000000000E+00 -0.00000000000E+00  0.00000000000E+00  0.93800000000E+00  0.93800000000E+00 0. -1.
         11    1    1    2    0    0 -0.96901380319E+00  0.14965202951E+00  0.22749865684E+01  0.24772863436E+01  0.51100000000E-03 0. -1.
    9000002    1    1    2    0    0  0.11893898976E+01 -0.13828698837E+00  0.13960934055E+01  0.20646288811E+01  0.93800000000E+00 0. -1.
         22    1    1    2    0    0 -0.22037609441E+00 -0.11365041138E-01  0.32891999342E+00  0.39608477529E+00  0.00000000000E+00 0. -1.
</event>
<event>
 5    1  0.1560836E+002  0.1550341E+01  0.7818608E-02  0.3409090E+00
         11   -1    0    0    0    0  0.00000000000E+00  0.00000000000E+00  0.39999999674E+01  0.40000000000E+01  0.51100000000E-03 0. -1.
    9000002   -1    0    0    0    0 -0.00000000000E+00 -0.00000000000E+00  0.00000000000E+00  0.93800000000E+00  0.93800000000E+00 0.  1.
         11    1    1    2    0    0 -0.59066603919E-01  0.87457204209E-01  0.20574602569E+00  0.23123432806E+00  0.51100000000E-03 0. -1.
    9000002    1    1    2    0    0 -0.55739231329E-01  0.32924902285E+00  0.11508874092E+00  0.10022979593E+01  0.93800000000E+00 0.  1.
         22    1    1    2    0    0  0.11480583525E+00 -0.41670622706E+00  0.36791652008E+01  0.37044677126E+01  0.00000000000E+00 0. -1.
</event>
<event>
 5    1  0.1560836E+002  0.1598570E+01  0.7818608E-02  0.3354917E+00
         11   -1    0    0    0    0  0.00000000000E+00  0.00000000000E+00  0.39999999674E+01  0.40000000000E+01  0.51100000000E-03 0. -1.
    9000002   -1    0    0    0    0 -0.00000000000E+00 -0.00000000000E+00  0.00000000000E+00  0.93800000000E+00  0.93800000000E+00 0.  1.
         11    1    1    2    0    0  0.14128958564E+00 -0.11699056928E+00  0.99198038893E+00  0.10087987378E+01  0.51100000000E-03 0. -1.
    9000002    1    1    2    0    0 -0.42037851009E+00  0.37770081393E+00  0.22230110014E+00  0.11174246175E+01  0.93800000000E+00 0.  1.
         22    1    1    2    0    0  0.27908892444E+00 -0.26071024465E+00  0.27857184783E+01  0.28117766447E+01  0.00000000000E+00 0. -1.
</event>
<event>
 5    1  0.1560836E+002  0.1586863E+01  0.7818608E-02  0.3367747E+00
         11   -1    0    0    0    0  0.00000000000E+00  0.00000000000E+00  0.39999999674E+01  0.40000000000E+01  0.51100000000E-03 0. -1.
    9000002   -1    0    0    0    0 -0.00000000000E+00 -0.00000000000E+00  0.00000000000E+00  0.93800000000E+00  0.93800000000E+00 0. -1.
         11    1    1    2    0    0 -0.63039185146E-01 -0.46578301019E-01  0.19529575031E+01  0.19545298020E+01  0.51100000000E-03 0. -1.
    9000002    1    1    2    0    0  0.16073384830E+00 -0.17966355686E+00  0.48398752901E-01  0.96969108634E+00  0.93800000000E+00 0. -1.
         22    1    1    2    0    0 -0.97694663153E-01  0.22624185788E+00  0.19986437114E+01  0.20137791116E+01  0.00000000000E+00 0. -1.
</event>
<event>
 5    1  0.1560836E+002  0.1598715E+01  0.7818608E-02  0.3354759E+00
         11   -1    0    0    0    0  0.00000000000E+00  0.00000000000E+00  0.39999999674E+01  0.40000000000E+01  0.51100000000E-03 0.  1.
    9000002   -1    0    0    0    0 -0.00000000000E+00 -0.00000000000E+00  0.00000000000E+00  0.93800000000E+00  0.93800000000E+00 0. -1.
         11    1    1    2    0    0 -0.51350769919E-01 -0.11884131665E-01  0.46490610212E+00  0.46788468565E+00  0.51100000000E-03 0.  1.
    9000002    1    1    2    0    0  0.23241990610E+00  0.11828935223E+00  0.45956303620E-01  0.97466269316E+00  0.93800000000E+00 0. -1.
         22    1    1    2    0    0 -0.18106913619E+00 -0.10640522057E+00  0.34891375616E+01  0.34954526212E+01  0.00000000000E+00 0.  1.
</event>
<event>
 5    1  0.1560836E+002  0.1570990E+01  0.7818608E-02  0.3385464E+00
         11   -1    0    0    0    0  0.00000000000E+00  0.00000000000E+00  0.39999999674E+01  0.40000000000E+01  0.51100000000E-03 0.  1.
    9000002   -1    0    0    0    0 -0.00000000000E+00 -0.00000000000E+00  0.00000000000E+00  0.93800000000E+00  0.93800000000E+00 0. -1.
         11    1    1    2    0    0  0.55268859872E-01  0.30633295912E+00  0.30590625966E+01  0.30748591447E+01  0.51100000000E-03 0.  1.
    9000002    1    1    2    0    0 -0.27081131690E+00 -0.32905017162E+00  0.14767157763E+00  0.10407995386E+01  0.93800000000E+00 0. -1.
         22    1    1    2    0    0  0.21554245703E+00  0.22717212501E-01  0.79326579316E+00  0.82234131668E+00  0.00000000000E+00 0. -1.
</event>
<event>
 5    1  0.1560836E+002  0.1599673E+01  0.7818608E-02  0.3353718E+00
         11   -1    0    0    0    0  0.00000000000E+00  0.00000000000E+00  0.39999999674E+01  0.40000000000E+01  0.51100000000E-03 0.  1.
    9000002   -1    0    0    0    0 -0.00000000000E+00 -0.00000000000E+00  0.00000000000E+00  0.93800000000E+00  0.93800000000E+00 0. -1.
         11    1    1    2    0    0 -0.36831155833E-01  0.44734336024E-01  0.85668540934E+00  0.85864302627E+00  0.51100000000E-03 0.  1.
    9000002    1    1    2    0    0  0.16441653852E+00 -0.19955466913E+00  0.44443698155E-01  0.97399902793E+00  0.93800000000E+00 0. -1.
         22    1    1    2    0    0 -0.12758538269E+00  0.15482033310E+00  0.30988708599E+01  0.31053579458E+01  0.00000000000E+00 0.  1.
</event>
<event>
 5    1  0.1560836E+002  0.1599570E+01  0.7818608E-02  0.3353831E+00
         11   -1    0    0    0    0  0.00000000000E+00  0.00000000000E+00  0.39999999674E+01  0.40000000000E+01  0.51100000000E-03 0.  1.
    9000002   -1    0    0    0    0 -0.00000000000E+00 -0.00000000000E+00  0.00000000000E+00  0.93800000000E+00  0.93800000000E+00 0. -1.
         11    1    1    2    0    0  0.28855696640E-01  0.10584653985E-01  0.57866381243E+00  0.57947972791E+00  0.51100000000E-03 0.  1.
    9000002    1    1    2    0    0 -0.25382690042E+00 -0.92534739515E-01  0.48648099330E-01  0.97734405966E+00  0.93800000000E+00 0. -1.
         22    1    1    2    0    0  0.22497120378E+00  0.81950085530E-01  0.33726880556E+01  0.33811762124E+01  0.00000000000E+00 0.  1.
</event>
<event>
 5    1  0.1560836E+002  0.1599676E+01  0.7818608E-02  0.3353715E+00
         11   -1    0    0    0    0  0.00000000000E+00  0.00000000000E+00  0.39999999674E+01  0.40000000000E+01  0.51100000000E-03 0. -1.
    9000002   -1    0    0    0    0 -0.00000000000E+00 -0.00000000000E+00  0.00000000000E+00  0.93800000000E+00  0.93800000000E+00 0.  1.
         11    1    1    2    0    0  0.38099898835E-01 -0.19792370373E+00  0.12602931836E+01  0.12763089613E+01  0.51100000000E-03 0.  1.
    9000002    1    1    2    0    0 -0.11208489163E+00  0.58643485341E+00  0.24855244529E+00  0.11393380439E+01  0.93800000000E+00 0.  1.
         22    1    1    2    0    0  0.73984992799E-01 -0.38851114968E+00  0.24911543384E+01  0.25223529948E+01  0.00000000000E+00 0. -1.
</event>
<event>
 5    1  0.1560836E+002  0.1599653E+01  0.7818608E-02  0.3353740E+00
         11   -1    0    0    0    0  0.00000000000E+00  0.00000000000E+00  0.39999999674E+01  0.40000000000E+01  0.51100000000E-03 0. -1.
    9000002   -1    0    0    0    0 -0.00000000000E+00 -0.00000000000E+00  0.00000000000E+00  0.93800000000E+00  0.93800000000E+00 0. -1.
         11    1    1    2    0    0 -0.99023983187E-02  0.21207220600E-01  0.17936413265E+00  0.18088548007E+00  0.51100000000E-03 0. -1.
    9000002    1    1    2    0    0  0.22918356301E+00 -0.49667870787E+00  0.20657314339E+00  0.11053195502E+01  0.93800000000E+00 0. -1.
         22    1    1    2    0    0 -0.21928116469E+00  0.47547148727E+00  0.36140626913E+01  0.36517949698E+01  0.00000000000E+00 0. -1.
</event>
<event>
 5    1  0.1560836E+002  0.1592799E+01  0.7818608E-02  0.3361217E+00
         11   -1    0    0    0    0  0.00000000000E+00  0.00000000000E+00  0.39999999674E+01  0.40000000000E+01  0.51100000000E-03 0.  1.
    9000002   -1    0    0    0    0 -0.00000000000E+00 -0.00000000000E+00  0.00000000000E+00  0.93800000000E+00  0.93800000000E+00 0.  1.
         11    1    1    2    0    0  0.56832861452E-01 -0.30438727529E-02  0.10364646242E+01  0.10380262124E+01  0.51100000000E-03 0.  1.
    9000002    1    1    2    0    0 -0.18608998127E+00 -0.31966292905E+00  0.97572277284E-01  0.10130045502E+01  0.93800000000E+00 0.  1.
         22    1    1    2    0    0  0.12925711982E+00  0.32270680181E+00  0.28659630659E+01  0.28869692374E+01  0.00000000000E+00 0.  1.
</event>
<event>
 5    1  0.1560836E+002  0.1599672E+01  0.7818608E-02  0.3353719E+00
         11   -1    0    0    0    0  0.00000000000E+00  0.00000000000E+00  0.39999999674E+01  0.40000000000E+01  0.51100000000E-03 0.  1.
    9000002   -1    0    0    0    0 -0.00000000000E+00 -0.00000000000E+00  0.00000000000E+00  0.93800000000E+00  0.93800000000E+00 0. -1.
         11    1    1    2    0    0  0.34619058507E-01 -0.80643331584E-01  0.80427581279E+00  0.80904985650E+00  0.51100000000E-03 0.  1.
    9000002    1    1    2    0    0 -0.15874795205E+00  0.39477976284E+00  0.12254252303E+00  0.10372620900E+01  0.93800000000E+00 0. -1.
         22    1    1    2    0    0  0.12412889354E+00 -0.31413643125E+00  0.30731816315E+01  0.30916880535E+01  0.00000000000E+00 0.  1.
</event>
<event>
 5    1  0.1560836E+002  0.1574487E+01  0.7818608E-02  0.3381528E+00
         11   -1    0    0    0    0  0.00000000000E+00  0.00000000000E+00  0.39999999674E+01  0.40000000000E+01  0.51100000000E-03 0. -1.
    9000002   -1    0    0    0    0 -0.00000000000E+00 -0.00000000000E+00  0.00000000000E+00  0.93800000000E+00  0.93800000000E+00 0. -1.
         11    1    1    2    0    0 -0.10635881570E+00 -0.47331540173E-01  0.47748447578E+00  0.49147142145E+00  0.51100000000E-03 0. -1.
    9000002    1    1    2    0    0 -0.79217964302E-02 -0.13581795236E+00  0.30975376981E-01  0.94832101370E+00  0.93800000000E+00 0. -1.
         22    1    1    2    0    0  0.11428061213E+00  0.18314949253E+00  0.34915401146E+01  0.34982075648E+01  0.00000000000E+00 0. -1.
</event>
<event>
 5    1  0.1560836E+002  0.1599677E+01  0.7818608E-02  0.3353714E+00
         11   -1    0    0    0    0  0.00000000000E+00  0.00000000000E+00  0.39999999674E+01  0.40000000000E+01  0.51100000000E-03 0. -1.
    9000002   -1    0    0    0    0 -0.00000000000E+00 -0.00000000000E+00  0.00000000000E+00  0.93800000000E+00  0.93800000000E+00 0.  1.
         11    1    1    2    0    0  0.47911040362E+00  0.25101320307E+00  0.24771117759E+01  0.25354757776E+01  0.51100000000E-03 0. -1.
    9000002    1    1    2    0    0 -0.68810029583E+00 -0.36044154502E+00  0.44108663438E+00  0.12952997891E+01  0.93800000000E+00 0.  1.
         22    1    1    2    0    0  0.20898989221E+00  0.10942834195E+00  0.10818015570E+01  0.11072244334E+01  0.00000000000E+00 0.  1.
</event>
<event>
 5    1  0.1560836E+002  0.1599676E+01  0.7818608E-02  0.3353715E+00
         11   -1    0    0    0    0  0.00000000000E+00  0.00000000000E+00  0.39999999674E+01  0.40000000000E+01  0.51100000000E-03 0.  1.
    9000002   -1    0    0    0    0 -0.00000000000E+00 -0.00000000000E+00  0.00000000000E+00  0.93800000000E+00  0.93800000000E+00 0. -1.
         11    1    1    2    0    0  0.76898040477E-01  0.10995591526E+00  0.13349728272E+01  0.13416990432E+01  0.51100000000E-03 0.  1.
    9000002    1    1    2    0    0 -0.22379136535E+00 -0.31827415861E+00  0.10196933420E+00  0.10205992163E+01  0.93800000000E+00 0. -1.
         22    1    1    2    0    0  0.14689332487E+00  0.20831824335E+00  0.25630578059E+01  0.25757017405E+01  0.00000000000E+00 0.  1.
</event>
<event>
 5    1  0.1560836E+002  0.1599582E+01  0.7818608E-02  0.3353817E+00
         11   -1    0    0    0    0  0.00000000000E+00  0.00000000000E+00  0.39999999674E+01  0.40000000000E+01  0.51100000000E-03 0.  1.
    9000002   -1    0    0    0    0 -0.00000000000E+00 -0.00000000000E+00  0.00000000000E+00  0.93800000000E+00  0.93800000000E+00 0.  1.
         11    1    1    2    0    0 -0.65052392524E-03 -0.17601680462E-02  0.71821485252E-01  0.71847813034E-01  0.51100000000E-03 0.  1.
    9000002    1    1    2    0    0  0.20037374249E+00  0.50746851358E-01  0.28367780199E-01  0.96092331148E+00  0.93800000000E+00 0.  1.
         22    1    1    2    0    0 -0.19972321856E+00 -0.48986683312E-01  0.38998107019E+01  0.39052288755E+01  0.00000000000E+00 0.  1.
</event>
<event>
 5    1  0.1560836E+002  0.1599672E+01  0.7818608E-02  0.3353719E+00
         11   -1    0    0    0    0  0.00000000000E+00  0.00000000000E+00  0.39999999674E+01  0.40000000000E+01  0.51100000000E-03 0. -1.
    9000002   -1    0    0    0    0 -0.00000000000E+00 -0.00000000000E+00  0.00000000000E+00  0.93800000000E+00  0.93800000000E+00 0.  1.
         11    1    1    2    0    0  0.55259076609E-01 -0.68600436103E-02  0.81919313716E+00  0.82108360283E+00  0.51100000000E-03 0. -1.
    9000002    1    1    2    0    0 -0.26302210932E+00  0.23861981104E-01  0.46389321109E-01  0.97557469896E+00  0.93800000000E+00 0.  1.
         22    1    1    2    0    0  0.20776303271E+00 -0.17001937494E-01  0.31344175091E+01  0.31413416982E+01  0.00000000000E+00 0. -1.
</event>
<event>
 5    1  0.1560836E+002  0.1582037E+01  0.7818608E-02  0.3373094E+00
         11   -1    0    0    0    0  0.00000000000E+00  0.00000000000E+00  0.39999999674E+01  0.40000000000E+01  0.51100000000E-03 0. -1.
    9000002   -1    0    0    0    0 -0.00000000000E+00 -0.00000000000E+00  0.00000000000E+00  0.93800000000E+00  0.93800000000E+00 0.  1.
         11    1    1    2    0    0 -0.24341810677E-01  0.45345607740E-01  0.35704983775E+00  0.36074034380E+00  0.51100000000E-03 0. -1.
    9000002    1    1    2    0    0 -0.27210337017E+00  0.35576808353E+00  0.15158092775E+00  0.10504436924E+01  0.93800000000E+00 0.  1.
         22    1    1    2    0    0  0.29644518085E+00 -0.40111369127E+00  0.34913692019E+01  0.35268159638E+01  0.00000000000E+00 0. -1.
</event>
<event>
 5    1  0.1560836E+002  0.1599609E+01  0.7818608E-02  0.3353788E+00
         11   -1    0    0    0    0  0.00000000000E+00  0.00000000000E+00  0.39999999674E+01  0.40000000000E+01  0.51100000000E-03 0. -1.
    9000002   -1    0    0    0    0 -0.00000000000E+00 -0.00000000000E+00  0.00000000000E+00  0.93800000000E+00  0.93800000000E+00 0. -1.
         11    1    1    2    0    0  0.10381986364E-02  0.21703665838E-01  0.44034689686E+00  0.44088295234E+00  0.51100000000E-03 0. -1.
    9000002    1    1    2    0    0  0.25798078563E-02 -0.24987860983E+00  0.41533856845E-01  0.97160436203E+00  0.93800000000E+00 0. -1.
         22    1    1    2    0    0 -0.36180064926E-02  0.22817494399E+00  0.35181192137E+01  0.35255126856E+01  0.00000000000E+00 0. -1.
</event>
<event>
 5    1  0.1560836E+002  0.1599198E+01  0.7818608E-02  0.3354235E+00
         11   -1    0    0    0    0  0.00000000000E+00  0.00000000000E+00  0.39999999674E+01  0.40000000000E+01  0.51100000000E-03 0. -1.
    9000002   -1    0    0    0    0 -0.00000000000E+00 -0.00000000000E+00  0.00000000000E+00  0.93800000000E+00  0.93800000000E+00 0. -1.
         11    1    1    2    0    0  0.19730477146E-01 -0.12257389532E-01  0.31249093666E+00  0.31335344572E+00  0.51100000000E-03 0. -1.
    9000002    1    1    2    0    0 -0.25409171389E+00 -0.24581584484E-01  0.43674540235E-01  0.97309728128E+00  0.93800000000E+00 0. -1.
         22    1    1    2    0    0  0.23436123675E+00  0.36838974017E-01  0.36438344905E+01  0.36515492730E+01  0.00000000000E+00 0. -1.
</event>
<event>
 5    1  0.1560836E+002  0.1599544E+01  0.7818608E-02  0.3353859E+00
         11   -1    0    0    0    0  0.00000000000E+00  0.00000000000E+00  0.39999999674E+01  0.40000000000E+01  0.51100000000E-03 0.  1.
    9000002   -1    0    0    0    0 -0.00000000000E+00 -0.00000000000E+00  0.00000000000E+00  0.93800000000E+00  0.93800000000E+00 0.  1.
         11    1    1    2    0    0 -0.27150969070E-02 -0.76866303806E-05  0.93604374720E-01  0.93645138144E-01  0.51100000000E-03 0.  1.
    9000002    1    1    2    0    0  0.19370992497E+00 -0.15855799415E+00  0.41730074818E-01  0.97172504943E+00  0.93800000000E+00 0.  1.
         22    1    1    2    0    0 -0.19099482806E+00  0.15856568078E+00  0.38646655178E+01  0.38726298124E+01  0.00000000000E+00 0.  1.
</event>
<event>
 5    1  0.1560836E+002  0.1595730E+01  0.7818608E-02  0.3358011E+00
         11   -1    0    0    0    0  0.00000000000E+00  0.00000000000E+00  0.39999999674E+01  0.40000000000E+01  0.51100000000E-03 0. -1.
    9000002   -1    0    0    0    0 -0.00000000000E+00 -0.00000000000E+00  0.00000000000E+00  0.93800000000E+00  0.93800000000E+00 0.  1.
         11    1    1    2    0    0 -0.12015148510E-01  0.16302691236E+00  0.85224303331E+00  0.86777911181E+00  0.51100000000E-03 0. -1.
    9000002    1    1    2    0    0  0.68285898556E-01 -0.45112953063E+00  0.14495880257E+00  0.10531086705E+01  0.93800000000E+00 0.  1.
         22    1    1    2    0    0 -0.56270750047E-01  0.28810261828E+00  0.30027981315E+01  0.30171122177E+01  0.00000000000E+00 0.  1.
</event>
<event>
 5    1  0.1560836E+002  0.1599667E+01  0.7818608E-02  0.3353725E+00
         11   -1    0    0    0    0  0.00000000000E+00  0.00000000000E+00  0.39999999674E+01  0.40000000000E+01  0.51100000000E-03 0.  1.
    9000002   -1    0    0    0    0 -0.00000000000E+00 -0.00000000000E+00  0.00000000000E+00  0.93800000000E+00  0.93800000000E+00 0. -1.
         11    1    1    2    0    0  0.12684303653E+00 -0.30486273881E+00  0.15009673832E+01  0.15368584164E+01  0.51100000000E-03 0.  1.
    9000002    1    1    2    0    0 -0.29774877281E+00  0.71492874555E+00  0.43812321773E+00  0.12928934205E+01  0.93800000000E+00 0. -1.
         22    1    1    2    0    0  0.17090573629E+00 -0.41006600674E+00  0.20609093664E+01  0.21082481631E+01  0.00000000000E+00 0.  1.
</event>
<event>
 5    1  0.1786740E+002  0.1599676E+01  0.7818608E-02  0.3353715E+00
         11   -1    0    0    0    0  0.00000000000E+00  0.00000000000E+00  0.39999999674E+01  0.40000000000E+01  0.51100000000E-03 0.  1.
    9000002   -1    0    0    0    0 -0.00000000000E+00 -0.00000000000E+00  0.00000000000E+00  0.93800000000E+00  0.93800000000E+00 0. -1.
         11    1    1    2    0    0 -0.29538032420E+00  0.30307287838E+00  0.24511737434E+01  0.24874395846E+01  0.51100000000E-03 0.  1.
    9000002    1    1    2    0    0  0.44807207131E+00 -0.46018547201E+00  0.29057585366E+00  0.11733787012E+01  0.93800000000E+00 0. -1.
         22    1    1    2    0    0 -0.15269174711E+00  0.15711259363E+00  0.12582503703E+01  0.12771817142E+01  0.00000000000E+00 0.  1.
</event>
<event>
 5    1  0.1560836E+002  0.1599676E+01  0.7818608E-02  0.3353715E+00
         11   -1    0    0    0    0  0.00000000000E+00  0.00000000000E+00  0.39999999674E+01  0.40000000000E+01  0.51100000000E-03 0.  1.
    9000002   -1    0    0    0    0 -0.00000000000E+00 -0.00000000000E+00  0.00000000000E+00  0.93800000000E+00  0.93800000000E+00 0.  1.
         11    1    1    2    0    0 -0.93973917966E-02 -0.72630600748E-01  0.10481947794E+01  0.10507502423E+01  0.51100000000E-03 0.  1.
    9000002    1    1    2    0    0  0.37617352679E-01  0.27545573323E+00  0.51460883345E-01  0.97968522940E+00  0.93800000000E+00 0.  1.
         22    1    1    2    0    0 -0.28219960882E-01 -0.20282513248E+00  0.29003443047E+01  0.29075645283E+01  0.00000000000E+00 0.  1.
</event>
<event>
 5    1  0.1560836E+002  0.1599645E+01  0.7818608E-02  0.3353749E+00
         11   -1    0    0    0    0  0.00000000000E+00  0.00000000000E+00  0.39999999674E+01  0.40000000000E+01  0.51100000000E-03 0.  1.
    9000002   -1    0    0    0    0 -0.00000000000E+00 -0.00000000000E+00  0.00000000000E+00  0.93800000000E+00  0.93800000000E+00 0. -1.
         11    1    1    2    0    0 -0.68499471516E-02  0.13922203200E+00  0.11864802784E+01  0.11946402839E+01  0.51100000000E-03 0.  1.
    9000002    1    1    2    0    0  0.37357438786E-01 -0.43983649288E+00  0.13220232506E+00  0.10450708940E+01  0.93800000000E+00 0. -1.
         22    1    1    2    0    0 -0.30507491635E-01  0.30061446089E+00  0.26813173639E+01  0.26982888221E+01  0.00000000000E+00 0.  1.
</event>
<event>
 5    1  0.1560836E+002  0.1598968E+01  0.7818608E-02  0.3354484E+00
         11   -1    0    0    0    0  0.00000000000E+00  0.00000000000E+00  0.39999999674E+01  0.40000000000E+01  0.51100000000E-03 0.  1.
    9000002   -1    0    0    0    0 -0.00000000000E+00 -0.00000000000E+00  0.00000000000E+00  0.93800000000E+00  0.93800000000E+00 0.  1.
         11    1    1    2    0    0 -0.45334109232E-01  0.16660092539E-01  0.71813018577E+00  0.71975271099E+00  0.51100000000E-03 0.  1.
    9000002    1    1    2    0    0  0.20745691466E+00 -0.22063728313E+00  0.61758871717E-01  0.98761193815E+00  0.93800000000E+00 0.  1.
         22    1    1    2    0    0 -0.16212280543E+00  0.20397719059E+00  0.32201109099E+01  0.32306353509E+01  0.00000000000E+00 0.  1.
</event>
<event>
 5    1  0.1560836E+002  0.1599671E+01  0.7818608E-02  0.3353720E+00
         11   -1    0    0    0    0  0.00000000000E+00  0.00000000000E+00  0.39999999674E+01  0.40000000000E+01  0.51100000000E-03 0. -1.
    9000002   -1    0    0    0    0 -0.00000000000E+00 -0.00000000000E+00  0.00000000000E+00  0.93800000000E+00  0.93800000000E+00 0.  1.
         11    1    1    2    0    0  0.10441182737E+00 -0.25639985327E+00  0.19089003895E+01  0.19288710876E+01  0.51100000000E-03 0. -1.
    9000002    1    1    2    0    0 -0.20181514417E+00  0.51017866223E+00  0.20786086921E+00  0.11063732466E+01  0.93800000000E+00 0.  1.
         22    1    1    2    0    0  0.97403316799E-01 -0.25377880897E+00  0.18832387087E+01  0.19027556658E+01  0.00000000000E+00 0.  1.
</event>
<event>
 5    1  0.1560836E+002  0.1595458E+01  0.7818608E-02  0.3358308E+00
         11   -1    0    0    0    0  0.00000000000E+00  0.00000000000E+00  0.39999999674E+01  0.40000000000E+01  0.51100000000E-03 0.  1.
    9000002   -1    0    0    0    0 -0.00000000000E+00 -0.00000000000E+00  0.00000000000E+00  0.93800000000E+00  0.93800000000E+00 0.  1.
         11    1    1    2    0    0  0.78426401948E-01  0.33916846131E-01  0.18834302733E+01  0.18853675792E+01  0.51100000000E-03 0.  1.
    9000002    1    1    2    0    0 -0.12927194362E+00 -0.23122543082E+00  0.49924962475E-01  0.97596769267E+00  0.93800000000E+00 0.  1.
         22    1    1    2    0    0  0.50845541676E-01  0.19730858469E+00  0.20666447315E+01  0.20766647281E+01  0.00000000000E+00 0. -1.
</event>
<event>
 5    1  0.1560836E+002  0.1599661E+01  0.7818608E-02  0.3353731E+00
         11   -1    0    0    0    0  0.00000000000E+00  0.00000000000E+00  0.39999999674E+01  0.40000000000E+01  0.51100000000E-03 0. -1.
    9000002   -1    0    0    0    0 -0.00000000000E+00 -0.00000000000E+00  0.00000000000E+00  0.93800000000E+00  0.93800000000E+00 0.  1.
         11    1    1    2    0    0 -0.27237376064E+00  0.58397911331E+00  0.26331649361E+01  0.27108627615E+01  0.51100000000E-03 0. -1.
    9000002    1    1    2    0    0  0.35779165340E+00 -0.77207713542E+00  0.54330898298E+00  0.13780952874E+01  0.93800000000E+00 0.  1.
         22    1    1    2    0    0 -0.85417892754E-01  0.18809802212E+00  0.82352604831E+00  0.84904195101E+00  0.00000000000E+00 0. -1.
</event>
<event>
 5    1  0.1560836E+002  0.1599661E+01  0.7818608E-02  0.3353732E+00
         11   -1    0    0    0    0  0.00000000000E+00  0.00000000000E+00  0.39999999674E+01  0.40000000000E+01  0.51100000000E-03 0. -1.
    9000002   -1    0    0    0    0 -0.00000000000E+00 -0.00000000000E+00  0.00000000000E+00  0.93800000000E+00  0.93800000000E+00 0. -1.
         11    1    1    2    0    0 -0.18913043021E-01  0.77090428911E-01  0.10728944116E+01  0.10758268062E+01  0.51100000000E-03 0. -1.
    9000002    1    1    2    0    0  0.84502247024E-01 -0.28797671153E+00  0.60100929098E-01  0.98667488962E+00  0.93800000000E+00 0. -1.
         22    1    1    2    0    0 -0.65589204003E-01  0.21088628262E+00  0.28670046267E+01  0.28754983042E+01  0.00000000000E+00 0. -1.
</event>
<event>
 5    1  0.1560836E+002  0.1599672E+01  0.7818608E-02  0.3353719E+00
         11   -1    0    0    0    0  0.00000000000E+00  0.00000000000E+00  0.39999999674E+01  0.40000000000E+01  0.51100000000E-03 0. -1.
    9000002   -1    0    0    0    0 -0.00000000000E+00 -0.00000000000E+00  0.00000000000E+00  0.93800000000E+00  0.93800000000E+00 0.  1.
         11    1    1    2    0    0  0.18937509402E-01  0.17451825898E+00  0.16893480416E+01  0.16984440876E+01  0.51100000000E-03 0. -1.
    9000002    1    1    2    0    0 -0.47748145059E-01 -0.40590504754E+00  0.11280252725E+00  0.10293722374E+01  0.93800000000E+00 0.  1.
         22    1    1    2    0    0  0.28810635657E-01  0.23138678856E+00  0.21978493985E+01  0.22101836750E+01  0.00000000000E+00 0. -1.
</event>
<event>
 5    1  0.1560836E+002  0.1599676E+01  0.7818608E-02  0.3353715E+00
         11   -1    0    0    0    0  0.00000000000E+00  0.00000000000E+00  0.39999999674E+01  0.40000000000E+01  0.51100000000E-03 0. -1.
    9000002   -1    0    0    0    0 -0.00000000000E+00 -0.00000000000E+00  0.00000000000E+00  0.93800000000E+00  0.93800000000E+00 0.  1.
         11    1    1    2    0    0  0.54540883554E-01 -0.23620430017E-01  0.83778640826E+00  0.83989223100E+00  0.51100000000E-03 0. -1.
    9000002    1    1    2    0    0 -0.25914471506E+00  0.11346606373E+00  0.53307427815E-01  0.98118102959E+00  0.93800000000E+00 0.  1.
         22    1    1    2    0    0  0.20460383151E+00 -0.89845633716E-01  0.31089061313E+01  0.31169267394E+01  0.00000000000E+00 0. -1.
</event>
<event>
 5    1  0.1560836E+002  0.1595884E+01  0.7818608E-02  0.3357843E+00
         11   -1    0    0    0    0  0.00000000000E+00  0.00000000000E+00  0.39999999674E+01  0.40000000000E+01  0.51100000000E-03 0. -1.
    9000002   -1    0    0    0    0 -0.00000000000E+00 -0.00000000000E+00  0.00000000000E+00  0.93800000000E+00  0.93800000000E+00 0.  1.
         11    1    1    2    0    0 -0.14245446147E+00 -0.44152534854E-01  0.21947990898E+01  0.21998604560E+01  0.51100000000E-03 0. -1.
    9000002    1    1    2    0    0  0.37740385961E+00  0.36308106293E-01  0.99830171026E-01  0.10166425207E+01  0.93800000000E+00 0.  1.
         22    1    1    2    0    0 -0.23494939813E+00  0.78444285602E-02  0.17053707065E+01  0.17214970234E+01  0.00000000000E+00 0.  1.
</event>
<event>
 5    1  0.1560836E+002  0.1599676E+01  0.7818608E-02  0.3353715E+00
         11   -1    0    0    0    0  0.00000000000E+00  0.00000000000E+00  0.39999999674E+01  0.40000000000E+01  0.51100000000E-03 0.  1.
    9000002   -1    0    0    0    0 -0.00000000000E+00 -0.00000000000E+00  0.00000000000E+00  0.93800000000E+00  0.93800000000E+00 0. -1.
         11    1    1    2    0    0  0.31129624505E-01 -0.38835220456E-01  0.62768414280E+00  0.62965456570E+00  0.51100000000E-03 0.  1.
    9000002    1    1    2    0    0 -0.19697856592E+00  0.23836983434E+00  0.63846356188E-01  0.98971768225E+00  0.93800000000E+00 0. -1.
         22    1    1    2    0    0  0.16584894142E+00 -0.19953461388E+00  0.33084694684E+01  0.33186277521E+01  0.00000000000E+00 0.  1.
</event>
<event>
 5    1  0.1560836E+002  0.1599672E+01  0.7818608E-02  0.3353720E+00
         11   -1    0    0    0    0  0.00000000000E+00  0.00000000000E+00  0.39999999674E+01  0.40000000000E+01  0.51100000000E-03 0.  1.
    9000002   -1    0    0    0    0 -0.00000000000E+00 -0.00000000000E+00  0.00000000000E+00  0.93800000000E+00  0.93800000000E+00 0.  1.
         11    1    1    2    0    0  0.54942513530E-02  0.10971698782E+00  0.12390235541E+01  0.12438840915E+01  0.51100000000E-03 0.  1.
    9000002    1    1    2    0    0 -0.10856148123E-01 -0.35182718382E+00  0.83099052461E-01  0.10053107359E+01  0.93800000000E+00 0.  1.
         22    1    1    2    0    0  0.53618967698E-02  0.24211019600E+00  0.26778773608E+01  0.26888051726E+01  0.00000000000E+00 0.  1.
</event>
<event>
 5    1  0.1560836E+002  0.1596696E+01  0.7818608E-02  0.3356957E+00
         11   -1    0    0    0    0  0.00000000000E+00  0.00000000000E+00  0.39999999674E+01  0.40000000000E+01  0.51100000000E-03 0.  1.
    9000002   -1    0    0    0    0 -0.00000000000E+00 -0.00000000000E+00  0.00000000000E+00  0.93800000000E+00  0.93800000000E+00 0. -1.
         11    1    1    2    0    0  0.17084582134E-01  0.14275603432E+00  0.11629478481E+01  0.11718016585E+01  0.51100000000E-03 0.  1.
    9000002    1    1    2    0    0 -0.18648139042E+00 -0.32394303087E+00  0.96375942252E-01  0.10143208163E+01  0.93800000000E+00 0. -1.
         22    1    1    2    0    0  0.16939680829E+00  0.18118699655E+00  0.27406761770E+01  0.27518775252E+01  0.00000000000E+00 0. -1.
</event>
<event>
 5    1  0.1560836E+002  0.1599676E+01  0.7818608E-02  0.3353715E+00
         11   -1    0    0    0    0  0.00000000000E+00  0.00000000000E+00  0.39999999674E+01  0.40000000000E+01  0.51100000000E-03 0. -1.
    9000002   -1    0    0    0    0 -0.00000000000E+00 -0.00000000000E+00  0.00000000000E+00  0.93800000000E+00  0.93800000000E+00 0. -1.
         11    1    1    2    0    0  0.15211037652E+00  0.65523079183E-01  0.10630155487E+01  0.10758406752E+01  0.51100000000E-03 0. -1.
    9000002    1    1    2    0    0 -0.53610633401E+00 -0.22953804796E+00  0.23645156873E+00  0.11295357724E+01  0.93800000000E+00 0. -1.
         22    1    1    2    0    0  0.38399595749E+00  0.16401496878E+00  0.27005328499E+01  0.27326235523E+01  0.00000000000E+00 0. -1.
</event>
<event>
 5    1  0.1560836E+002  0.1492051E+01  0.7818608E-02  0.3479562E+00
         11   -1    0    0    0    0  0.00000000000E+00  0.00000000000E+00  0.39999999674E+01  0.40000000000E+01  0.51100000000E-03 0. -1.
    9000002   -1    0    0    0    0 -0.00000000000E+00 -0.00000000000E+00  0.00000000000E+00  0.93800000000E+00  0.93800000000E+00 0.  1.
         11    1    1    2    0    0 -0.27611377483E+00  0.29233328584E-01  0.45641686382E+00  0.53423779242E+00  0.51100000000E-03 0. -1.
    9000002    1    1    2    0    0 -0.64588445392E+00  0.13332681793E+00  0.55872732241E+00  0.12755245936E+01  0.93800000000E+00 0.  1.
         22    1    1    2    0    0  0.92199822875E+00 -0.16256014651E+00  0.29848557811E+01  0.31282376139E+01  0.00000000000E+00 0. -1.
</event>
<event>
 5    1  0.1560836E+002  0.1567934E+01  0.7818608E-02  0.3388919E+00
         11   -1    0    0    0    0  0.00000000000E+00  0.00000000000E+00  0.39999999674E+01  0.40000000000E+01  0.51100000000E-03 0. -1.
    9000002   -1    0    0    0    0 -0.00000000000E+00 -0.00000000000E+00  0.00000000000E+00  0.93800000000E+00  0.93800000000E+00 0. -1.
         11    1    1    2    0    0  0.33242291480E+00  0.87681628882E-01  0.25337863909E+01  0.25570034802E+01  0.51100000000E-03 0. -1.
    9000002    1    1    2    0    0 -0.60522704798E+00  0.13982496236E+00  0.30352604485E+00  0.11652565639E+01  0.93800000000E+00 0. -1.
         22    1    1    2    0    0  0.27280413318E+00 -0.22750659124E+00  0.11626875316E+01  0.12157399559E+01  0.00000000000E+00 0.  1.
</event>
<event>
 5    1  0.1560836E+002  0.1586434E+01  0.7818608E-02  0.3368220E+00
         11   -1    0    0    0    0  0.00000000000E+00  0.00000000000E+00  0.39999999674E+01  0.40000000000E+01  0.51100000000E-03 0. -1.
    9000002   -1    0    0    0    0 -0.00000000000E+00 -0.00000000000E+00  0.00000000000E+00  0.93800000000E+00  0.93800000000E+00 0. -1.
         11    1    1    2    0    0  0.66165271800E-02  0.30406157226E-01  0.38145993538E-01  0.49230994030E-01  0.51100000000E-03 0. -1.
    9000002    1    1    2    0    0  0.58125371358E-01 -0.21988081809E+00  0.44398173256E-01  0.96619942597E+00  0.93800000000E+00 0. -1.
         22    1    1    2    0    0 -0.64741898538E-01  0.18947466086E+00  0.39174558006E+01  0.39225695800E+01  0.00000000000E+00 0. -1.
</event>
<event>
 5    1  0.1560836E+002  0.1599518E+01  0.7818608E-02  0.3353887E+00
         11   -1    0    0    0    0  0.00000000000E+00  0.00000000000E+00  0.39999999674E+01  0.40000000000E+01  0.51100000000E-03 0.  1.
    9000002   -1    0    0    0    0 -0.00000000000E+00 -0.00000000000E+00  0.00000000000E+00  0.93800000000E+00  0.93800000000E+00 0. -1.
         11    1    1    2    0    0 -0.74664445533E-01 -0.14713280574E+00  0.13510774857E+01  0.13611147914E+01  0.51100000000E-03 0.  1.
    9000002    1    1    2    0    0  0.25242666547E+00  0.40880449178E+00  0.15765895245E+00  0.10656175108E+01  0.93800000000E+00 0. -1.
         22    1    1    2    0    0 -0.17776221994E+00 -0.26167168604E+00  0.24912635292E+01  0.25112676978E+01  0.00000000000E+00 0.  1.
</event>
<event>
 5    1  0.1560836E+002  0.1596547E+01  0.7818608E-02  0.3357119E+00
         11   -1    0    0    0    0  0.00000000000E+00  0.00000000000E+00  0.39999999674E+01  0.40000000000E+01  0.51100000000E-03 0.  1.
    9000002   -1    0    0    0    0 -0.00000000000E+00 -0.00000000000E+00  0.00000000000E+00  0.93800000000E+00  0.93800000000E+00 0. -1.
         11    1    1    2    0    0  0.63262027608E-01 -0.13046305530E+00  0.22616532058E+01  0.22662961363E+01  0.51100000000E-03 0.  1.
    9000002    1    1    2    0    0 -0.61068274412E-01  0.33115756782E+00  0.78427660997E-01  0.99969473684E+00  0.93800000000E+00 0. -1.
         22    1    1    2    0    0 -0.21937531960E-02 -0.20069451252E+00  0.16599191006E+01  0.16720091269E+01  0.00000000000E+00 0.  1.
</event>
<event>
 5    1  0.1560836E+002  0.1599677E+01  0.7818608E-02  0.3353714E+00
         11   -1    0    0    0    0  0.00000000000E+00  0.00000000000E+00  0.39999999674E+01  0.40000000000E+01  0.51100000000E-03 0. -1.
    9000002   -1    0    0    0    0 -0.00000000000E+00 -0.00000000000E+00  0.00000000000E+00  0.93800000000E+00  0.93800000000E+00 0. -1.
         11    1    1    2    0    0 -0.28134965716E-01 -0.42680115082E-01  0.74749912343E+00  0.74924519963E+00  0.51100000000E-03 0.  1.
    9000002    1    1    2    0    0  0.14813943838E+00  0.22606382560E+00  0.48605263944E-01  0.97737230272E+00  0.93800000000E+00 0. -1.
         22    1    1    2    0    0 -0.12000447266E+00 -0.18338371052E+00  0.32038955800E+01  0.32113824976E+01  0.00000000000E+00 0. -1.
</event>
<event>
 5    1  0.1560836E+002  0.1599677E+01  0.7818608E-02  0.3353714E+00
         11   -1    0    0    0    0  0.00000000000E+00  0.00000000000E+00  0.39999999674E+01  0.40000000000E+01  0.51100000000E-03 0. -1.
    9000002   -1    0    0    0    0 -0.00000000000E+00 -0.00000000000E+00  0.00000000000E+00  0.93800000000E+00  0.93800000000E+00 0. -1.
         11    1    1    2    0    0  0.11985752440E+00  0.16835668801E+00  0.17225280303E+01  0.17348812285E+01  0.51100000000E-03 0. -1.
    9000002    1    1    2    0    0 -0.26729310771E+00 -0.37618788277E+00  0.14489005268E+00  0.10553672612E+01  0.93800000000E+00 0. -1.
         22    1    1    2    0    0  0.14743558331E+00  0.20783119476E+00  0.21325818844E+01  0.21477515104E+01  0.00000000000E+00 0. -1.
</event>
<event>
 5    1  0.1560836E+002  0.1599674E+01  0.7818608E-02  0.3353717E+00
         11   -1    0    0    0    0  0.00000000000E+00  0.00000000000E+00  0.39999999674E+01  0.40000000000E+01  0.51100000000E-03 0.  1.
    9000002   -1    0    0    0    0 -0.00000000000E+00 -0.00000000000E+00  0.00000000000E+00  0.93800000000E+00  0.93800000000E+00 0.  1.
         11    1    1    2    0    0 -0.27000792494E+00  0.79907987050E-01  0.18138015111E+01  0.18355287382E+01  0.51100000000E-03 0.  1.
    9000002    1    1    2    0    0  0.56351402485E+00 -0.16753020966E+00  0.24052302596E+00  0.11328326237E+01  0.93800000000E+00 0.  1.
         22    1    1    2    0    0 -0.29350609991E+00  0.87622222608E-01  0.19456754303E+01  0.19696386381E+01  0.00000000000E+00 0.  1.
</event>
<event>
 5    1  0.1560836E+002  0.1599677E+01  0.7818608E-02  0.3353714E+00
         11   -1    0    0    0    0  0.00000000000E+00  0.00000000000E+00  0.39999999674E+01  0.40000000000E+01  0.51100000000E-03 0.  1.
    9000002   -1    0    0    0    0 -0.00000000000E+00 -0.00000000000E+00  0.00000000000E+00  0.93800000000E+00  0.93800000000E+00 0. -1.
         11    1    1    2    0    0  0.21532272249E-02 -0.40854566484E-01  0.49735393594E+00  0.49903399755E+00  0.51100000000E-03 0. -1.
    9000002    1    1    2    0    0 -0.17955619865E-01  0.32096893133E+00  0.69085257936E-01  0.99396188661E+00  0.93800000000E+00 0. -1.
         22    1    1    2    0    0  0.15802392640E-01 -0.28011436484E+00  0.34335607735E+01  0.34450041158E+01  0.00000000000E+00 0.  1.
</event>
<event>
 5    1  0.1560836E+002  0.1599666E+01  0.7818608E-02  0.3353726E+00
         11   -1    0    0    0    0  0.00000000000E+00  0.00000000000E+00  0.39999999674E+01  0.40000000000E+01  0.51100000000E-03 0.  1.
    9000002   -1    0    0    0    0 -0.00000000000E+00 -0.00000000000E+00  0.00000000000E+00  0.93800000000E+00  0.93800000000E+00 0. -1.
         11    1    1    2    0    0  0.68668271791E-01 -0.53797567763E+00  0.24504581322E+01  0.25097566575E+01  0.51100000000E-03 0.  1.
    9000002    1    1    2    0    0 -0.94051274610E-01  0.77907969152E+00  0.45133374360E+00  0.13035938616E+01  0.93800000000E+00 0. -1.
         22    1    1    2    0    0  0.25383002820E-01 -0.24110401389E+00  0.10982080916E+01  0.11246494808E+01  0.00000000000E+00 0.  1.
</event>
<event>
 5    1  0.1560836E+002  0.1480469E+01  0.7818608E-02  0.3494276E+00
         11   -1    0    0    0    0  0.00000000000E+00  0.00000000000E+00  0.39999999674E+01  0.40000000000E+01  0.51100000000E-03 0.  1.
    9000002   -1    0    0    0    0 -0.00000000000E+00 -0.00000000000E+00  0.00000000000E+00  0.93800000000E+00  0.93800000000E+00 0. -1.
         11    1    1    2    0    0 -0.34320330448E+00 -0.23480565718E+00  0.19054989534E+01  0.19503457969E+01  0.51100000000E-03 0.  1.
    9000002    1    1    2    0    0  0.13796315023E+00 -0.15492497057E+00  0.12413230472E+00  0.96865288231E+00  0.93800000000E+00 0. -1.
         22    1    1    2    0    0  0.20524015425E+00  0.38973062775E+00  0.19703687093E+01  0.20190013208E+01  0.00000000000E+00 0.  1.
</event>
<event>
 5    1  0.1560836E+002  0.1599677E+01  0.7818608E-02  0.3353714E+00
         11   -1    0    0    0    0  0.00000000000E+00  0.00000000000E+00  0.39999999674E+01  0.40000000000E+01  0.51100000000E-03 0. -1.
    9000002   -1    0    0    0    0 -0.00000000000E+00 -0.00000000000E+00  0.00000000000E+00  0.93800000000E+00  0.93800000000E+00 0.  1.
         11    1    1    2    0    0 -0.12442747489E+00 -0.82779032602E-01  0.13381539549E+01  0.13464734802E+01  0.51100000000E-03 0. -1.
    9000002    1    1    2    0    0  0.35895337624E+00  0.23946627931E+00  0.12612242364E+00  0.10401646461E+01  0.93800000000E+00 0.  1.
         22    1    1    2    0    0 -0.23452590135E+00 -0.15668724671E+00  0.25357235888E+01  0.25513618737E+01  0.00000000000E+00 0. -1.
</event>
<event>
 5    1  0.1560836E+002  0.1590881E+01  0.7818608E-02  0.3363321E+00
         11   -1    0    0    0    0  0.00000000000E+00  0.00000000000E+00  0.39999999674E+01  0.40000000000E+01  0.51100000000E-03 0. -1.
    9000002   -1    0    0    0    0 -0.00000000000E+00 -0.00000000000E+00  0.00000000000E+00  0.93800000000E+00  0.93800000000E+00 0.  1.
         11    1    1    2    0    0 -0.27344602407E-01  0.29962251530E-01  0.20802621059E+00  0.21194487305E+00  0.51100000000E-03 0. -1.
    9000002    1    1    2    0    0 -0.14108838078E+00  0.12515280674E+00  0.30127361312E-01  0.95724647512E+00  0.93800000000E+00 0.  1.
         22    1    1    2    0    0  0.16843298319E+00 -0.15511505827E+00  0.37618463955E+01  0.37688086518E+01  0.00000000000E+00 0. -1.
</event>
<event>
 5    1  0.1560836E+002  0.1599676E+01  0.7818608E-02  0.3353716E+00
         11   -1    0    0    0    0  0.00000000000E+00  0.00000000000E+00  0.39999999674E+01  0.40000000000E+01  0.51100000000E-03 0. -1.
    9000002   -1    0    0    0    0 -0.00000000000E+00 -0.00000000000E+00  0.00000000000E+00  0.93800000000E+00  0.93800000000E+00 0.  1.
         11    1    1    2    0    0  0.11475183495E-01 -0.40908407313E-01  0.52077923002E+00  0.52250975604E+00  0.51100000000E-03 0. -1.
    9000002    1    1    2    0    0 -0.90477859659E-01  0.31436184037E+00  0.71577979526E-01  0.99598042999E+00  0.93800000000E+00 0.  1.
         22    1    1    2    0    0  0.79002676164E-01 -0.27345343306E+00  0.34076427578E+01  0.34195098140E+01  0.00000000000E+00 0. -1.
</event>
<event>
 5    1  0.1560836E+002  0.1533950E+01  0.7818608E-02  0.3428327E+00
         11   -1    0    0    0    0  0.00000000000E+00  0.00000000000E+00  0.39999999674E+01  0.40000000000E+01  0.51100000000E-03 0. -1.
    9000002   -1    0    0    0    0 -0.00000000000E+00 -0.00000000000E+00  0.00000000000E+00  0.93800000000E+00  0.93800000000E+00 0. -1.
         11    1    1    2    0    0  0.23689749683E+00  0.57975956149E-01  0.11176044293E+01  0.11439062711E+01  0.51100000000E-03 0. -1.
    9000002    1    1    2    0    0  0.13323910291E+00 -0.44792720246E-01  0.63096011663E-01  0.95057043559E+00  0.93800000000E+00 0. -1.
         22    1    1    2    0    0 -0.37013659974E+00 -0.13183235902E-01  0.28192995264E+01  0.28435232933E+01  0.00000000000E+00 0. -1.
</event>
<event>
 5    1  0.1560836E+002  0.1599670E+01  0.7818608E-02  0.3353721E+00
         11   -1    0    0    0    0  0.00000000000E+00  0.00000000000E+00  0.39999999674E+01  0.40000000000E+01  0.51100000000E-03 0.  1.
    9000002   -1    0    0    0    0 -0.00000000000E+00 -0.00000000000E+00  0.00000000000E+00  0.93800000000E+00  0.93800000000E+00 0.  1.
         11    1    1    2    0    0 -0.14723277693E+00 -0.35065870092E+00  0.15514474627E+01  0.15973817658E+01  0.51100000000E-03 0.  1.
    9000002    1    1    2    0    0  0.33500391267E+00  0.78158303965E+00  0.54240794112E+00  0.13773706995E+01  0.93800000000E+00 0.  1.
         22    1    1    2    0    0 -0.18777113575E+00 -0.43092433873E+00  0.19061445636E+01  0.19632475347E+01  0.00000000000E+00 0.  1.
</event>
<event>
 5    1  0.1560836E+002  0.1599675E+01  0.7818608E-02  0.3353716E+00
         11   -1    0    0    0    0  0.00000000000E+00  0.00000000000E+00  0.39999999674E+01  0.40000000000E+01  0.51100000000E-03 0. -1.
    9000002   -1    0    0    0    0 -0.00000000000E+00 -0.00000000000E+00  0.00000000000E+00  0.93800000000E+00  0.93800000000E+00 0.  1.
         11    1    1    2    0    0  0.73632148890E-01 -0.27991786420E-01  0.78307913120E+00  0.78703139728E+00  0.51100000000E-03 0. -1.
    9000002    1    1    2    0    0 -0.36928064620E+00  0.13348310659E+00  0.10390626199E+00  0.10221675238E+01  0.93800000000E+00 0.  1.
         22    1    1    2    0    0  0.29564849730E+00 -0.10549132017E+00  0.31130145742E+01  0.31288010789E+01  0.00000000000E+00 0. -1.
</event>
<event>
 5    1  0.1560836E+002  0.1596665E+01  0.7818608E-02  0.3356991E+00
         11   -1    0    0    0    0  0.00000000000E+00  0.00000000000E+00  0.39999999674E+01  0.40000000000E+01  0.51100000000E-03 0. -1.
    9000002   -1    0    0    0    0 -0.00000000000E+00 -0.00000000000E+00  0.00000000000E+00  0.93800000000E+00  0.93800000000E+00 0.  1.
         11    1    1    2    0    0  0.28868963533E-01  0.25227835011E-01  0.39651170640E+00  0.39836121190E+00  0.51100000000E-03 0. -1.
    9000002    1    1    2    0    0 -0.38936623067E+00 -0.59182408057E+00  0.36290974675E+00  0.12302070103E+01  0.93800000000E+00 0.  1.
         22    1    1    2    0    0  0.36049726713E+00  0.56659624556E+00  0.32405785142E+01  0.33094317778E+01  0.00000000000E+00 0. -1.
</event>
<event>
 5    1  0.1560836E+002  0.1599643E+01  0.7818608E-02  0.3353750E+00
         11   -1    0    0    0    0  0.00000000000E+00  0.00000000000E+00  0.39999999674E+01  0.40000000000E+01  0.51100000000E-03 0. -1.
    9000002   -1    0    0    0    0 -0.00000000000E+00 -0.00000000000E+00  0.00000000000E+00  0.93800000000E+00  0.93800000000E+00 0.  1.
         11    1    1    2    0    0  0.15925636523E-01 -0.24694015008E+00  0.21428965089E+01  0.21571367069E+01  0.51100000000E-03 0. -1.
    9000002    1    1    2    0    0 -0.30295789556E-01  0.45696881386E+00  0.14264951350E+00  0.10535327311E+01  0.93800000000E+00 0.  1.
         22    1    1    2    0    0  0.14370153033E-01 -0.21002866378E+00  0.17144539450E+01  0.17273305620E+01  0.00000000000E+00 0. -1.
</event>
<event>
 5    1  0.1560836E+002  0.1575340E+01  0.7818608E-02  0.3380571E+00
         11   -1    0    0    0    0  0.00000000000E+00  0.00000000000E+00  0.39999999674E+01  0.40000000000E+01  0.51100000000E-03 0. -1.
    9000002   -1    0    0    0    0 -0.00000000000E+00 -0.00000000000E+00  0.00000000000E+00  0.93800000000E+00  0.93800000000E+00 0. -1.
         11    1    1    2    0    0  0.17644543508E+00  0.78044676875E-01  0.17205837044E+01  0.17313672366E+01  0.51100000000E-03 0. -1.
    9000002    1    1    2    0    0 -0.53714934162E-01 -0.41686694783E+00  0.14032589742E+00  0.10373999729E+01  0.93800000000E+00 0. -1.
         22    1    1    2    0    0 -0.12273050092E+00  0.33882227095E+00  0.21390903656E+01  0.21692327904E+01  0.00000000000E+00 0. -1.
</event>
<event>
 5    1  0.1560836E+002  0.1599677E+01  0.7818608E-02  0.3353714E+00
         11   -1    0    0    0    0  0.00000000000E+00  0.00000000000E+00  0.39999999674E+01  0.40000000000E+01  0.51100000000E-03 0.  1.
    9000002   -1    0    0    0    0 -0.00000000000E+00 -0.00000000000E+00  0.00000000000E+00  0.93800000000E+00  0.93800000000E+00 0.  1.
         11    1    1    2    0    0  0.19333630940E+00 -0.39059243549E+00  0.25077980992E+01  0.25453866006E+01  0.51100000000E-03 0. -1.
    9000002    1    1    2    0    0 -0.28574233142E+00  0.57696128227E+00  0.29208598492E+00  0.11746025812E+01  0.93800000000E+00 0. -1.
         22    1    1    2    0    0  0.92406022019E-01 -0.18636884677E+00  0.12001158833E+01  0.12180108182E+01  0.00000000000E+00 0.  1.
</event>
<event>
 5    1  0.1560836E+002  0.1599676E+01  0.7818608E-02  0.3353715E+00
         11   -1    0    0    0    0  0.00000000000E+00  0.00000000000E+00  0.39999999674E+01  0.40000000000E+01  0.51100000000E-03 0. -1.
    9000002   -1    0    0    0    0 -0.00000000000E+00 -0.00000000000E+00  0.00000000000E+00  0.93800000000E+00  0.93800000000E+00 0. -1.
         11    1    1    2    0    0  0.35699588420E-01  0.50288559179E-01  0.81298990812E+00  0.81532585610E+00  0.51100000000E-03 0. -1.
    9000002    1    1    2    0    0 -0.17567200666E+00 -0.24096696471E+00  0.59314131854E-01  0.98604660044E+00  0.93800000000E+00 0. -1.
         22    1    1    2    0    0  0.13997241824E+00  0.19067840553E+00  0.31276959274E+01  0.31366275435E+01  0.00000000000E+00 0. -1.
</event>
<event>
 5    1  0.1560836E+002  0.1599676E+01  0.7818608E-02  0.3353715E+00
         11   -1    0    0    0    0  0.00000000000E+00  0.00000000000E+00  0.39999999674E+01  0.40000000000E+01  0.51100000000E-03 0.  1.
    9000002   -1    0    0    0    0 -0.00000000000E+00 -0.00000000000E+00  0.00000000000E+00  0.93800000000E+00  0.93800000000E+00 0.  1.
         11    1    1    2    0    0  0.37557825384E-01  0.42437003361E-01  0.45237120166E+00  0.45590728741E+00  0.51100000000E-03 0.  1.
    9000002    1    1    2    0    0 -0.31341784634E+00 -0.35853841626E+00  0.15464461609E+00  0.10632683103E+01  0.93800000000E+00 0.  1.
         22    1    1    2    0    0  0.27586002096E+00  0.31610141290E+00  0.33929841496E+01  0.34188244023E+01  0.00000000000E+00 0.  1.
</event>
<event>
 5    1  0.1858618E+002  0.1463712E+01  0.7818608E-02  0.3516012E+00
         11   -1    0    0    0    0  0.00000000000E+00  0.00000000000E+00  0.39999999674E+01  0.40000000000E+01  0.51100000000E-03 0. -1.
    9000002   -1    0    0    0    0 -0.00000000000E+00 -0.00000000000E+00  0.00000000000E+00  0.93800000000E+00  0.93800000000E+00 0.  1.
         11    1    1    2    0    0 -0.11290378255E+00 -0.50353486913E-01 -0.10769715933E-01  0.12409264950E+00  0.51100000000E-03 0. -1.
    9000002    1    1    2    0    0  0.24015110463E+00  0.25164799293E+00  0.23113113052E+00  0.10267740087E+01  0.93800000000E+00 0.  1.
         22    1    1    2    0    0 -0.12724732208E+00 -0.20129450602E+00  0.37796385528E+01  0.37871333418E+01  0.00000000000E+00 0. -1.
</event>
<event>
 5    1  0.1560836E+002  0.1566990E+01  0.7818608E-02  0.3389990E+00
         11   -1    0    0    0    0  0.00000000000E+00  0.00000000000E+00  0.39999999674E+01  0.40000000000E+01  0.51100000000E-03 0. -1.
    9000002   -1    0    0    0    0 -0.00000000000E+00 -0.00000000000E+00  0.00000000000E+00  0.93800000000E+00  0.93800000000E+00 0.  1.
         11    1    1    2    0    0  0.11950707310E+00  0.84972713351E-02  0.16100868767E+01  0.16145383723E+01  0.51100000000E-03 0. -1.
    9000002    1    1    2    0    0  0.41431999780E-01 -0.41757809146E+00  0.14720493279E+00  0.10380757994E+01  0.93800000000E+00 0.  1.
         22    1    1    2    0    0 -0.16093907288E+00  0.40908082012E+00  0.22427081579E+01  0.22853858283E+01  0.00000000000E+00 0. -1.
</event>
<event>
 5    1  0.1560836E+002  0.1599676E+01  0.7818608E-02  0.3353715E+00
         11   -1    0    0    0    0  0.00000000000E+00  0.00000000000E+00  0.39999999674E+01  0.40000000000E+01  0.51100000000E-03 0. -1.
    9000002   -1    0    0    0    0 -0.00000000000E+00 -0.00000000000E+00  0.00000000000E+00  0.93800000000E+00  0.93800000000E+00 0. -1.
         11    1    1    2    0    0 -0.51386206131E+00 -0.27669723575E-01  0.19992804882E+01  0.20644472779E+01  0.51100000000E-03 0. -1.
    9000002    1    1    2    0    0  0.87847284160E+00  0.48300035200E-01  0.58743938763E+00  0.14138516404E+01  0.93800000000E+00 0. -1.
         22    1    1    2    0    0 -0.36461078029E+00 -0.20630311625E-01  0.14132800915E+01  0.14597010817E+01  0.00000000000E+00 0.  1.
</event>
<event>
 5    1  0.1560836E+002  0.1589798E+01  0.7818608E-02  0.3364511E+00
         11   -1    0    0    0    0  0.00000000000E+00  0.00000000000E+00  0.39999999674E+01  0.40000000000E+01  0.51100000000E-03 0. -1.
    9000002   -1    0    0    0    0 -0.00000000000E+00 -0.00000000000E+00  0.00000000000E+00  0.93800000000E+00  0.93800000000E+00 0.  1.
         11    1    1    2    0    0  0.66024787389E-01  0.68449568744E-01  0.10093472541E+01  0.10138179110E+01  0.51100000000E-03 0. -1.
    9000002    1    1    2    0    0  0.13327494140E+00 -0.15323960186E+00  0.34757736434E-01  0.96036278865E+00  0.93800000000E+00 0.  1.
         22    1    1    2    0    0 -0.19929972879E+00  0.84790033115E-01  0.29558949768E+01  0.29638193004E+01  0.00000000000E+00 0. -1.
</event>
<event>
 5    1  0.1560836E+002  0.1594706E+01  0.7818608E-02  0.3359129E+00
         11   -1    0    0    0    0  0.00000000000E+00  0.00000000000E+00  0.39999999674E+01  0.40000000000E+01  0.51100000000E-03 0.  1.
    9000002   -1    0    0    0    0 -0.00000000000E+00 -0.00000000000E+00  0.00000000000E+00  0.93800000000E+00  0.93800000000E+00 0.  1.
         11    1    1    2    0    0 -0.58258065959E-01  0.85366165247E-01  0.38838608204E+00  0.40190221977E+00  0.51100000000E-03 0.  1.
    9000002    1    1    2    0    0  0.45269770956E+00 -0.33443457866E+00  0.22411092110E+00  0.11166250080E+01  0.93800000000E+00 0.  1.
         22    1    1    2    0    0 -0.39443964360E+00  0.24906841341E+00  0.33875029642E+01  0.34194727722E+01  0.00000000000E+00 0.  1.
</event>
<event>
 5    1  0.1560836E+002  0.1599227E+01  0.7818608E-02  0.3354203E+00
         11   -1    0    0    0    0  0.00000000000E+00  0.00000000000E+00  0.39999999674E+01  0.40000000000E+01  0.51100000000E-03 0.  1.
    9000002   -1    0    0    0    0 -0.00000000000E+00 -0.00000000000E+00  0.00000000000E+00  0.93800000000E+00  0.93800000000E+00 0. -1.
         11    1    1    2    0    0  0.73645935559E-04 -0.12060795726E-01  0.14379801488E+00  0.14430384063E+00  0.51100000000E-03 0.  1.
    9000002    1    1    2    0    0  0.20437235550E+00  0.16926913029E+00  0.47182854234E-01  0.97595610552E+00  0.93800000000E+00 0. -1.
         22    1    1    2    0    0 -0.20444600144E+00 -0.15720833456E+00  0.38090190982E+01  0.38177400539E+01  0.00000000000E+00 0.  1.
</event>
<event>
 5    1  0.1560836E+002  0.1599676E+01  0.7818608E-02  0.3353715E+00
         11   -1    0    0    0    0  0.00000000000E+00  0.00000000000E+00  0.39999999674E+01  0.40000000000E+01  0.51100000000E-03 0. -1.
    9000002   -1    0    0    0    0 -0.00000000000E+00 -0.00000000000E+00  0.00000000000E+00  0.93800000000E+00  0.93800000000E+00 0.  1.
         11    1    1    2    0    0  0.24832356616E-01  0.61541214994E-01  0.75098442936E+00  0.75391103012E+00  0.51100000000E-03 0.  1.
    9000002    1    1    2    0    0 -0.13390847815E+00 -0.31863046138E+00  0.80059605234E-01  0.10028511314E+01  0.93800000000E+00 0.  1.
         22    1    1    2    0    0  0.10907612154E+00  0.25708924638E+00  0.31689559328E+01  0.31812378384E+01  0.00000000000E+00 0. -1.
</event>
<event>
 5    1  0.1560836E+002  0.1598511E+01  0.7818608E-02  0.3354981E+00
         11   -1    0    0    0    0  0.00000000000E+00  0.00000000000E+00  0.39999999674E+01  0.40000000000E+01  0.51100000000E-03 0.  1.
    9000002   -1    0    0    0    0 -0.00000000000E+00 -0.00000000000E+00  0.00000000000E+00  0.93800000000E+00  0.93800000000E+00 0. -1.
         11    1    1    2    0    0 -0.45618069833E-01  0.42480005239E-01  0.36098671784E+00  0.36632940193E+00  0.51100000000E-03 0.  1.
    9000002    1    1    2    0    0  0.42509921146E+00 -0.20339868083E+00  0.15234558092E+00  0.10607231208E+01  0.93800000000E+00 0. -1.
         22    1    1    2    0    0 -0.37948114162E+00  0.16091867559E+00  0.34866676686E+01  0.35109474773E+01  0.00000000000E+00 0.  1.
</event>
<event>
 5    1  0.1560836E+002  0.1598062E+01  0.7818608E-02  0.3355470E+00
         11   -1    0    0    0    0  0.00000000000E+00  0.00000000000E+00  0.39999999674E+01  0.40000000000E+01  0.51100000000E-03 0. -1.
    9000002   -1    0    0    0    0 -0.00000000000E+00 -0.00000000000E+00  0.00000000000E+00  0.93800000000E+00  0.93800000000E+00 0.  1.
         11    1    1    2    0    0  0.46201632283E-01  0.24306360909E-01  0.82816577331E+00  0.82980973675E+00  0.51100000000E-03 0. -1.
    9000002    1    1    2    0    0 -0.10292778409E+00 -0.26239279143E+00  0.54165338945E-01  0.98092914610E+00  0.93800000000E+00 0.  1.
         22    1    1    2    0    0  0.56726151811E-01  0.23808643053E+00  0.31176688551E+01  0.31272611171E+01  0.00000000000E+00 0. -1.
</event>
<event>
 5    1  0.1560836E+002  0.1599608E+01  0.7818608E-02  0.3353789E+00
         11   -1    0    0    0    0  0.00000000000E+00  0.00000000000E+00  0.39999999674E+01  0.40000000000E+01  0.51100000000E-03 0.  1.
    9000002   -1    0    0    0    0 -0.00000000000E+00 -0.00000000000E+00  0.00000000000E+00  0.93800000000E+00  0.93800000000E+00 0.  1.
         11    1    1    2    0    0 -0.38964764693E-01  0.71406792734E-01  0.91927762207E+00  0.92286986650E+00  0.51100000000E-03 0.  1.
    9000002    1    1    2    0    0  0.18579663605E+00 -0.33288240533E+00  0.97855603509E-01  0.10172270174E+01  0.93800000000E+00 0.  1.
         22    1    1    2    0    0 -0.14683187136E+00  0.26147561259E+00  0.29828667418E+01  0.29979031161E+01  0.00000000000E+00 0.  1.
</event>
<event>
 5    1  0.1560836E+002  0.1590535E+01  0.7818608E-02  0.3363701E+00
         11   -1    0    0    0    0  0.00000000000E+00  0.00000000000E+00  0.39999999674E+01  0.40000000000E+01  0.51100000000E-03 0.  1.
    9000002   -1    0    0    0    0 -0.00000000000E+00 -0.00000000000E+00  0.00000000000E+00  0.93800000000E+00  0.93800000000E+00 0. -1.
         11    1    1    2    0    0 -0.16486858129E+00 -0.23756584664E-01  0.11120918357E+01  0.11244974595E+01  0.51100000000E-03 0.  1.
    9000002    1    1    2    0    0  0.35070386713E+00 -0.20269268588E+00  0.11841966483E+00  0.10285644094E+01  0.93800000000E+00 0. -1.
         22    1    1    2    0    0 -0.18583528584E+00  0.22644927055E+00  0.27694884669E+01  0.27849381310E+01  0.00000000000E+00 0.  1.
</event>
<event>
 5    1  0.1560836E+002  0.1591576E+01  0.7818608E-02  0.3362557E+00
         11   -1    0    0    0    0  0.00000000000E+00  0.00000000000E+00  0.39999999674E+01  0.40000000000E+01  0.51100000000E-03 0. -1.
    9000002   -1    0    0    0    0 -0.00000000000E+00 -0.00000000000E+00  0.00000000000E+00  0.93800000000E+00  0.93800000000E+00 0. -1.
         11    1    1    2    0    0 -0.15020812461E-01  0.41716565925E-01  0.64462692075E+00  0.64615015651E+00  0.51100000000E-03 0. -1.
    9000002    1    1    2    0    0 -0.18100926871E+00  0.15185534558E+00  0.43225836077E-01  0.96826487814E+00  0.93800000000E+00 0. -1.
         22    1    1    2    0    0  0.19603008118E+00 -0.19357191150E+00  0.33121472105E+01  0.33235849654E+01  0.00000000000E+00 0. -1.
</event>
<event>
 5    1  0.1560836E+002  0.1599668E+01  0.7818608E-02  0.3353724E+00
         11   -1    0    0    0    0  0.00000000000E+00  0.00000000000E+00  0.39999999674E+01  0.40000000000E+01  0.51100000000E-03 0.  1.
    9000002   -1    0    0    0    0 -0.00000000000E+00 -0.00000000000E+00  0.00000000000E+00  0.93800000000E+00  0.93800000000E+00 0. -1.
         11    1    1    2    0    0  0.25705874905E-01  0.16860770648E+00  0.17212979510E+01  0.17297272178E+01  0.51100000000E-03 0.  1.
    9000002    1    1    2    0    0 -0.63852331549E-01 -0.38749911087E+00  0.10394440364E+00  0.10221942674E+01  0.93800000000E+00 0. -1.
         22    1    1    2    0    0  0.38146456645E-01  0.21889140439E+00  0.21747576127E+01  0.21860785148E+01  0.00000000000E+00 0.  1.
</event>
<event>
 5    1  0.1560836E+002  0.1599677E+01  0.7818608E-02  0.3353714E+00
         11   -1    0    0    0    0  0.00000000000E+00  0.00000000000E+00  0.39999999674E+01  0.40000000000E+01  0.51100000000E-03 0.  1.
    9000002   -1    0    0    0    0 -0.00000000000E+00 -0.00000000000E+00  0.00000000000E+00  0.93800000000E+00  0.93800000000E+00 0.  1.
         11    1    1    2    0    0  0.16227171190E+00  0.29636758818E+00  0.19403330891E+01  0.19695325876E+01  0.51100000000E-03 0.  1.
    9000002    1    1    2    0    0 -0.31125046810E+00 -0.56552262932E+00  0.29372462249E+00  0.11759297819E+01  0.93800000000E+00 0.  1.
         22    1    1    2    0    0  0.14897875620E+00  0.26915504114E+00  0.17659422557E+01  0.17925376304E+01  0.00000000000E+00 0.  1.
</event>
<event>
 5    1  0.1560836E+002  0.1599637E+01  0.7818608E-02  0.3353758E+00
         11   -1    0    0    0    0  0.00000000000E+00  0.00000000000E+00  0.39999999674E+01  0.40000000000E+01  0.51100000000E-03 0. -1.
    9000002   -1    0    0    0    0 -0.00000000000E+00 -0.00000000000E+00  0.00000000000E+00  0.93800000000E+00  0.93800000000E+00 0. -1.
         11    1    1    2    0    0  0.61236781644E-03  0.12026031151E-01  0.21672674332E+00  0.21706161063E+00  0.51100000000E-03 0. -1.
    9000002    1    1    2    0    0  0.51177645347E-01 -0.22914583154E+00  0.36609722595E-01  0.96763176637E+00  0.93800000000E+00 0. -1.
         22    1    1    2    0    0 -0.51790013163E-01  0.21711980039E+00  0.37466635014E+01  0.37533066230E+01  0.00000000000E+00 0. -1.
</event>
<event>
 5    1  0.1560836E+002  0.1583686E+01  0.7818608E-02  0.3371262E+00
         11   -1    0    0    0    0  0.00000000000E+00  0.00000000000E+00  0.39999999674E+01  0.40000000000E+01  0.51100000000E-03 0. -1.
    9000002   -1    0    0    0    0 -0.00000000000E+00 -0.00000000000E+00  0.00000000000E+00  0.93800000000E+00  0.93800000000E+00 0. -1.
         11    1    1    2    0    0  0.20884558897E-01 -0.62853657040E-01  0.14592103010E+00  0.16024966505E+00  0.51100000000E-03 0. -1.
    9000002    1    1    2    0    0  0.16514871044E+00  0.27490145012E+00  0.81512413506E-01  0.99465228969E+00  0.93800000000E+00 0. -1.
         22    1    1    2    0    0 -0.18603326934E+00 -0.21204779308E+00  0.37725665238E+01  0.37830980453E+01  0.00000000000E+00 0. -1.
</event>
<event>
 5    1  0.1560836E+002  0.1599675E+01  0.7818608E-02  0.3353716E+00
         11   -1    0    0    0    0  0.00000000000E+00  0.00000000000E+00  0.39999999674E+01  0.40000000000E+01  0.51100000000E-03 0.  1.
    9000002   -1    0    0    0    0 -0.00000000000E+00 -0.00000000000E+00  0.00000000000E+00  0.93800000000E+00  0.93800000000E+00 0.  1.
         11    1    1    2    0    0  0.57130375387E-01  0.57971051981E-01  0.80352437325E+00  0.80763618182E+00  0.51100000000E-03 0.  1.
    9000002    1    1    2    0    0 -0.27113431199E+00 -0.27975489165E+00  0.10224312594E+00  0.10208203913E+01  0.93800000000E+00 0.  1.
         22    1    1    2    0    0  0.21400393660E+00  0.22178383967E+00  0.30942324682E+01  0.31095434269E+01  0.00000000000E+00 0.  1.
</event>
<event>
 5    1  0.1560836E+002  0.1514532E+01  0.7818608E-02  0.3451694E+00
         11   -1    0    0    0    0  0.00000000000E+00  0.00000000000E+00  0.39999999674E+01  0.40000000000E+01  0.51100000000E-03 0. -1.
    9000002   -1    0    0    0    0 -0.00000000000E+00 -0.00000000000E+00  0.00000000000E+00  0.93800000000E+00  0.93800000000E+00 0.  1.
         11    1    1    2    0    0  0.32475379377E-01  0.58029690247E-02 -0.22822167485E-01  0.40117791127E-01  0.51100000000E-03 0. -1.
    9000002    1    1    2    0    0  0.23346374935E+00 -0.40164569338E+00  0.22552958180E+00  0.10707624282E+01  0.93800000000E+00 0.  1.
         22    1    1    2    0    0 -0.26593912872E+00  0.39584272436E+00  0.37972925530E+01  0.38271197807E+01  0.00000000000E+00 0. -1.
</event>
<event>
 5    1  0.1560836E+002  0.1599677E+01  0.7818608E-02  0.3353714E+00
         11   -1    0    0    0    0  0.00000000000E+00  0.00000000000E+00  0.39999999674E+01  0.40000000000E+01  0.51100000000E-03 0.  1.
    9000002   -1    0    0    0    0 -0.00000000000E+00 -0.00000000000E+00  0.00000000000E+00  0.93800000000E+00  0.93800000000E+00 0. -1.
         11    1    1    2    0    0 -0.28830833254E-01  0.34331431575E-01  0.65564059505E+00  0.65717175467E+00  0.51100000000E-03 0. -1.
    9000002    1    1    2    0    0  0.17282887840E+00 -0.20564549335E+00  0.48006416587E-01  0.97688715120E+00  0.93800000000E+00 0. -1.
         22    1    1    2    0    0 -0.14399804514E+00  0.17131406178E+00  0.32963529557E+01  0.33039410941E+01  0.00000000000E+00 0.  1.
</event>
<event>
 5    1  0.1560836E+002  0.1599664E+01  0.7818608E-02  0.3353728E+00
         11   -1    0    0    0    0  0.00000000000E+00  0.00000000000E+00  0.39999999674E+01  0.40000000000E+01  0.51100000000E-03 0.  1.
    9000002   -1    0    0    0    0 -0.00000000000E+00 -0.00000000000E+00  0.00000000000E+00  0.93800000000E+00  0.93800000000E+00 0. -1.
         11    1    1    2    0    0  0.22375275443E-01 -0.17310173630E-02  0.29189459831E+00  0.29275649782E+00  0.51100000000E-03 0.  1.
    9000002    1    1    2    0    0 -0.27267718442E+00  0.20941605752E-01  0.49787123289E-01  0.97832211229E+00  0.93800000000E+00 0. -1.
         22    1    1    2    0    0  0.25030190898E+00 -0.19210588389E-01  0.36583182458E+01  0.36669213899E+01  0.00000000000E+00 0.  1.
</event>
<event>
 5    1  0.1560836E+002  0.1570730E+01  0.7818608E-02  0.3385757E+00
         11   -1    0    0    0    0  0.00000000000E+00  0.00000000000E+00  0.39999999674E+01  0.40000000000E+01  0.51100000000E-03 0.  1.
    9000002   -1    0    0    0    0 -0.00000000000E+00 -0.00000000000E+00  0.00000000000E+00  0.93800000000E+00  0.93800000000E+00 0. -1.
         11    1    1    2    0    0  0.22601693109E-01 -0.18547413643E+00  0.28178931172E+01  0.28240809784E+01  0.51100000000E-03 0.  1.
    9000002    1    1    2    0    0  0.16551947182E+00  0.89990996477E-01  0.45409836698E-01  0.95781059102E+00  0.93800000000E+00 0. -1.
         22    1    1    2    0    0 -0.18812116493E+00  0.95483139953E-01  0.11366970135E+01  0.11561084306E+01  0.00000000000E+00 0. -1.
</event>
<event>
 5    1  0.1560836E+002  0.1599677E+01  0.7818608E-02  0.3353714E+00
         11   -1    0    0    0    0  0.00000000000E+00  0.00000000000E+00  0.39999999674E+01  0.40000000000E+01  0.51100000000E-03 0. -1.
    9000002   -1    0    0    0    0 -0.00000000000E+00 -0.00000000000E+00  0.00000000000E+00  0.93800000000E+00  0.93800000000E+00 0. -1.
         11    1    1    2    0    0 -0.33462586924E-01 -0.68824173689E-01  0.72582743948E+00  0.72985083725E+00  0.51100000000E-03 0. -1.
    9000002    1    1    2    0    0  0.17818857111E+00  0.36804392839E+00  0.11291568074E+00  0.10294665857E+01  0.93800000000E+00 0. -1.
         22    1    1    2    0    0 -0.14472598418E+00 -0.29921975470E+00  0.31612568471E+01  0.31786825771E+01  0.00000000000E+00 0. -1.
</event>
<event>
 5    1  0.1560836E+002  0.1599675E+01  0.7818608E-02  0.3353716E+00
         11   -1    0    0    0    0  0.00000000000E+00  0.00000000000E+00  0.39999999674E+01  0.40000000000E+01  0.51100000000E-03 0.  1.
    9000002   -1    0    0    0    0 -0.00000000000E+00 -0.00000000000E+00  0.00000000000E+00  0.93800000000E+00  0.93800000000E+00 0.  1.
         11    1    1    2    0    0  0.29118085751E-02 -0.13215799878E+00  0.14067541738E+01  0.14129514436E+01  0.51100000000E-03 0.  1.
    9000002    1    1    2    0    0 -0.39519297415E-02  0.36724081669E+00  0.90617881342E-01  0.10114034979E+01  0.93800000000E+00 0.  1.
         22    1    1    2    0    0  0.10401211664E-02 -0.23508281791E+00  0.25026279122E+01  0.25136450585E+01  0.00000000000E+00 0.  1.
</event>
<event>
 5    1  0.1560836E+002  0.1599605E+01  0.7818608E-02  0.3353792E+00
         11   -1    0    0    0    0  0.00000000000E+00  0.00000000000E+00  0.39999999674E+01  0.40000000000E+01  0.51100000000E-03 0. -1.
    9000002   -1    0    0    0    0 -0.00000000000E+00 -0.00000000000E+00  0.00000000000E+00  0.93800000000E+00  0.93800000000E+00 0.  1.
         11    1    1    2    0    0  0.21740292103E-02 -0.74682880797E-02  0.18533938366E+00  0.18550323443E+00  0.51100000000E-03 0. -1.
    9000002    1    1    2    0    0 -0.92033245410E-01  0.23881861204E+00  0.43589017344E-01  0.97326689564E+00  0.93800000000E+00 0.  1.
         22    1    1    2    0    0  0.89859216200E-01 -0.23135032396E+00  0.37710715664E+01  0.37792298699E+01  0.00000000000E+00 0. -1.
</event>
<event>
 5    1  0.1560836E+002  0.1599654E+01  0.7818608E-02  0.3353739E+00
         11   -1    0    0    0    0  0.00000000000E+00  0.00000000000E+00  0.39999999674E+01  0.40000000000E+01  0.51100000000E-03 0. -1.
    9000002   -1    0    0    0    0 -0.00000000000E+00 -0.00000000000E+00  0.00000000000E+00  0.93800000000E+00  0.93800000000E+00 0.  1.
         11    1    1    2    0    0 -0.49479204248E+00  0.36023673775E-01  0.23834313512E+01  0.24345147642E+01  0.51100000000E-03 0. -1.
    9000002    1    1    2    0    0  0.74905432215E+00 -0.46762037627E-01  0.40842295959E+00  0.12688271670E+01  0.93800000000E+00 0.  1.
         22    1    1    2    0    0 -0.25426227968E+00  0.10738363853E-01  0.12081456566E+01  0.12346580688E+01  0.00000000000E+00 0. -1.
</event>
<event>
 5    1  0.1560836E+002  0.1599677E+01  0.7818608E-02  0.3353714E+00
         11   -1    0    0    0    0  0.00000000000E+00  0.00000000000E+00  0.39999999674E+01  0.40000000000E+01  0.51100000000E-03 0. -1.
    9000002   -1    0    0    0    0 -0.00000000000E+00 -0.00000000000E+00  0.00000000000E+00  0.93800000000E+00  0.93800000000E+00 0. -1.
         11    1    1    2    0    0 -0.40410972402E+00 -0.39862047741E+00  0.25583754409E+01  0.26205892680E+01  0.51100000000E-03 0. -1.
    9000002    1    1    2    0    0  0.55990447245E+00  0.55307988783E+00  0.45428237402E+00  0.13059888422E+01  0.93800000000E+00 0. -1.
         22    1    1    2    0    0 -0.15579474843E+00 -0.15445941042E+00  0.98734215244E+00  0.10114218898E+01  0.00000000000E+00 0.  1.
</event>
<event>
 5    1  0.1560836E+002  0.1599668E+01  0.7818608E-02  0.3353723E+00
         11   -1    0    0    0    0  0.00000000000E+00  0.00000000000E+00  0.39999999674E+01  0.40000000000E+01  0.51100000000E-03 0. -1.
    9000002   -1    0    0    0    0 -0.00000000000E+00 -0.00000000000E+00  0.00000000000E+00  0.93800000000E+00  0.93800000000E+00 0. -1.
         11    1    1    2    0    0  0.67944026927E-02 -0.24518459088E-01  0.35749492435E+00  0.35839949889E+00  0.51100000000E-03 0. -1.
    9000002    1    1    2    0    0 -0.91162842901E-01  0.25604537053E+00  0.49163456302E-01  0.97781948290E+00  0.93800000000E+00 0. -1.
         22    1    1    2    0    0  0.84368440208E-01 -0.23152691145E+00  0.35933415867E+01  0.36017810182E+01  0.00000000000E+00 0. -1.
</event>
<event>
 5    1  0.1560836E+002  0.1582695E+01  0.7818608E-02  0.3372362E+00
         11   -1    0    0    0    0  0.00000000000E+00  0.00000000000E+00  0.39999999674E+01  0.40000000000E+01  0.51100000000E-03 0.  1.
    9000002   -1    0    0    0    0 -0.00000000000E+00 -0.00000000000E+00  0.00000000000E+00  0.93800000000E+00  0.93800000000E+00 0. -1.
         11    1    1    2    0    0  0.34711424619E-01 -0.46412603234E-01  0.16133477425E+00  0.17142982017E+00  0.51100000000E-03 0.  1.
    9000002    1    1    2    0    0  0.19015459659E+00  0.73834378826E-02  0.36753317441E-01  0.95781422630E+00  0.93800000000E+00 0. -1.
         22    1    1    2    0    0 -0.22486602121E+00  0.39029165352E-01  0.38019118757E+01  0.38087559535E+01  0.00000000000E+00 0.  1.
</event>
<event>
 5    1  0.1560836E+002  0.1588298E+01  0.7818608E-02  0.3366163E+00
         11   -1    0    0    0    0  0.00000000000E+00  0.00000000000E+00  0.39999999674E+01  0.40000000000E+01  0.51100000000E-03 0.  1.
    9000002   -1    0    0    0    0 -0.00000000000E+00 -0.00000000000E+00  0.00000000000E+00  0.93800000000E+00  0.93800000000E+00 0.  1.
         11    1    1    2    0    0  0.59023445178E-02 -0.50658396120E-01  0.21994047108E+01  0.21999960122E+01  0.51100000000E-03 0.  1.
    9000002    1    1    2    0    0  0.20288653364E+00  0.50886140891E-02  0.35857817932E-01  0.96037420969E+00  0.93800000000E+00 0.  1.
         22    1    1    2    0    0 -0.20878887815E+00  0.45569782031E-01  0.17647374386E+01  0.17776297781E+01  0.00000000000E+00 0.  1.
</event>
<event>
 5    1  0.1560836E+002  0.1599674E+01  0.7818608E-02  0.3353717E+00
         11   -1    0    0    0    0  0.00000000000E+00  0.00000000000E+00  0.39999999674E+01  0.40000000000E+01  0.51100000000E-03 0. -1.
    9000002   -1    0    0    0    0 -0.00000000000E+00 -0.00000000000E+00  0.00000000000E+00  0.93800000000E+00  0.93800000000E+00 0. -1.
         11    1    1    2    0    0 -0.25674730463E+00 -0.41387440450E+00  0.25163752345E+01  0.25630754541E+01  0.51100000000E-03 0. -1.
    9000002    1    1    2    0    0  0.37330958834E+00  0.60109646103E+00  0.35856171858E+00  0.12284492298E+01  0.93800000000E+00 0. -1.
         22    1    1    2    0    0 -0.11656228371E+00 -0.18722205653E+00  0.11250630142E+01  0.11464753161E+01  0.00000000000E+00 0.  1.
</event>
<event>
 5    1  0.1560836E+002  0.1595323E+01  0.7818608E-02  0.3358456E+00
         11   -1    0    0    0    0  0.00000000000E+00  0.00000000000E+00  0.39999999674E+01  0.40000000000E+01  0.51100000000E-03 0.  1.
    9000002   -1    0    0    0    0 -0.00000000000E+00 -0.00000000000E+00  0.00000000000E+00  0.93800000000E+00  0.93800000000E+00 0.  1.
         11    1    1    2    0    0 -0.80534570762E-01 -0.12205118473E+00  0.17583314438E+01  0.17644013252E+01  0.51100000000E-03 0.  1.
    9000002    1    1    2    0    0  0.20366305613E-01  0.34722007784E+00  0.84606268898E-01  0.10039814688E+01  0.93800000000E+00 0.  1.
         22    1    1    2    0    0  0.60168265149E-01 -0.22516889311E+00  0.21570622546E+01  0.21696172061E+01  0.00000000000E+00 0.  1.
</event>
<event>
 5    1  0.1560836E+002  0.1599649E+01  0.7818608E-02  0.3353744E+00
         11   -1    0    0    0    0  0.00000000000E+00  0.00000000000E+00  0.39999999674E+01  0.40000000000E+01  0.51100000000E-03 0. -1.
    9000002   -1    0    0    0    0 -0.00000000000E+00 -0.00000000000E+00  0.00000000000E+00  0.93800000000E+00  0.93800000000E+00 0. -1.
         11    1    1    2    0    0 -0.23133623661E+00  0.11942396537E+00  0.21829860839E+01  0.21984556037E+01  0.51100000000E-03 0. -1.
    9000002    1    1    2    0    0  0.40574718642E+00 -0.22159412860E+00  0.14545754245E+00  0.10558108892E+01  0.93800000000E+00 0. -1.
         22    1    1    2    0    0 -0.17441094981E+00  0.10217016322E+00  0.16715563410E+01  0.16837335071E+01  0.00000000000E+00 0.  1.
</event>
<event>
 5    1  0.1560836E+002  0.1582220E+01  0.7818608E-02  0.3372890E+00
         11   -1    0    0    0    0  0.00000000000E+00  0.00000000000E+00  0.39999999674E+01  0.40000000000E+01  0.51100000000E-03 0. -1.
    9000002   -1    0    0    0    0 -0.00000000000E+00 -0.00000000000E+00  0.00000000000E+00  0.93800000000E+00  0.93800000000E+00 0. -1.
         11    1    1    2    0    0  0.20557224537E-01 -0.67563219758E-01  0.26711949524E+00  0.27629779949E+00  0.51100000000E-03 0. -1.
    9000002    1    1    2    0    0 -0.92992125040E-01 -0.16721426977E+00  0.37381581599E-01  0.95804463882E+00  0.93800000000E+00 0. -1.
         22    1    1    2    0    0  0.72434900503E-01  0.23477748953E+00  0.36954988905E+01  0.37036575617E+01  0.00000000000E+00 0. -1.
</event>
<event>
 5    1  0.1560836E+002  0.1599585E+01  0.7818608E-02  0.3353814E+00
         11   -1    0    0    0    0  0.00000000000E+00  0.00000000000E+00  0.39999999674E+01  0.40000000000E+01  0.51100000000E-03 0.  1.
    9000002   -1    0    0    0    0 -0.00000000000E+00 -0.00000000000E+00  0.00000000000E+00  0.93800000000E+00  0.93800000000E+00 0.  1.
         11    1    1    2    0    0  0.39592885797E+00 -0.12204433764E+00  0.21273773331E+01  0.21673460867E+01  0.51100000000E-03 0.  1.
    9000002    1    1    2    0    0 -0.69189020852E+00  0.19804414984E+00  0.37226884251E+00  0.12395005595E+01  0.93800000000E+00 0.  1.
         22    1    1    2    0    0  0.29596135055E+00 -0.75999812207E-01  0.15003537917E+01  0.15311533538E+01  0.00000000000E+00 0.  1.
</event>
<event>
 5    1  0.1560836E+002  0.1581166E+01  0.7818608E-02  0.3374063E+00
         11   -1    0    0    0    0  0.00000000000E+00  0.00000000000E+00  0.39999999674E+01  0.40000000000E+01  0.51100000000E-03 0. -1.
    9000002   -1    0    0    0    0 -0.00000000000E+00 -0.00000000000E+00  0.00000000000E+00  0.93800000000E+00  0.93800000000E+00 0.  1.
         11    1    1    2    0    0  0.72154565390E-01 -0.41535086997E-01  0.31068189922E+00  0.32164413314E+00  0.51100000000E-03 0. -1.
    9000002    1    1    2    0    0 -0.20802535752E+00 -0.35505268624E+00  0.13008860286E+00  0.10325231251E+01  0.93800000000E+00 0.  1.
         22    1    1    2    0    0  0.13587079213E+00  0.39658777323E+00  0.35592294653E+01  0.35838327417E+01  0.00000000000E+00 0. -1.
</event>
<event>
 5    1  0.1560836E+002  0.1599475E+01  0.7818608E-02  0.3353933E+00
         11   -1    0    0    0    0  0.00000000000E+00  0.00000000000E+00  0.39999999674E+01  0.40000000000E+01  0.51100000000E-03 0.  1.
    9000002   -1    0    0    0    0 -0.00000000000E+00 -0.00000000000E+00  0.00000000000E+00  0.93800000000E+00  0.93800000000E+00 0. -1.
         11    1    1    2    0    0  0.70944815384E-01  0.17676277438E-01  0.10485461662E+01  0.10510922611E+01  0.51100000000E-03 0.  1.
    9000002    1    1    2    0    0 -0.29135937883E+00 -0.15292032900E-01  0.56901534499E-01  0.98397455177E+00  0.93800000000E+00 0. -1.
         22    1    1    2    0    0  0.22041456344E+00 -0.23842445380E-02  0.28945522667E+01  0.29029331871E+01  0.00000000000E+00 0.  1.
</event>
<event>
 5    1  0.1560836E+002  0.1599497E+01  0.7818608E-02  0.3353909E+00
         11   -1    0    0    0    0  0.00000000000E+00  0.00000000000E+00  0.39999999674E+01  0.40000000000E+01  0.51100000000E-03 0.  1.
    9000002   -1    0    0    0    0 -0.00000000000E+00 -0.00000000000E+00  0.00000000000E+00  0.93800000000E+00  0.93800000000E+00 0.  1.
         11    1    1    2    0    0 -0.89990779059E-01 -0.32996912111E-01  0.11015819310E+01  0.11057441604E+01  0.51100000000E-03 0.  1.
    9000002    1    1    2    0    0  0.27270675615E+00  0.13484107764E+00  0.61907283789E-01  0.98804230823E+00  0.93800000000E+00 0.  1.
         22    1    1    2    0    0 -0.18271597709E+00 -0.10184416553E+00  0.28365107526E+01  0.28442135314E+01  0.00000000000E+00 0. -1.
</event>
<event>
 5    1  0.1560836E+002  0.1599677E+01  0.7818608E-02  0.3353714E+00
         11   -1    0    0    0    0  0.00000000000E+00  0.00000000000E+00  0.39999999674E+01  0.40000000000E+01  0.51100000000E-03 0.  1.
    9000002   -1    0    0    0    0 -0.00000000000E+00 -0.00000000000E+00  0.00000000000E+00  0.93800000000E+00  0.93800000000E+00 0.  1.
         11    1    1    2    0    0  0.15336251679E+00  0.37526079822E+00  0.23407282785E+01  0.23755735861E+01  0.51100000000E-03 0.  1.
    9000002    1    1    2    0    0 -0.24343929467E+00 -0.59444383799E+00  0.29064058776E+00  0.11734317696E+01  0.93800000000E+00 0.  1.
         22    1    1    2    0    0  0.90076777875E-01  0.21918303977E+00  0.13686311011E+01  0.13889946443E+01  0.00000000000E+00 0.  1.
</event>
<event>
 5    1  0.1560836E+002  0.1599648E+01  0.7818608E-02  0.3353745E+00
         11   -1    0    0    0    0  0.00000000000E+00  0.00000000000E+00  0.39999999674E+01  0.40000000000E+01  0.51100000000E-03 0.  1.
    9000002   -1    0    0    0    0 -0.00000000000E+00 -0.00000000000E+00  0.00000000000E+00  0.93800000000E+00  0.93800000000E+00 0.  1.
         11    1    1    2    0    0 -0.69501600671E-01  0.12297685725E-01  0.62800294390E+00  0.63195701138E+00  0.51100000000E-03 0.  1.
    9000002    1    1    2    0    0  0.41301155599E+00 -0.10046803149E+00  0.12229855185E+00  0.10370502912E+01  0.93800000000E+00 0.  1.
         22    1    1    2    0    0 -0.34350995532E+00  0.88170345769E-01  0.32496984716E+01  0.32689926974E+01  0.00000000000E+00 0.  1.
</event>
<event>
 5    1  0.1560836E+002  0.1599676E+01  0.7818608E-02  0.3353715E+00
         11   -1    0    0    0    0  0.00000000000E+00  0.00000000000E+00  0.39999999674E+01  0.40000000000E+01  0.51100000000E-03 0.  1.
    9000002   -1    0    0    0    0 -0.00000000000E+00 -0.00000000000E+00  0.00000000000E+00  0.93800000000E+00  0.93800000000E+00 0.  1.
         11    1    1    2    0    0 -0.11413962725E+00 -0.61646492975E-01  0.13773185124E+01  0.13834141428E+01  0.51100000000E-03 0. -1.
    9000002    1    1    2    0    0  0.32321290533E+00  0.17768646189E+00  0.91411638313E-01  0.10120470091E+01  0.93800000000E+00 0.  1.
         22    1    1    2    0    0 -0.20907327808E+00 -0.11603996892E+00  0.25312698166E+01  0.25425388482E+01  0.00000000000E+00 0.  1.
</event>
<event>
 5    1  0.1560836E+002  0.1592869E+01  0.7818608E-02  0.3361139E+00
         11   -1    0    0    0    0  0.00000000000E+00  0.00000000000E+00  0.39999999674E+01  0.40000000000E+01  0.51100000000E-03 0. -1.
    9000002   -1    0    0    0    0 -0.00000000000E+00 -0.00000000000E+00  0.00000000000E+00  0.93800000000E+00  0.93800000000E+00 0. -1.
         11    1    1    2    0    0 -0.24518629333E+00  0.52936465436E+00  0.22112367801E+01  0.22869000010E+01  0.51100000000E-03 0. -1.
    9000002    1    1    2    0    0  0.26242198929E+00 -0.75541620895E+00  0.47990295781E+00  0.13227508451E+01  0.93800000000E+00 0. -1.
         22    1    1    2    0    0 -0.17235695956E-01  0.22605155459E+00  0.13088602294E+01  0.13283491539E+01  0.00000000000E+00 0. -1.
</event>
<event>
 5    1  0.1560836E+002  0.1599677E+01  0.7818608E-02  0.3353714E+00
         11   -1    0    0    0    0  0.00000000000E+00  0.00000000000E+00  0.39999999674E+01  0.40000000000E+01  0.51100000000E-03 0.  1.
    9000002   -1    0    0    0    0 -0.00000000000E+00 -0.00000000000E+00  0.00000000000E+00  0.93800000000E+00  0.93800000000E+00 0.  1.
         11    1    1    2    0    0  0.25818895129E-02 -0.24549892212E+00  0.16454861076E+01  0.16637010484E+01  0.51100000000E-03 0.  1.
    9000002    1    1    2    0    0 -0.48003062477E-02  0.56386078124E+00  0.22020610116E+00  0.11163766168E+01  0.93800000000E+00 0.  1.
         22    1    1    2    0    0  0.22184167348E-02 -0.31836185912E+00  0.21343077586E+01  0.21579223348E+01  0.00000000000E+00 0.  1.
</event>
<event>
 5    1  0.1560836E+002  0.1599143E+01  0.7818608E-02  0.3354294E+00
         11   -1    0    0    0    0  0.00000000000E+00  0.00000000000E+00  0.39999999674E+01  0.40000000000E+01  0.51100000000E-03 0.  1.
    9000002   -1    0    0    0    0 -0.00000000000E+00 -0.00000000000E+00  0.00000000000E+00  0.93800000000E+00  0.93800000000E+00 0.  1.
         11    1    1    2    0    0 -0.26303222808E+00 -0.46799026834E+00  0.22137079473E+01  0.22778726877E+01  0.51100000000E-03 0.  1.
    9000002    1    1    2    0    0  0.37477477591E+00  0.72850274447E+00  0.49842579244E+00  0.13414338045E+01  0.93800000000E+00 0.  1.
         22    1    1    2    0    0 -0.11174254783E+00 -0.26051247613E+00  0.12878662276E+01  0.13186935078E+01  0.00000000000E+00 0. -1.
</event>
<event>
 5    1  0.1560836E+002  0.1592345E+01  0.7818608E-02  0.3361714E+00
         11   -1    0    0    0    0  0.00000000000E+00  0.00000000000E+00  0.39999999674E+01  0.40000000000E+01  0.51100000000E-03 0.  1.
    9000002   -1    0    0    0    0 -0.00000000000E+00 -0.00000000000E+00  0.00000000000E+00  0.93800000000E+00  0.93800000000E+00 0.  1.
         11    1    1    2    0    0  0.26167730089E-02  0.87409391828E-01  0.16519276399E+01  0.16542407436E+01  0.51100000000E-03 0.  1.
    9000002    1    1    2    0    0 -0.21699441413E+00 -0.32218693472E+00  0.10770761173E+00  0.10209485424E+01  0.93800000000E+00 0.  1.
         22    1    1    2    0    0  0.21437764112E+00  0.23477754289E+00  0.22403647157E+01  0.22628107140E+01  0.00000000000E+00 0.  1.
</event>
<event>
 5    1  0.1560836E+002  0.1481298E+01  0.7818608E-02  0.3493215E+00
         11   -1    0    0    0    0  0.00000000000E+00  0.00000000000E+00  0.39999999674E+01  0.40000000000E+01  0.51100000000E-03 0. -1.
    9000002   -1    0    0    0    0 -0.00000000000E+00 -0.00000000000E+00  0.00000000000E+00  0.93800000000E+00  0.93800000000E+00 0.  1.
         11    1    1    2    0    0 -0.37571153292E+00  0.53152768333E-01  0.32288250079E+01  0.32510453035E+01  0.51100000000E-03 0. -1.
    9000002    1    1    2    0    0  0.83724849175E-01  0.33794309897E-01  0.97217623725E-01  0.94733688417E+00  0.93800000000E+00 0.  1.
         22    1    1    2    0    0  0.29198668374E+00 -0.86947078231E-01  0.67395733570E+00  0.73961781228E+00  0.00000000000E+00 0. -1.
</event>
<event>
 5    1  0.1560836E+002  0.1599663E+01  0.7818608E-02  0.3353730E+00
         11   -1    0    0    0    0  0.00000000000E+00  0.00000000000E+00  0.39999999674E+01  0.40000000000E+01  0.51100000000E-03 0. -1.
    9000002   -1    0    0    0    0 -0.00000000000E+00 -0.00000000000E+00  0.00000000000E+00  0.93800000000E+00  0.93800000000E+00 0.  1.
         11    1    1    2    0    0 -0.26051771880E-01  0.44747431955E-01  0.66264820740E+00  0.66466828973E+00  0.51100000000E-03 0. -1.
    9000002    1    1    2    0    0  0.17393577664E+00 -0.27088982423E+00  0.69294337257E-01  0.99412305900E+00  0.93800000000E+00 0.  1.
         22    1    1    2    0    0 -0.14788400476E+00  0.22614239227E+00  0.32680574227E+01  0.32792086513E+01  0.00000000000E+00 0. -1.
</event>
<event>
 5    1  0.1560836E+002  0.1599676E+01  0.7818608E-02  0.3353715E+00
         11   -1    0    0    0    0  0.00000000000E+00  0.00000000000E+00  0.39999999674E+01  0.40000000000E+01  0.51100000000E-03 0. -1.
    9000002   -1    0    0    0    0 -0.00000000000E+00 -0.00000000000E+00  0.00000000000E+00  0.93800000000E+00  0.93800000000E+00 0.  1.
         11    1    1    2    0    0  0.11980886008E+00 -0.36571448710E-01  0.85609891758E+00  0.86521514759E+00  0.51100000000E-03 0. -1.
    9000002    1    1    2    0    0 -0.53427083065E+00  0.16036633617E+00  0.21524381526E+00  0.11123563198E+01  0.93800000000E+00 0.  1.
         22    1    1    2    0    0  0.41446197057E+00 -0.12379488747E+00  0.29286572345E+01  0.29604285326E+01  0.00000000000E+00 0. -1.
</event>
<event>
 5    1  0.1560836E+002  0.1599555E+01  0.7818608E-02  0.3353846E+00
         11   -1    0    0    0    0  0.00000000000E+00  0.00000000000E+00  0.39999999674E+01  0.40000000000E+01  0.51100000000E-03 0. -1.
    9000002   -1    0    0    0    0 -0.00000000000E+00 -0.00000000000E+00  0.00000000000E+00  0.93800000000E+00  0.93800000000E+00 0.  1.
         11    1    1    2    0    0  0.67032162300E-02  0.20209994488E-01  0.25424353176E+00  0.25513410502E+00  0.51100000000E-03 0. -1.
    9000002    1    1    2    0    0 -0.18682304411E+00 -0.36358580445E+00  0.11294122281E+00  0.10294159542E+01  0.93800000000E+00 0.  1.
         22    1    1    2    0    0  0.18011982788E+00  0.34337580996E+00  0.36328152128E+01  0.36534499408E+01  0.00000000000E+00 0. -1.
</event>
<event>
 5    1  0.1560836E+002  0.1585205E+01  0.7818608E-02  0.3369579E+00
         11   -1    0    0    0    0  0.00000000000E+00  0.00000000000E+00  0.39999999674E+01  0.40000000000E+01  0.51100000000E-03 0.  1.
    9000002   -1    0    0    0    0 -0.00000000000E+00 -0.00000000000E+00  0.00000000000E+00  0.93800000000E+00  0.93800000000E+00 0.  1.
         11    1    1    2    0    0 -0.19682599859E-01 -0.11723212134E+00  0.12098749369E+01  0.12157007852E+01  0.51100000000E-03 0.  1.
    9000002    1    1    2    0    0  0.16153853304E+00 -0.41706624714E-01  0.29201579769E-01  0.95316885832E+00  0.93800000000E+00 0.  1.
         22    1    1    2    0    0 -0.14185593318E+00  0.15893874605E+00  0.27609234507E+01  0.27691303565E+01  0.00000000000E+00 0.  1.
</event>
<event>
 5    1  0.1560836E+002  0.1599672E+01  0.7818608E-02  0.3353719E+00
         11   -1    0    0    0    0  0.00000000000E+00  0.00000000000E+00  0.39999999674E+01  0.40000000000E+01  0.51100000000E-03 0. -1.
    9000002   -1    0    0    0    0 -0.00000000000E+00 -0.00000000000E+00  0.00000000000E+00  0.93800000000E+00  0.93800000000E+00 0.  1.
         11    1    1    2    0    0 -0.33855398460E-01  0.83543906161E-01  0.80588039931E+00  0.81090643812E+00  0.51100000000E-03 0. -1.
    9000002    1    1    2    0    0  0.17265058906E+00 -0.39929477161E+00  0.12825806484E+00  0.10418918714E+01  0.93800000000E+00 0.  1.
         22    1    1    2    0    0 -0.13879519060E+00  0.31575086545E+00  0.30658615032E+01  0.30852016905E+01  0.00000000000E+00 0. -1.
</event>
<event>
 5    1  0.1560836E+002  0.1597880E+01  0.7818608E-02  0.3355667E+00
         11   -1    0    0    0    0  0.00000000000E+00  0.00000000000E+00  0.39999999674E+01  0.40000000000E+01  0.51100000000E-03 0.  1.
    9000002   -1    0    0    0    0 -0.00000000000E+00 -0.00000000000E+00  0.00000000000E+00  0.93800000000E+00  0.93800000000E+00 0.  1.
         11    1    1    2    0    0  0.15564439823E+00 -0.42774051633E-01  0.11166081464E+01  0.11282148784E+01  0.51100000000E-03 0.  1.
    9000002    1    1    2    0    0 -0.38035598324E+00  0.16219720958E+00  0.11704310106E+00  0.10317566071E+01  0.93800000000E+00 0.  1.
         22    1    1    2    0    0  0.22471158502E+00 -0.11942315795E+00  0.27663487199E+01  0.27780285145E+01  0.00000000000E+00 0.  1.
</event>
<event>
 5    1  0.1560836E+002  0.1599673E+01  0.7818608E-02  0.3353718E+00
         11   -1    0    0    0    0  0.00000000000E+00  0.00000000000E+00  0.39999999674E+01  0.40000000000E+01  0.51100000000E-03 0.  1.
    9000002   -1    0    0    0    0 -0.00000000000E+00 -0.00000000000E+00  0.00000000000E+00  0.93800000000E+00  0.93800000000E+00 0.  1.
         11    1    1    2    0    0 -0.84733856361E-02 -0.99321805889E-02  0.23017775643E+00  0.23054827510E+00  0.51100000000E-03 0.  1.
    9000002    1    1    2    0    0  0.14445142479E+00  0.18802234168E+00  0.37312470395E-01  0.96822251345E+00  0.93800000000E+00 0.  1.
         22    1    1    2    0    0 -0.13597803916E+00 -0.17809016109E+00  0.37325097405E+01  0.37392292115E+01  0.00000000000E+00 0.  1.
</event>
<event>
 5    1  0.1560836E+002  0.1599567E+01  0.7818608E-02  0.3353833E+00
         11   -1    0    0    0    0  0.00000000000E+00  0.00000000000E+00  0.39999999674E+01  0.40000000000E+01  0.51100000000E-03 0. -1.
    9000002   -1    0    0    0    0 -0.00000000000E+00 -0.00000000000E+00  0.00000000000E+00  0.93800000000E+00  0.93800000000E+00 0. -1.
         11    1    1    2    0    0 -0.11273880043E+00  0.43818250488E-01  0.97465980920E+00  0.98213648797E+00  0.51100000000E-03 0. -1.
    9000002    1    1    2    0    0  0.41502449684E+00 -0.14475770718E+00  0.13111306178E+00  0.10441430753E+01  0.93800000000E+00 0. -1.
         22    1    1    2    0    0 -0.30228569641E+00  0.10093945670E+00  0.28942270964E+01  0.29117204367E+01  0.00000000000E+00 0. -1.
</event>
<event>
 5    1  0.1560836E+002  0.1599503E+01  0.7818608E-02  0.3353903E+00
         11   -1    0    0    0    0  0.00000000000E+00  0.00000000000E+00  0.39999999674E+01  0.40000000000E+01  0.51100000000E-03 0.  1.
    9000002   -1    0    0    0    0 -0.00000000000E+00 -0.00000000000E+00  0.00000000000E+00  0.93800000000E+00  0.93800000000E+00 0. -1.
         11    1    1    2    0    0  0.22568768421E-01 -0.29164839299E-03  0.34296154065E+00  0.34370381705E+00  0.51100000000E-03 0.  1.
    9000002    1    1    2    0    0 -0.20824084203E+00  0.92096908112E-01  0.34516935241E-01  0.96585791273E+00  0.93800000000E+00 0. -1.
         22    1    1    2    0    0  0.18567207361E+00 -0.91805259719E-01  0.36225214915E+01  0.36284382702E+01  0.00000000000E+00 0.  1.
</event>
<event>
 5    1  0.1560836E+002  0.1599671E+01  0.7818608E-02  0.3353721E+00
         11   -1    0    0    0    0  0.00000000000E+00  0.00000000000E+00  0.39999999674E+01  0.40000000000E+01  0.51100000000E-03 0. -1.
    9000002   -1    0    0    0    0 -0.00000000000E+00 -0.00000000000E+00  0.00000000000E+00  0.93800000000E+00  0.93800000000E+00 0. -1.
         11    1    1    2    0    0  0.14762501568E-01  0.24291618025E-01  0.24746980197E+00  0.24909752743E+00  0.51100000000E-03 0.  1.
    9000002    1    1    2    0    0 -0.22647231658E+00 -0.35964567312E+00  0.12225292496E+00  0.10370267586E+01  0.93800000000E+00 0. -1.
         22    1    1    2    0    0  0.21170981501E+00  0.33535405509E+00  0.36302772404E+01  0.36518757140E+01  0.00000000000E+00 0. -1.
</event>
<event>
 5    1  0.1560836E+002  0.1599676E+01  0.7818608E-02  0.3353715E+00
         11   -1    0    0    0    0  0.00000000000E+00  0.00000000000E+00  0.39999999674E+01  0.40000000000E+01  0.51100000000E-03 0. -1.
    9000002   -1    0    0    0    0 -0.00000000000E+00 -0.00000000000E+00  0.00000000000E+00  0.93800000000E+00  0.93800000000E+00 0.  1.
         11    1    1    2    0    0 -0.21484605064E-01  0.31862306882E-01  0.59580409718E+00  0.59704235879E+00  0.51100000000E-03 0. -1.
    9000002    1    1    2    0    0  0.14640331281E+00 -0.21374774590E+00  0.44620694452E-01  0.97414425793E+00  0.93800000000E+00 0.  1.
         22    1    1    2    0    0 -0.12491870775E+00  0.18188543901E+00  0.33595751757E+01  0.33668133833E+01  0.00000000000E+00 0. -1.
</event>
<event>
 5    1  0.1560836E+002  0.1599259E+01  0.7818608E-02  0.3354168E+00
         11   -1    0    0    0    0  0.00000000000E+00  0.00000000000E+00  0.39999999674E+01  0.40000000000E+01  0.51100000000E-03 0. -1.
    9000002   -1    0    0    0    0 -0.00000000000E+00 -0.00000000000E+00  0.00000000000E+00  0.93800000000E+00  0.93800000000E+00 0. -1.
         11    1    1    2    0    0  0.90683823353E-01 -0.20389572152E+00  0.11906944586E+01  0.12114250187E+01  0.51100000000E-03 0. -1.
    9000002    1    1    2    0    0 -0.23779443493E+00  0.58099103639E+00  0.27708026188E+00  0.11622023271E+01  0.93800000000E+00 0. -1.
         22    1    1    2    0    0  0.14711061157E+00 -0.37709531488E+00  0.25322252469E+01  0.25643726542E+01  0.00000000000E+00 0. -1.
</event>
<event>
 5    1  0.1560836E+002  0.1599668E+01  0.7818608E-02  0.3353723E+00
         11   -1    0    0    0    0  0.00000000000E+00  0.00000000000E+00  0.39999999674E+01  0.40000000000E+01  0.51100000000E-03 0. -1.
    9000002   -1    0    0    0    0 -0.00000000000E+00 -0.00000000000E+00  0.00000000000E+00  0.93800000000E+00  0.93800000000E+00 0.  1.
         11    1    1    2    0    0 -0.18902326828E+00  0.24404128651E+00  0.22881904572E+01  0.23089178797E+01  0.51100000000E-03 0. -1.
    9000002    1    1    2    0    0  0.32100248768E+00 -0.40644272827E+00  0.18419785067E+00  0.10872033557E+01  0.93800000000E+00 0.  1.
         22    1    1    2    0    0 -0.13197921940E+00  0.16240144176E+00  0.15276116595E+01  0.15418787646E+01  0.00000000000E+00 0. -1.
</event>
<event>
 5    1  0.1560836E+002  0.1599675E+01  0.7818608E-02  0.3353716E+00
         11   -1    0    0    0    0  0.00000000000E+00  0.00000000000E+00  0.39999999674E+01  0.40000000000E+01  0.51100000000E-03 0. -1.
    9000002   -1    0    0    0    0 -0.00000000000E+00 -0.00000000000E+00  0.00000000000E+00  0.93800000000E+00  0.93800000000E+00 0.  1.
         11    1    1    2    0    0  0.76918890178E-01  0.23174554071E+00  0.13907050213E+01  0.14119784803E+01  0.51100000000E-03 0. -1.
    9000002    1    1    2    0    0 -0.20845701322E+00 -0.61846298941E+00  0.30076539321E+00  0.11816321836E+01  0.93800000000E+00 0.  1.
         22    1    1    2    0    0  0.13153812304E+00  0.38671744870E+00  0.23085295528E+01  0.23443893361E+01  0.00000000000E+00 0. -1.
</event>
<event>
 5    1  0.1560836E+002  0.1599677E+01  0.7818608E-02  0.3353714E+00
         11   -1    0    0    0    0  0.00000000000E+00  0.00000000000E+00  0.39999999674E+01  0.40000000000E+01  0.51100000000E-03 0.  1.
    9000002   -1    0    0    0    0 -0.00000000000E+00 -0.00000000000E+00  0.00000000000E+00  0.93800000000E+00  0.93800000000E+00 0.  1.
         11    1    1    2    0    0  0.34941767164E+00  0.66363273819E-01  0.17178152289E+01  0.17542480484E+01  0.51100000000E-03 0.  1.
    9000002    1    1    2    0    0 -0.73140766131E+00 -0.13885687105E+00  0.40112007577E+00  0.12629250622E+01  0.93800000000E+00 0.  1.
         22    1    1    2    0    0  0.38198998967E+00  0.72493597227E-01  0.18810646626E+01  0.19208268894E+01  0.00000000000E+00 0.  1.
</event>
<event>
 5    1  0.1560836E+002  0.1598452E+01  0.7818608E-02  0.3355045E+00
         11   -1    0    0    0    0  0.00000000000E+00  0.00000000000E+00  0.39999999674E+01  0.40000000000E+01  0.51100000000E-03 0. -1.
    9000002   -1    0    0    0    0 -0.00000000000E+00 -0.00000000000E+00  0.00000000000E+00  0.93800000000E+00  0.93800000000E+00 0. -1.
         11    1    1    2    0    0  0.25106793302E-02  0.19649405917E-02  0.33980495536E+00  0.33982029561E+00  0.51100000000E-03 0. -1.
    9000002    1    1    2    0    0 -0.28992275105E+00 -0.10722880935E+00  0.64763450920E-01  0.98974316047E+00  0.93800000000E+00 0. -1.
         22    1    1    2    0    0  0.28741207172E+00  0.10526386875E+00  0.35954315611E+01  0.36084365439E+01  0.00000000000E+00 0. -1.
</event>
<event>
 5    1  0.1560836E+002  0.1563861E+01  0.7818608E-02  0.3393547E+00
         11   -1    0    0    0    0  0.00000000000E+00  0.00000000000E+00  0.39999999674E+01  0.40000000000E+01  0.51100000000E-03 0. -1.
    9000002   -1    0    0    0    0 -0.00000000000E+00 -0.00000000000E+00  0.00000000000E+00  0.93800000000E+00  0.93800000000E+00 0.  1.
         11    1    1    2    0    0 -0.36020538346E+00  0.83623161636E-01  0.25191725584E+01  0.25461679818E+01  0.51100000000E-03 0. -1.
    9000002    1    1    2    0    0  0.24298933661E+00 -0.25059480054E+00  0.11109374730E+00  0.10069892713E+01  0.93800000000E+00 0.  1.
         22    1    1    2    0    0  0.11721604685E+00  0.16697163891E+00  0.13697336617E+01  0.13848427470E+01  0.00000000000E+00 0. -1.
</event>
<event>
 5    1  0.1560836E+002  0.1599172E+01  0.7818608E-02  0.3354262E+00
         11   -1    0    0    0    0  0.00000000000E+00  0.00000000000E+00  0.39999999674E+01  0.40000000000E+01  0.51100000000E-03 0. -1.
    9000002   -1    0    0    0    0 -0.00000000000E+00 -0.00000000000E+00  0.00000000000E+00  0.93800000000E+00  0.93800000000E+00 0. -1.
         11    1    1    2    0    0  0.11848205561E+00  0.12440426082E+00  0.17764682354E+01  0.17847560254E+01  0.51100000000E-03 0. -1.
    9000002    1    1    2    0    0 -0.31598037663E+00 -0.28536012752E+00  0.12312127612E+00  0.10374376364E+01  0.93800000000E+00 0. -1.
         22    1    1    2    0    0  0.19749832103E+00  0.16095586670E+00  0.21004104558E+01  0.21158063382E+01  0.00000000000E+00 0. -1.
</event>
<event>
 5    1  0.1560836E+002  0.1594369E+01  0.7818608E-02  0.3359498E+00
         11   -1    0    0    0    0  0.00000000000E+00  0.00000000000E+00  0.39999999674E+01  0.40000000000E+01  0.51100000000E-03 0.  1.
    9000002   -1    0    0    0    0 -0.00000000000E+00 -0.00000000000E+00  0.00000000000E+00  0.93800000000E+00  0.93800000000E+00 0. -1.
         11    1    1    2    0    0 -0.25204056040E-01  0.11876170317E-01  0.16444399370E+00  0.16678841700E+00  0.51100000000E-03 0.  1.
    9000002    1    1    2    0    0 -0.16563532275E+00  0.50607499757E-01  0.23781964742E-01  0.95415185428E+00  0.93800000000E+00 0. -1.
         22    1    1    2    0    0  0.19083937879E+00 -0.62483670074E-01  0.38117740089E+01  0.38170597287E+01  0.00000000000E+00 0.  1.
</event>
<event>
 5    1  0.1560836E+002  0.1435151E+01  0.7818608E-02  0.3554333E+00
         11   -1    0    0    0    0  0.00000000000E+00  0.00000000000E+00  0.39999999674E+01  0.40000000000E+01  0.51100000000E-03 0. -1.
    9000002   -1    0    0    0    0 -0.00000000000E+00 -0.00000000000E+00  0.00000000000E+00  0.93800000000E+00  0.93800000000E+00 0.  1.
         11    1    1    2    0    0 -0.54921334478E+00 -0.71908208307E+00  0.16730294007E+01  0.19020362712E+01  0.51100000000E-03 0. -1.
    9000002    1    1    2    0    0  0.17576870937E+00  0.92971720955E+00  0.10728881301E+01  0.17106144126E+01  0.93800000000E+00 0.  1.
         22    1    1    2    0    0  0.37344463541E+00 -0.21063512649E+00  0.12540824365E+01  0.13253493161E+01  0.00000000000E+00 0.  1.
</event>
<event>
 5    1  0.1560836E+002  0.1599644E+01  0.7818608E-02  0.3353750E+00
         11   -1    0    0    0    0  0.00000000000E+00  0.00000000000E+00  0.39999999674E+01  0.40000000000E+01  0.51100000000E-03 0. -1.
    9000002   -1    0    0    0    0 -0.00000000000E+00 -0.00000000000E+00  0.00000000000E+00  0.93800000000E+00  0.93800000000E+00 0.  1.
         11    1    1    2    0    0 -0.29981301442E-01  0.20261370596E-01  0.67982215125E+00  0.68078470902E+00  0.51100000000E-03 0. -1.
    9000002    1    1    2    0    0  0.19330027132E+00 -0.14216305278E+00  0.38243137408E-01  0.96895916634E+00  0.93800000000E+00 0.  1.
         22    1    1    2    0    0 -0.16331896988E+00  0.12190168218E+00  0.32819346787E+01  0.32882561246E+01  0.00000000000E+00 0. -1.
</event>
<event>
 5    1  0.1560836E+002  0.1494526E+01  0.7818608E-02  0.3476450E+00
         11   -1    0    0    0    0  0.00000000000E+00  0.00000000000E+00  0.39999999674E+01  0.40000000000E+01  0.51100000000E-03 0. -1.
    9000002   -1    0    0    0    0 -0.00000000000E+00 -0.00000000000E+00  0.00000000000E+00  0.93800000000E+00  0.93800000000E+00 0. -1.
         11    1    1    2    0    0 -0.12695331418E+00  0.17501391568E+00  0.40787220539E+00  0.46163514999E+00  0.51100000000E-03 0. -1.
    9000002    1    1    2    0    0 -0.75044478676E-01  0.26714530426E+00  0.13761369620E+00  0.98781567954E+00  0.93800000000E+00 0. -1.
         22    1    1    2    0    0  0.20199779286E+00 -0.44215921994E+00  0.34545140658E+01  0.34885491705E+01  0.00000000000E+00 0. -1.
</event>
<event>
 5    1  0.1560836E+002  0.1599629E+01  0.7818608E-02  0.3353766E+00
         11   -1    0    0    0    0  0.00000000000E+00  0.00000000000E+00  0.39999999674E+01  0.40000000000E+01  0.51100000000E-03 0. -1.
    9000002   -1    0    0    0    0 -0.00000000000E+00 -0.00000000000E+00  0.00000000000E+00  0.93800000000E+00  0.93800000000E+00 0. -1.
         11    1    1    2    0    0 -0.20908224885E-01 -0.56093419852E-01  0.43206393862E+00  0.43619162509E+00  0.51100000000E-03 0. -1.
    9000002    1    1    2    0    0  0.22853974203E+00  0.48109931267E+00  0.19535496778E+00  0.10962182838E+01  0.93800000000E+00 0. -1.
         22    1    1    2    0    0 -0.20763151714E+00 -0.42500589281E+00  0.33725810610E+01  0.34055900911E+01  0.00000000000E+00 0. -1.
</event>
<event>
 5    1  0.1560836E+002  0.1591887E+01  0.7818608E-02  0.3362217E+00
         11   -1    0    0    0    0  0.00000000000E+00  0.00000000000E+00  0.39999999674E+01  0.40000000000E+01  0.51100000000E-03 0. -1.
    9000002   -1    0    0    0    0 -0.00000000000E+00 -0.00000000000E+00  0.00000000000E+00  0.93800000000E+00  0.93800000000E+00 0. -1.
         11    1    1    2    0    0  0.40776122631E-02 -0.38633816443E-01  0.10092296546E+00  0.10814298300E+00  0.51100000000E-03 0. -1.
    9000002    1    1    2    0    0  0.16727433051E+00  0.21300376481E+00  0.54841947743E-01  0.97785630064E+00  0.93800000000E+00 0. -1.
         22    1    1    2    0    0 -0.17135194278E+00 -0.17436994837E+00  0.38442350542E+01  0.38520007164E+01  0.00000000000E+00 0. -1.
</event>
<event>
 5    1  0.1560836E+002  0.1557729E+01  0.7818608E-02  0.3400560E+00
         11   -1    0    0    0    0  0.00000000000E+00  0.00000000000E+00  0.39999999674E+01  0.40000000000E+01  0.51100000000E-03 0. -1.
    9000002   -1    0    0    0    0 -0.00000000000E+00 -0.00000000000E+00  0.00000000000E+00  0.93800000000E+00  0.93800000000E+00 0.  1.
         11    1    1    2    0    0 -0.99885816108E-01  0.12985429368E+00  0.10333269755E+01  0.10462333455E+01  0.51100000000E-03 0. -1.
    9000002    1    1    2    0    0 -0.15224430170E+00  0.13676511122E+00  0.59910882282E-01  0.96193364473E+00  0.93800000000E+00 0.  1.
         22    1    1    2    0    0  0.25213011781E+00 -0.26661940490E+00  0.29067621096E+01  0.29298330097E+01  0.00000000000E+00 0. -1.
</event>
<event>
 5    1  0.1560836E+002  0.1599663E+01  0.7818608E-02  0.3353730E+00
         11   -1    0    0    0    0  0.00000000000E+00  0.00000000000E+00  0.39999999674E+01  0.40000000000E+01  0.51100000000E-03 0. -1.
    9000002   -1    0    0    0    0 -0.00000000000E+00 -0.00000000000E+00  0.00000000000E+00  0.93800000000E+00  0.93800000000E+00 0. -1.
         11    1    1    2    0    0 -0.42997327671E+00 -0.48879538497E-01  0.20074277321E+01  0.20535414748E+01  0.51100000000E-03 0. -1.
    9000002    1    1    2    0    0  0.76790915236E+00  0.93344710202E-01  0.43699652761E+00  0.12919781989E+01  0.93800000000E+00 0. -1.
         22    1    1    2    0    0 -0.33793587565E+00 -0.44465171704E-01  0.15555757076E+01  0.15924803263E+01  0.00000000000E+00 0. -1.
</event>
<event>
 5    1  0.1560836E+002  0.1599331E+01  0.7818608E-02  0.3354089E+00
         11   -1    0    0    0    0  0.00000000000E+00  0.00000000000E+00  0.39999999674E+01  0.40000000000E+01  0.51100000000E-03 0. -1.
    9000002   -1    0    0    0    0 -0.00000000000E+00 -0.00000000000E+00  0.00000000000E+00  0.93800000000E+00  0.93800000000E+00 0. -1.
         11    1    1    2    0    0  0.83896545599E-01 -0.15501827391E-02  0.57707761950E+00  0.58314652831E+00  0.51100000000E-03 0. -1.
    9000002    1    1    2    0    0 -0.45534234520E+00  0.30645890989E-01  0.14189184612E+00  0.10527360153E+01  0.93800000000E+00 0. -1.
         22    1    1    2    0    0  0.37144579960E+00 -0.29095708250E-01  0.32810305017E+01  0.33021174564E+01  0.00000000000E+00 0. -1.
</event>
<event>
 5    1  0.1560836E+002  0.1529168E+01  0.7818608E-02  0.3434022E+00
         11   -1    0    0    0    0  0.00000000000E+00  0.00000000000E+00  0.39999999674E+01  0.40000000000E+01  0.51100000000E-03 0.  1.
    9000002   -1    0    0    0    0 -0.00000000000E+00 -0.00000000000E+00  0.00000000000E+00  0.93800000000E+00  0.93800000000E+00 0. -1.
         11    1    1    2    0    0 -0.31256756768E+00 -0.77271969362E-01  0.84618341968E+00  0.90537068789E+00  0.51100000000E-03 0.  1.
    9000002    1    1    2    0    0  0.20905144687E+00  0.24846302804E+00  0.12871907121E+00  0.10009240646E+01  0.93800000000E+00 0. -1.
         22    1    1    2    0    0  0.10351612081E+00 -0.17119105868E+00  0.30250974765E+01  0.30317052475E+01  0.00000000000E+00 0.  1.
</event>
<event>
 5    1  0.1560836E+002  0.1599612E+01  0.7818608E-02  0.3353784E+00
         11   -1    0    0    0    0  0.00000000000E+00  0.00000000000E+00  0.39999999674E+01  0.40000000000E+01  0.51100000000E-03 0. -1.
    9000002   -1    0    0    0    0 -0.00000000000E+00 -0.00000000000E+00  0.00000000000E+00  0.93800000000E+00  0.93800000000E+00 0. -1.
         11    1    1    2    0    0  0.42802765870E-01  0.90724189586E-01  0.10402958982E+01  0.10451214151E+01  0.51100000000E-03 0. -1.
    9000002    1    1    2    0    0 -0.18386132404E+00 -0.36080899006E+00  0.11073822866E+00  0.10276648622E+01  0.93800000000E+00 0. -1.
         22    1    1    2    0    0  0.14105855817E+00  0.27008480048E+00  0.28489658405E+01  0.28652137227E+01  0.00000000000E+00 0. -1.
</event>
<event>
 5    1  0.1560836E+002  0.1585086E+01  0.7818608E-02  0.3369711E+00
         11   -1    0    0    0    0  0.00000000000E+00  0.00000000000E+00  0.39999999674E+01  0.40000000000E+01  0.51100000000E-03 0. -1.
    9000002   -1    0    0    0    0 -0.00000000000E+00 -0.00000000000E+00  0.00000000000E+00  0.93800000000E+00  0.93800000000E+00 0. -1.
         11    1    1    2    0    0  0.89649521714E-01  0.40826698009E-01  0.82585841191E+00  0.83171283125E+00  0.51100000000E-03 0. -1.
    9000002    1    1    2    0    0  0.12071767790E+00 -0.64486463392E-01  0.23172842872E-01  0.94821529326E+00  0.93800000000E+00 0. -1.
         22    1    1    2    0    0 -0.21036719962E+00  0.23659765383E-01  0.31509687126E+01  0.31580718755E+01  0.00000000000E+00 0. -1.
</event>
<event>
 5    1  0.1560836E+002  0.1599630E+01  0.7818608E-02  0.3353765E+00
         11   -1    0    0    0    0  0.00000000000E+00  0.00000000000E+00  0.39999999674E+01  0.40000000000E+01  0.51100000000E-03 0. -1.
    9000002   -1    0    0    0    0 -0.00000000000E+00 -0.00000000000E+00  0.00000000000E+00  0.93800000000E+00  0.93800000000E+00 0.  1.
         11    1    1    2    0    0 -0.20479968082E-02  0.39829679744E-02  0.31369083016E-01  0.31691305039E-01  0.51100000000E-03 0. -1.
    9000002    1    1    2    0    0  0.24672467338E+00 -0.32110106984E+00  0.11071697646E+00  0.10276581194E+01  0.93800000000E+00 0.  1.
         22    1    1    2    0    0 -0.24467667657E+00  0.31711810186E+00  0.38579139079E+01  0.38786505756E+01  0.00000000000E+00 0. -1.
</event>
<event>
 5    1  0.1560836E+002  0.1599644E+01  0.7818608E-02  0.3353749E+00
         11   -1    0    0    0    0  0.00000000000E+00  0.00000000000E+00  0.39999999674E+01  0.40000000000E+01  0.51100000000E-03 0.  1.
    9000002   -1    0    0    0    0 -0.00000000000E+00 -0.00000000000E+00  0.00000000000E+00  0.93800000000E+00  0.93800000000E+00 0.  1.
         11    1    1    2    0    0  0.18090061684E-01  0.95705027627E+00  0.20873326879E+01  0.22963515612E+01  0.51100000000E-03 0.  1.
    9000002    1    1    2    0    0 -0.28988120967E-01 -0.11996711326E+01  0.13761668654E+01  0.20527372894E+01  0.93800000000E+00 0.  1.
         22    1    1    2    0    0  0.10898059283E-01  0.24262085637E+00  0.53650041399E+00  0.58891114938E+00  0.00000000000E+00 0.  1.
</event>
<event>
 5    1  0.1560836E+002  0.1598809E+01  0.7818608E-02  0.3354657E+00
         11   -1    0    0    0    0  0.00000000000E+00  0.00000000000E+00  0.39999999674E+01  0.40000000000E+01  0.51100000000E-03 0. -1.
    9000002   -1    0    0    0    0 -0.00000000000E+00 -0.00000000000E+00  0.00000000000E+00  0.93800000000E+00  0.93800000000E+00 0.  1.
         11    1    1    2    0    0  0.14586464866E-01  0.27430611288E-01  0.19196445479E+00  0.19446289214E+00  0.51100000000E-03 0. -1.
    9000002    1    1    2    0    0  0.26817123901E-02 -0.45663003701E+00  0.14251644124E+00  0.10529354768E+01  0.93800000000E+00 0.  1.
         22    1    1    2    0    0 -0.17268177256E-01  0.42919942572E+00  0.36655190713E+01  0.36906016311E+01  0.00000000000E+00 0. -1.
</event>
<event>
 5    1  0.1560836E+002  0.1597768E+01  0.7818608E-02  0.3355789E+00
         11   -1    0    0    0    0  0.00000000000E+00  0.00000000000E+00  0.39999999674E+01  0.40000000000E+01  0.51100000000E-03 0.  1.
    9000002   -1    0    0    0    0 -0.00000000000E+00 -0.00000000000E+00  0.00000000000E+00  0.93800000000E+00  0.93800000000E+00 0.  1.
         11    1    1    2    0    0  0.67929282569E-01 -0.33015063786E-01  0.60932952284E+00  0.61399276086E+00  0.51100000000E-03 0.  1.
    9000002    1    1    2    0    0 -0.46837577618E+00 -0.30645914034E-01  0.15175016816E+00  0.10598052431E+01  0.93800000000E+00 0.  1.
         22    1    1    2    0    0  0.40044649362E+00  0.63660977820E-01  0.32389202764E+01  0.32642019960E+01  0.00000000000E+00 0.  1.
</event>
<event>
 5    1  0.1560836E+002  0.1599677E+01  0.7818608E-02  0.3353714E+00
         11   -1    0    0    0    0  0.00000000000E+00  0.00000000000E+00  0.39999999674E+01  0.40000000000E+01  0.51100000000E-03 0. -1.
    9000002   -1    0    0    0    0 -0.00000000000E+00 -0.00000000000E+00  0.00000000000E+00  0.93800000000E+00  0.93800000000E+00 0. -1.
         11    1    1    2    0    0 -0.49328002633E-01  0.37752208394E+00  0.21297040342E+01  0.21634684445E+01  0.51100000000E-03 0. -1.
    9000002    1    1    2    0    0  0.86074990176E-01 -0.65481230345E+00  0.30857732703E+00  0.11879612887E+01  0.93800000000E+00 0. -1.
         22    1    1    2    0    0 -0.36746987542E-01  0.27729021952E+00  0.15617186061E+01  0.15865702668E+01  0.00000000000E+00 0. -1.
</event>
<event>
 5    1  0.1560836E+002  0.1599634E+01  0.7818608E-02  0.3353760E+00
         11   -1    0    0    0    0  0.00000000000E+00  0.00000000000E+00  0.39999999674E+01  0.40000000000E+01  0.51100000000E-03 0. -1.
    9000002   -1    0    0    0    0 -0.00000000000E+00 -0.00000000000E+00  0.00000000000E+00  0.93800000000E+00  0.93800000000E+00 0.  1.
         11    1    1    2    0    0  0.62707781860E-01 -0.86848361395E-02  0.59427060447E+00  0.59763325271E+00  0.51100000000E-03 0. -1.
    9000002    1    1    2    0    0 -0.39453679568E+00  0.90257596600E-01  0.11059348628E+00  0.10275605267E+01  0.93800000000E+00 0.  1.
         22    1    1    2    0    0  0.33182901382E+00 -0.81572760460E-01  0.32951358766E+01  0.33128062206E+01  0.00000000000E+00 0. -1.
</event>
<event>
 5    1  0.1560836E+002  0.1591167E+01  0.7818608E-02  0.3363006E+00
         11   -1    0    0    0    0  0.00000000000E+00  0.00000000000E+00  0.39999999674E+01  0.40000000000E+01  0.51100000000E-03 0. -1.
    9000002   -1    0    0    0    0 -0.00000000000E+00 -0.00000000000E+00  0.00000000000E+00  0.93800000000E+00  0.93800000000E+00 0. -1.
         11    1    1    2    0    0  0.18652074985E-01 -0.59047020774E-02  0.71712444974E+00  0.71739145725E+00  0.51100000000E-03 0. -1.
    9000002    1    1    2    0    0 -0.44017134606E+00 -0.28077027728E+00  0.19517333075E+00  0.10911092482E+01  0.93800000000E+00 0. -1.
         22    1    1    2    0    0  0.42151927108E+00  0.28667497936E+00  0.30877021869E+01  0.31294992945E+01  0.00000000000E+00 0. -1.
</event>
<event>
 5    1  0.1560836E+002  0.1599676E+01  0.7818608E-02  0.3353715E+00
         11   -1    0    0    0    0  0.00000000000E+00  0.00000000000E+00  0.39999999674E+01  0.40000000000E+01  0.51100000000E-03 0.  1.
    9000002   -1    0    0    0    0 -0.00000000000E+00 -0.00000000000E+00  0.00000000000E+00  0.93800000000E+00  0.93800000000E+00 0.  1.
         11    1    1    2    0    0 -0.72570765271E-01  0.11932663853E+00  0.13772758663E+01  0.13843389887E+01  0.51100000000E-03 0.  1.
    9000002    1    1    2    0    0  0.20283398764E+00 -0.33640189797E+00  0.10398943275E+00  0.10222356214E+01  0.93800000000E+00 0.  1.
         22    1    1    2    0    0 -0.13026322237E+00  0.21707525944E+00  0.25187346683E+01  0.25314253900E+01  0.00000000000E+00 0.  1.
</event>
<event>
 5    1  0.1560836E+002  0.1599677E+01  0.7818608E-02  0.3353714E+00
         11   -1    0    0    0    0  0.00000000000E+00  0.00000000000E+00  0.39999999674E+01  0.40000000000E+01  0.51100000000E-03 0.  1.
    9000002   -1    0    0    0    0 -0.00000000000E+00 -0.00000000000E+00  0.00000000000E+00  0.93800000000E+00  0.93800000000E+00 0.  1.
         11    1    1    2    0    0 -0.78363719371E-01 -0.10288905033E+00  0.14763252365E+01  0.14819795863E+01  0.51100000000E-03 0. -1.
    9000002    1    1    2    0    0  0.20736440436E+00  0.27406334882E+00  0.79139865471E-01  0.10021066977E+01  0.93800000000E+00 0.  1.
         22    1    1    2    0    0 -0.12900068499E+00 -0.17117429849E+00  0.24445348654E+01  0.24539137159E+01  0.00000000000E+00 0.  1.
</event>
<event>
 5    1  0.1560836E+002  0.1598945E+01  0.7818608E-02  0.3354509E+00
         11   -1    0    0    0    0  0.00000000000E+00  0.00000000000E+00  0.39999999674E+01  0.40000000000E+01  0.51100000000E-03 0.  1.
    9000002   -1    0    0    0    0 -0.00000000000E+00 -0.00000000000E+00  0.00000000000E+00  0.93800000000E+00  0.93800000000E+00 0. -1.
         11    1    1    2    0    0  0.19509235554E-02 -0.53770441851E-01  0.11131771654E+01  0.11144768859E+01  0.51100000000E-03 0.  1.
    9000002    1    1    2    0    0  0.13154567854E-01  0.29247022678E+00  0.57712254730E-01  0.98432036480E+00  0.93800000000E+00 0. -1.
         22    1    1    2    0    0 -0.15105491410E-01 -0.23869978493E+00  0.28291105473E+01  0.28392027493E+01  0.00000000000E+00 0.  1.
</event>
<event>
 5    1  0.1560836E+002  0.1599605E+01  0.7818608E-02  0.3353792E+00
         11   -1    0    0    0    0  0.00000000000E+00  0.00000000000E+00  0.39999999674E+01  0.40000000000E+01  0.51100000000E-03 0. -1.
    9000002   -1    0    0    0    0 -0.00000000000E+00 -0.00000000000E+00  0.00000000000E+00  0.93800000000E+00  0.93800000000E+00 0. -1.
         11    1    1    2    0    0  0.23906539440E-01  0.54817955016E-01  0.97902232224E+00  0.98084733745E+00  0.51100000000E-03 0. -1.
    9000002    1    1    2    0    0 -0.10980766422E+00 -0.25404464954E+00  0.51048012220E-01  0.97930909657E+00  0.93800000000E+00 0. -1.
         22    1    1    2    0    0  0.85901124775E-01  0.19922669452E+00  0.29699296329E+01  0.29778435660E+01  0.00000000000E+00 0. -1.
</event>
<event>
 5    1  0.1560836E+002  0.1573815E+01  0.7818608E-02  0.3382283E+00
         11   -1    0    0    0    0  0.00000000000E+00  0.00000000000E+00  0.39999999674E+01  0.40000000000E+01  0.51100000000E-03 0.  1.
    9000002   -1    0    0    0    0 -0.00000000000E+00 -0.00000000000E+00  0.00000000000E+00  0.93800000000E+00  0.93800000000E+00 0. -1.
         11    1    1    2    0    0  0.12460360506E+00 -0.11824275766E+00  0.17638918895E+01  0.17722365155E+01  0.51100000000E-03 0.  1.
    9000002    1    1    2    0    0 -0.16997784429E+00 -0.15199533515E+00  0.54330981562E-01  0.96684585380E+00  0.93800000000E+00 0. -1.
         22    1    1    2    0    0  0.45374239227E-01  0.27023809281E+00  0.21817770963E+01  0.21989176307E+01  0.00000000000E+00 0.  1.
</event>
<event>
 5    1  0.1560836E+002  0.1448643E+01  0.7818608E-02  0.3536025E+00
         11   -1    0    0    0    0  0.00000000000E+00  0.00000000000E+00  0.39999999674E+01  0.40000000000E+01  0.51100000000E-03 0.  1.
    9000002   -1    0    0    0    0 -0.00000000000E+00 -0.00000000000E+00  0.00000000000E+00  0.93800000000E+00  0.93800000000E+00 0. -1.
         11    1    1    2    0    0 -0.21873073090E+00 -0.11459071449E+00  0.23365577528E+00  0.33995506605E+00  0.51100000000E-03 0.  1.
    9000002    1    1    2    0    0  0.82520680292E-01 -0.90867922863E-01  0.13178106032E+00  0.95513187045E+00  0.93800000000E+00 0. -1.
         22    1    1    2    0    0  0.13621005061E+00  0.20545863735E+00  0.36345631318E+01  0.36429130635E+01  0.00000000000E+00 0.  1.
</event>
<event>
 5    1  0.1560836E+002  0.1597407E+01  0.7818608E-02  0.3356182E+00
         11   -1    0    0    0    0  0.00000000000E+00  0.00000000000E+00  0.39999999674E+01  0.40000000000E+01  0.51100000000E-03 0. -1.
    9000002   -1    0    0    0    0 -0.00000000000E+00 -0.00000000000E+00  0.00000000000E+00  0.93800000000E+00  0.93800000000E+00 0.  1.
         11    1    1    2    0    0  0.63630234637E-01  0.59794642728E-01  0.81089702690E+00  0.81558473221E+00  0.51100000000E-03 0. -1.
    9000002    1    1    2    0    0 -0.27449343824E+00 -0.67987889648E-01  0.55028568171E-01  0.98124469124E+00  0.93800000000E+00 0.  1.
         22    1    1    2    0    0  0.21086320360E+00  0.81932469202E-02  0.31340743723E+01  0.31411705765E+01  0.00000000000E+00 0. -1.
</event>
<event>
 5    1  0.1560836E+002  0.1599676E+01  0.7818608E-02  0.3353716E+00
         11   -1    0    0    0    0  0.00000000000E+00  0.00000000000E+00  0.39999999674E+01  0.40000000000E+01  0.51100000000E-03 0. -1.
    9000002   -1    0    0    0    0 -0.00000000000E+00 -0.00000000000E+00  0.00000000000E+00  0.93800000000E+00  0.93800000000E+00 0.  1.
         11    1    1    2    0    0  0.45602037659E-01 -0.49249229776E-01  0.95673684483E+00  0.95908846508E+00  0.51100000000E-03 0. -1.
    9000002    1    1    2    0    0 -0.19309303292E+00  0.20442904850E+00  0.52664714317E-01  0.98065984285E+00  0.93800000000E+00 0.  1.
         22    1    1    2    0    0  0.14749099526E+00 -0.15517981873E+00  0.29905984082E+01  0.29982516921E+01  0.00000000000E+00 0. -1.
</event>
<event>
 5    1  0.1560836E+002  0.1585185E+01  0.7818608E-02  0.3369602E+00
         11   -1    0    0    0    0  0.00000000000E+00  0.00000000000E+00  0.39999999674E+01  0.40000000000E+01  0.51100000000E-03 0. -1.
    9000002   -1    0    0    0    0 -0.00000000000E+00 -0.00000000000E+00  0.00000000000E+00  0.93800000000E+00  0.93800000000E+00 0.  1.
         11    1    1    2    0    0 -0.23361096476E-01 -0.15297794987E-01  0.34643746536E-01  0.44499591629E-01  0.51100000000E-03 0. -1.
    9000002    1    1    2    0    0 -0.17136801872E+00  0.11684109635E+00  0.39461267248E-01  0.96146764441E+00  0.93800000000E+00 0.  1.
         22    1    1    2    0    0  0.19472911520E+00 -0.10154330136E+00  0.39258949536E+01  0.39320327640E+01  0.00000000000E+00 0. -1.
</event>
<event>
 5    1  0.1560836E+002  0.1599591E+01  0.7818608E-02  0.3353807E+00
         11   -1    0    0    0    0  0.00000000000E+00  0.00000000000E+00  0.39999999674E+01  0.40000000000E+01  0.51100000000E-03 0.  1.
    9000002   -1    0    0    0    0 -0.00000000000E+00 -0.00000000000E+00  0.00000000000E+00  0.93800000000E+00  0.93800000000E+00 0. -1.
         11    1    1    2    0    0  0.10262477110E-01  0.33644888541E-02  0.25824699551E+00  0.25847322885E+00  0.51100000000E-03 0.  1.
    9000002    1    1    2    0    0 -0.19026452116E+00 -0.12921295771E+00  0.35152080454E-01  0.96642446431E+00  0.93800000000E+00 0. -1.
         22    1    1    2    0    0  0.18000204405E+00  0.12584846886E+00  0.37066008914E+01  0.37131023068E+01  0.00000000000E+00 0.  1.
</event>
<event>
 5    1  0.1560836E+002  0.1599641E+01  0.7818608E-02  0.3353753E+00
         11   -1    0    0    0    0  0.00000000000E+00  0.00000000000E+00  0.39999999674E+01  0.40000000000E+01  0.51100000000E-03 0.  1.
    9000002   -1    0    0    0    0 -0.00000000000E+00 -0.00000000000E+00  0.00000000000E+00  0.93800000000E+00  0.93800000000E+00 0. -1.
         11    1    1    2    0    0 -0.19339493605E-01  0.90964413773E-02  0.17959121617E+00  0.18085913664E+00  0.51100000000E-03 0.  1.
    9000002    1    1    2    0    0  0.38844579762E+00 -0.13884509313E+00  0.11500003322E+00  0.10311338930E+01  0.93800000000E+00 0. -1.
         22    1    1    2    0    0 -0.36910630401E+00  0.12974865176E+00  0.37054087180E+01  0.37260069704E+01  0.00000000000E+00 0.  1.
</event>
<event>
 5    1  0.1560836E+002  0.1567581E+01  0.7818608E-02  0.3389319E+00
         11   -1    0    0    0    0  0.00000000000E+00  0.00000000000E+00  0.39999999674E+01  0.40000000000E+01  0.51100000000E-03 0. -1.
    9000002   -1    0    0    0    0 -0.00000000000E+00 -0.00000000000E+00  0.00000000000E+00  0.93800000000E+00  0.93800000000E+00 0. -1.
         11    1    1    2    0    0  0.25458592898E+00 -0.32080367403E+00  0.32024040121E+01  0.32284858231E+01  0.51100000000E-03 0. -1.
    9000002    1    1    2    0    0 -0.19949239165E+00  0.52801465171E+00  0.25208883807E+00  0.11233830464E+01  0.93800000000E+00 0. -1.
         22    1    1    2    0    0 -0.55093537330E-01 -0.20721097768E+00  0.54550711720E+00  0.58613113041E+00  0.00000000000E+00 0. -1.
</event>
<event>
 5    1  0.1560836E+002  0.1599672E+01  0.7818608E-02  0.3353720E+00
         11   -1    0    0    0    0  0.00000000000E+00  0.00000000000E+00  0.39999999674E+01  0.40000000000E+01  0.51100000000E-03 0. -1.
    9000002   -1    0    0    0    0 -0.00000000000E+00 -0.00000000000E+00  0.00000000000E+00  0.93800000000E+00  0.93800000000E+00 0. -1.
         11    1    1    2    0    0 -0.20675883392E-01 -0.53159916157E-01  0.34440124369E+00  0.34909303433E+00  0.51100000000E-03 0. -1.
    9000002    1    1    2    0    0  0.22355005468E+00  0.56140110611E+00  0.25500083094E+00  0.11445589774E+01  0.93800000000E+00 0. -1.
         22    1    1    2    0    0 -0.20287417128E+00 -0.50824118995E+00  0.34005978927E+01  0.34443479883E+01  0.00000000000E+00 0. -1.
</event>
<event>
 5    1  0.1560836E+002  0.1599676E+01  0.7818608E-02  0.3353715E+00
         11   -1    0    0    0    0  0.00000000000E+00  0.00000000000E+00  0.39999999674E+01  0.40000000000E+01  0.51100000000E-03 0. -1.
    9000002   -1    0    0    0    0 -0.00000000000E+00 -0.00000000000E+00  0.00000000000E+00  0.93800000000E+00  0.93800000000E+00 0. -1.
         11    1    1    2    0    0  0.40748934078E-01 -0.35571015534E-01  0.82090367188E+00  0.82268394442E+00  0.51100000000E-03 0. -1.
    9000002    1    1    2    0    0 -0.19896201851E+00  0.17278484796E+00  0.46178168513E-01  0.97540602404E+00  0.93800000000E+00 0. -1.
         22    1    1    2    0    0  0.15821308443E+00 -0.13721383242E+00  0.31329181270E+01  0.31399100315E+01  0.00000000000E+00 0. -1.
</event>
<event>
 5    1  0.1560836E+002  0.1596845E+01  0.7818608E-02  0.3356794E+00
         11   -1    0    0    0    0  0.00000000000E+00  0.00000000000E+00  0.39999999674E+01  0.40000000000E+01  0.51100000000E-03 0.  1.
    9000002   -1    0    0    0    0 -0.00000000000E+00 -0.00000000000E+00  0.00000000000E+00  0.93800000000E+00  0.93800000000E+00 0. -1.
         11    1    1    2    0    0  0.14996818055E-01 -0.55162225930E-01  0.11622414429E+01  0.11636465135E+01  0.51100000000E-03 0.  1.
    9000002    1    1    2    0    0  0.14757134039E+00  0.19174083088E+00  0.41024728812E-01  0.96957149046E+00  0.93800000000E+00 0. -1.
         22    1    1    2    0    0 -0.16256815845E+00 -0.13657860495E+00  0.27967337957E+01  0.28047819961E+01  0.00000000000E+00 0.  1.
</event>
<event>
 5    1  0.1560836E+002  0.1599645E+01  0.7818608E-02  0.3353749E+00
         11   -1    0    0    0    0  0.00000000000E+00  0.00000000000E+00  0.39999999674E+01  0.40000000000E+01  0.51100000000E-03 0.  1.
    9000002   -1    0    0    0    0 -0.00000000000E+00 -0.00000000000E+00  0.00000000000E+00  0.93800000000E+00  0.93800000000E+00 0. -1.
         11    1    1    2    0    0  0.17387702842E+00 -0.82947060564E-01  0.18477315813E+01  0.18577474785E+01  0.51100000000E-03 0.  1.
    9000002    1    1    2    0    0 -0.35272807970E+00  0.17919117886E+00  0.10554828670E+00  0.10234798570E+01  0.93800000000E+00 0. -1.
         22    1    1    2    0    0  0.17885105127E+00 -0.96244118291E-01  0.20467200993E+01  0.20567726646E+01  0.00000000000E+00 0.  1.
</event>
<event>
 5    1  0.1560836E+002  0.1599530E+01  0.7818608E-02  0.3353874E+00
         11   -1    0    0    0    0  0.00000000000E+00  0.00000000000E+00  0.39999999674E+01  0.40000000000E+01  0.51100000000E-03 0. -1.
    9000002   -1    0    0    0    0 -0.00000000000E+00 -0.00000000000E+00  0.00000000000E+00  0.93800000000E+00  0.93800000000E+00 0.  1.
         11    1    1    2    0    0 -0.15845611798E-02 -0.16235321069E-01  0.40149687908E+00  0.40182844787E+00  0.51100000000E-03 0. -1.
    9000002    1    1    2    0    0 -0.25331551392E-01  0.23699944184E+00  0.37817932272E-01  0.96854768542E+00  0.93800000000E+00 0.  1.
         22    1    1    2    0    0  0.26916112572E-01 -0.22076412077E+00  0.35606851560E+01  0.35676238667E+01  0.00000000000E+00 0. -1.
</event>
<event>
 5    1  0.1560836E+002  0.1599630E+01  0.7818608E-02  0.3353765E+00
         11   -1    0    0    0    0  0.00000000000E+00  0.00000000000E+00  0.39999999674E+01  0.40000000000E+01  0.51100000000E-03 0. -1.
    9000002   -1    0    0    0    0 -0.00000000000E+00 -0.00000000000E+00  0.00000000000E+00  0.93800000000E+00  0.93800000000E+00 0. -1.
         11    1    1    2    0    0 -0.84118522565E-02 -0.58516982721E-01  0.93715226571E+00  0.93901524310E+00  0.51100000000E-03 0. -1.
    9000002    1    1    2    0    0  0.49714562769E-01  0.27242679823E+00  0.51090351629E-01  0.97935801532E+00  0.93800000000E+00 0. -1.
         22    1    1    2    0    0 -0.41302710513E-01 -0.21390981550E+00  0.30117573500E+01  0.30196267416E+01  0.00000000000E+00 0. -1.
</event>
<event>
 5    1  0.1560836E+002  0.1591774E+01  0.7818608E-02  0.3362340E+00
         11   -1    0    0    0    0  0.00000000000E+00  0.00000000000E+00  0.39999999674E+01  0.40000000000E+01  0.51100000000E-03 0. -1.
    9000002   -1    0    0    0    0 -0.00000000000E+00 -0.00000000000E+00  0.00000000000E+00  0.93800000000E+00  0.93800000000E+00 0. -1.
         11    1    1    2    0    0 -0.13656490244E+00 -0.89502185672E-01  0.69592104492E+00  0.71481954065E+00  0.51100000000E-03 0. -1.
    9000002    1    1    2    0    0  0.32669252327E+00  0.32541312568E+00  0.15156854081E+00  0.10561433282E+01  0.93800000000E+00 0. -1.
         22    1    1    2    0    0 -0.19012762083E+00 -0.23591094001E+00  0.31525103816E+01  0.31670371312E+01  0.00000000000E+00 0. -1.
</event>
<event>
 5    1  0.1560836E+002  0.1598999E+01  0.7818608E-02  0.3354451E+00
         11   -1    0    0    0    0  0.00000000000E+00  0.00000000000E+00  0.39999999674E+01  0.40000000000E+01  0.51100000000E-03 0.  1.
    9000002   -1    0    0    0    0 -0.00000000000E+00 -0.00000000000E+00  0.00000000000E+00  0.93800000000E+00  0.93800000000E+00 0.  1.
         11    1    1    2    0    0 -0.43711639825E-01 -0.18571023481E-02  0.80079550058E+00  0.80198993208E+00  0.51100000000E-03 0.  1.
    9000002    1    1    2    0    0  0.24107477191E+00 -0.11258950880E+00  0.47609439507E-01  0.97616807050E+00  0.93800000000E+00 0.  1.
         22    1    1    2    0    0 -0.19736313208E+00  0.11444661115E+00  0.31515950273E+01  0.31598419974E+01  0.00000000000E+00 0.  1.
</event>
<event>
 5    1  0.1560836E+002  0.1599673E+01  0.7818608E-02  0.3353719E+00
         11   -1    0    0    0    0  0.00000000000E+00  0.00000000000E+00  0.39999999674E+01  0.40000000000E+01  0.51100000000E-03 0. -1.
    9000002   -1    0    0    0    0 -0.00000000000E+00 -0.00000000000E+00  0.00000000000E+00  0.93800000000E+00  0.93800000000E+00 0. -1.
         11    1    1    2    0    0 -0.18258467942E+00 -0.88521418679E+00  0.23302188237E+01  0.24993721910E+01  0.51100000000E-03 0. -1.
    9000002    1    1    2    0    0  0.22535262490E+00  0.10985587459E+01  0.11026874629E+01  0.18312232973E+01  0.93800000000E+00 0. -1.
         22    1    1    2    0    0 -0.42767945481E-01 -0.21334455914E+00  0.56709368075E+00  0.60740451169E+00  0.00000000000E+00 0.  1.
</event>
<event>
 5    1  0.1560836E+002  0.1589458E+01  0.7818608E-02  0.3364886E+00
         11   -1    0    0    0    0  0.00000000000E+00  0.00000000000E+00  0.39999999674E+01  0.40000000000E+01  0.51100000000E-03 0. -1.
    9000002   -1    0    0    0    0 -0.00000000000E+00 -0.00000000000E+00  0.00000000000E+00  0.93800000000E+00  0.93800000000E+00 0.  1.
         11    1    1    2    0    0  0.10283943368E+00 -0.36550420055E-01  0.41293405839E+00  0.42711436411E+00  0.51100000000E-03 0. -1.
    9000002    1    1    2    0    0 -0.41160431753E+00 -0.10591022456E+00  0.13095754426E+00  0.10380890946E+01  0.93800000000E+00 0.  1.
         22    1    1    2    0    0  0.30876488385E+00  0.14246064462E+00  0.34561083647E+01  0.34727965413E+01  0.00000000000E+00 0. -1.
</event>
<event>
 5    1  0.1560836E+002  0.1599657E+01  0.7818608E-02  0.3353736E+00
         11   -1    0    0    0    0  0.00000000000E+00  0.00000000000E+00  0.39999999674E+01  0.40000000000E+01  0.51100000000E-03 0.  1.
    9000002   -1    0    0    0    0 -0.00000000000E+00 -0.00000000000E+00  0.00000000000E+00  0.93800000000E+00  0.93800000000E+00 0. -1.
         11    1    1    2    0    0 -0.44402572829E-01 -0.19552823638E+00  0.18517961375E+01  0.18626196809E+01  0.51100000000E-03 0.  1.
    9000002    1    1    2    0    0  0.86192874553E-01  0.40126197038E+00  0.11378780794E+00  0.10301611746E+01  0.93800000000E+00 0. -1.
         22    1    1    2    0    0 -0.41790301724E-01 -0.20573373400E+00  0.20344160219E+01  0.20452191444E+01  0.00000000000E+00 0.  1.
</event>
<event>
 5    1  0.1560836E+002  0.1592872E+01  0.7818608E-02  0.3361136E+00
         11   -1    0    0    0    0  0.00000000000E+00  0.00000000000E+00  0.39999999674E+01  0.40000000000E+01  0.51100000000E-03 0. -1.
    9000002   -1    0    0    0    0 -0.00000000000E+00 -0.00000000000E+00  0.00000000000E+00  0.93800000000E+00  0.93800000000E+00 0.  1.
         11    1    1    2    0    0 -0.13125053701E-01 -0.37338592801E-01  0.61783724515E+00  0.61910383633E+00  0.51100000000E-03 0. -1.
    9000002    1    1    2    0    0 -0.49183254770E-01 -0.20275552201E+00  0.33965110313E-01  0.96152297059E+00  0.93800000000E+00 0.  1.
         22    1    1    2    0    0  0.62308308471E-01  0.24009411481E+00  0.33481976119E+01  0.33573731931E+01  0.00000000000E+00 0. -1.
</event>
<event>
 5    1  0.1560836E+002  0.1579986E+01  0.7818608E-02  0.3375377E+00
         11   -1    0    0    0    0  0.00000000000E+00  0.00000000000E+00  0.39999999674E+01  0.40000000000E+01  0.51100000000E-03 0.  1.
    9000002   -1    0    0    0    0 -0.00000000000E+00 -0.00000000000E+00  0.00000000000E+00  0.93800000000E+00  0.93800000000E+00 0.  1.
         11    1    1    2    0    0  0.62040870938E-01 -0.18948836106E+00  0.26484608510E+01  0.26559555812E+01  0.51100000000E-03 0.  1.
    9000002    1    1    2    0    0  0.14086579189E+00  0.30350809063E+00  0.90826052316E-01  0.10000268517E+01  0.93800000000E+00 0.  1.
         22    1    1    2    0    0 -0.20290666283E+00 -0.11401972957E+00  0.12607130640E+01  0.12820175671E+01  0.00000000000E+00 0.  1.
</event>
<event>
 5    1  0.1560836E+002  0.1599674E+01  0.7818608E-02  0.3353718E+00
         11   -1    0    0    0    0  0.00000000000E+00  0.00000000000E+00  0.39999999674E+01  0.40000000000E+01  0.51100000000E-03 0. -1.
    9000002   -1    0    0    0    0 -0.00000000000E+00 -0.00000000000E+00  0.00000000000E+00  0.93800000000E+00  0.93800000000E+00 0. -1.
         11    1    1    2    0    0  0.10084726365E+01 -0.81922619408E-01  0.19943946919E+01  0.22363673273E+01  0.51100000000E-03 0. -1.
    9000002    1    1    2    0    0 -0.12342438502E+01  0.10229324284E+00  0.15598341604E+01  0.22015331924E+01  0.93800000000E+00 0. -1.
         22    1    1    2    0    0  0.22577121366E+00 -0.20370623435E-01  0.44577111503E+00  0.50009948031E+00  0.00000000000E+00 0. -1.
</event>
<event>
 5    1  0.1560836E+002  0.1599672E+01  0.7818608E-02  0.3353720E+00
         11   -1    0    0    0    0  0.00000000000E+00  0.00000000000E+00  0.39999999674E+01  0.40000000000E+01  0.51100000000E-03 0. -1.
    9000002   -1    0    0    0    0 -0.00000000000E+00 -0.00000000000E+00  0.00000000000E+00  0.93800000000E+00  0.93800000000E+00 0.  1.
         11    1    1    2    0    0  0.20940786109E+00 -0.12812487185E-01  0.19049397654E+01  0.19164580828E+01  0.51100000000E-03 0. -1.
    9000002    1    1    2    0    0 -0.42762324099E+00  0.31492839365E-01  0.12449566290E+00  0.10388438791E+01  0.93800000000E+00 0.  1.
         22    1    1    2    0    0  0.21821537989E+00 -0.18680352180E-01  0.19705645390E+01  0.19826980381E+01  0.00000000000E+00 0. -1.
</event>
<event>
 5    1  0.1560836E+002  0.1599497E+01  0.7818608E-02  0.3353910E+00
         11   -1    0    0    0    0  0.00000000000E+00  0.00000000000E+00  0.39999999674E+01  0.40000000000E+01  0.51100000000E-03 0. -1.
    9000002   -1    0    0    0    0 -0.00000000000E+00 -0.00000000000E+00  0.00000000000E+00  0.93800000000E+00  0.93800000000E+00 0. -1.
         11    1    1    2    0    0 -0.58778608348E-02  0.42813960813E-01  0.87684945546E+00  0.87791389848E+00  0.51100000000E-03 0. -1.
    9000002    1    1    2    0    0 -0.56657766921E-02 -0.24477189559E+00  0.39943158037E-01  0.97024988419E+00  0.93800000000E+00 0. -1.
         22    1    1    2    0    0  0.11543637527E-01  0.20195793478E+00  0.30832073539E+01  0.30898362173E+01  0.00000000000E+00 0. -1.
</event>
<event>
 5    1  0.1560836E+002  0.1599187E+01  0.7818608E-02  0.3354246E+00
         11   -1    0    0    0    0  0.00000000000E+00  0.00000000000E+00  0.39999999674E+01  0.40000000000E+01  0.51100000000E-03 0. -1.
    9000002   -1    0    0    0    0 -0.00000000000E+00 -0.00000000000E+00  0.00000000000E+00  0.93800000000E+00  0.93800000000E+00 0. -1.
         11    1    1    2    0    0 -0.11746020524E-01 -0.57007099220E-01  0.57402025681E+00  0.57696385910E+00  0.51100000000E-03 0. -1.
    9000002    1    1    2    0    0  0.20666665177E+00  0.39018546394E+00  0.13266799005E+00  0.10451796959E+01  0.93800000000E+00 0. -1.
         22    1    1    2    0    0 -0.19492063125E+00 -0.33317836472E+00  0.32933117205E+01  0.33158564450E+01  0.00000000000E+00 0. -1.
</event>
<event>
 5    1  0.1560836E+002  0.1599667E+01  0.7818608E-02  0.3353724E+00
         11   -1    0    0    0    0  0.00000000000E+00  0.00000000000E+00  0.39999999674E+01  0.40000000000E+01  0.51100000000E-03 0.  1.
    9000002   -1    0    0    0    0 -0.00000000000E+00 -0.00000000000E+00  0.00000000000E+00  0.93800000000E+00  0.93800000000E+00 0. -1.
         11    1    1    2    0    0  0.88969595997E-02 -0.53972699015E-02  0.16124332424E+00  0.16157956909E+00  0.51100000000E-03 0.  1.
    9000002    1    1    2    0    0 -0.24975532723E+00  0.11982026198E+00  0.51093062134E-01  0.97938200905E+00  0.93800000000E+00 0. -1.
         22    1    1    2    0    0  0.24085836763E+00 -0.11442299207E+00  0.37876635810E+01  0.37970384219E+01  0.00000000000E+00 0.  1.
</event>
<event>
 5    1  0.1560836E+002  0.1599486E+01  0.7818608E-02  0.3353921E+00
         11   -1    0    0    0    0  0.00000000000E+00  0.00000000000E+00  0.39999999674E+01  0.40000000000E+01  0.51100000000E-03 0.  1.
    9000002   -1    0    0    0    0 -0.00000000000E+00 -0.00000000000E+00  0.00000000000E+00  0.93800000000E+00  0.93800000000E+00 0.  1.
         11    1    1    2    0    0  0.70387848323E+00 -0.65786061284E-01  0.23141238362E+01  0.24196987655E+01  0.51100000000E-03 0.  1.
    9000002    1    1    2    0    0 -0.97143788937E+00  0.10797826534E+00  0.75936249673E+00  0.15530055635E+01  0.93800000000E+00 0.  1.
         22    1    1    2    0    0  0.26755940614E+00 -0.42192204055E-01  0.92651363440E+00  0.96529567109E+00  0.00000000000E+00 0.  1.
</event>
<event>
 5    1  0.1560836E+002  0.1599676E+01  0.7818608E-02  0.3353715E+00
         11   -1    0    0    0    0  0.00000000000E+00  0.00000000000E+00  0.39999999674E+01  0.40000000000E+01  0.51100000000E-03 0.  1.
    9000002   -1    0    0    0    0 -0.00000000000E+00 -0.00000000000E+00  0.00000000000E+00  0.93800000000E+00  0.93800000000E+00 0.  1.
         11    1    1    2    0    0 -0.32001439651E-01 -0.57067750396E-01  0.88116219170E+00  0.88358807680E+00  0.51100000000E-03 0.  1.
    9000002    1    1    2    0    0  0.14642248954E+00  0.25827254027E+00  0.58786002520E-01  0.98561861011E+00  0.93800000000E+00 0.  1.
         22    1    1    2    0    0 -0.11442104989E+00 -0.20120478988E+00  0.30600517731E+01  0.30687933131E+01  0.00000000000E+00 0.  1.
</event>
<event>
 5    1  0.1560836E+002  0.1553874E+01  0.7818608E-02  0.3405001E+00
         11   -1    0    0    0    0  0.00000000000E+00  0.00000000000E+00  0.39999999674E+01  0.40000000000E+01  0.51100000000E-03 0. -1.
    9000002   -1    0    0    0    0 -0.00000000000E+00 -0.00000000000E+00  0.00000000000E+00  0.93800000000E+00  0.93800000000E+00 0.  1.
         11    1    1    2    0    0 -0.19508232212E+00  0.15570775239E-01  0.17816665530E+01  0.17923826402E+01  0.51100000000E-03 0. -1.
    9000002    1    1    2    0    0 -0.12020998997E+00  0.97650543746E-01  0.50487510022E-01  0.95203942095E+00  0.93800000000E+00 0.  1.
         22    1    1    2    0    0  0.31529231209E+00 -0.11322131899E+00  0.21678459043E+01  0.21935779389E+01  0.00000000000E+00 0. -1.
</event>
<event>
 5    1  0.1560836E+002  0.1599182E+01  0.7818608E-02  0.3354251E+00
         11   -1    0    0    0    0  0.00000000000E+00  0.00000000000E+00  0.39999999674E+01  0.40000000000E+01  0.51100000000E-03 0.  1.
    9000002   -1    0    0    0    0 -0.00000000000E+00 -0.00000000000E+00  0.00000000000E+00  0.93800000000E+00  0.93800000000E+00 0.  1.
         11    1    1    2    0    0 -0.44584603151E-01  0.10110030040E-02  0.40844824342E+00  0.41087593948E+00  0.51100000000E-03 0.  1.
    9000002    1    1    2    0    0  0.33757619918E+00  0.11906101860E+00  0.86391335123E-01  0.10076907657E+01  0.93800000000E+00 0.  1.
         22    1    1    2    0    0 -0.29299159603E+00 -0.12007202161E+00  0.35051603888E+01  0.35194332949E+01  0.00000000000E+00 0.  1.
</event>
<event>
 5    1  0.1560836E+002  0.1599552E+01  0.7818608E-02  0.3353849E+00
         11   -1    0    0    0    0  0.00000000000E+00  0.00000000000E+00  0.39999999674E+01  0.40000000000E+01  0.51100000000E-03 0. -1.
    9000002   -1    0    0    0    0 -0.00000000000E+00 -0.00000000000E+00  0.00000000000E+00  0.93800000000E+00  0.93800000000E+00 0. -1.
         11    1    1    2    0    0  0.34578196932E+00 -0.92384755116E-01  0.23893907536E+01  0.24160481261E+01  0.51100000000E-03 0. -1.
    9000002    1    1    2    0    0 -0.55451362578E+00  0.12718206800E+00  0.22449529065E+00  0.11197780026E+01  0.93800000000E+00 0. -1.
         22    1    1    2    0    0  0.20873165646E+00 -0.34797312883E-01  0.13861139231E+01  0.14021738712E+01  0.00000000000E+00 0. -1.
</event>
<event>
 5    1  0.1560836E+002  0.1598815E+01  0.7818608E-02  0.3354650E+00
         11   -1    0    0    0    0  0.00000000000E+00  0.00000000000E+00  0.39999999674E+01  0.40000000000E+01  0.51100000000E-03 0.  1.
    9000002   -1    0    0    0    0 -0.00000000000E+00 -0.00000000000E+00  0.00000000000E+00  0.93800000000E+00  0.93800000000E+00 0. -1.
         11    1    1    2    0    0  0.57337912083E-01 -0.23934990511E-01  0.58839296957E+00  0.59166465814E+00  0.51100000000E-03 0.  1.
    9000002    1    1    2    0    0 -0.21610692314E+00  0.17430352890E+00  0.51988177380E-01  0.97960741780E+00  0.93800000000E+00 0. -1.
         22    1    1    2    0    0  0.15876901105E+00 -0.15036853839E+00  0.33596188204E+01  0.33667279241E+01  0.00000000000E+00 0.  1.
</event>
<event>
 5    1  0.1560836E+002  0.1564276E+01  0.7818608E-02  0.3393074E+00
         11   -1    0    0    0    0  0.00000000000E+00  0.00000000000E+00  0.39999999674E+01  0.40000000000E+01  0.51100000000E-03 0. -1.
    9000002   -1    0    0    0    0 -0.00000000000E+00 -0.00000000000E+00  0.00000000000E+00  0.93800000000E+00  0.93800000000E+00 0. -1.
         11    1    1    2    0    0  0.10714037319E+00  0.25659160852E-02  0.70239161418E+00  0.71052085422E+00  0.51100000000E-03 0. -1.
    9000002    1    1    2    0    0  0.36869440367E+00 -0.83612219061E-01  0.12575633189E+00  0.10191100144E+01  0.93800000000E+00 0. -1.
         22    1    1    2    0    0 -0.47583477686E+00  0.81046302976E-01  0.31718520213E+01  0.32083691314E+01  0.00000000000E+00 0. -1.
</event>
<event>
 5    1  0.1560836E+002  0.1599674E+01  0.7818608E-02  0.3353717E+00
         11   -1    0    0    0    0  0.00000000000E+00  0.00000000000E+00  0.39999999674E+01  0.40000000000E+01  0.51100000000E-03 0.  1.
    9000002   -1    0    0    0    0 -0.00000000000E+00 -0.00000000000E+00  0.00000000000E+00  0.93800000000E+00  0.93800000000E+00 0. -1.
         11    1    1    2    0    0 -0.13636736883E+00 -0.60380563398E-01  0.13566971599E+01  0.13648697068E+01  0.51100000000E-03 0.  1.
    9000002    1    1    2    0    0  0.39142738660E+00  0.17794849635E+00  0.12521056771E+00  0.10394242409E+01  0.93800000000E+00 0. -1.
         22    1    1    2    0    0 -0.25506001777E+00 -0.11756793295E+00  0.25180922397E+01  0.25337060523E+01  0.00000000000E+00 0.  1.
</event>
<event>
 5    1  0.1560836E+002  0.1597522E+01  0.7818608E-02  0.3356057E+00
         11   -1    0    0    0    0  0.00000000000E+00  0.00000000000E+00  0.39999999674E+01  0.40000000000E+01  0.51100000000E-03 0. -1.
    9000002   -1    0    0    0    0 -0.00000000000E+00 -0.00000000000E+00  0.00000000000E+00  0.93800000000E+00  0.93800000000E+00 0. -1.
         11    1    1    2    0    0 -0.11302474662E-01  0.10183728906E+00  0.91662346799E+00  0.92233259867E+00  0.51100000000E-03 0. -1.
    9000002    1    1    2    0    0  0.17826769676E+00 -0.28058177872E+00  0.75674475529E-01  0.99803613787E+00  0.93800000000E+00 0. -1.
         22    1    1    2    0    0 -0.16696522209E+00  0.17874448966E+00  0.30077020238E+01  0.30176312635E+01  0.00000000000E+00 0. -1.
</event>
<event>
 5    1  0.1560836E+002  0.1598411E+01  0.7818608E-02  0.3355090E+00
         11   -1    0    0    0    0  0.00000000000E+00  0.00000000000E+00  0.39999999674E+01  0.40000000000E+01  0.51100000000E-03 0. -1.
    9000002   -1    0    0    0    0 -0.00000000000E+00 -0.00000000000E+00  0.00000000000E+00  0.93800000000E+00  0.93800000000E+00 0. -1.
         11    1    1    2    0    0 -0.99802303760E-03  0.16724722642E-01  0.82009656398E-01  0.83705180610E-01  0.51100000000E-03 0. -1.
    9000002    1    1    2    0    0  0.31328611467E+00 -0.27050870692E+00  0.11683641727E+00  0.10319001398E+01  0.93800000000E+00 0. -1.
         22    1    1    2    0    0 -0.31228809164E+00  0.25378398428E+00  0.38011538937E+01  0.38223946796E+01  0.00000000000E+00 0. -1.
</event>
<event>
 5    1  0.1560836E+002  0.1599185E+01  0.7818608E-02  0.3354248E+00
         11   -1    0    0    0    0  0.00000000000E+00  0.00000000000E+00  0.39999999674E+01  0.40000000000E+01  0.51100000000E-03 0.  1.
    9000002   -1    0    0    0    0 -0.00000000000E+00 -0.00000000000E+00  0.00000000000E+00  0.93800000000E+00  0.93800000000E+00 0. -1.
         11    1    1    2    0    0  0.46449888178E-02  0.31033306383E-02  0.21045416192E+00  0.21052891007E+00  0.51100000000E-03 0.  1.
    9000002    1    1    2    0    0 -0.30762419798E+00 -0.98204834996E-01  0.70108953689E-01  0.99450294227E+00  0.93800000000E+00 0. -1.
         22    1    1    2    0    0  0.30297920916E+00  0.95101504358E-01  0.37194368517E+01  0.37329681477E+01  0.00000000000E+00 0.  1.
</event>
<event>
 5    1  0.1560836E+002  0.1598127E+01  0.7818608E-02  0.3355399E+00
         11   -1    0    0    0    0  0.00000000000E+00  0.00000000000E+00  0.39999999674E+01  0.40000000000E+01  0.51100000000E-03 0. -1.
    9000002   -1    0    0    0    0 -0.00000000000E+00 -0.00000000000E+00  0.00000000000E+00  0.93800000000E+00  0.93800000000E+00 0. -1.
         11    1    1    2    0    0  0.20239069179E+00 -0.23902108014E+00  0.24199467143E+01  0.24401302076E+01  0.51100000000E-03 0. -1.
    9000002    1    1    2    0    0 -0.29887372252E+00  0.44477265223E+00  0.19925551229E+00  0.10984966879E+01  0.93800000000E+00 0. -1.
         22    1    1    2    0    0  0.96483030726E-01 -0.20575157209E+00  0.13807977408E+01  0.13993731045E+01  0.00000000000E+00 0. -1.
</event>
<event>
 5    1  0.1560836E+002  0.1599677E+01  0.7818608E-02  0.3353714E+00
         11   -1    0    0    0    0  0.00000000000E+00  0.00000000000E+00  0.39999999674E+01  0.40000000000E+01  0.51100000000E-03 0.  1.
    9000002   -1    0    0    0    0 -0.00000000000E+00 -0.00000000000E+00  0.00000000000E+00  0.93800000000E+00  0.93800000000E+00 0.  1.
         11    1    1    2    0    0 -0.39546715255E-01  0.26985173412E+00  0.19962228636E+01  0.20147679478E+01  0.51100000000E-03 0.  1.
    9000002    1    1    2    0    0  0.75678687461E-01 -0.51610006652E+00  0.18695447218E+00  0.10894413784E+01  0.93800000000E+00 0.  1.
         22    1    1    2    0    0 -0.36131972206E-01  0.24624833240E+00  0.18168226316E+01  0.18337906738E+01  0.00000000000E+00 0.  1.
</event>
<event>
 5    1  0.1560836E+002  0.1598325E+01  0.7818608E-02  0.3355184E+00
         11   -1    0    0    0    0  0.00000000000E+00  0.00000000000E+00  0.39999999674E+01  0.40000000000E+01  0.51100000000E-03 0.  1.
    9000002   -1    0    0    0    0 -0.00000000000E+00 -0.00000000000E+00  0.00000000000E+00  0.93800000000E+00  0.93800000000E+00 0.  1.
         11    1    1    2    0    0  0.54652214237E-02  0.28565247943E-03  0.62094877502E+00  0.62097310132E+00  0.51100000000E-03 0.  1.
    9000002    1    1    2    0    0 -0.19480158962E+00  0.12712449945E+00  0.36924123014E-01  0.96711720517E+00  0.93800000000E+00 0.  1.
         22    1    1    2    0    0  0.18933636820E+00 -0.12741015193E+00  0.33421270693E+01  0.33499096935E+01  0.00000000000E+00 0.  1.
</event>
<event>
 5    1  0.1560836E+002  0.1599677E+01  0.7818608E-02  0.3353714E+00
         11   -1    0    0    0    0  0.00000000000E+00  0.00000000000E+00  0.39999999674E+01  0.40000000000E+01  0.51100000000E-03 0. -1.
    9000002   -1    0    0    0    0 -0.00000000000E+00 -0.00000000000E+00  0.00000000000E+00  0.93800000000E+00  0.93800000000E+00 0. -1.
         11    1    1    2    0    0 -0.18799938521E+00  0.39561557972E+00  0.96981283037E+00  0.10641393907E+01  0.51100000000E-03 0. -1.
    9000002    1    1    2    0    0  0.51161368758E+00 -0.10800957884E+01  0.13558779097E+01  0.20363212869E+01  0.93800000000E+00 0. -1.
         22    1    1    2    0    0 -0.32361430237E+00  0.68448020869E+00  0.16743092273E+01  0.18375393224E+01  0.00000000000E+00 0. -1.
</event>
<event>
 5    1  0.1560836E+002  0.1599676E+01  0.7818608E-02  0.3353716E+00
         11   -1    0    0    0    0  0.00000000000E+00  0.00000000000E+00  0.39999999674E+01  0.40000000000E+01  0.51100000000E-03 0.  1.
    9000002   -1    0    0    0    0 -0.00000000000E+00 -0.00000000000E+00  0.00000000000E+00  0.93800000000E+00  0.93800000000E+00 0. -1.
         11    1    1    2    0    0 -0.61870140126E-01  0.41592975243E-01  0.97304190179E+00  0.97589379216E+00  0.51100000000E-03 0.  1.
    9000002    1    1    2    0    0  0.25268138701E+00 -0.16397167811E+00  0.60538166425E-01  0.98703772175E+00  0.93800000000E+00 0. -1.
         22    1    1    2    0    0 -0.19081124688E+00  0.12237870286E+00  0.29664198991E+01  0.29750684861E+01  0.00000000000E+00 0.  1.
</event>
<event>
 5    1  0.1560836E+002  0.1588123E+01  0.7818608E-02  0.3366356E+00
         11   -1    0    0    0    0  0.00000000000E+00  0.00000000000E+00  0.39999999674E+01  0.40000000000E+01  0.51100000000E-03 0. -1.
    9000002   -1    0    0    0    0 -0.00000000000E+00 -0.00000000000E+00  0.00000000000E+00  0.93800000000E+00  0.93800000000E+00 0. -1.
         11    1    1    2    0    0  0.12845377203E-01 -0.92829776457E-01  0.18638889442E+01  0.18662434537E+01  0.51100000000E-03 0. -1.
    9000002    1    1    2    0    0  0.16882812575E+00  0.48475182098E-02  0.27474793994E-01  0.95348062318E+00  0.93800000000E+00 0. -1.
         22    1    1    2    0    0 -0.18167350295E+00  0.87982258247E-01  0.21086362292E+01  0.21182759231E+01  0.00000000000E+00 0.  1.
</event>
<event>
 5    1  0.1560836E+002  0.1594487E+01  0.7818608E-02  0.3359369E+00
         11   -1    0    0    0    0  0.00000000000E+00  0.00000000000E+00  0.39999999674E+01  0.40000000000E+01  0.51100000000E-03 0. -1.
    9000002   -1    0    0    0    0 -0.00000000000E+00 -0.00000000000E+00  0.00000000000E+00  0.93800000000E+00  0.93800000000E+00 0. -1.
         11    1    1    2    0    0  0.72761865099E-01 -0.40240284929E-01  0.46723125093E+00  0.47457230483E+00  0.51100000000E-03 0. -1.
    9000002    1    1    2    0    0 -0.14185135985E+00  0.27786698073E+00  0.69104659033E-01  0.99093456957E+00  0.93800000000E+00 0. -1.
         22    1    1    2    0    0  0.69089494750E-01 -0.23762669580E+00  0.34636640574E+01  0.34724931256E+01  0.00000000000E+00 0. -1.
</event>
<event>
 5    1  0.1560836E+002  0.1599521E+01  0.7818608E-02  0.3353884E+00
         11   -1    0    0    0    0  0.00000000000E+00  0.00000000000E+00  0.39999999674E+01  0.40000000000E+01  0.51100000000E-03 0.  1.
    9000002   -1    0    0    0    0 -0.00000000000E+00 -0.00000000000E+00  0.00000000000E+00  0.93800000000E+00  0.93800000000E+00 0. -1.
         11    1    1    2    0    0 -0.88527298527E-02  0.58718979836E-02  0.26029373464E+00  0.26051091997E+00  0.51100000000E-03 0.  1.
    9000002    1    1    2    0    0  0.94689833224E-01 -0.19552694226E+00  0.31397234716E-01  0.96334144311E+00  0.93800000000E+00 0. -1.
         22    1    1    2    0    0 -0.85837103371E-01  0.18965504428E+00  0.37083089980E+01  0.37141476369E+01  0.00000000000E+00 0.  1.
</event>
<event>
 5    1  0.1560836E+002  0.1599238E+01  0.7818608E-02  0.3354191E+00
         11   -1    0    0    0    0  0.00000000000E+00  0.00000000000E+00  0.39999999674E+01  0.40000000000E+01  0.51100000000E-03 0.  1.
    9000002   -1    0    0    0    0 -0.00000000000E+00 -0.00000000000E+00  0.00000000000E+00  0.93800000000E+00  0.93800000000E+00 0.  1.
         11    1    1    2    0    0  0.92244392779E-01  0.58528774531E-01  0.89099218581E+00  0.89766473794E+00  0.51100000000E-03 0.  1.
    9000002    1    1    2    0    0 -0.34076360952E+00 -0.18726087028E+00  0.10219717334E+00  0.10205266941E+01  0.93800000000E+00 0.  1.
         22    1    1    2    0    0  0.24851921674E+00  0.12873209575E+00  0.30068106082E+01  0.30198085680E+01  0.00000000000E+00 0.  1.
</event>
<event>
 5    1  0.1560836E+002  0.1519508E+01  0.7818608E-02  0.3445645E+00
         11   -1    0    0    0    0  0.00000000000E+00  0.00000000000E+00  0.39999999674E+01  0.40000000000E+01  0.51100000000E-03 0.  1.
    9000002   -1    0    0    0    0 -0.00000000000E+00 -0.00000000000E+00  0.00000000000E+00  0.93800000000E+00  0.93800000000E+00 0.  1.
         11    1    1    2    0    0  0.18901855397E+00 -0.12888221840E+00  0.74060542028E+00  0.77513565886E+00  0.51100000000E-03 0.  1.
    9000002    1    1    2    0    0  0.15083433005E+00 -0.14509202062E+00  0.91921036180E-01  0.96545127607E+00  0.93800000000E+00 0.  1.
         22    1    1    2    0    0 -0.33985288403E+00  0.27397423903E+00  0.31674735109E+01  0.31974130651E+01  0.00000000000E+00 0.  1.
</event>
<event>
 5    1  0.1560836E+002  0.1598950E+01  0.7818608E-02  0.3354504E+00
         11   -1    0    0    0    0  0.00000000000E+00  0.00000000000E+00  0.39999999674E+01  0.40000000000E+01  0.51100000000E-03 0.  1.
    9000002   -1    0    0    0    0 -0.00000000000E+00 -0.00000000000E+00  0.00000000000E+00  0.93800000000E+00  0.93800000000E+00 0.  1.
         11    1    1    2    0    0  0.15777973127E+00 -0.38482241051E-01  0.17602474095E+01  0.17677235447E+01  0.51100000000E-03 0.  1.
    9000002    1    1    2    0    0 -0.40092788941E+00  0.13252904224E+00  0.12124183967E+00  0.10357850661E+01  0.93800000000E+00 0.  1.
         22    1    1    2    0    0  0.24314815814E+00 -0.94046801188E-01  0.21185107182E+01  0.21344913892E+01  0.00000000000E+00 0.  1.
</event>
<event>
 5    1  0.1560836E+002  0.1599420E+01  0.7818608E-02  0.3353993E+00
         11   -1    0    0    0    0  0.00000000000E+00  0.00000000000E+00  0.39999999674E+01  0.40000000000E+01  0.51100000000E-03 0. -1.
    9000002   -1    0    0    0    0 -0.00000000000E+00 -0.00000000000E+00  0.00000000000E+00  0.93800000000E+00  0.93800000000E+00 0. -1.
         11    1    1    2    0    0  0.10476509109E-02  0.22763430630E-02  0.63182648300E-01  0.63234385246E-01  0.51100000000E-03 0. -1.
    9000002    1    1    2    0    0 -0.20287533026E+00  0.12591329726E+00  0.38036818470E-01  0.96866059980E+00  0.93800000000E+00 0. -1.
         22    1    1    2    0    0  0.20182767935E+00 -0.12818964033E+00  0.38987805006E+01  0.39061050149E+01  0.00000000000E+00 0. -1.
</event>
<event>
 5    1  0.1560836E+002  0.1599247E+01  0.7818608E-02  0.3354182E+00
         11   -1    0    0    0    0  0.00000000000E+00  0.00000000000E+00  0.39999999674E+01  0.40000000000E+01  0.51100000000E-03 0. -1.
    9000002   -1    0    0    0    0 -0.00000000000E+00 -0.00000000000E+00  0.00000000000E+00  0.93800000000E+00  0.93800000000E+00 0. -1.
         11    1    1    2    0    0  0.74158279705E-01  0.28579890042E+00  0.21246188952E+01  0.21450375692E+01  0.51100000000E-03 0. -1.
    9000002    1    1    2    0    0 -0.15564272116E+00 -0.47583836633E+00  0.17198846558E+00  0.10770658475E+01  0.93800000000E+00 0. -1.
         22    1    1    2    0    0  0.81484441452E-01  0.19003946591E+00  0.17033926065E+01  0.17158965834E+01  0.00000000000E+00 0. -1.
</event>
<event>
 5    1  0.1560836E+002  0.1599657E+01  0.7818608E-02  0.3353736E+00
         11   -1    0    0    0    0  0.00000000000E+00  0.00000000000E+00  0.39999999674E+01  0.40000000000E+01  0.51100000000E-03 0. -1.
    9000002   -1    0    0    0    0 -0.00000000000E+00 -0.00000000000E+00  0.00000000000E+00  0.93800000000E+00  0.93800000000E+00 0. -1.
         11    1    1    2    0    0 -0.79058154424E-02  0.40368418772E-03  0.65631780807E-01  0.66109429370E-01  0.51100000000E-03 0.  1.
    9000002    1    1    2    0    0  0.53317058723E+00 -0.55969866859E-02  0.19577372502E+00  0.10965735510E+01  0.93800000000E+00 0. -1.
         22    1    1    2    0    0 -0.52526477179E+00  0.51933024981E-02  0.37385944615E+01  0.37753170196E+01  0.00000000000E+00 0. -1.
</event>
<event>
 5    1  0.1560836E+002  0.1599657E+01  0.7818608E-02  0.3353735E+00
         11   -1    0    0    0    0  0.00000000000E+00  0.00000000000E+00  0.39999999674E+01  0.40000000000E+01  0.51100000000E-03 0. -1.
    9000002   -1    0    0    0    0 -0.00000000000E+00 -0.00000000000E+00  0.00000000000E+00  0.93800000000E+00  0.93800000000E+00 0.  1.
         11    1    1    2    0    0  0.10049385542E+00  0.36447269904E-01  0.97078274493E+00  0.97665081653E+00  0.51100000000E-03 0. -1.
    9000002    1    1    2    0    0 -0.38773414358E+00 -0.15774161471E+00  0.11849620958E+00  0.10339755968E+01  0.93800000000E+00 0.  1.
         22    1    1    2    0    0  0.28724028816E+00  0.12129434481E+00  0.29107210129E+01  0.29273735867E+01  0.00000000000E+00 0. -1.
</event>
<event>
 5    1  0.1560836E+002  0.1599677E+01  0.7818608E-02  0.3353714E+00
         11   -1    0    0    0    0  0.00000000000E+00  0.00000000000E+00  0.39999999674E+01  0.40000000000E+01  0.51100000000E-03 0. -1.
    9000002   -1    0    0    0    0 -0.00000000000E+00 -0.00000000000E+00  0.00000000000E+00  0.93800000000E+00  0.93800000000E+00 0. -1.
         11    1    1    2    0    0  0.13764469798E+00 -0.58125614156E-01  0.16215438337E+01  0.16284131281E+01  0.51100000000E-03 0. -1.
    9000002    1    1    2    0    0 -0.33277114011E+00  0.14049452624E+00  0.87595318296E-01  0.10089560364E+01  0.93800000000E+00 0. -1.
         22    1    1    2    0    0  0.19512644212E+00 -0.82368912080E-01  0.22908608154E+01  0.23006308355E+01  0.00000000000E+00 0. -1.
</event>
<event>
 5    1  0.1560836E+002  0.1599650E+01  0.7818608E-02  0.3353743E+00
         11   -1    0    0    0    0  0.00000000000E+00  0.00000000000E+00  0.39999999674E+01  0.40000000000E+01  0.51100000000E-03 0.  1.
    9000002   -1    0    0    0    0 -0.00000000000E+00 -0.00000000000E+00  0.00000000000E+00  0.93800000000E+00  0.93800000000E+00 0. -1.
         11    1    1    2    0    0 -0.66181750882E-01  0.20594229604E-02  0.86051305604E+00  0.86305691939E+00  0.51100000000E-03 0.  1.
    9000002    1    1    2    0    0  0.32383310319E+00  0.19909585282E-03  0.70142158357E-01  0.99480241291E+00  0.93800000000E+00 0. -1.
         22    1    1    2    0    0 -0.25765135230E+00 -0.22585188133E-02  0.30693447530E+01  0.30801406677E+01  0.00000000000E+00 0.  1.
</event>
<event>
 5    1  0.1560836E+002  0.1599675E+01  0.7818608E-02  0.3353716E+00
         11   -1    0    0    0    0  0.00000000000E+00  0.00000000000E+00  0.39999999674E+01  0.40000000000E+01  0.51100000000E-03 0. -1.
    9000002   -1    0    0    0    0 -0.00000000000E+00 -0.00000000000E+00  0.00000000000E+00  0.93800000000E+00  0.93800000000E+00 0. -1.
         11    1    1    2    0    0  0.16672843688E+00  0.57272232718E-01  0.11146692814E+01  0.11285239689E+01  0.51100000000E-03 0. -1.
    9000002    1    1    2    0    0 -0.56140736784E+00 -0.18842220126E+00  0.24426662824E+00  0.11358659007E+01  0.93800000000E+00 0. -1.
         22    1    1    2    0    0  0.39467893096E+00  0.13114996854E+00  0.26410640577E+01  0.26736101304E+01  0.00000000000E+00 0. -1.
</event>
<event>
 5    1  0.1560836E+002  0.1599003E+01  0.7818608E-02  0.3354446E+00
         11   -1    0    0    0    0  0.00000000000E+00  0.00000000000E+00  0.39999999674E+01  0.40000000000E+01  0.51100000000E-03 0.  1.
    9000002   -1    0    0    0    0 -0.00000000000E+00 -0.00000000000E+00  0.00000000000E+00  0.93800000000E+00  0.93800000000E+00 0. -1.
         11    1    1    2    0    0 -0.14727951034E+00  0.49487510774E-01  0.15279359956E+01  0.15358153977E+01  0.51100000000E-03 0.  1.
    9000002    1    1    2    0    0  0.34431171768E+00 -0.19740377980E+00  0.10676714896E+00  0.10240908335E+01  0.93800000000E+00 0. -1.
         22    1    1    2    0    0 -0.19703220734E+00  0.14791626902E+00  0.23652968228E+01  0.23780937688E+01  0.00000000000E+00 0. -1.
</event>
<event>
 5    1  0.1560836E+002  0.1579843E+01  0.7818608E-02  0.3375536E+00
         11   -1    0    0    0    0  0.00000000000E+00  0.00000000000E+00  0.39999999674E+01  0.40000000000E+01  0.51100000000E-03 0. -1.
    9000002   -1    0    0    0    0 -0.00000000000E+00 -0.00000000000E+00  0.00000000000E+00  0.93800000000E+00  0.93800000000E+00 0. -1.
         11    1    1    2    0    0 -0.18747907613E+00 -0.52700309596E-01  0.12076908427E+01  0.12232919354E+01  0.51100000000E-03 0. -1.
    9000002    1    1    2    0    0  0.10577517597E+00  0.24123916338E+00  0.61546791501E-01  0.97622575737E+00  0.93800000000E+00 0. -1.
         22    1    1    2    0    0  0.81703900161E-01 -0.18853885378E+00  0.27307623332E+01  0.27384823072E+01  0.00000000000E+00 0. -1.
</event>
<event>
 5    1  0.1560836E+002  0.1599657E+01  0.7818608E-02  0.3353736E+00
         11   -1    0    0    0    0  0.00000000000E+00  0.00000000000E+00  0.39999999674E+01  0.40000000000E+01  0.51100000000E-03 0. -1.
    9000002   -1    0    0    0    0 -0.00000000000E+00 -0.00000000000E+00  0.00000000000E+00  0.93800000000E+00  0.93800000000E+00 0. -1.
         11    1    1    2    0    0  0.80813749935E-01 -0.31027194110E-01  0.63041132262E+00  0.63632715309E+00  0.51100000000E-03 0. -1.
    9000002    1    1    2    0    0 -0.48788837247E+00  0.16368397902E+00  0.18176135691E+00  0.10852228803E+01  0.93800000000E+00 0. -1.
         22    1    1    2    0    0  0.40707462254E+00 -0.13265678491E+00  0.31878272878E+01  0.32164499666E+01  0.00000000000E+00 0. -1.
</event>
<event>
 5    1  0.1560836E+002  0.1599616E+01  0.7818608E-02  0.3353780E+00
         11   -1    0    0    0    0  0.00000000000E+00  0.00000000000E+00  0.39999999674E+01  0.40000000000E+01  0.51100000000E-03 0. -1.
    9000002   -1    0    0    0    0 -0.00000000000E+00 -0.00000000000E+00  0.00000000000E+00  0.93800000000E+00  0.93800000000E+00 0. -1.
         11    1    1    2    0    0 -0.16020973901E-01 -0.52780711380E-02  0.26292267444E+00  0.26346370432E+00  0.51100000000E-03 0. -1.
    9000002    1    1    2    0    0  0.21734918218E+00  0.13809252715E-01  0.31481802494E-01  0.96346586153E+00  0.93800000000E+00 0. -1.
         22    1    1    2    0    0 -0.20132820828E+00 -0.85311815767E-02  0.37055954904E+01  0.37110704341E+01  0.00000000000E+00 0. -1.
</event>
<event>
 5    1  0.1560836E+002  0.1583745E+01  0.7818608E-02  0.3371197E+00
         11   -1    0    0    0    0  0.00000000000E+00  0.00000000000E+00  0.39999999674E+01  0.40000000000E+01  0.51100000000E-03 0.  1.
    9000002   -1    0    0    0    0 -0.00000000000E+00 -0.00000000000E+00  0.00000000000E+00  0.93800000000E+00  0.93800000000E+00 0. -1.
         11    1    1    2    0    0 -0.27668562084E+00 -0.17166652731E+00  0.14476788777E+01  0.14838459231E+01  0.51100000000E-03 0.  1.
    9000002    1    1    2    0    0  0.33763037754E+00  0.40870402538E+00  0.20830048767E+00  0.10973906986E+01  0.93800000000E+00 0. -1.
         22    1    1    2    0    0 -0.60944756698E-01 -0.23703749807E+00  0.23440206020E+01  0.23567633783E+01  0.00000000000E+00 0.  1.
</event>
<event>
 5    1  0.1560836E+002  0.1599553E+01  0.7818608E-02  0.3353849E+00
         11   -1    0    0    0    0  0.00000000000E+00  0.00000000000E+00  0.39999999674E+01  0.40000000000E+01  0.51100000000E-03 0. -1.
    9000002   -1    0    0    0    0 -0.00000000000E+00 -0.00000000000E+00  0.00000000000E+00  0.93800000000E+00  0.93800000000E+00 0. -1.
         11    1    1    2    0    0  0.22350095023E-02  0.45470152395E-01  0.55725350876E+00  0.55911024331E+00  0.51100000000E-03 0. -1.
    9000002    1    1    2    0    0  0.48573714217E-01 -0.30688533329E+00  0.64564685983E-01  0.99022755576E+00  0.93800000000E+00 0. -1.
         22    1    1    2    0    0 -0.50808723720E-01  0.26141518090E+00  0.33781817726E+01  0.33886622009E+01  0.00000000000E+00 0. -1.
</event>
<event>
 5    1  0.1560836E+002  0.1599458E+01  0.7818608E-02  0.3353952E+00
         11   -1    0    0    0    0  0.00000000000E+00  0.00000000000E+00  0.39999999674E+01  0.40000000000E+01  0.51100000000E-03 0.  1.
    9000002   -1    0    0    0    0 -0.00000000000E+00 -0.00000000000E+00  0.00000000000E+00  0.93800000000E+00  0.93800000000E+00 0. -1.
         11    1    1    2    0    0 -0.26271462991E-01  0.99501656990E-01  0.14443203601E+01  0.14479821592E+01  0.51100000000E-03 0.  1.
    9000002    1    1    2    0    0  0.90675156553E-01 -0.31338849823E+00  0.71359528680E-01  0.99567590971E+00  0.93800000000E+00 0. -1.
         22    1    1    2    0    0 -0.64403693561E-01  0.21388684124E+00  0.24843200786E+01  0.24943419311E+01  0.00000000000E+00 0.  1.
</event>
<event>
 5    1  0.1560836E+002  0.1599588E+01  0.7818608E-02  0.3353810E+00
         11   -1    0    0    0    0  0.00000000000E+00  0.00000000000E+00  0.39999999674E+01  0.40000000000E+01  0.51100000000E-03 0. -1.
    9000002   -1    0    0    0    0 -0.00000000000E+00 -0.00000000000E+00  0.00000000000E+00  0.93800000000E+00  0.93800000000E+00 0.  1.
         11    1    1    2    0    0  0.21639868854E+00  0.33310274604E-01  0.17110651188E+01  0.17250165416E+01  0.51100000000E-03 0. -1.
    9000002    1    1    2    0    0 -0.46349791216E+00 -0.85388503369E-01  0.15142773158E+00  0.10606110828E+01  0.93800000000E+00 0.  1.
         22    1    1    2    0    0  0.24709922361E+00  0.52078228766E-01  0.21375071170E+01  0.21523723756E+01  0.00000000000E+00 0. -1.
</event>
<event>
 5    1  0.1560836E+002  0.1599672E+01  0.7818608E-02  0.3353720E+00
         11   -1    0    0    0    0  0.00000000000E+00  0.00000000000E+00  0.39999999674E+01  0.40000000000E+01  0.51100000000E-03 0.  1.
    9000002   -1    0    0    0    0 -0.00000000000E+00 -0.00000000000E+00  0.00000000000E+00  0.93800000000E+00  0.93800000000E+00 0.  1.
         11    1    1    2    0    0 -0.39697008257E+00  0.68490642372E+00  0.19457869175E+01  0.21006591930E+01  0.51100000000E-03 0.  1.
    9000002    1    1    2    0    0  0.57169265968E+00 -0.99365000854E+00  0.11796493115E+01  0.18935652444E+01  0.93800000000E+00 0.  1.
         22    1    1    2    0    0 -0.17472257712E+00  0.30874358482E+00  0.87456373839E+00  0.94377556263E+00  0.00000000000E+00 0. -1.
</event>
<event>
 5    1  0.1560836E+002  0.1599595E+01  0.7818608E-02  0.3353803E+00
         11   -1    0    0    0    0  0.00000000000E+00  0.00000000000E+00  0.39999999674E+01  0.40000000000E+01  0.51100000000E-03 0.  1.
    9000002   -1    0    0    0    0 -0.00000000000E+00 -0.00000000000E+00  0.00000000000E+00  0.93800000000E+00  0.93800000000E+00 0. -1.
         11    1    1    2    0    0  0.57188806298E-01  0.21968558158E-02  0.98809980316E+00  0.98975596379E+00  0.51100000000E-03 0.  1.
    9000002    1    1    2    0    0 -0.26537520827E+00  0.10907337097E-02  0.46903061488E-01  0.97594522799E+00  0.93800000000E+00 0. -1.
         22    1    1    2    0    0  0.20818640197E+00 -0.32875895255E-02  0.29649971027E+01  0.29722988082E+01  0.00000000000E+00 0.  1.
</event>
<event>
 5    1  0.1560836E+002  0.1599344E+01  0.7818608E-02  0.3354075E+00
         11   -1    0    0    0    0  0.00000000000E+00  0.00000000000E+00  0.39999999674E+01  0.40000000000E+01  0.51100000000E-03 0.  1.
    9000002   -1    0    0    0    0 -0.00000000000E+00 -0.00000000000E+00  0.00000000000E+00  0.93800000000E+00  0.93800000000E+00 0.  1.
         11    1    1    2    0    0  0.27947930137E+00 -0.56564678575E-01  0.12892614759E+01  0.13204179857E+01  0.51100000000E-03 0.  1.
    9000002    1    1    2    0    0 -0.76999882041E+00  0.97894455605E-01  0.44074688617E+00  0.12948294581E+01  0.93800000000E+00 0.  1.
         22    1    1    2    0    0  0.49051951904E+00 -0.41329777030E-01  0.22699916053E+01  0.23227525562E+01  0.00000000000E+00 0.  1.
</event>
<event>
 5    1  0.1560836E+002  0.1599674E+01  0.7818608E-02  0.3353717E+00
         11   -1    0    0    0    0  0.00000000000E+00  0.00000000000E+00  0.39999999674E+01  0.40000000000E+01  0.51100000000E-03 0.  1.
    9000002   -1    0    0    0    0 -0.00000000000E+00 -0.00000000000E+00  0.00000000000E+00  0.93800000000E+00  0.93800000000E+00 0. -1.
         11    1    1    2    0    0 -0.12313717404E-01 -0.31504157020E-01  0.38083427665E+00  0.38233381610E+00  0.51100000000E-03 0.  1.
    9000002    1    1    2    0    0  0.11616948934E+00  0.32024328777E+00  0.77736789363E-01  0.10009685919E+01  0.93800000000E+00 0. -1.
         22    1    1    2    0    0 -0.10385577194E+00 -0.28873913075E+00  0.35414289013E+01  0.35546975920E+01  0.00000000000E+00 0.  1.
</event>
<event>
 5    1  0.1560836E+002  0.1599673E+01  0.7818608E-02  0.3353719E+00
         11   -1    0    0    0    0  0.00000000000E+00  0.00000000000E+00  0.39999999674E+01  0.40000000000E+01  0.51100000000E-03 0.  1.
    9000002   -1    0    0    0    0 -0.00000000000E+00 -0.00000000000E+00  0.00000000000E+00  0.93800000000E+00  0.93800000000E+00 0. -1.
         11    1    1    2    0    0  0.12987851386E-01  0.21406050424E-01  0.36420938407E+00  0.36506936306E+00  0.51100000000E-03 0.  1.
    9000002    1    1    2    0    0 -0.12852889108E+00 -0.24125775699E+00  0.49735823866E-01  0.97828555817E+00  0.93800000000E+00 0. -1.
         22    1    1    2    0    0  0.11554103969E+00  0.21985170657E+00  0.35860547594E+01  0.35946450788E+01  0.00000000000E+00 0.  1.
</event>
<event>
 5    1  0.1560836E+002  0.1599661E+01  0.7818608E-02  0.3353732E+00
         11   -1    0    0    0    0  0.00000000000E+00  0.00000000000E+00  0.39999999674E+01  0.40000000000E+01  0.51100000000E-03 0. -1.
    9000002   -1    0    0    0    0 -0.00000000000E+00 -0.00000000000E+00  0.00000000000E+00  0.93800000000E+00  0.93800000000E+00 0.  1.
         11    1    1    2    0    0 -0.19264341535E-02  0.28953198106E-01  0.29649165283E+00  0.29790864396E+00  0.51100000000E-03 0. -1.
    9000002    1    1    2    0    0  0.35307112439E-01 -0.41138608259E+00  0.11520349320E+00  0.10313103054E+01  0.93800000000E+00 0.  1.
         22    1    1    2    0    0 -0.33380678286E-01  0.38243288449E+00  0.35883048213E+01  0.36087810507E+01  0.00000000000E+00 0. -1.
</event>
<event>
 5    1  0.1560836E+002  0.1677572E+01  0.7818608E-02  0.3273248E+00
         11   -1    0    0    0    0  0.00000000000E+00  0.00000000000E+00  0.39999999674E+01  0.40000000000E+01  0.51100000000E-03 0.  1.
    9000002   -1    0    0    0    0 -0.00000000000E+00 -0.00000000000E+00  0.00000000000E+00  0.93800000000E+00  0.93800000000E+00 0.  1.
         11    1    1    2    0    0  0.28697956674E+00 -0.39305935606E+00  0.35924198248E+00  0.60490329162E+00  0.51100000000E-03 0.  1.
    9000002    1    1    2    0    0 -0.93194629896E-01 -0.16856369618E+00  0.39904482978E+00  0.10373908303E+01  0.93800000000E+00 0.  1.
         22    1    1    2    0    0 -0.19378493684E+00  0.56162305224E+00  0.32417131551E+01  0.32957058780E+01  0.00000000000E+00 0.  1.
</event>
<event>
 5    1  0.1560836E+002  0.1599675E+01  0.7818608E-02  0.3353716E+00
         11   -1    0    0    0    0  0.00000000000E+00  0.00000000000E+00  0.39999999674E+01  0.40000000000E+01  0.51100000000E-03 0. -1.
    9000002   -1    0    0    0    0 -0.00000000000E+00 -0.00000000000E+00  0.00000000000E+00  0.93800000000E+00  0.93800000000E+00 0. -1.
         11    1    1    2    0    0  0.18327693174E+00  0.16907090032E+00  0.18607060251E+01  0.18773392277E+01  0.51100000000E-03 0. -1.
    9000002    1    1    2    0    0 -0.37362212364E+00 -0.34865372488E+00  0.17911124867E+00  0.10830871389E+01  0.93800000000E+00 0. -1.
         22    1    1    2    0    0  0.19034519190E+00  0.17958282456E+00  0.19601826936E+01  0.19775736333E+01  0.00000000000E+00 0.  1.
</event>
<event>
 5    1  0.1560836E+002  0.1599676E+01  0.7818608E-02  0.3353715E+00
         11   -1    0    0    0    0  0.00000000000E+00  0.00000000000E+00  0.39999999674E+01  0.40000000000E+01  0.51100000000E-03 0. -1.
    9000002   -1    0    0    0    0 -0.00000000000E+00 -0.00000000000E+00  0.00000000000E+00  0.93800000000E+00  0.93800000000E+00 0. -1.
         11    1    1    2    0    0  0.10391053994E+00  0.23000162439E+00  0.18951847767E+01  0.19119162499E+01  0.51100000000E-03 0. -1.
    9000002    1    1    2    0    0 -0.20866743954E+00 -0.46192046025E+00  0.17607650771E+00  0.10806292373E+01  0.93800000000E+00 0. -1.
         22    1    1    2    0    0  0.10475689960E+00  0.23191883585E+00  0.19287386830E+01  0.19454545129E+01  0.00000000000E+00 0. -1.
</event>
<event>
 5    1  0.1560836E+002  0.1487302E+01  0.7818608E-02  0.3485566E+00
         11   -1    0    0    0    0  0.00000000000E+00  0.00000000000E+00  0.39999999674E+01  0.40000000000E+01  0.51100000000E-03 0.  1.
    9000002   -1    0    0    0    0 -0.00000000000E+00 -0.00000000000E+00  0.00000000000E+00  0.93800000000E+00  0.93800000000E+00 0. -1.
         11    1    1    2    0    0 -0.41917939235E+00 -0.30532601869E+00  0.10465141982E+01  0.11679587188E+01  0.51100000000E-03 0.  1.
    9000002    1    1    2    0    0  0.25083508824E+00 -0.70685432789E-01  0.21016108962E+00  0.99595499672E+00  0.93800000000E+00 0. -1.
         22    1    1    2    0    0  0.16834430411E+00  0.37601145148E+00  0.27433246796E+01  0.27740862845E+01  0.00000000000E+00 0.  1.
</event>
<event>
 5    1  0.1560836E+002  0.1599071E+01  0.7818608E-02  0.3354372E+00
         11   -1    0    0    0    0  0.00000000000E+00  0.00000000000E+00  0.39999999674E+01  0.40000000000E+01  0.51100000000E-03 0.  1.
    9000002   -1    0    0    0    0 -0.00000000000E+00 -0.00000000000E+00  0.00000000000E+00  0.93800000000E+00  0.93800000000E+00 0.  1.
         11    1    1    2    0    0 -0.16461427354E-01 -0.26705204062E-01  0.41300670167E+00  0.41419674462E+00  0.51100000000E-03 0.  1.
    9000002    1    1    2    0    0  0.27730489628E+00  0.13030486509E+00  0.63140570120E-01  0.98879122921E+00  0.93800000000E+00 0.  1.
         22    1    1    2    0    0 -0.26084346892E+00 -0.10359966103E+00  0.35238526956E+01  0.35350120262E+01  0.00000000000E+00 0.  1.
</event>
<event>
 5    1  0.1560836E+002  0.1599670E+01  0.7818608E-02  0.3353721E+00
         11   -1    0    0    0    0  0.00000000000E+00  0.00000000000E+00  0.39999999674E+01  0.40000000000E+01  0.51100000000E-03 0. -1.
    9000002   -1    0    0    0    0 -0.00000000000E+00 -0.00000000000E+00  0.00000000000E+00  0.93800000000E+00  0.93800000000E+00 0. -1.
         11    1    1    2    0    0 -0.13198759879E-01  0.50341735536E-02  0.25834631761E+00  0.25873274070E+00  0.51100000000E-03 0. -1.
    9000002    1    1    2    0    0  0.21394717521E+00 -0.57554833748E-01  0.32545727790E-01  0.96435946465E+00  0.93800000000E+00 0. -1.
         22    1    1    2    0    0 -0.20074841533E+00  0.52520660194E-01  0.37091079220E+01  0.37149077947E+01  0.00000000000E+00 0. -1.
</event>
<event>
 5    1  0.1560836E+002  0.1599673E+01  0.7818608E-02  0.3353718E+00
         11   -1    0    0    0    0  0.00000000000E+00  0.00000000000E+00  0.39999999674E+01  0.40000000000E+01  0.51100000000E-03 0.  1.
    9000002   -1    0    0    0    0 -0.00000000000E+00 -0.00000000000E+00  0.00000000000E+00  0.93800000000E+00  0.93800000000E+00 0.  1.
         11    1    1    2    0    0  0.59774927697E-01 -0.90305202183E-02  0.67280606778E+00  0.67551673424E+00  0.51100000000E-03 0.  1.
    9000002    1    1    2    0    0 -0.34199399216E+00  0.45163429028E-01  0.79749360003E-01  0.10025984173E+01  0.93800000000E+00 0.  1.
         22    1    1    2    0    0  0.28221906446E+00 -0.36132908809E-01  0.32474445396E+01  0.32598848484E+01  0.00000000000E+00 0.  1.
</event>
<event>
 5    1  0.1560836E+002  0.1599669E+01  0.7818608E-02  0.3353723E+00
         11   -1    0    0    0    0  0.00000000000E+00  0.00000000000E+00  0.39999999674E+01  0.40000000000E+01  0.51100000000E-03 0. -1.
    9000002   -1    0    0    0    0 -0.00000000000E+00 -0.00000000000E+00  0.00000000000E+00  0.93800000000E+00  0.93800000000E+00 0.  1.
         11    1    1    2    0    0  0.36549799838E-04  0.15412103374E-02  0.31302186214E-01  0.31344292111E-01  0.51100000000E-03 0.  1.
    9000002    1    1    2    0    0  0.25749336468E-01 -0.22407323657E+00  0.33739744969E-01  0.96532596260E+00  0.93800000000E+00 0.  1.
         22    1    1    2    0    0 -0.25785886268E-01  0.22253202624E+00  0.39349580362E+01  0.39413297453E+01  0.00000000000E+00 0. -1.
</event>
<event>
 5    1  0.1560836E+002  0.1599673E+01  0.7818608E-02  0.3353718E+00
         11   -1    0    0    0    0  0.00000000000E+00  0.00000000000E+00  0.39999999674E+01  0.40000000000E+01  0.51100000000E-03 0.  1.
    9000002   -1    0    0    0    0 -0.00000000000E+00 -0.00000000000E+00  0.00000000000E+00  0.93800000000E+00  0.93800000000E+00 0. -1.
         11    1    1    2    0    0 -0.46778635092E+00 -0.85770380404E-01  0.24093683346E+01  0.24558576223E+01  0.51100000000E-03 0.  1.
    9000002    1    1    2    0    0  0.70334127607E+00  0.12670836327E+00  0.36648727561E+00  0.12348687716E+01  0.93800000000E+00 0. -1.
         22    1    1    2    0    0 -0.23555492515E+00 -0.40937982864E-01  0.12241443572E+01  0.12472736061E+01  0.00000000000E+00 0.  1.
</event>
<event>
 5    1  0.1560836E+002  0.1599215E+01  0.7818608E-02  0.3354216E+00
         11   -1    0    0    0    0  0.00000000000E+00  0.00000000000E+00  0.39999999674E+01  0.40000000000E+01  0.51100000000E-03 0.  1.
    9000002   -1    0    0    0    0 -0.00000000000E+00 -0.00000000000E+00  0.00000000000E+00  0.93800000000E+00  0.93800000000E+00 0. -1.
         11    1    1    2    0    0  0.11909962422E+00 -0.12635098264E+00  0.18871301258E+01  0.18951014918E+01  0.51100000000E-03 0.  1.
    9000002    1    1    2    0    0 -0.24778301089E+00  0.31400814623E+00  0.10830588824E+00  0.10254617018E+01  0.93800000000E+00 0. -1.
         22    1    1    2    0    0  0.12868338667E+00 -0.18765716359E+00  0.20045639533E+01  0.20174368064E+01  0.00000000000E+00 0.  1.
</event>
<event>
 5    1  0.1560836E+002  0.1525851E+01  0.7818608E-02  0.3437996E+00
         11   -1    0    0    0    0  0.00000000000E+00  0.00000000000E+00  0.39999999674E+01  0.40000000000E+01  0.51100000000E-03 0. -1.
    9000002   -1    0    0    0    0 -0.00000000000E+00 -0.00000000000E+00  0.00000000000E+00  0.93800000000E+00  0.93800000000E+00 0.  1.
         11    1    1    2    0    0 -0.16249186809E+00 -0.37758070760E+00  0.18270099650E+01  0.18726816257E+01  0.51100000000E-03 0. -1.
    9000002    1    1    2    0    0  0.13955598909E+00  0.14092644844E+00  0.83526211017E-01  0.96237038914E+00  0.93800000000E+00 0.  1.
         22    1    1    2    0    0  0.22935878994E-01  0.23665425916E+00  0.20894637913E+01  0.21029479851E+01  0.00000000000E+00 0. -1.
</event>
<event>
 5    1  0.1560836E+002  0.1599077E+01  0.7818608E-02  0.3354366E+00
         11   -1    0    0    0    0  0.00000000000E+00  0.00000000000E+00  0.39999999674E+01  0.40000000000E+01  0.51100000000E-03 0. -1.
    9000002   -1    0    0    0    0 -0.00000000000E+00 -0.00000000000E+00  0.00000000000E+00  0.93800000000E+00  0.93800000000E+00 0.  1.
         11    1    1    2    0    0 -0.12188724902E+00 -0.23424721648E-01  0.42874621583E+00  0.44635053239E+00  0.51100000000E-03 0. -1.
    9000002    1    1    2    0    0  0.83580983098E+00  0.12602873808E+00  0.53572079667E+00  0.13716056607E+01  0.93800000000E+00 0.  1.
         22    1    1    2    0    0 -0.71392258196E+00 -0.10260401644E+00  0.30355329549E+01  0.31200438069E+01  0.00000000000E+00 0. -1.
</event>
<event>
 5    1  0.1560836E+002  0.1526175E+01  0.7818608E-02  0.3437607E+00
         11   -1    0    0    0    0  0.00000000000E+00  0.00000000000E+00  0.39999999674E+01  0.40000000000E+01  0.51100000000E-03 0. -1.
    9000002   -1    0    0    0    0 -0.00000000000E+00 -0.00000000000E+00  0.00000000000E+00  0.93800000000E+00  0.93800000000E+00 0. -1.
         11    1    1    2    0    0 -0.10269125054E+00  0.12417830150E+00  0.18732629773E+00  0.24709744321E+00  0.51100000000E-03 0. -1.
    9000002    1    1    2    0    0 -0.40501514985E-01 -0.31738700965E+00  0.12904898850E+00  0.99943610503E+00  0.93800000000E+00 0. -1.
         22    1    1    2    0    0  0.14319276553E+00  0.19320870815E+00  0.36836246811E+01  0.36914664518E+01  0.00000000000E+00 0. -1.
</event>
<event>
 5    1  0.1560836E+002  0.1597501E+01  0.7818608E-02  0.3356080E+00
         11   -1    0    0    0    0  0.00000000000E+00  0.00000000000E+00  0.39999999674E+01  0.40000000000E+01  0.51100000000E-03 0.  1.
    9000002   -1    0    0    0    0 -0.00000000000E+00 -0.00000000000E+00  0.00000000000E+00  0.93800000000E+00  0.93800000000E+00 0. -1.
         11    1    1    2    0    0  0.18411670117E+00  0.29324418437E-01  0.16712783151E+01  0.16816451316E+01  0.51100000000E-03 0.  1.
    9000002    1    1    2    0    0 -0.38439040039E+00  0.53184594011E-01  0.10321720172E+00  0.10203344411E+01  0.93800000000E+00 0. -1.
         22    1    1    2    0    0  0.20027369922E+00 -0.82509012448E-01  0.22255044506E+01  0.22360204273E+01  0.00000000000E+00 0.  1.
</event>
<event>
 5    1  0.1560836E+002  0.1585716E+01  0.7818608E-02  0.3369015E+00
         11   -1    0    0    0    0  0.00000000000E+00  0.00000000000E+00  0.39999999674E+01  0.40000000000E+01  0.51100000000E-03 0.  1.
    9000002   -1    0    0    0    0 -0.00000000000E+00 -0.00000000000E+00  0.00000000000E+00  0.93800000000E+00  0.93800000000E+00 0. -1.
         11    1    1    2    0    0 -0.83831495254E-01 -0.65029199403E-01  0.34374890196E+00  0.35975003140E+00  0.51100000000E-03 0.  1.
    9000002    1    1    2    0    0  0.38873145998E+00 -0.19819574577E-02  0.11340350339E+00  0.10216753059E+01  0.93800000000E+00 0. -1.
         22    1    1    2    0    0 -0.30489996472E+00  0.67011156860E-01  0.35428475620E+01  0.35565746627E+01  0.00000000000E+00 0.  1.
</event>
<event>
 5    1  0.1560836E+002  0.1598961E+01  0.7818608E-02  0.3354492E+00
         11   -1    0    0    0    0  0.00000000000E+00  0.00000000000E+00  0.39999999674E+01  0.40000000000E+01  0.51100000000E-03 0.  1.
    9000002   -1    0    0    0    0 -0.00000000000E+00 -0.00000000000E+00  0.00000000000E+00  0.93800000000E+00  0.93800000000E+00 0. -1.
         11    1    1    2    0    0  0.16294609567E+00 -0.50616879119E-01  0.15581208136E+01  0.15674355584E+01  0.51100000000E-03 0.  1.
    9000002    1    1    2    0    0 -0.36966471784E+00  0.57805453148E-01  0.94712838682E-01  0.10143017282E+01  0.93800000000E+00 0. -1.
         22    1    1    2    0    0  0.20671862217E+00 -0.71885740291E-02  0.23471663150E+01  0.23562627134E+01  0.00000000000E+00 0.  1.
</event>
<event>
 5    1  0.1560836E+002  0.1599608E+01  0.7818608E-02  0.3353789E+00
         11   -1    0    0    0    0  0.00000000000E+00  0.00000000000E+00  0.39999999674E+01  0.40000000000E+01  0.51100000000E-03 0.  1.
    9000002   -1    0    0    0    0 -0.00000000000E+00 -0.00000000000E+00  0.00000000000E+00  0.93800000000E+00  0.93800000000E+00 0.  1.
         11    1    1    2    0    0 -0.21475098341E-01  0.33345959873E-01  0.39594485183E+00  0.39792677681E+00  0.51100000000E-03 0.  1.
    9000002    1    1    2    0    0  0.19044216989E+00 -0.38216347894E+00  0.12347834889E+00  0.10379826816E+01  0.93800000000E+00 0.  1.
         22    1    1    2    0    0 -0.16896707155E+00  0.34881751907E+00  0.34805767666E+01  0.35020905416E+01  0.00000000000E+00 0.  1.
</event>
<event>
 5    1  0.1560836E+002  0.1599636E+01  0.7818608E-02  0.3353759E+00
         11   -1    0    0    0    0  0.00000000000E+00  0.00000000000E+00  0.39999999674E+01  0.40000000000E+01  0.51100000000E-03 0.  1.
    9000002   -1    0    0    0    0 -0.00000000000E+00 -0.00000000000E+00  0.00000000000E+00  0.93800000000E+00  0.93800000000E+00 0.  1.
         11    1    1    2    0    0  0.49759703755E-02 -0.13998020960E+00  0.16182780530E+01  0.16243285805E+01  0.51100000000E-03 0.  1.
    9000002    1    1    2    0    0 -0.67153728550E-02  0.35635621521E+00  0.85272592691E-01  0.10070502785E+01  0.93800000000E+00 0.  1.
         22    1    1    2    0    0  0.17394024795E-02 -0.21637600561E+00  0.22964493216E+01  0.23066211410E+01  0.00000000000E+00 0.  1.
</event>
<event>
 5    1  0.1560836E+002  0.1593563E+01  0.7818608E-02  0.3360380E+00
         11   -1    0    0    0    0  0.00000000000E+00  0.00000000000E+00  0.39999999674E+01  0.40000000000E+01  0.51100000000E-03 0. -1.
    9000002   -1    0    0    0    0 -0.00000000000E+00 -0.00000000000E+00  0.00000000000E+00  0.93800000000E+00  0.93800000000E+00 0.  1.
         11    1    1    2    0    0  0.83606556375E-01 -0.93104836170E-01  0.60381547136E+00  0.61664572597E+00  0.51100000000E-03 0. -1.
    9000002    1    1    2    0    0 -0.22644228029E+00  0.28811362012E+00  0.95198542674E-01  0.10115296965E+01  0.93800000000E+00 0.  1.
         22    1    1    2    0    0  0.14283572392E+00 -0.19500878395E+00  0.33009859533E+01  0.33098245775E+01  0.00000000000E+00 0. -1.
</event>
<event>
 5    1  0.1560836E+002  0.1599647E+01  0.7818608E-02  0.3353747E+00
         11   -1    0    0    0    0  0.00000000000E+00  0.00000000000E+00  0.39999999674E+01  0.40000000000E+01  0.51100000000E-03 0. -1.
    9000002   -1    0    0    0    0 -0.00000000000E+00 -0.00000000000E+00  0.00000000000E+00  0.93800000000E+00  0.93800000000E+00 0. -1.
         11    1    1    2    0    0  0.25316613298E+00 -0.14314829524E-01  0.19533474478E+01  0.19697371698E+01  0.51100000000E-03 0. -1.
    9000002    1    1    2    0    0 -0.49531547227E+00  0.15120191429E-01  0.16800609630E+00  0.10740745252E+01  0.93800000000E+00 0. -1.
         22    1    1    2    0    0  0.24214933929E+00 -0.80536190481E-03  0.18786464233E+01  0.18941883050E+01  0.00000000000E+00 0.  1.
</event>
<event>
 5    1  0.1560836E+002  0.1598384E+01  0.7818608E-02  0.3355119E+00
         11   -1    0    0    0    0  0.00000000000E+00  0.00000000000E+00  0.39999999674E+01  0.40000000000E+01  0.51100000000E-03 0.  1.
    9000002   -1    0    0    0    0 -0.00000000000E+00 -0.00000000000E+00  0.00000000000E+00  0.93800000000E+00  0.93800000000E+00 0. -1.
         11    1    1    2    0    0 -0.16636972922E+00 -0.13779390537E-01  0.13519037923E+01  0.13621721195E+01  0.51100000000E-03 0.  1.
    9000002    1    1    2    0    0  0.38735034552E+00  0.11573933802E+00  0.11138143369E+00  0.10274656726E+01  0.93800000000E+00 0. -1.
         22    1    1    2    0    0 -0.22098061630E+00 -0.10195994748E+00  0.25367147414E+01  0.25483622080E+01  0.00000000000E+00 0.  1.
</event>
<event>
 5    1  0.1560836E+002  0.1599426E+01  0.7818608E-02  0.3353987E+00
         11   -1    0    0    0    0  0.00000000000E+00  0.00000000000E+00  0.39999999674E+01  0.40000000000E+01  0.51100000000E-03 0.  1.
    9000002   -1    0    0    0    0 -0.00000000000E+00 -0.00000000000E+00  0.00000000000E+00  0.93800000000E+00  0.93800000000E+00 0. -1.
         11    1    1    2    0    0  0.12945775510E+00 -0.85870386602E-01  0.18915394348E+01  0.18979079872E+01  0.51100000000E-03 0.  1.
    9000002    1    1    2    0    0 -0.30658512202E+00  0.18581303789E+00  0.86459930033E-01  0.10078890026E+01  0.93800000000E+00 0. -1.
         22    1    1    2    0    0  0.17712736692E+00 -0.99942651286E-01  0.20220006026E+01  0.20322030101E+01  0.00000000000E+00 0.  1.
</event>
<event>
 5    1  0.1560836E+002  0.1599415E+01  0.7818608E-02  0.3353999E+00
         11   -1    0    0    0    0  0.00000000000E+00  0.00000000000E+00  0.39999999674E+01  0.40000000000E+01  0.51100000000E-03 0.  1.
    9000002   -1    0    0    0    0 -0.00000000000E+00 -0.00000000000E+00  0.00000000000E+00  0.93800000000E+00  0.93800000000E+00 0.  1.
         11    1    1    2    0    0  0.90191532792E-01 -0.16386798876E-01  0.82041643562E+00  0.82552191292E+00  0.51100000000E-03 0.  1.
    9000002    1    1    2    0    0 -0.47447255714E+00  0.12982405115E+00  0.16565995441E+00  0.10720381114E+01  0.93800000000E+00 0.  1.
         22    1    1    2    0    0  0.38428102434E+00 -0.11343725228E+00  0.30139235773E+01  0.30404399757E+01  0.00000000000E+00 0. -1.
</event>
<event>
 5    1  0.1560836E+002  0.1463584E+01  0.7818608E-02  0.3516181E+00
         11   -1    0    0    0    0  0.00000000000E+00  0.00000000000E+00  0.39999999674E+01  0.40000000000E+01  0.51100000000E-03 0. -1.
    9000002   -1    0    0    0    0 -0.00000000000E+00 -0.00000000000E+00  0.00000000000E+00  0.93800000000E+00  0.93800000000E+00 0. -1.
         11    1    1    2    0    0  0.22283954545E+00  0.79574119327E-01  0.20401415943E+00  0.31242845877E+00  0.51100000000E-03 0. -1.
    9000002    1    1    2    0    0  0.68998015755E-01  0.17499815120E+00  0.16113822745E+00  0.97015184762E+00  0.93800000000E+00 0. -1.
         22    1    1    2    0    0 -0.29183756121E+00 -0.25457227053E+00  0.36348475805E+01  0.36554196936E+01  0.00000000000E+00 0. -1.
</event>
<event>
 5    1  0.1560836E+002  0.1599371E+01  0.7818608E-02  0.3354047E+00
         11   -1    0    0    0    0  0.00000000000E+00  0.00000000000E+00  0.39999999674E+01  0.40000000000E+01  0.51100000000E-03 0. -1.
    9000002   -1    0    0    0    0 -0.00000000000E+00 -0.00000000000E+00  0.00000000000E+00  0.93800000000E+00  0.93800000000E+00 0.  1.
         11    1    1    2    0    0  0.13015342891E+00  0.17134411238E+00  0.18919541348E+01  0.19041505794E+01  0.51100000000E-03 0. -1.
    9000002    1    1    2    0    0 -0.22399269228E+00 -0.34848808836E+00  0.11623295026E+00  0.10319742112E+01  0.93800000000E+00 0.  1.
         22    1    1    2    0    0  0.93839263370E-01  0.17714397598E+00  0.19918128823E+01  0.20018752093E+01  0.00000000000E+00 0. -1.
</event>
<event>
 5    1  0.1560836E+002  0.1599677E+01  0.7818608E-02  0.3353714E+00
         11   -1    0    0    0    0  0.00000000000E+00  0.00000000000E+00  0.39999999674E+01  0.40000000000E+01  0.51100000000E-03 0. -1.
    9000002   -1    0    0    0    0 -0.00000000000E+00 -0.00000000000E+00  0.00000000000E+00  0.93800000000E+00  0.93800000000E+00 0. -1.
         11    1    1    2    0    0 -0.14424662696E+00  0.48714375734E-01  0.73110771548E+00  0.74679242936E+00  0.51100000000E-03 0. -1.
    9000002    1    1    2    0    0  0.70764191352E+00 -0.24085413216E+00  0.40476560453E+00  0.12658779504E+01  0.93800000000E+00 0. -1.
         22    1    1    2    0    0 -0.56339528655E+00  0.19213975643E+00  0.28641266473E+01  0.29253296202E+01  0.00000000000E+00 0. -1.
</event>
<event>
 5    1  0.1560836E+002  0.1599661E+01  0.7818608E-02  0.3353732E+00
         11   -1    0    0    0    0  0.00000000000E+00  0.00000000000E+00  0.39999999674E+01  0.40000000000E+01  0.51100000000E-03 0.  1.
    9000002   -1    0    0    0    0 -0.00000000000E+00 -0.00000000000E+00  0.00000000000E+00  0.93800000000E+00  0.93800000000E+00 0. -1.
         11    1    1    2    0    0 -0.47594194062E-01  0.26290127636E-01  0.45545070256E+00  0.45868505720E+00  0.51100000000E-03 0.  1.
    9000002    1    1    2    0    0  0.42522579778E+00 -0.20971514990E+00  0.15325520516E+00  0.10621339751E+01  0.93800000000E+00 0. -1.
         22    1    1    2    0    0 -0.37763160371E+00  0.18342502226E+00  0.33912940596E+01  0.34171809677E+01  0.00000000000E+00 0.  1.
</event>
<event>
 5    1  0.1560836E+002  0.1499321E+01  0.7818608E-02  0.3470451E+00
         11   -1    0    0    0    0  0.00000000000E+00  0.00000000000E+00  0.39999999674E+01  0.40000000000E+01  0.51100000000E-03 0.  1.
    9000002   -1    0    0    0    0 -0.00000000000E+00 -0.00000000000E+00  0.00000000000E+00  0.93800000000E+00  0.93800000000E+00 0.  1.
         11    1    1    2    0    0 -0.11268452925E+00  0.45743804044E-01  0.77193620825E-01  0.14404657219E+00  0.51100000000E-03 0.  1.
    9000002    1    1    2    0    0 -0.13126700845E+00  0.78619224000E-01  0.93629549161E-01  0.95499869234E+00  0.93800000000E+00 0.  1.
         22    1    1    2    0    0  0.24395153770E+00 -0.12436302804E+00  0.38291767974E+01  0.38389547355E+01  0.00000000000E+00 0.  1.
</event>
<event>
 5    1  0.1560836E+002  0.1599436E+01  0.7818608E-02  0.3353976E+00
         11   -1    0    0    0    0  0.00000000000E+00  0.00000000000E+00  0.39999999674E+01  0.40000000000E+01  0.51100000000E-03 0. -1.
    9000002   -1    0    0    0    0 -0.00000000000E+00 -0.00000000000E+00  0.00000000000E+00  0.93800000000E+00  0.93800000000E+00 0. -1.
         11    1    1    2    0    0 -0.60263458106E-01  0.44123939100E-01  0.81970741818E+00  0.82310334644E+00  0.51100000000E-03 0. -1.
    9000002    1    1    2    0    0  0.21748331981E+00 -0.22488612778E+00  0.65562263920E-01  0.99096678820E+00  0.93800000000E+00 0. -1.
         22    1    1    2    0    0 -0.15721986170E+00  0.18076218868E+00  0.31147302853E+01  0.31239298654E+01  0.00000000000E+00 0. -1.
</event>
<event>
 5    1  0.1560836E+002  0.1598409E+01  0.7818608E-02  0.3355092E+00
         11   -1    0    0    0    0  0.00000000000E+00  0.00000000000E+00  0.39999999674E+01  0.40000000000E+01  0.51100000000E-03 0.  1.
    9000002   -1    0    0    0    0 -0.00000000000E+00 -0.00000000000E+00  0.00000000000E+00  0.93800000000E+00  0.93800000000E+00 0. -1.
         11    1    1    2    0    0 -0.29691413393E-01 -0.18648316965E-01  0.42838637052E+00  0.42981912861E+00  0.51100000000E-03 0.  1.
    9000002    1    1    2    0    0  0.19694434557E+00  0.40065053335E+00  0.13638883117E+00  0.10477374854E+01  0.93800000000E+00 0. -1.
         22    1    1    2    0    0 -0.16725293218E+00 -0.38200221639E+00  0.34352247657E+01  0.34604433859E+01  0.00000000000E+00 0.  1.
</event>
<event>
 5    1  0.1560836E+002  0.1599661E+01  0.7818608E-02  0.3353732E+00
         11   -1    0    0    0    0  0.00000000000E+00  0.00000000000E+00  0.39999999674E+01  0.40000000000E+01  0.51100000000E-03 0. -1.
    9000002   -1    0    0    0    0 -0.00000000000E+00 -0.00000000000E+00  0.00000000000E+00  0.93800000000E+00  0.93800000000E+00 0.  1.
         11    1    1    2    0    0  0.56732168534E-01 -0.76723975612E-01  0.12156344554E+01  0.12193738137E+01  0.51100000000E-03 0. -1.
    9000002    1    1    2    0    0 -0.18016487873E+00  0.23461850491E+00  0.58366079177E-01  0.98526941776E+00  0.93800000000E+00 0.  1.
         22    1    1    2    0    0  0.12343271019E+00 -0.15789452930E+00  0.27259994328E+01  0.27333567685E+01  0.00000000000E+00 0. -1.
</event>
<event>
 5    1  0.1560836E+002  0.1594965E+01  0.7818608E-02  0.3358846E+00
         11   -1    0    0    0    0  0.00000000000E+00  0.00000000000E+00  0.39999999674E+01  0.40000000000E+01  0.51100000000E-03 0.  1.
    9000002   -1    0    0    0    0 -0.00000000000E+00 -0.00000000000E+00  0.00000000000E+00  0.93800000000E+00  0.93800000000E+00 0.  1.
         11    1    1    2    0    0  0.20304709237E-01  0.61930571831E-02  0.21300972215E+00  0.21406549938E+00  0.51100000000E-03 0.  1.
    9000002    1    1    2    0    0  0.27921603127E+00 -0.33247475783E+00  0.13176518629E+00  0.10419727065E+01  0.93800000000E+00 0.  1.
         22    1    1    2    0    0 -0.29952074051E+00  0.32628170065E+00  0.36552250589E+01  0.36819617941E+01  0.00000000000E+00 0.  1.
</event>
<event>
 5    1  0.1560836E+002  0.1599676E+01  0.7818608E-02  0.3353715E+00
         11   -1    0    0    0    0  0.00000000000E+00  0.00000000000E+00  0.39999999674E+01  0.40000000000E+01  0.51100000000E-03 0.  1.
    9000002   -1    0    0    0    0 -0.00000000000E+00 -0.00000000000E+00  0.00000000000E+00  0.93800000000E+00  0.93800000000E+00 0. -1.
         11    1    1    2    0    0 -0.14807107143E+00 -0.21132626002E-01  0.16155477070E+01  0.16224568668E+01  0.51100000000E-03 0.  1.
    9000002    1    1    2    0    0  0.35767826045E+00  0.49203846673E-01  0.87513108314E-01  0.10088891419E+01  0.93800000000E+00 0. -1.
         22    1    1    2    0    0 -0.20960718902E+00 -0.28071220671E-01  0.22969391520E+01  0.23066539912E+01  0.00000000000E+00 0.  1.
</event>
<event>
 5    1  0.1560836E+002  0.1599267E+01  0.7818608E-02  0.3354159E+00
         11   -1    0    0    0    0  0.00000000000E+00  0.00000000000E+00  0.39999999674E+01  0.40000000000E+01  0.51100000000E-03 0. -1.
    9000002   -1    0    0    0    0 -0.00000000000E+00 -0.00000000000E+00  0.00000000000E+00  0.93800000000E+00  0.93800000000E+00 0. -1.
         11    1    1    2    0    0 -0.18096126007E-01  0.97778676986E-01  0.15213390248E+01  0.15245854614E+01  0.51100000000E-03 0. -1.
    9000002    1    1    2    0    0  0.26926291096E-01 -0.31110180299E+00  0.65448721077E-01  0.99077590406E+00  0.93800000000E+00 0. -1.
         22    1    1    2    0    0 -0.88301650885E-02  0.21332312601E+00  0.24132122215E+01  0.24226386346E+01  0.00000000000E+00 0. -1.
</event>
<event>
 5    1  0.1560836E+002  0.1599677E+01  0.7818608E-02  0.3353714E+00
         11   -1    0    0    0    0  0.00000000000E+00  0.00000000000E+00  0.39999999674E+01  0.40000000000E+01  0.51100000000E-03 0. -1.
    9000002   -1    0    0    0    0 -0.00000000000E+00 -0.00000000000E+00  0.00000000000E+00  0.93800000000E+00  0.93800000000E+00 0.  1.
         11    1    1    2    0    0 -0.69893821673E-01  0.13680771927E+00  0.94807072693E+00  0.96043732890E+00  0.51100000000E-03 0.  1.
    9000002    1    1    2    0    0  0.27448397073E+00 -0.53931743272E+00  0.25578382323E+00  0.11451961001E+01  0.93800000000E+00 0.  1.
         22    1    1    2    0    0 -0.20459014906E+00  0.40250971344E+00  0.27961454172E+01  0.28323665710E+01  0.00000000000E+00 0. -1.
</event>
<event>
 5    1  0.1560836E+002  0.1599448E+01  0.7818608E-02  0.3353963E+00
         11   -1    0    0    0    0  0.00000000000E+00  0.00000000000E+00  0.39999999674E+01  0.40000000000E+01  0.51100000000E-03 0. -1.
    9000002   -1    0    0    0    0 -0.00000000000E+00 -0.00000000000E+00  0.00000000000E+00  0.93800000000E+00  0.93800000000E+00 0.  1.
         11    1    1    2    0    0 -0.64124312401E-01 -0.20555893868E-01  0.43288634934E+00  0.43809282667E+00  0.51100000000E-03 0. -1.
    9000002    1    1    2    0    0  0.47564512442E+00  0.13586739515E+00  0.16756615568E+00  0.10736017185E+01  0.93800000000E+00 0.  1.
         22    1    1    2    0    0 -0.41152081202E+00 -0.11531150128E+00  0.33995474623E+01  0.34263054548E+01  0.00000000000E+00 0. -1.
</event>
<event>
 5    1  0.1560836E+002  0.1502309E+01  0.7818608E-02  0.3466734E+00
         11   -1    0    0    0    0  0.00000000000E+00  0.00000000000E+00  0.39999999674E+01  0.40000000000E+01  0.51100000000E-03 0. -1.
    9000002   -1    0    0    0    0 -0.00000000000E+00 -0.00000000000E+00  0.00000000000E+00  0.93800000000E+00  0.93800000000E+00 0. -1.
         11    1    1    2    0    0  0.12519926550E+00 -0.12719157456E-02  0.93881060605E-01  0.15649405264E+00  0.51100000000E-03 0. -1.
    9000002    1    1    2    0    0  0.21324042632E+00  0.13601232707E+00  0.12112484308E+00  0.97902301308E+00  0.93800000000E+00 0. -1.
         22    1    1    2    0    0 -0.33843969182E+00 -0.13474041132E+00  0.37849940637E+01  0.38024829343E+01  0.00000000000E+00 0. -1.
</event>
<event>
 5    1  0.1560836E+002  0.1598692E+01  0.7818608E-02  0.3354785E+00
         11   -1    0    0    0    0  0.00000000000E+00  0.00000000000E+00  0.39999999674E+01  0.40000000000E+01  0.51100000000E-03 0.  1.
    9000002   -1    0    0    0    0 -0.00000000000E+00 -0.00000000000E+00  0.00000000000E+00  0.93800000000E+00  0.93800000000E+00 0. -1.
         11    1    1    2    0    0  0.27530138432E+00 -0.14295122843E-01  0.12187462509E+01  0.12495350687E+01  0.51100000000E-03 0.  1.
    9000002    1    1    2    0    0 -0.74229578101E+00 -0.37447115492E-01  0.40081917163E+00  0.12621035303E+01  0.93800000000E+00 0. -1.
         22    1    1    2    0    0  0.46699439669E+00  0.51742238335E-01  0.23804345448E+01  0.24263614009E+01  0.00000000000E+00 0. -1.
</event>
<event>
 5    1  0.1560836E+002  0.1599045E+01  0.7818608E-02  0.3354401E+00
         11   -1    0    0    0    0  0.00000000000E+00  0.00000000000E+00  0.39999999674E+01  0.40000000000E+01  0.51100000000E-03 0.  1.
    9000002   -1    0    0    0    0 -0.00000000000E+00 -0.00000000000E+00  0.00000000000E+00  0.93800000000E+00  0.93800000000E+00 0. -1.
         11    1    1    2    0    0  0.35439502554E-01  0.32084004164E-01  0.62160264972E+00  0.62343841470E+00  0.51100000000E-03 0.  1.
    9000002    1    1    2    0    0 -0.10984477109E+00 -0.28314339989E+00  0.62049165249E-01  0.98789177421E+00  0.93800000000E+00 0. -1.
         22    1    1    2    0    0  0.74405268536E-01  0.25105939573E+00  0.33163481524E+01  0.33266698111E+01  0.00000000000E+00 0.  1.
</event>
<event>
 5    1  0.1560836E+002  0.1599668E+01  0.7818608E-02  0.3353723E+00
         11   -1    0    0    0    0  0.00000000000E+00  0.00000000000E+00  0.39999999674E+01  0.40000000000E+01  0.51100000000E-03 0. -1.
    9000002   -1    0    0    0    0 -0.00000000000E+00 -0.00000000000E+00  0.00000000000E+00  0.93800000000E+00  0.93800000000E+00 0. -1.
         11    1    1    2    0    0 -0.24395772002E+00  0.20156974231E+00  0.17061830349E+01  0.17352828414E+01  0.51100000000E-03 0. -1.
    9000002    1    1    2    0    0  0.52925950817E+00 -0.43832710621E+00  0.33636882138E+00  0.12104686130E+01  0.93800000000E+00 0. -1.
         22    1    1    2    0    0 -0.28530178815E+00  0.23675736390E+00  0.19574481111E+01  0.19922485456E+01  0.00000000000E+00 0. -1.
</event>
<event>
 5    1  0.1560836E+002  0.1599645E+01  0.7818608E-02  0.3353748E+00
         11   -1    0    0    0    0  0.00000000000E+00  0.00000000000E+00  0.39999999674E+01  0.40000000000E+01  0.51100000000E-03 0. -1.
    9000002   -1    0    0    0    0 -0.00000000000E+00 -0.00000000000E+00  0.00000000000E+00  0.93800000000E+00  0.93800000000E+00 0.  1.
         11    1    1    2    0    0  0.23574624056E+00  0.26187182187E+00  0.22243475890E+01  0.22520825027E+01  0.51100000000E-03 0. -1.
    9000002    1    1    2    0    0 -0.38718333827E+00 -0.44432844164E+00  0.24182490685E+00  0.11338703572E+01  0.93800000000E+00 0.  1.
         22    1    1    2    0    0  0.15143709771E+00  0.18245661977E+00  0.15338274715E+01  0.15520471401E+01  0.00000000000E+00 0. -1.
</event>
<event>
 5    1  0.1560836E+002  0.1599677E+01  0.7818608E-02  0.3353714E+00
         11   -1    0    0    0    0  0.00000000000E+00  0.00000000000E+00  0.39999999674E+01  0.40000000000E+01  0.51100000000E-03 0. -1.
    9000002   -1    0    0    0    0 -0.00000000000E+00 -0.00000000000E+00  0.00000000000E+00  0.93800000000E+00  0.93800000000E+00 0. -1.
         11    1    1    2    0    0  0.16349118435E+00 -0.65362120000E-01  0.17998523731E+01  0.18084441933E+01  0.51100000000E-03 0. -1.
    9000002    1    1    2    0    0 -0.35602804015E+00  0.14117032483E+00  0.98731862856E-01  0.10179769186E+01  0.93800000000E+00 0. -1.
         22    1    1    2    0    0  0.19253685580E+00 -0.75808204829E-01  0.21014157314E+01  0.21115788882E+01  0.00000000000E+00 0.  1.
</event>
<event>
 5    1  0.1560836E+002  0.1591767E+01  0.7818608E-02  0.3362348E+00
         11   -1    0    0    0    0  0.00000000000E+00  0.00000000000E+00  0.39999999674E+01  0.40000000000E+01  0.51100000000E-03 0.  1.
    9000002   -1    0    0    0    0 -0.00000000000E+00 -0.00000000000E+00  0.00000000000E+00  0.93800000000E+00  0.93800000000E+00 0. -1.
         11    1    1    2    0    0 -0.28487091329E+00 -0.61908705355E+00  0.22253835371E+01  0.23273917516E+01  0.51100000000E-03 0.  1.
    9000002    1    1    2    0    0  0.45171400672E+00  0.96504335760E+00  0.97091999881E+00  0.17198499557E+01  0.93800000000E+00 0. -1.
         22    1    1    2    0    0 -0.16684309343E+00 -0.34595630405E+00  0.80369643144E+00  0.89075829272E+00  0.00000000000E+00 0.  1.
</event>
<event>
 5    1  0.1560836E+002  0.1599674E+01  0.7818608E-02  0.3353718E+00
         11   -1    0    0    0    0  0.00000000000E+00  0.00000000000E+00  0.39999999674E+01  0.40000000000E+01  0.51100000000E-03 0. -1.
    9000002   -1    0    0    0    0 -0.00000000000E+00 -0.00000000000E+00  0.00000000000E+00  0.93800000000E+00  0.93800000000E+00 0.  1.
         11    1    1    2    0    0  0.91499410624E-02  0.10146808522E-01  0.19255523266E+00  0.19304004219E+00  0.51100000000E-03 0. -1.
    9000002    1    1    2    0    0 -0.19670353746E+00 -0.22150349408E+00  0.58525318663E-01  0.98540615609E+00  0.93800000000E+00 0.  1.
         22    1    1    2    0    0  0.18755359639E+00  0.21135668556E+00  0.37489194160E+01  0.37595538017E+01  0.00000000000E+00 0. -1.
</event>
<event>
 5    1  0.1560836E+002  0.1599352E+01  0.7818608E-02  0.3354067E+00
         11   -1    0    0    0    0  0.00000000000E+00  0.00000000000E+00  0.39999999674E+01  0.40000000000E+01  0.51100000000E-03 0. -1.
    9000002   -1    0    0    0    0 -0.00000000000E+00 -0.00000000000E+00  0.00000000000E+00  0.93800000000E+00  0.93800000000E+00 0.  1.
         11    1    1    2    0    0 -0.12302246708E+00  0.35836059881E-01  0.12794088360E+01  0.12858094654E+01  0.51100000000E-03 0. -1.
    9000002    1    1    2    0    0  0.33842673314E+00 -0.15924823029E+00  0.94323549763E-01  0.10142157485E+01  0.93800000000E+00 0.  1.
         22    1    1    2    0    0 -0.21540426606E+00  0.12341217041E+00  0.26262675816E+01  0.26379747861E+01  0.00000000000E+00 0.  1.
</event>
<event>
 5    1  0.1560836E+002  0.1593236E+01  0.7818608E-02  0.3360738E+00
         11   -1    0    0    0    0  0.00000000000E+00  0.00000000000E+00  0.39999999674E+01  0.40000000000E+01  0.51100000000E-03 0. -1.
    9000002   -1    0    0    0    0 -0.00000000000E+00 -0.00000000000E+00  0.00000000000E+00  0.93800000000E+00  0.93800000000E+00 0.  1.
         11    1    1    2    0    0  0.63855923940E-01 -0.72300794126E-01  0.14790412938E+01  0.14821836572E+01  0.51100000000E-03 0. -1.
    9000002    1    1    2    0    0 -0.38641139255E-01  0.40044516611E+00  0.11459031401E+00  0.10270464492E+01  0.93800000000E+00 0.  1.
         22    1    1    2    0    0 -0.25214784684E-01 -0.32814437198E+00  0.24063683595E+01  0.24287698936E+01  0.00000000000E+00 0. -1.
</event>
<event>
 5    1  0.1560836E+002  0.1598063E+01  0.7818608E-02  0.3355468E+00
         11   -1    0    0    0    0  0.00000000000E+00  0.00000000000E+00  0.39999999674E+01  0.40000000000E+01  0.51100000000E-03 0. -1.
    9000002   -1    0    0    0    0 -0.00000000000E+00 -0.00000000000E+00  0.00000000000E+00  0.93800000000E+00  0.93800000000E+00 0.  1.
         11    1    1    2    0    0 -0.29159523455E-02  0.26364790083E+00  0.25248782670E+01  0.25386077370E+01  0.51100000000E-03 0. -1.
    9000002    1    1    2    0    0  0.43479317018E-01 -0.46107847127E+00  0.14737127530E+00  0.10564308309E+01  0.93800000000E+00 0.  1.
         22    1    1    2    0    0 -0.40563364673E-01  0.19743057044E+00  0.13277504251E+01  0.13429614321E+01  0.00000000000E+00 0. -1.
</event>
<event>
 5    1  0.1560836E+002  0.1599676E+01  0.7818608E-02  0.3353715E+00
         11   -1    0    0    0    0  0.00000000000E+00  0.00000000000E+00  0.39999999674E+01  0.40000000000E+01  0.51100000000E-03 0. -1.
    9000002   -1    0    0    0    0 -0.00000000000E+00 -0.00000000000E+00  0.00000000000E+00  0.93800000000E+00  0.93800000000E+00 0. -1.
         11    1    1    2    0    0 -0.16915596419E-02 -0.11803559451E-01  0.22329477759E+00  0.22361351527E+00  0.51100000000E-03 0. -1.
    9000002    1    1    2    0    0  0.30304941548E-01  0.21516994192E+00  0.31293114948E-01  0.96334819896E+00  0.93800000000E+00 0. -1.
         22    1    1    2    0    0 -0.28613381906E-01 -0.20336638247E+00  0.37454120748E+01  0.37510382858E+01  0.00000000000E+00 0. -1.
</event>
<event>
 5    1  0.1560836E+002  0.1577770E+01  0.7818608E-02  0.3377850E+00
         11   -1    0    0    0    0  0.00000000000E+00  0.00000000000E+00  0.39999999674E+01  0.40000000000E+01  0.51100000000E-03 0.  1.
    9000002   -1    0    0    0    0 -0.00000000000E+00 -0.00000000000E+00  0.00000000000E+00  0.93800000000E+00  0.93800000000E+00 0.  1.
         11    1    1    2    0    0  0.44636030188E-01 -0.16321472245E+00  0.93932207878E+00  0.95444101422E+00  0.51100000000E-03 0.  1.
    9000002    1    1    2    0    0  0.36731424719E+00  0.36642189665E+00  0.20522561867E+00  0.10913964986E+01  0.93800000000E+00 0.  1.
         22    1    1    2    0    0 -0.41195027738E+00 -0.20320717420E+00  0.28554522699E+01  0.28921624872E+01  0.00000000000E+00 0.  1.
</event>
<event>
 5    1  0.1560836E+002  0.1599238E+01  0.7818608E-02  0.3354191E+00
         11   -1    0    0    0    0  0.00000000000E+00  0.00000000000E+00  0.39999999674E+01  0.40000000000E+01  0.51100000000E-03 0. -1.
    9000002   -1    0    0    0    0 -0.00000000000E+00 -0.00000000000E+00  0.00000000000E+00  0.93800000000E+00  0.93800000000E+00 0. -1.
         11    1    1    2    0    0 -0.12300752524E+00 -0.75297123444E-01  0.14578898884E+01  0.14650063808E+01  0.51100000000E-03 0. -1.
    9000002    1    1    2    0    0  0.26768660645E+00  0.22090541649E+00  0.81093739416E-01  0.10034318696E+01  0.93800000000E+00 0. -1.
         22    1    1    2    0    0 -0.14467908121E+00 -0.14560829305E+00  0.24610163395E+01  0.24695617496E+01  0.00000000000E+00 0. -1.
</event>
<event>
 5    1  0.1560836E+002  0.1599331E+01  0.7818608E-02  0.3354090E+00
         11   -1    0    0    0    0  0.00000000000E+00  0.00000000000E+00  0.39999999674E+01  0.40000000000E+01  0.51100000000E-03 0.  1.
    9000002   -1    0    0    0    0 -0.00000000000E+00 -0.00000000000E+00  0.00000000000E+00  0.93800000000E+00  0.93800000000E+00 0.  1.
         11    1    1    2    0    0 -0.40099801480E-01  0.10706969486E+00  0.11625205054E+01  0.11681293166E+01  0.51100000000E-03 0.  1.
    9000002    1    1    2    0    0  0.11125341548E+00 -0.29729222156E+00  0.67603982177E-01  0.99255946213E+00  0.93800000000E+00 0.  1.
         22    1    1    2    0    0 -0.71153614003E-01  0.19022252670E+00  0.27698754797E+01  0.27773112213E+01  0.00000000000E+00 0.  1.
</event>
<event>
 5    1  0.1560836E+002  0.1596306E+01  0.7818608E-02  0.3357382E+00
         11   -1    0    0    0    0  0.00000000000E+00  0.00000000000E+00  0.39999999674E+01  0.40000000000E+01  0.51100000000E-03 0. -1.
    9000002   -1    0    0    0    0 -0.00000000000E+00 -0.00000000000E+00  0.00000000000E+00  0.93800000000E+00  0.93800000000E+00 0.  1.
         11    1    1    2    0    0 -0.30152845681E-01 -0.27637040724E-01  0.19904165304E+00  0.20320147856E+00  0.51100000000E-03 0. -1.
    9000002    1    1    2    0    0  0.35014123776E+00 -0.12628666644E-01  0.85033758184E-01  0.10049045276E+01  0.93800000000E+00 0.  1.
         22    1    1    2    0    0 -0.31998839208E+00  0.40265707368E-01  0.37159245561E+01  0.37298939938E+01  0.00000000000E+00 0. -1.
</event>
<event>
 5    1  0.1560836E+002  0.1599676E+01  0.7818608E-02  0.3353715E+00
         11   -1    0    0    0    0  0.00000000000E+00  0.00000000000E+00  0.39999999674E+01  0.40000000000E+01  0.51100000000E-03 0. -1.
    9000002   -1    0    0    0    0 -0.00000000000E+00 -0.00000000000E+00  0.00000000000E+00  0.93800000000E+00  0.93800000000E+00 0.  1.
         11    1    1    2    0    0  0.28788940963E-01 -0.56352305784E-02  0.34037273963E+00  0.34163492496E+00  0.51100000000E-03 0.  1.
    9000002    1    1    2    0    0 -0.33522551956E+00  0.63859815267E-01  0.78010019909E-01  0.10011911846E+01  0.93800000000E+00 0.  1.
         22    1    1    2    0    0  0.30643657860E+00 -0.58224584689E-01  0.35816172078E+01  0.35951738904E+01  0.00000000000E+00 0. -1.
</event>
<event>
 5    1  0.1560836E+002  0.1599677E+01  0.7818608E-02  0.3353714E+00
         11   -1    0    0    0    0  0.00000000000E+00  0.00000000000E+00  0.39999999674E+01  0.40000000000E+01  0.51100000000E-03 0.  1.
    9000002   -1    0    0    0    0 -0.00000000000E+00 -0.00000000000E+00  0.00000000000E+00  0.93800000000E+00  0.93800000000E+00 0. -1.
         11    1    1    2    0    0 -0.17249040153E+00 -0.76489562325E-01  0.15647594667E+01  0.15760951879E+01  0.51100000000E-03 0.  1.
    9000002    1    1    2    0    0  0.42331831498E+00  0.18857666742E+00  0.14615575378E+00  0.10563924743E+01  0.93800000000E+00 0. -1.
         22    1    1    2    0    0 -0.25082791345E+00 -0.11208710510E+00  0.22890847469E+01  0.23055123378E+01  0.00000000000E+00 0.  1.
</event>
<event>
 5    1  0.1560836E+002  0.1599677E+01  0.7818608E-02  0.3353714E+00
         11   -1    0    0    0    0  0.00000000000E+00  0.00000000000E+00  0.39999999674E+01  0.40000000000E+01  0.51100000000E-03 0. -1.
    9000002   -1    0    0    0    0 -0.00000000000E+00 -0.00000000000E+00  0.00000000000E+00  0.93800000000E+00  0.93800000000E+00 0.  1.
         11    1    1    2    0    0 -0.14719105200E+00 -0.28082230877E-01  0.15555313240E+01  0.15627321519E+01  0.51100000000E-03 0. -1.
    9000002    1    1    2    0    0  0.36857111191E+00  0.70461403961E-01  0.94688253365E-01  0.10147016011E+01  0.93800000000E+00 0.  1.
         22    1    1    2    0    0 -0.22138005991E+00 -0.42379173085E-01  0.23497803900E+01  0.23605662470E+01  0.00000000000E+00 0. -1.
</event>
<event>
 5    1  0.1560836E+002  0.1599671E+01  0.7818608E-02  0.3353721E+00
         11   -1    0    0    0    0  0.00000000000E+00  0.00000000000E+00  0.39999999674E+01  0.40000000000E+01  0.51100000000E-03 0. -1.
    9000002   -1    0    0    0    0 -0.00000000000E+00 -0.00000000000E+00  0.00000000000E+00  0.93800000000E+00  0.93800000000E+00 0. -1.
         11    1    1    2    0    0 -0.19157220715E-01 -0.22938345578E+00  0.18621593601E+01  0.18763319302E+01  0.51100000000E-03 0. -1.
    9000002    1    1    2    0    0  0.45818753187E-01  0.47282200489E+00  0.15385659343E+00  0.10626268667E+01  0.93800000000E+00 0. -1.
         22    1    1    2    0    0 -0.26661532471E-01 -0.24343854911E+00  0.19839840138E+01  0.19990412031E+01  0.00000000000E+00 0. -1.
</event>
<event>
 5    1  0.1560836E+002  0.1599613E+01  0.7818608E-02  0.3353783E+00
         11   -1    0    0    0    0  0.00000000000E+00  0.00000000000E+00  0.39999999674E+01  0.40000000000E+01  0.51100000000E-03 0.  1.
    9000002   -1    0    0    0    0 -0.00000000000E+00 -0.00000000000E+00  0.00000000000E+00  0.93800000000E+00  0.93800000000E+00 0. -1.
         11    1    1    2    0    0 -0.59826410734E-02  0.76334524843E-01  0.11780039315E+01  0.11804898456E+01  0.51100000000E-03 0.  1.
    9000002    1    1    2    0    0  0.12011657070E-01 -0.28412202492E+00  0.53922446260E-01  0.98164211155E+00  0.93800000000E+00 0. -1.
         22    1    1    2    0    0 -0.60290159962E-02  0.20778750008E+00  0.27680735896E+01  0.27758680429E+01  0.00000000000E+00 0.  1.
</event>
<event>
 5    1  0.1560836E+002  0.1599515E+01  0.7818608E-02  0.3353890E+00
         11   -1    0    0    0    0  0.00000000000E+00  0.00000000000E+00  0.39999999674E+01  0.40000000000E+01  0.51100000000E-03 0.  1.
    9000002   -1    0    0    0    0 -0.00000000000E+00 -0.00000000000E+00  0.00000000000E+00  0.93800000000E+00  0.93800000000E+00 0. -1.
         11    1    1    2    0    0  0.84621843795E-01  0.35403136736E-01  0.12898944765E+01  0.12931520638E+01  0.51100000000E-03 0.  1.
    9000002    1    1    2    0    0 -0.24867283824E+00 -0.15103278899E+00  0.56549956452E-01  0.98371285516E+00  0.93800000000E+00 0. -1.
         22    1    1    2    0    0  0.16405099444E+00  0.11562965225E+00  0.26535555344E+01  0.26611350810E+01  0.00000000000E+00 0.  1.
</event>
<event>
 5    1  0.1560836E+002  0.1599236E+01  0.7818608E-02  0.3354193E+00
         11   -1    0    0    0    0  0.00000000000E+00  0.00000000000E+00  0.39999999674E+01  0.40000000000E+01  0.51100000000E-03 0.  1.
    9000002   -1    0    0    0    0 -0.00000000000E+00 -0.00000000000E+00  0.00000000000E+00  0.93800000000E+00  0.93800000000E+00 0. -1.
         11    1    1    2    0    0  0.80680223167E-04 -0.48959398778E-02  0.17727192539E+00  0.17734027572E+00  0.51100000000E-03 0.  1.
    9000002    1    1    2    0    0 -0.67137873070E-01  0.33153016335E+00  0.76975172953E-01  0.10000944558E+01  0.93800000000E+00 0. -1.
         22    1    1    2    0    0  0.67057192847E-01 -0.32663422347E+00  0.37457528690E+01  0.37605652685E+01  0.00000000000E+00 0.  1.
</event>
<event>
 5    1  0.1560836E+002  0.1599291E+01  0.7818608E-02  0.3354133E+00
         11   -1    0    0    0    0  0.00000000000E+00  0.00000000000E+00  0.39999999674E+01  0.40000000000E+01  0.51100000000E-03 0. -1.
    9000002   -1    0    0    0    0 -0.00000000000E+00 -0.00000000000E+00  0.00000000000E+00  0.93800000000E+00  0.93800000000E+00 0.  1.
         11    1    1    2    0    0 -0.55194064761E-01  0.70242956504E-01  0.11368787805E+01  0.11403833042E+01  0.51100000000E-03 0. -1.
    9000002    1    1    2    0    0  0.12851488553E+00 -0.28306441559E+00  0.64841381722E-01  0.99029790667E+00  0.93800000000E+00 0.  1.
         22    1    1    2    0    0 -0.73320820769E-01  0.21282145908E+00  0.27982798051E+01  0.28073187892E+01  0.00000000000E+00 0. -1.
</event>
<event>
 5    1  0.1560836E+002  0.1599671E+01  0.7818608E-02  0.3353721E+00
         11   -1    0    0    0    0  0.00000000000E+00  0.00000000000E+00  0.39999999674E+01  0.40000000000E+01  0.51100000000E-03 0.  1.
    9000002   -1    0    0    0    0 -0.00000000000E+00 -0.00000000000E+00  0.00000000000E+00  0.93800000000E+00  0.93800000000E+00 0.  1.
         11    1    1    2    0    0  0.57997474477E-02  0.18163672969E-01  0.28077371001E+00  0.28142084756E+00  0.51100000000E-03 0.  1.
    9000002    1    1    2    0    0 -0.99651015374E-01 -0.24482713200E+00  0.46471788430E-01  0.97564044430E+00  0.93800000000E+00 0.  1.
         22    1    1    2    0    0  0.93851267927E-01  0.22666345903E+00  0.36727544689E+01  0.36809387081E+01  0.00000000000E+00 0.  1.
</event>
<event>
 5    1  0.1560836E+002  0.1579135E+01  0.7818608E-02  0.3376325E+00
         11   -1    0    0    0    0  0.00000000000E+00  0.00000000000E+00  0.39999999674E+01  0.40000000000E+01  0.51100000000E-03 0. -1.
    9000002   -1    0    0    0    0 -0.00000000000E+00 -0.00000000000E+00  0.00000000000E+00  0.93800000000E+00  0.93800000000E+00 0. -1.
         11    1    1    2    0    0  0.17594048816E-01 -0.56428960442E-01  0.13263930949E+00  0.14521441276E+00  0.51100000000E-03 0. -1.
    9000002    1    1    2    0    0 -0.23537487738E+00 -0.18482663614E+00  0.75992862221E-01  0.98751259913E+00  0.93800000000E+00 0. -1.
         22    1    1    2    0    0  0.21778082856E+00  0.24125559658E+00  0.37913677956E+01  0.38052729881E+01  0.00000000000E+00 0. -1.
</event>
<event>
 5    1  0.1560836E+002  0.1599662E+01  0.7818608E-02  0.3353730E+00
         11   -1    0    0    0    0  0.00000000000E+00  0.00000000000E+00  0.39999999674E+01  0.40000000000E+01  0.51100000000E-03 0.  1.
    9000002   -1    0    0    0    0 -0.00000000000E+00 -0.00000000000E+00  0.00000000000E+00  0.93800000000E+00  0.93800000000E+00 0.  1.
         11    1    1    2    0    0  0.62364872312E-02 -0.66025907476E-02  0.14002140568E+00  0.14031658187E+00  0.51100000000E-03 0.  1.
    9000002    1    1    2    0    0 -0.17247741854E+00  0.14064292245E+00  0.32847679118E-01  0.96459932696E+00  0.93800000000E+00 0.  1.
         22    1    1    2    0    0  0.16624093131E+00 -0.13404033170E+00  0.38271308826E+01  0.38330840912E+01  0.00000000000E+00 0.  1.
</event>
<event>
 5    1  0.1560836E+002  0.1597009E+01  0.7818608E-02  0.3356616E+00
         11   -1    0    0    0    0  0.00000000000E+00  0.00000000000E+00  0.39999999674E+01  0.40000000000E+01  0.51100000000E-03 0. -1.
    9000002   -1    0    0    0    0 -0.00000000000E+00 -0.00000000000E+00  0.00000000000E+00  0.93800000000E+00  0.93800000000E+00 0.  1.
         11    1    1    2    0    0 -0.28087502372E-01 -0.13827047339E-01  0.15499794112E+01  0.15502956271E+01  0.51100000000E-03 0. -1.
    9000002    1    1    2    0    0  0.18717750360E+00  0.13922120520E+00  0.38131850480E-01  0.96732414415E+00  0.93800000000E+00 0.  1.
         22    1    1    2    0    0 -0.15909000123E+00 -0.12539415786E+00  0.24118887057E+01  0.24203802288E+01  0.00000000000E+00 0. -1.
</event>
<event>
 5    1  0.1560836E+002  0.1599674E+01  0.7818608E-02  0.3353718E+00
         11   -1    0    0    0    0  0.00000000000E+00  0.00000000000E+00  0.39999999674E+01  0.40000000000E+01  0.51100000000E-03 0.  1.
    9000002   -1    0    0    0    0 -0.00000000000E+00 -0.00000000000E+00  0.00000000000E+00  0.93800000000E+00  0.93800000000E+00 0.  1.
         11    1    1    2    0    0  0.18750774746E+00 -0.28899395498E+00  0.22703367316E+01  0.22963244103E+01  0.51100000000E-03 0.  1.
    9000002    1    1    2    0    0 -0.31469451843E+00  0.48148327932E+00  0.22965761393E+00  0.11240308749E+01  0.93800000000E+00 0.  1.
         22    1    1    2    0    0  0.12718677097E+00 -0.19248932434E+00  0.15000056219E+01  0.15176447148E+01  0.00000000000E+00 0.  1.
</event>
<event>
 5    1  0.1560836E+002  0.1599676E+01  0.7818608E-02  0.3353715E+00
         11   -1    0    0    0    0  0.00000000000E+00  0.00000000000E+00  0.39999999674E+01  0.40000000000E+01  0.51100000000E-03 0.  1.
    9000002   -1    0    0    0    0 -0.00000000000E+00 -0.00000000000E+00  0.00000000000E+00  0.93800000000E+00  0.93800000000E+00 0. -1.
         11    1    1    2    0    0  0.12757372469E+00 -0.37683694393E+00  0.23636090106E+01  0.23968581421E+01  0.51100000000E-03 0.  1.
    9000002    1    1    2    0    0 -0.20218862064E+00  0.59489714305E+00  0.27716894358E+00  0.11625185901E+01  0.93800000000E+00 0. -1.
         22    1    1    2    0    0  0.74614895954E-01 -0.21806019912E+00  0.13592220132E+01  0.13786232677E+01  0.00000000000E+00 0.  1.
</event>
<event>
 5    1  0.1560836E+002  0.1599669E+01  0.7818608E-02  0.3353723E+00
         11   -1    0    0    0    0  0.00000000000E+00  0.00000000000E+00  0.39999999674E+01  0.40000000000E+01  0.51100000000E-03 0.  1.
    9000002   -1    0    0    0    0 -0.00000000000E+00 -0.00000000000E+00  0.00000000000E+00  0.93800000000E+00  0.93800000000E+00 0. -1.
         11    1    1    2    0    0 -0.86805399336E-01 -0.40806514875E+00  0.24363132830E+01  0.24717756810E+01  0.51100000000E-03 0.  1.
    9000002    1    1    2    0    0  0.12784376613E+00  0.62418077581E+00  0.28559368061E+00  0.11693388815E+01  0.93800000000E+00 0. -1.
         22    1    1    2    0    0 -0.41038366796E-01 -0.21611562705E+00  0.12780930037E+01  0.12968854375E+01  0.00000000000E+00 0.  1.
</event>
<event>
 5    1  0.1560836E+002  0.1599669E+01  0.7818608E-02  0.3353723E+00
         11   -1    0    0    0    0  0.00000000000E+00  0.00000000000E+00  0.39999999674E+01  0.40000000000E+01  0.51100000000E-03 0. -1.
    9000002   -1    0    0    0    0 -0.00000000000E+00 -0.00000000000E+00  0.00000000000E+00  0.93800000000E+00  0.93800000000E+00 0. -1.
         11    1    1    2    0    0  0.18215753179E+00  0.43141712151E+00  0.24090486403E+01  0.24541429689E+01  0.51100000000E-03 0. -1.
    9000002    1    1    2    0    0 -0.27074520544E+00 -0.65406089705E+00  0.35889913660E+00  0.12287193388E+01  0.93800000000E+00 0. -1.
         22    1    1    2    0    0  0.88587673647E-01  0.22264377554E+00  0.12320521905E+01  0.12551376923E+01  0.00000000000E+00 0. -1.
</event>
<event>
 5    1  0.1560836E+002  0.1599288E+01  0.7818608E-02  0.3354137E+00
         11   -1    0    0    0    0  0.00000000000E+00  0.00000000000E+00  0.39999999674E+01  0.40000000000E+01  0.51100000000E-03 0. -1.
    9000002   -1    0    0    0    0 -0.00000000000E+00 -0.00000000000E+00  0.00000000000E+00  0.93800000000E+00  0.93800000000E+00 0. -1.
         11    1    1    2    0    0 -0.75841892798E-01 -0.64167539749E-02  0.12064330039E+01  0.12088316762E+01  0.51100000000E-03 0. -1.
    9000002    1    1    2    0    0  0.31387814895E+00 -0.53288826285E-02  0.66136973261E-01  0.99134554451E+00  0.93800000000E+00 0. -1.
         22    1    1    2    0    0 -0.23803625615E+00  0.11745636603E-01  0.27274299902E+01  0.27378227793E+01  0.00000000000E+00 0. -1.
</event>
<event>
 5    1  0.1560836E+002  0.1593950E+01  0.7818608E-02  0.3359956E+00
         11   -1    0    0    0    0  0.00000000000E+00  0.00000000000E+00  0.39999999674E+01  0.40000000000E+01  0.51100000000E-03 0. -1.
    9000002   -1    0    0    0    0 -0.00000000000E+00 -0.00000000000E+00  0.00000000000E+00  0.93800000000E+00  0.93800000000E+00 0.  1.
         11    1    1    2    0    0  0.45189902756E-01  0.95649155655E-02  0.15022029622E+01  0.15029130433E+01  0.51100000000E-03 0. -1.
    9000002    1    1    2    0    0  0.45909422227E-01 -0.19021366462E+00  0.29639214935E-01  0.95865082085E+00  0.93800000000E+00 0.  1.
         22    1    1    2    0    0 -0.91099324984E-01  0.18064874906E+00  0.24681577902E+01  0.24764361358E+01  0.00000000000E+00 0. -1.
</event>
<event>
 5    1  0.1560836E+002  0.1599651E+01  0.7818608E-02  0.3353742E+00
         11   -1    0    0    0    0  0.00000000000E+00  0.00000000000E+00  0.39999999674E+01  0.40000000000E+01  0.51100000000E-03 0. -1.
    9000002   -1    0    0    0    0 -0.00000000000E+00 -0.00000000000E+00  0.00000000000E+00  0.93800000000E+00  0.93800000000E+00 0.  1.
         11    1    1    2    0    0  0.16709863699E-01  0.53062599888E-01  0.42396548096E+00  0.42760010432E+00  0.51100000000E-03 0. -1.
    9000002    1    1    2    0    0 -0.11924496526E+00 -0.46796877213E+00  0.15922365993E+00  0.10669631237E+01  0.93800000000E+00 0.  1.
         22    1    1    2    0    0  0.10253510156E+00  0.41490617224E+00  0.34168108265E+01  0.34434367720E+01  0.00000000000E+00 0. -1.
</event>
<event>
 5    1  0.1560836E+002  0.1599673E+01  0.7818608E-02  0.3353718E+00
         11   -1    0    0    0    0  0.00000000000E+00  0.00000000000E+00  0.39999999674E+01  0.40000000000E+01  0.51100000000E-03 0.  1.
    9000002   -1    0    0    0    0 -0.00000000000E+00 -0.00000000000E+00  0.00000000000E+00  0.93800000000E+00  0.93800000000E+00 0.  1.
         11    1    1    2    0    0  0.18583922524E+00 -0.30744125188E-01  0.14953330002E+01  0.15071504442E+01  0.51100000000E-03 0.  1.
    9000002    1    1    2    0    0 -0.48097957393E+00  0.74789564739E-01  0.16184420004E+00  0.10690988610E+01  0.93800000000E+00 0.  1.
         22    1    1    2    0    0  0.29514034868E+00 -0.44045439550E-01  0.23428227672E+01  0.23617506948E+01  0.00000000000E+00 0.  1.
</event>
<event>
 5    1  0.1560836E+002  0.1599408E+01  0.7818608E-02  0.3354006E+00
         11   -1    0    0    0    0  0.00000000000E+00  0.00000000000E+00  0.39999999674E+01  0.40000000000E+01  0.51100000000E-03 0.  1.
    9000002   -1    0    0    0    0 -0.00000000000E+00 -0.00000000000E+00  0.00000000000E+00  0.93800000000E+00  0.93800000000E+00 0. -1.
         11    1    1    2    0    0 -0.26037438542E+00 -0.71400321692E-01  0.20291761835E+01  0.20470586390E+01  0.51100000000E-03 0.  1.
    9000002    1    1    2    0    0  0.48169768773E+00  0.17049933544E+00  0.17931818894E+00  0.10830981944E+01  0.93800000000E+00 0. -1.
         22    1    1    2    0    0 -0.22132330231E+00 -0.99099013744E-01  0.17915055949E+01  0.18078431667E+01  0.00000000000E+00 0.  1.
</event>
<event>
 5    1  0.1560836E+002  0.1569823E+01  0.7818608E-02  0.3386782E+00
         11   -1    0    0    0    0  0.00000000000E+00  0.00000000000E+00  0.39999999674E+01  0.40000000000E+01  0.51100000000E-03 0.  1.
    9000002   -1    0    0    0    0 -0.00000000000E+00 -0.00000000000E+00  0.00000000000E+00  0.93800000000E+00  0.93800000000E+00 0. -1.
         11    1    1    2    0    0 -0.73434038939E-01  0.11271475615E+00  0.42840174600E+00  0.44902727247E+00  0.51100000000E-03 0.  1.
    9000002    1    1    2    0    0  0.18972852247E+00  0.60716652281E-01  0.48979017961E-01  0.96016996845E+00  0.93800000000E+00 0. -1.
         22    1    1    2    0    0 -0.11629448353E+00 -0.17343140844E+00  0.35226192034E+01  0.35288027591E+01  0.00000000000E+00 0.  1.
</event>
<event>
 5    1  0.1560836E+002  0.1599677E+01  0.7818608E-02  0.3353714E+00
         11   -1    0    0    0    0  0.00000000000E+00  0.00000000000E+00  0.39999999674E+01  0.40000000000E+01  0.51100000000E-03 0.  1.
    9000002   -1    0    0    0    0 -0.00000000000E+00 -0.00000000000E+00  0.00000000000E+00  0.93800000000E+00  0.93800000000E+00 0.  1.
         11    1    1    2    0    0  0.45613986958E-01  0.19899540111E+00  0.11507876999E+01  0.11687567741E+01  0.51100000000E-03 0. -1.
    9000002    1    1    2    0    0 -0.14640089275E+00 -0.63949303295E+00  0.30414365415E+00  0.11843698421E+01  0.93800000000E+00 0.  1.
         22    1    1    2    0    0  0.10078690579E+00  0.44049763184E+00  0.25450686133E+01  0.25848733838E+01  0.00000000000E+00 0.  1.
</event>
<event>
 5    1  0.1560836E+002  0.1599597E+01  0.7818608E-02  0.3353800E+00
         11   -1    0    0    0    0  0.00000000000E+00  0.00000000000E+00  0.39999999674E+01  0.40000000000E+01  0.51100000000E-03 0.  1.
    9000002   -1    0    0    0    0 -0.00000000000E+00 -0.00000000000E+00  0.00000000000E+00  0.93800000000E+00  0.93800000000E+00 0. -1.
         11    1    1    2    0    0 -0.14962997324E-02  0.64791318280E-02  0.17479916480E+00  0.17492634793E+00  0.51100000000E-03 0.  1.
    9000002    1    1    2    0    0  0.16411721851E-01 -0.24469150900E+00  0.39998884279E-01  0.97035415696E+00  0.93800000000E+00 0. -1.
         22    1    1    2    0    0 -0.14915422118E-01  0.23821237717E+00  0.37852019183E+01  0.37927194951E+01  0.00000000000E+00 0.  1.
</event>
<event>
 5    1  0.1560836E+002  0.1594226E+01  0.7818608E-02  0.3359654E+00
         11   -1    0    0    0    0  0.00000000000E+00  0.00000000000E+00  0.39999999674E+01  0.40000000000E+01  0.51100000000E-03 0.  1.
    9000002   -1    0    0    0    0 -0.00000000000E+00 -0.00000000000E+00  0.00000000000E+00  0.93800000000E+00  0.93800000000E+00 0.  1.
         11    1    1    2    0    0  0.12453168754E+00 -0.32727794678E+00  0.14888907190E+01  0.15295145733E+01  0.51100000000E-03 0.  1.
    9000002    1    1    2    0    0 -0.34482732951E+00  0.59114840003E+00  0.33935696884E+00  0.12096980906E+01  0.93800000000E+00 0.  1.
         22    1    1    2    0    0  0.22029564197E+00 -0.26387045325E+00  0.21717522795E+01  0.21987873361E+01  0.00000000000E+00 0.  1.
</event>
<event>
 5    1  0.1560836E+002  0.1591080E+01  0.7818608E-02  0.3363102E+00
         11   -1    0    0    0    0  0.00000000000E+00  0.00000000000E+00  0.39999999674E+01  0.40000000000E+01  0.51100000000E-03 0.  1.
    9000002   -1    0    0    0    0 -0.00000000000E+00 -0.00000000000E+00  0.00000000000E+00  0.93800000000E+00  0.93800000000E+00 0. -1.
         11    1    1    2    0    0  0.51702750732E-01 -0.41762622937E-01  0.61150857585E+00  0.61510998249E+00  0.51100000000E-03 0.  1.
    9000002    1    1    2    0    0  0.14694738947E+00  0.69797414995E-01  0.23879293937E-01  0.95230217635E+00  0.93800000000E+00 0. -1.
         22    1    1    2    0    0 -0.19865014020E+00 -0.28034792058E-01  0.33646120976E+01  0.33705878412E+01  0.00000000000E+00 0.  1.
</event>
<event>
 5    1  0.1560836E+002  0.1598834E+01  0.7818608E-02  0.3354630E+00
         11   -1    0    0    0    0  0.00000000000E+00  0.00000000000E+00  0.39999999674E+01  0.40000000000E+01  0.51100000000E-03 0.  1.
    9000002   -1    0    0    0    0 -0.00000000000E+00 -0.00000000000E+00  0.00000000000E+00  0.93800000000E+00  0.93800000000E+00 0.  1.
         11    1    1    2    0    0 -0.18206899709E+00 -0.63107803346E-01  0.16638809153E+01  0.16750019928E+01  0.51100000000E-03 0.  1.
    9000002    1    1    2    0    0  0.40177423131E+00  0.70050426896E-01  0.11301273466E+00  0.10290507633E+01  0.93800000000E+00 0.  1.
         22    1    1    2    0    0 -0.21970523421E+00 -0.69426235494E-02  0.22231063174E+01  0.22339472439E+01  0.00000000000E+00 0. -1.
</event>
<event>
 5    1  0.1560836E+002  0.1597986E+01  0.7818608E-02  0.3355553E+00
         11   -1    0    0    0    0  0.00000000000E+00  0.00000000000E+00  0.39999999674E+01  0.40000000000E+01  0.51100000000E-03 0. -1.
    9000002   -1    0    0    0    0 -0.00000000000E+00 -0.00000000000E+00  0.00000000000E+00  0.93800000000E+00  0.93800000000E+00 0. -1.
         11    1    1    2    0    0  0.24055275766E-01  0.62525207576E-02  0.12467803274E+00  0.12713230619E+00  0.51100000000E-03 0. -1.
    9000002    1    1    2    0    0 -0.25541410019E+00  0.19908321458E-01  0.44917335062E-01  0.97339317381E+00  0.93800000000E+00 0. -1.
         22    1    1    2    0    0  0.23135882443E+00 -0.26160842216E-01  0.38304045996E+01  0.38374745200E+01  0.00000000000E+00 0. -1.
</event>
<event>
 5    1  0.1560836E+002  0.1599356E+01  0.7818608E-02  0.3354063E+00
         11   -1    0    0    0    0  0.00000000000E+00  0.00000000000E+00  0.39999999674E+01  0.40000000000E+01  0.51100000000E-03 0.  1.
    9000002   -1    0    0    0    0 -0.00000000000E+00 -0.00000000000E+00  0.00000000000E+00  0.93800000000E+00  0.93800000000E+00 0. -1.
         11    1    1    2    0    0 -0.17207155215E+00  0.75954968729E-01  0.12854540603E+01  0.12991420933E+01  0.51100000000E-03 0.  1.
    9000002    1    1    2    0    0  0.46030469825E+00 -0.26004267441E+00  0.19258985519E+00  0.10938178368E+01  0.93800000000E+00 0. -1.
         22    1    1    2    0    0 -0.28823314611E+00  0.18408770568E+00  0.25219560519E+01  0.25450400699E+01  0.00000000000E+00 0.  1.
</event>
<event>
 5    1  0.1560836E+002  0.1589576E+01  0.7818608E-02  0.3364756E+00
         11   -1    0    0    0    0  0.00000000000E+00  0.00000000000E+00  0.39999999674E+01  0.40000000000E+01  0.51100000000E-03 0. -1.
    9000002   -1    0    0    0    0 -0.00000000000E+00 -0.00000000000E+00  0.00000000000E+00  0.93800000000E+00  0.93800000000E+00 0.  1.
         11    1    1    2    0    0  0.18066706751E-01  0.19846057342E+00  0.23085523090E+01  0.23171376803E+01  0.51100000000E-03 0. -1.
    9000002    1    1    2    0    0  0.16524346282E+00 -0.28728024977E+00  0.81587077063E-01  0.99816621615E+00  0.93800000000E+00 0.  1.
         22    1    1    2    0    0 -0.18331016957E+00  0.88819676356E-01  0.16098605813E+01  0.16226961036E+01  0.00000000000E+00 0. -1.
</event>
<event>
 5    1  0.1560836E+002  0.1572077E+01  0.7818608E-02  0.3384240E+00
         11   -1    0    0    0    0  0.00000000000E+00  0.00000000000E+00  0.39999999674E+01  0.40000000000E+01  0.51100000000E-03 0. -1.
    9000002   -1    0    0    0    0 -0.00000000000E+00 -0.00000000000E+00  0.00000000000E+00  0.93800000000E+00  0.93800000000E+00 0.  1.
         11    1    1    2    0    0  0.48529079752E-01  0.68256760874E-01  0.29971269040E+00  0.31119449689E+00  0.51100000000E-03 0. -1.
    9000002    1    1    2    0    0 -0.20696271586E+00  0.44082929973E+00  0.18701204068E+00  0.10733040299E+01  0.93800000000E+00 0.  1.
         22    1    1    2    0    0  0.15843363611E+00 -0.50908606061E+00  0.35132752363E+01  0.35535014732E+01  0.00000000000E+00 0. -1.
</event>
<event>
 5    1  0.1560836E+002  0.1599674E+01  0.7818608E-02  0.3353718E+00
         11   -1    0    0    0    0  0.00000000000E+00  0.00000000000E+00  0.39999999674E+01  0.40000000000E+01  0.51100000000E-03 0.  1.
    9000002   -1    0    0    0    0 -0.00000000000E+00 -0.00000000000E+00  0.00000000000E+00  0.93800000000E+00  0.93800000000E+00 0. -1.
         11    1    1    2    0    0 -0.97413026233E-01 -0.69725169104E-01  0.13013753069E+01  0.13068775182E+01  0.51100000000E-03 0.  1.
    9000002    1    1    2    0    0  0.29494653193E+00  0.21547799244E+00  0.89619679029E-01  0.10105938397E+01  0.93800000000E+00 0. -1.
         22    1    1    2    0    0 -0.19753350570E+00 -0.14575282334E+00  0.26090049814E+01  0.26205286422E+01  0.00000000000E+00 0. -1.
</event>
<event>
 5    1  0.1560836E+002  0.1598940E+01  0.7818608E-02  0.3354515E+00
         11   -1    0    0    0    0  0.00000000000E+00  0.00000000000E+00  0.39999999674E+01  0.40000000000E+01  0.51100000000E-03 0. -1.
    9000002   -1    0    0    0    0 -0.00000000000E+00 -0.00000000000E+00  0.00000000000E+00  0.93800000000E+00  0.93800000000E+00 0. -1.
         11    1    1    2    0    0  0.19841262059E-02  0.67798286675E-02  0.72390659130E-01  0.72736314753E-01  0.51100000000E-03 0. -1.
    9000002    1    1    2    0    0  0.32260179771E+00 -0.16389402739E+00  0.88507254026E-01  0.10092624565E+01  0.93800000000E+00 0. -1.
         22    1    1    2    0    0 -0.32458592392E+00  0.15711419872E+00  0.38391020542E+01  0.38560012287E+01  0.00000000000E+00 0. -1.
</event>
<event>
 5    1  0.1560836E+002  0.1599676E+01  0.7818608E-02  0.3353715E+00
         11   -1    0    0    0    0  0.00000000000E+00  0.00000000000E+00  0.39999999674E+01  0.40000000000E+01  0.51100000000E-03 0.  1.
    9000002   -1    0    0    0    0 -0.00000000000E+00 -0.00000000000E+00  0.00000000000E+00  0.93800000000E+00  0.93800000000E+00 0. -1.
         11    1    1    2    0    0  0.16208686278E+00  0.64906075740E-01  0.16249929132E+01  0.16343461013E+01  0.51100000000E-03 0.  1.
    9000002    1    1    2    0    0 -0.38926261573E+00 -0.15703267857E+00  0.11915120269E+00  0.10345171121E+01  0.93800000000E+00 0. -1.
         22    1    1    2    0    0  0.22717575295E+00  0.92126602830E-01  0.22558558515E+01  0.22691367866E+01  0.00000000000E+00 0. -1.
</event>
<event>
 5    1  0.1560836E+002  0.1599443E+01  0.7818608E-02  0.3353968E+00
         11   -1    0    0    0    0  0.00000000000E+00  0.00000000000E+00  0.39999999674E+01  0.40000000000E+01  0.51100000000E-03 0.  1.
    9000002   -1    0    0    0    0 -0.00000000000E+00 -0.00000000000E+00  0.00000000000E+00  0.93800000000E+00  0.93800000000E+00 0.  1.
         11    1    1    2    0    0 -0.29607284339E-01  0.74324514974E-01  0.61395935003E+00  0.61915028016E+00  0.51100000000E-03 0.  1.
    9000002    1    1    2    0    0  0.20456843040E+00 -0.38543259485E+00  0.12926546567E+00  0.10425737808E+01  0.93800000000E+00 0.  1.
         22    1    1    2    0    0 -0.17496114606E+00  0.31110807988E+00  0.32567751517E+01  0.32762759390E+01  0.00000000000E+00 0.  1.
</event>
<event>
 5    1  0.1560836E+002  0.1575267E+01  0.7818608E-02  0.3380653E+00
         11   -1    0    0    0    0  0.00000000000E+00  0.00000000000E+00  0.39999999674E+01  0.40000000000E+01  0.51100000000E-03 0.  1.
    9000002   -1    0    0    0    0 -0.00000000000E+00 -0.00000000000E+00  0.00000000000E+00  0.93800000000E+00  0.93800000000E+00 0.  1.
         11    1    1    2    0    0  0.78617737121E-01 -0.77089765355E-01  0.27048848971E+00  0.29204086135E+00  0.51100000000E-03 0.  1.
    9000002    1    1    2    0    0 -0.27794134004E+00  0.32801983075E-02  0.70581566719E-01  0.98086079836E+00  0.93800000000E+00 0.  1.
         22    1    1    2    0    0  0.19932360292E+00  0.73809567047E-01  0.36589299109E+01  0.36650983403E+01  0.00000000000E+00 0.  1.
</event>
<event>
 5    1  0.1560836E+002  0.1599664E+01  0.7818608E-02  0.3353728E+00
         11   -1    0    0    0    0  0.00000000000E+00  0.00000000000E+00  0.39999999674E+01  0.40000000000E+01  0.51100000000E-03 0. -1.
    9000002   -1    0    0    0    0 -0.00000000000E+00 -0.00000000000E+00  0.00000000000E+00  0.93800000000E+00  0.93800000000E+00 0.  1.
         11    1    1    2    0    0  0.55946430486E-01 -0.67593010071E-01  0.66181064629E+00  0.66760198529E+00  0.51100000000E-03 0. -1.
    9000002    1    1    2    0    0 -0.31242357962E+00  0.37698955120E+00  0.16383790840E+00  0.10707083987E+01  0.93800000000E+00 0.  1.
         22    1    1    2    0    0  0.25647714914E+00 -0.30939654112E+00  0.31743514127E+01  0.31996896160E+01  0.00000000000E+00 0. -1.
</event>
<event>
 5    1  0.1560836E+002  0.1562932E+01  0.7818608E-02  0.3394605E+00
         11   -1    0    0    0    0  0.00000000000E+00  0.00000000000E+00  0.39999999674E+01  0.40000000000E+01  0.51100000000E-03 0.  1.
    9000002   -1    0    0    0    0 -0.00000000000E+00 -0.00000000000E+00  0.00000000000E+00  0.93800000000E+00  0.93800000000E+00 0.  1.
         11    1    1    2    0    0 -0.81713911603E-01 -0.29778939918E-01  0.86633807984E-01  0.12275840671E+00  0.51100000000E-03 0.  1.
    9000002    1    1    2    0    0  0.36381808649E+00  0.29211917347E+00  0.18113277382E+00  0.10631793326E+01  0.93800000000E+00 0.  1.
         22    1    1    2    0    0 -0.28210417489E+00 -0.26234023355E+00  0.37322333856E+01  0.37520622607E+01  0.00000000000E+00 0.  1.
</event>
<event>
 5    1  0.1560836E+002  0.1598171E+01  0.7818608E-02  0.3355351E+00
         11   -1    0    0    0    0  0.00000000000E+00  0.00000000000E+00  0.39999999674E+01  0.40000000000E+01  0.51100000000E-03 0.  1.
    9000002   -1    0    0    0    0 -0.00000000000E+00 -0.00000000000E+00  0.00000000000E+00  0.93800000000E+00  0.93800000000E+00 0. -1.
         11    1    1    2    0    0 -0.12771478412E+00 -0.49253961571E-01  0.91802018929E+00  0.92816935302E+00  0.51100000000E-03 0.  1.
    9000002    1    1    2    0    0  0.37169098933E+00  0.19233281503E+00  0.11969926583E+00  0.10340783421E+01  0.93800000000E+00 0. -1.
         22    1    1    2    0    0 -0.24397620521E+00 -0.14307885346E+00  0.29622805122E+01  0.29757523049E+01  0.00000000000E+00 0.  1.
</event>
<event>
 5    1  0.1560836E+002  0.1599325E+01  0.7818608E-02  0.3354097E+00
         11   -1    0    0    0    0  0.00000000000E+00  0.00000000000E+00  0.39999999674E+01  0.40000000000E+01  0.51100000000E-03 0.  1.
    9000002   -1    0    0    0    0 -0.00000000000E+00 -0.00000000000E+00  0.00000000000E+00  0.93800000000E+00  0.93800000000E+00 0.  1.
         11    1    1    2    0    0  0.39462253775E-01 -0.60052947324E-01  0.10655674828E+01  0.10679878031E+01  0.51100000000E-03 0.  1.
    9000002    1    1    2    0    0 -0.14305450273E+00  0.29552472898E+00  0.72394267339E-01  0.99643584145E+00  0.93800000000E+00 0.  1.
         22    1    1    2    0    0  0.10359224896E+00 -0.23547178165E+00  0.28620382172E+01  0.28735763555E+01  0.00000000000E+00 0.  1.
</event>
<event>
 5    1  0.1560836E+002  0.1599655E+01  0.7818608E-02  0.3353738E+00
         11   -1    0    0    0    0  0.00000000000E+00  0.00000000000E+00  0.39999999674E+01  0.40000000000E+01  0.51100000000E-03 0. -1.
    9000002   -1    0    0    0    0 -0.00000000000E+00 -0.00000000000E+00  0.00000000000E+00  0.93800000000E+00  0.93800000000E+00 0.  1.
         11    1    1    2    0    0 -0.31699630915E-02 -0.42534066340E-04  0.30809782413E-01  0.30976673296E-01  0.51100000000E-03 0.  1.
    9000002    1    1    2    0    0  0.44560797261E+00 -0.92581272654E-01  0.14081091967E+00  0.10520501283E+01  0.93800000000E+00 0.  1.
         22    1    1    2    0    0 -0.44243800951E+00  0.92623806720E-01  0.38283792653E+01  0.38549731984E+01  0.00000000000E+00 0. -1.
</event>
<event>
 5    1  0.1560836E+002  0.1599676E+01  0.7818608E-02  0.3353716E+00
         11   -1    0    0    0    0  0.00000000000E+00  0.00000000000E+00  0.39999999674E+01  0.40000000000E+01  0.51100000000E-03 0. -1.
    9000002   -1    0    0    0    0 -0.00000000000E+00 -0.00000000000E+00  0.00000000000E+00  0.93800000000E+00  0.93800000000E+00 0. -1.
         11    1    1    2    0    0 -0.89722886832E-02 -0.14293665642E-02  0.11518735041E+00  0.11554623261E+00  0.51100000000E-03 0.  1.
    9000002    1    1    2    0    0  0.30522386957E+00  0.51181307111E-01  0.63955306210E-01  0.98980574758E+00  0.93800000000E+00 0. -1.
         22    1    1    2    0    0 -0.29625158089E+00 -0.49751940547E-01  0.38208573107E+01  0.38326480198E+01  0.00000000000E+00 0. -1.
</event>
<event>
 5    1  0.1742025E+002  0.1588544E+01  0.7818608E-02  0.3365892E+00
         11   -1    0    0    0    0  0.00000000000E+00  0.00000000000E+00  0.39999999674E+01  0.40000000000E+01  0.51100000000E-03 0.  1.
    9000002   -1    0    0    0    0 -0.00000000000E+00 -0.00000000000E+00  0.00000000000E+00  0.93800000000E+00  0.93800000000E+00 0. -1.
         11    1    1    2    0    0 -0.28000857681E-01 -0.71351225426E-01  0.90994373271E+00  0.91316641595E+00  0.51100000000E-03 0.  1.
    9000002    1    1    2    0    0 -0.76329455330E-01 -0.10983845277E+00  0.20034391366E-01  0.94770040007E+00  0.93800000000E+00 0. -1.
         22    1    1    2    0    0  0.10433031301E+00  0.18118967820E+00  0.30700218433E+01  0.30771331840E+01  0.00000000000E+00 0.  1.
</event>
<event>
 5    1  0.1560836E+002  0.1599635E+01  0.7818608E-02  0.3353759E+00
         11   -1    0    0    0    0  0.00000000000E+00  0.00000000000E+00  0.39999999674E+01  0.40000000000E+01  0.51100000000E-03 0. -1.
    9000002   -1    0    0    0    0 -0.00000000000E+00 -0.00000000000E+00  0.00000000000E+00  0.93800000000E+00  0.93800000000E+00 0. -1.
         11    1    1    2    0    0 -0.62987167906E-01 -0.61078489754E-03  0.93288136544E+00  0.93500570024E+00  0.51100000000E-03 0. -1.
    9000002    1    1    2    0    0  0.28529978592E+00 -0.17908821781E-01  0.54476581509E-01  0.98210406357E+00  0.93800000000E+00 0. -1.
         22    1    1    2    0    0 -0.22231261802E+00  0.18519606679E-01  0.30126420204E+01  0.30208902362E+01  0.00000000000E+00 0. -1.
</event>
<event>
 5    1  0.1560836E+002  0.1599665E+01  0.7818608E-02  0.3353728E+00
         11   -1    0    0    0    0  0.00000000000E+00  0.00000000000E+00  0.39999999674E+01  0.40000000000E+01  0.51100000000E-03 0.  1.
    9000002   -1    0    0    0    0 -0.00000000000E+00 -0.00000000000E+00  0.00000000000E+00  0.93800000000E+00  0.93800000000E+00 0. -1.
         11    1    1    2    0    0 -0.39251258461E-01 -0.64599137387E-01  0.63410490684E+00  0.63859455357E+00  0.51100000000E-03 0.  1.
    9000002    1    1    2    0    0  0.23695424044E+00  0.37487832257E+00  0.13346626154E+00  0.10461062622E+01  0.93800000000E+00 0. -1.
         22    1    1    2    0    0 -0.19770298198E+00 -0.31027918518E+00  0.32324287990E+01  0.32532991843E+01  0.00000000000E+00 0.  1.
</event>
<event>
 5    1  0.1560836E+002  0.1496285E+01  0.7818608E-02  0.3474245E+00
         11   -1    0    0    0    0  0.00000000000E+00  0.00000000000E+00  0.39999999674E+01  0.40000000000E+01  0.51100000000E-03 0.  1.
    9000002   -1    0    0    0    0 -0.00000000000E+00 -0.00000000000E+00  0.00000000000E+00  0.93800000000E+00  0.93800000000E+00 0. -1.
         11    1    1    2    0    0 -0.26050906066E+00 -0.36043729034E-01  0.29793993520E+00  0.39740733158E+00  0.51100000000E-03 0.  1.
    9000002    1    1    2    0    0  0.46758083699E+00 -0.15462418158E+00  0.26505435272E+00  0.10920797986E+01  0.93800000000E+00 0. -1.
         22    1    1    2    0    0 -0.20707177634E+00  0.19066791061E+00  0.34370056794E+01  0.34485128698E+01  0.00000000000E+00 0.  1.
</event>
<event>
 5    1  0.1560836E+002  0.1599641E+01  0.7818608E-02  0.3353754E+00
         11   -1    0    0    0    0  0.00000000000E+00  0.00000000000E+00  0.39999999674E+01  0.40000000000E+01  0.51100000000E-03 0.  1.
    9000002   -1    0    0    0    0 -0.00000000000E+00 -0.00000000000E+00  0.00000000000E+00  0.93800000000E+00  0.93800000000E+00 0.  1.
         11    1    1    2    0    0 -0.18119886060E-01  0.59165354961E-01  0.77358311343E+00  0.77605409863E+00  0.51100000000E-03 0.  1.
    9000002    1    1    2    0    0  0.63029233157E-01 -0.30432306735E+00  0.64527835160E-01  0.99024898640E+00  0.93800000000E+00 0.  1.
         22    1    1    2    0    0 -0.44909347096E-01  0.24515771239E+00  0.31618890188E+01  0.31716969150E+01  0.00000000000E+00 0.  1.
</event>
<event>
 5    1  0.1560836E+002  0.1598072E+01  0.7818608E-02  0.3355459E+00
         11   -1    0    0    0    0  0.00000000000E+00  0.00000000000E+00  0.39999999674E+01  0.40000000000E+01  0.51100000000E-03 0. -1.
    9000002   -1    0    0    0    0 -0.00000000000E+00 -0.00000000000E+00  0.00000000000E+00  0.93800000000E+00  0.93800000000E+00 0. -1.
         11    1    1    2    0    0  0.20035526249E-01  0.54083711957E-01  0.12661382052E+01  0.12674512559E+01  0.51100000000E-03 0. -1.
    9000002    1    1    2    0    0 -0.20078480074E+00 -0.14261029977E+00  0.41504773445E-01  0.97067959700E+00  0.93800000000E+00 0. -1.
         22    1    1    2    0    0  0.18074927449E+00  0.88526587811E-01  0.26923569887E+01  0.26998691471E+01  0.00000000000E+00 0. -1.
</event>
<event>
 5    1  0.1560836E+002  0.1599676E+01  0.7818608E-02  0.3353715E+00
         11   -1    0    0    0    0  0.00000000000E+00  0.00000000000E+00  0.39999999674E+01  0.40000000000E+01  0.51100000000E-03 0.  1.
    9000002   -1    0    0    0    0 -0.00000000000E+00 -0.00000000000E+00  0.00000000000E+00  0.93800000000E+00  0.93800000000E+00 0.  1.
         11    1    1    2    0    0  0.57301372053E-01 -0.86621721827E-01  0.13310522221E+01  0.13350981421E+01  0.51100000000E-03 0.  1.
    9000002    1    1    2    0    0 -0.16696139480E+00  0.25818404315E+00  0.63110662423E-01  0.98912186469E+00  0.93800000000E+00 0.  1.
         22    1    1    2    0    0  0.10966002275E+00 -0.17156232132E+00  0.26058370828E+01  0.26137799932E+01  0.00000000000E+00 0.  1.
</event>
<event>
 5    1  0.1560836E+002  0.1599110E+01  0.7818608E-02  0.3354330E+00
         11   -1    0    0    0    0  0.00000000000E+00  0.00000000000E+00  0.39999999674E+01  0.40000000000E+01  0.51100000000E-03 0.  1.
    9000002   -1    0    0    0    0 -0.00000000000E+00 -0.00000000000E+00  0.00000000000E+00  0.93800000000E+00  0.93800000000E+00 0. -1.
         11    1    1    2    0    0 -0.43516105048E-01 -0.16291600770E+00  0.15152234444E+01  0.15245778512E+01  0.51100000000E-03 0.  1.
    9000002    1    1    2    0    0  0.18223106958E+00  0.41238553019E+00  0.13856573970E+00  0.10499116403E+01  0.93800000000E+00 0. -1.
         22    1    1    2    0    0 -0.13871496453E+00 -0.24946952249E+00  0.23462107833E+01  0.23635105085E+01  0.00000000000E+00 0.  1.
</event>
<event>
 5    1  0.1560836E+002  0.1599675E+01  0.7818608E-02  0.3353717E+00
         11   -1    0    0    0    0  0.00000000000E+00  0.00000000000E+00  0.39999999674E+01  0.40000000000E+01  0.51100000000E-03 0.  1.
    9000002   -1    0    0    0    0 -0.00000000000E+00 -0.00000000000E+00  0.00000000000E+00  0.93800000000E+00  0.93800000000E+00 0. -1.
         11    1    1    2    0    0  0.23893444919E-01  0.54148877269E-02  0.23935648355E+00  0.24060757481E+00  0.51100000000E-03 0.  1.
    9000002    1    1    2    0    0 -0.37789954745E+00 -0.94305552385E-01  0.10219190971E+00  0.10207785223E+01  0.93800000000E+00 0. -1.
         22    1    1    2    0    0  0.35400610253E+00  0.88890664658E-01  0.36584515741E+01  0.36766139029E+01  0.00000000000E+00 0.  1.
</event>
<event>
 5    1  0.1560836E+002  0.1599577E+01  0.7818608E-02  0.3353823E+00
         11   -1    0    0    0    0  0.00000000000E+00  0.00000000000E+00  0.39999999674E+01  0.40000000000E+01  0.51100000000E-03 0. -1.
    9000002   -1    0    0    0    0 -0.00000000000E+00 -0.00000000000E+00  0.00000000000E+00  0.93800000000E+00  0.93800000000E+00 0.  1.
         11    1    1    2    0    0  0.14254961306E+00 -0.64751602440E+00  0.19099144168E+01  0.20217246930E+01  0.51100000000E-03 0. -1.
    9000002    1    1    2    0    0 -0.23868610980E+00  0.10438384468E+01  0.96558124972E+00  0.17201049131E+01  0.93800000000E+00 0.  1.
         22    1    1    2    0    0  0.96136496738E-01 -0.39632242243E+00  0.11245043009E+01  0.11961703939E+01  0.00000000000E+00 0. -1.
</event>
<event>
 5    1  0.1560836E+002  0.1581979E+01  0.7818608E-02  0.3373158E+00
         11   -1    0    0    0    0  0.00000000000E+00  0.00000000000E+00  0.39999999674E+01  0.40000000000E+01  0.51100000000E-03 0.  1.
    9000002   -1    0    0    0    0 -0.00000000000E+00 -0.00000000000E+00  0.00000000000E+00  0.93800000000E+00  0.93800000000E+00 0.  1.
         11    1    1    2    0    0 -0.74527885260E-01  0.40373076048E-01  0.16813403745E+01  0.16834756034E+01  0.51100000000E-03 0.  1.
    9000002    1    1    2    0    0  0.16665592696E+00 -0.45527126832E+00  0.17640472265E+00  0.10705179830E+01  0.93800000000E+00 0.  1.
         22    1    1    2    0    0 -0.92128041699E-01  0.41489819228E+00  0.21422548702E+01  0.21840064136E+01  0.00000000000E+00 0.  1.
</event>
<event>
 5    1  0.1560836E+002  0.1595703E+01  0.7818608E-02  0.3358040E+00
         11   -1    0    0    0    0  0.00000000000E+00  0.00000000000E+00  0.39999999674E+01  0.40000000000E+01  0.51100000000E-03 0.  1.
    9000002   -1    0    0    0    0 -0.00000000000E+00 -0.00000000000E+00  0.00000000000E+00  0.93800000000E+00  0.93800000000E+00 0.  1.
         11    1    1    2    0    0 -0.50498875471E-02 -0.29559873849E-01  0.59396598699E+00  0.59472274409E+00  0.51100000000E-03 0.  1.
    9000002    1    1    2    0    0  0.69172035971E-01 -0.16237205657E+00  0.23554878478E-01  0.95475037974E+00  0.93800000000E+00 0.  1.
         22    1    1    2    0    0 -0.64122148424E-01  0.19193193042E+00  0.33824791019E+01  0.33885268762E+01  0.00000000000E+00 0.  1.
</event>
<event>
 5    1  0.1560836E+002  0.1599538E+01  0.7818608E-02  0.3353865E+00
         11   -1    0    0    0    0  0.00000000000E+00  0.00000000000E+00  0.39999999674E+01  0.40000000000E+01  0.51100000000E-03 0. -1.
    9000002   -1    0    0    0    0 -0.00000000000E+00 -0.00000000000E+00  0.00000000000E+00  0.93800000000E+00  0.93800000000E+00 0. -1.
         11    1    1    2    0    0 -0.53368667988E-01  0.34825815976E-01  0.11128507316E+01  0.11146739721E+01  0.51100000000E-03 0. -1.
    9000002    1    1    2    0    0  0.20742472845E+00 -0.16542288785E+00  0.46922735704E-01  0.97592801626E+00  0.93800000000E+00 0. -1.
         22    1    1    2    0    0 -0.15405606046E+00  0.13059707188E+00  0.28402265001E+01  0.28473980116E+01  0.00000000000E+00 0. -1.
</event>
<event>
 5    1  0.1560836E+002  0.1599625E+01  0.7818608E-02  0.3353770E+00
         11   -1    0    0    0    0  0.00000000000E+00  0.00000000000E+00  0.39999999674E+01  0.40000000000E+01  0.51100000000E-03 0.  1.
    9000002   -1    0    0    0    0 -0.00000000000E+00 -0.00000000000E+00  0.00000000000E+00  0.93800000000E+00  0.93800000000E+00 0.  1.
         11    1    1    2    0    0 -0.11384457441E-02 -0.23743427222E-02  0.23682188885E-01  0.23833605549E-01  0.51100000000E-03 0.  1.
    9000002    1    1    2    0    0  0.16726607809E+00  0.19054131102E+00  0.42754549039E-01  0.97260263394E+00  0.93800000000E+00 0.  1.
         22    1    1    2    0    0 -0.16612763235E+00 -0.18816696830E+00  0.39335632294E+01  0.39415637605E+01  0.00000000000E+00 0.  1.
</event>
<event>
 5    1  0.1560836E+002  0.1594217E+01  0.7818608E-02  0.3359664E+00
         11   -1    0    0    0    0  0.00000000000E+00  0.00000000000E+00  0.39999999674E+01  0.40000000000E+01  0.51100000000E-03 0.  1.
    9000002   -1    0    0    0    0 -0.00000000000E+00 -0.00000000000E+00  0.00000000000E+00  0.93800000000E+00  0.93800000000E+00 0. -1.
         11    1    1    2    0    0  0.79804377252E-01 -0.14409968627E+00  0.88595511583E+00  0.90113827274E+00  0.51100000000E-03 0.  1.
    9000002    1    1    2    0    0 -0.29017550596E-01  0.53684897377E+00  0.20429468537E+00  0.11002859434E+01  0.93800000000E+00 0. -1.
         22    1    1    2    0    0 -0.50786826656E-01 -0.39274928750E+00  0.29097501662E+01  0.29365757838E+01  0.00000000000E+00 0.  1.
</event>
<event>
 5    1  0.1560836E+002  0.1599611E+01  0.7818608E-02  0.3353785E+00
         11   -1    0    0    0    0  0.00000000000E+00  0.00000000000E+00  0.39999999674E+01  0.40000000000E+01  0.51100000000E-03 0. -1.
    9000002   -1    0    0    0    0 -0.00000000000E+00 -0.00000000000E+00  0.00000000000E+00  0.93800000000E+00  0.93800000000E+00 0. -1.
         11    1    1    2    0    0  0.13915825984E-02  0.50008191284E-02  0.10810113910E+00  0.10822690095E+00  0.51100000000E-03 0. -1.
    9000002    1    1    2    0    0 -0.16135262416E+00 -0.15062477332E+00  0.32347387348E-01  0.96416432475E+00  0.93800000000E+00 0. -1.
         22    1    1    2    0    0  0.15996104156E+00  0.14562395419E+00  0.38595514409E+01  0.38656087743E+01  0.00000000000E+00 0. -1.
</event>
<event>
 5    1  0.1560836E+002  0.1594844E+01  0.7818608E-02  0.3358979E+00
         11   -1    0    0    0    0  0.00000000000E+00  0.00000000000E+00  0.39999999674E+01  0.40000000000E+01  0.51100000000E-03 0.  1.
    9000002   -1    0    0    0    0 -0.00000000000E+00 -0.00000000000E+00  0.00000000000E+00  0.93800000000E+00  0.93800000000E+00 0.  1.
         11    1    1    2    0    0 -0.50709937242E+00 -0.25441152253E+00  0.21103168137E+01  0.21852487986E+01  0.51100000000E-03 0.  1.
    9000002    1    1    2    0    0  0.77003234089E+00  0.30091511564E+00  0.51478296486E+00  0.13521631609E+01  0.93800000000E+00 0.  1.
         22    1    1    2    0    0 -0.26293296847E+00 -0.46503593108E-01  0.13749001888E+01  0.14005880405E+01  0.00000000000E+00 0. -1.
</event>
<event>
 5    1  0.1560836E+002  0.1597630E+01  0.7818608E-02  0.3355939E+00
         11   -1    0    0    0    0  0.00000000000E+00  0.00000000000E+00  0.39999999674E+01  0.40000000000E+01  0.51100000000E-03 0.  1.
    9000002   -1    0    0    0    0 -0.00000000000E+00 -0.00000000000E+00  0.00000000000E+00  0.93800000000E+00  0.93800000000E+00 0.  1.
         11    1    1    2    0    0 -0.12822045226E-01  0.10716798893E-01  0.68419800138E-01  0.70432838890E-01  0.51100000000E-03 0.  1.
    9000002    1    1    2    0    0  0.10967377090E-01 -0.23311163684E+00  0.37688353959E-01  0.96732917387E+00  0.93800000000E+00 0.  1.
         22    1    1    2    0    0  0.18546681357E-02  0.22239483794E+00  0.38938918133E+01  0.39002379872E+01  0.00000000000E+00 0.  1.
</event>
<event>
 5    1  0.1560836E+002  0.1596800E+01  0.7818608E-02  0.3356844E+00
         11   -1    0    0    0    0  0.00000000000E+00  0.00000000000E+00  0.39999999674E+01  0.40000000000E+01  0.51100000000E-03 0. -1.
    9000002   -1    0    0    0    0 -0.00000000000E+00 -0.00000000000E+00  0.00000000000E+00  0.93800000000E+00  0.93800000000E+00 0.  1.
         11    1    1    2    0    0 -0.13693773504E-01  0.10646274645E-01  0.77252447641E-01  0.79177423450E-01  0.51100000000E-03 0. -1.
    9000002    1    1    2    0    0  0.19331831674E+00  0.22160565454E+00  0.59909451757E-01  0.98484221077E+00  0.93800000000E+00 0.  1.
         22    1    1    2    0    0 -0.17962454323E+00 -0.23225192918E+00  0.38628380680E+01  0.38739803658E+01  0.00000000000E+00 0. -1.
</event>
<event>
 5    1  0.1560836E+002  0.1559751E+01  0.7818608E-02  0.3398241E+00
         11   -1    0    0    0    0  0.00000000000E+00  0.00000000000E+00  0.39999999674E+01  0.40000000000E+01  0.51100000000E-03 0. -1.
    9000002   -1    0    0    0    0 -0.00000000000E+00 -0.00000000000E+00  0.00000000000E+00  0.93800000000E+00  0.93800000000E+00 0. -1.
         11    1    1    2    0    0 -0.96700939109E-01 -0.18869980136E+00  0.93697842294E+00  0.96067034555E+00  0.51100000000E-03 0. -1.
    9000002    1    1    2    0    0  0.12451319726E+00 -0.21041502345E-01  0.40412208562E-01  0.94732435191E+00  0.93800000000E+00 0. -1.
         22    1    1    2    0    0 -0.27812258152E-01  0.20974130370E+00  0.30226093359E+01  0.30300053025E+01  0.00000000000E+00 0. -1.
</event>
<event>
 5    1  0.1560836E+002  0.1599676E+01  0.7818608E-02  0.3353715E+00
         11   -1    0    0    0    0  0.00000000000E+00  0.00000000000E+00  0.39999999674E+01  0.40000000000E+01  0.51100000000E-03 0. -1.
    9000002   -1    0    0    0    0 -0.00000000000E+00 -0.00000000000E+00  0.00000000000E+00  0.93800000000E+00  0.93800000000E+00 0.  1.
         11    1    1    2    0    0  0.48466742715E-01 -0.15241384202E-01  0.69824437316E+00  0.70009055894E+00  0.51100000000E-03 0. -1.
    9000002    1    1    2    0    0 -0.27124081135E+00  0.88581655684E-01  0.54243474844E-01  0.98193922522E+00  0.93800000000E+00 0.  1.
         22    1    1    2    0    0  0.22277406864E+00 -0.73340271482E-01  0.32475121194E+01  0.32559702158E+01  0.00000000000E+00 0. -1.
</event>
<event>
 5    1  0.1560836E+002  0.1599648E+01  0.7818608E-02  0.3353746E+00
         11   -1    0    0    0    0  0.00000000000E+00  0.00000000000E+00  0.39999999674E+01  0.40000000000E+01  0.51100000000E-03 0. -1.
    9000002   -1    0    0    0    0 -0.00000000000E+00 -0.00000000000E+00  0.00000000000E+00  0.93800000000E+00  0.93800000000E+00 0.  1.
         11    1    1    2    0    0  0.50402191974E-02  0.13406798609E-02  0.77624425124E-01  0.77801116502E-01  0.51100000000E-03 0. -1.
    9000002    1    1    2    0    0 -0.19204535951E+00 -0.12858604852E+00  0.35456616931E-01  0.96670417588E+00  0.93800000000E+00 0.  1.
         22    1    1    2    0    0  0.18700514031E+00  0.12724536866E+00  0.38869189253E+01  0.38934947076E+01  0.00000000000E+00 0. -1.
</event>
<event>
 5    1  0.1560836E+002  0.1599677E+01  0.7818608E-02  0.3353714E+00
         11   -1    0    0    0    0  0.00000000000E+00  0.00000000000E+00  0.39999999674E+01  0.40000000000E+01  0.51100000000E-03 0.  1.
    9000002   -1    0    0    0    0 -0.00000000000E+00 -0.00000000000E+00  0.00000000000E+00  0.93800000000E+00  0.93800000000E+00 0. -1.
         11    1    1    2    0    0  0.63515253512E-01 -0.19257035434E+00  0.12181169351E+01  0.12348792077E+01  0.51100000000E-03 0.  1.
    9000002    1    1    2    0    0 -0.19499424483E+00  0.58988299924E+00  0.27055943246E+00  0.11571651199E+01  0.93800000000E+00 0.  1.
         22    1    1    2    0    0  0.13147899132E+00 -0.39731264491E+00  0.25113235998E+01  0.25459556724E+01  0.00000000000E+00 0.  1.
</event>
<event>
 5    1  0.1560836E+002  0.1502341E+01  0.7818608E-02  0.3466694E+00
         11   -1    0    0    0    0  0.00000000000E+00  0.00000000000E+00  0.39999999674E+01  0.40000000000E+01  0.51100000000E-03 0. -1.
    9000002   -1    0    0    0    0 -0.00000000000E+00 -0.00000000000E+00  0.00000000000E+00  0.93800000000E+00  0.93800000000E+00 0. -1.
         11    1    1    2    0    0  0.17154465231E+00 -0.19355845337E+00  0.65349527256E+00  0.70281489383E+00  0.51100000000E-03 0. -1.
    9000002    1    1    2    0    0 -0.21215983363E+00 -0.33437568590E+00  0.19145206372E+00  0.10360100323E+01  0.93800000000E+00 0. -1.
         22    1    1    2    0    0  0.40615181311E-01  0.52793413928E+00  0.31550526311E+01  0.31991750739E+01  0.00000000000E+00 0. -1.
</event>
<event>
 5    1  0.1560836E+002  0.1599676E+01  0.7818608E-02  0.3353715E+00
         11   -1    0    0    0    0  0.00000000000E+00  0.00000000000E+00  0.39999999674E+01  0.40000000000E+01  0.51100000000E-03 0. -1.
    9000002   -1    0    0    0    0 -0.00000000000E+00 -0.00000000000E+00  0.00000000000E+00  0.93800000000E+00  0.93800000000E+00 0. -1.
         11    1    1    2    0    0 -0.89448414312E-01 -0.91368130759E-02  0.37755288287E+00  0.38811202076E+00  0.51100000000E-03 0.  1.
    9000002    1    1    2    0    0  0.82872313601E+00  0.80096683095E-01  0.51652309553E+00  0.13564061424E+01  0.93800000000E+00 0. -1.
         22    1    1    2    0    0 -0.73927472170E+00 -0.70959870019E-01  0.31059239890E+01  0.31934818369E+01  0.00000000000E+00 0. -1.
</event>
<event>
 5    1  0.1560836E+002  0.1599675E+01  0.7818608E-02  0.3353716E+00
         11   -1    0    0    0    0  0.00000000000E+00  0.00000000000E+00  0.39999999674E+01  0.40000000000E+01  0.51100000000E-03 0.  1.
    9000002   -1    0    0    0    0 -0.00000000000E+00 -0.00000000000E+00  0.00000000000E+00  0.93800000000E+00  0.93800000000E+00 0. -1.
         11    1    1    2    0    0 -0.23552958464E-01 -0.21462168863E-01  0.51802171437E+00  0.51900108307E+00  0.51100000000E-03 0.  1.
    9000002    1    1    2    0    0  0.17629411106E+00  0.17080837855E+00  0.40014475686E-01  0.97041242471E+00  0.93800000000E+00 0. -1.
         22    1    1    2    0    0 -0.15274115259E+00 -0.14934620969E+00  0.34419637773E+01  0.34485864922E+01  0.00000000000E+00 0.  1.
</event>
<event>
 5    1  0.1560836E+002  0.1596529E+01  0.7818608E-02  0.3357139E+00
         11   -1    0    0    0    0  0.00000000000E+00  0.00000000000E+00  0.39999999674E+01  0.40000000000E+01  0.51100000000E-03 0. -1.
    9000002   -1    0    0    0    0 -0.00000000000E+00 -0.00000000000E+00  0.00000000000E+00  0.93800000000E+00  0.93800000000E+00 0.  1.
         11    1    1    2    0    0  0.11846338283E+00  0.99055102530E-01  0.12976928232E+01  0.13068482738E+01  0.51100000000E-03 0. -1.
    9000002    1    1    2    0    0 -0.17138600309E+00 -0.34816832125E+00  0.10402815589E+00  0.10204215792E+01  0.93800000000E+00 0.  1.
         22    1    1    2    0    0  0.52922620260E-01  0.24911321872E+00  0.25982789883E+01  0.26107301470E+01  0.00000000000E+00 0. -1.
</event>
<event>
 5    1  0.1560836E+002  0.1599618E+01  0.7818608E-02  0.3353779E+00
         11   -1    0    0    0    0  0.00000000000E+00  0.00000000000E+00  0.39999999674E+01  0.40000000000E+01  0.51100000000E-03 0. -1.
    9000002   -1    0    0    0    0 -0.00000000000E+00 -0.00000000000E+00  0.00000000000E+00  0.93800000000E+00  0.93800000000E+00 0.  1.
         11    1    1    2    0    0 -0.40635442831E+00  0.47722671184E+00  0.16563843603E+01  0.17710106341E+01  0.51100000000E-03 0. -1.
    9000002    1    1    2    0    0  0.73102069536E+00 -0.83350241832E+00  0.10660178722E+01  0.18014870641E+01  0.93800000000E+00 0.  1.
         22    1    1    2    0    0 -0.32466626705E+00  0.35627570648E+00  0.12775977349E+01  0.13655023018E+01  0.00000000000E+00 0. -1.
</event>
<event>
 5    1  0.1560836E+002  0.1599273E+01  0.7818608E-02  0.3354152E+00
         11   -1    0    0    0    0  0.00000000000E+00  0.00000000000E+00  0.39999999674E+01  0.40000000000E+01  0.51100000000E-03 0. -1.
    9000002   -1    0    0    0    0 -0.00000000000E+00 -0.00000000000E+00  0.00000000000E+00  0.93800000000E+00  0.93800000000E+00 0. -1.
         11    1    1    2    0    0  0.81144657438E-01  0.47211188764E-01  0.12353559687E+01  0.12389180693E+01  0.51100000000E-03 0. -1.
    9000002    1    1    2    0    0 -0.31273240161E+00 -0.19369687718E+00  0.91246257166E-01  0.10116767837E+01  0.93800000000E+00 0. -1.
         22    1    1    2    0    0  0.23158774417E+00  0.14648568842E+00  0.26733977415E+01  0.26874051470E+01  0.00000000000E+00 0. -1.
</event>
<event>
 5    1  0.1560836E+002  0.1555630E+01  0.7818608E-02  0.3402975E+00
         11   -1    0    0    0    0  0.00000000000E+00  0.00000000000E+00  0.39999999674E+01  0.40000000000E+01  0.51100000000E-03 0. -1.
    9000002   -1    0    0    0    0 -0.00000000000E+00 -0.00000000000E+00  0.00000000000E+00  0.93800000000E+00  0.93800000000E+00 0.  1.
         11    1    1    2    0    0 -0.37858497901E+00  0.38230274041E+00  0.10022642952E+01  0.11375482189E+01  0.51100000000E-03 0. -1.
    9000002    1    1    2    0    0  0.75912685772E+00 -0.57411211480E+00  0.79083927971E+00  0.15527875170E+01  0.93800000000E+00 0.  1.
         22    1    1    2    0    0 -0.38054187870E+00  0.19180937439E+00  0.22068963924E+01  0.22476642642E+01  0.00000000000E+00 0. -1.
</event>
<event>
 5    1  0.1560836E+002  0.1584296E+01  0.7818608E-02  0.3370586E+00
         11   -1    0    0    0    0  0.00000000000E+00  0.00000000000E+00  0.39999999674E+01  0.40000000000E+01  0.51100000000E-03 0.  1.
    9000002   -1    0    0    0    0 -0.00000000000E+00 -0.00000000000E+00  0.00000000000E+00  0.93800000000E+00  0.93800000000E+00 0.  1.
         11    1    1    2    0    0 -0.27135540455E-01 -0.81637374683E-01  0.59910616706E+00  0.60525156673E+00  0.51100000000E-03 0.  1.
    9000002    1    1    2    0    0  0.11467290887E-01 -0.14700290246E+00  0.25785734488E-01  0.94986854680E+00  0.93800000000E+00 0.  1.
         22    1    1    2    0    0  0.15668249568E-01  0.22864027714E+00  0.33751080658E+01  0.33828798865E+01  0.00000000000E+00 0.  1.
</event>
<event>
 5    1  0.1560836E+002  0.1598477E+01  0.7818608E-02  0.3355018E+00
         11   -1    0    0    0    0  0.00000000000E+00  0.00000000000E+00  0.39999999674E+01  0.40000000000E+01  0.51100000000E-03 0. -1.
    9000002   -1    0    0    0    0 -0.00000000000E+00 -0.00000000000E+00  0.00000000000E+00  0.93800000000E+00  0.93800000000E+00 0. -1.
         11    1    1    2    0    0  0.19961090768E-01  0.14683561187E+00  0.10907161126E+01  0.11007365904E+01  0.51100000000E-03 0. -1.
    9000002    1    1    2    0    0  0.32884267298E-01 -0.43688514734E+00  0.13117232805E+00  0.10435517173E+01  0.93800000000E+00 0. -1.
         22    1    1    2    0    0 -0.52845358066E-01  0.29004953548E+00  0.27781115267E+01  0.27937116923E+01  0.00000000000E+00 0. -1.
</event>
<event>
 5    1  0.1560836E+002  0.1599675E+01  0.7818608E-02  0.3353717E+00
         11   -1    0    0    0    0  0.00000000000E+00  0.00000000000E+00  0.39999999674E+01  0.40000000000E+01  0.51100000000E-03 0. -1.
    9000002   -1    0    0    0    0 -0.00000000000E+00 -0.00000000000E+00  0.00000000000E+00  0.93800000000E+00  0.93800000000E+00 0.  1.
         11    1    1    2    0    0 -0.14136731645E-01  0.22361009520E+00  0.16373596103E+01  0.16526185514E+01  0.51100000000E-03 0. -1.
    9000002    1    1    2    0    0  0.29957821164E-01 -0.51786809628E+00  0.18479996893E+00  0.10876947479E+01  0.93800000000E+00 0.  1.
         22    1    1    2    0    0 -0.15821089520E-01  0.29425800109E+00  0.21778403881E+01  0.21976867007E+01  0.00000000000E+00 0.  1.
</event>
<event>
 5    1  0.1560836E+002  0.1598435E+01  0.7818608E-02  0.3355064E+00
         11   -1    0    0    0    0  0.00000000000E+00  0.00000000000E+00  0.39999999674E+01  0.40000000000E+01  0.51100000000E-03 0.  1.
    9000002   -1    0    0    0    0 -0.00000000000E+00 -0.00000000000E+00  0.00000000000E+00  0.93800000000E+00  0.93800000000E+00 0. -1.
         11    1    1    2    0    0  0.58595074152E-02 -0.84677851738E-02  0.33290963933E+00  0.33306925150E+00  0.51100000000E-03 0.  1.
    9000002    1    1    2    0    0  0.73991851865E-01  0.33889310173E+00  0.81649463912E-01  0.10034111637E+01  0.93800000000E+00 0. -1.
         22    1    1    2    0    0 -0.79851359280E-01 -0.33042531656E+00  0.35854408641E+01  0.36015195848E+01  0.00000000000E+00 0.  1.
</event>
<event>
 5    1  0.1560836E+002  0.1599166E+01  0.7818608E-02  0.3354269E+00
         11   -1    0    0    0    0  0.00000000000E+00  0.00000000000E+00  0.39999999674E+01  0.40000000000E+01  0.51100000000E-03 0. -1.
    9000002   -1    0    0    0    0 -0.00000000000E+00 -0.00000000000E+00  0.00000000000E+00  0.93800000000E+00  0.93800000000E+00 0.  1.
         11    1    1    2    0    0 -0.79590259741E-02  0.21169397335E-01  0.37237444278E+00  0.37306095512E+00  0.51100000000E-03 0. -1.
    9000002    1    1    2    0    0  0.21426143275E+00 -0.11712580158E+00  0.39981105252E-01  0.97008705988E+00  0.93800000000E+00 0.  1.
         22    1    1    2    0    0 -0.20630240678E+00  0.95956404249E-01  0.35876444193E+01  0.35948519850E+01  0.00000000000E+00 0. -1.
</event>
<event>
 5    1  0.1560836E+002  0.1599674E+01  0.7818608E-02  0.3353717E+00
         11   -1    0    0    0    0  0.00000000000E+00  0.00000000000E+00  0.39999999674E+01  0.40000000000E+01  0.51100000000E-03 0.  1.
    9000002   -1    0    0    0    0 -0.00000000000E+00 -0.00000000000E+00  0.00000000000E+00  0.93800000000E+00  0.93800000000E+00 0.  1.
         11    1    1    2    0    0  0.13715667880E+00 -0.18033257793E+00  0.17048527190E+01  0.17198415183E+01  0.51100000000E-03 0.  1.
    9000002    1    1    2    0    0 -0.30295254546E+00  0.40457137308E+00  0.17503886830E+00  0.10797874078E+01  0.93800000000E+00 0.  1.
         22    1    1    2    0    0  0.16579586666E+00 -0.22423879515E+00  0.21201083800E+01  0.21383710739E+01  0.00000000000E+00 0.  1.
</event>
<event>
 5    1  0.1560836E+002  0.1599566E+01  0.7818608E-02  0.3353834E+00
         11   -1    0    0    0    0  0.00000000000E+00  0.00000000000E+00  0.39999999674E+01  0.40000000000E+01  0.51100000000E-03 0. -1.
    9000002   -1    0    0    0    0 -0.00000000000E+00 -0.00000000000E+00  0.00000000000E+00  0.93800000000E+00  0.93800000000E+00 0.  1.
         11    1    1    2    0    0  0.92840028256E-02  0.10145274957E+00  0.57616612529E+00  0.58510385246E+00  0.51100000000E-03 0. -1.
    9000002    1    1    2    0    0 -0.67184964138E-01 -0.70072694261E+00  0.35464640851E+00  0.12252143252E+01  0.93800000000E+00 0.  1.
         22    1    1    2    0    0  0.57900961313E-01  0.59927419304E+00  0.30691874336E+01  0.31276818224E+01  0.00000000000E+00 0. -1.
</event>
<event>
 5    1  0.1560836E+002  0.1556213E+01  0.7818608E-02  0.3402304E+00
         11   -1    0    0    0    0  0.00000000000E+00  0.00000000000E+00  0.39999999674E+01  0.40000000000E+01  0.51100000000E-03 0.  1.
    9000002   -1    0    0    0    0 -0.00000000000E+00 -0.00000000000E+00  0.00000000000E+00  0.93800000000E+00  0.93800000000E+00 0.  1.
         11    1    1    2    0    0  0.18346855732E+00  0.21864546563E+00  0.21852021372E+01  0.22037638696E+01  0.51100000000E-03 0.  1.
    9000002    1    1    2    0    0  0.83213486462E-01 -0.21919277254E+00  0.70232439752E-01  0.96940525657E+00  0.93800000000E+00 0.  1.
         22    1    1    2    0    0 -0.26668204379E+00  0.54730691739E-03  0.17445653904E+01  0.17648308739E+01  0.00000000000E+00 0.  1.
</event>
<event>
 5    1  0.1560836E+002  0.1599672E+01  0.7818608E-02  0.3353719E+00
         11   -1    0    0    0    0  0.00000000000E+00  0.00000000000E+00  0.39999999674E+01  0.40000000000E+01  0.51100000000E-03 0.  1.
    9000002   -1    0    0    0    0 -0.00000000000E+00 -0.00000000000E+00  0.00000000000E+00  0.93800000000E+00  0.93800000000E+00 0. -1.
         11    1    1    2    0    0  0.32449546306E+00  0.16916487217E+00  0.24206986151E+01  0.24482026276E+01  0.51100000000E-03 0.  1.
    9000002    1    1    2    0    0 -0.50950420157E+00 -0.26396736285E+00  0.22849489736E+00  0.11230882504E+01  0.93800000000E+00 0. -1.
         22    1    1    2    0    0  0.18500873851E+00  0.94802490677E-01  0.13508064549E+01  0.13667091220E+01  0.00000000000E+00 0.  1.
</event>
<event>
 5    1  0.1560836E+002  0.1599677E+01  0.7818608E-02  0.3353714E+00
         11   -1    0    0    0    0  0.00000000000E+00  0.00000000000E+00  0.39999999674E+01  0.40000000000E+01  0.51100000000E-03 0. -1.
    9000002   -1    0    0    0    0 -0.00000000000E+00 -0.00000000000E+00  0.00000000000E+00  0.93800000000E+00  0.93800000000E+00 0. -1.
         11    1    1    2    0    0  0.25360797866E-03  0.52270232162E-01  0.48669500332E+00  0.48949415611E+00  0.51100000000E-03 0.  1.
    9000002    1    1    2    0    0  0.43728030933E-03 -0.41613018521E+00  0.11705105037E+00  0.10328162812E+01  0.93800000000E+00 0. -1.
         22    1    1    2    0    0 -0.69088828799E-03  0.36385995305E+00  0.33962539137E+01  0.34156895627E+01  0.00000000000E+00 0. -1.
</event>
<event>
 5    1  0.1560836E+002  0.1594265E+01  0.7818608E-02  0.3359611E+00
         11   -1    0    0    0    0  0.00000000000E+00  0.00000000000E+00  0.39999999674E+01  0.40000000000E+01  0.51100000000E-03 0.  1.
    9000002   -1    0    0    0    0 -0.00000000000E+00 -0.00000000000E+00  0.00000000000E+00  0.93800000000E+00  0.93800000000E+00 0.  1.
         11    1    1    2    0    0  0.35588635792E+00  0.18281503003E+00  0.19561594194E+01  0.19966562974E+01  0.51100000000E-03 0.  1.
    9000002    1    1    2    0    0 -0.50814114963E+00 -0.35416788767E+00  0.27432028337E+00  0.11570384343E+01  0.93800000000E+00 0.  1.
         22    1    1    2    0    0  0.15225479172E+00  0.17135285764E+00  0.17695202646E+01  0.17843052683E+01  0.00000000000E+00 0.  1.
</event>
<event>
 5    1  0.1560836E+002  0.1597949E+01  0.7818608E-02  0.3355593E+00
         11   -1    0    0    0    0  0.00000000000E+00  0.00000000000E+00  0.39999999674E+01  0.40000000000E+01  0.51100000000E-03 0.  1.
    9000002   -1    0    0    0    0 -0.00000000000E+00 -0.00000000000E+00  0.00000000000E+00  0.93800000000E+00  0.93800000000E+00 0. -1.
         11    1    1    2    0    0 -0.32426433802E-01  0.53027097063E-01  0.53269482468E+00  0.53630903777E+00  0.51100000000E-03 0.  1.
    9000002    1    1    2    0    0  0.46342452489E+00 -0.29184841105E+00  0.20870491186E+00  0.11060468008E+01  0.93800000000E+00 0. -1.
         22    1    1    2    0    0 -0.43099809109E+00  0.23882131399E+00  0.32586002308E+01  0.32956441614E+01  0.00000000000E+00 0.  1.
</event>
<event>
 5    1  0.1560836E+002  0.1599677E+01  0.7818608E-02  0.3353714E+00
         11   -1    0    0    0    0  0.00000000000E+00  0.00000000000E+00  0.39999999674E+01  0.40000000000E+01  0.51100000000E-03 0.  1.
    9000002   -1    0    0    0    0 -0.00000000000E+00 -0.00000000000E+00  0.00000000000E+00  0.93800000000E+00  0.93800000000E+00 0. -1.
         11    1    1    2    0    0  0.24083564242E+00  0.17047999664E+00  0.21220212823E+01  0.21424378216E+01  0.51100000000E-03 0.  1.
    9000002    1    1    2    0    0 -0.43159451079E+00 -0.30511931630E+00  0.19219835722E+00  0.10936890909E+01  0.93800000000E+00 0. -1.
         22    1    1    2    0    0  0.19075886837E+00  0.13463931966E+00  0.16857803279E+01  0.17018730876E+01  0.00000000000E+00 0.  1.
</event>
<event>
 5    1  0.1560836E+002  0.1598988E+01  0.7818608E-02  0.3354463E+00
         11   -1    0    0    0    0  0.00000000000E+00  0.00000000000E+00  0.39999999674E+01  0.40000000000E+01  0.51100000000E-03 0.  1.
    9000002   -1    0    0    0    0 -0.00000000000E+00 -0.00000000000E+00  0.00000000000E+00  0.93800000000E+00  0.93800000000E+00 0. -1.
         11    1    1    2    0    0 -0.17665910127E-01  0.22244155330E-01  0.42204617324E+00  0.42300132422E+00  0.51100000000E-03 0.  1.
    9000002    1    1    2    0    0  0.23940479105E+00 -0.41306616694E-01  0.39711493737E-01  0.96976383377E+00  0.93800000000E+00 0. -1.
         22    1    1    2    0    0 -0.22173888092E+00  0.19062461364E-01  0.35382423004E+01  0.35452348420E+01  0.00000000000E+00 0.  1.
</event>
<event>
 5    1  0.1560836E+002  0.1599650E+01  0.7818608E-02  0.3353743E+00
         11   -1    0    0    0    0  0.00000000000E+00  0.00000000000E+00  0.39999999674E+01  0.40000000000E+01  0.51100000000E-03 0. -1.
    9000002   -1    0    0    0    0 -0.00000000000E+00 -0.00000000000E+00  0.00000000000E+00  0.93800000000E+00  0.93800000000E+00 0.  1.
         11    1    1    2    0    0 -0.32298953560E+00  0.38741964519E+00  0.23064532107E+01  0.23609622817E+01  0.51100000000E-03 0. -1.
    9000002    1    1    2    0    0  0.49127875714E+00 -0.60362668585E+00  0.44302859204E+00  0.12968570956E+01  0.93800000000E+00 0.  1.
         22    1    1    2    0    0 -0.16828922154E+00  0.21620704066E+00  0.12505181646E+01  0.12801806226E+01  0.00000000000E+00 0. -1.
</event>
<event>
 5    1  0.1560836E+002  0.1578793E+01  0.7818608E-02  0.3376707E+00
         11   -1    0    0    0    0  0.00000000000E+00  0.00000000000E+00  0.39999999674E+01  0.40000000000E+01  0.51100000000E-03 0.  1.
    9000002   -1    0    0    0    0 -0.00000000000E+00 -0.00000000000E+00  0.00000000000E+00  0.93800000000E+00  0.93800000000E+00 0.  1.
         11    1    1    2    0    0  0.10979774122E+00 -0.32452518466E-01  0.94377197879E+00  0.95069160036E+00  0.51100000000E-03 0.  1.
    9000002    1    1    2    0    0  0.14527232686E+00 -0.23431653504E-02  0.29491302566E-01  0.94964376284E+00  0.93800000000E+00 0.  1.
         22    1    1    2    0    0 -0.25507006808E+00  0.34795683817E-01  0.30267366860E+01  0.30376646368E+01  0.00000000000E+00 0.  1.
</event>
<event>
 5    1  0.1560836E+002  0.1599677E+01  0.7818608E-02  0.3353714E+00
         11   -1    0    0    0    0  0.00000000000E+00  0.00000000000E+00  0.39999999674E+01  0.40000000000E+01  0.51100000000E-03 0.  1.
    9000002   -1    0    0    0    0 -0.00000000000E+00 -0.00000000000E+00  0.00000000000E+00  0.93800000000E+00  0.93800000000E+00 0.  1.
         11    1    1    2    0    0  0.33127071761E-02 -0.37874760228E+00  0.15983138179E+01  0.16425796912E+01  0.51100000000E-03 0.  1.
    9000002    1    1    2    0    0 -0.69167690198E-02  0.82778229404E+00  0.50972882189E+00  0.13509029721E+01  0.93800000000E+00 0.  1.
         22    1    1    2    0    0  0.36040618438E-02 -0.44903469176E+00  0.18919573275E+01  0.19445173367E+01  0.00000000000E+00 0.  1.
</event>
<event>
 5    1  0.1560836E+002  0.1599677E+01  0.7818608E-02  0.3353714E+00
         11   -1    0    0    0    0  0.00000000000E+00  0.00000000000E+00  0.39999999674E+01  0.40000000000E+01  0.51100000000E-03 0.  1.
    9000002   -1    0    0    0    0 -0.00000000000E+00 -0.00000000000E+00  0.00000000000E+00  0.93800000000E+00  0.93800000000E+00 0.  1.
         11    1    1    2    0    0  0.31620731766E+00  0.25317087400E+00  0.24464789482E+01  0.24797866973E+01  0.51100000000E-03 0.  1.
    9000002    1    1    2    0    0 -0.48275613767E+00 -0.38607030497E+00  0.26765142033E+00  0.11548095305E+01  0.93800000000E+00 0.  1.
         22    1    1    2    0    0  0.16654882002E+00  0.13289943097E+00  0.12858695989E+01  0.13034037722E+01  0.00000000000E+00 0. -1.
</event>
<event>
 5    1  0.1560836E+002  0.1599676E+01  0.7818608E-02  0.3353715E+00
         11   -1    0    0    0    0  0.00000000000E+00  0.00000000000E+00  0.39999999674E+01  0.40000000000E+01  0.51100000000E-03 0.  1.
    9000002   -1    0    0    0    0 -0.00000000000E+00 -0.00000000000E+00  0.00000000000E+00  0.93800000000E+00  0.93800000000E+00 0. -1.
         11    1    1    2    0    0  0.18309458227E-02 -0.28491805844E-01  0.46630453564E+00  0.46717803506E+00  0.51100000000E-03 0. -1.
    9000002    1    1    2    0    0 -0.11497359256E-01  0.24592308980E+00  0.40251979272E-01  0.97060526333E+00  0.93800000000E+00 0. -1.
         22    1    1    2    0    0  0.96664134336E-02 -0.21743128395E+00  0.34934434524E+01  0.35002167016E+01  0.00000000000E+00 0.  1.
</event>
<event>
 5    1  0.1560836E+002  0.1599656E+01  0.7818608E-02  0.3353737E+00
         11   -1    0    0    0    0  0.00000000000E+00  0.00000000000E+00  0.39999999674E+01  0.40000000000E+01  0.51100000000E-03 0. -1.
    9000002   -1    0    0    0    0 -0.00000000000E+00 -0.00000000000E+00  0.00000000000E+00  0.93800000000E+00  0.93800000000E+00 0.  1.
         11    1    1    2    0    0  0.77255685785E-01  0.20359624704E+00  0.16167022593E+01  0.16313020350E+01  0.51100000000E-03 0. -1.
    9000002    1    1    2    0    0 -0.17809897102E+00 -0.46984615076E+00  0.17292390748E+00  0.10780636932E+01  0.93800000000E+00 0.  1.
         22    1    1    2    0    0  0.10084328523E+00  0.26624990372E+00  0.22103738005E+01  0.22286342718E+01  0.00000000000E+00 0. -1.
</event>
<event>
 5    1  0.1560836E+002  0.1599676E+01  0.7818608E-02  0.3353715E+00
         11   -1    0    0    0    0  0.00000000000E+00  0.00000000000E+00  0.39999999674E+01  0.40000000000E+01  0.51100000000E-03 0.  1.
    9000002   -1    0    0    0    0 -0.00000000000E+00 -0.00000000000E+00  0.00000000000E+00  0.93800000000E+00  0.93800000000E+00 0. -1.
         11    1    1    2    0    0  0.64782077683E-01 -0.68261389435E-01  0.11939536911E+01  0.11976568843E+01  0.51100000000E-03 0.  1.
    9000002    1    1    2    0    0 -0.21565592340E+00  0.22760775946E+00  0.65671157432E-01  0.99119597980E+00  0.93800000000E+00 0. -1.
         22    1    1    2    0    0  0.15087384571E+00 -0.15934637003E+00  0.27403751188E+01  0.27491471359E+01  0.00000000000E+00 0.  1.
</event>
<event>
 5    1  0.1560836E+002  0.1599677E+01  0.7818608E-02  0.3353714E+00
         11   -1    0    0    0    0  0.00000000000E+00  0.00000000000E+00  0.39999999674E+01  0.40000000000E+01  0.51100000000E-03 0.  1.
    9000002   -1    0    0    0    0 -0.00000000000E+00 -0.00000000000E+00  0.00000000000E+00  0.93800000000E+00  0.93800000000E+00 0. -1.
         11    1    1    2    0    0  0.18234042508E+00  0.20050701070E+00  0.21926479098E+01  0.22093338836E+01  0.51100000000E-03 0.  1.
    9000002    1    1    2    0    0 -0.32038263882E+00 -0.35124928597E+00  0.15410638264E+00  0.10628329470E+01  0.93800000000E+00 0. -1.
         22    1    1    2    0    0  0.13804221374E+00  0.15074227527E+00  0.16532456749E+01  0.16658331693E+01  0.00000000000E+00 0.  1.
</event>
<event>
 5    1  0.1560836E+002  0.1599676E+01  0.7818608E-02  0.3353715E+00
         11   -1    0    0    0    0  0.00000000000E+00  0.00000000000E+00  0.39999999674E+01  0.40000000000E+01  0.51100000000E-03 0. -1.
    9000002   -1    0    0    0    0 -0.00000000000E+00 -0.00000000000E+00  0.00000000000E+00  0.93800000000E+00  0.93800000000E+00 0. -1.
         11    1    1    2    0    0 -0.80539957885E-01  0.44992349072E-01  0.11940587427E+01  0.11976174424E+01  0.51100000000E-03 0. -1.
    9000002    1    1    2    0    0  0.26253617255E+00 -0.14943916746E+00  0.60891392470E-01  0.98732419617E+00  0.93800000000E+00 0. -1.
         22    1    1    2    0    0 -0.18199621466E+00  0.10444681839E+00  0.27450498322E+01  0.27530583614E+01  0.00000000000E+00 0. -1.
</event>
<event>
 5    1  0.1560836E+002  0.1599672E+01  0.7818608E-02  0.3353719E+00
         11   -1    0    0    0    0  0.00000000000E+00  0.00000000000E+00  0.39999999674E+01  0.40000000000E+01  0.51100000000E-03 0. -1.
    9000002   -1    0    0    0    0 -0.00000000000E+00 -0.00000000000E+00  0.00000000000E+00  0.93800000000E+00  0.93800000000E+00 0. -1.
         11    1    1    2    0    0  0.74089691785E-01  0.60455815652E-01  0.56538915714E+00  0.57341899882E+00  0.51100000000E-03 0. -1.
    9000002    1    1    2    0    0 -0.47691567806E+00 -0.39726938924E+00  0.27002926497E+00  0.11567330442E+01  0.93800000000E+00 0. -1.
         22    1    1    2    0    0  0.40282598627E+00  0.33681357359E+00  0.31645815452E+01  0.32078479570E+01  0.00000000000E+00 0. -1.
</event>
<event>
 5    1  0.1560836E+002  0.1599673E+01  0.7818608E-02  0.3353718E+00
         11   -1    0    0    0    0  0.00000000000E+00  0.00000000000E+00  0.39999999674E+01  0.40000000000E+01  0.51100000000E-03 0.  1.
    9000002   -1    0    0    0    0 -0.00000000000E+00 -0.00000000000E+00  0.00000000000E+00  0.93800000000E+00  0.93800000000E+00 0.  1.
         11    1    1    2    0    0 -0.11312028870E-01  0.31082794499E-01  0.57750342947E+00  0.57845014848E+00  0.51100000000E-03 0.  1.
    9000002    1    1    2    0    0  0.81441764008E-01 -0.22342580847E+00  0.37535447987E-01  0.96840320253E+00  0.93800000000E+00 0.  1.
         22    1    1    2    0    0 -0.70129735138E-01  0.19234301397E+00  0.33849610899E+01  0.33911466490E+01  0.00000000000E+00 0.  1.
</event>
<event>
 5    1  0.1560836E+002  0.1536260E+01  0.7818608E-02  0.3425589E+00
         11   -1    0    0    0    0  0.00000000000E+00  0.00000000000E+00  0.39999999674E+01  0.40000000000E+01  0.51100000000E-03 0. -1.
    9000002   -1    0    0    0    0 -0.00000000000E+00 -0.00000000000E+00  0.00000000000E+00  0.93800000000E+00  0.93800000000E+00 0. -1.
         11    1    1    2    0    0  0.17648544847E+00 -0.50201577422E+00  0.14092933466E+01  0.15064112815E+01  0.51100000000E-03 0. -1.
    9000002    1    1    2    0    0 -0.64032952002E+00  0.51897131365E+00  0.59605864837E+00  0.13836484492E+01  0.93800000000E+00 0. -1.
         22    1    1    2    0    0  0.46384407155E+00 -0.16955539424E-01  0.19946479724E+01  0.20479402693E+01  0.00000000000E+00 0. -1.
</event>
<event>
 5    1  0.1560836E+002  0.1537506E+01  0.7818608E-02  0.3424117E+00
         11   -1    0    0    0    0  0.00000000000E+00  0.00000000000E+00  0.39999999674E+01  0.40000000000E+01  0.51100000000E-03 0.  1.
    9000002   -1    0    0    0    0 -0.00000000000E+00 -0.00000000000E+00  0.00000000000E+00  0.93800000000E+00  0.93800000000E+00 0. -1.
         11    1    1    2    0    0  0.29718511249E+00  0.22526570939E+00  0.16606149425E+01  0.17019711746E+01  0.51100000000E-03 0.  1.
    9000002    1    1    2    0    0 -0.10440156683E+00 -0.16449899025E+00  0.73163241322E-01  0.96081031678E+00  0.93800000000E+00 0. -1.
         22    1    1    2    0    0 -0.19278354565E+00 -0.60766719141E-01  0.22662217835E+01  0.22752185086E+01  0.00000000000E+00 0. -1.
</event>
<event>
 5    1  0.1560836E+002  0.1565017E+01  0.7818608E-02  0.3392230E+00
         11   -1    0    0    0    0  0.00000000000E+00  0.00000000000E+00  0.39999999674E+01  0.40000000000E+01  0.51100000000E-03 0. -1.
    9000002   -1    0    0    0    0 -0.00000000000E+00 -0.00000000000E+00  0.00000000000E+00  0.93800000000E+00  0.93800000000E+00 0.  1.
         11    1    1    2    0    0  0.24882221286E+00 -0.14121047627E+00  0.25692532524E+01  0.25851335417E+01  0.51100000000E-03 0. -1.
    9000002    1    1    2    0    0 -0.40624108248E+00  0.49717190135E+00  0.32742298124E+00  0.11829038529E+01  0.93800000000E+00 0.  1.
         22    1    1    2    0    0  0.15741886962E+00 -0.35596142508E+00  0.11033237337E+01  0.11699626054E+01  0.00000000000E+00 0. -1.
</event>
<event>
 5    1  0.1560836E+002  0.1599321E+01  0.7818608E-02  0.3354101E+00
         11   -1    0    0    0    0  0.00000000000E+00  0.00000000000E+00  0.39999999674E+01  0.40000000000E+01  0.51100000000E-03 0.  1.
    9000002   -1    0    0    0    0 -0.00000000000E+00 -0.00000000000E+00  0.00000000000E+00  0.93800000000E+00  0.93800000000E+00 0.  1.
         11    1    1    2    0    0  0.81992832800E-02 -0.42011101161E-01  0.40406941053E+00  0.40633054342E+00  0.51100000000E-03 0.  1.
    9000002    1    1    2    0    0  0.37748257727E-02  0.30398015468E+00  0.61955836161E-01  0.98797809155E+00  0.93800000000E+00 0.  1.
         22    1    1    2    0    0 -0.11974109053E-01 -0.26196905351E+00  0.35339747207E+01  0.35436913650E+01  0.00000000000E+00 0.  1.
</event>
<event>
 5    1  0.1560836E+002  0.1599675E+01  0.7818608E-02  0.3353716E+00
         11   -1    0    0    0    0  0.00000000000E+00  0.00000000000E+00  0.39999999674E+01  0.40000000000E+01  0.51100000000E-03 0. -1.
    9000002   -1    0    0    0    0 -0.00000000000E+00 -0.00000000000E+00  0.00000000000E+00  0.93800000000E+00  0.93800000000E+00 0.  1.
         11    1    1    2    0    0 -0.40873045246E-01 -0.35995636311E-01  0.47798149035E+00  0.48107469057E+00  0.51100000000E-03 0. -1.
    9000002    1    1    2    0    0  0.33879788479E+00  0.28981179370E+00  0.13492413112E+00  0.10472933704E+01  0.93800000000E+00 0.  1.
         22    1    1    2    0    0 -0.29792483955E+00 -0.25381615739E+00  0.33870943459E+01  0.34096319390E+01  0.00000000000E+00 0. -1.
</event>
<event>
 5    1  0.1560836E+002  0.1599285E+01  0.7818608E-02  0.3354140E+00
         11   -1    0    0    0    0  0.00000000000E+00  0.00000000000E+00  0.39999999674E+01  0.40000000000E+01  0.51100000000E-03 0. -1.
    9000002   -1    0    0    0    0 -0.00000000000E+00 -0.00000000000E+00  0.00000000000E+00  0.93800000000E+00  0.93800000000E+00 0. -1.
         11    1    1    2    0    0 -0.75978060265E-01 -0.27590602928E+00  0.16853739290E+01  0.17094976877E+01  0.51100000000E-03 0. -1.
    9000002    1    1    2    0    0  0.14626777724E+00  0.65159177519E+00  0.31649264526E+00  0.11941430813E+01  0.93800000000E+00 0. -1.
         22    1    1    2    0    0 -0.70289716974E-01 -0.37568574591E+00  0.19981333931E+01  0.20343592310E+01  0.00000000000E+00 0. -1.
</event>
<event>
 5    1  0.1560836E+002  0.1560747E+01  0.7818608E-02  0.3397101E+00
         11   -1    0    0    0    0  0.00000000000E+00  0.00000000000E+00  0.39999999674E+01  0.40000000000E+01  0.51100000000E-03 0.  1.
    9000002   -1    0    0    0    0 -0.00000000000E+00 -0.00000000000E+00  0.00000000000E+00  0.93800000000E+00  0.93800000000E+00 0. -1.
         11    1    1    2    0    0  0.11491951522E+00 -0.11485702692E+00  0.76532042204E+00  0.78237730100E+00  0.51100000000E-03 0.  1.
    9000002    1    1    2    0    0  0.71167027765E-01 -0.11365971503E+00  0.41051441334E-01  0.94842632687E+00  0.93800000000E+00 0. -1.
         22    1    1    2    0    0 -0.18608654298E+00  0.22851674195E+00  0.31936281040E+01  0.32071963721E+01  0.00000000000E+00 0.  1.
</event>
<event>
 5    1  0.1560836E+002  0.1599665E+01  0.7818608E-02  0.3353727E+00
         11   -1    0    0    0    0  0.00000000000E+00  0.00000000000E+00  0.39999999674E+01  0.40000000000E+01  0.51100000000E-03 0.  1.
    9000002   -1    0    0    0    0 -0.00000000000E+00 -0.00000000000E+00  0.00000000000E+00  0.93800000000E+00  0.93800000000E+00 0.  1.
         11    1    1    2    0    0  0.55354633974E-01 -0.10954412907E-01  0.80105630152E+00  0.80304146468E+00  0.51100000000E-03 0.  1.
    9000002    1    1    2    0    0 -0.25709579253E+00  0.49896505258E-01  0.45614255952E-01  0.97494234092E+00  0.93800000000E+00 0.  1.
         22    1    1    2    0    0  0.20174115856E+00 -0.38942092351E-01  0.31533294099E+01  0.31600161944E+01  0.00000000000E+00 0.  1.
</event>
<event>
 5    1  0.1560836E+002  0.1572550E+01  0.7818608E-02  0.3383706E+00
         11   -1    0    0    0    0  0.00000000000E+00  0.00000000000E+00  0.39999999674E+01  0.40000000000E+01  0.51100000000E-03 0.  1.
    9000002   -1    0    0    0    0 -0.00000000000E+00 -0.00000000000E+00  0.00000000000E+00  0.93800000000E+00  0.93800000000E+00 0.  1.
         11    1    1    2    0    0 -0.22361680340E+00 -0.10793291949E+00  0.46824626849E+00  0.53000831970E+00  0.51100000000E-03 0.  1.
    9000002    1    1    2    0    0  0.68490001486E+00  0.39980054602E+00  0.49785909692E+00  0.13253815252E+01  0.93800000000E+00 0.  1.
         22    1    1    2    0    0 -0.46128321146E+00 -0.29186762654E+00  0.30338946019E+01  0.30826101551E+01  0.00000000000E+00 0.  1.
</event>
<event>
 5    1  0.1560836E+002  0.1599674E+01  0.7818608E-02  0.3353718E+00
         11   -1    0    0    0    0  0.00000000000E+00  0.00000000000E+00  0.39999999674E+01  0.40000000000E+01  0.51100000000E-03 0. -1.
    9000002   -1    0    0    0    0 -0.00000000000E+00 -0.00000000000E+00  0.00000000000E+00  0.93800000000E+00  0.93800000000E+00 0.  1.
         11    1    1    2    0    0 -0.31758191744E-01 -0.27065149017E-01  0.57756912208E+00  0.57907465575E+00  0.51100000000E-03 0. -1.
    9000002    1    1    2    0    0  0.21124643061E+00  0.17681049323E+00  0.50517271329E-01  0.97891930192E+00  0.93800000000E+00 0.  1.
         22    1    1    2    0    0 -0.17948823887E+00 -0.14974534421E+00  0.33719135740E+01  0.33800060423E+01  0.00000000000E+00 0. -1.
</event>
<event>
 5    1  0.1560836E+002  0.1599020E+01  0.7818608E-02  0.3354428E+00
         11   -1    0    0    0    0  0.00000000000E+00  0.00000000000E+00  0.39999999674E+01  0.40000000000E+01  0.51100000000E-03 0.  1.
    9000002   -1    0    0    0    0 -0.00000000000E+00 -0.00000000000E+00  0.00000000000E+00  0.93800000000E+00  0.93800000000E+00 0.  1.
         11    1    1    2    0    0  0.80563427808E-01 -0.58905412039E-01  0.80291065273E+00  0.80908966799E+00  0.51100000000E-03 0.  1.
    9000002    1    1    2    0    0 -0.33336326977E+00  0.17947742459E+00  0.96969793703E-01  0.10161645322E+01  0.93800000000E+00 0.  1.
         22    1    1    2    0    0  0.25279984196E+00 -0.12057201255E+00  0.31001195209E+01  0.31127457998E+01  0.00000000000E+00 0.  1.
</event>
<event>
 5    1  0.1560836E+002  0.1556457E+01  0.7818608E-02  0.3402023E+00
         11   -1    0    0    0    0  0.00000000000E+00  0.00000000000E+00  0.39999999674E+01  0.40000000000E+01  0.51100000000E-03 0. -1.
    9000002   -1    0    0    0    0 -0.00000000000E+00 -0.00000000000E+00  0.00000000000E+00  0.93800000000E+00  0.93800000000E+00 0.  1.
         11    1    1    2    0    0  0.14907389639E+00  0.29420045620E-01  0.65969246071E+00  0.67696600321E+00  0.51100000000E-03 0. -1.
    9000002    1    1    2    0    0  0.18191114726E+00  0.14070886758E+00  0.68585043946E-01  0.96821410812E+00  0.93800000000E+00 0.  1.
         22    1    1    2    0    0 -0.33098504365E+00 -0.17012891320E+00  0.32717224627E+01  0.32928198887E+01  0.00000000000E+00 0. -1.
</event>
<event>
 5    1  0.1560836E+002  0.1599676E+01  0.7818608E-02  0.3353715E+00
         11   -1    0    0    0    0  0.00000000000E+00  0.00000000000E+00  0.39999999674E+01  0.40000000000E+01  0.51100000000E-03 0. -1.
    9000002   -1    0    0    0    0 -0.00000000000E+00 -0.00000000000E+00  0.00000000000E+00  0.93800000000E+00  0.93800000000E+00 0.  1.
         11    1    1    2    0    0  0.21174875185E-01 -0.52914909311E-02  0.36501038831E+00  0.36566271332E+00  0.51100000000E-03 0.  1.
    9000002    1    1    2    0    0 -0.22528083647E+00  0.60861834470E-01  0.36130593417E-01  0.96726678737E+00  0.93800000000E+00 0.  1.
         22    1    1    2    0    0  0.20410596129E+00 -0.55570343539E-01  0.35988589856E+01  0.36050704993E+01  0.00000000000E+00 0. -1.
</event>
<event>
 5    1  0.1560836E+002  0.1542221E+01  0.7818608E-02  0.3418566E+00
         11   -1    0    0    0    0  0.00000000000E+00  0.00000000000E+00  0.39999999674E+01  0.40000000000E+01  0.51100000000E-03 0. -1.
    9000002   -1    0    0    0    0 -0.00000000000E+00 -0.00000000000E+00  0.00000000000E+00  0.93800000000E+00  0.93800000000E+00 0.  1.
         11    1    1    2    0    0 -0.27269038633E+00  0.21324328842E+00  0.16972255394E+01  0.17321684501E+01  0.51100000000E-03 0. -1.
    9000002    1    1    2    0    0  0.64692965298E-02 -0.27140370829E+00  0.94780357307E-01  0.98108569493E+00  0.93800000000E+00 0.  1.
         22    1    1    2    0    0  0.26622108980E+00  0.58160419864E-01  0.22079940707E+01  0.22247458550E+01  0.00000000000E+00 0. -1.
</event>
<event>
 5    1  0.1560836E+002  0.1581868E+01  0.7818608E-02  0.3373281E+00
         11   -1    0    0    0    0  0.00000000000E+00  0.00000000000E+00  0.39999999674E+01  0.40000000000E+01  0.51100000000E-03 0. -1.
    9000002   -1    0    0    0    0 -0.00000000000E+00 -0.00000000000E+00  0.00000000000E+00  0.93800000000E+00  0.93800000000E+00 0.  1.
         11    1    1    2    0    0 -0.58395654762E-01 -0.30996879315E+00  0.11990627821E+01  0.12398558471E+01  0.51100000000E-03 0. -1.
    9000002    1    1    2    0    0 -0.12615663637E+00  0.60535209237E+00  0.28614729727E+00  0.11593493556E+01  0.93800000000E+00 0.  1.
         22    1    1    2    0    0  0.18455229113E+00 -0.29538329922E+00  0.25147898880E+01  0.25387947973E+01  0.00000000000E+00 0. -1.
</event>
<event>
 5    1  0.1560836E+002  0.1596286E+01  0.7818608E-02  0.3357404E+00
         11   -1    0    0    0    0  0.00000000000E+00  0.00000000000E+00  0.39999999674E+01  0.40000000000E+01  0.51100000000E-03 0. -1.
    9000002   -1    0    0    0    0 -0.00000000000E+00 -0.00000000000E+00  0.00000000000E+00  0.93800000000E+00  0.93800000000E+00 0.  1.
         11    1    1    2    0    0  0.32195418300E-01  0.22624410807E-01  0.18364357608E+00  0.18781276070E+00  0.51100000000E-03 0. -1.
    9000002    1    1    2    0    0 -0.19041993868E+00 -0.84575751435E+00  0.57234956313E+00  0.13996405069E+01  0.93800000000E+00 0.  1.
         22    1    1    2    0    0  0.15822452038E+00  0.82313310354E+00  0.32440068281E+01  0.33505467324E+01  0.00000000000E+00 0. -1.
</event>
<event>
 5    1  0.1560836E+002  0.1597298E+01  0.7818608E-02  0.3356301E+00
         11   -1    0    0    0    0  0.00000000000E+00  0.00000000000E+00  0.39999999674E+01  0.40000000000E+01  0.51100000000E-03 0. -1.
    9000002   -1    0    0    0    0 -0.00000000000E+00 -0.00000000000E+00  0.00000000000E+00  0.93800000000E+00  0.93800000000E+00 0.  1.
         11    1    1    2    0    0  0.80964209071E-01 -0.33086418332E+00  0.15738856236E+01  0.16103237340E+01  0.51100000000E-03 0. -1.
    9000002    1    1    2    0    0 -0.31221316369E+00  0.73898259300E+00  0.47752622188E+00  0.13234226932E+01  0.93800000000E+00 0.  1.
         22    1    1    2    0    0  0.23124895462E+00 -0.40811840968E+00  0.19485881219E+01  0.20042535728E+01  0.00000000000E+00 0. -1.
</event>
<event>
 5    1  0.1560836E+002  0.1599655E+01  0.7818608E-02  0.3353738E+00
         11   -1    0    0    0    0  0.00000000000E+00  0.00000000000E+00  0.39999999674E+01  0.40000000000E+01  0.51100000000E-03 0.  1.
    9000002   -1    0    0    0    0 -0.00000000000E+00 -0.00000000000E+00  0.00000000000E+00  0.93800000000E+00  0.93800000000E+00 0. -1.
         11    1    1    2    0    0 -0.10134011066E+00  0.14858433631E+00  0.17882455308E+01  0.17972672207E+01  0.51100000000E-03 0.  1.
    9000002    1    1    2    0    0  0.23275901541E+00 -0.32516563537E+00  0.10787897760E+00  0.10253737482E+01  0.93800000000E+00 0. -1.
         22    1    1    2    0    0 -0.13141890475E+00  0.17658129906E+00  0.21038754589E+01  0.21153590311E+01  0.00000000000E+00 0. -1.
</event>
<event>
 5    1  0.1560836E+002  0.1540538E+01  0.7818608E-02  0.3420543E+00
         11   -1    0    0    0    0  0.00000000000E+00  0.00000000000E+00  0.39999999674E+01  0.40000000000E+01  0.51100000000E-03 0. -1.
    9000002   -1    0    0    0    0 -0.00000000000E+00 -0.00000000000E+00  0.00000000000E+00  0.93800000000E+00  0.93800000000E+00 0.  1.
         11    1    1    2    0    0 -0.65898309966E-01 -0.36050275809E+00  0.15696613743E+01  0.16118752796E+01  0.51100000000E-03 0. -1.
    9000002    1    1    2    0    0  0.18132417442E+00  0.18160714536E+00  0.90560544811E-01  0.97668051263E+00  0.93800000000E+00 0.  1.
         22    1    1    2    0    0 -0.11542586445E+00  0.17889561273E+00  0.23397780482E+01  0.23494442077E+01  0.00000000000E+00 0. -1.
</event>
<event>
 5    1  0.1560836E+002  0.1599596E+01  0.7818608E-02  0.3353802E+00
         11   -1    0    0    0    0  0.00000000000E+00  0.00000000000E+00  0.39999999674E+01  0.40000000000E+01  0.51100000000E-03 0. -1.
    9000002   -1    0    0    0    0 -0.00000000000E+00 -0.00000000000E+00  0.00000000000E+00  0.93800000000E+00  0.93800000000E+00 0.  1.
         11    1    1    2    0    0 -0.38845929128E+00 -0.15885253858E+00  0.24585033700E+01  0.24940677279E+01  0.51100000000E-03 0. -1.
    9000002    1    1    2    0    0  0.57338181772E+00  0.24073858960E+00  0.27119508028E+00  0.11576323030E+01  0.93800000000E+00 0.  1.
         22    1    1    2    0    0 -0.18492252644E+00 -0.81886051018E-01  0.12703015171E+01  0.12862999691E+01  0.00000000000E+00 0. -1.
</event>
<event>
 5    1  0.1560836E+002  0.1594353E+01  0.7818608E-02  0.3359515E+00
         11   -1    0    0    0    0  0.00000000000E+00  0.00000000000E+00  0.39999999674E+01  0.40000000000E+01  0.51100000000E-03 0.  1.
    9000002   -1    0    0    0    0 -0.00000000000E+00 -0.00000000000E+00  0.00000000000E+00  0.93800000000E+00  0.93800000000E+00 0.  1.
         11    1    1    2    0    0  0.37192753033E-01 -0.10755004096E+00  0.11240837771E+01  0.11298295939E+01  0.51100000000E-03 0.  1.
    9000002    1    1    2    0    0 -0.28203801611E+00  0.14390900921E+00  0.71204458914E-01  0.99255696080E+00  0.93800000000E+00 0.  1.
         22    1    1    2    0    0  0.24484526307E+00 -0.36358968257E-01  0.28047117313E+01  0.28156134453E+01  0.00000000000E+00 0.  1.
</event>
<event>
 5    1  0.1560836E+002  0.1537016E+01  0.7818608E-02  0.3424695E+00
         11   -1    0    0    0    0  0.00000000000E+00  0.00000000000E+00  0.39999999674E+01  0.40000000000E+01  0.51100000000E-03 0.  1.
    9000002   -1    0    0    0    0 -0.00000000000E+00 -0.00000000000E+00  0.00000000000E+00  0.93800000000E+00  0.93800000000E+00 0. -1.
         11    1    1    2    0    0 -0.34901913749E-01 -0.34336185520E+00  0.11536145071E+01  0.12041354573E+01  0.51100000000E-03 0.  1.
    9000002    1    1    2    0    0  0.31063292441E+00  0.23908218522E+00  0.15734640538E+00  0.10287152163E+01  0.93800000000E+00 0. -1.
         22    1    1    2    0    0 -0.27573101066E+00  0.10427966997E+00  0.26890390548E+01  0.27051493264E+01  0.00000000000E+00 0.  1.
</event>
<event>
 5    1  0.1560836E+002  0.1598405E+01  0.7818608E-02  0.3355097E+00
         11   -1    0    0    0    0  0.00000000000E+00  0.00000000000E+00  0.39999999674E+01  0.40000000000E+01  0.51100000000E-03 0. -1.
    9000002   -1    0    0    0    0 -0.00000000000E+00 -0.00000000000E+00  0.00000000000E+00  0.93800000000E+00  0.93800000000E+00 0. -1.
         11    1    1    2    0    0  0.12387053790E+00 -0.41763964132E-01  0.82788943844E+00  0.83814636088E+00  0.51100000000E-03 0. -1.
    9000002    1    1    2    0    0 -0.41349696296E+00  0.17428580409E+00  0.13783014960E+00  0.10489024883E+01  0.93800000000E+00 0. -1.
         22    1    1    2    0    0  0.28962642506E+00 -0.13252183996E+00  0.30342803793E+01  0.30509511508E+01  0.00000000000E+00 0. -1.
</event>
<event>
 5    1  0.1560836E+002  0.1597974E+01  0.7818608E-02  0.3355565E+00
         11   -1    0    0    0    0  0.00000000000E+00  0.00000000000E+00  0.39999999674E+01  0.40000000000E+01  0.51100000000E-03 0.  1.
    9000002   -1    0    0    0    0 -0.00000000000E+00 -0.00000000000E+00  0.00000000000E+00  0.93800000000E+00  0.93800000000E+00 0.  1.
         11    1    1    2    0    0  0.29792511651E+00  0.16098144638E-02  0.16252681486E+01  0.16523494735E+01  0.51100000000E-03 0.  1.
    9000002    1    1    2    0    0 -0.62277162905E+00 -0.10006687295E+00  0.28123705811E+00  0.11648159356E+01  0.93800000000E+00 0.  1.
         22    1    1    2    0    0  0.32484651254E+00  0.98457058482E-01  0.20934947606E+01  0.21208345909E+01  0.00000000000E+00 0. -1.
</event>
<event>
 5    1  0.1560836E+002  0.1599676E+01  0.7818608E-02  0.3353716E+00
         11   -1    0    0    0    0  0.00000000000E+00  0.00000000000E+00  0.39999999674E+01  0.40000000000E+01  0.51100000000E-03 0.  1.
    9000002   -1    0    0    0    0 -0.00000000000E+00 -0.00000000000E+00  0.00000000000E+00  0.93800000000E+00  0.93800000000E+00 0.  1.
         11    1    1    2    0    0 -0.15505132947E+00  0.10228572249E+00  0.14518419050E+01  0.14636763515E+01  0.51100000000E-03 0.  1.
    9000002    1    1    2    0    0  0.40807512662E+00 -0.27354475724E+00  0.16498111523E+00  0.10716411767E+01  0.93800000000E+00 0.  1.
         22    1    1    2    0    0 -0.25302379715E+00  0.17125903475E+00  0.23831769471E+01  0.24026824718E+01  0.00000000000E+00 0.  1.
</event>
<event>
 5    1  0.1560836E+002  0.1599526E+01  0.7818608E-02  0.3353878E+00
         11   -1    0    0    0    0  0.00000000000E+00  0.00000000000E+00  0.39999999674E+01  0.40000000000E+01  0.51100000000E-03 0.  1.
    9000002   -1    0    0    0    0 -0.00000000000E+00 -0.00000000000E+00  0.00000000000E+00  0.93800000000E+00  0.93800000000E+00 0.  1.
         11    1    1    2    0    0 -0.11075019564E-01 -0.29006795934E-01  0.62601286412E+00  0.62678259184E+00  0.51100000000E-03 0.  1.
    9000002    1    1    2    0    0  0.12399152170E+00  0.22513945820E+00  0.44024027062E-01  0.97357269274E+00  0.93800000000E+00 0.  1.
         22    1    1    2    0    0 -0.11291650213E+00 -0.19613266227E+00  0.33299630762E+01  0.33376447154E+01  0.00000000000E+00 0. -1.
</event>
<event>
 5    1  0.1560836E+002  0.1599645E+01  0.7818608E-02  0.3353749E+00
         11   -1    0    0    0    0  0.00000000000E+00  0.00000000000E+00  0.39999999674E+01  0.40000000000E+01  0.51100000000E-03 0.  1.
    9000002   -1    0    0    0    0 -0.00000000000E+00 -0.00000000000E+00  0.00000000000E+00  0.93800000000E+00  0.93800000000E+00 0. -1.
         11    1    1    2    0    0  0.63673690638E-01 -0.23868169871E-01  0.63921813894E+00  0.64282510738E+00  0.51100000000E-03 0.  1.
    9000002    1    1    2    0    0 -0.35930590471E+00  0.13574291833E+00  0.99337896595E-01  0.10184492578E+01  0.93800000000E+00 0. -1.
         22    1    1    2    0    0  0.29563221407E+00 -0.11187474846E+00  0.32614439318E+01  0.32767256348E+01  0.00000000000E+00 0.  1.
</event>
<event>
 5    1  0.1560836E+002  0.1599599E+01  0.7818608E-02  0.3353799E+00
         11   -1    0    0    0    0  0.00000000000E+00  0.00000000000E+00  0.39999999674E+01  0.40000000000E+01  0.51100000000E-03 0.  1.
    9000002   -1    0    0    0    0 -0.00000000000E+00 -0.00000000000E+00  0.00000000000E+00  0.93800000000E+00  0.93800000000E+00 0. -1.
         11    1    1    2    0    0 -0.26230783351E-01 -0.48314520083E-01  0.36798772216E+00  0.37207199791E+00  0.51100000000E-03 0.  1.
    9000002    1    1    2    0    0  0.20964687486E+00  0.47986587444E+00  0.18856303331E+00  0.10906984400E+01  0.93800000000E+00 0. -1.
         22    1    1    2    0    0 -0.18341609150E+00 -0.43155135436E+00  0.34434492119E+01  0.34752295620E+01  0.00000000000E+00 0.  1.
</event>
<event>
 5    1  0.1560836E+002  0.1594313E+01  0.7818608E-02  0.3359559E+00
         11   -1    0    0    0    0  0.00000000000E+00  0.00000000000E+00  0.39999999674E+01  0.40000000000E+01  0.51100000000E-03 0.  1.
    9000002   -1    0    0    0    0 -0.00000000000E+00 -0.00000000000E+00  0.00000000000E+00  0.93800000000E+00  0.93800000000E+00 0.  1.
         11    1    1    2    0    0  0.10433608247E+00 -0.60467028301E-01  0.54714698022E+00  0.56027882229E+00  0.51100000000E-03 0.  1.
    9000002    1    1    2    0    0 -0.35568667719E+00  0.21381244501E+00  0.12092541776E+00  0.10328096294E+01  0.93800000000E+00 0.  1.
         22    1    1    2    0    0  0.25135059471E+00 -0.15334541671E+00  0.33319275694E+01  0.33449115483E+01  0.00000000000E+00 0.  1.
</event>
<event>
 5    1  0.1560836E+002  0.1599676E+01  0.7818608E-02  0.3353715E+00
         11   -1    0    0    0    0  0.00000000000E+00  0.00000000000E+00  0.39999999674E+01  0.40000000000E+01  0.51100000000E-03 0. -1.
    9000002   -1    0    0    0    0 -0.00000000000E+00 -0.00000000000E+00  0.00000000000E+00  0.93800000000E+00  0.93800000000E+00 0. -1.
         11    1    1    2    0    0  0.94817832152E-01 -0.97605584428E-01  0.13451117442E+01  0.13519774913E+01  0.51100000000E-03 0.  1.
    9000002    1    1    2    0    0 -0.27207189132E+00  0.28066222971E+00  0.10294486609E+00  0.10213892728E+01  0.93800000000E+00 0. -1.
         22    1    1    2    0    0  0.17725405917E+00 -0.18305664528E+00  0.25519433570E+01  0.25646332359E+01  0.00000000000E+00 0. -1.
</event>
<event>
 5    1  0.1560836E+002  0.1599676E+01  0.7818608E-02  0.3353715E+00
         11   -1    0    0    0    0  0.00000000000E+00  0.00000000000E+00  0.39999999674E+01  0.40000000000E+01  0.51100000000E-03 0.  1.
    9000002   -1    0    0    0    0 -0.00000000000E+00 -0.00000000000E+00  0.00000000000E+00  0.93800000000E+00  0.93800000000E+00 0.  1.
         11    1    1    2    0    0 -0.10812155971E-01  0.91603228334E-02  0.19387879567E+00  0.19439666346E+00  0.51100000000E-03 0. -1.
    9000002    1    1    2    0    0  0.22340802505E+00 -0.19218938550E+00  0.57909929611E-01  0.98490886152E+00  0.93800000000E+00 0.  1.
         22    1    1    2    0    0 -0.21259586908E+00  0.18302906266E+00  0.37482112421E+01  0.37586944750E+01  0.00000000000E+00 0.  1.
</event>
<event>
 5    1  0.1560836E+002  0.1599673E+01  0.7818608E-02  0.3353718E+00
         11   -1    0    0    0    0  0.00000000000E+00  0.00000000000E+00  0.39999999674E+01  0.40000000000E+01  0.51100000000E-03 0. -1.
    9000002   -1    0    0    0    0 -0.00000000000E+00 -0.00000000000E+00  0.00000000000E+00  0.93800000000E+00  0.93800000000E+00 0.  1.
         11    1    1    2    0    0  0.38325903583E-01  0.12985256695E+00  0.14283727441E+01  0.14347750769E+01  0.51100000000E-03 0. -1.
    9000002    1    1    2    0    0 -0.10504448109E+00 -0.36115883626E+00  0.95145456597E-01  0.10150698035E+01  0.93800000000E+00 0.  1.
         22    1    1    2    0    0  0.66718577509E-01  0.23130626930E+00  0.24764817666E+01  0.24881551196E+01  0.00000000000E+00 0. -1.
</event>
<event>
 5    1  0.1560836E+002  0.1595915E+01  0.7818608E-02  0.3357810E+00
         11   -1    0    0    0    0  0.00000000000E+00  0.00000000000E+00  0.39999999674E+01  0.40000000000E+01  0.51100000000E-03 0.  1.
    9000002   -1    0    0    0    0 -0.00000000000E+00 -0.00000000000E+00  0.00000000000E+00  0.93800000000E+00  0.93800000000E+00 0.  1.
         11    1    1    2    0    0 -0.16843098705E-01 -0.25493098837E-01  0.12130146540E+01  0.12133995220E+01  0.51100000000E-03 0.  1.
    9000002    1    1    2    0    0  0.27475332204E+00  0.54451099411E-01  0.55165495635E-01  0.98048026095E+00  0.93800000000E+00 0.  1.
         22    1    1    2    0    0 -0.25791022333E+00 -0.28958000574E-01  0.27318198178E+01  0.27441202171E+01  0.00000000000E+00 0.  1.
</event>
<event>
 5    1  0.1560836E+002  0.1598962E+01  0.7818608E-02  0.3354491E+00
         11   -1    0    0    0    0  0.00000000000E+00  0.00000000000E+00  0.39999999674E+01  0.40000000000E+01  0.51100000000E-03 0.  1.
    9000002   -1    0    0    0    0 -0.00000000000E+00 -0.00000000000E+00  0.00000000000E+00  0.93800000000E+00  0.93800000000E+00 0.  1.
         11    1    1    2    0    0  0.25912724978E-01  0.18138110943E-01  0.20645292261E+00  0.20886246853E+00  0.51100000000E-03 0.  1.
    9000002    1    1    2    0    0 -0.24067507369E+00 -0.23486910272E+00  0.76286089375E-01  0.99937558202E+00  0.93800000000E+00 0.  1.
         22    1    1    2    0    0  0.21476234871E+00  0.21673099178E+00  0.37172609554E+01  0.37297619494E+01  0.00000000000E+00 0.  1.
</event>
<event>
 5    1  0.1560836E+002  0.1590987E+01  0.7818608E-02  0.3363204E+00
         11   -1    0    0    0    0  0.00000000000E+00  0.00000000000E+00  0.39999999674E+01  0.40000000000E+01  0.51100000000E-03 0.  1.
    9000002   -1    0    0    0    0 -0.00000000000E+00 -0.00000000000E+00  0.00000000000E+00  0.93800000000E+00  0.93800000000E+00 0. -1.
         11    1    1    2    0    0  0.93610109186E-01  0.69781561390E-01  0.16824735335E+01  0.16865200179E+01  0.51100000000E-03 0.  1.
    9000002    1    1    2    0    0 -0.22729202950E+00  0.96582497662E-01  0.47167419086E-01  0.97111204861E+00  0.93800000000E+00 0. -1.
         22    1    1    2    0    0  0.13368192032E+00 -0.16636405905E+00  0.22703590148E+01  0.22803679335E+01  0.00000000000E+00 0.  1.
</event>
<event>
 5    1  0.1560836E+002  0.1599472E+01  0.7818608E-02  0.3353936E+00
         11   -1    0    0    0    0  0.00000000000E+00  0.00000000000E+00  0.39999999674E+01  0.40000000000E+01  0.51100000000E-03 0.  1.
    9000002   -1    0    0    0    0 -0.00000000000E+00 -0.00000000000E+00  0.00000000000E+00  0.93800000000E+00  0.93800000000E+00 0.  1.
         11    1    1    2    0    0  0.22109064323E-01  0.35242372148E-03  0.51335551980E+00  0.51383176796E+00  0.51100000000E-03 0.  1.
    9000002    1    1    2    0    0 -0.20769512855E+00  0.78597834346E-01  0.32848105431E-01  0.96448840533E+00  0.93800000000E+00 0.  1.
         22    1    1    2    0    0  0.18558606423E+00 -0.78950258068E-01  0.34537963421E+01  0.34596798267E+01  0.00000000000E+00 0.  1.
</event>
<event>
 5    1  0.1560836E+002  0.1481905E+01  0.7818608E-02  0.3492438E+00
         11   -1    0    0    0    0  0.00000000000E+00  0.00000000000E+00  0.39999999674E+01  0.40000000000E+01  0.51100000000E-03 0.  1.
    9000002   -1    0    0    0    0 -0.00000000000E+00 -0.00000000000E+00  0.00000000000E+00  0.93800000000E+00  0.93800000000E+00 0. -1.
         11    1    1    2    0    0  0.14807760777E+00  0.91140210562E-01  0.15327042162E+00  0.23178783223E+00  0.51100000000E-03 0.  1.
    9000002    1    1    2    0    0  0.35413911283E-01  0.99866576917E-01  0.99009076837E-01  0.94914396990E+00  0.93800000000E+00 0. -1.
         22    1    1    2    0    0 -0.18349151906E+00 -0.19100678748E+00  0.37477204689E+01  0.37570681979E+01  0.00000000000E+00 0.  1.
</event>
<event>
 5    1  0.1560836E+002  0.1599651E+01  0.7818608E-02  0.3353742E+00
         11   -1    0    0    0    0  0.00000000000E+00  0.00000000000E+00  0.39999999674E+01  0.40000000000E+01  0.51100000000E-03 0. -1.
    9000002   -1    0    0    0    0 -0.00000000000E+00 -0.00000000000E+00  0.00000000000E+00  0.93800000000E+00  0.93800000000E+00 0.  1.
         11    1    1    2    0    0 -0.61141442707E-01  0.41419357946E-01  0.93131277128E+00  0.93423636105E+00  0.51100000000E-03 0. -1.
    9000002    1    1    2    0    0  0.24522589403E+00 -0.19279233558E+00  0.65007459889E-01  0.99064352499E+00  0.93800000000E+00 0.  1.
         22    1    1    2    0    0 -0.18408445132E+00  0.15137297764E+00  0.30036797362E+01  0.30131201140E+01  0.00000000000E+00 0. -1.
</event>
<event>
 5    1  0.1560836E+002  0.1598541E+01  0.7818608E-02  0.3354948E+00
         11   -1    0    0    0    0  0.00000000000E+00  0.00000000000E+00  0.39999999674E+01  0.40000000000E+01  0.51100000000E-03 0.  1.
    9000002   -1    0    0    0    0 -0.00000000000E+00 -0.00000000000E+00  0.00000000000E+00  0.93800000000E+00  0.93800000000E+00 0.  1.
         11    1    1    2    0    0  0.13467327799E-01 -0.93732823757E-01  0.54230176570E+00  0.55050765423E+00  0.51100000000E-03 0.  1.
    9000002    1    1    2    0    0  0.73289170935E-01  0.72930051311E+00  0.38884530034E+00  0.12523159380E+01  0.93800000000E+00 0.  1.
         22    1    1    2    0    0 -0.86756498734E-01 -0.63556768935E+00  0.30688529013E+01  0.31351764078E+01  0.00000000000E+00 0.  1.
</event>
<event>
 5    1  0.1560836E+002  0.1599677E+01  0.7818608E-02  0.3353714E+00
         11   -1    0    0    0    0  0.00000000000E+00  0.00000000000E+00  0.39999999674E+01  0.40000000000E+01  0.51100000000E-03 0.  1.
    9000002   -1    0    0    0    0 -0.00000000000E+00 -0.00000000000E+00  0.00000000000E+00  0.93800000000E+00  0.93800000000E+00 0. -1.
         11    1    1    2    0    0  0.28498254581E+00  0.98277916276E-01  0.18892663691E+01  0.19131652503E+01  0.51100000000E-03 0.  1.
    9000002    1    1    2    0    0 -0.56637454741E+00 -0.19401708955E+00  0.25000114675E+00  0.11405118730E+01  0.93800000000E+00 0. -1.
         22    1    1    2    0    0  0.28139200160E+00  0.95739173273E-01  0.18607324515E+01  0.18843228767E+01  0.00000000000E+00 0.  1.
</event>
<event>
 5    1  0.1560836E+002  0.1599677E+01  0.7818608E-02  0.3353714E+00
         11   -1    0    0    0    0  0.00000000000E+00  0.00000000000E+00  0.39999999674E+01  0.40000000000E+01  0.51100000000E-03 0. -1.
    9000002   -1    0    0    0    0 -0.00000000000E+00 -0.00000000000E+00  0.00000000000E+00  0.93800000000E+00  0.93800000000E+00 0.  1.
         11    1    1    2    0    0 -0.17794358280E+00  0.97742505706E-02  0.16445678581E+01  0.16541956219E+01  0.51100000000E-03 0. -1.
    9000002    1    1    2    0    0  0.41922757386E+00 -0.23094201118E-01  0.11922021157E+00  0.10345736125E+01  0.93800000000E+00 0.  1.
         22    1    1    2    0    0 -0.24128399106E+00  0.13319950548E-01  0.22362118977E+01  0.22492307656E+01  0.00000000000E+00 0. -1.
</event>
<event>
 5    1  0.1560836E+002  0.1598513E+01  0.7818608E-02  0.3354979E+00
         11   -1    0    0    0    0  0.00000000000E+00  0.00000000000E+00  0.39999999674E+01  0.40000000000E+01  0.51100000000E-03 0. -1.
    9000002   -1    0    0    0    0 -0.00000000000E+00 -0.00000000000E+00  0.00000000000E+00  0.93800000000E+00  0.93800000000E+00 0.  1.
         11    1    1    2    0    0 -0.13483381826E+00 -0.85837887905E-01  0.14106528578E+01  0.14196795582E+01  0.51100000000E-03 0. -1.
    9000002    1    1    2    0    0  0.36029036147E+00  0.34079748232E+00  0.16929905677E+00  0.10744571835E+01  0.93800000000E+00 0.  1.
         22    1    1    2    0    0 -0.22545654321E+00 -0.25495959441E+00  0.24200480528E+01  0.24438632583E+01  0.00000000000E+00 0. -1.
</event>
<event>
 5    1  0.1560836E+002  0.1599677E+01  0.7818608E-02  0.3353714E+00
         11   -1    0    0    0    0  0.00000000000E+00  0.00000000000E+00  0.39999999674E+01  0.40000000000E+01  0.51100000000E-03 0.  1.
    9000002   -1    0    0    0    0 -0.00000000000E+00 -0.00000000000E+00  0.00000000000E+00  0.93800000000E+00  0.93800000000E+00 0.  1.
         11    1    1    2    0    0 -0.20644679058E-01 -0.27925409245E-04  0.35095269986E+00  0.35155975625E+00  0.51100000000E-03 0. -1.
    9000002    1    1    2    0    0  0.23342234697E+00 -0.72781701545E-04  0.36150491677E-01  0.96728323433E+00  0.93800000000E+00 0.  1.
         22    1    1    2    0    0 -0.21277766792E+00  0.10070711079E-03  0.36128967758E+01  0.36191570094E+01  0.00000000000E+00 0.  1.
</event>
<event>
 5    1  0.1560836E+002  0.1599670E+01  0.7818608E-02  0.3353722E+00
         11   -1    0    0    0    0  0.00000000000E+00  0.00000000000E+00  0.39999999674E+01  0.40000000000E+01  0.51100000000E-03 0. -1.
    9000002   -1    0    0    0    0 -0.00000000000E+00 -0.00000000000E+00  0.00000000000E+00  0.93800000000E+00  0.93800000000E+00 0.  1.
         11    1    1    2    0    0 -0.14229386639E+00  0.15433132240E+00  0.19605632563E+01  0.19717693183E+01  0.51100000000E-03 0. -1.
    9000002    1    1    2    0    0  0.28793532634E+00 -0.30698254247E+00  0.11982463371E+00  0.10350589241E+01  0.93800000000E+00 0.  1.
         22    1    1    2    0    0 -0.14564145995E+00  0.15265122007E+00  0.19196120773E+01  0.19311717576E+01  0.00000000000E+00 0. -1.
</event>
<event>
 5    1  0.1560836E+002  0.1599340E+01  0.7818608E-02  0.3354080E+00
         11   -1    0    0    0    0  0.00000000000E+00  0.00000000000E+00  0.39999999674E+01  0.40000000000E+01  0.51100000000E-03 0. -1.
    9000002   -1    0    0    0    0 -0.00000000000E+00 -0.00000000000E+00  0.00000000000E+00  0.93800000000E+00  0.93800000000E+00 0.  1.
         11    1    1    2    0    0 -0.11482904449E+00 -0.21795851628E-01  0.11702269456E+01  0.11760493756E+01  0.51100000000E-03 0. -1.
    9000002    1    1    2    0    0  0.35942706277E+00  0.13593813592E+00  0.99685205369E-01  0.10185519773E+01  0.93800000000E+00 0.  1.
         22    1    1    2    0    0 -0.24459801828E+00 -0.11414228430E+00  0.27300878164E+01  0.27433986471E+01  0.00000000000E+00 0.  1.
</event>
<event>
 5    1  0.1560836E+002  0.1599677E+01  0.7818608E-02  0.3353714E+00
         11   -1    0    0    0    0  0.00000000000E+00  0.00000000000E+00  0.39999999674E+01  0.40000000000E+01  0.51100000000E-03 0.  1.
    9000002   -1    0    0    0    0 -0.00000000000E+00 -0.00000000000E+00  0.00000000000E+00  0.93800000000E+00  0.93800000000E+00 0. -1.
         11    1    1    2    0    0 -0.56940273834E-01 -0.21630511383E-01  0.62078252311E+00  0.62376379818E+00  0.51100000000E-03 0. -1.
    9000002    1    1    2    0    0  0.35706514638E+00  0.13655030777E+00  0.98357324617E-01  0.10176736553E+01  0.93800000000E+00 0. -1.
         22    1    1    2    0    0 -0.30012487255E+00 -0.11491979638E+00  0.32808601196E+01  0.32965625466E+01  0.00000000000E+00 0.  1.
</event>
<event>
 5    1  0.1560836E+002  0.1599549E+01  0.7818608E-02  0.3353853E+00
         11   -1    0    0    0    0  0.00000000000E+00  0.00000000000E+00  0.39999999674E+01  0.40000000000E+01  0.51100000000E-03 0. -1.
    9000002   -1    0    0    0    0 -0.00000000000E+00 -0.00000000000E+00  0.00000000000E+00  0.93800000000E+00  0.93800000000E+00 0.  1.
         11    1    1    2    0    0  0.78948631489E-02 -0.10115533936E-01  0.10476966287E+00  0.10555376009E+00  0.51100000000E-03 0. -1.
    9000002    1    1    2    0    0 -0.14681641629E+00  0.30937443168E+00  0.78667094735E-01  0.10016486963E+01  0.93800000000E+00 0.  1.
         22    1    1    2    0    0  0.13892155314E+00 -0.29925889774E+00  0.38165632098E+01  0.38307975436E+01  0.00000000000E+00 0. -1.
</event>
<event>
 5    1  0.1560836E+002  0.1599661E+01  0.7818608E-02  0.3353731E+00
         11   -1    0    0    0    0  0.00000000000E+00  0.00000000000E+00  0.39999999674E+01  0.40000000000E+01  0.51100000000E-03 0.  1.
    9000002   -1    0    0    0    0 -0.00000000000E+00 -0.00000000000E+00  0.00000000000E+00  0.93800000000E+00  0.93800000000E+00 0. -1.
         11    1    1    2    0    0 -0.46886638968E-01  0.41122968694E-01  0.95467958445E+00  0.95671459985E+00  0.51100000000E-03 0.  1.
    9000002    1    1    2    0    0  0.20943382995E+00 -0.16317626807E+00  0.46894659834E-01  0.97597752674E+00  0.93800000000E+00 0. -1.
         22    1    1    2    0    0 -0.16254719098E+00  0.12205329938E+00  0.29984257231E+01  0.30053078734E+01  0.00000000000E+00 0.  1.
</event>
<event>
 5    1  0.1560836E+002  0.1599677E+01  0.7818608E-02  0.3353714E+00
         11   -1    0    0    0    0  0.00000000000E+00  0.00000000000E+00  0.39999999674E+01  0.40000000000E+01  0.51100000000E-03 0. -1.
    9000002   -1    0    0    0    0 -0.00000000000E+00 -0.00000000000E+00  0.00000000000E+00  0.93800000000E+00  0.93800000000E+00 0. -1.
         11    1    1    2    0    0  0.63029781431E-01 -0.13434674035E+00  0.10053862410E+01  0.10162792700E+01  0.51100000000E-03 0. -1.
    9000002    1    1    2    0    0 -0.23887256586E+00  0.50416082857E+00  0.21529809231E+00  0.11124007876E+01  0.93800000000E+00 0. -1.
         22    1    1    2    0    0  0.17584278443E+00 -0.36981408822E+00  0.27793156340E+01  0.28093199423E+01  0.00000000000E+00 0.  1.
</event>
<event>
 5    1  0.1560836E+002  0.1599620E+01  0.7818608E-02  0.3353776E+00
         11   -1    0    0    0    0  0.00000000000E+00  0.00000000000E+00  0.39999999674E+01  0.40000000000E+01  0.51100000000E-03 0.  1.
    9000002   -1    0    0    0    0 -0.00000000000E+00 -0.00000000000E+00  0.00000000000E+00  0.93800000000E+00  0.93800000000E+00 0.  1.
         11    1    1    2    0    0 -0.29097901722E+00  0.19048345356E-01  0.22394883045E+01  0.22583931799E+01  0.51100000000E-03 0.  1.
    9000002    1    1    2    0    0  0.50923472633E+00 -0.23757590315E-01  0.17825372249E+00  0.10823598381E+01  0.93800000000E+00 0.  1.
         22    1    1    2    0    0 -0.21825570911E+00  0.47092449592E-02  0.15822579404E+01  0.15972469820E+01  0.00000000000E+00 0. -1.
</event>
<event>
 5    1  0.1560836E+002  0.1598666E+01  0.7818608E-02  0.3354813E+00
         11   -1    0    0    0    0  0.00000000000E+00  0.00000000000E+00  0.39999999674E+01  0.40000000000E+01  0.51100000000E-03 0.  1.
    9000002   -1    0    0    0    0 -0.00000000000E+00 -0.00000000000E+00  0.00000000000E+00  0.93800000000E+00  0.93800000000E+00 0.  1.
         11    1    1    2    0    0  0.19293838794E-01 -0.14243872804E-01  0.96406949753E+00  0.96436787447E+00  0.51100000000E-03 0.  1.
    9000002    1    1    2    0    0 -0.12856381487E+00  0.18448062294E+00  0.34291769437E-01  0.96518479069E+00  0.93800000000E+00 0.  1.
         22    1    1    2    0    0  0.10926997608E+00 -0.17023675013E+00  0.30016387004E+01  0.30084473348E+01  0.00000000000E+00 0.  1.
</event>
<event>
 5    1  0.1560836E+002  0.1599655E+01  0.7818608E-02  0.3353738E+00
         11   -1    0    0    0    0  0.00000000000E+00  0.00000000000E+00  0.39999999674E+01  0.40000000000E+01  0.51100000000E-03 0.  1.
    9000002   -1    0    0    0    0 -0.00000000000E+00 -0.00000000000E+00  0.00000000000E+00  0.93800000000E+00  0.93800000000E+00 0. -1.
         11    1    1    2    0    0  0.37144099761E+00 -0.10332259243E+00  0.19284176064E+01  0.19665804582E+01  0.51100000000E-03 0.  1.
    9000002    1    1    2    0    0 -0.70161692660E+00  0.20307221678E+00  0.38455252239E+00  0.12494916084E+01  0.93800000000E+00 0. -1.
         22    1    1    2    0    0  0.33017592899E+00 -0.99749624351E-01  0.16870298386E+01  0.17219279334E+01  0.00000000000E+00 0.  1.
</event>
<event>
 5    1  0.1560836E+002  0.1599674E+01  0.7818608E-02  0.3353717E+00
         11   -1    0    0    0    0  0.00000000000E+00  0.00000000000E+00  0.39999999674E+01  0.40000000000E+01  0.51100000000E-03 0.  1.
    9000002   -1    0    0    0    0 -0.00000000000E+00 -0.00000000000E+00  0.00000000000E+00  0.93800000000E+00  0.93800000000E+00 0. -1.
         11    1    1    2    0    0 -0.94230787908E-01  0.40833924710E-01  0.10468836363E+01  0.10519089599E+01  0.51100000000E-03 0.  1.
    9000002    1    1    2    0    0  0.34445481888E+00 -0.15238259482E+00  0.95419684465E-01  0.10152923193E+01  0.93800000000E+00 0. -1.
         22    1    1    2    0    0 -0.25022403098E+00  0.11154867011E+00  0.28576966466E+01  0.28707987208E+01  0.00000000000E+00 0.  1.
</event>
<event>
 5    1  0.1560836E+002  0.1599677E+01  0.7818608E-02  0.3353714E+00
         11   -1    0    0    0    0  0.00000000000E+00  0.00000000000E+00  0.39999999674E+01  0.40000000000E+01  0.51100000000E-03 0.  1.
    9000002   -1    0    0    0    0 -0.00000000000E+00 -0.00000000000E+00  0.00000000000E+00  0.93800000000E+00  0.93800000000E+00 0.  1.
         11    1    1    2    0    0  0.23770819182E+00 -0.19851076839E+00  0.17295994135E+01  0.17571073108E+01  0.51100000000E-03 0. -1.
    9000002    1    1    2    0    0 -0.50720700456E+00  0.42367003288E+00  0.30901107575E+00  0.11883127060E+01  0.93800000000E+00 0.  1.
         22    1    1    2    0    0  0.26949881273E+00 -0.22515926449E+00  0.19613894782E+01  0.19925799832E+01  0.00000000000E+00 0.  1.
</event>
<event>
 5    1  0.1560836E+002  0.1591886E+01  0.7818608E-02  0.3362217E+00
         11   -1    0    0    0    0  0.00000000000E+00  0.00000000000E+00  0.39999999674E+01  0.40000000000E+01  0.51100000000E-03 0.  1.
    9000002   -1    0    0    0    0 -0.00000000000E+00 -0.00000000000E+00  0.00000000000E+00  0.93800000000E+00  0.93800000000E+00 0. -1.
         11    1    1    2    0    0 -0.68846995819E-01  0.54248233408E-02  0.13238037834E+01  0.13256040342E+01  0.51100000000E-03 0.  1.
    9000002    1    1    2    0    0  0.32608395337E-01  0.22837892842E+00  0.41233098780E-01  0.96683215236E+00  0.93800000000E+00 0. -1.
         22    1    1    2    0    0  0.36238600482E-01 -0.23380375176E+00  0.26349630852E+01  0.26455638134E+01  0.00000000000E+00 0.  1.
</event>
<event>
 5    1  0.1560836E+002  0.1592410E+01  0.7818608E-02  0.3361643E+00
         11   -1    0    0    0    0  0.00000000000E+00  0.00000000000E+00  0.39999999674E+01  0.40000000000E+01  0.51100000000E-03 0. -1.
    9000002   -1    0    0    0    0 -0.00000000000E+00 -0.00000000000E+00  0.00000000000E+00  0.93800000000E+00  0.93800000000E+00 0. -1.
         11    1    1    2    0    0  0.54623917447E-01  0.20873505681E+00  0.12440585544E+01  0.12626306048E+01  0.51100000000E-03 0. -1.
    9000002    1    1    2    0    0  0.53154249389E-01 -0.44807995794E+00  0.14461666792E+00  0.10508848669E+01  0.93800000000E+00 0. -1.
         22    1    1    2    0    0 -0.10777816684E+00  0.23934490114E+00  0.26113247451E+01  0.26244845283E+01  0.00000000000E+00 0. -1.
</event>
<event>
 5    1  0.1560836E+002  0.1596047E+01  0.7818608E-02  0.3357665E+00
         11   -1    0    0    0    0  0.00000000000E+00  0.00000000000E+00  0.39999999674E+01  0.40000000000E+01  0.51100000000E-03 0. -1.
    9000002   -1    0    0    0    0 -0.00000000000E+00 -0.00000000000E+00  0.00000000000E+00  0.93800000000E+00  0.93800000000E+00 0.  1.
         11    1    1    2    0    0  0.27293956509E-01  0.72310198153E-01  0.20645646952E+01  0.20660109793E+01  0.51100000000E-03 0. -1.
    9000002    1    1    2    0    0 -0.11156195186E+00 -0.26336120455E+00  0.57329982541E-01  0.98231151885E+00  0.93800000000E+00 0.  1.
         22    1    1    2    0    0  0.84267995354E-01  0.19105100640E+00  0.18781052896E+01  0.18896775018E+01  0.00000000000E+00 0. -1.
</event>
<event>
 5    1  0.1560836E+002  0.1580805E+01  0.7818608E-02  0.3374465E+00
         11   -1    0    0    0    0  0.00000000000E+00  0.00000000000E+00  0.39999999674E+01  0.40000000000E+01  0.51100000000E-03 0.  1.
    9000002   -1    0    0    0    0 -0.00000000000E+00 -0.00000000000E+00  0.00000000000E+00  0.93800000000E+00  0.93800000000E+00 0.  1.
         11    1    1    2    0    0  0.22490376155E-01  0.15606500962E+00  0.17149523059E+01  0.17221857556E+01  0.51100000000E-03 0.  1.
    9000002    1    1    2    0    0 -0.17590863987E+00 -0.30012480699E-02  0.34629043292E-01  0.95498483114E+00  0.93800000000E+00 0.  1.
         22    1    1    2    0    0  0.15341826372E+00 -0.15306376155E+00  0.22504186182E+01  0.22608294133E+01  0.00000000000E+00 0. -1.
</event>
<event>
 5    1  0.1560836E+002  0.1599483E+01  0.7818608E-02  0.3353925E+00
         11   -1    0    0    0    0  0.00000000000E+00  0.00000000000E+00  0.39999999674E+01  0.40000000000E+01  0.51100000000E-03 0.  1.
    9000002   -1    0    0    0    0 -0.00000000000E+00 -0.00000000000E+00  0.00000000000E+00  0.93800000000E+00  0.93800000000E+00 0. -1.
         11    1    1    2    0    0  0.30096453605E-01  0.15012899507E-01  0.59478732896E+00  0.59573770359E+00  0.51100000000E-03 0.  1.
    9000002    1    1    2    0    0 -0.17913824518E+00 -0.17670180645E+00  0.42212405620E-01  0.97208020578E+00  0.93800000000E+00 0. -1.
         22    1    1    2    0    0  0.14904179157E+00  0.16168890695E+00  0.33630002328E+01  0.33701820906E+01  0.00000000000E+00 0.  1.
</event>
<event>
 5    1  0.1560836E+002  0.1595534E+01  0.7818608E-02  0.3358225E+00
         11   -1    0    0    0    0  0.00000000000E+00  0.00000000000E+00  0.39999999674E+01  0.40000000000E+01  0.51100000000E-03 0.  1.
    9000002   -1    0    0    0    0 -0.00000000000E+00 -0.00000000000E+00  0.00000000000E+00  0.93800000000E+00  0.93800000000E+00 0.  1.
         11    1    1    2    0    0 -0.93365544415E-01  0.83153405497E-01  0.49369036208E+00  0.50927600421E+00  0.51100000000E-03 0.  1.
    9000002    1    1    2    0    0  0.38722296345E+00 -0.39677172238E+00  0.21641688023E+00  0.11108778912E+01  0.93800000000E+00 0.  1.
         22    1    1    2    0    0 -0.29385741903E+00  0.31361831689E+00  0.32898927251E+01  0.33178461046E+01  0.00000000000E+00 0.  1.
</event>
<event>
 5    1  0.1560836E+002  0.1599637E+01  0.7818608E-02  0.3353758E+00
         11   -1    0    0    0    0  0.00000000000E+00  0.00000000000E+00  0.39999999674E+01  0.40000000000E+01  0.51100000000E-03 0. -1.
    9000002   -1    0    0    0    0 -0.00000000000E+00 -0.00000000000E+00  0.00000000000E+00  0.93800000000E+00  0.93800000000E+00 0. -1.
         11    1    1    2    0    0  0.86946416689E-01  0.13746345840E+00  0.10932971376E+01  0.11053301651E+01  0.51100000000E-03 0. -1.
    9000002    1    1    2    0    0 -0.30297784840E+00 -0.45301296052E+00  0.20499350981E+00  0.11040301889E+01  0.93800000000E+00 0. -1.
         22    1    1    2    0    0  0.21603143171E+00  0.31554950212E+00  0.27017093200E+01  0.27286396460E+01  0.00000000000E+00 0. -1.
</event>
<event>
 5    1  0.1560836E+002  0.1599670E+01  0.7818608E-02  0.3353722E+00
         11   -1    0    0    0    0  0.00000000000E+00  0.00000000000E+00  0.39999999674E+01  0.40000000000E+01  0.51100000000E-03 0. -1.
    9000002   -1    0    0    0    0 -0.00000000000E+00 -0.00000000000E+00  0.00000000000E+00  0.93800000000E+00  0.93800000000E+00 0.  1.
         11    1    1    2    0    0 -0.29431749119E-01 -0.52257185106E-01  0.73702808391E+00  0.73946446760E+00  0.51100000000E-03 0. -1.
    9000002    1    1    2    0    0  0.16160128438E+00  0.26671947026E+00  0.64958098690E-01  0.99061486235E+00  0.93800000000E+00 0.  1.
         22    1    1    2    0    0 -0.13216953526E+00 -0.21446228515E+00  0.31980137848E+01  0.32079206700E+01  0.00000000000E+00 0. -1.
</event>
<event>
 5    1  0.1560836E+002  0.1599674E+01  0.7818608E-02  0.3353718E+00
         11   -1    0    0    0    0  0.00000000000E+00  0.00000000000E+00  0.39999999674E+01  0.40000000000E+01  0.51100000000E-03 0.  1.
    9000002   -1    0    0    0    0 -0.00000000000E+00 -0.00000000000E+00  0.00000000000E+00  0.93800000000E+00  0.93800000000E+00 0. -1.
         11    1    1    2    0    0 -0.13626413604E+00 -0.90955626487E-02  0.98998100475E+00  0.99935644037E+00  0.51100000000E-03 0.  1.
    9000002    1    1    2    0    0  0.52543658846E+00  0.42358013066E-01  0.19112501455E+00  0.10928177254E+01  0.93800000000E+00 0. -1.
         22    1    1    2    0    0 -0.38917245242E+00 -0.33262450417E-01  0.28188939481E+01  0.28458258342E+01  0.00000000000E+00 0.  1.
</event>
<event>
 5    1  0.1560836E+002  0.1584493E+01  0.7818608E-02  0.3370368E+00
         11   -1    0    0    0    0  0.00000000000E+00  0.00000000000E+00  0.39999999674E+01  0.40000000000E+01  0.51100000000E-03 0.  1.
    9000002   -1    0    0    0    0 -0.00000000000E+00 -0.00000000000E+00  0.00000000000E+00  0.93800000000E+00  0.93800000000E+00 0.  1.
         11    1    1    2    0    0 -0.46804251350E-01  0.10790461889E+00  0.24901277612E+00  0.27539366099E+00  0.51100000000E-03 0.  1.
    9000002    1    1    2    0    0  0.28326103437E+00 -0.53568668828E+00  0.27187745526E+00  0.11493295403E+01  0.93800000000E+00 0.  1.
         22    1    1    2    0    0 -0.23645678302E+00  0.42778206939E+00  0.34791097360E+01  0.35132767987E+01  0.00000000000E+00 0.  1.
</event>
<event>
 5    1  0.1560836E+002  0.1493954E+01  0.7818608E-02  0.3477168E+00
         11   -1    0    0    0    0  0.00000000000E+00  0.00000000000E+00  0.39999999674E+01  0.40000000000E+01  0.51100000000E-03 0.  1.
    9000002   -1    0    0    0    0 -0.00000000000E+00 -0.00000000000E+00  0.00000000000E+00  0.93800000000E+00  0.93800000000E+00 0. -1.
         11    1    1    2    0    0 -0.89134457073E-01  0.30059534272E-01 -0.43650459564E-01  0.10370222167E+00  0.51100000000E-03 0.  1.
    9000002    1    1    2    0    0  0.92555224096E-01  0.19263727659E+00  0.19800031861E+00  0.98220350030E+00  0.93800000000E+00 0. -1.
         22    1    1    2    0    0 -0.34207670234E-02 -0.22269681086E+00  0.38456501083E+01  0.38520942780E+01  0.00000000000E+00 0.  1.
</event>
<event>
 5    1  0.1560836E+002  0.1599673E+01  0.7818608E-02  0.3353718E+00
         11   -1    0    0    0    0  0.00000000000E+00  0.00000000000E+00  0.39999999674E+01  0.40000000000E+01  0.51100000000E-03 0. -1.
    9000002   -1    0    0    0    0 -0.00000000000E+00 -0.00000000000E+00  0.00000000000E+00  0.93800000000E+00  0.93800000000E+00 0. -1.
         11    1    1    2    0    0 -0.59184298422E-01  0.64750085797E-01  0.65263221422E+00  0.65850164992E+00  0.51100000000E-03 0. -1.
    9000002    1    1    2    0    0  0.34075118663E+00 -0.37173656059E+00  0.17421135119E+00  0.10791167854E+01  0.93800000000E+00 0. -1.
         22    1    1    2    0    0 -0.28156688821E+00  0.30698647479E+00  0.31731564020E+01  0.32003815647E+01  0.00000000000E+00 0. -1.
</event>
<event>
 5    1  0.1560836E+002  0.1595488E+01  0.7818608E-02  0.3358275E+00
         11   -1    0    0    0    0  0.00000000000E+00  0.00000000000E+00  0.39999999674E+01  0.40000000000E+01  0.51100000000E-03 0.  1.
    9000002   -1    0    0    0    0 -0.00000000000E+00 -0.00000000000E+00  0.00000000000E+00  0.93800000000E+00  0.93800000000E+00 0. -1.
         11    1    1    2    0    0  0.90060663952E-01 -0.17771276686E+00  0.10750345320E+01  0.10933399549E+01  0.51100000000E-03 0.  1.
    9000002    1    1    2    0    0 -0.15933097873E+00  0.44297700828E+00  0.15467994353E+00  0.10608415884E+01  0.93800000000E+00 0. -1.
         22    1    1    2    0    0  0.69270314778E-01 -0.26526424142E+00  0.27702854918E+01  0.27838184568E+01  0.00000000000E+00 0.  1.
</event>
<event>
 5    1  0.1560836E+002  0.1594299E+01  0.7818608E-02  0.3359574E+00
         11   -1    0    0    0    0  0.00000000000E+00  0.00000000000E+00  0.39999999674E+01  0.40000000000E+01  0.51100000000E-03 0.  1.
    9000002   -1    0    0    0    0 -0.00000000000E+00 -0.00000000000E+00  0.00000000000E+00  0.93800000000E+00  0.93800000000E+00 0.  1.
         11    1    1    2    0    0 -0.14358545495E-01  0.24043159242E-01  0.16692566541E+01  0.16694916231E+01  0.51100000000E-03 0.  1.
    9000002    1    1    2    0    0  0.15417440189E+00 -0.22474869767E+00  0.53597538064E-01  0.97826296025E+00  0.93800000000E+00 0.  1.
         22    1    1    2    0    0 -0.13981585639E+00  0.20070553843E+00  0.22771457752E+01  0.22902454166E+01  0.00000000000E+00 0.  1.
</event>
<event>
 5    1  0.1560836E+002  0.1587920E+01  0.7818608E-02  0.3366580E+00
         11   -1    0    0    0    0  0.00000000000E+00  0.00000000000E+00  0.39999999674E+01  0.40000000000E+01  0.51100000000E-03 0.  1.
    9000002   -1    0    0    0    0 -0.00000000000E+00 -0.00000000000E+00  0.00000000000E+00  0.93800000000E+00  0.93800000000E+00 0. -1.
         11    1    1    2    0    0  0.34955193962E-01 -0.19678121568E-01  0.20815137569E+01  0.20819003039E+01  0.51100000000E-03 0.  1.
    9000002    1    1    2    0    0  0.11790194951E+00 -0.12939422217E+00  0.29049003684E-01  0.95463688335E+00  0.93800000000E+00 0. -1.
         22    1    1    2    0    0 -0.15285714347E+00  0.14907234373E+00  0.18894372068E+01  0.19014628128E+01  0.00000000000E+00 0.  1.
</event>
<event>
 5    1  0.1560836E+002  0.1585302E+01  0.7818608E-02  0.3369472E+00
         11   -1    0    0    0    0  0.00000000000E+00  0.00000000000E+00  0.39999999674E+01  0.40000000000E+01  0.51100000000E-03 0. -1.
    9000002   -1    0    0    0    0 -0.00000000000E+00 -0.00000000000E+00  0.00000000000E+00  0.93800000000E+00  0.93800000000E+00 0. -1.
         11    1    1    2    0    0  0.31500887669E-01  0.92754787651E-01  0.43852466113E+00  0.44933272315E+00  0.51100000000E-03 0. -1.
    9000002    1    1    2    0    0  0.17129188957E+00 -0.15334604646E+00  0.46034026062E-01  0.96686041027E+00  0.93800000000E+00 0. -1.
         22    1    1    2    0    0 -0.20279277723E+00  0.60591258808E-01  0.35154412802E+01  0.35218068666E+01  0.00000000000E+00 0. -1.
</event>
<event>
 5    1  0.1560836E+002  0.1597740E+01  0.7818608E-02  0.3355820E+00
         11   -1    0    0    0    0  0.00000000000E+00  0.00000000000E+00  0.39999999674E+01  0.40000000000E+01  0.51100000000E-03 0. -1.
    9000002   -1    0    0    0    0 -0.00000000000E+00 -0.00000000000E+00  0.00000000000E+00  0.93800000000E+00  0.93800000000E+00 0.  1.
         11    1    1    2    0    0 -0.22277011395E-01 -0.69267920165E-02  0.17335690670E+00  0.17492033589E+00  0.51100000000E-03 0. -1.
    9000002    1    1    2    0    0  0.16971590318E+00 -0.20359343115E+00  0.48216032848E-01  0.97592138967E+00  0.93800000000E+00 0.  1.
         22    1    1    2    0    0 -0.14743889178E+00  0.21052022317E+00  0.37784270278E+01  0.37871582744E+01  0.00000000000E+00 0. -1.
</event>
<event>
 5    1  0.1560836E+002  0.1599668E+01  0.7818608E-02  0.3353724E+00
         11   -1    0    0    0    0  0.00000000000E+00  0.00000000000E+00  0.39999999674E+01  0.40000000000E+01  0.51100000000E-03 0.  1.
    9000002   -1    0    0    0    0 -0.00000000000E+00 -0.00000000000E+00  0.00000000000E+00  0.93800000000E+00  0.93800000000E+00 0.  1.
         11    1    1    2    0    0 -0.46502389971E-01  0.17224177754E-01  0.64638846931E+00  0.64828809873E+00  0.51100000000E-03 0.  1.
    9000002    1    1    2    0    0  0.29897179973E+00 -0.10909541839E+00  0.67695312404E-01  0.99283060119E+00  0.93800000000E+00 0.  1.
         22    1    1    2    0    0 -0.25246940976E+00  0.91871240635E-01  0.32859161856E+01  0.32968813001E+01  0.00000000000E+00 0.  1.
</event>
<event>
 5    1  0.1560836E+002  0.1594840E+01  0.7818608E-02  0.3358983E+00
         11   -1    0    0    0    0  0.00000000000E+00  0.00000000000E+00  0.39999999674E+01  0.40000000000E+01  0.51100000000E-03 0.  1.
    9000002   -1    0    0    0    0 -0.00000000000E+00 -0.00000000000E+00  0.00000000000E+00  0.93800000000E+00  0.93800000000E+00 0.  1.
         11    1    1    2    0    0  0.39436300201E-01 -0.26717906510E-01  0.10674858237E+01  0.10685482269E+01  0.51100000000E-03 0.  1.
    9000002    1    1    2    0    0 -0.13424245488E+00 -0.17625314266E+00  0.36203090172E-01  0.96448995367E+00  0.93800000000E+00 0.  1.
         22    1    1    2    0    0  0.94806154682E-01  0.20297104917E+00  0.28963110535E+01  0.29049618194E+01  0.00000000000E+00 0.  1.
</event>
<event>
 5    1  0.1560836E+002  0.1590986E+01  0.7818608E-02  0.3363205E+00
         11   -1    0    0    0    0  0.00000000000E+00  0.00000000000E+00  0.39999999674E+01  0.40000000000E+01  0.51100000000E-03 0.  1.
    9000002   -1    0    0    0    0 -0.00000000000E+00 -0.00000000000E+00  0.00000000000E+00  0.93800000000E+00  0.93800000000E+00 0. -1.
         11    1    1    2    0    0  0.15072444872E+00 -0.65831565915E-01  0.16263668855E+01  0.16346624000E+01  0.51100000000E-03 0.  1.
    9000002    1    1    2    0    0 -0.12701832119E+00  0.28167056762E+00  0.70611000620E-01  0.99010195232E+00  0.93800000000E+00 0. -1.
         22    1    1    2    0    0 -0.23706127529E-01 -0.21583900171E+00  0.23030220812E+01  0.23132356477E+01  0.00000000000E+00 0.  1.
</event>
<event>
 5    1  0.1560836E+002  0.1599450E+01  0.7818608E-02  0.3353961E+00
         11   -1    0    0    0    0  0.00000000000E+00  0.00000000000E+00  0.39999999674E+01  0.40000000000E+01  0.51100000000E-03 0.  1.
    9000002   -1    0    0    0    0 -0.00000000000E+00 -0.00000000000E+00  0.00000000000E+00  0.93800000000E+00  0.93800000000E+00 0. -1.
         11    1    1    2    0    0  0.21364974150E-01  0.24443262056E-01  0.37285186849E+00  0.37426289175E+00  0.51100000000E-03 0.  1.
    9000002    1    1    2    0    0 -0.27238168038E+00 -0.15617880071E+00  0.66033309575E-01  0.99135664399E+00  0.93800000000E+00 0. -1.
         22    1    1    2    0    0  0.25101670623E+00  0.13173553866E+00  0.35611147893E+01  0.35723804643E+01  0.00000000000E+00 0.  1.
</event>
<event>
 5    1  0.1560836E+002  0.1588398E+01  0.7818608E-02  0.3366053E+00
         11   -1    0    0    0    0  0.00000000000E+00  0.00000000000E+00  0.39999999674E+01  0.40000000000E+01  0.51100000000E-03 0.  1.
    9000002   -1    0    0    0    0 -0.00000000000E+00 -0.00000000000E+00  0.00000000000E+00  0.93800000000E+00  0.93800000000E+00 0. -1.
         11    1    1    2    0    0  0.16690481177E-01  0.15145502932E+00  0.21428700488E+01  0.21482805928E+01  0.51100000000E-03 0.  1.
    9000002    1    1    2    0    0  0.19995063515E+00 -0.24122043415E+00  0.74516780372E-01  0.99174810557E+00  0.93800000000E+00 0. -1.
         22    1    1    2    0    0 -0.21664111632E+00  0.89765404826E-01  0.17826131381E+01  0.17979713016E+01  0.00000000000E+00 0.  1.
</event>
<event>
 5    1  0.1560836E+002  0.1599673E+01  0.7818608E-02  0.3353719E+00
         11   -1    0    0    0    0  0.00000000000E+00  0.00000000000E+00  0.39999999674E+01  0.40000000000E+01  0.51100000000E-03 0. -1.
    9000002   -1    0    0    0    0 -0.00000000000E+00 -0.00000000000E+00  0.00000000000E+00  0.93800000000E+00  0.93800000000E+00 0.  1.
         11    1    1    2    0    0  0.17256219722E-01  0.10963967063E-02  0.18536205189E+00  0.18616747999E+00  0.51100000000E-03 0. -1.
    9000002    1    1    2    0    0 -0.38305149839E+00 -0.20304023635E-01  0.99048941315E-01  0.10182315044E+01  0.93800000000E+00 0.  1.
         22    1    1    2    0    0  0.36579527867E+00  0.19207626928E-01  0.37155889742E+01  0.37336010156E+01  0.00000000000E+00 0. -1.
</event>
<event>
 5    1  0.1560836E+002  0.1599540E+01  0.7818608E-02  0.3353863E+00
         11   -1    0    0    0    0  0.00000000000E+00  0.00000000000E+00  0.39999999674E+01  0.40000000000E+01  0.51100000000E-03 0.  1.
    9000002   -1    0    0    0    0 -0.00000000000E+00 -0.00000000000E+00  0.00000000000E+00  0.93800000000E+00  0.93800000000E+00 0.  1.
         11    1    1    2    0    0  0.15677111527E+00 -0.21919149407E+00  0.90568047684E+00  0.94492300263E+00  0.51100000000E-03 0.  1.
    9000002    1    1    2    0    0 -0.56698114094E+00  0.75315603666E+00  0.69392366860E+00  0.15000285623E+01  0.93800000000E+00 0.  1.
         22    1    1    2    0    0  0.41021002567E+00 -0.53396454259E+00  0.24003958219E+01  0.24930484351E+01  0.00000000000E+00 0.  1.
</event>
<event>
 5    1  0.1560836E+002  0.1592577E+01  0.7818608E-02  0.3361460E+00
         11   -1    0    0    0    0  0.00000000000E+00  0.00000000000E+00  0.39999999674E+01  0.40000000000E+01  0.51100000000E-03 0. -1.
    9000002   -1    0    0    0    0 -0.00000000000E+00 -0.00000000000E+00  0.00000000000E+00  0.93800000000E+00  0.93800000000E+00 0.  1.
         11    1    1    2    0    0 -0.78194765556E-01  0.25465610532E-01  0.11750134328E+01  0.11778878330E+01  0.51100000000E-03 0. -1.
    9000002    1    1    2    0    0  0.16689114726E+00  0.21084625440E+00  0.53599077194E-01  0.97725414254E+00  0.93800000000E+00 0.  1.
         22    1    1    2    0    0 -0.88696381707E-01 -0.23631186493E+00  0.27713874574E+01  0.27828580245E+01  0.00000000000E+00 0. -1.
</event>
<event>
 5    1  0.1560836E+002  0.1599288E+01  0.7818608E-02  0.3354137E+00
         11   -1    0    0    0    0  0.00000000000E+00  0.00000000000E+00  0.39999999674E+01  0.40000000000E+01  0.51100000000E-03 0. -1.
    9000002   -1    0    0    0    0 -0.00000000000E+00 -0.00000000000E+00  0.00000000000E+00  0.93800000000E+00  0.93800000000E+00 0.  1.
         11    1    1    2    0    0 -0.25578335437E+00 -0.33685273515E+00  0.22219507623E+01  0.22618488767E+01  0.51100000000E-03 0. -1.
    9000002    1    1    2    0    0  0.41609427207E+00  0.58801348820E+00  0.37337219121E+00  0.12402197784E+01  0.93800000000E+00 0.  1.
         22    1    1    2    0    0 -0.16031091770E+00 -0.25116075305E+00  0.14046770138E+01  0.14359313449E+01  0.00000000000E+00 0. -1.
</event>
<event>
 5    1  0.1560836E+002  0.1599648E+01  0.7818608E-02  0.3353746E+00
         11   -1    0    0    0    0  0.00000000000E+00  0.00000000000E+00  0.39999999674E+01  0.40000000000E+01  0.51100000000E-03 0.  1.
    9000002   -1    0    0    0    0 -0.00000000000E+00 -0.00000000000E+00  0.00000000000E+00  0.93800000000E+00  0.93800000000E+00 0. -1.
         11    1    1    2    0    0 -0.28499520489E-01  0.74945780651E-01  0.84372594128E+00  0.84752747319E+00  0.51100000000E-03 0.  1.
    9000002    1    1    2    0    0  0.13878619055E+00 -0.32383208567E+00  0.83274751725E-01  0.10054389642E+01  0.93800000000E+00 0. -1.
         22    1    1    2    0    0 -0.11028667006E+00  0.24888630502E+00  0.30729992744E+01  0.30850335626E+01  0.00000000000E+00 0.  1.
</event>
<event>
 5    1  0.1560836E+002  0.1544945E+01  0.7818608E-02  0.3415375E+00
         11   -1    0    0    0    0  0.00000000000E+00  0.00000000000E+00  0.39999999674E+01  0.40000000000E+01  0.51100000000E-03 0. -1.
    9000002   -1    0    0    0    0 -0.00000000000E+00 -0.00000000000E+00  0.00000000000E+00  0.93800000000E+00  0.93800000000E+00 0. -1.
         11    1    1    2    0    0 -0.20907303593E+00  0.27613055513E+00  0.30868979003E+01  0.31062676198E+01  0.51100000000E-03 0. -1.
    9000002    1    1    2    0    0  0.92474708176E-01 -0.11229927547E+00  0.55460767118E-01  0.95083258022E+00  0.93800000000E+00 0. -1.
         22    1    1    2    0    0  0.11659832776E+00 -0.16383127966E+00  0.85764129994E+00  0.88089979997E+00  0.00000000000E+00 0. -1.
</event>
<event>
 5    1  0.1560836E+002  0.1599640E+01  0.7818608E-02  0.3353755E+00
         11   -1    0    0    0    0  0.00000000000E+00  0.00000000000E+00  0.39999999674E+01  0.40000000000E+01  0.51100000000E-03 0. -1.
    9000002   -1    0    0    0    0 -0.00000000000E+00 -0.00000000000E+00  0.00000000000E+00  0.93800000000E+00  0.93800000000E+00 0.  1.
         11    1    1    2    0    0 -0.45645117439E-01 -0.30958920410E-01  0.60990917804E+00  0.61239807159E+00  0.51100000000E-03 0. -1.
    9000002    1    1    2    0    0  0.30275369021E+00  0.23059557204E+00  0.97487661399E-01  0.10169473727E+01  0.93800000000E+00 0.  1.
         22    1    1    2    0    0 -0.25710857277E+00 -0.19963665163E+00  0.32926031279E+01  0.33086545557E+01  0.00000000000E+00 0. -1.
</event>
<event>
 5    1  0.1560836E+002  0.1589424E+01  0.7818608E-02  0.3364923E+00
         11   -1    0    0    0    0  0.00000000000E+00  0.00000000000E+00  0.39999999674E+01  0.40000000000E+01  0.51100000000E-03 0.  1.
    9000002   -1    0    0    0    0 -0.00000000000E+00 -0.00000000000E+00  0.00000000000E+00  0.93800000000E+00  0.93800000000E+00 0. -1.
         11    1    1    2    0    0 -0.37795173835E-01  0.51459775128E-01  0.88134902463E+00  0.88365884138E+00  0.51100000000E-03 0.  1.
    9000002    1    1    2    0    0  0.12199797149E+00  0.22159596089E+00  0.50403563803E-01  0.97281693765E+00  0.93800000000E+00 0. -1.
         22    1    1    2    0    0 -0.84202797659E-01 -0.27305573602E+00  0.30682473789E+01  0.30815242210E+01  0.00000000000E+00 0.  1.
</event>
<event>
 5    1  0.1560836E+002  0.1599594E+01  0.7818608E-02  0.3353804E+00
         11   -1    0    0    0    0  0.00000000000E+00  0.00000000000E+00  0.39999999674E+01  0.40000000000E+01  0.51100000000E-03 0. -1.
    9000002   -1    0    0    0    0 -0.00000000000E+00 -0.00000000000E+00  0.00000000000E+00  0.93800000000E+00  0.93800000000E+00 0.  1.
         11    1    1    2    0    0 -0.30503012063E-01  0.30425814214E-03  0.33172193538E+00  0.33312194441E+00  0.51100000000E-03 0. -1.
    9000002    1    1    2    0    0  0.29707838953E+00 -0.34666269538E-01  0.59737849927E-01  0.98634169053E+00  0.93800000000E+00 0.  1.
         22    1    1    2    0    0 -0.26657537747E+00  0.34362011396E-01  0.36085401821E+01  0.36185363651E+01  0.00000000000E+00 0. -1.
</event>
<event>
 5    1  0.1560836E+002  0.1595441E+01  0.7818608E-02  0.3358327E+00
         11   -1    0    0    0    0  0.00000000000E+00  0.00000000000E+00  0.39999999674E+01  0.40000000000E+01  0.51100000000E-03 0.  1.
    9000002   -1    0    0    0    0 -0.00000000000E+00 -0.00000000000E+00  0.00000000000E+00  0.93800000000E+00  0.93800000000E+00 0.  1.
         11    1    1    2    0    0 -0.44745792279E-01  0.13813091717E+00  0.71479955375E+00  0.72939769630E+00  0.51100000000E-03 0.  1.
    9000002    1    1    2    0    0 -0.86801365435E-01 -0.73551994343E+00  0.40156675155E+00  0.12608028871E+01  0.93800000000E+00 0.  1.
         22    1    1    2    0    0  0.13154715771E+00  0.59738902627E+00  0.28836336621E+01  0.29477994166E+01  0.00000000000E+00 0.  1.
</event>
<event>
 5    1  0.1560836E+002  0.1599632E+01  0.7818608E-02  0.3353763E+00
         11   -1    0    0    0    0  0.00000000000E+00  0.00000000000E+00  0.39999999674E+01  0.40000000000E+01  0.51100000000E-03 0.  1.
    9000002   -1    0    0    0    0 -0.00000000000E+00 -0.00000000000E+00  0.00000000000E+00  0.93800000000E+00  0.93800000000E+00 0.  1.
         11    1    1    2    0    0 -0.81929305157E-01 -0.14673388074E-01  0.10101621445E+01  0.10135854866E+01  0.51100000000E-03 0.  1.
    9000002    1    1    2    0    0  0.31498795166E+00  0.84143946975E-01  0.71128089579E-01  0.99559068830E+00  0.93800000000E+00 0.  1.
         22    1    1    2    0    0 -0.23305864651E+00 -0.69470558902E-01  0.29187097333E+01  0.29288238251E+01  0.00000000000E+00 0.  1.
</event>
<event>
 5    1  0.1560836E+002  0.1599625E+01  0.7818608E-02  0.3353771E+00
         11   -1    0    0    0    0  0.00000000000E+00  0.00000000000E+00  0.39999999674E+01  0.40000000000E+01  0.51100000000E-03 0. -1.
    9000002   -1    0    0    0    0 -0.00000000000E+00 -0.00000000000E+00  0.00000000000E+00  0.93800000000E+00  0.93800000000E+00 0.  1.
         11    1    1    2    0    0  0.29027750674E+00 -0.12625055843E+00  0.21295849310E+01  0.21529822279E+01  0.51100000000E-03 0. -1.
    9000002    1    1    2    0    0 -0.50616967474E+00  0.23631433623E+00  0.21594114043E+00  0.11128911812E+01  0.93800000000E+00 0.  1.
         22    1    1    2    0    0  0.21589216800E+00 -0.11006377780E+00  0.16544738959E+01  0.16721265908E+01  0.00000000000E+00 0. -1.
</event>
<event>
 5    1  0.1560836E+002  0.1599567E+01  0.7818608E-02  0.3353834E+00
         11   -1    0    0    0    0  0.00000000000E+00  0.00000000000E+00  0.39999999674E+01  0.40000000000E+01  0.51100000000E-03 0.  1.
    9000002   -1    0    0    0    0 -0.00000000000E+00 -0.00000000000E+00  0.00000000000E+00  0.93800000000E+00  0.93800000000E+00 0. -1.
         11    1    1    2    0    0  0.31528823853E-01 -0.27386443706E-01  0.40248823862E+00  0.40464938822E+00  0.51100000000E-03 0.  1.
    9000002    1    1    2    0    0 -0.35177229068E+00  0.20733247752E+00  0.11267687140E+00  0.10292087145E+01  0.93800000000E+00 0. -1.
         22    1    1    2    0    0  0.32024346683E+00 -0.17994603381E+00  0.34848348573E+01  0.35041418972E+01  0.00000000000E+00 0.  1.
</event>
<event>
 5    1  0.1560836E+002  0.1599160E+01  0.7818608E-02  0.3354275E+00
         11   -1    0    0    0    0  0.00000000000E+00  0.00000000000E+00  0.39999999674E+01  0.40000000000E+01  0.51100000000E-03 0.  1.
    9000002   -1    0    0    0    0 -0.00000000000E+00 -0.00000000000E+00  0.00000000000E+00  0.93800000000E+00  0.93800000000E+00 0.  1.
         11    1    1    2    0    0 -0.89957511805E-02  0.15957728425E-01  0.16287768503E+00  0.16390538135E+00  0.51100000000E-03 0.  1.
    9000002    1    1    2    0    0  0.24480924811E+00 -0.12437037899E+00  0.50585931226E-01  0.97867384535E+00  0.93800000000E+00 0.  1.
         22    1    1    2    0    0 -0.23581349693E+00  0.10841265057E+00  0.37865363511E+01  0.37954207733E+01  0.00000000000E+00 0.  1.
</event>
<event>
 5    1  0.1560836E+002  0.1598622E+01  0.7818608E-02  0.3354860E+00
         11   -1    0    0    0    0  0.00000000000E+00  0.00000000000E+00  0.39999999674E+01  0.40000000000E+01  0.51100000000E-03 0. -1.
    9000002   -1    0    0    0    0 -0.00000000000E+00 -0.00000000000E+00  0.00000000000E+00  0.93800000000E+00  0.93800000000E+00 0. -1.
         11    1    1    2    0    0 -0.52497227761E-03  0.50992237902E-02  0.19590622953E+00  0.19597395125E+00  0.51100000000E-03 0. -1.
    9000002    1    1    2    0    0  0.33616191515E+00 -0.79018235919E-03  0.76500959939E-01  0.99935071644E+00  0.93800000000E+00 0. -1.
         22    1    1    2    0    0 -0.33563694287E+00 -0.43090414310E-02  0.37275927779E+01  0.37426753323E+01  0.00000000000E+00 0. -1.
</event>
<event>
 5    1  0.1560836E+002  0.1599635E+01  0.7818608E-02  0.3353759E+00
         11   -1    0    0    0    0  0.00000000000E+00  0.00000000000E+00  0.39999999674E+01  0.40000000000E+01  0.51100000000E-03 0.  1.
    9000002   -1    0    0    0    0 -0.00000000000E+00 -0.00000000000E+00  0.00000000000E+00  0.93800000000E+00  0.93800000000E+00 0. -1.
         11    1    1    2    0    0  0.30909246658E-01 -0.14846256732E-02  0.38708536838E+00  0.38832065253E+00  0.51100000000E-03 0.  1.
    9000002    1    1    2    0    0 -0.30648279751E+00 -0.31063220385E-01  0.63387564983E-01  0.98932229947E+00  0.93800000000E+00 0. -1.
         22    1    1    2    0    0  0.27557355086E+00  0.32547846058E-01  0.35495270340E+01  0.35603570480E+01  0.00000000000E+00 0.  1.
</event>
<event>
 5    1  0.1560836E+002  0.1599674E+01  0.7818608E-02  0.3353717E+00
         11   -1    0    0    0    0  0.00000000000E+00  0.00000000000E+00  0.39999999674E+01  0.40000000000E+01  0.51100000000E-03 0. -1.
    9000002   -1    0    0    0    0 -0.00000000000E+00 -0.00000000000E+00  0.00000000000E+00  0.93800000000E+00  0.93800000000E+00 0.  1.
         11    1    1    2    0    0 -0.71015196398E-02  0.34094809442E-01  0.48119536246E+00  0.48245427305E+00  0.51100000000E-03 0. -1.
    9000002    1    1    2    0    0  0.50916524004E-01 -0.27338230961E+00  0.51488971676E-01  0.97970684076E+00  0.93800000000E+00 0.  1.
         22    1    1    2    0    0 -0.43815004364E-01  0.23928750017E+00  0.34673156332E+01  0.34758388862E+01  0.00000000000E+00 0. -1.
</event>
<event>
 5    1  0.1560836E+002  0.1599207E+01  0.7818608E-02  0.3354224E+00
         11   -1    0    0    0    0  0.00000000000E+00  0.00000000000E+00  0.39999999674E+01  0.40000000000E+01  0.51100000000E-03 0.  1.
    9000002   -1    0    0    0    0 -0.00000000000E+00 -0.00000000000E+00  0.00000000000E+00  0.93800000000E+00  0.93800000000E+00 0.  1.
         11    1    1    2    0    0  0.28384238707E-01  0.19220772104E-01  0.50005806299E+00  0.50123191296E+00  0.51100000000E-03 0.  1.
    9000002    1    1    2    0    0 -0.10110510868E+00 -0.21143331398E+00  0.36801441943E-01  0.96753534064E+00  0.93800000000E+00 0.  1.
         22    1    1    2    0    0  0.72720869974E-01  0.19221254188E+00  0.34631404624E+01  0.34692327464E+01  0.00000000000E+00 0.  1.
</event>
<event>
 5    1  0.1560836E+002  0.1599618E+01  0.7818608E-02  0.3353778E+00
         11   -1    0    0    0    0  0.00000000000E+00  0.00000000000E+00  0.39999999674E+01  0.40000000000E+01  0.51100000000E-03 0.  1.
    9000002   -1    0    0    0    0 -0.00000000000E+00 -0.00000000000E+00  0.00000000000E+00  0.93800000000E+00  0.93800000000E+00 0.  1.
         11    1    1    2    0    0  0.42883915655E-03  0.34157344191E-01  0.35440009021E+00  0.35604296529E+00  0.51100000000E-03 0.  1.
    9000002    1    1    2    0    0  0.50954018427E-01 -0.35887439236E+00  0.88268307753E-01  0.10094664113E+01  0.93800000000E+00 0.  1.
         22    1    1    2    0    0 -0.51382857583E-01  0.32471704817E+00  0.35573315694E+01  0.35724906234E+01  0.00000000000E+00 0.  1.
</event>
<event>
 5    1  0.1560836E+002  0.1567577E+01  0.7818608E-02  0.3389324E+00
         11   -1    0    0    0    0  0.00000000000E+00  0.00000000000E+00  0.39999999674E+01  0.40000000000E+01  0.51100000000E-03 0.  1.
    9000002   -1    0    0    0    0 -0.00000000000E+00 -0.00000000000E+00  0.00000000000E+00  0.93800000000E+00  0.93800000000E+00 0.  1.
         11    1    1    2    0    0 -0.22040767950E+00  0.16496404068E-02  0.15271773498E+01  0.15430013562E+01  0.51100000000E-03 0.  1.
    9000002    1    1    2    0    0  0.50609856137E-01 -0.16261744271E+00  0.43387286954E-01  0.95432292589E+00  0.93800000000E+00 0.  1.
         22    1    1    2    0    0  0.16979782337E+00  0.16096780230E+00  0.24294353306E+01  0.24406757179E+01  0.00000000000E+00 0.  1.
</event>
<event>
 5    1  0.1560836E+002  0.1599672E+01  0.7818608E-02  0.3353719E+00
         11   -1    0    0    0    0  0.00000000000E+00  0.00000000000E+00  0.39999999674E+01  0.40000000000E+01  0.51100000000E-03 0. -1.
    9000002   -1    0    0    0    0 -0.00000000000E+00 -0.00000000000E+00  0.00000000000E+00  0.93800000000E+00  0.93800000000E+00 0.  1.
         11    1    1    2    0    0 -0.52405422140E-01  0.61976593949E-01  0.11045631009E+01  0.11075411195E+01  0.51100000000E-03 0. -1.
    9000002    1    1    2    0    0  0.18619947845E+00 -0.21324703371E+00  0.53387463212E-01  0.98124347865E+00  0.93800000000E+00 0.  1.
         22    1    1    2    0    0 -0.13379405631E+00  0.15127043977E+00  0.28420494033E+01  0.28492154018E+01  0.00000000000E+00 0. -1.
</event>
<event>
 5    1  0.1560836E+002  0.1599662E+01  0.7818608E-02  0.3353730E+00
         11   -1    0    0    0    0  0.00000000000E+00  0.00000000000E+00  0.39999999674E+01  0.40000000000E+01  0.51100000000E-03 0.  1.
    9000002   -1    0    0    0    0 -0.00000000000E+00 -0.00000000000E+00  0.00000000000E+00  0.93800000000E+00  0.93800000000E+00 0.  1.
         11    1    1    2    0    0 -0.27203033114E-01  0.52361961519E-01  0.60565004675E+00  0.60851788821E+00  0.51100000000E-03 0.  1.
    9000002    1    1    2    0    0  0.19327998698E+00 -0.34767941741E+00  0.10671688316E+00  0.10244367349E+01  0.93800000000E+00 0.  1.
         22    1    1    2    0    0 -0.16607695386E+00  0.29531745589E+00  0.32876330375E+01  0.33050453769E+01  0.00000000000E+00 0.  1.
</event>
<event>
 5    1  0.1560836E+002  0.1594359E+01  0.7818608E-02  0.3359509E+00
         11   -1    0    0    0    0  0.00000000000E+00  0.00000000000E+00  0.39999999674E+01  0.40000000000E+01  0.51100000000E-03 0.  1.
    9000002   -1    0    0    0    0 -0.00000000000E+00 -0.00000000000E+00  0.00000000000E+00  0.93800000000E+00  0.93800000000E+00 0. -1.
         11    1    1    2    0    0 -0.19735208374E+00 -0.30954961281E+00  0.13711036884E+01  0.14193993072E+01  0.51100000000E-03 0.  1.
    9000002    1    1    2    0    0  0.37295469308E+00  0.63617522419E+00  0.39905709878E+00  0.12581354009E+01  0.93800000000E+00 0. -1.
         22    1    1    2    0    0 -0.17560260935E+00 -0.32662561139E+00  0.22298391801E+01  0.22604652919E+01  0.00000000000E+00 0.  1.
</event>
<event>
 5    1  0.1560836E+002  0.1581723E+01  0.7818608E-02  0.3373442E+00
         11   -1    0    0    0    0  0.00000000000E+00  0.00000000000E+00  0.39999999674E+01  0.40000000000E+01  0.51100000000E-03 0.  1.
    9000002   -1    0    0    0    0 -0.00000000000E+00 -0.00000000000E+00  0.00000000000E+00  0.93800000000E+00  0.93800000000E+00 0.  1.
         11    1    1    2    0    0  0.63051049161E-01  0.58148301388E-01  0.28126091906E+00  0.29404867874E+00  0.51100000000E-03 0.  1.
    9000002    1    1    2    0    0  0.16521790656E+00 -0.28147978238E+00  0.85644531597E-01  0.99684843900E+00  0.93800000000E+00 0.  1.
         22    1    1    2    0    0 -0.22826895572E+00  0.22333148099E+00  0.36330945167E+01  0.36471028823E+01  0.00000000000E+00 0.  1.
</event>
<event>
 5    1  0.1560836E+002  0.1520270E+01  0.7818608E-02  0.3444722E+00
         11   -1    0    0    0    0  0.00000000000E+00  0.00000000000E+00  0.39999999674E+01  0.40000000000E+01  0.51100000000E-03 0.  1.
    9000002   -1    0    0    0    0 -0.00000000000E+00 -0.00000000000E+00  0.00000000000E+00  0.93800000000E+00  0.93800000000E+00 0. -1.
         11    1    1    2    0    0 -0.13310827882E+00  0.18182768383E-01  0.16108238267E+00  0.20975276419E+00  0.51100000000E-03 0.  1.
    9000002    1    1    2    0    0 -0.20167536819E+00 -0.31831817927E-01  0.89764151362E-01  0.96415134789E+00  0.93800000000E+00 0. -1.
         22    1    1    2    0    0  0.33478364701E+00  0.13649049544E-01  0.37491534333E+01  0.37640958879E+01  0.00000000000E+00 0.  1.
</event>
<event>
 5    1  0.1560836E+002  0.1599626E+01  0.7818608E-02  0.3353769E+00
         11   -1    0    0    0    0  0.00000000000E+00  0.00000000000E+00  0.39999999674E+01  0.40000000000E+01  0.51100000000E-03 0. -1.
    9000002   -1    0    0    0    0 -0.00000000000E+00 -0.00000000000E+00  0.00000000000E+00  0.93800000000E+00  0.93800000000E+00 0. -1.
         11    1    1    2    0    0  0.12435563259E+00  0.23908407990E+00  0.16638571421E+01  0.16855403795E+01  0.51100000000E-03 0. -1.
    9000002    1    1    2    0    0 -0.26460178292E+00 -0.54952313632E+00  0.26014476977E+00  0.11486988649E+01  0.93800000000E+00 0. -1.
         22    1    1    2    0    0  0.14024615033E+00  0.31043905642E+00  0.20759980555E+01  0.21037607556E+01  0.00000000000E+00 0. -1.
</event>
<event>
 5    1  0.1560836E+002  0.1589232E+01  0.7818608E-02  0.3365134E+00
         11   -1    0    0    0    0  0.00000000000E+00  0.00000000000E+00  0.39999999674E+01  0.40000000000E+01  0.51100000000E-03 0.  1.
    9000002   -1    0    0    0    0 -0.00000000000E+00 -0.00000000000E+00  0.00000000000E+00  0.93800000000E+00  0.93800000000E+00 0. -1.
         11    1    1    2    0    0  0.47106463878E-02  0.46921437686E-01  0.10950305168E+01  0.10960455763E+01  0.51100000000E-03 0.  1.
    9000002    1    1    2    0    0  0.25211732753E+00  0.12261052828E+00  0.60479170053E-01  0.98086605533E+00  0.93800000000E+00 0. -1.
         22    1    1    2    0    0 -0.25682797392E+00 -0.16953196597E+00  0.28444902805E+01  0.28610883684E+01  0.00000000000E+00 0.  1.
</event>
<event>
 5    1  0.1560836E+002  0.1588406E+01  0.7818608E-02  0.3366044E+00
         11   -1    0    0    0    0  0.00000000000E+00  0.00000000000E+00  0.39999999674E+01  0.40000000000E+01  0.51100000000E-03 0. -1.
    9000002   -1    0    0    0    0 -0.00000000000E+00 -0.00000000000E+00  0.00000000000E+00  0.93800000000E+00  0.93800000000E+00 0. -1.
         11    1    1    2    0    0  0.55264560416E-01 -0.77338101743E-02  0.12869672423E+00  0.14027505625E+00  0.51100000000E-03 0. -1.
    9000002    1    1    2    0    0 -0.26009637377E+00  0.54008085180E+00  0.26196475522E+00  0.11435938891E+01  0.93800000000E+00 0. -1.
         22    1    1    2    0    0  0.20483181336E+00 -0.53234704162E+00  0.36093384879E+01  0.36541310547E+01  0.00000000000E+00 0. -1.
</event>
<event>
 5    1  0.1560836E+002  0.1599651E+01  0.7818608E-02  0.3353743E+00
         11   -1    0    0    0    0  0.00000000000E+00  0.00000000000E+00  0.39999999674E+01  0.40000000000E+01  0.51100000000E-03 0. -1.
    9000002   -1    0    0    0    0 -0.00000000000E+00 -0.00000000000E+00  0.00000000000E+00  0.93800000000E+00  0.93800000000E+00 0.  1.
         11    1    1    2    0    0  0.49858197852E-01  0.86142596914E-01  0.96941441949E+00  0.97451062833E+00  0.51100000000E-03 0. -1.
    9000002    1    1    2    0    0 -0.21955085062E+00 -0.35320569588E+00  0.11692853843E+00  0.10327018557E+01  0.93800000000E+00 0.  1.
         22    1    1    2    0    0  0.16969265277E+00  0.26706309897E+00  0.29136570094E+01  0.29307875160E+01  0.00000000000E+00 0. -1.
</event>
<event>
 5    1  0.1560836E+002  0.1571527E+01  0.7818608E-02  0.3384859E+00
         11   -1    0    0    0    0  0.00000000000E+00  0.00000000000E+00  0.39999999674E+01  0.40000000000E+01  0.51100000000E-03 0. -1.
    9000002   -1    0    0    0    0 -0.00000000000E+00 -0.00000000000E+00  0.00000000000E+00  0.93800000000E+00  0.93800000000E+00 0. -1.
         11    1    1    2    0    0 -0.43371068031E-01 -0.75189676256E-01  0.21768042390E+00  0.23434923731E+00  0.51100000000E-03 0. -1.
    9000002    1    1    2    0    0 -0.15202635705E+00 -0.44189426649E-01  0.37675820879E-01  0.95201270272E+00  0.93800000000E+00 0. -1.
         22    1    1    2    0    0  0.19539742508E+00  0.11937910291E+00  0.37446437226E+01  0.37516380600E+01  0.00000000000E+00 0. -1.
</event>
<event>
 5    1  0.1560836E+002  0.1599239E+01  0.7818608E-02  0.3354189E+00
         11   -1    0    0    0    0  0.00000000000E+00  0.00000000000E+00  0.39999999674E+01  0.40000000000E+01  0.51100000000E-03 0. -1.
    9000002   -1    0    0    0    0 -0.00000000000E+00 -0.00000000000E+00  0.00000000000E+00  0.93800000000E+00  0.93800000000E+00 0. -1.
         11    1    1    2    0    0  0.54086245546E-01  0.40193616988E-01  0.11815254503E+01  0.11834456049E+01  0.51100000000E-03 0. -1.
    9000002    1    1    2    0    0 -0.25710134079E+00 -0.12453861942E+00  0.54713094756E-01  0.98206338385E+00  0.93800000000E+00 0. -1.
         22    1    1    2    0    0  0.20301509524E+00  0.84345002435E-01  0.27637614223E+01  0.27724910113E+01  0.00000000000E+00 0. -1.
</event>
<event>
 5    1  0.1560836E+002  0.1597070E+01  0.7818608E-02  0.3356549E+00
         11   -1    0    0    0    0  0.00000000000E+00  0.00000000000E+00  0.39999999674E+01  0.40000000000E+01  0.51100000000E-03 0.  1.
    9000002   -1    0    0    0    0 -0.00000000000E+00 -0.00000000000E+00  0.00000000000E+00  0.93800000000E+00  0.93800000000E+00 0. -1.
         11    1    1    2    0    0 -0.79596349789E-02  0.26206473625E+00  0.14951099211E+01  0.15179246421E+01  0.51100000000E-03 0.  1.
    9000002    1    1    2    0    0  0.13146604135E+00 -0.55731364749E+00  0.22999054484E+00  0.11227740077E+01  0.93800000000E+00 0. -1.
         22    1    1    2    0    0 -0.12350640637E+00  0.29524891124E+00  0.22748995014E+01  0.22973013501E+01  0.00000000000E+00 0.  1.
</event>
<event>
 5    1  0.1560836E+002  0.1599675E+01  0.7818608E-02  0.3353717E+00
         11   -1    0    0    0    0  0.00000000000E+00  0.00000000000E+00  0.39999999674E+01  0.40000000000E+01  0.51100000000E-03 0. -1.
    9000002   -1    0    0    0    0 -0.00000000000E+00 -0.00000000000E+00  0.00000000000E+00  0.93800000000E+00  0.93800000000E+00 0. -1.
         11    1    1    2    0    0  0.25587385748E+00 -0.12147149369E+00  0.16887184798E+01  0.17123075425E+01  0.51100000000E-03 0. -1.
    9000002    1    1    2    0    0 -0.56126157682E+00  0.27006660528E+00  0.27203639761E+00  0.11583601903E+01  0.93800000000E+00 0. -1.
         22    1    1    2    0    0  0.30538771934E+00 -0.14859511159E+00  0.20392450899E+01  0.20673322672E+01  0.00000000000E+00 0. -1.
</event>
<event>
 5    1  0.1560836E+002  0.1599674E+01  0.7818608E-02  0.3353718E+00
         11   -1    0    0    0    0  0.00000000000E+00  0.00000000000E+00  0.39999999674E+01  0.40000000000E+01  0.51100000000E-03 0.  1.
    9000002   -1    0    0    0    0 -0.00000000000E+00 -0.00000000000E+00  0.00000000000E+00  0.93800000000E+00  0.93800000000E+00 0. -1.
         11    1    1    2    0    0 -0.14452999937E-01  0.89262162496E-01  0.86372185620E+00  0.86844247297E+00  0.51100000000E-03 0.  1.
    9000002    1    1    2    0    0  0.71354385821E-01 -0.39704800248E+00  0.10982138606E+00  0.10269582764E+01  0.93800000000E+00 0. -1.
         22    1    1    2    0    0 -0.56901385884E-01  0.30778583998E+00  0.30264567251E+01  0.30425992506E+01  0.00000000000E+00 0.  1.
</event>
<event>
 5    1  0.1560836E+002  0.1599673E+01  0.7818608E-02  0.3353719E+00
         11   -1    0    0    0    0  0.00000000000E+00  0.00000000000E+00  0.39999999674E+01  0.40000000000E+01  0.51100000000E-03 0. -1.
    9000002   -1    0    0    0    0 -0.00000000000E+00 -0.00000000000E+00  0.00000000000E+00  0.93800000000E+00  0.93800000000E+00 0.  1.
         11    1    1    2    0    0  0.16793448815E-01 -0.57610743590E-01  0.78945570111E+00  0.79173327758E+00  0.51100000000E-03 0. -1.
    9000002    1    1    2    0    0 -0.83568849691E-01  0.29702824820E+00  0.63570154301E-01  0.98949214114E+00  0.93800000000E+00 0.  1.
         22    1    1    2    0    0  0.66775400876E-01 -0.23941750461E+00  0.31469741120E+01  0.31567745813E+01  0.00000000000E+00 0. -1.
</event>
<event>
 5    1  0.1560836E+002  0.1596721E+01  0.7818608E-02  0.3356930E+00
         11   -1    0    0    0    0  0.00000000000E+00  0.00000000000E+00  0.39999999674E+01  0.40000000000E+01  0.51100000000E-03 0. -1.
    9000002   -1    0    0    0    0 -0.00000000000E+00 -0.00000000000E+00  0.00000000000E+00  0.93800000000E+00  0.93800000000E+00 0. -1.
         11    1    1    2    0    0 -0.18413904627E-02  0.10320433145E-01  0.37615846438E+00  0.37630486777E+00  0.51100000000E-03 0. -1.
    9000002    1    1    2    0    0 -0.24980250137E+00  0.19142961218E+00  0.68503908442E-01  0.99175771819E+00  0.93800000000E+00 0. -1.
         22    1    1    2    0    0  0.25164389183E+00 -0.20175004532E+00  0.35553375945E+01  0.35699374140E+01  0.00000000000E+00 0. -1.
</event>
<event>
 5    1  0.1560836E+002  0.1599676E+01  0.7818608E-02  0.3353715E+00
         11   -1    0    0    0    0  0.00000000000E+00  0.00000000000E+00  0.39999999674E+01  0.40000000000E+01  0.51100000000E-03 0.  1.
    9000002   -1    0    0    0    0 -0.00000000000E+00 -0.00000000000E+00  0.00000000000E+00  0.93800000000E+00  0.93800000000E+00 0. -1.
         11    1    1    2    0    0  0.16429878459E-01  0.17438255591E+00  0.13367279617E+01  0.13481547098E+01  0.51100000000E-03 0.  1.
    9000002    1    1    2    0    0 -0.50468674950E-01 -0.50011473974E+00  0.17303962238E+00  0.10781690735E+01  0.93800000000E+00 0. -1.
         22    1    1    2    0    0  0.34038796491E-01  0.32573218383E+00  0.24902323832E+01  0.25116762168E+01  0.00000000000E+00 0.  1.
</event>
<event>
 5    1  0.1560836E+002  0.1599658E+01  0.7818608E-02  0.3353735E+00
         11   -1    0    0    0    0  0.00000000000E+00  0.00000000000E+00  0.39999999674E+01  0.40000000000E+01  0.51100000000E-03 0.  1.
    9000002   -1    0    0    0    0 -0.00000000000E+00 -0.00000000000E+00  0.00000000000E+00  0.93800000000E+00  0.93800000000E+00 0. -1.
         11    1    1    2    0    0  0.95775918497E-01  0.75394220086E-01  0.98577694276E+00  0.99328432837E+00  0.51100000000E-03 0.  1.
    9000002    1    1    2    0    0 -0.39038115895E+00 -0.28901701476E+00  0.16114357202E+00  0.10685221265E+01  0.93800000000E+00 0. -1.
         22    1    1    2    0    0  0.29460524045E+00  0.21362279468E+00  0.28530794526E+01  0.28761935451E+01  0.00000000000E+00 0. -1.
</event>
<event>
 5    1  0.1560836E+002  0.1595343E+01  0.7818608E-02  0.3358433E+00
         11   -1    0    0    0    0  0.00000000000E+00  0.00000000000E+00  0.39999999674E+01  0.40000000000E+01  0.51100000000E-03 0.  1.
    9000002   -1    0    0    0    0 -0.00000000000E+00 -0.00000000000E+00  0.00000000000E+00  0.93800000000E+00  0.93800000000E+00 0. -1.
         11    1    1    2    0    0  0.12908775254E+00 -0.20404496035E+00  0.13317265315E+01  0.13534377746E+01  0.51100000000E-03 0.  1.
    9000002    1    1    2    0    0 -0.19674395686E+00  0.45465745557E+00  0.17177370703E+00  0.10746030862E+01  0.93800000000E+00 0. -1.
         22    1    1    2    0    0  0.67656204317E-01 -0.25061249522E+00  0.24964997288E+01  0.25099591392E+01  0.00000000000E+00 0.  1.
</event>
<event>
 5    1  0.1560836E+002  0.1599659E+01  0.7818608E-02  0.3353734E+00
         11   -1    0    0    0    0  0.00000000000E+00  0.00000000000E+00  0.39999999674E+01  0.40000000000E+01  0.51100000000E-03 0.  1.
    9000002   -1    0    0    0    0 -0.00000000000E+00 -0.00000000000E+00  0.00000000000E+00  0.93800000000E+00  0.93800000000E+00 0. -1.
         11    1    1    2    0    0 -0.43276401140E-01  0.63922854239E-01  0.87464604198E+00  0.87804609108E+00  0.51100000000E-03 0.  1.
    9000002    1    1    2    0    0  0.20305231388E+00 -0.26988804587E+00  0.76398115411E-01  0.99987522797E+00  0.93800000000E+00 0. -1.
         22    1    1    2    0    0 -0.15977591274E+00  0.20596519163E+00  0.30489558100E+01  0.30600786810E+01  0.00000000000E+00 0.  1.
</event>
<event>
 5    1  0.1560836E+002  0.1599509E+01  0.7818608E-02  0.3353897E+00
         11   -1    0    0    0    0  0.00000000000E+00  0.00000000000E+00  0.39999999674E+01  0.40000000000E+01  0.51100000000E-03 0.  1.
    9000002   -1    0    0    0    0 -0.00000000000E+00 -0.00000000000E+00  0.00000000000E+00  0.93800000000E+00  0.93800000000E+00 0.  1.
         11    1    1    2    0    0  0.24199220010E-01  0.79887413685E-01  0.47079024485E+00  0.47813315811E+00  0.51100000000E-03 0.  1.
    9000002    1    1    2    0    0 -0.14671738050E+00 -0.56870177589E+00  0.24019298227E+00  0.11324682637E+01  0.93800000000E+00 0.  1.
         22    1    1    2    0    0  0.12251816049E+00  0.48881436220E+00  0.32890167402E+01  0.33273985782E+01  0.00000000000E+00 0.  1.
</event>
<event>
 5    1  0.1560836E+002  0.1599402E+01  0.7818608E-02  0.3354012E+00
         11   -1    0    0    0    0  0.00000000000E+00  0.00000000000E+00  0.39999999674E+01  0.40000000000E+01  0.51100000000E-03 0.  1.
    9000002   -1    0    0    0    0 -0.00000000000E+00 -0.00000000000E+00  0.00000000000E+00  0.93800000000E+00  0.93800000000E+00 0. -1.
         11    1    1    2    0    0 -0.79455703751E-02  0.22049120232E-01  0.29964534783E+00  0.30056096118E+00  0.51100000000E-03 0.  1.
    9000002    1    1    2    0    0  0.16865633922E+00 -0.16754192543E+00  0.37716940826E-01  0.96839135950E+00  0.93800000000E+00 0. -1.
         22    1    1    2    0    0 -0.16071076885E+00  0.14549280520E+00  0.36626376787E+01  0.36690476793E+01  0.00000000000E+00 0.  1.
</event>
<event>
 5    1  0.1560836E+002  0.1539584E+01  0.7818608E-02  0.3421666E+00
         11   -1    0    0    0    0  0.00000000000E+00  0.00000000000E+00  0.39999999674E+01  0.40000000000E+01  0.51100000000E-03 0. -1.
    9000002   -1    0    0    0    0 -0.00000000000E+00 -0.00000000000E+00  0.00000000000E+00  0.93800000000E+00  0.93800000000E+00 0. -1.
         11    1    1    2    0    0 -0.23684639298E+00 -0.30762473332E-01  0.12821008504E+01  0.13041569673E+01  0.51100000000E-03 0. -1.
    9000002    1    1    2    0    0 -0.10562214903E+00 -0.69978228888E-01  0.56063814334E-01  0.94817727359E+00  0.93800000000E+00 0. -1.
         22    1    1    2    0    0  0.34246854200E+00  0.10074070222E+00  0.26618353026E+01  0.26856657591E+01  0.00000000000E+00 0. -1.
</event>
<event>
 5    1  0.1560836E+002  0.1577592E+01  0.7818608E-02  0.3378049E+00
         11   -1    0    0    0    0  0.00000000000E+00  0.00000000000E+00  0.39999999674E+01  0.40000000000E+01  0.51100000000E-03 0.  1.
    9000002   -1    0    0    0    0 -0.00000000000E+00 -0.00000000000E+00  0.00000000000E+00  0.93800000000E+00  0.93800000000E+00 0. -1.
         11    1    1    2    0    0 -0.11859019509E+00 -0.42088345429E-01  0.15377313393E+01  0.15428716720E+01  0.51100000000E-03 0.  1.
    9000002    1    1    2    0    0 -0.14308864904E+00  0.87819467508E-01  0.35190462080E-01  0.95355597055E+00  0.93800000000E+00 0. -1.
         22    1    1    2    0    0  0.26167884414E+00 -0.45731122079E-01  0.24270781660E+01  0.24415723575E+01  0.00000000000E+00 0.  1.
</event>
<event>
 5    1  0.1560836E+002  0.1598664E+01  0.7818608E-02  0.3354815E+00
         11   -1    0    0    0    0  0.00000000000E+00  0.00000000000E+00  0.39999999674E+01  0.40000000000E+01  0.51100000000E-03 0.  1.
    9000002   -1    0    0    0    0 -0.00000000000E+00 -0.00000000000E+00  0.00000000000E+00  0.93800000000E+00  0.93800000000E+00 0. -1.
         11    1    1    2    0    0  0.19391736494E+00  0.87539084253E-01  0.10514836671E+01  0.10727931762E+01  0.51100000000E-03 0.  1.
    9000002    1    1    2    0    0 -0.76490955919E+00 -0.29505942627E+00  0.49989600036E+00  0.13423437376E+01  0.93800000000E+00 0. -1.
         22    1    1    2    0    0  0.57099219425E+00  0.20752034201E+00  0.24486202999E+01  0.25228630862E+01  0.00000000000E+00 0. -1.
</event>
<event>
 5    1  0.1560836E+002  0.1599559E+01  0.7818608E-02  0.3353842E+00
         11   -1    0    0    0    0  0.00000000000E+00  0.00000000000E+00  0.39999999674E+01  0.40000000000E+01  0.51100000000E-03 0. -1.
    9000002   -1    0    0    0    0 -0.00000000000E+00 -0.00000000000E+00  0.00000000000E+00  0.93800000000E+00  0.93800000000E+00 0. -1.
         11    1    1    2    0    0  0.52616342377E-01  0.88905515460E-01  0.10620773994E+01  0.10670901244E+01  0.51100000000E-03 0. -1.
    9000002    1    1    2    0    0 -0.21017599100E+00 -0.36370682440E+00  0.11943906299E+00  0.10346817342E+01  0.93800000000E+00 0. -1.
         22    1    1    2    0    0  0.15755964862E+00  0.27480130894E+00  0.28184835050E+01  0.28362281414E+01  0.00000000000E+00 0. -1.
</event>
<event>
 5    1  0.1560836E+002  0.1275342E+01  0.7818608E-02  0.3830228E+00
         11   -1    0    0    0    0  0.00000000000E+00  0.00000000000E+00  0.39999999674E+01  0.40000000000E+01  0.51100000000E-03 0.  1.
    9000002   -1    0    0    0    0 -0.00000000000E+00 -0.00000000000E+00  0.00000000000E+00  0.93800000000E+00  0.93800000000E+00 0.  1.
         11    1    1    2    0    0 -0.62782647876E-01 -0.52048612172E+00  0.28433912668E+01  0.28913183189E+01  0.51100000000E-03 0.  1.
    9000002    1    1    2    0    0 -0.34211003977E+00  0.58905592203E-01  0.41235431563E+00  0.10818452892E+01  0.93800000000E+00 0.  1.
         22    1    1    2    0    0  0.40489268764E+00  0.46158052952E+00  0.74425438489E+00  0.96483639192E+00  0.00000000000E+00 0. -1.
</event>
<event>
 5    1  0.1560836E+002  0.1594188E+01  0.7818608E-02  0.3359695E+00
         11   -1    0    0    0    0  0.00000000000E+00  0.00000000000E+00  0.39999999674E+01  0.40000000000E+01  0.51100000000E-03 0. -1.
    9000002   -1    0    0    0    0 -0.00000000000E+00 -0.00000000000E+00  0.00000000000E+00  0.93800000000E+00  0.93800000000E+00 0. -1.
         11    1    1    2    0    0 -0.34270873606E-01 -0.19707564672E-01  0.51131207018E+00  0.51283835184E+00  0.51100000000E-03 0. -1.
    9000002    1    1    2    0    0 -0.10046757257E+00 -0.13084618010E+00  0.22060579722E-01  0.95265162844E+00  0.93800000000E+00 0. -1.
         22    1    1    2    0    0  0.13473844618E+00  0.15055374477E+00  0.34666273175E+01  0.34725100197E+01  0.00000000000E+00 0. -1.
</event>
<event>
 5    1  0.1560836E+002  0.1578032E+01  0.7818608E-02  0.3377557E+00
         11   -1    0    0    0    0  0.00000000000E+00  0.00000000000E+00  0.39999999674E+01  0.40000000000E+01  0.51100000000E-03 0. -1.
    9000002   -1    0    0    0    0 -0.00000000000E+00 -0.00000000000E+00  0.00000000000E+00  0.93800000000E+00  0.93800000000E+00 0.  1.
         11    1    1    2    0    0 -0.12283910389E+00  0.61862806771E-01  0.10435836090E+01  0.10526079338E+01  0.51100000000E-03 0. -1.
    9000002    1    1    2    0    0 -0.12175169823E+00 -0.16427218888E+00  0.44111368435E-01  0.96104039503E+00  0.93800000000E+00 0.  1.
         22    1    1    2    0    0  0.24459080212E+00  0.10240938210E+00  0.29123049900E+01  0.29243516712E+01  0.00000000000E+00 0. -1.
</event>
<event>
 5    1  0.1560836E+002  0.1598276E+01  0.7818608E-02  0.3355237E+00
         11   -1    0    0    0    0  0.00000000000E+00  0.00000000000E+00  0.39999999674E+01  0.40000000000E+01  0.51100000000E-03 0.  1.
    9000002   -1    0    0    0    0 -0.00000000000E+00 -0.00000000000E+00  0.00000000000E+00  0.93800000000E+00  0.93800000000E+00 0.  1.
         11    1    1    2    0    0 -0.90784287865E-02  0.53148121397E-02  0.13991056126E+00  0.14030641956E+00  0.51100000000E-03 0.  1.
    9000002    1    1    2    0    0 -0.34077299800E-01  0.21919370921E+00  0.33680714158E-01  0.96446126673E+00  0.93800000000E+00 0.  1.
         22    1    1    2    0    0  0.43155728586E-01 -0.22450852135E+00  0.38264086919E+01  0.38332323137E+01  0.00000000000E+00 0.  1.
</event>
<event>
 5    1  0.1560836E+002  0.1599586E+01  0.7818608E-02  0.3353813E+00
         11   -1    0    0    0    0  0.00000000000E+00  0.00000000000E+00  0.39999999674E+01  0.40000000000E+01  0.51100000000E-03 0. -1.
    9000002   -1    0    0    0    0 -0.00000000000E+00 -0.00000000000E+00  0.00000000000E+00  0.93800000000E+00  0.93800000000E+00 0.  1.
         11    1    1    2    0    0 -0.17822043940E+00  0.10052228757E+00  0.15210649143E+01  0.15347657769E+01  0.51100000000E-03 0. -1.
    9000002    1    1    2    0    0  0.44252493230E+00 -0.22549857708E+00  0.16885264030E+00  0.10747246801E+01  0.93800000000E+00 0.  1.
         22    1    1    2    0    0 -0.26430449290E+00  0.12497628952E+00  0.23100824128E+01  0.23285095429E+01  0.00000000000E+00 0. -1.
</event>
<event>
 5    1  0.1560836E+002  0.1501489E+01  0.7818608E-02  0.3467753E+00
         11   -1    0    0    0    0  0.00000000000E+00  0.00000000000E+00  0.39999999674E+01  0.40000000000E+01  0.51100000000E-03 0. -1.
    9000002   -1    0    0    0    0 -0.00000000000E+00 -0.00000000000E+00  0.00000000000E+00  0.93800000000E+00  0.93800000000E+00 0.  1.
         11    1    1    2    0    0  0.33399308733E-01  0.33581538057E+00  0.31615580351E+01  0.31795183525E+01  0.51100000000E-03 0. -1.
    9000002    1    1    2    0    0  0.24295653337E+00 -0.18987427017E+00  0.14513632948E+00  0.99799231947E+00  0.93800000000E+00 0.  1.
         22    1    1    2    0    0 -0.27635584210E+00 -0.14594111040E+00  0.69330560281E+00  0.76048932803E+00  0.00000000000E+00 0. -1.
</event>
<event>
 5    1  0.1560836E+002  0.1596192E+01  0.7818608E-02  0.3357506E+00
         11   -1    0    0    0    0  0.00000000000E+00  0.00000000000E+00  0.39999999674E+01  0.40000000000E+01  0.51100000000E-03 0. -1.
    9000002   -1    0    0    0    0 -0.00000000000E+00 -0.00000000000E+00  0.00000000000E+00  0.93800000000E+00  0.93800000000E+00 0. -1.
         11    1    1    2    0    0 -0.33494009706E-01 -0.10086405460E-01  0.24583517373E+00  0.24831185639E+00  0.51100000000E-03 0. -1.
    9000002    1    1    2    0    0  0.11438654034E+00 -0.19074290218E+00  0.35432815699E-01  0.96465881003E+00  0.93800000000E+00 0. -1.
         22    1    1    2    0    0 -0.80892530634E-01  0.20082930764E+00  0.37187319779E+01  0.37250293336E+01  0.00000000000E+00 0. -1.
</event>
<event>
 5    1  0.1560836E+002  0.1596302E+01  0.7818608E-02  0.3357387E+00
         11   -1    0    0    0    0  0.00000000000E+00  0.00000000000E+00  0.39999999674E+01  0.40000000000E+01  0.51100000000E-03 0. -1.
    9000002   -1    0    0    0    0 -0.00000000000E+00 -0.00000000000E+00  0.00000000000E+00  0.93800000000E+00  0.93800000000E+00 0. -1.
         11    1    1    2    0    0  0.13548654503E-01 -0.59713108529E-01  0.54678017866E+00  0.55019818817E+00  0.51100000000E-03 0. -1.
    9000002    1    1    2    0    0  0.17398725893E+00  0.21238642820E+00  0.52785662115E-01  0.97877979509E+00  0.93800000000E+00 0. -1.
         22    1    1    2    0    0 -0.18753591343E+00 -0.15267331967E+00  0.34004341266E+01  0.34090220167E+01  0.00000000000E+00 0. -1.
</event>
<event>
 5    1  0.1560836E+002  0.1598528E+01  0.7818608E-02  0.3354962E+00
         11   -1    0    0    0    0  0.00000000000E+00  0.00000000000E+00  0.39999999674E+01  0.40000000000E+01  0.51100000000E-03 0.  1.
    9000002   -1    0    0    0    0 -0.00000000000E+00 -0.00000000000E+00  0.00000000000E+00  0.93800000000E+00  0.93800000000E+00 0. -1.
         11    1    1    2    0    0 -0.10698419061E-01  0.33594388158E-01  0.66883800378E+00  0.66976680681E+00  0.51100000000E-03 0.  1.
    9000002    1    1    2    0    0 -0.10202444554E+00 -0.27116695374E+00  0.56840171667E-01  0.98336936570E+00  0.93800000000E+00 0. -1.
         22    1    1    2    0    0  0.11272286460E+00  0.23757256558E+00  0.32743217919E+01  0.32848638275E+01  0.00000000000E+00 0.  1.
</event>
<event>
 5    1  0.1560836E+002  0.1599674E+01  0.7818608E-02  0.3353718E+00
         11   -1    0    0    0    0  0.00000000000E+00  0.00000000000E+00  0.39999999674E+01  0.40000000000E+01  0.51100000000E-03 0. -1.
    9000002   -1    0    0    0    0 -0.00000000000E+00 -0.00000000000E+00  0.00000000000E+00  0.93800000000E+00  0.93800000000E+00 0.  1.
         11    1    1    2    0    0 -0.53196838335E-01 -0.34202701459E-01  0.22315150567E+00  0.23194090626E+00  0.51100000000E-03 0. -1.
    9000002    1    1    2    0    0  0.78182001433E+00  0.52014147042E+00  0.68707300235E+00  0.14945577923E+01  0.93800000000E+00 0.  1.
         22    1    1    2    0    0 -0.72862317599E+00 -0.48593876896E+00  0.30897754593E+01  0.32115013014E+01  0.00000000000E+00 0. -1.
</event>
<event>
 5    1  0.1560836E+002  0.1599673E+01  0.7818608E-02  0.3353719E+00
         11   -1    0    0    0    0  0.00000000000E+00  0.00000000000E+00  0.39999999674E+01  0.40000000000E+01  0.51100000000E-03 0. -1.
    9000002   -1    0    0    0    0 -0.00000000000E+00 -0.00000000000E+00  0.00000000000E+00  0.93800000000E+00  0.93800000000E+00 0.  1.
         11    1    1    2    0    0  0.17869706477E+00  0.57430295346E-01  0.13329814910E+01  0.13461317901E+01  0.51100000000E-03 0. -1.
    9000002    1    1    2    0    0 -0.50388110628E+00 -0.16648095225E+00  0.19381761853E+00  0.10949983315E+01  0.93800000000E+00 0.  1.
         22    1    1    2    0    0  0.32518404151E+00  0.10905065690E+00  0.24732008578E+01  0.24968698784E+01  0.00000000000E+00 0. -1.
</event>
<event>
 5    1  0.1560836E+002  0.1599654E+01  0.7818608E-02  0.3353739E+00
         11   -1    0    0    0    0  0.00000000000E+00  0.00000000000E+00  0.39999999674E+01  0.40000000000E+01  0.51100000000E-03 0. -1.
    9000002   -1    0    0    0    0 -0.00000000000E+00 -0.00000000000E+00  0.00000000000E+00  0.93800000000E+00  0.93800000000E+00 0. -1.
         11    1    1    2    0    0 -0.70112726779E-01  0.97599258759E-01  0.78342956403E+00  0.79259293000E+00  0.51100000000E-03 0. -1.
    9000002    1    1    2    0    0  0.32945600707E+00 -0.48963413905E+00  0.24251428509E+00  0.11344337923E+01  0.93800000000E+00 0. -1.
         22    1    1    2    0    0 -0.25934328029E+00  0.39203488029E+00  0.29740561182E+01  0.30109732777E+01  0.00000000000E+00 0.  1.
</event>
<event>
 5    1  0.1560836E+002  0.1596613E+01  0.7818608E-02  0.3357048E+00
         11   -1    0    0    0    0  0.00000000000E+00  0.00000000000E+00  0.39999999674E+01  0.40000000000E+01  0.51100000000E-03 0. -1.
    9000002   -1    0    0    0    0 -0.00000000000E+00 -0.00000000000E+00  0.00000000000E+00  0.93800000000E+00  0.93800000000E+00 0.  1.
         11    1    1    2    0    0  0.30763266659E-01 -0.18287782724E-01  0.79693719026E+00  0.79774053922E+00  0.51100000000E-03 0. -1.
    9000002    1    1    2    0    0 -0.21980175108E+00 -0.16565288136E+00  0.52797444920E-01  0.97897153026E+00  0.93800000000E+00 0.  1.
         22    1    1    2    0    0  0.18903848442E+00  0.18394066408E+00  0.31502653322E+01  0.31612879305E+01  0.00000000000E+00 0. -1.
</event>
<event>
 5    1  0.1560836E+002  0.1574986E+01  0.7818608E-02  0.3380969E+00
         11   -1    0    0    0    0  0.00000000000E+00  0.00000000000E+00  0.39999999674E+01  0.40000000000E+01  0.51100000000E-03 0. -1.
    9000002   -1    0    0    0    0 -0.00000000000E+00 -0.00000000000E+00  0.00000000000E+00  0.93800000000E+00  0.93800000000E+00 0.  1.
         11    1    1    2    0    0  0.21903475546E-01  0.20031335072E+00  0.17217744870E+01  0.17335261307E+01  0.51100000000E-03 0. -1.
    9000002    1    1    2    0    0 -0.19670002091E+00 -0.55089806938E-01  0.46396379556E-01  0.96110478570E+00  0.93800000000E+00 0.  1.
         22    1    1    2    0    0  0.17479654536E+00 -0.14522354379E+00  0.22318291008E+01  0.22433690836E+01  0.00000000000E+00 0. -1.
</event>
<event>
 5    1  0.1560836E+002  0.1599068E+01  0.7818608E-02  0.3354375E+00
         11   -1    0    0    0    0  0.00000000000E+00  0.00000000000E+00  0.39999999674E+01  0.40000000000E+01  0.51100000000E-03 0. -1.
    9000002   -1    0    0    0    0 -0.00000000000E+00 -0.00000000000E+00  0.00000000000E+00  0.93800000000E+00  0.93800000000E+00 0. -1.
         11    1    1    2    0    0 -0.92418436824E-01  0.60528548048E-01  0.72105601003E+00  0.72947028953E+00  0.51100000000E-03 0. -1.
    9000002    1    1    2    0    0  0.44083646125E+00 -0.20889912511E+00  0.16312261299E+00  0.10697797049E+01  0.93800000000E+00 0. -1.
         22    1    1    2    0    0 -0.34841802443E+00  0.14837057707E+00  0.31158213443E+01  0.31387500056E+01  0.00000000000E+00 0. -1.
</event>
<event>
 5    1  0.1560836E+002  0.1599677E+01  0.7818608E-02  0.3353714E+00
         11   -1    0    0    0    0  0.00000000000E+00  0.00000000000E+00  0.39999999674E+01  0.40000000000E+01  0.51100000000E-03 0. -1.
    9000002   -1    0    0    0    0 -0.00000000000E+00 -0.00000000000E+00  0.00000000000E+00  0.93800000000E+00  0.93800000000E+00 0.  1.
         11    1    1    2    0    0  0.29890181583E+00  0.20213010557E+00  0.22295649667E+01  0.22585745675E+01  0.51100000000E-03 0. -1.
    9000002    1    1    2    0    0 -0.50223633321E+00 -0.33978001346E+00  0.25689057215E+00  0.11460927353E+01  0.93800000000E+00 0.  1.
         22    1    1    2    0    0  0.20333451738E+00  0.13764990790E+00  0.15135444285E+01  0.15333326971E+01  0.00000000000E+00 0. -1.
</event>
<event>
 5    1  0.1560836E+002  0.1586680E+01  0.7818608E-02  0.3367949E+00
         11   -1    0    0    0    0  0.00000000000E+00  0.00000000000E+00  0.39999999674E+01  0.40000000000E+01  0.51100000000E-03 0.  1.
    9000002   -1    0    0    0    0 -0.00000000000E+00 -0.00000000000E+00  0.00000000000E+00  0.93800000000E+00  0.93800000000E+00 0.  1.
         11    1    1    2    0    0  0.32881374087E-01  0.16505962028E+00  0.21015123836E+01  0.21082410731E+01  0.51100000000E-03 0.  1.
    9000002    1    1    2    0    0  0.18723967291E+00 -0.35526609189E+00  0.11971065137E+00  0.10273496636E+01  0.93800000000E+00 0.  1.
         22    1    1    2    0    0 -0.22012104700E+00  0.19020647161E+00  0.17787769324E+01  0.18024092633E+01  0.00000000000E+00 0.  1.
</event>
<event>
 5    1  0.1560836E+002  0.1599677E+01  0.7818608E-02  0.3353714E+00
         11   -1    0    0    0    0  0.00000000000E+00  0.00000000000E+00  0.39999999674E+01  0.40000000000E+01  0.51100000000E-03 0. -1.
    9000002   -1    0    0    0    0 -0.00000000000E+00 -0.00000000000E+00  0.00000000000E+00  0.93800000000E+00  0.93800000000E+00 0. -1.
         11    1    1    2    0    0  0.13522105288E+00 -0.29390961597E+00  0.10655569883E+01  0.11135885918E+01  0.51100000000E-03 0. -1.
    9000002    1    1    2    0    0 -0.40951181742E+00  0.89250959048E+00  0.76798521067E+00  0.15601021061E+01  0.93800000000E+00 0. -1.
         22    1    1    2    0    0  0.27429076454E+00 -0.59859997451E+00  0.21664577684E+01  0.22643093020E+01  0.00000000000E+00 0. -1.
</event>
<event>
 5    1  0.1560836E+002  0.1599630E+01  0.7818608E-02  0.3353765E+00
         11   -1    0    0    0    0  0.00000000000E+00  0.00000000000E+00  0.39999999674E+01  0.40000000000E+01  0.51100000000E-03 0. -1.
    9000002   -1    0    0    0    0 -0.00000000000E+00 -0.00000000000E+00  0.00000000000E+00  0.93800000000E+00  0.93800000000E+00 0. -1.
         11    1    1    2    0    0  0.24263401007E+00  0.95932794482E-01  0.11724290796E+01  0.12011097251E+01  0.51100000000E-03 0. -1.
    9000002    1    1    2    0    0 -0.74601065346E+00 -0.30442850204E+00  0.47921909924E+00  0.13261612093E+01  0.93800000000E+00 0. -1.
         22    1    1    2    0    0  0.50337664340E+00  0.20849570755E+00  0.23483517885E+01  0.24107290656E+01  0.00000000000E+00 0. -1.
</event>
<event>
 5    1  0.1560836E+002  0.1595662E+01  0.7818608E-02  0.3358085E+00
         11   -1    0    0    0    0  0.00000000000E+00  0.00000000000E+00  0.39999999674E+01  0.40000000000E+01  0.51100000000E-03 0. -1.
    9000002   -1    0    0    0    0 -0.00000000000E+00 -0.00000000000E+00  0.00000000000E+00  0.93800000000E+00  0.93800000000E+00 0. -1.
         11    1    1    2    0    0 -0.25272472620E-01  0.54722831417E-01  0.30586880494E+00  0.31175194162E+00  0.51100000000E-03 0. -1.
    9000002    1    1    2    0    0  0.16107361238E+00 -0.20319883404E+00  0.47782522082E-01  0.97435190982E+00  0.93800000000E+00 0. -1.
         22    1    1    2    0    0 -0.13580113976E+00  0.14847600262E+00  0.36463486403E+01  0.36518961486E+01  0.00000000000E+00 0. -1.
</event>
<event>
 5    1  0.1560836E+002  0.1599671E+01  0.7818608E-02  0.3353720E+00
         11   -1    0    0    0    0  0.00000000000E+00  0.00000000000E+00  0.39999999674E+01  0.40000000000E+01  0.51100000000E-03 0.  1.
    9000002   -1    0    0    0    0 -0.00000000000E+00 -0.00000000000E+00  0.00000000000E+00  0.93800000000E+00  0.93800000000E+00 0.  1.
         11    1    1    2    0    0 -0.29068342291E-01  0.77191219125E-02  0.39491664369E+00  0.39606056349E+00  0.51100000000E-03 0.  1.
    9000002    1    1    2    0    0  0.27522043762E+00 -0.70605053883E-01  0.53783976299E-01  0.98156409828E+00  0.93800000000E+00 0.  1.
         22    1    1    2    0    0 -0.24615209533E+00  0.62885931971E-01  0.35512993474E+01  0.35603753382E+01  0.00000000000E+00 0.  1.
</event>
<event>
 5    1  0.1560836E+002  0.1548744E+01  0.7818608E-02  0.3410945E+00
         11   -1    0    0    0    0  0.00000000000E+00  0.00000000000E+00  0.39999999674E+01  0.40000000000E+01  0.51100000000E-03 0.  1.
    9000002   -1    0    0    0    0 -0.00000000000E+00 -0.00000000000E+00  0.00000000000E+00  0.93800000000E+00  0.93800000000E+00 0. -1.
         11    1    1    2    0    0  0.16214844451E-01 -0.31557388716E+00  0.21960077367E+01  0.22186257098E+01  0.51100000000E-03 0.  1.
    9000002    1    1    2    0    0 -0.46747262958E+00  0.48545623641E+00  0.37992095096E+00  0.12158874725E+01  0.93800000000E+00 0. -1.
         22    1    1    2    0    0  0.45125778513E+00 -0.16988234925E+00  0.14240712797E+01  0.15034868176E+01  0.00000000000E+00 0. -1.
</event>
<event>
 5    1  0.1560836E+002  0.1599283E+01  0.7818608E-02  0.3354142E+00
         11   -1    0    0    0    0  0.00000000000E+00  0.00000000000E+00  0.39999999674E+01  0.40000000000E+01  0.51100000000E-03 0.  1.
    9000002   -1    0    0    0    0 -0.00000000000E+00 -0.00000000000E+00  0.00000000000E+00  0.93800000000E+00  0.93800000000E+00 0. -1.
         11    1    1    2    0    0 -0.54925635646E-01  0.23541548309E+00  0.17451516027E+01  0.17618148747E+01  0.51100000000E-03 0.  1.
    9000002    1    1    2    0    0  0.69665028603E-01 -0.50318816576E+00  0.17724743125E+00  0.10813473994E+01  0.93800000000E+00 0. -1.
         22    1    1    2    0    0 -0.14739392957E-01  0.26777268267E+00  0.20776009334E+01  0.20948377259E+01  0.00000000000E+00 0. -1.
</event>
<event>
 5    1  0.1560836E+002  0.1597151E+01  0.7818608E-02  0.3356462E+00
         11   -1    0    0    0    0  0.00000000000E+00  0.00000000000E+00  0.39999999674E+01  0.40000000000E+01  0.51100000000E-03 0.  1.
    9000002   -1    0    0    0    0 -0.00000000000E+00 -0.00000000000E+00  0.00000000000E+00  0.93800000000E+00  0.93800000000E+00 0. -1.
         11    1    1    2    0    0 -0.25267428417E+00 -0.44235586506E-01  0.18762073830E+01  0.18936619250E+01  0.51100000000E-03 0.  1.
    9000002    1    1    2    0    0  0.61761885219E+00  0.12157739103E+00  0.28085986859E+00  0.11640276519E+01  0.93800000000E+00 0. -1.
         22    1    1    2    0    0 -0.36494456802E+00 -0.77341804527E-01  0.18429327158E+01  0.18803104231E+01  0.00000000000E+00 0.  1.
</event>
<event>
 5    1  0.1560836E+002  0.1586368E+01  0.7818608E-02  0.3368293E+00
         11   -1    0    0    0    0  0.00000000000E+00  0.00000000000E+00  0.39999999674E+01  0.40000000000E+01  0.51100000000E-03 0.  1.
    9000002   -1    0    0    0    0 -0.00000000000E+00 -0.00000000000E+00  0.00000000000E+00  0.93800000000E+00  0.93800000000E+00 0.  1.
         11    1    1    2    0    0 -0.64290604547E-01 -0.52623710628E-01  0.44705065076E+00  0.45470548954E+00  0.51100000000E-03 0.  1.
    9000002    1    1    2    0    0  0.96284877826E-01 -0.15329236972E+00  0.31647512201E-01  0.95583204243E+00  0.93800000000E+00 0.  1.
         22    1    1    2    0    0 -0.31994273279E-01  0.20591608035E+00  0.35213018044E+01  0.35274624680E+01  0.00000000000E+00 0.  1.
</event>
<event>
 5    1  0.1560836E+002  0.1599677E+01  0.7818608E-02  0.3353714E+00
         11   -1    0    0    0    0  0.00000000000E+00  0.00000000000E+00  0.39999999674E+01  0.40000000000E+01  0.51100000000E-03 0.  1.
    9000002   -1    0    0    0    0 -0.00000000000E+00 -0.00000000000E+00  0.00000000000E+00  0.93800000000E+00  0.93800000000E+00 0.  1.
         11    1    1    2    0    0  0.16029196871E+00 -0.19135403649E+00  0.15855170796E+01  0.16050465891E+01  0.51100000000E-03 0.  1.
    9000002    1    1    2    0    0 -0.37915494356E+00  0.45379310328E+00  0.24352954141E+00  0.11352696990E+01  0.93800000000E+00 0.  1.
         22    1    1    2    0    0  0.21886297485E+00 -0.26243906679E+00  0.21709533464E+01  0.21976837119E+01  0.00000000000E+00 0.  1.
</event>
<event>
 5    1  0.1560836E+002  0.1598904E+01  0.7818608E-02  0.3354553E+00
         11   -1    0    0    0    0  0.00000000000E+00  0.00000000000E+00  0.39999999674E+01  0.40000000000E+01  0.51100000000E-03 0. -1.
    9000002   -1    0    0    0    0 -0.00000000000E+00 -0.00000000000E+00  0.00000000000E+00  0.93800000000E+00  0.93800000000E+00 0. -1.
         11    1    1    2    0    0  0.72577244712E-01 -0.19632363155E-01  0.10395723004E+01  0.10422877314E+01  0.51100000000E-03 0. -1.
    9000002    1    1    2    0    0 -0.37867907436E+00  0.40472787847E-01  0.98230611494E-01  0.10171180565E+01  0.93800000000E+00 0. -1.
         22    1    1    2    0    0  0.30610182964E+00 -0.20840424692E-01  0.28621970555E+01  0.28785942121E+01  0.00000000000E+00 0. -1.
</event>
<event>
 5    1  0.1560836E+002  0.1599492E+01  0.7818608E-02  0.3353915E+00
         11   -1    0    0    0    0  0.00000000000E+00  0.00000000000E+00  0.39999999674E+01  0.40000000000E+01  0.51100000000E-03 0.  1.
    9000002   -1    0    0    0    0 -0.00000000000E+00 -0.00000000000E+00  0.00000000000E+00  0.93800000000E+00  0.93800000000E+00 0.  1.
         11    1    1    2    0    0  0.23590956614E-01  0.37044982456E-01  0.39810008956E+00  0.40051567558E+00  0.51100000000E-03 0.  1.
    9000002    1    1    2    0    0 -0.22087063638E+00 -0.26764498005E+00  0.80863826955E-01  0.10033945544E+01  0.93800000000E+00 0.  1.
         22    1    1    2    0    0  0.19727967977E+00  0.23059999759E+00  0.35210360508E+01  0.35340897700E+01  0.00000000000E+00 0.  1.
</event>
<event>
 5    1  0.1560836E+002  0.1599207E+01  0.7818608E-02  0.3354225E+00
         11   -1    0    0    0    0  0.00000000000E+00  0.00000000000E+00  0.39999999674E+01  0.40000000000E+01  0.51100000000E-03 0.  1.
    9000002   -1    0    0    0    0 -0.00000000000E+00 -0.00000000000E+00  0.00000000000E+00  0.93800000000E+00  0.93800000000E+00 0. -1.
         11    1    1    2    0    0  0.38571078487E-01  0.64785643320E-02  0.62005465561E+00  0.62128716143E+00  0.51100000000E-03 0.  1.
    9000002    1    1    2    0    0 -0.35263865739E+00 -0.91615742606E-01  0.89534976525E-01  0.10102514435E+01  0.93800000000E+00 0. -1.
         22    1    1    2    0    0  0.31406757890E+00  0.85137178274E-01  0.32904103352E+01  0.33064613951E+01  0.00000000000E+00 0.  1.
</event>
<event>
 5    1  0.1560836E+002  0.1585139E+01  0.7818608E-02  0.3369653E+00
         11   -1    0    0    0    0  0.00000000000E+00  0.00000000000E+00  0.39999999674E+01  0.40000000000E+01  0.51100000000E-03 0. -1.
    9000002   -1    0    0    0    0 -0.00000000000E+00 -0.00000000000E+00  0.00000000000E+00  0.93800000000E+00  0.93800000000E+00 0. -1.
         11    1    1    2    0    0 -0.71387597351E-01 -0.52409100739E-01  0.10938504449E+01  0.10974297061E+01  0.51100000000E-03 0. -1.
    9000002    1    1    2    0    0 -0.13028167014E+00 -0.73903767510E-01  0.25620699147E-01  0.95022918323E+00  0.93800000000E+00 0. -1.
         22    1    1    2    0    0  0.20166926749E+00  0.12631286825E+00  0.28805288234E+01  0.28903411107E+01  0.00000000000E+00 0. -1.
</event>
<event>
 5    1  0.1560836E+002  0.1599664E+01  0.7818608E-02  0.3353729E+00
         11   -1    0    0    0    0  0.00000000000E+00  0.00000000000E+00  0.39999999674E+01  0.40000000000E+01  0.51100000000E-03 0.  1.
    9000002   -1    0    0    0    0 -0.00000000000E+00 -0.00000000000E+00  0.00000000000E+00  0.93800000000E+00  0.93800000000E+00 0.  1.
         11    1    1    2    0    0 -0.79941195865E-02 -0.29024378338E-01  0.35585206647E+00  0.35712361280E+00  0.51100000000E-03 0.  1.
    9000002    1    1    2    0    0  0.61681753529E-01  0.31389556348E+00  0.68410659310E-01  0.99340781243E+00  0.93800000000E+00 0.  1.
         22    1    1    2    0    0 -0.53687633942E-01 -0.28487118514E+00  0.35757372416E+01  0.35874685748E+01  0.00000000000E+00 0.  1.
</event>
<event>
 5    1  0.1560836E+002  0.1599623E+01  0.7818608E-02  0.3353773E+00
         11   -1    0    0    0    0  0.00000000000E+00  0.00000000000E+00  0.39999999674E+01  0.40000000000E+01  0.51100000000E-03 0. -1.
    9000002   -1    0    0    0    0 -0.00000000000E+00 -0.00000000000E+00  0.00000000000E+00  0.93800000000E+00  0.93800000000E+00 0.  1.
         11    1    1    2    0    0  0.15367419283E+00 -0.16359167903E+00  0.18584195153E+01  0.18719245046E+01  0.51100000000E-03 0. -1.
    9000002    1    1    2    0    0 -0.30078748503E+00  0.34056976550E+00  0.14036280904E+00  0.10516684813E+01  0.93800000000E+00 0.  1.
         22    1    1    2    0    0  0.14711329220E+00 -0.17697808646E+00  0.20012176430E+01  0.20144070142E+01  0.00000000000E+00 0.  1.
</event>
<event>
 5    1  0.1560836E+002  0.1592173E+01  0.7818608E-02  0.3361902E+00
         11   -1    0    0    0    0  0.00000000000E+00  0.00000000000E+00  0.39999999674E+01  0.40000000000E+01  0.51100000000E-03 0.  1.
    9000002   -1    0    0    0    0 -0.00000000000E+00 -0.00000000000E+00  0.00000000000E+00  0.93800000000E+00  0.93800000000E+00 0. -1.
         11    1    1    2    0    0  0.45025929248E-01  0.21829250580E+00  0.15421082281E+01  0.15581325363E+01  0.51100000000E-03 0.  1.
    9000002    1    1    2    0    0  0.12172229295E+00 -0.44364943146E+00  0.15052142216E+00  0.10555291721E+01  0.93800000000E+00 0. -1.
         22    1    1    2    0    0 -0.16674822220E+00  0.22535692565E+00  0.23073703171E+01  0.23243382916E+01  0.00000000000E+00 0.  1.
</event>
<event>
 5    1  0.1560836E+002  0.1599673E+01  0.7818608E-02  0.3353718E+00
         11   -1    0    0    0    0  0.00000000000E+00  0.00000000000E+00  0.39999999674E+01  0.40000000000E+01  0.51100000000E-03 0. -1.
    9000002   -1    0    0    0    0 -0.00000000000E+00 -0.00000000000E+00  0.00000000000E+00  0.93800000000E+00  0.93800000000E+00 0. -1.
         11    1    1    2    0    0  0.11067625922E-01 -0.15974849677E-01  0.32164148017E+00  0.32222847648E+00  0.51100000000E-03 0. -1.
    9000002    1    1    2    0    0 -0.13904066310E+00  0.21177296748E+00  0.42648307724E-01  0.97254458710E+00  0.93800000000E+00 0. -1.
         22    1    1    2    0    0  0.12797303718E+00 -0.19579811781E+00  0.36357101795E+01  0.36432269364E+01  0.00000000000E+00 0. -1.
</event>
<event>
 5    1  0.1560836E+002  0.1599610E+01  0.7818608E-02  0.3353787E+00
         11   -1    0    0    0    0  0.00000000000E+00  0.00000000000E+00  0.39999999674E+01  0.40000000000E+01  0.51100000000E-03 0.  1.
    9000002   -1    0    0    0    0 -0.00000000000E+00 -0.00000000000E+00  0.00000000000E+00  0.93800000000E+00  0.93800000000E+00 0. -1.
         11    1    1    2    0    0 -0.57257816994E-02  0.74115421613E-01  0.73814961250E+00  0.74188340853E+00  0.51100000000E-03 0.  1.
    9000002    1    1    2    0    0  0.27937355959E-01 -0.42979161986E+00  0.12569773533E+00  0.10397813487E+01  0.93800000000E+00 0. -1.
         22    1    1    2    0    0 -0.22211574259E-01  0.35567619824E+00  0.31361526195E+01  0.31563352428E+01  0.00000000000E+00 0.  1.
</event>
<event>
 5    1  0.1560836E+002  0.1599665E+01  0.7818608E-02  0.3353727E+00
         11   -1    0    0    0    0  0.00000000000E+00  0.00000000000E+00  0.39999999674E+01  0.40000000000E+01  0.51100000000E-03 0. -1.
    9000002   -1    0    0    0    0 -0.00000000000E+00 -0.00000000000E+00  0.00000000000E+00  0.93800000000E+00  0.93800000000E+00 0. -1.
         11    1    1    2    0    0  0.72763998743E-01  0.26983240343E+00  0.17480309852E+01  0.17702306945E+01  0.51100000000E-03 0. -1.
    9000002    1    1    2    0    0 -0.16241440666E+00 -0.58387246232E+00  0.25659984265E+00  0.11458503266E+01  0.93800000000E+00 0. -1.
         22    1    1    2    0    0  0.89650407914E-01  0.31404005889E+00  0.19953691395E+01  0.20219189789E+01  0.00000000000E+00 0.  1.
</event>
<event>
 5    1  0.1560836E+002  0.1599669E+01  0.7818608E-02  0.3353723E+00
         11   -1    0    0    0    0  0.00000000000E+00  0.00000000000E+00  0.39999999674E+01  0.40000000000E+01  0.51100000000E-03 0.  1.
    9000002   -1    0    0    0    0 -0.00000000000E+00 -0.00000000000E+00  0.00000000000E+00  0.93800000000E+00  0.93800000000E+00 0. -1.
         11    1    1    2    0    0  0.31551610529E-02 -0.10956000794E-01  0.20597885730E+00  0.20629478852E+00  0.51100000000E-03 0.  1.
    9000002    1    1    2    0    0 -0.32662170061E-01  0.21040424319E+00  0.30044220130E-01  0.96233228049E+00  0.93800000000E+00 0. -1.
         22    1    1    2    0    0  0.29507009008E-01 -0.19944824240E+00  0.37639768899E+01  0.37693729310E+01  0.00000000000E+00 0.  1.
</event>
<event>
 5    1  0.1560836E+002  0.1599654E+01  0.7818608E-02  0.3353739E+00
         11   -1    0    0    0    0  0.00000000000E+00  0.00000000000E+00  0.39999999674E+01  0.40000000000E+01  0.51100000000E-03 0. -1.
    9000002   -1    0    0    0    0 -0.00000000000E+00 -0.00000000000E+00  0.00000000000E+00  0.93800000000E+00  0.93800000000E+00 0. -1.
         11    1    1    2    0    0 -0.11233921081E+00 -0.42313274621E+00  0.24841471997E+01  0.25224291843E+01  0.51100000000E-03 0. -1.
    9000002    1    1    2    0    0  0.17319523734E+00  0.62496825279E+00  0.29670255144E+00  0.11783286092E+01  0.93800000000E+00 0. -1.
         22    1    1    2    0    0 -0.60856026534E-01 -0.20183550658E+00  0.12191502163E+01  0.12372422065E+01  0.00000000000E+00 0.  1.
</event>
<event>
 5    1  0.1560836E+002  0.1599582E+01  0.7818608E-02  0.3353818E+00
         11   -1    0    0    0    0  0.00000000000E+00  0.00000000000E+00  0.39999999674E+01  0.40000000000E+01  0.51100000000E-03 0. -1.
    9000002   -1    0    0    0    0 -0.00000000000E+00 -0.00000000000E+00  0.00000000000E+00  0.93800000000E+00  0.93800000000E+00 0.  1.
         11    1    1    2    0    0 -0.11790587789E+00 -0.36875886338E-01  0.96365155025E+00  0.97153805816E+00  0.51100000000E-03 0. -1.
    9000002    1    1    2    0    0  0.43837622519E+00  0.17182559055E+00  0.15113419316E+00  0.10603694133E+01  0.93800000000E+00 0.  1.
         22    1    1    2    0    0 -0.32047034730E+00 -0.13494970421E+00  0.28852142239E+01  0.29060925285E+01  0.00000000000E+00 0. -1.
</event>
<event>
 5    1  0.1560836E+002  0.1599677E+01  0.7818608E-02  0.3353714E+00
         11   -1    0    0    0    0  0.00000000000E+00  0.00000000000E+00  0.39999999674E+01  0.40000000000E+01  0.51100000000E-03 0.  1.
    9000002   -1    0    0    0    0 -0.00000000000E+00 -0.00000000000E+00  0.00000000000E+00  0.93800000000E+00  0.93800000000E+00 0.  1.
         11    1    1    2    0    0  0.35058920609E+00  0.30045093286E+00  0.25157516545E+01  0.25577705532E+01  0.51100000000E-03 0.  1.
    9000002    1    1    2    0    0 -0.51222954051E+00 -0.43846784891E+00  0.32273783191E+00  0.11994318925E+01  0.93800000000E+00 0.  1.
         22    1    1    2    0    0  0.16164033442E+00  0.13801691605E+00  0.11615104810E+01  0.11807975543E+01  0.00000000000E+00 0.  1.
</event>
<event>
 5    1  0.1560836E+002  0.1599676E+01  0.7818608E-02  0.3353716E+00
         11   -1    0    0    0    0  0.00000000000E+00  0.00000000000E+00  0.39999999674E+01  0.40000000000E+01  0.51100000000E-03 0.  1.
    9000002   -1    0    0    0    0 -0.00000000000E+00 -0.00000000000E+00  0.00000000000E+00  0.93800000000E+00  0.93800000000E+00 0.  1.
         11    1    1    2    0    0 -0.49698846757E-01 -0.30457593354E-01  0.83444200070E+00  0.83647555495E+00  0.51100000000E-03 0.  1.
    9000002    1    1    2    0    0  0.23989480946E+00  0.14661429290E+00  0.52643855745E-01  0.98064297582E+00  0.93800000000E+00 0.  1.
         22    1    1    2    0    0 -0.19019596270E+00 -0.11615669954E+00  0.31129141109E+01  0.31208814692E+01  0.00000000000E+00 0.  1.
</event>
<event>
 5    1  0.1560836E+002  0.1599667E+01  0.7818608E-02  0.3353725E+00
         11   -1    0    0    0    0  0.00000000000E+00  0.00000000000E+00  0.39999999674E+01  0.40000000000E+01  0.51100000000E-03 0. -1.
    9000002   -1    0    0    0    0 -0.00000000000E+00 -0.00000000000E+00  0.00000000000E+00  0.93800000000E+00  0.93800000000E+00 0. -1.
         11    1    1    2    0    0  0.10360343083E+00  0.76195544796E-01  0.15400340756E+01  0.15453946574E+01  0.51100000000E-03 0. -1.
    9000002    1    1    2    0    0 -0.26516905361E+00 -0.20384277677E+00  0.74890750585E-01  0.99865866499E+00  0.93800000000E+00 0. -1.
         22    1    1    2    0    0  0.16156562278E+00  0.12764723198E+00  0.23850751412E+01  0.23939466777E+01  0.00000000000E+00 0. -1.
</event>
<event>
 5    1  0.1560836E+002  0.1599579E+01  0.7818608E-02  0.3353820E+00
         11   -1    0    0    0    0  0.00000000000E+00  0.00000000000E+00  0.39999999674E+01  0.40000000000E+01  0.51100000000E-03 0. -1.
    9000002   -1    0    0    0    0 -0.00000000000E+00 -0.00000000000E+00  0.00000000000E+00  0.93800000000E+00  0.93800000000E+00 0. -1.
         11    1    1    2    0    0  0.99101177786E-02 -0.22175790871E-01  0.53551094046E+00  0.53606175447E+00  0.51100000000E-03 0. -1.
    9000002    1    1    2    0    0 -0.48969283053E-01  0.21928303692E+00  0.33547840496E-01  0.96511786771E+00  0.93800000000E+00 0. -1.
         22    1    1    2    0    0  0.39059165274E-01 -0.19710724605E+00  0.34309411864E+01  0.34368203778E+01  0.00000000000E+00 0. -1.
</event>
<event>
 5    1  0.1560836E+002  0.1599676E+01  0.7818608E-02  0.3353715E+00
         11   -1    0    0    0    0  0.00000000000E+00  0.00000000000E+00  0.39999999674E+01  0.40000000000E+01  0.51100000000E-03 0.  1.
    9000002   -1    0    0    0    0 -0.00000000000E+00 -0.00000000000E+00  0.00000000000E+00  0.93800000000E+00  0.93800000000E+00 0. -1.
         11    1    1    2    0    0  0.55661992531E-01  0.34850682928E-01  0.85890502916E+00  0.86141217646E+00  0.51100000000E-03 0.  1.
    9000002    1    1    2    0    0 -0.25391670274E+00 -0.15725450781E+00  0.59501220334E-01  0.98619829009E+00  0.93800000000E+00 0. -1.
         22    1    1    2    0    0  0.19825471021E+00  0.12240382488E+00  0.30815937179E+01  0.30903895335E+01  0.00000000000E+00 0.  1.
</event>
<event>
 5    1  0.1560836E+002  0.1599639E+01  0.7818608E-02  0.3353755E+00
         11   -1    0    0    0    0  0.00000000000E+00  0.00000000000E+00  0.39999999674E+01  0.40000000000E+01  0.51100000000E-03 0. -1.
    9000002   -1    0    0    0    0 -0.00000000000E+00 -0.00000000000E+00  0.00000000000E+00  0.93800000000E+00  0.93800000000E+00 0. -1.
         11    1    1    2    0    0  0.71596251484E-01 -0.53746734756E-01  0.77053506333E+00  0.77571855700E+00  0.51100000000E-03 0. -1.
    9000002    1    1    2    0    0 -0.38726219612E+00  0.26851926995E+00  0.15134972878E+00  0.10605778365E+01  0.93800000000E+00 0. -1.
         22    1    1    2    0    0  0.31566594464E+00 -0.21477253519E+00  0.30781151752E+01  0.31017036065E+01  0.00000000000E+00 0. -1.
</event>
<event>
 5    1  0.1560836E+002  0.1599677E+01  0.7818608E-02  0.3353714E+00
         11   -1    0    0    0    0  0.00000000000E+00  0.00000000000E+00  0.39999999674E+01  0.40000000000E+01  0.51100000000E-03 0. -1.
    9000002   -1    0    0    0    0 -0.00000000000E+00 -0.00000000000E+00  0.00000000000E+00  0.93800000000E+00  0.93800000000E+00 0. -1.
         11    1    1    2    0    0 -0.54517601912E-01  0.26075073863E+00  0.15956944093E+01  0.16177774957E+01  0.51100000000E-03 0. -1.
    9000002    1    1    2    0    0  0.12647630706E+00 -0.60882417912E+00  0.27106830334E+00  0.11575772814E+01  0.93800000000E+00 0. -1.
         22    1    1    2    0    0 -0.71958705151E-01  0.34807344049E+00  0.21332372547E+01  0.21626452229E+01  0.00000000000E+00 0. -1.
</event>
<event>
 5    1  0.1560836E+002  0.1599673E+01  0.7818608E-02  0.3353718E+00
         11   -1    0    0    0    0  0.00000000000E+00  0.00000000000E+00  0.39999999674E+01  0.40000000000E+01  0.51100000000E-03 0.  1.
    9000002   -1    0    0    0    0 -0.00000000000E+00 -0.00000000000E+00  0.00000000000E+00  0.93800000000E+00  0.93800000000E+00 0.  1.
         11    1    1    2    0    0  0.32201029243E+00  0.61546139964E-01  0.19472227815E+01  0.19746279086E+01  0.51100000000E-03 0.  1.
    9000002    1    1    2    0    0 -0.61963516419E+00 -0.11588748434E+00  0.27912542099E+00  0.11641016478E+01  0.93800000000E+00 0.  1.
         22    1    1    2    0    0  0.29762487176E+00  0.54341344380E-01  0.17736517649E+01  0.17992704436E+01  0.00000000000E+00 0.  1.
</event>
<event>
 5    1  0.1560836E+002  0.1599284E+01  0.7818608E-02  0.3354141E+00
         11   -1    0    0    0    0  0.00000000000E+00  0.00000000000E+00  0.39999999674E+01  0.40000000000E+01  0.51100000000E-03 0. -1.
    9000002   -1    0    0    0    0 -0.00000000000E+00 -0.00000000000E+00  0.00000000000E+00  0.93800000000E+00  0.93800000000E+00 0.  1.
         11    1    1    2    0    0  0.58229285747E-01 -0.18831223791E+00  0.17910098553E+01  0.18018237182E+01  0.51100000000E-03 0. -1.
    9000002    1    1    2    0    0 -0.13440205176E+00  0.45505300733E+00  0.15382783928E+00  0.10623766541E+01  0.93800000000E+00 0.  1.
         22    1    1    2    0    0  0.76172766010E-01 -0.26674076943E+00  0.20551622728E+01  0.20737996277E+01  0.00000000000E+00 0.  1.
</event>
<event>
 5    1  0.1560836E+002  0.1587022E+01  0.7818608E-02  0.3367571E+00
         11   -1    0    0    0    0  0.00000000000E+00  0.00000000000E+00  0.39999999674E+01  0.40000000000E+01  0.51100000000E-03 0.  1.
    9000002   -1    0    0    0    0 -0.00000000000E+00 -0.00000000000E+00  0.00000000000E+00  0.93800000000E+00  0.93800000000E+00 0.  1.
         11    1    1    2    0    0  0.63093352342E-01 -0.21090164937E-01  0.36939126090E+00  0.37533415901E+00  0.51100000000E-03 0.  1.
    9000002    1    1    2    0    0  0.48716154488E-01 -0.20856450226E+00  0.39988780442E-01  0.96297223110E+00  0.93800000000E+00 0.  1.
         22    1    1    2    0    0 -0.11180950683E+00  0.22965466720E+00  0.35906199260E+01  0.35996936099E+01  0.00000000000E+00 0.  1.
</event>
<event>
 5    1  0.1647768E+002  0.1577998E+01  0.7818608E-02  0.3377596E+00
         11   -1    0    0    0    0  0.00000000000E+00  0.00000000000E+00  0.39999999674E+01  0.40000000000E+01  0.51100000000E-03 0. -1.
    9000002   -1    0    0    0    0 -0.00000000000E+00 -0.00000000000E+00  0.00000000000E+00  0.93800000000E+00  0.93800000000E+00 0.  1.
         11    1    1    2    0    0 -0.49234619347E-01  0.26786732265E-01  0.11216484151E+00  0.12539054813E+00  0.51100000000E-03 0. -1.
    9000002    1    1    2    0    0 -0.10551260813E+00  0.10295577837E+00  0.30512186921E-01  0.95000410332E+00  0.93800000000E+00 0.  1.
         22    1    1    2    0    0  0.15474722748E+00 -0.12974251064E+00  0.38573229389E+01  0.38626053486E+01  0.00000000000E+00 0. -1.
</event>
<event>
 5    1  0.1560836E+002  0.1599674E+01  0.7818608E-02  0.3353718E+00
         11   -1    0    0    0    0  0.00000000000E+00  0.00000000000E+00  0.39999999674E+01  0.40000000000E+01  0.51100000000E-03 0.  1.
    9000002   -1    0    0    0    0 -0.00000000000E+00 -0.00000000000E+00  0.00000000000E+00  0.93800000000E+00  0.93800000000E+00 0.  1.
         11    1    1    2    0    0 -0.11294493860E-01 -0.11023924038E+00  0.95258818800E+00  0.95901239448E+00  0.51100000000E-03 0.  1.
    9000002    1    1    2    0    0  0.38528698450E-01  0.44952650222E+00  0.13828069742E+00  0.10500114705E+01  0.93800000000E+00 0.  1.
         22    1    1    2    0    0 -0.27234204591E-01 -0.33928726184E+00  0.29091310819E+01  0.29289761351E+01  0.00000000000E+00 0.  1.
</event>
<event>
 5    1  0.1560836E+002  0.1599611E+01  0.7818608E-02  0.3353785E+00
         11   -1    0    0    0    0  0.00000000000E+00  0.00000000000E+00  0.39999999674E+01  0.40000000000E+01  0.51100000000E-03 0.  1.
    9000002   -1    0    0    0    0 -0.00000000000E+00 -0.00000000000E+00  0.00000000000E+00  0.93800000000E+00  0.93800000000E+00 0.  1.
         11    1    1    2    0    0  0.18139271012E-01 -0.51529293734E-01  0.73123493097E+00  0.73327285962E+00  0.51100000000E-03 0.  1.
    9000002    1    1    2    0    0 -0.68589819780E-01  0.25028562661E+00  0.44821922187E-01  0.97426919431E+00  0.93800000000E+00 0.  1.
         22    1    1    2    0    0  0.50450548768E-01 -0.19875633287E+00  0.32239431142E+01  0.32304579461E+01  0.00000000000E+00 0.  1.
</event>
<event>
 5    1  0.1560836E+002  0.1599677E+01  0.7818608E-02  0.3353714E+00
         11   -1    0    0    0    0  0.00000000000E+00  0.00000000000E+00  0.39999999674E+01  0.40000000000E+01  0.51100000000E-03 0. -1.
    9000002   -1    0    0    0    0 -0.00000000000E+00 -0.00000000000E+00  0.00000000000E+00  0.93800000000E+00  0.93800000000E+00 0. -1.
         11    1    1    2    0    0 -0.38372816821E+00  0.13068378532E+00  0.24766944227E+01  0.25096495937E+01  0.51100000000E-03 0. -1.
    9000002    1    1    2    0    0  0.57996443821E+00 -0.19775248771E+00  0.26268728827E+00  0.11507881679E+01  0.93800000000E+00 0. -1.
         22    1    1    2    0    0 -0.19623627000E+00  0.67068702392E-01  0.12606182564E+01  0.12775622384E+01  0.00000000000E+00 0. -1.
</event>
<event>
 5    1  0.1560836E+002  0.1599677E+01  0.7818608E-02  0.3353714E+00
         11   -1    0    0    0    0  0.00000000000E+00  0.00000000000E+00  0.39999999674E+01  0.40000000000E+01  0.51100000000E-03 0.  1.
    9000002   -1    0    0    0    0 -0.00000000000E+00 -0.00000000000E+00  0.00000000000E+00  0.93800000000E+00  0.93800000000E+00 0. -1.
         11    1    1    2    0    0  0.42136187966E-01  0.80552863151E-01  0.88963614301E+00  0.89426894733E+00  0.51100000000E-03 0.  1.
    9000002    1    1    2    0    0 -0.18637562944E+00 -0.35191427407E+00  0.10694094486E+00  0.10246267112E+01  0.93800000000E+00 0. -1.
         22    1    1    2    0    0  0.14423944147E+00  0.27136141092E+00  0.30034228795E+01  0.30191043415E+01  0.00000000000E+00 0.  1.
</event>
<event>
 5    1  0.1560836E+002  0.1596227E+01  0.7818608E-02  0.3357468E+00
         11   -1    0    0    0    0  0.00000000000E+00  0.00000000000E+00  0.39999999674E+01  0.40000000000E+01  0.51100000000E-03 0. -1.
    9000002   -1    0    0    0    0 -0.00000000000E+00 -0.00000000000E+00  0.00000000000E+00  0.93800000000E+00  0.93800000000E+00 0.  1.
         11    1    1    2    0    0 -0.50735609062E-01 -0.44480734573E-02  0.10641170546E+01  0.10653352779E+01  0.51100000000E-03 0. -1.
    9000002    1    1    2    0    0  0.18952453384E+00 -0.21611302734E+00  0.57744248543E-01  0.98275265848E+00  0.93800000000E+00 0.  1.
         22    1    1    2    0    0 -0.13878892478E+00  0.22056110080E+00  0.28781386642E+01  0.28899120636E+01  0.00000000000E+00 0. -1.
</event>
<event>
 5    1  0.1560836E+002  0.1597989E+01  0.7818608E-02  0.3355549E+00
         11   -1    0    0    0    0  0.00000000000E+00  0.00000000000E+00  0.39999999674E+01  0.40000000000E+01  0.51100000000E-03 0.  1.
    9000002   -1    0    0    0    0 -0.00000000000E+00 -0.00000000000E+00  0.00000000000E+00  0.93800000000E+00  0.93800000000E+00 0. -1.
         11    1    1    2    0    0  0.26476118036E-01  0.74851832914E-01  0.59704017329E+00  0.60229644807E+00  0.51100000000E-03 0.  1.
    9000002    1    1    2    0    0  0.27866258055E-01 -0.58966301825E+00  0.24429859754E+00  0.11349029951E+01  0.93800000000E+00 0. -1.
         22    1    1    2    0    0 -0.54342376091E-01  0.51481118534E+00  0.31586611965E+01  0.32008005569E+01  0.00000000000E+00 0.  1.
</event>
<event>
 5    1  0.1560836E+002  0.1584995E+01  0.7818608E-02  0.3369813E+00
         11   -1    0    0    0    0  0.00000000000E+00  0.00000000000E+00  0.39999999674E+01  0.40000000000E+01  0.51100000000E-03 0.  1.
    9000002   -1    0    0    0    0 -0.00000000000E+00 -0.00000000000E+00  0.00000000000E+00  0.93800000000E+00  0.93800000000E+00 0. -1.
         11    1    1    2    0    0  0.46138531940E-01 -0.10621143161E+00  0.19228298123E+01  0.19263136765E+01  0.51100000000E-03 0.  1.
    9000002    1    1    2    0    0 -0.27486293786E+00 -0.20700877060E-01  0.62016229744E-01  0.97962654806E+00  0.93800000000E+00 0. -1.
         22    1    1    2    0    0  0.22872440592E+00  0.12691230867E+00  0.20151539253E+01  0.20320597754E+01  0.00000000000E+00 0.  1.
</event>
<event>
 5    1  0.1560836E+002  0.1570786E+01  0.7818608E-02  0.3385695E+00
         11   -1    0    0    0    0  0.00000000000E+00  0.00000000000E+00  0.39999999674E+01  0.40000000000E+01  0.51100000000E-03 0. -1.
    9000002   -1    0    0    0    0 -0.00000000000E+00 -0.00000000000E+00  0.00000000000E+00  0.93800000000E+00  0.93800000000E+00 0.  1.
         11    1    1    2    0    0  0.38714138261E-01 -0.87782999033E-02  0.28173221161E-01  0.48680946602E-01  0.51100000000E-03 0. -1.
    9000002    1    1    2    0    0 -0.33195003991E-01 -0.43527126263E+00  0.15429770199E+00  0.10460472079E+01  0.93800000000E+00 0.  1.
         22    1    1    2    0    0 -0.55191342697E-02  0.44404956253E+00  0.38175290442E+01  0.38432718455E+01  0.00000000000E+00 0. -1.
</event>
<event>
 5    1  0.1560836E+002  0.1599674E+01  0.7818608E-02  0.3353717E+00
         11   -1    0    0    0    0  0.00000000000E+00  0.00000000000E+00  0.39999999674E+01  0.40000000000E+01  0.51100000000E-03 0. -1.
    9000002   -1    0    0    0    0 -0.00000000000E+00 -0.00000000000E+00  0.00000000000E+00  0.93800000000E+00  0.93800000000E+00 0. -1.
         11    1    1    2    0    0  0.19278380085E-01  0.17021574178E+00  0.12495079123E+01  0.12611959954E+01  0.51100000000E-03 0. -1.
    9000002    1    1    2    0    0 -0.52711583481E-01 -0.51972850414E+00  0.18753948205E+00  0.10899134307E+01  0.93800000000E+00 0. -1.
         22    1    1    2    0    0  0.33433203397E-01  0.34951276236E+00  0.25629525730E+01  0.25868905739E+01  0.00000000000E+00 0. -1.
</event>
<event>
 5    1  0.1560836E+002  0.1599676E+01  0.7818608E-02  0.3353715E+00
         11   -1    0    0    0    0  0.00000000000E+00  0.00000000000E+00  0.39999999674E+01  0.40000000000E+01  0.51100000000E-03 0. -1.
    9000002   -1    0    0    0    0 -0.00000000000E+00 -0.00000000000E+00  0.00000000000E+00  0.93800000000E+00  0.93800000000E+00 0.  1.
         11    1    1    2    0    0 -0.46554173257E-02 -0.43388243212E-01  0.63465184406E+00  0.63615048286E+00  0.51100000000E-03 0. -1.
    9000002    1    1    2    0    0  0.25792101125E-01  0.27481521222E+00  0.50718886951E-01  0.97908377519E+00  0.93800000000E+00 0.  1.
         22    1    1    2    0    0 -0.21136683799E-01 -0.23142696901E+00  0.33146292364E+01  0.33227657420E+01  0.00000000000E+00 0. -1.
</event>
<event>
 5    1  0.1560836E+002  0.1587363E+01  0.7818608E-02  0.3367194E+00
         11   -1    0    0    0    0  0.00000000000E+00  0.00000000000E+00  0.39999999674E+01  0.40000000000E+01  0.51100000000E-03 0.  1.
    9000002   -1    0    0    0    0 -0.00000000000E+00 -0.00000000000E+00  0.00000000000E+00  0.93800000000E+00  0.93800000000E+00 0.  1.
         11    1    1    2    0    0 -0.40253125217E-01  0.14681848128E+00  0.11557409060E+01  0.11657243600E+01  0.51100000000E-03 0.  1.
    9000002    1    1    2    0    0 -0.16744623083E+00 -0.21907324667E+00  0.60195106330E-01  0.97954008517E+00  0.93800000000E+00 0.  1.
         22    1    1    2    0    0  0.20769935605E+00  0.72254765388E-01  0.27840639550E+01  0.27927355549E+01  0.00000000000E+00 0.  1.
</event>
<event>
 5    1  0.1560836E+002  0.1599607E+01  0.7818608E-02  0.3353790E+00
         11   -1    0    0    0    0  0.00000000000E+00  0.00000000000E+00  0.39999999674E+01  0.40000000000E+01  0.51100000000E-03 0.  1.
    9000002   -1    0    0    0    0 -0.00000000000E+00 -0.00000000000E+00  0.00000000000E+00  0.93800000000E+00  0.93800000000E+00 0.  1.
         11    1    1    2    0    0 -0.38763341551E-01  0.11247759498E-01  0.69109600146E+00  0.69227382812E+00  0.51100000000E-03 0.  1.
    9000002    1    1    2    0    0  0.25196129491E+00 -0.32504859944E-01  0.42941101856E-01  0.97274302788E+00  0.93800000000E+00 0.  1.
         22    1    1    2    0    0 -0.21319795336E+00  0.21257100446E-01  0.32659628640E+01  0.32729831440E+01  0.00000000000E+00 0.  1.
</event>
<event>
 5    1  0.1560836E+002  0.1514539E+01  0.7818608E-02  0.3451685E+00
         11   -1    0    0    0    0  0.00000000000E+00  0.00000000000E+00  0.39999999674E+01  0.40000000000E+01  0.51100000000E-03 0. -1.
    9000002   -1    0    0    0    0 -0.00000000000E+00 -0.00000000000E+00  0.00000000000E+00  0.93800000000E+00  0.93800000000E+00 0. -1.
         11    1    1    2    0    0 -0.29487373601E+00  0.27946438597E+00  0.26487192207E+01  0.26796948771E+01  0.51100000000E-03 0. -1.
    9000002    1    1    2    0    0  0.80031479301E-01 -0.81646702877E-01  0.73746118474E-01  0.94781523081E+00  0.93800000000E+00 0. -1.
         22    1    1    2    0    0  0.21484225671E+00 -0.19781768309E+00  0.12775346282E+01  0.13104898921E+01  0.00000000000E+00 0.  1.
</event>
<event>
 5    1  0.1560836E+002  0.1590914E+01  0.7818608E-02  0.3363285E+00
         11   -1    0    0    0    0  0.00000000000E+00  0.00000000000E+00  0.39999999674E+01  0.40000000000E+01  0.51100000000E-03 0.  1.
    9000002   -1    0    0    0    0 -0.00000000000E+00 -0.00000000000E+00  0.00000000000E+00  0.93800000000E+00  0.93800000000E+00 0. -1.
         11    1    1    2    0    0  0.10853059928E-02 -0.89611910825E-01  0.14146932100E+01  0.14175290515E+01  0.51100000000E-03 0.  1.
    9000002    1    1    2    0    0  0.19246389645E+00  0.20295784103E-01  0.31367536727E-01  0.95827041729E+00  0.93800000000E+00 0. -1.
         22    1    1    2    0    0 -0.19354920245E+00  0.69316126722E-01  0.25539392206E+01  0.25622005312E+01  0.00000000000E+00 0.  1.
</event>
<event>
 5    1  0.1560836E+002  0.1598931E+01  0.7818608E-02  0.3354524E+00
         11   -1    0    0    0    0  0.00000000000E+00  0.00000000000E+00  0.39999999674E+01  0.40000000000E+01  0.51100000000E-03 0. -1.
    9000002   -1    0    0    0    0 -0.00000000000E+00 -0.00000000000E+00  0.00000000000E+00  0.93800000000E+00  0.93800000000E+00 0. -1.
         11    1    1    2    0    0 -0.44466064021E-01  0.23847899747E+00  0.15526371797E+01  0.15714744465E+01  0.51100000000E-03 0. -1.
    9000002    1    1    2    0    0  0.10430729562E+00 -0.64611049112E+00  0.30337236138E+00  0.11833078924E+01  0.93800000000E+00 0. -1.
         22    1    1    2    0    0 -0.59841231597E-01  0.40763149365E+00  0.21439904263E+01  0.21832176611E+01  0.00000000000E+00 0. -1.
</event>
<event>
 5    1  0.1560836E+002  0.1599676E+01  0.7818608E-02  0.3353715E+00
         11   -1    0    0    0    0  0.00000000000E+00  0.00000000000E+00  0.39999999674E+01  0.40000000000E+01  0.51100000000E-03 0.  1.
    9000002   -1    0    0    0    0 -0.00000000000E+00 -0.00000000000E+00  0.00000000000E+00  0.93800000000E+00  0.93800000000E+00 0. -1.
         11    1    1    2    0    0 -0.21353764137E-01 -0.13097657012E-01  0.38652777988E+00  0.38733902153E+00  0.51100000000E-03 0. -1.
    9000002    1    1    2    0    0  0.21539249935E+00  0.12894222982E+00  0.41867710790E-01  0.97191405619E+00  0.93800000000E+00 0. -1.
         22    1    1    2    0    0 -0.19403873521E+00 -0.11584457281E+00  0.35716044767E+01  0.35787469223E+01  0.00000000000E+00 0.  1.
</event>
<event>
 5    1  0.1560836E+002  0.1599672E+01  0.7818608E-02  0.3353720E+00
         11   -1    0    0    0    0  0.00000000000E+00  0.00000000000E+00  0.39999999674E+01  0.40000000000E+01  0.51100000000E-03 0. -1.
    9000002   -1    0    0    0    0 -0.00000000000E+00 -0.00000000000E+00  0.00000000000E+00  0.93800000000E+00  0.93800000000E+00 0. -1.
         11    1    1    2    0    0 -0.87618197515E-02 -0.83511770272E-02  0.15605136044E+00  0.15652092467E+00  0.51100000000E-03 0. -1.
    9000002    1    1    2    0    0  0.20394410075E+00  0.19431028761E+00  0.52852024925E-01  0.98080937018E+00  0.93800000000E+00 0. -1.
         22    1    1    2    0    0 -0.19518228100E+00 -0.18595911058E+00  0.37910965820E+01  0.38006697051E+01  0.00000000000E+00 0. -1.
</event>
<event>
 5    1  0.1560836E+002  0.1594460E+01  0.7818608E-02  0.3359399E+00
         11   -1    0    0    0    0  0.00000000000E+00  0.00000000000E+00  0.39999999674E+01  0.40000000000E+01  0.51100000000E-03 0. -1.
    9000002   -1    0    0    0    0 -0.00000000000E+00 -0.00000000000E+00  0.00000000000E+00  0.93800000000E+00  0.93800000000E+00 0.  1.
         11    1    1    2    0    0 -0.32806795599E-01 -0.20457180658E-02  0.12502297897E+00  0.12927287879E+00  0.51100000000E-03 0. -1.
    9000002    1    1    2    0    0  0.93361777129E-01  0.29455279180E+00  0.67863089928E-01  0.98991270704E+00  0.93800000000E+00 0.  1.
         22    1    1    2    0    0 -0.60554981530E-01 -0.29250707374E+00  0.38071138985E+01  0.38188144142E+01  0.00000000000E+00 0. -1.
</event>
<event>
 5    1  0.1560836E+002  0.1599675E+01  0.7818608E-02  0.3353717E+00
         11   -1    0    0    0    0  0.00000000000E+00  0.00000000000E+00  0.39999999674E+01  0.40000000000E+01  0.51100000000E-03 0.  1.
    9000002   -1    0    0    0    0 -0.00000000000E+00 -0.00000000000E+00  0.00000000000E+00  0.93800000000E+00  0.93800000000E+00 0.  1.
         11    1    1    2    0    0 -0.76535945801E-01 -0.14736553454E+00  0.11706225240E+01  0.11823416201E+01  0.51100000000E-03 0.  1.
    9000002    1    1    2    0    0  0.25272536064E+00  0.47480241742E+00  0.19937429294E+00  0.10995005922E+01  0.93800000000E+00 0.  1.
         22    1    1    2    0    0 -0.17618941484E+00 -0.32743688288E+00  0.26300031504E+01  0.26561577877E+01  0.00000000000E+00 0.  1.
</event>
<event>
 5    1  0.1560836E+002  0.1599676E+01  0.7818608E-02  0.3353715E+00
         11   -1    0    0    0    0  0.00000000000E+00  0.00000000000E+00  0.39999999674E+01  0.40000000000E+01  0.51100000000E-03 0.  1.
    9000002   -1    0    0    0    0 -0.00000000000E+00 -0.00000000000E+00  0.00000000000E+00  0.93800000000E+00  0.93800000000E+00 0. -1.
         11    1    1    2    0    0 -0.27345454235E-01 -0.15605141748E-01  0.50190387239E+00  0.50289069643E+00  0.51100000000E-03 0.  1.
    9000002    1    1    2    0    0  0.21137291777E+00  0.11865624967E+00  0.39010828675E-01  0.96959974253E+00  0.93800000000E+00 0. -1.
         22    1    1    2    0    0 -0.18402746354E+00 -0.10305110792E+00  0.34590852663E+01  0.34655095610E+01  0.00000000000E+00 0.  1.
</event>
<event>
 5    1  0.1560836E+002  0.1599673E+01  0.7818608E-02  0.3353718E+00
         11   -1    0    0    0    0  0.00000000000E+00  0.00000000000E+00  0.39999999674E+01  0.40000000000E+01  0.51100000000E-03 0.  1.
    9000002   -1    0    0    0    0 -0.00000000000E+00 -0.00000000000E+00  0.00000000000E+00  0.93800000000E+00  0.93800000000E+00 0. -1.
         11    1    1    2    0    0 -0.22753150712E+00 -0.14290820851E+00  0.21568641893E+01  0.21735355380E+01  0.51100000000E-03 0.  1.
    9000002    1    1    2    0    0  0.40922176626E+00  0.25524667931E+00  0.15877798449E+00  0.10666150991E+01  0.93800000000E+00 0. -1.
         22    1    1    2    0    0 -0.18169025914E+00 -0.11233847080E+00  0.16843577936E+01  0.16978493629E+01  0.00000000000E+00 0.  1.
</event>
<event>
 5    1  0.1560836E+002  0.1599660E+01  0.7818608E-02  0.3353732E+00
         11   -1    0    0    0    0  0.00000000000E+00  0.00000000000E+00  0.39999999674E+01  0.40000000000E+01  0.51100000000E-03 0. -1.
    9000002   -1    0    0    0    0 -0.00000000000E+00 -0.00000000000E+00  0.00000000000E+00  0.93800000000E+00  0.93800000000E+00 0. -1.
         11    1    1    2    0    0 -0.53347679867E-02 -0.48224613024E-02  0.12706057790E+00  0.12726494984E+00  0.51100000000E-03 0. -1.
    9000002    1    1    2    0    0  0.21373740753E+00  0.16949988477E+00  0.49535742175E-01  0.97811639393E+00  0.93800000000E+00 0. -1.
         22    1    1    2    0    0 -0.20840263955E+00 -0.16467742347E+00  0.38234036473E+01  0.38326186562E+01  0.00000000000E+00 0. -1.
</event>
<event>
 5    1  0.1560836E+002  0.1599357E+01  0.7818608E-02  0.3354062E+00
         11   -1    0    0    0    0  0.00000000000E+00  0.00000000000E+00  0.39999999674E+01  0.40000000000E+01  0.51100000000E-03 0.  1.
    9000002   -1    0    0    0    0 -0.00000000000E+00 -0.00000000000E+00  0.00000000000E+00  0.93800000000E+00  0.93800000000E+00 0.  1.
         11    1    1    2    0    0  0.80626818589E-01  0.64161590421E-01  0.46129227659E+00  0.47266078653E+00  0.51100000000E-03 0.  1.
    9000002    1    1    2    0    0 -0.54732638893E+00 -0.43593885708E+00  0.35024354286E+00  0.12215250314E+01  0.93800000000E+00 0.  1.
         22    1    1    2    0    0  0.46669957034E+00  0.37177726666E+00  0.31884641479E+01  0.32438141820E+01  0.00000000000E+00 0.  1.
</event>
<event>
 5    1  0.1560836E+002  0.1598600E+01  0.7818608E-02  0.3354885E+00
         11   -1    0    0    0    0  0.00000000000E+00  0.00000000000E+00  0.39999999674E+01  0.40000000000E+01  0.51100000000E-03 0.  1.
    9000002   -1    0    0    0    0 -0.00000000000E+00 -0.00000000000E+00  0.00000000000E+00  0.93800000000E+00  0.93800000000E+00 0. -1.
         11    1    1    2    0    0  0.29165340194E-01 -0.55623831168E-02  0.66700134899E+00  0.66766205362E+00  0.51100000000E-03 0.  1.
    9000002    1    1    2    0    0 -0.20369300269E+00 -0.13981224284E+00  0.41360744009E-01  0.97087229528E+00  0.93800000000E+00 0. -1.
         22    1    1    2    0    0  0.17452766249E+00  0.14537462596E+00  0.32916378744E+01  0.32994656511E+01  0.00000000000E+00 0.  1.
</event>
<event>
 5    1  0.1560836E+002  0.1599498E+01  0.7818608E-02  0.3353908E+00
         11   -1    0    0    0    0  0.00000000000E+00  0.00000000000E+00  0.39999999674E+01  0.40000000000E+01  0.51100000000E-03 0.  1.
    9000002   -1    0    0    0    0 -0.00000000000E+00 -0.00000000000E+00  0.00000000000E+00  0.93800000000E+00  0.93800000000E+00 0. -1.
         11    1    1    2    0    0 -0.13573995708E+00  0.81258587523E-01  0.14759463281E+01  0.14844009291E+01  0.51100000000E-03 0.  1.
    9000002    1    1    2    0    0  0.32955468340E+00 -0.18577994096E+00  0.96423964623E-01  0.10160029807E+01  0.93800000000E+00 0. -1.
         22    1    1    2    0    0 -0.19381472632E+00  0.10452135344E+00  0.24276296747E+01  0.24375960902E+01  0.00000000000E+00 0.  1.
</event>
<event>
 5    1  0.1560836E+002  0.1599673E+01  0.7818608E-02  0.3353719E+00
         11   -1    0    0    0    0  0.00000000000E+00  0.00000000000E+00  0.39999999674E+01  0.40000000000E+01  0.51100000000E-03 0.  1.
    9000002   -1    0    0    0    0 -0.00000000000E+00 -0.00000000000E+00  0.00000000000E+00  0.93800000000E+00  0.93800000000E+00 0.  1.
         11    1    1    2    0    0  0.18124613303E-01  0.38044780161E-01  0.53294189375E+00  0.53460567725E+00  0.51100000000E-03 0.  1.
    9000002    1    1    2    0    0 -0.14046896229E+00 -0.27065260129E+00  0.62063121551E-01  0.98827131447E+00  0.93800000000E+00 0.  1.
         22    1    1    2    0    0  0.12234434899E+00  0.23260782113E+00  0.34049949521E+01  0.34151230083E+01  0.00000000000E+00 0.  1.
</event>
<event>
 5    1  0.1560836E+002  0.1506723E+01  0.7818608E-02  0.3461272E+00
         11   -1    0    0    0    0  0.00000000000E+00  0.00000000000E+00  0.39999999674E+01  0.40000000000E+01  0.51100000000E-03 0. -1.
    9000002   -1    0    0    0    0 -0.00000000000E+00 -0.00000000000E+00  0.00000000000E+00  0.93800000000E+00  0.93800000000E+00 0.  1.
         11    1    1    2    0    0 -0.17104503079E+00  0.12681805489E+00  0.31522254495E+01  0.31594089269E+01  0.51100000000E-03 0. -1.
    9000002    1    1    2    0    0  0.28972870451E-01  0.15865320549E+00  0.89456700082E-01  0.95595855978E+00  0.93800000000E+00 0.  1.
         22    1    1    2    0    0  0.14207216034E+00 -0.28547126038E+00  0.75831781774E+00  0.82263251331E+00  0.00000000000E+00 0.  1.
</event>
<event>
 5    1  0.1560836E+002  0.1596343E+01  0.7818608E-02  0.3357342E+00
         11   -1    0    0    0    0  0.00000000000E+00  0.00000000000E+00  0.39999999674E+01  0.40000000000E+01  0.51100000000E-03 0. -1.
    9000002   -1    0    0    0    0 -0.00000000000E+00 -0.00000000000E+00  0.00000000000E+00  0.93800000000E+00  0.93800000000E+00 0. -1.
         11    1    1    2    0    0 -0.20009631620E-01  0.11196705821E+00  0.65485624536E+00  0.66466079371E+00  0.51100000000E-03 0. -1.
    9000002    1    1    2    0    0 -0.15796828522E+00 -0.51563014062E+00  0.20359276938E+00  0.11009643213E+01  0.93800000000E+00 0. -1.
         22    1    1    2    0    0  0.17797791684E+00  0.40366308241E+00  0.31415509526E+01  0.31723748850E+01  0.00000000000E+00 0. -1.
</event>
<event>
 5    1  0.1560836E+002  0.1571609E+01  0.7818608E-02  0.3384766E+00
         11   -1    0    0    0    0  0.00000000000E+00  0.00000000000E+00  0.39999999674E+01  0.40000000000E+01  0.51100000000E-03 0.  1.
    9000002   -1    0    0    0    0 -0.00000000000E+00 -0.00000000000E+00  0.00000000000E+00  0.93800000000E+00  0.93800000000E+00 0. -1.
         11    1    1    2    0    0 -0.50993744988E-01  0.11511255166E+00  0.11466606637E+01  0.11535519929E+01  0.51100000000E-03 0.  1.
    9000002    1    1    2    0    0 -0.75774622734E-01  0.18153070422E+00  0.46923966790E-01  0.95955252524E+00  0.93800000000E+00 0. -1.
         22    1    1    2    0    0  0.12676836772E+00 -0.29664325588E+00  0.28064153369E+01  0.28248954818E+01  0.00000000000E+00 0.  1.
</event>
<event>
 5    1  0.1560836E+002  0.1599642E+01  0.7818608E-02  0.3353752E+00
         11   -1    0    0    0    0  0.00000000000E+00  0.00000000000E+00  0.39999999674E+01  0.40000000000E+01  0.51100000000E-03 0.  1.
    9000002   -1    0    0    0    0 -0.00000000000E+00 -0.00000000000E+00  0.00000000000E+00  0.93800000000E+00  0.93800000000E+00 0.  1.
         11    1    1    2    0    0 -0.22187699242E-01  0.25504792831E-01  0.50111519120E+00  0.50225440210E+00  0.51100000000E-03 0.  1.
    9000002    1    1    2    0    0  0.13885951799E+00 -0.20828768511E+00  0.41655677562E-01  0.97172265641E+00  0.93800000000E+00 0.  1.
         22    1    1    2    0    0 -0.11667181875E+00  0.18278289228E+00  0.34572290986E+01  0.34640229415E+01  0.00000000000E+00 0.  1.
</event>
<event>
 5    1  0.1560836E+002  0.1599676E+01  0.7818608E-02  0.3353715E+00
         11   -1    0    0    0    0  0.00000000000E+00  0.00000000000E+00  0.39999999674E+01  0.40000000000E+01  0.51100000000E-03 0. -1.
    9000002   -1    0    0    0    0 -0.00000000000E+00 -0.00000000000E+00  0.00000000000E+00  0.93800000000E+00  0.93800000000E+00 0. -1.
         11    1    1    2    0    0 -0.47101000680E-01 -0.46037426796E-01  0.90940828987E+00  0.91179035295E+00  0.51100000000E-03 0. -1.
    9000002    1    1    2    0    0  0.20035615444E+00  0.19794732105E+00  0.52832665102E-01  0.98079611594E+00  0.93800000000E+00 0. -1.
         22    1    1    2    0    0 -0.15325515376E+00 -0.15190989426E+00  0.30377590124E+01  0.30454135311E+01  0.00000000000E+00 0. -1.
</event>
<event>
 5    1  0.1560836E+002  0.1599675E+01  0.7818608E-02  0.3353716E+00
         11   -1    0    0    0    0  0.00000000000E+00  0.00000000000E+00  0.39999999674E+01  0.40000000000E+01  0.51100000000E-03 0. -1.
    9000002   -1    0    0    0    0 -0.00000000000E+00 -0.00000000000E+00  0.00000000000E+00  0.93800000000E+00  0.93800000000E+00 0. -1.
         11    1    1    2    0    0  0.57386271608E-01 -0.49472165932E-02  0.49793217465E+00  0.50125280128E+00  0.51100000000E-03 0.  1.
    9000002    1    1    2    0    0 -0.45233699335E+00  0.37700969911E-01  0.14001487547E+00  0.10514172740E+01  0.93800000000E+00 0. -1.
         22    1    1    2    0    0  0.39495072174E+00 -0.32753753317E-01  0.33620529172E+01  0.33853299247E+01  0.00000000000E+00 0. -1.
</event>
<event>
 5    1  0.1560836E+002  0.1572722E+01  0.7818608E-02  0.3383512E+00
         11   -1    0    0    0    0  0.00000000000E+00  0.00000000000E+00  0.39999999674E+01  0.40000000000E+01  0.51100000000E-03 0. -1.
    9000002   -1    0    0    0    0 -0.00000000000E+00 -0.00000000000E+00  0.00000000000E+00  0.93800000000E+00  0.93800000000E+00 0.  1.
         11    1    1    2    0    0 -0.15917376058E+00  0.12995475937E-01  0.20625838725E+01  0.20687575162E+01  0.51100000000E-03 0. -1.
    9000002    1    1    2    0    0 -0.34374300985E-01  0.14308977443E+00  0.34447169497E-01  0.95009835470E+00  0.93800000000E+00 0.  1.
         22    1    1    2    0    0  0.19354806157E+00 -0.15608525037E+00  0.19029689253E+01  0.19191441291E+01  0.00000000000E+00 0. -1.
</event>
<event>
 5    1  0.1560836E+002  0.1599268E+01  0.7818608E-02  0.3354158E+00
         11   -1    0    0    0    0  0.00000000000E+00  0.00000000000E+00  0.39999999674E+01  0.40000000000E+01  0.51100000000E-03 0.  1.
    9000002   -1    0    0    0    0 -0.00000000000E+00 -0.00000000000E+00  0.00000000000E+00  0.93800000000E+00  0.93800000000E+00 0.  1.
         11    1    1    2    0    0 -0.21102094101E-02  0.19437314959E-02  0.76325001631E-01  0.76380613187E-01  0.51100000000E-03 0.  1.
    9000002    1    1    2    0    0 -0.68150334961E-01  0.19647427954E+00  0.28951569331E-01  0.96121215350E+00  0.93800000000E+00 0.  1.
         22    1    1    2    0    0  0.70260544371E-01 -0.19841801104E+00  0.38947233964E+01  0.39004072333E+01  0.00000000000E+00 0.  1.
</event>
<event>
 5    1  0.1560836E+002  0.1545219E+01  0.7818608E-02  0.3415055E+00
         11   -1    0    0    0    0  0.00000000000E+00  0.00000000000E+00  0.39999999674E+01  0.40000000000E+01  0.51100000000E-03 0.  1.
    9000002   -1    0    0    0    0 -0.00000000000E+00 -0.00000000000E+00  0.00000000000E+00  0.93800000000E+00  0.93800000000E+00 0. -1.
         11    1    1    2    0    0 -0.19790808906E+00 -0.11309737684E-01  0.65306320390E+00  0.68248614000E+00  0.51100000000E-03 0.  1.
    9000002    1    1    2    0    0 -0.43728562291E-01  0.36470575116E+00  0.13638713336E+00  0.10165470585E+01  0.93800000000E+00 0. -1.
         22    1    1    2    0    0  0.24163665135E+00 -0.35339601347E+00  0.32105496301E+01  0.32389668015E+01  0.00000000000E+00 0.  1.
</event>
<event>
 5    1  0.1560836E+002  0.1599587E+01  0.7818608E-02  0.3353812E+00
         11   -1    0    0    0    0  0.00000000000E+00  0.00000000000E+00  0.39999999674E+01  0.40000000000E+01  0.51100000000E-03 0. -1.
    9000002   -1    0    0    0    0 -0.00000000000E+00 -0.00000000000E+00  0.00000000000E+00  0.93800000000E+00  0.93800000000E+00 0.  1.
         11    1    1    2    0    0 -0.39941662343E+00 -0.20244392288E+00  0.24171191259E+01  0.24582478132E+01  0.51100000000E-03 0. -1.
    9000002    1    1    2    0    0  0.61650185861E+00  0.31756114480E+00  0.34320377333E+00  0.12159574221E+01  0.93800000000E+00 0.  1.
         22    1    1    2    0    0 -0.21708523518E+00 -0.11511722192E+00  0.12396770681E+01  0.12637947647E+01  0.00000000000E+00 0. -1.
</event>
<event>
 5    1  0.1560836E+002  0.1560167E+01  0.7818608E-02  0.3397765E+00
         11   -1    0    0    0    0  0.00000000000E+00  0.00000000000E+00  0.39999999674E+01  0.40000000000E+01  0.51100000000E-03 0. -1.
    9000002   -1    0    0    0    0 -0.00000000000E+00 -0.00000000000E+00  0.00000000000E+00  0.93800000000E+00  0.93800000000E+00 0.  1.
         11    1    1    2    0    0  0.66911646885E-01  0.61047930528E-01  0.32560098241E+01  0.32572694476E+01  0.51100000000E-03 0. -1.
    9000002    1    1    2    0    0 -0.21458945911E+00 -0.24250226131E+00  0.10212998003E+00  0.99756228654E+00  0.93800000000E+00 0.  1.
         22    1    1    2    0    0  0.14767781223E+00  0.18145433078E+00  0.64186016323E+00  0.68316826590E+00  0.00000000000E+00 0.  1.
</event>
<event>
 5    1  0.1560836E+002  0.1597474E+01  0.7818608E-02  0.3356109E+00
         11   -1    0    0    0    0  0.00000000000E+00  0.00000000000E+00  0.39999999674E+01  0.40000000000E+01  0.51100000000E-03 0.  1.
    9000002   -1    0    0    0    0 -0.00000000000E+00 -0.00000000000E+00  0.00000000000E+00  0.93800000000E+00  0.93800000000E+00 0. -1.
         11    1    1    2    0    0  0.65190129488E-01  0.22041219719E-01  0.46945645071E+00  0.47447359103E+00  0.51100000000E-03 0.  1.
    9000002    1    1    2    0    0 -0.29419240653E+00 -0.84498774312E-02  0.59476428710E-01  0.98488680469E+00  0.93800000000E+00 0. -1.
         22    1    1    2    0    0  0.22900227704E+00 -0.13591342288E-01  0.34710670879E+01  0.34786396043E+01  0.00000000000E+00 0.  1.
</event>
<event>
 5    1  0.1560836E+002  0.1599675E+01  0.7818608E-02  0.3353716E+00
         11   -1    0    0    0    0  0.00000000000E+00  0.00000000000E+00  0.39999999674E+01  0.40000000000E+01  0.51100000000E-03 0. -1.
    9000002   -1    0    0    0    0 -0.00000000000E+00 -0.00000000000E+00  0.00000000000E+00  0.93800000000E+00  0.93800000000E+00 0.  1.
         11    1    1    2    0    0 -0.22816586081E-01 -0.12275677021E+00  0.14368192741E+01  0.14422342767E+01  0.51100000000E-03 0. -1.
    9000002    1    1    2    0    0  0.58563168345E-01  0.33802131837E+00  0.78853146787E-01  0.10018731832E+01  0.93800000000E+00 0.  1.
         22    1    1    2    0    0 -0.35746582265E-01 -0.21526454816E+00  0.24843275465E+01  0.24938925402E+01  0.00000000000E+00 0. -1.
</event>
<event>
 5    1  0.1560836E+002  0.1598181E+01  0.7818608E-02  0.3355340E+00
         11   -1    0    0    0    0  0.00000000000E+00  0.00000000000E+00  0.39999999674E+01  0.40000000000E+01  0.51100000000E-03 0.  1.
    9000002   -1    0    0    0    0 -0.00000000000E+00 -0.00000000000E+00  0.00000000000E+00  0.93800000000E+00  0.93800000000E+00 0. -1.
         11    1    1    2    0    0 -0.58036742322E-01  0.26918509409E+00  0.22920043709E+01  0.23084872050E+01  0.51100000000E-03 0.  1.
    9000002    1    1    2    0    0  0.17199442184E+00 -0.46477010620E+00  0.16934144831E+00  0.10742969137E+01  0.93800000000E+00 0. -1.
         22    1    1    2    0    0 -0.11395767952E+00  0.19558501211E+00  0.15386541482E+01  0.15552158813E+01  0.00000000000E+00 0.  1.
</event>
<event>
 5    1  0.1560836E+002  0.1599677E+01  0.7818608E-02  0.3353714E+00
         11   -1    0    0    0    0  0.00000000000E+00  0.00000000000E+00  0.39999999674E+01  0.40000000000E+01  0.51100000000E-03 0.  1.
    9000002   -1    0    0    0    0 -0.00000000000E+00 -0.00000000000E+00  0.00000000000E+00  0.93800000000E+00  0.93800000000E+00 0.  1.
         11    1    1    2    0    0  0.19882235785E-01 -0.38362475660E-01  0.66875152080E+00  0.67014613371E+00  0.51100000000E-03 0. -1.
    9000002    1    1    2    0    0 -0.11722304654E+00  0.22664860449E+00  0.43269909926E-01  0.97305041887E+00  0.93800000000E+00 0.  1.
         22    1    1    2    0    0  0.97340810750E-01 -0.18828612883E+00  0.32879785366E+01  0.32948034474E+01  0.00000000000E+00 0.  1.
</event>
<event>
 5    1  0.1560836E+002  0.1598101E+01  0.7818608E-02  0.3355427E+00
         11   -1    0    0    0    0  0.00000000000E+00  0.00000000000E+00  0.39999999674E+01  0.40000000000E+01  0.51100000000E-03 0. -1.
    9000002   -1    0    0    0    0 -0.00000000000E+00 -0.00000000000E+00  0.00000000000E+00  0.93800000000E+00  0.93800000000E+00 0. -1.
         11    1    1    2    0    0 -0.15696603911E+00 -0.15038406503E+00  0.19668962447E+01  0.19788721037E+01  0.51100000000E-03 0. -1.
    9000002    1    1    2    0    0  0.28498599298E+00  0.38481401697E+00  0.15782119060E+00  0.10649180119E+01  0.93800000000E+00 0. -1.
         22    1    1    2    0    0 -0.12801995387E+00 -0.23442995194E+00  0.18752825321E+01  0.18942098844E+01  0.00000000000E+00 0. -1.
</event>
<event>
 5    1  0.1560836E+002  0.1598259E+01  0.7818608E-02  0.3355255E+00
         11   -1    0    0    0    0  0.00000000000E+00  0.00000000000E+00  0.39999999674E+01  0.40000000000E+01  0.51100000000E-03 0.  1.
    9000002   -1    0    0    0    0 -0.00000000000E+00 -0.00000000000E+00  0.00000000000E+00  0.93800000000E+00  0.93800000000E+00 0.  1.
         11    1    1    2    0    0 -0.76304587620E-02 -0.15663078077E-01  0.50911352026E+00  0.50941181136E+00  0.51100000000E-03 0.  1.
    9000002    1    1    2    0    0  0.19099855417E+00 -0.74146786834E-01  0.28863506286E-01  0.96054947592E+00  0.93800000000E+00 0.  1.
         22    1    1    2    0    0 -0.18336809541E+00  0.89809864911E-01  0.34620229408E+01  0.34680387127E+01  0.00000000000E+00 0.  1.
</event>
<event>
 5    1  0.1560836E+002  0.1501224E+01  0.7818608E-02  0.3468082E+00
         11   -1    0    0    0    0  0.00000000000E+00  0.00000000000E+00  0.39999999674E+01  0.40000000000E+01  0.51100000000E-03 0. -1.
    9000002   -1    0    0    0    0 -0.00000000000E+00 -0.00000000000E+00  0.00000000000E+00  0.93800000000E+00  0.93800000000E+00 0.  1.
         11    1    1    2    0    0  0.37952447069E+00 -0.22560250717E+00  0.15588237867E+01  0.16201441832E+01  0.51100000000E-03 0. -1.
    9000002    1    1    2    0    0 -0.10695412301E+00  0.17341170495E+00  0.10538984199E+00  0.96564062810E+00  0.93800000000E+00 0.  1.
         22    1    1    2    0    0 -0.27257034769E+00  0.52190802213E-01  0.23357863386E+01  0.23522151887E+01  0.00000000000E+00 0. -1.
</event>
<event>
 5    1  0.1560836E+002  0.1467148E+01  0.7818608E-02  0.3511511E+00
         11   -1    0    0    0    0  0.00000000000E+00  0.00000000000E+00  0.39999999674E+01  0.40000000000E+01  0.51100000000E-03 0. -1.
    9000002   -1    0    0    0    0 -0.00000000000E+00 -0.00000000000E+00  0.00000000000E+00  0.93800000000E+00  0.93800000000E+00 0.  1.
         11    1    1    2    0    0 -0.11738956045E+00 -0.61724484368E+00  0.12947436414E+01  0.14391431006E+01  0.51100000000E-03 0. -1.
    9000002    1    1    2    0    0  0.31450556588E+00  0.52032428147E+00  0.40619004178E+00  0.11893214279E+01  0.93800000000E+00 0.  1.
         22    1    1    2    0    0 -0.19711600543E+00  0.96920562210E-01  0.22990662842E+01  0.23095354715E+01  0.00000000000E+00 0.  1.
</event>
<event>
 5    1  0.1560836E+002  0.1537360E+01  0.7818608E-02  0.3424289E+00
         11   -1    0    0    0    0  0.00000000000E+00  0.00000000000E+00  0.39999999674E+01  0.40000000000E+01  0.51100000000E-03 0.  1.
    9000002   -1    0    0    0    0 -0.00000000000E+00 -0.00000000000E+00  0.00000000000E+00  0.93800000000E+00  0.93800000000E+00 0. -1.
         11    1    1    2    0    0 -0.35948846292E+00 -0.43809733066E-01  0.16468175756E+01  0.16861671436E+01  0.51100000000E-03 0.  1.
    9000002    1    1    2    0    0  0.16855620221E+00 -0.59815371710E-01  0.69049741236E-01  0.95739278186E+00  0.93800000000E+00 0. -1.
         22    1    1    2    0    0  0.19093226071E+00  0.10362510478E+00  0.22841326505E+01  0.22944400746E+01  0.00000000000E+00 0.  1.
</event>
<event>
 5    1  0.1560836E+002  0.1598663E+01  0.7818608E-02  0.3354816E+00
         11   -1    0    0    0    0  0.00000000000E+00  0.00000000000E+00  0.39999999674E+01  0.40000000000E+01  0.51100000000E-03 0.  1.
    9000002   -1    0    0    0    0 -0.00000000000E+00 -0.00000000000E+00  0.00000000000E+00  0.93800000000E+00  0.93800000000E+00 0. -1.
         11    1    1    2    0    0  0.65421449647E+00  0.21862116219E+00  0.21892312400E+01  0.22953268838E+01  0.51100000000E-03 0.  1.
    9000002    1    1    2    0    0 -0.92558268243E+00 -0.36118357508E+00  0.79317939771E+00  0.15799159579E+01  0.93800000000E+00 0. -1.
         22    1    1    2    0    0  0.27136818596E+00  0.14256241289E+00  0.10175893296E+01  0.10627571584E+01  0.00000000000E+00 0.  1.
</event>
<event>
 5    1  0.1560836E+002  0.1599655E+01  0.7818608E-02  0.3353738E+00
         11   -1    0    0    0    0  0.00000000000E+00  0.00000000000E+00  0.39999999674E+01  0.40000000000E+01  0.51100000000E-03 0.  1.
    9000002   -1    0    0    0    0 -0.00000000000E+00 -0.00000000000E+00  0.00000000000E+00  0.93800000000E+00  0.93800000000E+00 0.  1.
         11    1    1    2    0    0  0.26823554390E-01 -0.58765613321E-01  0.85356031785E+00  0.85600138884E+00  0.51100000000E-03 0.  1.
    9000002    1    1    2    0    0 -0.14509689048E+00  0.27067442834E+00  0.62979922676E-01  0.98900365239E+00  0.93800000000E+00 0.  1.
         22    1    1    2    0    0  0.11827333609E+00 -0.21190881502E+00  0.30834597268E+01  0.30929949588E+01  0.00000000000E+00 0.  1.
</event>
<event>
 5    1  0.1560836E+002  0.1754825E+01  0.7818608E-02  0.3200763E+00
         11   -1    0    0    0    0  0.00000000000E+00  0.00000000000E+00  0.39999999674E+01  0.40000000000E+01  0.51100000000E-03 0. -1.
    9000002   -1    0    0    0    0 -0.00000000000E+00 -0.00000000000E+00  0.00000000000E+00  0.93800000000E+00  0.93800000000E+00 0. -1.
         11    1    1    2    0    0  0.38683050952E-01 -0.55088971174E-01 -0.17826753694E+00  0.19055379562E+00  0.51100000000E-03 0. -1.
    9000002    1    1    2    0    0  0.34505852071E+00 -0.48060482970E-01  0.64185595718E+00  0.11887801573E+01  0.93800000000E+00 0.  1.
         22    1    1    2    0    0 -0.38374157166E+00  0.10314945414E+00  0.35364115471E+01  0.35586660470E+01  0.00000000000E+00 0. -1.
</event>
<event>
 5    1  0.1560836E+002  0.1598569E+01  0.7818608E-02  0.3354918E+00
         11   -1    0    0    0    0  0.00000000000E+00  0.00000000000E+00  0.39999999674E+01  0.40000000000E+01  0.51100000000E-03 0.  1.
    9000002   -1    0    0    0    0 -0.00000000000E+00 -0.00000000000E+00  0.00000000000E+00  0.93800000000E+00  0.93800000000E+00 0.  1.
         11    1    1    2    0    0 -0.88269437209E-02 -0.38098283631E-01  0.10076191085E+01  0.10083778672E+01  0.51100000000E-03 0.  1.
    9000002    1    1    2    0    0  0.16351014163E+00  0.19660439161E+00  0.44306081702E-01  0.97323988928E+00  0.93800000000E+00 0.  1.
         22    1    1    2    0    0 -0.15468319791E+00 -0.15850610798E+00  0.29480747772E+01  0.29563822435E+01  0.00000000000E+00 0.  1.
</event>
<event>
 5    1  0.1560836E+002  0.1599677E+01  0.7818608E-02  0.3353714E+00
         11   -1    0    0    0    0  0.00000000000E+00  0.00000000000E+00  0.39999999674E+01  0.40000000000E+01  0.51100000000E-03 0. -1.
    9000002   -1    0    0    0    0 -0.00000000000E+00 -0.00000000000E+00  0.00000000000E+00  0.93800000000E+00  0.93800000000E+00 0. -1.
         11    1    1    2    0    0 -0.13640332078E+00 -0.49975595041E-01  0.16400462119E+01  0.16464675108E+01  0.51100000000E-03 0. -1.
    9000002    1    1    2    0    0  0.32539018991E+00  0.11822502312E+00  0.80331363401E-01  0.10030718119E+01  0.93800000000E+00 0. -1.
         22    1    1    2    0    0 -0.18898686913E+00 -0.68249428081E-01  0.22796223921E+01  0.22884606773E+01  0.00000000000E+00 0. -1.
</event>
<event>
 5    1  0.1560836E+002  0.1591918E+01  0.7818608E-02  0.3362183E+00
         11   -1    0    0    0    0  0.00000000000E+00  0.00000000000E+00  0.39999999674E+01  0.40000000000E+01  0.51100000000E-03 0. -1.
    9000002   -1    0    0    0    0 -0.00000000000E+00 -0.00000000000E+00  0.00000000000E+00  0.93800000000E+00  0.93800000000E+00 0.  1.
         11    1    1    2    0    0 -0.52918184512E-01  0.79101755980E-01  0.10013623540E+01  0.10058748666E+01  0.51100000000E-03 0. -1.
    9000002    1    1    2    0    0 -0.13441268058E+00 -0.19160074194E+00  0.42258500055E-01  0.96768145267E+00  0.93800000000E+00 0.  1.
         22    1    1    2    0    0  0.18733086510E+00  0.11249898596E+00  0.29563791133E+01  0.29644436808E+01  0.00000000000E+00 0.  1.
</event>
<event>
 5    1  0.1560836E+002  0.1577257E+01  0.7818608E-02  0.3378424E+00
         11   -1    0    0    0    0  0.00000000000E+00  0.00000000000E+00  0.39999999674E+01  0.40000000000E+01  0.51100000000E-03 0.  1.
    9000002   -1    0    0    0    0 -0.00000000000E+00 -0.00000000000E+00  0.00000000000E+00  0.93800000000E+00  0.93800000000E+00 0.  1.
         11    1    1    2    0    0  0.19173200379E-01 -0.11299938213E+00  0.38329615929E+00  0.40006584311E+00  0.51100000000E-03 0.  1.
    9000002    1    1    2    0    0  0.30395191228E+00  0.16934219725E+00  0.99410717277E-01  0.10053805426E+01  0.93800000000E+00 0.  1.
         22    1    1    2    0    0 -0.32312511266E+00 -0.56342815122E-01  0.35172930908E+01  0.35325536143E+01  0.00000000000E+00 0.  1.
</event>
<event>
 5    1  0.1560836E+002  0.1599660E+01  0.7818608E-02  0.3353733E+00
         11   -1    0    0    0    0  0.00000000000E+00  0.00000000000E+00  0.39999999674E+01  0.40000000000E+01  0.51100000000E-03 0.  1.
    9000002   -1    0    0    0    0 -0.00000000000E+00 -0.00000000000E+00  0.00000000000E+00  0.93800000000E+00  0.93800000000E+00 0. -1.
         11    1    1    2    0    0  0.30960060056E-01  0.54657691602E-01  0.53507180798E+00  0.53874677668E+00  0.51100000000E-03 0.  1.
    9000002    1    1    2    0    0 -0.22381263360E+00 -0.37079451591E+00  0.12710647373E+00  0.10409518354E+01  0.93800000000E+00 0. -1.
         22    1    1    2    0    0  0.19285257354E+00  0.31613682431E+00  0.33378216857E+01  0.33583013879E+01  0.00000000000E+00 0.  1.
</event>
<event>
 5    1  0.1560836E+002  0.1599677E+01  0.7818608E-02  0.3353714E+00
         11   -1    0    0    0    0  0.00000000000E+00  0.00000000000E+00  0.39999999674E+01  0.40000000000E+01  0.51100000000E-03 0. -1.
    9000002   -1    0    0    0    0 -0.00000000000E+00 -0.00000000000E+00  0.00000000000E+00  0.93800000000E+00  0.93800000000E+00 0. -1.
         11    1    1    2    0    0  0.23136684286E+00  0.16328610655E+00  0.22521050831E+01  0.22698393192E+01  0.51100000000E-03 0. -1.
    9000002    1    1    2    0    0 -0.39500465402E+00 -0.27840761831E+00  0.15943155775E+00  0.10671466161E+01  0.93800000000E+00 0. -1.
         22    1    1    2    0    0  0.16363781116E+00  0.11512151176E+00  0.15884633265E+01  0.16010140647E+01  0.00000000000E+00 0. -1.
</event>
<event>
 5    1  0.1560836E+002  0.1561708E+01  0.7818608E-02  0.3396003E+00
         11   -1    0    0    0    0  0.00000000000E+00  0.00000000000E+00  0.39999999674E+01  0.40000000000E+01  0.51100000000E-03 0. -1.
    9000002   -1    0    0    0    0 -0.00000000000E+00 -0.00000000000E+00  0.00000000000E+00  0.93800000000E+00  0.93800000000E+00 0. -1.
         11    1    1    2    0    0  0.66726578476E-01  0.23509962466E-01  0.78516050442E-01  0.10568910023E+00  0.51100000000E-03 0. -1.
    9000002    1    1    2    0    0  0.11959599655E+00 -0.34927452574E+00  0.12320699441E+00  0.10155391968E+01  0.93800000000E+00 0. -1.
         22    1    1    2    0    0 -0.18632257502E+00  0.32576456327E+00  0.37982769225E+01  0.38167717030E+01  0.00000000000E+00 0. -1.
</event>
<event>
 5    1  0.1560836E+002  0.1599677E+01  0.7818608E-02  0.3353714E+00
         11   -1    0    0    0    0  0.00000000000E+00  0.00000000000E+00  0.39999999674E+01  0.40000000000E+01  0.51100000000E-03 0.  1.
    9000002   -1    0    0    0    0 -0.00000000000E+00 -0.00000000000E+00  0.00000000000E+00  0.93800000000E+00  0.93800000000E+00 0.  1.
         11    1    1    2    0    0 -0.19161360545E+00  0.19957348254E+00  0.18824251433E+01  0.19026481624E+01  0.51100000000E-03 0.  1.
    9000002    1    1    2    0    0  0.38397317555E+00 -0.40128980239E+00  0.21328002611E+00  0.11107660755E+01  0.93800000000E+00 0.  1.
         22    1    1    2    0    0 -0.19235957010E+00  0.20171631985E+00  0.19042947980E+01  0.19245857621E+01  0.00000000000E+00 0.  1.
</event>
<event>
 5    1  0.1560836E+002  0.1599676E+01  0.7818608E-02  0.3353715E+00
         11   -1    0    0    0    0  0.00000000000E+00  0.00000000000E+00  0.39999999674E+01  0.40000000000E+01  0.51100000000E-03 0. -1.
    9000002   -1    0    0    0    0 -0.00000000000E+00 -0.00000000000E+00  0.00000000000E+00  0.93800000000E+00  0.93800000000E+00 0.  1.
         11    1    1    2    0    0 -0.19149839186E+00 -0.35532972792E+00  0.22225964068E+01  0.22589523896E+01  0.51100000000E-03 0. -1.
    9000002    1    1    2    0    0  0.31848711968E+00  0.58955988299E+00  0.31841394358E+00  0.11959290700E+01  0.93800000000E+00 0.  1.
         22    1    1    2    0    0 -0.12698872782E+00 -0.23423015507E+00  0.14589896169E+01  0.14831185404E+01  0.00000000000E+00 0. -1.
</event>
<event>
 5    1  0.1560836E+002  0.1599653E+01  0.7818608E-02  0.3353740E+00
         11   -1    0    0    0    0  0.00000000000E+00  0.00000000000E+00  0.39999999674E+01  0.40000000000E+01  0.51100000000E-03 0.  1.
    9000002   -1    0    0    0    0 -0.00000000000E+00 -0.00000000000E+00  0.00000000000E+00  0.93800000000E+00  0.93800000000E+00 0. -1.
         11    1    1    2    0    0  0.10732230378E+00  0.28114625301E-01  0.73114706490E+00  0.73951659932E+00  0.51100000000E-03 0.  1.
    9000002    1    1    2    0    0 -0.54705551015E+00 -0.12265726132E+00  0.21756494265E+00  0.11142230653E+01  0.93800000000E+00 0. -1.
         22    1    1    2    0    0  0.43973320637E+00  0.94542636022E-01  0.30512879598E+01  0.30842603354E+01  0.00000000000E+00 0.  1.
</event>
<event>
 5    1  0.1560836E+002  0.1599245E+01  0.7818608E-02  0.3354183E+00
         11   -1    0    0    0    0  0.00000000000E+00  0.00000000000E+00  0.39999999674E+01  0.40000000000E+01  0.51100000000E-03 0. -1.
    9000002   -1    0    0    0    0 -0.00000000000E+00 -0.00000000000E+00  0.00000000000E+00  0.93800000000E+00  0.93800000000E+00 0. -1.
         11    1    1    2    0    0  0.88419031312E-02 -0.55357012973E+00  0.23367428067E+01  0.24014340036E+01  0.51100000000E-03 0. -1.
    9000002    1    1    2    0    0  0.22376689045E-02  0.80221196157E+00  0.47497020564E+00  0.13224937560E+01  0.93800000000E+00 0. -1.
         22    1    1    2    0    0 -0.11079572036E-01 -0.24864183183E+00  0.11882869550E+01  0.12140722404E+01  0.00000000000E+00 0.  1.
</event>
<event>
 5    1  0.1560836E+002  0.1569286E+01  0.7818608E-02  0.3387389E+00
         11   -1    0    0    0    0  0.00000000000E+00  0.00000000000E+00  0.39999999674E+01  0.40000000000E+01  0.51100000000E-03 0.  1.
    9000002   -1    0    0    0    0 -0.00000000000E+00 -0.00000000000E+00  0.00000000000E+00  0.93800000000E+00  0.93800000000E+00 0. -1.
         11    1    1    2    0    0  0.15790740650E+00  0.60945731569E-01  0.50956431218E+00  0.53694057454E+00  0.51100000000E-03 0.  1.
    9000002    1    1    2    0    0 -0.28077069253E+00  0.11306019036E+00  0.85346645081E-01  0.98931432733E+00  0.93800000000E+00 0. -1.
         22    1    1    2    0    0  0.12286328603E+00 -0.17400592193E+00  0.34050890101E+01  0.34117450981E+01  0.00000000000E+00 0.  1.
</event>
<event>
 5    1  0.1560836E+002  0.1599676E+01  0.7818608E-02  0.3353715E+00
         11   -1    0    0    0    0  0.00000000000E+00  0.00000000000E+00  0.39999999674E+01  0.40000000000E+01  0.51100000000E-03 0.  1.
    9000002   -1    0    0    0    0 -0.00000000000E+00 -0.00000000000E+00  0.00000000000E+00  0.93800000000E+00  0.93800000000E+00 0.  1.
         11    1    1    2    0    0 -0.21725204547E-01 -0.16614037313E-01  0.41687948240E+00  0.41777598628E+00  0.51100000000E-03 0.  1.
    9000002    1    1    2    0    0  0.20457756729E+00  0.16444268254E+00  0.45811094616E-01  0.97510821618E+00  0.93800000000E+00 0.  1.
         22    1    1    2    0    0 -0.18285236274E+00 -0.14782864522E+00  0.35373093903E+01  0.35451157975E+01  0.00000000000E+00 0.  1.
</event>
<event>
 5    1  0.1560836E+002  0.1595575E+01  0.7818608E-02  0.3358180E+00
         11   -1    0    0    0    0  0.00000000000E+00  0.00000000000E+00  0.39999999674E+01  0.40000000000E+01  0.51100000000E-03 0.  1.
    9000002   -1    0    0    0    0 -0.00000000000E+00 -0.00000000000E+00  0.00000000000E+00  0.93800000000E+00  0.93800000000E+00 0. -1.
         11    1    1    2    0    0 -0.47408370371E-02  0.46324969167E-01  0.12065460387E+01  0.12074444430E+01  0.51100000000E-03 0.  1.
    9000002    1    1    2    0    0 -0.21483369307E+00 -0.11826924132E+00  0.43071605361E-01  0.97048456573E+00  0.93800000000E+00 0. -1.
         22    1    1    2    0    0  0.21957453011E+00  0.71944272157E-01  0.27503823233E+01  0.27600709912E+01  0.00000000000E+00 0.  1.
</event>
<event>
 5    1  0.1560836E+002  0.1578575E+01  0.7818608E-02  0.3376950E+00
         11   -1    0    0    0    0  0.00000000000E+00  0.00000000000E+00  0.39999999674E+01  0.40000000000E+01  0.51100000000E-03 0.  1.
    9000002   -1    0    0    0    0 -0.00000000000E+00 -0.00000000000E+00  0.00000000000E+00  0.93800000000E+00  0.93800000000E+00 0. -1.
         11    1    1    2    0    0 -0.91523720030E-01 -0.69477129673E-01  0.12171482572E+01  0.12225603478E+01  0.51100000000E-03 0.  1.
    9000002    1    1    2    0    0 -0.47227464714E-01 -0.16938629408E+00  0.36299417747E-01  0.95503078368E+00  0.93800000000E+00 0. -1.
         22    1    1    2    0    0  0.13875118474E+00  0.23886342376E+00  0.27465522924E+01  0.27604088685E+01  0.00000000000E+00 0.  1.
</event>
<event>
 5    1  0.1560836E+002  0.1511777E+01  0.7818608E-02  0.3455060E+00
         11   -1    0    0    0    0  0.00000000000E+00  0.00000000000E+00  0.39999999674E+01  0.40000000000E+01  0.51100000000E-03 0.  1.
    9000002   -1    0    0    0    0 -0.00000000000E+00 -0.00000000000E+00  0.00000000000E+00  0.93800000000E+00  0.93800000000E+00 0.  1.
         11    1    1    2    0    0 -0.19517775099E+00  0.34616422144E+00  0.14420802942E+01  0.14958341682E+01  0.51100000000E-03 0.  1.
    9000002    1    1    2    0    0  0.54206024551E+00  0.38319669107E-02  0.29025421799E+00  0.11215772398E+01  0.93800000000E+00 0.  1.
         22    1    1    2    0    0 -0.34688249453E+00 -0.34999618835E+00  0.22676654551E+01  0.23205885920E+01  0.00000000000E+00 0.  1.
</event>
<event>
 5    1  0.1560836E+002  0.1599675E+01  0.7818608E-02  0.3353716E+00
         11   -1    0    0    0    0  0.00000000000E+00  0.00000000000E+00  0.39999999674E+01  0.40000000000E+01  0.51100000000E-03 0. -1.
    9000002   -1    0    0    0    0 -0.00000000000E+00 -0.00000000000E+00  0.00000000000E+00  0.93800000000E+00  0.93800000000E+00 0.  1.
         11    1    1    2    0    0 -0.95110321704E-02  0.93738833144E-02  0.21580259905E+00  0.21621598530E+00  0.51100000000E-03 0. -1.
    9000002    1    1    2    0    0  0.18255036344E+00 -0.18127774296E+00  0.43993455464E-01  0.97363529076E+00  0.93800000000E+00 0.  1.
         22    1    1    2    0    0 -0.17303933127E+00  0.17190385964E+00  0.37402039128E+01  0.37481487239E+01  0.00000000000E+00 0. -1.
</event>
<event>
 5    1  0.1560836E+002  0.1592287E+01  0.7818608E-02  0.3361777E+00
         11   -1    0    0    0    0  0.00000000000E+00  0.00000000000E+00  0.39999999674E+01  0.40000000000E+01  0.51100000000E-03 0.  1.
    9000002   -1    0    0    0    0 -0.00000000000E+00 -0.00000000000E+00  0.00000000000E+00  0.93800000000E+00  0.93800000000E+00 0. -1.
         11    1    1    2    0    0  0.51611456476E-01  0.14541399101E+00  0.24275150465E+01  0.24324141369E+01  0.51100000000E-03 0.  1.
    9000002    1    1    2    0    0  0.41772818533E-01 -0.33833427441E+00  0.83787661671E-01  0.10015385274E+01  0.93800000000E+00 0. -1.
         22    1    1    2    0    0 -0.93384275009E-01  0.19292028340E+00  0.14886972592E+01  0.15040473358E+01  0.00000000000E+00 0. -1.
</event>
<event>
 5    1  0.1560836E+002  0.1599382E+01  0.7818608E-02  0.3354034E+00
         11   -1    0    0    0    0  0.00000000000E+00  0.00000000000E+00  0.39999999674E+01  0.40000000000E+01  0.51100000000E-03 0.  1.
    9000002   -1    0    0    0    0 -0.00000000000E+00 -0.00000000000E+00  0.00000000000E+00  0.93800000000E+00  0.93800000000E+00 0.  1.
         11    1    1    2    0    0 -0.40812161568E-01 -0.31695954726E+00  0.21200710005E+01  0.21440219904E+01  0.51100000000E-03 0.  1.
    9000002    1    1    2    0    0  0.36193023782E-01  0.56491200112E+00  0.22229721817E+00  0.11178978295E+01  0.93800000000E+00 0.  1.
         22    1    1    2    0    0  0.46191377856E-02 -0.24795245386E+00  0.16576317487E+01  0.16760801801E+01  0.00000000000E+00 0.  1.
</event>
<event>
 5    1  0.1560836E+002  0.1522254E+01  0.7818608E-02  0.3442325E+00
         11   -1    0    0    0    0  0.00000000000E+00  0.00000000000E+00  0.39999999674E+01  0.40000000000E+01  0.51100000000E-03 0. -1.
    9000002   -1    0    0    0    0 -0.00000000000E+00 -0.00000000000E+00  0.00000000000E+00  0.93800000000E+00  0.93800000000E+00 0. -1.
         11    1    1    2    0    0 -0.18402860433E+00 -0.30936218179E+00  0.14505570422E+01  0.14945526021E+01  0.51100000000E-03 0. -1.
    9000002    1    1    2    0    0 -0.36605594817E-01  0.14248054651E+00  0.73727169961E-01  0.95232366940E+00  0.93800000000E+00 0. -1.
         22    1    1    2    0    0  0.22063419915E+00  0.16688163527E+00  0.24757157552E+01  0.24911237285E+01  0.00000000000E+00 0. -1.
</event>
<event>
 5    1  0.1560836E+002  0.1599676E+01  0.7818608E-02  0.3353715E+00
         11   -1    0    0    0    0  0.00000000000E+00  0.00000000000E+00  0.39999999674E+01  0.40000000000E+01  0.51100000000E-03 0. -1.
    9000002   -1    0    0    0    0 -0.00000000000E+00 -0.00000000000E+00  0.00000000000E+00  0.93800000000E+00  0.93800000000E+00 0. -1.
         11    1    1    2    0    0 -0.97029676090E-01 -0.94482964179E-03  0.11640466045E+01  0.11680840763E+01  0.51100000000E-03 0. -1.
    9000002    1    1    2    0    0  0.32927719030E+00  0.40126524240E-03  0.72539329982E-01  0.99675954144E+00  0.93800000000E+00 0. -1.
         22    1    1    2    0    0 -0.23224751421E+00  0.54356439939E-03  0.27634140329E+01  0.27731563823E+01  0.00000000000E+00 0. -1.
</event>
<event>
 5    1  0.1560836E+002  0.1599675E+01  0.7818608E-02  0.3353716E+00
         11   -1    0    0    0    0  0.00000000000E+00  0.00000000000E+00  0.39999999674E+01  0.40000000000E+01  0.51100000000E-03 0.  1.
    9000002   -1    0    0    0    0 -0.00000000000E+00 -0.00000000000E+00  0.00000000000E+00  0.93800000000E+00  0.93800000000E+00 0. -1.
         11    1    1    2    0    0  0.12635544008E+00 -0.58582446579E-01  0.10840972502E+01  0.10930071863E+01  0.51100000000E-03 0.  1.
    9000002    1    1    2    0    0 -0.45165181022E+00  0.20931741744E+00  0.16957462564E+00  0.10753616566E+01  0.93800000000E+00 0. -1.
         22    1    1    2    0    0  0.32529637014E+00 -0.15073497086E+00  0.27463280915E+01  0.27696311571E+01  0.00000000000E+00 0.  1.
</event>
<event>
 5    1  0.1560836E+002  0.1598178E+01  0.7818608E-02  0.3355343E+00
         11   -1    0    0    0    0  0.00000000000E+00  0.00000000000E+00  0.39999999674E+01  0.40000000000E+01  0.51100000000E-03 0.  1.
    9000002   -1    0    0    0    0 -0.00000000000E+00 -0.00000000000E+00  0.00000000000E+00  0.93800000000E+00  0.93800000000E+00 0. -1.
         11    1    1    2    0    0  0.10255655091E+00 -0.11331756879E-02  0.15448957683E+01  0.15482965886E+01  0.51100000000E-03 0.  1.
    9000002    1    1    2    0    0 -0.30853448593E+00  0.10840678646E+00  0.72724849131E-01  0.99603135696E+00  0.93800000000E+00 0. -1.
         22    1    1    2    0    0  0.20597793502E+00 -0.10727361077E+00  0.23823793500E+01  0.23936720545E+01  0.00000000000E+00 0.  1.
</event>
<event>
 5    1  0.1560836E+002  0.1599598E+01  0.7818608E-02  0.3353800E+00
         11   -1    0    0    0    0  0.00000000000E+00  0.00000000000E+00  0.39999999674E+01  0.40000000000E+01  0.51100000000E-03 0. -1.
    9000002   -1    0    0    0    0 -0.00000000000E+00 -0.00000000000E+00  0.00000000000E+00  0.93800000000E+00  0.93800000000E+00 0.  1.
         11    1    1    2    0    0 -0.21194848293E+00  0.16342071374E+00  0.19433096730E+01  0.19616526796E+01  0.51100000000E-03 0. -1.
    9000002    1    1    2    0    0  0.39877048948E+00 -0.31097788625E+00  0.17529838949E+00  0.10799530890E+01  0.93800000000E+00 0.  1.
         22    1    1    2    0    0 -0.18682200656E+00  0.14755717251E+00  0.18813919049E+01  0.18963942315E+01  0.00000000000E+00 0. -1.
</event>
<event>
 5    1  0.1560836E+002  0.1563647E+01  0.7818608E-02  0.3393790E+00
         11   -1    0    0    0    0  0.00000000000E+00  0.00000000000E+00  0.39999999674E+01  0.40000000000E+01  0.51100000000E-03 0. -1.
    9000002   -1    0    0    0    0 -0.00000000000E+00 -0.00000000000E+00  0.00000000000E+00  0.93800000000E+00  0.93800000000E+00 0. -1.
         11    1    1    2    0    0 -0.11097164841E+00 -0.78355939510E-01  0.30529037294E+00  0.33415091342E+00  0.51100000000E-03 0. -1.
    9000002    1    1    2    0    0  0.31002604397E+00 -0.15816449251E+00  0.11076934751E+00  0.10066012135E+01  0.93800000000E+00 0. -1.
         22    1    1    2    0    0 -0.19905439556E+00  0.23652043202E+00  0.35839402469E+01  0.35972478731E+01  0.00000000000E+00 0. -1.
</event>
<event>
 5    1  0.1560836E+002  0.1579364E+01  0.7818608E-02  0.3376070E+00
         11   -1    0    0    0    0  0.00000000000E+00  0.00000000000E+00  0.39999999674E+01  0.40000000000E+01  0.51100000000E-03 0. -1.
    9000002   -1    0    0    0    0 -0.00000000000E+00 -0.00000000000E+00  0.00000000000E+00  0.93800000000E+00  0.93800000000E+00 0.  1.
         11    1    1    2    0    0 -0.12212015340E+00  0.21840142810E+00  0.18690462995E+01  0.18857218370E+01  0.51100000000E-03 0. -1.
    9000002    1    1    2    0    0  0.39981577194E+00 -0.12925871291E+00  0.13676458959E+00  0.10368746401E+01  0.93800000000E+00 0.  1.
         22    1    1    2    0    0 -0.27769561854E+00 -0.89142715184E-01  0.19941890782E+01  0.20154035229E+01  0.00000000000E+00 0. -1.
</event>
<event>
 5    1  0.1560836E+002  0.1586961E+01  0.7818608E-02  0.3367638E+00
         11   -1    0    0    0    0  0.00000000000E+00  0.00000000000E+00  0.39999999674E+01  0.40000000000E+01  0.51100000000E-03 0.  1.
    9000002   -1    0    0    0    0 -0.00000000000E+00 -0.00000000000E+00  0.00000000000E+00  0.93800000000E+00  0.93800000000E+00 0. -1.
         11    1    1    2    0    0  0.17229065494E+00  0.47139879550E-01  0.24147332994E+01  0.24213309163E+01  0.51100000000E-03 0.  1.
    9000002    1    1    2    0    0 -0.48133133564E+00 -0.48878173344E-01  0.17118842129E+00  0.10692139197E+01  0.93800000000E+00 0. -1.
         22    1    1    2    0    0  0.30904068070E+00  0.17382937947E-02  0.14140782467E+01  0.14474551640E+01  0.00000000000E+00 0.  1.
</event>
<event>
 5    1  0.1560836E+002  0.1599652E+01  0.7818608E-02  0.3353741E+00
         11   -1    0    0    0    0  0.00000000000E+00  0.00000000000E+00  0.39999999674E+01  0.40000000000E+01  0.51100000000E-03 0. -1.
    9000002   -1    0    0    0    0 -0.00000000000E+00 -0.00000000000E+00  0.00000000000E+00  0.93800000000E+00  0.93800000000E+00 0.  1.
         11    1    1    2    0    0 -0.83581127432E-01 -0.66896052277E-01  0.10231599868E+01  0.10287455985E+01  0.51100000000E-03 0. -1.
    9000002    1    1    2    0    0  0.31783047184E+00  0.23443747683E+00  0.10516268883E+00  0.10231717014E+01  0.93800000000E+00 0.  1.
         22    1    1    2    0    0 -0.23424934441E+00 -0.16754142455E+00  0.28716772917E+01  0.28860827001E+01  0.00000000000E+00 0. -1.
</event>
<event>
 5    1  0.1560836E+002  0.1599632E+01  0.7818608E-02  0.3353763E+00
         11   -1    0    0    0    0  0.00000000000E+00  0.00000000000E+00  0.39999999674E+01  0.40000000000E+01  0.51100000000E-03 0. -1.
    9000002   -1    0    0    0    0 -0.00000000000E+00 -0.00000000000E+00  0.00000000000E+00  0.93800000000E+00  0.93800000000E+00 0.  1.
         11    1    1    2    0    0  0.26825896740E+00 -0.31491190167E+00  0.21951440911E+01  0.22337838349E+01  0.51100000000E-03 0. -1.
    9000002    1    1    2    0    0 -0.44187270612E+00  0.53669181048E+00  0.34500094390E+00  0.12174396244E+01  0.93800000000E+00 0.  1.
         22    1    1    2    0    0  0.17361373872E+00 -0.22177990881E+00  0.14598549324E+01  0.14867765406E+01  0.00000000000E+00 0.  1.
</event>
<event>
 5    1  0.1560836E+002  0.1599674E+01  0.7818608E-02  0.3353718E+00
         11   -1    0    0    0    0  0.00000000000E+00  0.00000000000E+00  0.39999999674E+01  0.40000000000E+01  0.51100000000E-03 0. -1.
    9000002   -1    0    0    0    0 -0.00000000000E+00 -0.00000000000E+00  0.00000000000E+00  0.93800000000E+00  0.93800000000E+00 0. -1.
         11    1    1    2    0    0  0.17101771894E-01  0.24715263836E+00  0.20778445178E+01  0.20925618267E+01  0.51100000000E-03 0. -1.
    9000002    1    1    2    0    0 -0.28800182118E-01 -0.45593230417E+00  0.14189568743E+00  0.10529397431E+01  0.93800000000E+00 0. -1.
         22    1    1    2    0    0  0.11698410224E-01  0.20877966582E+00  0.17802597621E+01  0.17924984302E+01  0.00000000000E+00 0. -1.
</event>
<event>
 5    1  0.1560836E+002  0.1599672E+01  0.7818608E-02  0.3353719E+00
         11   -1    0    0    0    0  0.00000000000E+00  0.00000000000E+00  0.39999999674E+01  0.40000000000E+01  0.51100000000E-03 0. -1.
    9000002   -1    0    0    0    0 -0.00000000000E+00 -0.00000000000E+00  0.00000000000E+00  0.93800000000E+00  0.93800000000E+00 0. -1.
         11    1    1    2    0    0 -0.46979466084E-01 -0.20871739337E-01  0.79769502906E+00  0.79934993604E+00  0.51100000000E-03 0. -1.
    9000002    1    1    2    0    0  0.24200392858E+00  0.98385840814E-01  0.45378607129E-01  0.97475581204E+00  0.93800000000E+00 0. -1.
         22    1    1    2    0    0 -0.19502446250E+00 -0.77514101477E-01  0.31569263312E+01  0.31638942519E+01  0.00000000000E+00 0. -1.
</event>
<event>
 5    1  0.1560836E+002  0.1599676E+01  0.7818608E-02  0.3353716E+00
         11   -1    0    0    0    0  0.00000000000E+00  0.00000000000E+00  0.39999999674E+01  0.40000000000E+01  0.51100000000E-03 0.  1.
    9000002   -1    0    0    0    0 -0.00000000000E+00 -0.00000000000E+00  0.00000000000E+00  0.93800000000E+00  0.93800000000E+00 0.  1.
         11    1    1    2    0    0 -0.97158430511E-02  0.10913748705E-01  0.22104134510E+00  0.22152436634E+00  0.51100000000E-03 0.  1.
    9000002    1    1    2    0    0  0.17975061467E+00 -0.18943645952E+00  0.45342892495E-01  0.97472890260E+00  0.93800000000E+00 0.  1.
         22    1    1    2    0    0 -0.17003477162E+00  0.17852271081E+00  0.37336157298E+01  0.37417467311E+01  0.00000000000E+00 0.  1.
</event>
<event>
 5    1  0.1560836E+002  0.1599659E+01  0.7818608E-02  0.3353733E+00
         11   -1    0    0    0    0  0.00000000000E+00  0.00000000000E+00  0.39999999674E+01  0.40000000000E+01  0.51100000000E-03 0. -1.
    9000002   -1    0    0    0    0 -0.00000000000E+00 -0.00000000000E+00  0.00000000000E+00  0.93800000000E+00  0.93800000000E+00 0. -1.
         11    1    1    2    0    0 -0.19449003422E-01  0.13852569572E-01  0.35783194869E+00  0.35862811106E+00  0.51100000000E-03 0. -1.
    9000002    1    1    2    0    0  0.23694868829E+00 -0.13018560055E+00  0.48647668165E-01  0.97739632038E+00  0.93800000000E+00 0. -1.
         22    1    1    2    0    0 -0.21749968487E+00  0.11633303098E+00  0.35935203505E+01  0.36019755686E+01  0.00000000000E+00 0. -1.
</event>
<event>
 5    1  0.1560836E+002  0.1596281E+01  0.7818608E-02  0.3357410E+00
         11   -1    0    0    0    0  0.00000000000E+00  0.00000000000E+00  0.39999999674E+01  0.40000000000E+01  0.51100000000E-03 0. -1.
    9000002   -1    0    0    0    0 -0.00000000000E+00 -0.00000000000E+00  0.00000000000E+00  0.93800000000E+00  0.93800000000E+00 0.  1.
         11    1    1    2    0    0  0.45556313369E-01  0.10013009734E+00  0.87362213698E+00  0.88052104655E+00  0.51100000000E-03 0. -1.
    9000002    1    1    2    0    0  0.35604817214E-01 -0.34341350181E+00  0.82615076206E-01  0.10029305993E+01  0.93800000000E+00 0.  1.
         22    1    1    2    0    0 -0.81161130583E-01  0.24328340447E+00  0.30437627542E+01  0.30545483541E+01  0.00000000000E+00 0. -1.
</event>
<event>
 5    1  0.1560836E+002  0.1599668E+01  0.7818608E-02  0.3353724E+00
         11   -1    0    0    0    0  0.00000000000E+00  0.00000000000E+00  0.39999999674E+01  0.40000000000E+01  0.51100000000E-03 0.  1.
    9000002   -1    0    0    0    0 -0.00000000000E+00 -0.00000000000E+00  0.00000000000E+00  0.93800000000E+00  0.93800000000E+00 0. -1.
         11    1    1    2    0    0 -0.12264326486E+00  0.14346311581E+00  0.16480004702E+01  0.16587732958E+01  0.51100000000E-03 0.  1.
    9000002    1    1    2    0    0  0.29491982450E+00 -0.33223803193E+00  0.13393872687E+00  0.10464909915E+01  0.93800000000E+00 0. -1.
         22    1    1    2    0    0 -0.17227655965E+00  0.18877491613E+00  0.22180607703E+01  0.22327357127E+01  0.00000000000E+00 0.  1.
</event>
<event>
 5    1  0.1560836E+002  0.1599664E+01  0.7818608E-02  0.3353728E+00
         11   -1    0    0    0    0  0.00000000000E+00  0.00000000000E+00  0.39999999674E+01  0.40000000000E+01  0.51100000000E-03 0. -1.
    9000002   -1    0    0    0    0 -0.00000000000E+00 -0.00000000000E+00  0.00000000000E+00  0.93800000000E+00  0.93800000000E+00 0.  1.
         11    1    1    2    0    0  0.10660086048E-01  0.32687720407E-01  0.54612026169E+00  0.54720172318E+00  0.51100000000E-03 0. -1.
    9000002    1    1    2    0    0 -0.62228900339E-01 -0.25217883245E+00  0.44861511556E-01  0.97433215835E+00  0.93800000000E+00 0.  1.
         22    1    1    2    0    0  0.51568814291E-01  0.21949111204E+00  0.34090181941E+01  0.34164661185E+01  0.00000000000E+00 0. -1.
</event>
<event>
 5    1  0.1560836E+002  0.1594452E+01  0.7818608E-02  0.3359407E+00
         11   -1    0    0    0    0  0.00000000000E+00  0.00000000000E+00  0.39999999674E+01  0.40000000000E+01  0.51100000000E-03 0.  1.
    9000002   -1    0    0    0    0 -0.00000000000E+00 -0.00000000000E+00  0.00000000000E+00  0.93800000000E+00  0.93800000000E+00 0. -1.
         11    1    1    2    0    0  0.32123916519E-01  0.20880759248E-01  0.76060932502E+00  0.76157386940E+00  0.51100000000E-03 0.  1.
    9000002    1    1    2    0    0  0.17533080585E+00 -0.20748221219E+00  0.53145764736E-01  0.97798682617E+00  0.93800000000E+00 0. -1.
         22    1    1    2    0    0 -0.20745472237E+00  0.18660145294E+00  0.31862448776E+01  0.31984393044E+01  0.00000000000E+00 0.  1.
</event>
<event>
 5    1  0.1560836E+002  0.1599676E+01  0.7818608E-02  0.3353715E+00
         11   -1    0    0    0    0  0.00000000000E+00  0.00000000000E+00  0.39999999674E+01  0.40000000000E+01  0.51100000000E-03 0.  1.
    9000002   -1    0    0    0    0 -0.00000000000E+00 -0.00000000000E+00  0.00000000000E+00  0.93800000000E+00  0.93800000000E+00 0.  1.
         11    1    1    2    0    0  0.35742630971E-01  0.87752721876E-01  0.82608523347E+00  0.83150174380E+00  0.51100000000E-03 0.  1.
    9000002    1    1    2    0    0 -0.16968824559E+00 -0.41369060612E+00  0.13573571566E+00  0.10479514315E+01  0.93800000000E+00 0.  1.
         22    1    1    2    0    0  0.13394561462E+00  0.32593788425E+00  0.30381790182E+01  0.30585468247E+01  0.00000000000E+00 0.  1.
</event>
<event>
 5    1  0.1560836E+002  0.1592915E+01  0.7818608E-02  0.3361089E+00
         11   -1    0    0    0    0  0.00000000000E+00  0.00000000000E+00  0.39999999674E+01  0.40000000000E+01  0.51100000000E-03 0.  1.
    9000002   -1    0    0    0    0 -0.00000000000E+00 -0.00000000000E+00  0.00000000000E+00  0.93800000000E+00  0.93800000000E+00 0. -1.
         11    1    1    2    0    0  0.63220604086E-01  0.85301122174E-02  0.63852956899E+00  0.64170856250E+00  0.51100000000E-03 0.  1.
    9000002    1    1    2    0    0  0.28554253802E-01 -0.21649992262E+00  0.36725405211E-01  0.96378437282E+00  0.93800000000E+00 0. -1.
         22    1    1    2    0    0 -0.91774857889E-01  0.20796981040E+00  0.33247449932E+01  0.33325070647E+01  0.00000000000E+00 0.  1.
</event>
<event>
 5    1  0.1560836E+002  0.1599666E+01  0.7818608E-02  0.3353726E+00
         11   -1    0    0    0    0  0.00000000000E+00  0.00000000000E+00  0.39999999674E+01  0.40000000000E+01  0.51100000000E-03 0.  1.
    9000002   -1    0    0    0    0 -0.00000000000E+00 -0.00000000000E+00  0.00000000000E+00  0.93800000000E+00  0.93800000000E+00 0.  1.
         11    1    1    2    0    0  0.11055198962E+00 -0.35289953282E-01  0.12283581481E+01  0.12338278341E+01  0.51100000000E-03 0.  1.
    9000002    1    1    2    0    0 -0.36295998645E+00  0.11272847031E+00  0.97199820381E-01  0.10167297895E+01  0.93800000000E+00 0.  1.
         22    1    1    2    0    0  0.25240799683E+00 -0.77438517033E-01  0.26744419989E+01  0.26874423764E+01  0.00000000000E+00 0.  1.
</event>
<event>
 5    1  0.1560836E+002  0.1599676E+01  0.7818608E-02  0.3353715E+00
         11   -1    0    0    0    0  0.00000000000E+00  0.00000000000E+00  0.39999999674E+01  0.40000000000E+01  0.51100000000E-03 0. -1.
    9000002   -1    0    0    0    0 -0.00000000000E+00 -0.00000000000E+00  0.00000000000E+00  0.93800000000E+00  0.93800000000E+00 0. -1.
         11    1    1    2    0    0  0.29578059578E+00 -0.19845103272E+00  0.21577869739E+01  0.21869873934E+01  0.51100000000E-03 0. -1.
    9000002    1    1    2    0    0 -0.51077029185E+00  0.34540733027E+00  0.26622211812E+00  0.11536510439E+01  0.93800000000E+00 0. -1.
         22    1    1    2    0    0  0.21498969607E+00 -0.14695629755E+00  0.15759908754E+01  0.15973615627E+01  0.00000000000E+00 0. -1.
</event>
<event>
 5    1  0.1560836E+002  0.1599668E+01  0.7818608E-02  0.3353724E+00
         11   -1    0    0    0    0  0.00000000000E+00  0.00000000000E+00  0.39999999674E+01  0.40000000000E+01  0.51100000000E-03 0.  1.
    9000002   -1    0    0    0    0 -0.00000000000E+00 -0.00000000000E+00  0.00000000000E+00  0.93800000000E+00  0.93800000000E+00 0. -1.
         11    1    1    2    0    0  0.18705928087E+00 -0.79458851529E+00  0.21693019679E+01  0.23178078808E+01  0.51100000000E-03 0.  1.
    9000002    1    1    2    0    0 -0.24982756558E+00  0.10764566785E+01  0.10558280953E+01  0.17932623233E+01  0.93800000000E+00 0. -1.
         22    1    1    2    0    0  0.62768284710E-01 -0.28186816326E+00  0.77486990415E+00  0.82692979593E+00  0.00000000000E+00 0. -1.
</event>
<event>
 5    1  0.1560836E+002  0.1599670E+01  0.7818608E-02  0.3353721E+00
         11   -1    0    0    0    0  0.00000000000E+00  0.00000000000E+00  0.39999999674E+01  0.40000000000E+01  0.51100000000E-03 0. -1.
    9000002   -1    0    0    0    0 -0.00000000000E+00 -0.00000000000E+00  0.00000000000E+00  0.93800000000E+00  0.93800000000E+00 0. -1.
         11    1    1    2    0    0 -0.51008608162E-01  0.36872408815E-01  0.68845858879E+00  0.69132983606E+00  0.51100000000E-03 0. -1.
    9000002    1    1    2    0    0  0.29968563651E+00 -0.21816140513E+00  0.92355019182E-01  0.10128076466E+01  0.93800000000E+00 0. -1.
         22    1    1    2    0    0 -0.24867702835E+00  0.18128899632E+00  0.32191863594E+01  0.32338625173E+01  0.00000000000E+00 0. -1.
</event>
<event>
 5    1  0.1560836E+002  0.1599636E+01  0.7818608E-02  0.3353759E+00
         11   -1    0    0    0    0  0.00000000000E+00  0.00000000000E+00  0.39999999674E+01  0.40000000000E+01  0.51100000000E-03 0. -1.
    9000002   -1    0    0    0    0 -0.00000000000E+00 -0.00000000000E+00  0.00000000000E+00  0.93800000000E+00  0.93800000000E+00 0.  1.
         11    1    1    2    0    0  0.16871306364E-01 -0.87089950815E-01  0.87704682202E+00  0.88152180328E+00  0.51100000000E-03 0. -1.
    9000002    1    1    2    0    0 -0.71682269241E-01  0.41397766022E+00  0.11941567731E+00  0.10347076664E+01  0.93800000000E+00 0.  1.
         22    1    1    2    0    0  0.54810962878E-01 -0.32688770941E+00  0.30035374680E+01  0.30217705303E+01  0.00000000000E+00 0. -1.
</event>
<event>
 5    1  0.1560836E+002  0.1599677E+01  0.7818608E-02  0.3353715E+00
         11   -1    0    0    0    0  0.00000000000E+00  0.00000000000E+00  0.39999999674E+01  0.40000000000E+01  0.51100000000E-03 0. -1.
    9000002   -1    0    0    0    0 -0.00000000000E+00 -0.00000000000E+00  0.00000000000E+00  0.93800000000E+00  0.93800000000E+00 0.  1.
         11    1    1    2    0    0 -0.11877322624E-01 -0.11411772440E+00  0.13695485193E+01  0.13743461477E+01  0.51100000000E-03 0. -1.
    9000002    1    1    2    0    0  0.32682457169E-01  0.32554689214E+00  0.71603906675E-01  0.99600202883E+00  0.93800000000E+00 0.  1.
         22    1    1    2    0    0 -0.20805134545E-01 -0.21142916774E+00  0.25588475413E+01  0.25676518234E+01  0.00000000000E+00 0. -1.
</event>
<event>
 5    1  0.1560836E+002  0.1599630E+01  0.7818608E-02  0.3353765E+00
         11   -1    0    0    0    0  0.00000000000E+00  0.00000000000E+00  0.39999999674E+01  0.40000000000E+01  0.51100000000E-03 0.  1.
    9000002   -1    0    0    0    0 -0.00000000000E+00 -0.00000000000E+00  0.00000000000E+00  0.93800000000E+00  0.93800000000E+00 0.  1.
         11    1    1    2    0    0 -0.28978860667E-01  0.16904094592E-01  0.39420877738E+00  0.39563410377E+00  0.51100000000E-03 0.  1.
    9000002    1    1    2    0    0  0.31843889704E+00 -0.20505933130E+00  0.96544495383E-01  0.10161778880E+01  0.93800000000E+00 0.  1.
         22    1    1    2    0    0 -0.28946003638E+00  0.18815523670E+00  0.35092466946E+01  0.35261880082E+01  0.00000000000E+00 0.  1.
</event>
<event>
 5    1  0.1560836E+002  0.1599673E+01  0.7818608E-02  0.3353718E+00
         11   -1    0    0    0    0  0.00000000000E+00  0.00000000000E+00  0.39999999674E+01  0.40000000000E+01  0.51100000000E-03 0.  1.
    9000002   -1    0    0    0    0 -0.00000000000E+00 -0.00000000000E+00  0.00000000000E+00  0.93800000000E+00  0.93800000000E+00 0.  1.
         11    1    1    2    0    0  0.70162658315E-01  0.30152918112E-01  0.89074764201E+00  0.89401544727E+00  0.51100000000E-03 0.  1.
    9000002    1    1    2    0    0 -0.31622634613E+00 -0.13654578854E+00  0.79506536888E-01  0.10024016878E+01  0.93800000000E+00 0.  1.
         22    1    1    2    0    0  0.24606368782E+00  0.10639287043E+00  0.30297457885E+01  0.30415828649E+01  0.00000000000E+00 0.  1.
</event>
<event>
 5    1  0.1560836E+002  0.1490654E+01  0.7818608E-02  0.3481324E+00
         11   -1    0    0    0    0  0.00000000000E+00  0.00000000000E+00  0.39999999674E+01  0.40000000000E+01  0.51100000000E-03 0.  1.
    9000002   -1    0    0    0    0 -0.00000000000E+00 -0.00000000000E+00  0.00000000000E+00  0.93800000000E+00  0.93800000000E+00 0.  1.
         11    1    1    2    0    0 -0.25493285310E+00 -0.42212426086E+00  0.14789750304E+01  0.15590211842E+01  0.51100000000E-03 0.  1.
    9000002    1    1    2    0    0  0.54865260315E-01  0.28969944079E+00  0.14855551364E+00  0.99440872051E+00  0.93800000000E+00 0.  1.
         22    1    1    2    0    0  0.20006759278E+00  0.13242482007E+00  0.23724694233E+01  0.23845700953E+01  0.00000000000E+00 0. -1.
</event>
<event>
 5    1  0.1560836E+002  0.1599153E+01  0.7818608E-02  0.3354283E+00
         11   -1    0    0    0    0  0.00000000000E+00  0.00000000000E+00  0.39999999674E+01  0.40000000000E+01  0.51100000000E-03 0.  1.
    9000002   -1    0    0    0    0 -0.00000000000E+00 -0.00000000000E+00  0.00000000000E+00  0.93800000000E+00  0.93800000000E+00 0. -1.
         11    1    1    2    0    0  0.16869817142E-01 -0.29168394599E-01  0.38866164052E+00  0.39011987633E+00  0.51100000000E-03 0.  1.
    9000002    1    1    2    0    0 -0.32942956174E+00  0.25380010830E+00  0.11733420823E+00  0.10327389058E+01  0.93800000000E+00 0. -1.
         22    1    1    2    0    0  0.31255974460E+00 -0.22463171370E+00  0.34940041186E+01  0.35151412179E+01  0.00000000000E+00 0.  1.
</event>
<event>
 5    1  0.1560836E+002  0.1599664E+01  0.7818608E-02  0.3353729E+00
         11   -1    0    0    0    0  0.00000000000E+00  0.00000000000E+00  0.39999999674E+01  0.40000000000E+01  0.51100000000E-03 0. -1.
    9000002   -1    0    0    0    0 -0.00000000000E+00 -0.00000000000E+00  0.00000000000E+00  0.93800000000E+00  0.93800000000E+00 0.  1.
         11    1    1    2    0    0  0.14907691011E-01  0.15207369830E-01  0.32024512284E+00  0.32095280521E+00  0.51100000000E-03 0. -1.
    9000002    1    1    2    0    0 -0.15547999877E+00 -0.19345710787E+00  0.40924723971E-01  0.97114289146E+00  0.93800000000E+00 0.  1.
         22    1    1    2    0    0  0.14057230776E+00  0.17824973804E+00  0.36388301205E+01  0.36459043033E+01  0.00000000000E+00 0. -1.
</event>
<event>
 5    1  0.1560836E+002  0.1599675E+01  0.7818608E-02  0.3353716E+00
         11   -1    0    0    0    0  0.00000000000E+00  0.00000000000E+00  0.39999999674E+01  0.40000000000E+01  0.51100000000E-03 0. -1.
    9000002   -1    0    0    0    0 -0.00000000000E+00 -0.00000000000E+00  0.00000000000E+00  0.93800000000E+00  0.93800000000E+00 0. -1.
         11    1    1    2    0    0 -0.18386439111E-01  0.43594335088E-01  0.69458497263E+00  0.69619470877E+00  0.51100000000E-03 0. -1.
    9000002    1    1    2    0    0  0.10115929744E+00 -0.25338222388E+00  0.49538937065E-01  0.97812773252E+00  0.93800000000E+00 0. -1.
         22    1    1    2    0    0 -0.82772858327E-01  0.20978788879E+00  0.32558760577E+01  0.32636775587E+01  0.00000000000E+00 0. -1.
</event>
<event>
 5    1  0.1560836E+002  0.1599651E+01  0.7818608E-02  0.3353742E+00
         11   -1    0    0    0    0  0.00000000000E+00  0.00000000000E+00  0.39999999674E+01  0.40000000000E+01  0.51100000000E-03 0.  1.
    9000002   -1    0    0    0    0 -0.00000000000E+00 -0.00000000000E+00  0.00000000000E+00  0.93800000000E+00  0.93800000000E+00 0.  1.
         11    1    1    2    0    0 -0.97841728563E-03  0.96651722639E-02  0.19006943305E+00  0.19031821604E+00  0.51100000000E-03 0.  1.
    9000002    1    1    2    0    0  0.18186982274E-01 -0.25466343123E+00  0.43338728959E-01  0.97309119560E+00  0.93800000000E+00 0.  1.
         22    1    1    2    0    0 -0.17208564988E-01  0.24499825896E+00  0.37665918054E+01  0.37745905884E+01  0.00000000000E+00 0.  1.
</event>
<event>
 5    1  0.1560836E+002  0.1529386E+01  0.7818608E-02  0.3433761E+00
         11   -1    0    0    0    0  0.00000000000E+00  0.00000000000E+00  0.39999999674E+01  0.40000000000E+01  0.51100000000E-03 0.  1.
    9000002   -1    0    0    0    0 -0.00000000000E+00 -0.00000000000E+00  0.00000000000E+00  0.93800000000E+00  0.93800000000E+00 0. -1.
         11    1    1    2    0    0 -0.23593900300E+00  0.22930786048E+00  0.29154504865E+01  0.29339565621E+01  0.51100000000E-03 0.  1.
    9000002    1    1    2    0    0 -0.29133323854E-01 -0.16108698624E+00  0.71712377069E-01  0.95487404024E+00  0.93800000000E+00 0. -1.
         22    1    1    2    0    0  0.26507232686E+00 -0.68220874245E-01  0.10128371038E+01  0.10491693977E+01  0.00000000000E+00 0. -1.
</event>
<event>
 5    1  0.1560836E+002  0.1528404E+01  0.7818608E-02  0.3434936E+00
         11   -1    0    0    0    0  0.00000000000E+00  0.00000000000E+00  0.39999999674E+01  0.40000000000E+01  0.51100000000E-03 0.  1.
    9000002   -1    0    0    0    0 -0.00000000000E+00 -0.00000000000E+00  0.00000000000E+00  0.93800000000E+00  0.93800000000E+00 0.  1.
         11    1    1    2    0    0 -0.10814777979E-01  0.23295524600E+00  0.12335035893E+00  0.26381940458E+00  0.51100000000E-03 0.  1.
    9000002    1    1    2    0    0 -0.27091146905E-01  0.47996300593E+00  0.40381025837E+00  0.11287183626E+01  0.93800000000E+00 0.  1.
         22    1    1    2    0    0  0.37905924884E-01 -0.71291825193E+00  0.34728393501E+01  0.35454622328E+01  0.00000000000E+00 0.  1.
</event>
<event>
 5    1  0.1560836E+002  0.1599410E+01  0.7818608E-02  0.3354004E+00
         11   -1    0    0    0    0  0.00000000000E+00  0.00000000000E+00  0.39999999674E+01  0.40000000000E+01  0.51100000000E-03 0. -1.
    9000002   -1    0    0    0    0 -0.00000000000E+00 -0.00000000000E+00  0.00000000000E+00  0.93800000000E+00  0.93800000000E+00 0.  1.
         11    1    1    2    0    0 -0.80877851668E-02 -0.20175431617E+00  0.15632862538E+01  0.15762723080E+01  0.51100000000E-03 0. -1.
    9000002    1    1    2    0    0  0.17304717100E-01  0.53785069206E+00  0.19982008151E+00  0.10997067269E+01  0.93800000000E+00 0.  1.
         22    1    1    2    0    0 -0.92169319329E-02 -0.33609637589E+00  0.22368936320E+01  0.22620209651E+01  0.00000000000E+00 0. -1.
</event>
<event>
 5    1  0.1560836E+002  0.1597956E+01  0.7818608E-02  0.3355585E+00
         11   -1    0    0    0    0  0.00000000000E+00  0.00000000000E+00  0.39999999674E+01  0.40000000000E+01  0.51100000000E-03 0.  1.
    9000002   -1    0    0    0    0 -0.00000000000E+00 -0.00000000000E+00  0.00000000000E+00  0.93800000000E+00  0.93800000000E+00 0. -1.
         11    1    1    2    0    0 -0.27820055626E-01 -0.18966785244E-01  0.38344182913E+00  0.38491764299E+00  0.51100000000E-03 0.  1.
    9000002    1    1    2    0    0 -0.16661142375E-01  0.21852797307E+00  0.33136948066E-01  0.96383303845E+00  0.93800000000E+00 0. -1.
         22    1    1    2    0    0  0.44481198001E-01 -0.19956118783E+00  0.35834211902E+01  0.35892493186E+01  0.00000000000E+00 0.  1.
</event>
<event>
 5    1  0.1560836E+002  0.1599673E+01  0.7818608E-02  0.3353718E+00
         11   -1    0    0    0    0  0.00000000000E+00  0.00000000000E+00  0.39999999674E+01  0.40000000000E+01  0.51100000000E-03 0.  1.
    9000002   -1    0    0    0    0 -0.00000000000E+00 -0.00000000000E+00  0.00000000000E+00  0.93800000000E+00  0.93800000000E+00 0.  1.
         11    1    1    2    0    0  0.28040154423E+00  0.21847984570E+00  0.23139338946E+01  0.23410785546E+01  0.51100000000E-03 0.  1.
    9000002    1    1    2    0    0 -0.45990257887E+00 -0.35553558743E+00  0.23484713195E+00  0.11282345108E+01  0.93800000000E+00 0.  1.
         22    1    1    2    0    0  0.17950103464E+00  0.13705574174E+00  0.14512189408E+01  0.14686869346E+01  0.00000000000E+00 0.  1.
</event>
<event>
 5    1  0.1560836E+002  0.1578054E+01  0.7818608E-02  0.3377532E+00
         11   -1    0    0    0    0  0.00000000000E+00  0.00000000000E+00  0.39999999674E+01  0.40000000000E+01  0.51100000000E-03 0.  1.
    9000002   -1    0    0    0    0 -0.00000000000E+00 -0.00000000000E+00  0.00000000000E+00  0.93800000000E+00  0.93800000000E+00 0.  1.
         11    1    1    2    0    0  0.39178956344E-01 -0.70041195798E-01  0.29284553916E+01  0.29295549152E+01  0.51100000000E-03 0.  1.
    9000002    1    1    2    0    0 -0.10892375566E+00  0.29323304075E+00  0.82596413249E-01  0.99222788119E+00  0.93800000000E+00 0.  1.
         22    1    1    2    0    0  0.69744799318E-01 -0.22319184495E+00  0.98894816253E+00  0.10162172036E+01  0.00000000000E+00 0. -1.
</event>
<event>
 5    1  0.1560836E+002  0.1567334E+01  0.7818608E-02  0.3389600E+00
         11   -1    0    0    0    0  0.00000000000E+00  0.00000000000E+00  0.39999999674E+01  0.40000000000E+01  0.51100000000E-03 0.  1.
    9000002   -1    0    0    0    0 -0.00000000000E+00 -0.00000000000E+00  0.00000000000E+00  0.93800000000E+00  0.93800000000E+00 0. -1.
         11    1    1    2    0    0  0.25731573383E+00 -0.19935491449E-01  0.11279417299E+01  0.11570918796E+01  0.51100000000E-03 0.  1.
    9000002    1    1    2    0    0 -0.26850402587E+00 -0.21187099124E+00  0.10475785767E+00  0.10038933896E+01  0.93800000000E+00 0. -1.
         22    1    1    2    0    0  0.11188292038E-01  0.23180648269E+00  0.27673003798E+01  0.27770147308E+01  0.00000000000E+00 0.  1.
</event>
<event>
 5    1  0.1560836E+002  0.1599675E+01  0.7818608E-02  0.3353716E+00
         11   -1    0    0    0    0  0.00000000000E+00  0.00000000000E+00  0.39999999674E+01  0.40000000000E+01  0.51100000000E-03 0.  1.
    9000002   -1    0    0    0    0 -0.00000000000E+00 -0.00000000000E+00  0.00000000000E+00  0.93800000000E+00  0.93800000000E+00 0. -1.
         11    1    1    2    0    0 -0.83052782012E-01  0.41858836255E-05  0.92464379510E+00  0.92836640048E+00  0.51100000000E-03 0.  1.
    9000002    1    1    2    0    0  0.34868883212E+00  0.42059025014E-02  0.81524864171E-01  0.10040377955E+01  0.93800000000E+00 0. -1.
         22    1    1    2    0    0 -0.26563605011E+00 -0.42100883851E-02  0.29938313081E+01  0.30055958040E+01  0.00000000000E+00 0.  1.
</event>
<event>
 5    1  0.1560836E+002  0.1593857E+01  0.7818608E-02  0.3360058E+00
         11   -1    0    0    0    0  0.00000000000E+00  0.00000000000E+00  0.39999999674E+01  0.40000000000E+01  0.51100000000E-03 0.  1.
    9000002   -1    0    0    0    0 -0.00000000000E+00 -0.00000000000E+00  0.00000000000E+00  0.93800000000E+00  0.93800000000E+00 0. -1.
         11    1    1    2    0    0 -0.15422627982E+00  0.37974638660E-02  0.24517605845E+01  0.24566095316E+01  0.51100000000E-03 0.  1.
    9000002    1    1    2    0    0  0.35933996764E+00  0.78938019463E-01  0.95696617989E-01  0.10121058571E+01  0.93800000000E+00 0. -1.
         22    1    1    2    0    0 -0.20511368783E+00 -0.82735483329E-01  0.14525427649E+01  0.14692846113E+01  0.00000000000E+00 0. -1.
</event>
<event>
 5    1  0.1560836E+002  0.1560861E+01  0.7818608E-02  0.3396971E+00
         11   -1    0    0    0    0  0.00000000000E+00  0.00000000000E+00  0.39999999674E+01  0.40000000000E+01  0.51100000000E-03 0.  1.
    9000002   -1    0    0    0    0 -0.00000000000E+00 -0.00000000000E+00  0.00000000000E+00  0.93800000000E+00  0.93800000000E+00 0. -1.
         11    1    1    2    0    0  0.21788880198E+00  0.42440501368E-01  0.58936244161E+00  0.62978176767E+00  0.51100000000E-03 0.  1.
    9000002    1    1    2    0    0 -0.36963630905E+00  0.14049033832E+00  0.13834251914E+00  0.10273028710E+01  0.93800000000E+00 0. -1.
         22    1    1    2    0    0  0.15174750707E+00 -0.18293083969E+00  0.32722950066E+01  0.32809153614E+01  0.00000000000E+00 0.  1.
</event>
<event>
 5    1  0.1560836E+002  0.1598865E+01  0.7818608E-02  0.3354596E+00
         11   -1    0    0    0    0  0.00000000000E+00  0.00000000000E+00  0.39999999674E+01  0.40000000000E+01  0.51100000000E-03 0.  1.
    9000002   -1    0    0    0    0 -0.00000000000E+00 -0.00000000000E+00  0.00000000000E+00  0.93800000000E+00  0.93800000000E+00 0. -1.
         11    1    1    2    0    0  0.31399259914E-01  0.12394797651E+00  0.13774574455E+01  0.13833793008E+01  0.51100000000E-03 0.  1.
    9000002    1    1    2    0    0 -0.17667720911E+00 -0.32059955628E+00  0.90671350140E-01  0.10109719113E+01  0.93800000000E+00 0. -1.
         22    1    1    2    0    0  0.14527794919E+00  0.19665157977E+00  0.25318711717E+01  0.25436487879E+01  0.00000000000E+00 0.  1.
</event>
<event>
 5    1  0.1560836E+002  0.1599675E+01  0.7818608E-02  0.3353716E+00
         11   -1    0    0    0    0  0.00000000000E+00  0.00000000000E+00  0.39999999674E+01  0.40000000000E+01  0.51100000000E-03 0.  1.
    9000002   -1    0    0    0    0 -0.00000000000E+00 -0.00000000000E+00  0.00000000000E+00  0.93800000000E+00  0.93800000000E+00 0.  1.
         11    1    1    2    0    0  0.62108441461E-02  0.34949986683E-02  0.13156481605E+00  0.13175868679E+00  0.51100000000E-03 0.  1.
    9000002    1    1    2    0    0 -0.19816265887E+00 -0.10598735110E+00  0.33487870097E-01  0.96512548169E+00  0.93800000000E+00 0.  1.
         22    1    1    2    0    0  0.19195181473E+00  0.10249235243E+00  0.38349472812E+01  0.38411158315E+01  0.00000000000E+00 0.  1.
</event>
<event>
 5    1  0.1560836E+002  0.1599650E+01  0.7818608E-02  0.3353744E+00
         11   -1    0    0    0    0  0.00000000000E+00  0.00000000000E+00  0.39999999674E+01  0.40000000000E+01  0.51100000000E-03 0. -1.
    9000002   -1    0    0    0    0 -0.00000000000E+00 -0.00000000000E+00  0.00000000000E+00  0.93800000000E+00  0.93800000000E+00 0. -1.
         11    1    1    2    0    0  0.55967766783E-03  0.63956033807E-03  0.12311002751E-01  0.12350877954E-01  0.51100000000E-03 0. -1.
    9000002    1    1    2    0    0 -0.63256532282E-01 -0.30632911678E+00  0.65370496780E-01  0.99093704064E+00  0.93800000000E+00 0. -1.
         22    1    1    2    0    0  0.62696854614E-01  0.30568955644E+00  0.39223184678E+01  0.39347120814E+01  0.00000000000E+00 0. -1.
</event>
<event>
 5    1  0.1560836E+002  0.1599455E+01  0.7818608E-02  0.3353956E+00
         11   -1    0    0    0    0  0.00000000000E+00  0.00000000000E+00  0.39999999674E+01  0.40000000000E+01  0.51100000000E-03 0. -1.
    9000002   -1    0    0    0    0 -0.00000000000E+00 -0.00000000000E+00  0.00000000000E+00  0.93800000000E+00  0.93800000000E+00 0.  1.
         11    1    1    2    0    0 -0.16281952869E-02 -0.15441951240E-01  0.10591198036E+00  0.10704538095E+00  0.51100000000E-03 0. -1.
    9000002    1    1    2    0    0 -0.68131500264E-01  0.39481649508E+00  0.10846948132E+00  0.10257346609E+01  0.93800000000E+00 0.  1.
         22    1    1    2    0    0  0.69759695551E-01 -0.37937454384E+00  0.37856185057E+01  0.38052199582E+01  0.00000000000E+00 0. -1.
</event>
<event>
 5    1  0.1560836E+002  0.1591785E+01  0.7818608E-02  0.3362328E+00
         11   -1    0    0    0    0  0.00000000000E+00  0.00000000000E+00  0.39999999674E+01  0.40000000000E+01  0.51100000000E-03 0.  1.
    9000002   -1    0    0    0    0 -0.00000000000E+00 -0.00000000000E+00  0.00000000000E+00  0.93800000000E+00  0.93800000000E+00 0.  1.
         11    1    1    2    0    0 -0.86789369029E-02 -0.11813413276E+00  0.71237549488E+00  0.72215656481E+00  0.51100000000E-03 0.  1.
    9000002    1    1    2    0    0 -0.17745694809E+00  0.25550280966E+00  0.70865483286E-01  0.99077675129E+00  0.93800000000E+00 0.  1.
         22    1    1    2    0    0  0.18613588499E+00 -0.13736867690E+00  0.32167589892E+01  0.32250666839E+01  0.00000000000E+00 0.  1.
</event>
<event>
 5    1  0.1560836E+002  0.1598708E+01  0.7818608E-02  0.3354766E+00
         11   -1    0    0    0    0  0.00000000000E+00  0.00000000000E+00  0.39999999674E+01  0.40000000000E+01  0.51100000000E-03 0. -1.
    9000002   -1    0    0    0    0 -0.00000000000E+00 -0.00000000000E+00  0.00000000000E+00  0.93800000000E+00  0.93800000000E+00 0. -1.
         11    1    1    2    0    0  0.39452189182E+00 -0.20513298722E+00  0.24955835531E+01  0.25348894645E+01  0.51100000000E-03 0. -1.
    9000002    1    1    2    0    0 -0.54990120287E+00  0.34253219143E+00  0.29704007798E+00  0.11780477253E+01  0.93800000000E+00 0. -1.
         22    1    1    2    0    0  0.15537931104E+00 -0.13739920421E+00  0.12073763363E+01  0.12250628102E+01  0.00000000000E+00 0.  1.
</event>
<event>
 5    1  0.1560836E+002  0.1597088E+01  0.7818608E-02  0.3356530E+00
         11   -1    0    0    0    0  0.00000000000E+00  0.00000000000E+00  0.39999999674E+01  0.40000000000E+01  0.51100000000E-03 0. -1.
    9000002   -1    0    0    0    0 -0.00000000000E+00 -0.00000000000E+00  0.00000000000E+00  0.93800000000E+00  0.93800000000E+00 0. -1.
         11    1    1    2    0    0  0.13337225508E-01 -0.12352445042E-01  0.24167131649E+00  0.24235459727E+00  0.51100000000E-03 0. -1.
    9000002    1    1    2    0    0  0.83650912661E-01 -0.17072764554E+00  0.25851456744E-01  0.95742242608E+00  0.93800000000E+00 0. -1.
         22    1    1    2    0    0 -0.96988138169E-01  0.18308009058E+00  0.37324771941E+01  0.37382229767E+01  0.00000000000E+00 0. -1.
</event>
<event>
 5    1  0.1560836E+002  0.1596111E+01  0.7818608E-02  0.3357595E+00
         11   -1    0    0    0    0  0.00000000000E+00  0.00000000000E+00  0.39999999674E+01  0.40000000000E+01  0.51100000000E-03 0.  1.
    9000002   -1    0    0    0    0 -0.00000000000E+00 -0.00000000000E+00  0.00000000000E+00  0.93800000000E+00  0.93800000000E+00 0. -1.
         11    1    1    2    0    0  0.12549747277E-01 -0.10478412582E+00  0.80643438129E+00  0.81331044604E+00  0.51100000000E-03 0.  1.
    9000002    1    1    2    0    0  0.19174250943E+00  0.38059351011E+00  0.12596156777E+00  0.10379436046E+01  0.93800000000E+00 0. -1.
         22    1    1    2    0    0 -0.20429225671E+00 -0.27580938429E+00  0.30676040183E+01  0.30867459493E+01  0.00000000000E+00 0.  1.
</event>
<event>
 5    1  0.1560836E+002  0.1599677E+01  0.7818608E-02  0.3353714E+00
         11   -1    0    0    0    0  0.00000000000E+00  0.00000000000E+00  0.39999999674E+01  0.40000000000E+01  0.51100000000E-03 0. -1.
    9000002   -1    0    0    0    0 -0.00000000000E+00 -0.00000000000E+00  0.00000000000E+00  0.93800000000E+00  0.93800000000E+00 0. -1.
         11    1    1    2    0    0 -0.12298046493E+00  0.10293766641E+00  0.85433098321E+00  0.86925373046E+00  0.51100000000E-03 0. -1.
    9000002    1    1    2    0    0  0.52729715563E+00 -0.43981223866E+00  0.33576259699E+00  0.12099824863E+01  0.93800000000E+00 0. -1.
         22    1    1    2    0    0 -0.40431669069E+00  0.33687457224E+00  0.28099063872E+01  0.28587637832E+01  0.00000000000E+00 0.  1.
</event>
<event>
 5    1  0.1560836E+002  0.1599677E+01  0.7818608E-02  0.3353714E+00
         11   -1    0    0    0    0  0.00000000000E+00  0.00000000000E+00  0.39999999674E+01  0.40000000000E+01  0.51100000000E-03 0. -1.
    9000002   -1    0    0    0    0 -0.00000000000E+00 -0.00000000000E+00  0.00000000000E+00  0.93800000000E+00  0.93800000000E+00 0. -1.
         11    1    1    2    0    0 -0.25462314066E+00  0.25969969676E+00  0.19165886129E+01  0.19507919029E+01  0.51100000000E-03 0. -1.
    9000002    1    1    2    0    0  0.48703905165E+00 -0.49454127041E+00  0.34377295014E+00  0.12164711041E+01  0.93800000000E+00 0. -1.
         22    1    1    2    0    0 -0.23241591098E+00  0.23484157366E+00  0.17396384044E+01  0.17707369930E+01  0.00000000000E+00 0.  1.
</event>
<event>
 5    1  0.1560836E+002  0.1599670E+01  0.7818608E-02  0.3353722E+00
         11   -1    0    0    0    0  0.00000000000E+00  0.00000000000E+00  0.39999999674E+01  0.40000000000E+01  0.51100000000E-03 0.  1.
    9000002   -1    0    0    0    0 -0.00000000000E+00 -0.00000000000E+00  0.00000000000E+00  0.93800000000E+00  0.93800000000E+00 0. -1.
         11    1    1    2    0    0 -0.10442262560E+00  0.17115148281E-01  0.12550175338E+01  0.12594706366E+01  0.51100000000E-03 0.  1.
    9000002    1    1    2    0    0  0.32469183984E+00 -0.62772289211E-01  0.73185112163E-01  0.99727890372E+00  0.93800000000E+00 0. -1.
         22    1    1    2    0    0 -0.22026921424E+00  0.45657140929E-01  0.26717973214E+01  0.26812504597E+01  0.00000000000E+00 0. -1.
</event>
<event>
 5    1  0.1560836E+002  0.1599677E+01  0.7818608E-02  0.3353714E+00
         11   -1    0    0    0    0  0.00000000000E+00  0.00000000000E+00  0.39999999674E+01  0.40000000000E+01  0.51100000000E-03 0.  1.
    9000002   -1    0    0    0    0 -0.00000000000E+00 -0.00000000000E+00  0.00000000000E+00  0.93800000000E+00  0.93800000000E+00 0.  1.
         11    1    1    2    0    0  0.28013990393E+00  0.46534755920E+00  0.23578904582E+01  0.24196434429E+01  0.51100000000E-03 0.  1.
    9000002    1    1    2    0    0 -0.41789483955E+00 -0.69347838006E+00  0.48449275553E+00  0.13304606686E+01  0.93800000000E+00 0.  1.
         22    1    1    2    0    0  0.13775493562E+00  0.22813082086E+00  0.11576167536E+01  0.11878958885E+01  0.00000000000E+00 0.  1.
</event>
<event>
 5    1  0.1560836E+002  0.1552624E+01  0.7818608E-02  0.3406446E+00
         11   -1    0    0    0    0  0.00000000000E+00  0.00000000000E+00  0.39999999674E+01  0.40000000000E+01  0.51100000000E-03 0.  1.
    9000002   -1    0    0    0    0 -0.00000000000E+00 -0.00000000000E+00  0.00000000000E+00  0.93800000000E+00  0.93800000000E+00 0. -1.
         11    1    1    2    0    0 -0.36736400668E-01 -0.19550856030E+00  0.27724802975E+01  0.27796079619E+01  0.51100000000E-03 0.  1.
    9000002    1    1    2    0    0 -0.17886508823E+00  0.28248264197E-01  0.57581354380E-01  0.95705292256E+00  0.93800000000E+00 0. -1.
         22    1    1    2    0    0  0.21560148890E+00  0.16726029610E+00  0.11699383154E+01  0.12013391156E+01  0.00000000000E+00 0.  1.
</event>
<event>
 5    1  0.1560836E+002  0.1569013E+01  0.7818608E-02  0.3387698E+00
         11   -1    0    0    0    0  0.00000000000E+00  0.00000000000E+00  0.39999999674E+01  0.40000000000E+01  0.51100000000E-03 0. -1.
    9000002   -1    0    0    0    0 -0.00000000000E+00 -0.00000000000E+00  0.00000000000E+00  0.93800000000E+00  0.93800000000E+00 0. -1.
         11    1    1    2    0    0  0.21649721852E-01  0.95661880531E-01  0.27615132907E+01  0.27632545706E+01  0.51100000000E-03 0. -1.
    9000002    1    1    2    0    0 -0.29035153815E+00 -0.46718910584E-01  0.81988955337E-01  0.98643441805E+00  0.93800000000E+00 0. -1.
         22    1    1    2    0    0  0.26870181630E+00 -0.48942969947E-01  0.11564977213E+01  0.11883110114E+01  0.00000000000E+00 0. -1.
</event>
<event>
 5    1  0.1560836E+002  0.1599665E+01  0.7818608E-02  0.3353727E+00
         11   -1    0    0    0    0  0.00000000000E+00  0.00000000000E+00  0.39999999674E+01  0.40000000000E+01  0.51100000000E-03 0.  1.
    9000002   -1    0    0    0    0 -0.00000000000E+00 -0.00000000000E+00  0.00000000000E+00  0.93800000000E+00  0.93800000000E+00 0. -1.
         11    1    1    2    0    0 -0.44071612420E-01  0.27775148190E-01  0.50201153427E+00  0.50470744747E+00  0.51100000000E-03 0.  1.
    9000002    1    1    2    0    0  0.33066174888E+00 -0.23373934238E+00  0.11068249507E+00  0.10276506639E+01  0.93800000000E+00 0. -1.
         22    1    1    2    0    0 -0.28659013646E+00  0.20596419419E+00  0.33873059380E+01  0.34056418886E+01  0.00000000000E+00 0.  1.
</event>
<event>
 5    1  0.1560836E+002  0.1591460E+01  0.7818608E-02  0.3362685E+00
         11   -1    0    0    0    0  0.00000000000E+00  0.00000000000E+00  0.39999999674E+01  0.40000000000E+01  0.51100000000E-03 0.  1.
    9000002   -1    0    0    0    0 -0.00000000000E+00 -0.00000000000E+00  0.00000000000E+00  0.93800000000E+00  0.93800000000E+00 0.  1.
         11    1    1    2    0    0 -0.46666822678E-01  0.13622553258E-01  0.24593685729E+00  0.25069616110E+00  0.51100000000E-03 0.  1.
    9000002    1    1    2    0    0 -0.95535369399E-01 -0.31333122590E+00  0.78334515356E-01  0.99663622261E+00  0.93800000000E+00 0.  1.
         22    1    1    2    0    0  0.14220219208E+00  0.29970867264E+00  0.36757285947E+01  0.36906676163E+01  0.00000000000E+00 0.  1.
</event>
<event>
 5    1  0.1560836E+002  0.1586342E+01  0.7818608E-02  0.3368323E+00
         11   -1    0    0    0    0  0.00000000000E+00  0.00000000000E+00  0.39999999674E+01  0.40000000000E+01  0.51100000000E-03 0.  1.
    9000002   -1    0    0    0    0 -0.00000000000E+00 -0.00000000000E+00  0.00000000000E+00  0.93800000000E+00  0.93800000000E+00 0. -1.
         11    1    1    2    0    0 -0.63909068473E-01  0.48029398935E-01  0.16827785944E+01  0.16846766013E+01  0.51100000000E-03 0.  1.
    9000002    1    1    2    0    0  0.12343315192E-01  0.17971015339E+00  0.31451442967E-01  0.95565751707E+00  0.93800000000E+00 0. -1.
         22    1    1    2    0    0  0.51565753281E-01 -0.22773955232E+00  0.22857699300E+01  0.22976658816E+01  0.00000000000E+00 0.  1.
</event>
<event>
 5    1  0.1560836E+002  0.1599676E+01  0.7818608E-02  0.3353715E+00
         11   -1    0    0    0    0  0.00000000000E+00  0.00000000000E+00  0.39999999674E+01  0.40000000000E+01  0.51100000000E-03 0.  1.
    9000002   -1    0    0    0    0 -0.00000000000E+00 -0.00000000000E+00  0.00000000000E+00  0.93800000000E+00  0.93800000000E+00 0.  1.
         11    1    1    2    0    0  0.19708027713E+00  0.18509675385E+00  0.20552419540E+01  0.20729498775E+01  0.51100000000E-03 0.  1.
    9000002    1    1    2    0    0 -0.36731777225E+00 -0.34278959222E+00  0.17287157178E+00  0.10780332234E+01  0.93800000000E+00 0.  1.
         22    1    1    2    0    0  0.17023749512E+00  0.15769283837E+00  0.17718864416E+01  0.17870168992E+01  0.00000000000E+00 0. -1.
</event>
<event>
 5    1  0.1560836E+002  0.1597052E+01  0.7818608E-02  0.3356570E+00
         11   -1    0    0    0    0  0.00000000000E+00  0.00000000000E+00  0.39999999674E+01  0.40000000000E+01  0.51100000000E-03 0.  1.
    9000002   -1    0    0    0    0 -0.00000000000E+00 -0.00000000000E+00  0.00000000000E+00  0.93800000000E+00  0.93800000000E+00 0. -1.
         11    1    1    2    0    0  0.15917618796E-02  0.34853188198E-02  0.98064801579E+00  0.98065563433E+00  0.51100000000E-03 0.  1.
    9000002    1    1    2    0    0 -0.20919461843E+00  0.58337122430E-01  0.33240836286E-01  0.96338702577E+00  0.93800000000E+00 0. -1.
         22    1    1    2    0    0  0.20760285655E+00 -0.61822441250E-01  0.29861111153E+01  0.29939573399E+01  0.00000000000E+00 0.  1.
</event>
<event>
 5    1  0.1560836E+002  0.1599675E+01  0.7818608E-02  0.3353716E+00
         11   -1    0    0    0    0  0.00000000000E+00  0.00000000000E+00  0.39999999674E+01  0.40000000000E+01  0.51100000000E-03 0.  1.
    9000002   -1    0    0    0    0 -0.00000000000E+00 -0.00000000000E+00  0.00000000000E+00  0.93800000000E+00  0.93800000000E+00 0. -1.
         11    1    1    2    0    0 -0.19741646369E+00  0.10806985742E+00  0.11947556426E+01  0.12157687531E+01  0.51100000000E-03 0.  1.
    9000002    1    1    2    0    0  0.60848971618E+00 -0.32861410514E+00  0.34102469196E+00  0.12142441292E+01  0.93800000000E+00 0. -1.
         22    1    1    2    0    0 -0.41107325250E+00  0.22054424772E+00  0.24642196328E+01  0.25079871177E+01  0.00000000000E+00 0. -1.
</event>
<event>
 5    1  0.1560836E+002  0.1593253E+01  0.7818608E-02  0.3360719E+00
         11   -1    0    0    0    0  0.00000000000E+00  0.00000000000E+00  0.39999999674E+01  0.40000000000E+01  0.51100000000E-03 0. -1.
    9000002   -1    0    0    0    0 -0.00000000000E+00 -0.00000000000E+00  0.00000000000E+00  0.93800000000E+00  0.93800000000E+00 0.  1.
         11    1    1    2    0    0 -0.41862525725E-02 -0.22118237312E-01  0.78633843516E-01  0.81794153822E-01  0.51100000000E-03 0. -1.
    9000002    1    1    2    0    0 -0.71228244723E-01 -0.21949131088E+00  0.40208890509E-01  0.96680435108E+00  0.93800000000E+00 0.  1.
         22    1    1    2    0    0  0.75414497295E-01  0.24160954819E+00  0.38811572333E+01  0.38894014951E+01  0.00000000000E+00 0. -1.
</event>
<event>
 5    1  0.1560836E+002  0.1599640E+01  0.7818608E-02  0.3353755E+00
         11   -1    0    0    0    0  0.00000000000E+00  0.00000000000E+00  0.39999999674E+01  0.40000000000E+01  0.51100000000E-03 0.  1.
    9000002   -1    0    0    0    0 -0.00000000000E+00 -0.00000000000E+00  0.00000000000E+00  0.93800000000E+00  0.93800000000E+00 0.  1.
         11    1    1    2    0    0  0.23746217161E-01 -0.61570497113E-01  0.77730514126E+00  0.78010150154E+00  0.51100000000E-03 0.  1.
    9000002    1    1    2    0    0 -0.12237246910E+00  0.28218581672E+00  0.63185940047E-01  0.98916142230E+00  0.93800000000E+00 0.  1.
         22    1    1    2    0    0  0.98626251934E-01 -0.22061531961E+00  0.31595088861E+01  0.31687370762E+01  0.00000000000E+00 0.  1.
</event>
<event>
 5    1  0.1560836E+002  0.1585939E+01  0.7818608E-02  0.3368767E+00
         11   -1    0    0    0    0  0.00000000000E+00  0.00000000000E+00  0.39999999674E+01  0.40000000000E+01  0.51100000000E-03 0. -1.
    9000002   -1    0    0    0    0 -0.00000000000E+00 -0.00000000000E+00  0.00000000000E+00  0.93800000000E+00  0.93800000000E+00 0. -1.
         11    1    1    2    0    0 -0.10762733496E+00 -0.20219111191E-01  0.13317800257E+01  0.13362749544E+01  0.51100000000E-03 0. -1.
    9000002    1    1    2    0    0 -0.76756130001E-02 -0.16261050387E+00  0.27753345420E-01  0.95242602820E+00  0.93800000000E+00 0. -1.
         22    1    1    2    0    0  0.11530294796E+00  0.18282961506E+00  0.26404665962E+01  0.26492990174E+01  0.00000000000E+00 0. -1.
</event>
<event>
 5    1  0.1560836E+002  0.1539530E+01  0.7818608E-02  0.3421729E+00
         11   -1    0    0    0    0  0.00000000000E+00  0.00000000000E+00  0.39999999674E+01  0.40000000000E+01  0.51100000000E-03 0.  1.
    9000002   -1    0    0    0    0 -0.00000000000E+00 -0.00000000000E+00  0.00000000000E+00  0.93800000000E+00  0.93800000000E+00 0. -1.
         11    1    1    2    0    0 -0.29520680759E-02  0.29794269280E+00  0.12539182560E+01  0.12888327342E+01  0.51100000000E-03 0.  1.
    9000002    1    1    2    0    0 -0.25641727174E+00 -0.10971910411E+00  0.99924688279E-01  0.98367527283E+00  0.93800000000E+00 0. -1.
         22    1    1    2    0    0  0.25936933981E+00 -0.18822358869E+00  0.26461570231E+01  0.26654919930E+01  0.00000000000E+00 0.  1.
</event>
<event>
 5    1  0.1560836E+002  0.1598967E+01  0.7818608E-02  0.3354486E+00
         11   -1    0    0    0    0  0.00000000000E+00  0.00000000000E+00  0.39999999674E+01  0.40000000000E+01  0.51100000000E-03 0. -1.
    9000002   -1    0    0    0    0 -0.00000000000E+00 -0.00000000000E+00  0.00000000000E+00  0.93800000000E+00  0.93800000000E+00 0.  1.
         11    1    1    2    0    0 -0.33833565053E+00 -0.21148453769E+00  0.21979296576E+01  0.22338513297E+01  0.51100000000E-03 0. -1.
    9000002    1    1    2    0    0  0.56553344624E+00  0.30375123164E+00  0.29097712548E+00  0.11732879344E+01  0.93800000000E+00 0.  1.
         22    1    1    2    0    0 -0.22719779572E+00 -0.92266693947E-01  0.15110931842E+01  0.15308607359E+01  0.00000000000E+00 0. -1.
</event>
<event>
 5    1  0.1560836E+002  0.1599189E+01  0.7818608E-02  0.3354244E+00
         11   -1    0    0    0    0  0.00000000000E+00  0.00000000000E+00  0.39999999674E+01  0.40000000000E+01  0.51100000000E-03 0.  1.
    9000002   -1    0    0    0    0 -0.00000000000E+00 -0.00000000000E+00  0.00000000000E+00  0.93800000000E+00  0.93800000000E+00 0.  1.
         11    1    1    2    0    0 -0.17891806180E-01  0.20449740656E-01  0.26692034489E+00  0.26830028001E+00  0.51100000000E-03 0.  1.
    9000002    1    1    2    0    0  0.24842388615E+00 -0.10575770469E+00  0.48879742739E-01  0.97730872735E+00  0.93800000000E+00 0.  1.
         22    1    1    2    0    0 -0.23053207997E+00  0.85307964033E-01  0.36841998797E+01  0.36923909926E+01  0.00000000000E+00 0.  1.
</event>
<event>
 5    1  0.1560836E+002  0.1599087E+01  0.7818608E-02  0.3354355E+00
         11   -1    0    0    0    0  0.00000000000E+00  0.00000000000E+00  0.39999999674E+01  0.40000000000E+01  0.51100000000E-03 0.  1.
    9000002   -1    0    0    0    0 -0.00000000000E+00 -0.00000000000E+00  0.00000000000E+00  0.93800000000E+00  0.93800000000E+00 0. -1.
         11    1    1    2    0    0  0.11397835726E-01 -0.10014663460E-01  0.54473036971E+00  0.54494186933E+00  0.51100000000E-03 0.  1.
    9000002    1    1    2    0    0 -0.22723626824E+00  0.47347319377E-01  0.36191260582E-01  0.96697047400E+00  0.93800000000E+00 0. -1.
         22    1    1    2    0    0  0.21583843251E+00 -0.37332655917E-01  0.34190783371E+01  0.34260876567E+01  0.00000000000E+00 0.  1.
</event>
<event>
 5    1  0.1560836E+002  0.1599675E+01  0.7818608E-02  0.3353716E+00
         11   -1    0    0    0    0  0.00000000000E+00  0.00000000000E+00  0.39999999674E+01  0.40000000000E+01  0.51100000000E-03 0.  1.
    9000002   -1    0    0    0    0 -0.00000000000E+00 -0.00000000000E+00  0.00000000000E+00  0.93800000000E+00  0.93800000000E+00 0.  1.
         11    1    1    2    0    0 -0.25465329783E-01 -0.54601640188E-01  0.80422418952E+00  0.80647791678E+00  0.51100000000E-03 0.  1.
    9000002    1    1    2    0    0  0.12781943144E+00  0.27317955394E+00  0.60694384970E-01  0.98716396010E+00  0.93800000000E+00 0.  1.
         22    1    1    2    0    0 -0.10235410166E+00 -0.21857791375E+00  0.31350813929E+01  0.31443581231E+01  0.00000000000E+00 0.  1.
</event>
<event>
 5    1  0.1560836E+002  0.1599674E+01  0.7818608E-02  0.3353717E+00
         11   -1    0    0    0    0  0.00000000000E+00  0.00000000000E+00  0.39999999674E+01  0.40000000000E+01  0.51100000000E-03 0.  1.
    9000002   -1    0    0    0    0 -0.00000000000E+00 -0.00000000000E+00  0.00000000000E+00  0.93800000000E+00  0.93800000000E+00 0. -1.
         11    1    1    2    0    0  0.58484905295E-01 -0.46065237285E-01  0.76936368476E+00  0.77295745729E+00  0.51100000000E-03 0.  1.
    9000002    1    1    2    0    0 -0.29985548454E+00  0.24090139124E+00  0.99603195247E-01  0.10186812987E+01  0.93800000000E+00 0. -1.
         22    1    1    2    0    0  0.24137057925E+00 -0.19483615395E+00  0.31310330874E+01  0.31463612440E+01  0.00000000000E+00 0.  1.
</event>
<event>
 5    1  0.1560836E+002  0.1544772E+01  0.7818608E-02  0.3415578E+00
         11   -1    0    0    0    0  0.00000000000E+00  0.00000000000E+00  0.39999999674E+01  0.40000000000E+01  0.51100000000E-03 0. -1.
    9000002   -1    0    0    0    0 -0.00000000000E+00 -0.00000000000E+00  0.00000000000E+00  0.93800000000E+00  0.93800000000E+00 0.  1.
         11    1    1    2    0    0 -0.23063628943E+00  0.21554621260E+00  0.32441868256E+01  0.32595094244E+01  0.51100000000E-03 0. -1.
    9000002    1    1    2    0    0  0.19858345648E+00 -0.13174829613E-01  0.68542480361E-01  0.96132774689E+00  0.93800000000E+00 0.  1.
         22    1    1    2    0    0  0.32052832955E-01 -0.20237138298E+00  0.68727066144E+00  0.71716282867E+00  0.00000000000E+00 0. -1.
</event>
<event>
 5    1  0.1560836E+002  0.1598460E+01  0.7818608E-02  0.3355036E+00
         11   -1    0    0    0    0  0.00000000000E+00  0.00000000000E+00  0.39999999674E+01  0.40000000000E+01  0.51100000000E-03 0.  1.
    9000002   -1    0    0    0    0 -0.00000000000E+00 -0.00000000000E+00  0.00000000000E+00  0.93800000000E+00  0.93800000000E+00 0. -1.
         11    1    1    2    0    0 -0.39881982426E+00 -0.19774162512E+00  0.23949003237E+01  0.24359201186E+01  0.51100000000E-03 0.  1.
    9000002    1    1    2    0    0  0.60079573496E+00  0.36170067678E+00  0.35295190923E+00  0.12231933392E+01  0.93800000000E+00 0. -1.
         22    1    1    2    0    0 -0.20197591071E+00 -0.16395905167E+00  0.12521477344E+01  0.12788865423E+01  0.00000000000E+00 0.  1.
</event>
<event>
 5    1  0.1560836E+002  0.1599610E+01  0.7818608E-02  0.3353787E+00
         11   -1    0    0    0    0  0.00000000000E+00  0.00000000000E+00  0.39999999674E+01  0.40000000000E+01  0.51100000000E-03 0. -1.
    9000002   -1    0    0    0    0 -0.00000000000E+00 -0.00000000000E+00  0.00000000000E+00  0.93800000000E+00  0.93800000000E+00 0. -1.
         11    1    1    2    0    0  0.10237353967E+00  0.18177940535E+00  0.13928098163E+01  0.14083478048E+01  0.51100000000E-03 0. -1.
    9000002    1    1    2    0    0 -0.29385172276E+00 -0.50978584778E+00  0.24104114106E+00  0.11332145769E+01  0.93800000000E+00 0. -1.
         22    1    1    2    0    0  0.19147818309E+00  0.32800644244E+00  0.23661490101E+01  0.23964376184E+01  0.00000000000E+00 0. -1.
</event>
<event>
 5    1  0.1560836E+002  0.1599652E+01  0.7818608E-02  0.3353741E+00
         11   -1    0    0    0    0  0.00000000000E+00  0.00000000000E+00  0.39999999674E+01  0.40000000000E+01  0.51100000000E-03 0. -1.
    9000002   -1    0    0    0    0 -0.00000000000E+00 -0.00000000000E+00  0.00000000000E+00  0.93800000000E+00  0.93800000000E+00 0.  1.
         11    1    1    2    0    0 -0.93581863791E-01  0.13733247933E+00  0.17080934676E+01  0.17161588885E+01  0.51100000000E-03 0. -1.
    9000002    1    1    2    0    0  0.20183833065E+00 -0.32031256258E+00  0.96448371120E-01  0.10161127584E+01  0.93800000000E+00 0.  1.
         22    1    1    2    0    0 -0.10825646686E+00  0.18298008325E+00  0.21954581286E+01  0.22057283531E+01  0.00000000000E+00 0. -1.
</event>
<event>
 5    1  0.1560836E+002  0.1599189E+01  0.7818608E-02  0.3354244E+00
         11   -1    0    0    0    0  0.00000000000E+00  0.00000000000E+00  0.39999999674E+01  0.40000000000E+01  0.51100000000E-03 0.  1.
    9000002   -1    0    0    0    0 -0.00000000000E+00 -0.00000000000E+00  0.00000000000E+00  0.93800000000E+00  0.93800000000E+00 0.  1.
         11    1    1    2    0    0 -0.51351918113E+00  0.16988375837E+00  0.21354557209E+01  0.22028921530E+01  0.51100000000E-03 0.  1.
    9000002    1    1    2    0    0  0.84428364475E+00 -0.23732637625E+00  0.58376615365E+00  0.14105905160E+01  0.93800000000E+00 0.  1.
         22    1    1    2    0    0 -0.33076446361E+00  0.67442617882E-01  0.12807780929E+01  0.13245173310E+01  0.00000000000E+00 0.  1.
</event>
<event>
 5    1  0.1560836E+002  0.1599637E+01  0.7818608E-02  0.3353758E+00
         11   -1    0    0    0    0  0.00000000000E+00  0.00000000000E+00  0.39999999674E+01  0.40000000000E+01  0.51100000000E-03 0.  1.
    9000002   -1    0    0    0    0 -0.00000000000E+00 -0.00000000000E+00  0.00000000000E+00  0.93800000000E+00  0.93800000000E+00 0.  1.
         11    1    1    2    0    0 -0.90976160354E-01 -0.69841175608E-01  0.89134052023E+00  0.89868939889E+00  0.51100000000E-03 0.  1.
    9000002    1    1    2    0    0  0.39903934436E+00  0.32540312723E+00  0.18198917636E+00  0.10853956209E+01  0.93800000000E+00 0.  1.
         22    1    1    2    0    0 -0.30806318401E+00 -0.25556195162E+00  0.29266702708E+01  0.29539149802E+01  0.00000000000E+00 0.  1.
</event>
<event>
 5    1  0.1560836E+002  0.1599670E+01  0.7818608E-02  0.3353721E+00
         11   -1    0    0    0    0  0.00000000000E+00  0.00000000000E+00  0.39999999674E+01  0.40000000000E+01  0.51100000000E-03 0. -1.
    9000002   -1    0    0    0    0 -0.00000000000E+00 -0.00000000000E+00  0.00000000000E+00  0.93800000000E+00  0.93800000000E+00 0. -1.
         11    1    1    2    0    0  0.46716569342E-01 -0.34126085322E-01  0.73216491167E+00  0.73444723878E+00  0.51100000000E-03 0. -1.
    9000002    1    1    2    0    0 -0.23973475507E+00  0.17770718854E+00  0.59404706137E-01  0.98611638094E+00  0.93800000000E+00 0. -1.
         22    1    1    2    0    0  0.19301818573E+00 -0.14358110321E+00  0.32084303496E+01  0.32174363803E+01  0.00000000000E+00 0. -1.
</event>
<event>
 5    1  0.1560836E+002  0.1583333E+01  0.7818608E-02  0.3371654E+00
         11   -1    0    0    0    0  0.00000000000E+00  0.00000000000E+00  0.39999999674E+01  0.40000000000E+01  0.51100000000E-03 0.  1.
    9000002   -1    0    0    0    0 -0.00000000000E+00 -0.00000000000E+00  0.00000000000E+00  0.93800000000E+00  0.93800000000E+00 0.  1.
         11    1    1    2    0    0 -0.23617098683E-01 -0.30649938969E-01  0.63016388510E-01  0.73949391146E-01  0.51100000000E-03 0.  1.
    9000002    1    1    2    0    0 -0.32934346833E+00  0.17046327865E+00  0.10588722063E+00  0.10141898013E+01  0.93800000000E+00 0.  1.
         22    1    1    2    0    0  0.35296056702E+00 -0.13981333968E+00  0.38310963582E+01  0.38498608076E+01  0.00000000000E+00 0.  1.
</event>
<event>
 5    1  0.1560836E+002  0.1598011E+01  0.7818608E-02  0.3355525E+00
         11   -1    0    0    0    0  0.00000000000E+00  0.00000000000E+00  0.39999999674E+01  0.40000000000E+01  0.51100000000E-03 0.  1.
    9000002   -1    0    0    0    0 -0.00000000000E+00 -0.00000000000E+00  0.00000000000E+00  0.93800000000E+00  0.93800000000E+00 0.  1.
         11    1    1    2    0    0 -0.12466914784E-01  0.44864380692E-01  0.43611751030E+00  0.43859660342E+00  0.51100000000E-03 0.  1.
    9000002    1    1    2    0    0 -0.93215514684E-01 -0.21900184458E+00  0.38866470955E-01  0.96850686248E+00  0.93800000000E+00 0.  1.
         22    1    1    2    0    0  0.10568242947E+00  0.17413746389E+00  0.35250159861E+01  0.35308965341E+01  0.00000000000E+00 0.  1.
</event>
<event>
 5    1  0.1560836E+002  0.1598896E+01  0.7818608E-02  0.3354563E+00
         11   -1    0    0    0    0  0.00000000000E+00  0.00000000000E+00  0.39999999674E+01  0.40000000000E+01  0.51100000000E-03 0.  1.
    9000002   -1    0    0    0    0 -0.00000000000E+00 -0.00000000000E+00  0.00000000000E+00  0.93800000000E+00  0.93800000000E+00 0. -1.
         11    1    1    2    0    0 -0.43013099017E-01  0.43252934008E-01  0.12724308194E+01  0.12738922224E+01  0.51100000000E-03 0.  1.
    9000002    1    1    2    0    0  0.22448175995E+00 -0.16953985421E+00  0.53309765295E-01  0.98072511632E+00  0.93800000000E+00 0. -1.
         22    1    1    2    0    0 -0.18146866093E+00  0.12628692020E+00  0.26742593826E+01  0.26833826612E+01  0.00000000000E+00 0.  1.
</event>
<event>
 5    1  0.1560836E+002  0.1599314E+01  0.7818608E-02  0.3354109E+00
         11   -1    0    0    0    0  0.00000000000E+00  0.00000000000E+00  0.39999999674E+01  0.40000000000E+01  0.51100000000E-03 0. -1.
    9000002   -1    0    0    0    0 -0.00000000000E+00 -0.00000000000E+00  0.00000000000E+00  0.93800000000E+00  0.93800000000E+00 0.  1.
         11    1    1    2    0    0  0.12272565307E-01 -0.11707739396E-01  0.21306017368E+00  0.21373484917E+00  0.51100000000E-03 0. -1.
    9000002    1    1    2    0    0 -0.42733474027E-01  0.26889323255E+00  0.49612179581E-01  0.97797499389E+00  0.93800000000E+00 0.  1.
         22    1    1    2    0    0  0.30460908719E-01 -0.25718549316E+00  0.37373276141E+01  0.37462901569E+01  0.00000000000E+00 0. -1.
</event>
<event>
 5    1  0.1560836E+002  0.1599307E+01  0.7818608E-02  0.3354116E+00
         11   -1    0    0    0    0  0.00000000000E+00  0.00000000000E+00  0.39999999674E+01  0.40000000000E+01  0.51100000000E-03 0.  1.
    9000002   -1    0    0    0    0 -0.00000000000E+00 -0.00000000000E+00  0.00000000000E+00  0.93800000000E+00  0.93800000000E+00 0.  1.
         11    1    1    2    0    0 -0.42310909427E+00 -0.54026664362E+00  0.15713196992E+01  0.17146297589E+01  0.51100000000E-03 0.  1.
    9000002    1    1    2    0    0  0.75938569511E+00  0.90727510483E+00  0.13099870926E+01  0.19989309474E+01  0.93800000000E+00 0.  1.
         22    1    1    2    0    0 -0.33627660083E+00 -0.36700846121E+00  0.11186931756E+01  0.12244392937E+01  0.00000000000E+00 0.  1.
</event>
<event>
 5    1  0.1560836E+002  0.1599677E+01  0.7818608E-02  0.3353714E+00
         11   -1    0    0    0    0  0.00000000000E+00  0.00000000000E+00  0.39999999674E+01  0.40000000000E+01  0.51100000000E-03 0.  1.
    9000002   -1    0    0    0    0 -0.00000000000E+00 -0.00000000000E+00  0.00000000000E+00  0.93800000000E+00  0.93800000000E+00 0.  1.
         11    1    1    2    0    0 -0.77471619625E-01  0.27727580388E+00  0.19575504627E+01  0.19786075403E+01  0.51100000000E-03 0.  1.
    9000002    1    1    2    0    0  0.14945840674E+00 -0.53628806814E+00  0.21435341285E+00  0.11116357735E+01  0.93800000000E+00 0.  1.
         22    1    1    2    0    0 -0.71986787120E-01  0.25901226426E+00  0.18280960918E+01  0.18477566862E+01  0.00000000000E+00 0. -1.
</event>
<event>
 5    1  0.1560836E+002  0.1599676E+01  0.7818608E-02  0.3353715E+00
         11   -1    0    0    0    0  0.00000000000E+00  0.00000000000E+00  0.39999999674E+01  0.40000000000E+01  0.51100000000E-03 0. -1.
    9000002   -1    0    0    0    0 -0.00000000000E+00 -0.00000000000E+00  0.00000000000E+00  0.93800000000E+00  0.93800000000E+00 0.  1.
         11    1    1    2    0    0  0.21985956799E-01  0.11998063212E-01  0.31599176965E+00  0.31698327310E+00  0.51100000000E-03 0.  1.
    9000002    1    1    2    0    0 -0.26871132671E+00 -0.14805043037E+00  0.62832647963E-01  0.98889668251E+00  0.93800000000E+00 0.  1.
         22    1    1    2    0    0  0.24672536991E+00  0.13605236716E+00  0.36211755497E+01  0.36321200444E+01  0.00000000000E+00 0. -1.
</event>
<event>
 5    1  0.1560836E+002  0.1597584E+01  0.7818608E-02  0.3355990E+00
         11   -1    0    0    0    0  0.00000000000E+00  0.00000000000E+00  0.39999999674E+01  0.40000000000E+01  0.51100000000E-03 0.  1.
    9000002   -1    0    0    0    0 -0.00000000000E+00 -0.00000000000E+00  0.00000000000E+00  0.93800000000E+00  0.93800000000E+00 0.  1.
         11    1    1    2    0    0 -0.36954589487E-02  0.28865772155E-01  0.70606906850E+00  0.70666872000E+00  0.51100000000E-03 0.  1.
    9000002    1    1    2    0    0  0.12277616671E+00 -0.37040804141E+00  0.10431792874E+00  0.10212748575E+01  0.93800000000E+00 0.  1.
         22    1    1    2    0    0 -0.11908070776E+00  0.34154226925E+00  0.31896129701E+01  0.32100564225E+01  0.00000000000E+00 0.  1.
</event>
<event>
 5    1  0.1560836E+002  0.1598463E+01  0.7818608E-02  0.3355033E+00
         11   -1    0    0    0    0  0.00000000000E+00  0.00000000000E+00  0.39999999674E+01  0.40000000000E+01  0.51100000000E-03 0.  1.
    9000002   -1    0    0    0    0 -0.00000000000E+00 -0.00000000000E+00  0.00000000000E+00  0.93800000000E+00  0.93800000000E+00 0.  1.
         11    1    1    2    0    0 -0.12536414425E+00 -0.85939048619E-01  0.19269968787E+01  0.19329818727E+01  0.51100000000E-03 0.  1.
    9000002    1    1    2    0    0  0.33771356532E+00  0.15780454850E+00  0.94404384626E-01  0.10137597918E+01  0.93800000000E+00 0.  1.
         22    1    1    2    0    0 -0.21234942108E+00 -0.71865499876E-01  0.19785987041E+01  0.19912583354E+01  0.00000000000E+00 0.  1.
</event>
<event>
 5    1  0.1560836E+002  0.1595243E+01  0.7818608E-02  0.3358543E+00
         11   -1    0    0    0    0  0.00000000000E+00  0.00000000000E+00  0.39999999674E+01  0.40000000000E+01  0.51100000000E-03 0.  1.
    9000002   -1    0    0    0    0 -0.00000000000E+00 -0.00000000000E+00  0.00000000000E+00  0.93800000000E+00  0.93800000000E+00 0. -1.
         11    1    1    2    0    0 -0.33827952346E-01  0.66624620908E-03  0.35849696998E+00  0.36009042316E+00  0.51100000000E-03 0.  1.
    9000002    1    1    2    0    0 -0.94065356407E-01 -0.20534378324E+00  0.37191502215E-01  0.96552657572E+00  0.93800000000E+00 0. -1.
         22    1    1    2    0    0  0.12789330875E+00  0.20467753703E+00  0.36043114952E+01  0.36123830011E+01  0.00000000000E+00 0.  1.
</event>
<event>
 5    1  0.1560836E+002  0.1382313E+01  0.7818608E-02  0.3635648E+00
         11   -1    0    0    0    0  0.00000000000E+00  0.00000000000E+00  0.39999999674E+01  0.40000000000E+01  0.51100000000E-03 0. -1.
    9000002   -1    0    0    0    0 -0.00000000000E+00 -0.00000000000E+00  0.00000000000E+00  0.93800000000E+00  0.93800000000E+00 0. -1.
         11    1    1    2    0    0 -0.26308277385E+00 -0.22555307252E+00  0.31001178342E+01  0.31194258417E+01  0.51100000000E-03 0. -1.
    9000002    1    1    2    0    0 -0.57463726748E-01 -0.12513004682E+00  0.19400768243E+00  0.96769963798E+00  0.93800000000E+00 0. -1.
         22    1    1    2    0    0  0.32054650060E+00  0.35068311934E+00  0.70587445072E+00  0.85087452037E+00  0.00000000000E+00 0. -1.
</event>
<event>
 5    1  0.1560836E+002  0.1599677E+01  0.7818608E-02  0.3353714E+00
         11   -1    0    0    0    0  0.00000000000E+00  0.00000000000E+00  0.39999999674E+01  0.40000000000E+01  0.51100000000E-03 0. -1.
    9000002   -1    0    0    0    0 -0.00000000000E+00 -0.00000000000E+00  0.00000000000E+00  0.93800000000E+00  0.93800000000E+00 0. -1.
         11    1    1    2    0    0  0.80059555955E-01  0.36832894860E-01  0.11566015457E+01  0.11599541333E+01  0.51100000000E-03 0. -1.
    9000002    1    1    2    0    0 -0.27373390931E+00 -0.12710785287E+00  0.60775494816E-01  0.98723063168E+00  0.93800000000E+00 0. -1.
         22    1    1    2    0    0  0.19367435335E+00  0.90274958013E-01  0.27826229268E+01  0.27908152350E+01  0.00000000000E+00 0. -1.
</event>
<event>
 5    1  0.1560836E+002  0.1599530E+01  0.7818608E-02  0.3353874E+00
         11   -1    0    0    0    0  0.00000000000E+00  0.00000000000E+00  0.39999999674E+01  0.40000000000E+01  0.51100000000E-03 0. -1.
    9000002   -1    0    0    0    0 -0.00000000000E+00 -0.00000000000E+00  0.00000000000E+00  0.93800000000E+00  0.93800000000E+00 0. -1.
         11    1    1    2    0    0  0.51006122922E-01 -0.38783305444E+00  0.23559512370E+01  0.23882048896E+01  0.51100000000E-03 0. -1.
    9000002    1    1    2    0    0 -0.98278841025E-01  0.60139486434E+00  0.25975269385E+00  0.11483248562E+01  0.93800000000E+00 0. -1.
         22    1    1    2    0    0  0.47272718103E-01 -0.21356180990E+00  0.13842960365E+01  0.14014702542E+01  0.00000000000E+00 0. -1.
</event>
<event>
 5    1  0.1560836E+002  0.1598608E+01  0.7818608E-02  0.3354875E+00
         11   -1    0    0    0    0  0.00000000000E+00  0.00000000000E+00  0.39999999674E+01  0.40000000000E+01  0.51100000000E-03 0.  1.
    9000002   -1    0    0    0    0 -0.00000000000E+00 -0.00000000000E+00  0.00000000000E+00  0.93800000000E+00  0.93800000000E+00 0.  1.
         11    1    1    2    0    0 -0.13570171225E+00 -0.12100065125E+00  0.17779342149E+01  0.17872063244E+01  0.51100000000E-03 0.  1.
    9000002    1    1    2    0    0  0.33992645990E+00  0.33330123537E+00  0.15548736491E+00  0.10633249890E+01  0.93800000000E+00 0.  1.
         22    1    1    2    0    0 -0.20422474765E+00 -0.21230058413E+00  0.20665783876E+01  0.20874686866E+01  0.00000000000E+00 0.  1.
</event>
<event>
 5    1  0.1560836E+002  0.1599464E+01  0.7818608E-02  0.3353945E+00
         11   -1    0    0    0    0  0.00000000000E+00  0.00000000000E+00  0.39999999674E+01  0.40000000000E+01  0.51100000000E-03 0. -1.
    9000002   -1    0    0    0    0 -0.00000000000E+00 -0.00000000000E+00  0.00000000000E+00  0.93800000000E+00  0.93800000000E+00 0. -1.
         11    1    1    2    0    0  0.21061239824E+00  0.93567175778E+00  0.18727269852E+01  0.21040308560E+01  0.51100000000E-03 0. -1.
    9000002    1    1    2    0    0 -0.27902433463E+00 -0.12041160962E+01  0.15475726307E+01  0.21914778574E+01  0.93800000000E+00 0.  1.
         22    1    1    2    0    0  0.68411936389E-01  0.26844433840E+00  0.57970035144E+00  0.64249128657E+00  0.00000000000E+00 0. -1.
</event>
<event>
 5    1  0.1560836E+002  0.1599677E+01  0.7818608E-02  0.3353714E+00
         11   -1    0    0    0    0  0.00000000000E+00  0.00000000000E+00  0.39999999674E+01  0.40000000000E+01  0.51100000000E-03 0.  1.
    9000002   -1    0    0    0    0 -0.00000000000E+00 -0.00000000000E+00  0.00000000000E+00  0.93800000000E+00  0.93800000000E+00 0. -1.
         11    1    1    2    0    0 -0.70578825524E-01 -0.13757207803E+00  0.13384872395E+01  0.13473885107E+01  0.51100000000E-03 0. -1.
    9000002    1    1    2    0    0  0.20441607064E+00  0.39800676568E+00  0.13591828579E+00  0.10480997547E+01  0.93800000000E+00 0. -1.
         22    1    1    2    0    0 -0.13383724511E+00 -0.26043468766E+00  0.25255944421E+01  0.25425117346E+01  0.00000000000E+00 0.  1.
</event>
<event>
 5    1  0.1560836E+002  0.1599673E+01  0.7818608E-02  0.3353719E+00
         11   -1    0    0    0    0  0.00000000000E+00  0.00000000000E+00  0.39999999674E+01  0.40000000000E+01  0.51100000000E-03 0. -1.
    9000002   -1    0    0    0    0 -0.00000000000E+00 -0.00000000000E+00  0.00000000000E+00  0.93800000000E+00  0.93800000000E+00 0.  1.
         11    1    1    2    0    0  0.33809262910E-01  0.75296808327E+00  0.16248510848E+01  0.17911575334E+01  0.51100000000E-03 0. -1.
    9000002    1    1    2    0    0 -0.50624783700E-01 -0.12053380631E+01  0.14032652817E+01  0.20747048382E+01  0.93800000000E+00 0.  1.
         22    1    1    2    0    0  0.16815520791E-01  0.45236997983E+00  0.97188360091E+00  0.10721376283E+01  0.00000000000E+00 0. -1.
</event>
<event>
 5    1  0.1560836E+002  0.1541399E+01  0.7818608E-02  0.3419531E+00
         11   -1    0    0    0    0  0.00000000000E+00  0.00000000000E+00  0.39999999674E+01  0.40000000000E+01  0.51100000000E-03 0. -1.
    9000002   -1    0    0    0    0 -0.00000000000E+00 -0.00000000000E+00  0.00000000000E+00  0.93800000000E+00  0.93800000000E+00 0. -1.
         11    1    1    2    0    0 -0.24543003574E+00 -0.15167763734E+00  0.11865531409E+01  0.12211267852E+01  0.51100000000E-03 0. -1.
    9000002    1    1    2    0    0  0.16110130889E+00 -0.97444284837E-01  0.68287395714E-01  0.95914346622E+00  0.93800000000E+00 0. -1.
         22    1    1    2    0    0  0.84328726844E-01  0.24912192218E+00  0.27451594307E+01  0.27577297486E+01  0.00000000000E+00 0. -1.
</event>
<event>
 5    1  0.1560836E+002  0.1599675E+01  0.7818608E-02  0.3353716E+00
         11   -1    0    0    0    0  0.00000000000E+00  0.00000000000E+00  0.39999999674E+01  0.40000000000E+01  0.51100000000E-03 0. -1.
    9000002   -1    0    0    0    0 -0.00000000000E+00 -0.00000000000E+00  0.00000000000E+00  0.93800000000E+00  0.93800000000E+00 0.  1.
         11    1    1    2    0    0  0.36178913771E-01  0.13613757250E+00  0.14669504688E+01  0.14736981684E+01  0.51100000000E-03 0. -1.
    9000002    1    1    2    0    0 -0.94022227097E-01 -0.35942573761E+00  0.92777402423E-01  0.10131528446E+01  0.93800000000E+00 0.  1.
         22    1    1    2    0    0  0.57843313326E-01  0.22328816511E+00  0.24402720961E+01  0.24511489870E+01  0.00000000000E+00 0.  1.
</event>
<event>
 5    1  0.1560836E+002  0.1599677E+01  0.7818608E-02  0.3353714E+00
         11   -1    0    0    0    0  0.00000000000E+00  0.00000000000E+00  0.39999999674E+01  0.40000000000E+01  0.51100000000E-03 0. -1.
    9000002   -1    0    0    0    0 -0.00000000000E+00 -0.00000000000E+00  0.00000000000E+00  0.93800000000E+00  0.93800000000E+00 0.  1.
         11    1    1    2    0    0 -0.22637885509E+00  0.56328930610E+00  0.26056008472E+01  0.26753874980E+01  0.51100000000E-03 0. -1.
    9000002    1    1    2    0    0  0.30376705816E+00 -0.75819888883E+00  0.49429076197E+00  0.13383973020E+01  0.93800000000E+00 0.  1.
         22    1    1    2    0    0 -0.77388203072E-01  0.19490958273E+00  0.90010835816E+00  0.92421519996E+00  0.00000000000E+00 0. -1.
</event>
<event>
 5    1  0.1560836E+002  0.1599652E+01  0.7818608E-02  0.3353741E+00
         11   -1    0    0    0    0  0.00000000000E+00  0.00000000000E+00  0.39999999674E+01  0.40000000000E+01  0.51100000000E-03 0. -1.
    9000002   -1    0    0    0    0 -0.00000000000E+00 -0.00000000000E+00  0.00000000000E+00  0.93800000000E+00  0.93800000000E+00 0.  1.
         11    1    1    2    0    0  0.35993611418E-01 -0.74600856159E-01  0.10231551310E+01  0.10265025626E+01  0.51100000000E-03 0. -1.
    9000002    1    1    2    0    0 -0.14059290903E+00  0.30606209296E+00  0.75974278993E-01  0.99952811961E+00  0.93800000000E+00 0.  1.
         22    1    1    2    0    0  0.10459929761E+00 -0.23146123680E+00  0.29008705574E+01  0.29119693178E+01  0.00000000000E+00 0. -1.
</event>
<event>
 5    1  0.1560836E+002  0.1599592E+01  0.7818608E-02  0.3353806E+00
         11   -1    0    0    0    0  0.00000000000E+00  0.00000000000E+00  0.39999999674E+01  0.40000000000E+01  0.51100000000E-03 0.  1.
    9000002   -1    0    0    0    0 -0.00000000000E+00 -0.00000000000E+00  0.00000000000E+00  0.93800000000E+00  0.93800000000E+00 0.  1.
         11    1    1    2    0    0  0.90612600795E-01 -0.10898185436E+00  0.14638412656E+01  0.14706866423E+01  0.51100000000E-03 0.  1.
    9000002    1    1    2    0    0 -0.22584582512E+00  0.31434532445E+00  0.10096167133E+00  0.10197335823E+01  0.93800000000E+00 0.  1.
         22    1    1    2    0    0  0.13523322433E+00 -0.20536347009E+00  0.24351970305E+01  0.24475797754E+01  0.00000000000E+00 0.  1.
</event>
<event>
 5    1  0.1560836E+002  0.1569718E+01  0.7818608E-02  0.3386901E+00
         11   -1    0    0    0    0  0.00000000000E+00  0.00000000000E+00  0.39999999674E+01  0.40000000000E+01  0.51100000000E-03 0. -1.
    9000002   -1    0    0    0    0 -0.00000000000E+00 -0.00000000000E+00  0.00000000000E+00  0.93800000000E+00  0.93800000000E+00 0. -1.
         11    1    1    2    0    0 -0.35660999793E+00  0.38581267902E+00  0.30291687159E+01  0.30743918886E+01  0.51100000000E-03 0. -1.
    9000002    1    1    2    0    0  0.54489489931E+00 -0.30804852934E+00  0.30626895148E+00  0.11685242909E+01  0.93800000000E+00 0. -1.
         22    1    1    2    0    0 -0.18828490138E+00 -0.77764149679E-01  0.66456229997E+00  0.69508382056E+00  0.00000000000E+00 0.  1.
</event>
<event>
 5    1  0.1560836E+002  0.1592361E+01  0.7818608E-02  0.3361697E+00
         11   -1    0    0    0    0  0.00000000000E+00  0.00000000000E+00  0.39999999674E+01  0.40000000000E+01  0.51100000000E-03 0.  1.
    9000002   -1    0    0    0    0 -0.00000000000E+00 -0.00000000000E+00  0.00000000000E+00  0.93800000000E+00  0.93800000000E+00 0. -1.
         11    1    1    2    0    0 -0.29157276185E-01  0.39776141686E-01  0.16127514726E+00  0.16864822100E+00  0.51100000000E-03 0.  1.
    9000002    1    1    2    0    0  0.28578439109E-02 -0.25530249794E+00  0.48946507165E-01  0.97335876905E+00  0.93800000000E+00 0. -1.
         22    1    1    2    0    0  0.26299432275E-01  0.21552635625E+00  0.37897783129E+01  0.37959930099E+01  0.00000000000E+00 0.  1.
</event>
<event>
 5    1  0.1560836E+002  0.1599677E+01  0.7818608E-02  0.3353714E+00
         11   -1    0    0    0    0  0.00000000000E+00  0.00000000000E+00  0.39999999674E+01  0.40000000000E+01  0.51100000000E-03 0.  1.
    9000002   -1    0    0    0    0 -0.00000000000E+00 -0.00000000000E+00  0.00000000000E+00  0.93800000000E+00  0.93800000000E+00 0. -1.
         11    1    1    2    0    0  0.18405720553E+00 -0.18779698461E+00  0.21798613092E+01  0.21956639886E+01  0.51100000000E-03 0.  1.
    9000002    1    1    2    0    0 -0.32586693866E+00  0.33181219224E+00  0.14723327554E+00  0.10572654492E+01  0.93800000000E+00 0. -1.
         22    1    1    2    0    0  0.14180973314E+00 -0.14401520763E+00  0.16729053826E+01  0.16850705622E+01  0.00000000000E+00 0.  1.
</event>
<event>
 5    1  0.1560836E+002  0.1599676E+01  0.7818608E-02  0.3353715E+00
         11   -1    0    0    0    0  0.00000000000E+00  0.00000000000E+00  0.39999999674E+01  0.40000000000E+01  0.51100000000E-03 0.  1.
    9000002   -1    0    0    0    0 -0.00000000000E+00 -0.00000000000E+00  0.00000000000E+00  0.93800000000E+00  0.93800000000E+00 0. -1.
         11    1    1    2    0    0 -0.25110385891E-01  0.11269244034E-02  0.36168246463E+00  0.36255519274E+00  0.51100000000E-03 0.  1.
    9000002    1    1    2    0    0  0.26956034849E+00 -0.69195826595E-02  0.48377729641E-01  0.97718732433E+00  0.93800000000E+00 0. -1.
         22    1    1    2    0    0 -0.24444996260E+00  0.57926582561E-02  0.35899397731E+01  0.35982574829E+01  0.00000000000E+00 0.  1.
</event>
<event>
 5    1  0.1560836E+002  0.1599645E+01  0.7818608E-02  0.3353749E+00
         11   -1    0    0    0    0  0.00000000000E+00  0.00000000000E+00  0.39999999674E+01  0.40000000000E+01  0.51100000000E-03 0.  1.
    9000002   -1    0    0    0    0 -0.00000000000E+00 -0.00000000000E+00  0.00000000000E+00  0.93800000000E+00  0.93800000000E+00 0.  1.
         11    1    1    2    0    0  0.76748049253E-01 -0.93568629612E-01  0.84474314530E+00  0.85336779536E+00  0.51100000000E-03 0.  1.
    9000002    1    1    2    0    0 -0.36858480533E+00  0.41182821380E+00  0.21111804567E+00  0.11089959719E+01  0.93800000000E+00 0.  1.
         22    1    1    2    0    0  0.29183675608E+00 -0.31825958419E+00  0.29441387764E+01  0.29756362328E+01  0.00000000000E+00 0.  1.
</event>
<event>
 5    1  0.1560836E+002  0.1599628E+01  0.7818608E-02  0.3353767E+00
         11   -1    0    0    0    0  0.00000000000E+00  0.00000000000E+00  0.39999999674E+01  0.40000000000E+01  0.51100000000E-03 0. -1.
    9000002   -1    0    0    0    0 -0.00000000000E+00 -0.00000000000E+00  0.00000000000E+00  0.93800000000E+00  0.93800000000E+00 0.  1.
         11    1    1    2    0    0 -0.20581771090E-02 -0.13420371754E-01  0.14826095016E+00  0.14888221161E+00  0.51100000000E-03 0. -1.
    9000002    1    1    2    0    0  0.72196557557E-01  0.27438971555E+00  0.53663102769E-01  0.98144066938E+00  0.93800000000E+00 0.  1.
         22    1    1    2    0    0 -0.70138380448E-01 -0.26096934379E+00  0.37980759144E+01  0.38076771190E+01  0.00000000000E+00 0. -1.
</event>
<event>
 5    1  0.1560836E+002  0.1542768E+01  0.7818608E-02  0.3417924E+00
         11   -1    0    0    0    0  0.00000000000E+00  0.00000000000E+00  0.39999999674E+01  0.40000000000E+01  0.51100000000E-03 0. -1.
    9000002   -1    0    0    0    0 -0.00000000000E+00 -0.00000000000E+00  0.00000000000E+00  0.93800000000E+00  0.93800000000E+00 0. -1.
         11    1    1    2    0    0 -0.23482391841E+00 -0.30213728336E-01  0.73736451802E+00  0.77444291951E+00  0.51100000000E-03 0. -1.
    9000002    1    1    2    0    0  0.10431726204E+00 -0.20779258908E+00  0.80355924935E-01  0.96972208695E+00  0.93800000000E+00 0. -1.
         22    1    1    2    0    0  0.13050665637E+00  0.23800631742E+00  0.31822795244E+01  0.31938349935E+01  0.00000000000E+00 0. -1.
</event>
<event>
 5    1  0.1560836E+002  0.1599676E+01  0.7818608E-02  0.3353715E+00
         11   -1    0    0    0    0  0.00000000000E+00  0.00000000000E+00  0.39999999674E+01  0.40000000000E+01  0.51100000000E-03 0.  1.
    9000002   -1    0    0    0    0 -0.00000000000E+00 -0.00000000000E+00  0.00000000000E+00  0.93800000000E+00  0.93800000000E+00 0.  1.
         11    1    1    2    0    0 -0.18703847226E-01 -0.19557403134E-01  0.30194179213E+00  0.30315249112E+00  0.51100000000E-03 0. -1.
    9000002    1    1    2    0    0  0.24699578196E+00  0.25518468490E+00  0.84617886149E-01  0.10065437528E+01  0.93800000000E+00 0.  1.
         22    1    1    2    0    0 -0.22829193473E+00 -0.23562728176E+00  0.36134402891E+01  0.36283037560E+01  0.00000000000E+00 0.  1.
</event>
<event>
 5    1  0.1560836E+002  0.1599056E+01  0.7818608E-02  0.3354389E+00
         11   -1    0    0    0    0  0.00000000000E+00  0.00000000000E+00  0.39999999674E+01  0.40000000000E+01  0.51100000000E-03 0. -1.
    9000002   -1    0    0    0    0 -0.00000000000E+00 -0.00000000000E+00  0.00000000000E+00  0.93800000000E+00  0.93800000000E+00 0.  1.
         11    1    1    2    0    0  0.31917783804E+00  0.21965163190E+00  0.21446691543E+01  0.21793869263E+01  0.51100000000E-03 0. -1.
    9000002    1    1    2    0    0 -0.50795789945E+00 -0.40708125603E+00  0.29973194085E+00  0.11804319603E+01  0.93800000000E+00 0.  1.
         22    1    1    2    0    0  0.18878006141E+00  0.18742962412E+00  0.15555988722E+01  0.15781811134E+01  0.00000000000E+00 0.  1.
</event>
<event>
 5    1  0.1560836E+002  0.1599675E+01  0.7818608E-02  0.3353716E+00
         11   -1    0    0    0    0  0.00000000000E+00  0.00000000000E+00  0.39999999674E+01  0.40000000000E+01  0.51100000000E-03 0.  1.
    9000002   -1    0    0    0    0 -0.00000000000E+00 -0.00000000000E+00  0.00000000000E+00  0.93800000000E+00  0.93800000000E+00 0. -1.
         11    1    1    2    0    0 -0.81619146029E-01  0.59052349022E-01  0.13077624670E+01  0.13116370672E+01  0.51100000000E-03 0.  1.
    9000002    1    1    2    0    0  0.24243621412E+00 -0.18053918725E+00  0.60968063098E-01  0.98738585202E+00  0.93800000000E+00 0. -1.
         22    1    1    2    0    0 -0.16081706809E+00  0.12148683823E+00  0.26312694373E+01  0.26389770808E+01  0.00000000000E+00 0.  1.
</event>
<event>
 5    1  0.1560836E+002  0.1598469E+01  0.7818608E-02  0.3355027E+00
         11   -1    0    0    0    0  0.00000000000E+00  0.00000000000E+00  0.39999999674E+01  0.40000000000E+01  0.51100000000E-03 0.  1.
    9000002   -1    0    0    0    0 -0.00000000000E+00 -0.00000000000E+00  0.00000000000E+00  0.93800000000E+00  0.93800000000E+00 0.  1.
         11    1    1    2    0    0 -0.21556716385E+00  0.22772357054E-01  0.17103662710E+01  0.17240478023E+01  0.51100000000E-03 0.  1.
    9000002    1    1    2    0    0  0.52867491090E+00  0.28218676211E-01  0.19398135873E+00  0.10944250649E+01  0.93800000000E+00 0.  1.
         22    1    1    2    0    0 -0.31310774705E+00 -0.50991033265E-01  0.20956523376E+01  0.21195271329E+01  0.00000000000E+00 0. -1.
</event>
<event>
 5    1  0.1560836E+002  0.1597801E+01  0.7818608E-02  0.3355754E+00
         11   -1    0    0    0    0  0.00000000000E+00  0.00000000000E+00  0.39999999674E+01  0.40000000000E+01  0.51100000000E-03 0.  1.
    9000002   -1    0    0    0    0 -0.00000000000E+00 -0.00000000000E+00  0.00000000000E+00  0.93800000000E+00  0.93800000000E+00 0.  1.
         11    1    1    2    0    0 -0.58896183022E-01  0.12036896628E+00  0.12834723017E+01  0.12904490919E+01  0.51100000000E-03 0.  1.
    9000002    1    1    2    0    0  0.57934808310E-01 -0.44940693314E+00  0.14114308467E+00  0.10512318507E+01  0.93800000000E+00 0.  1.
         22    1    1    2    0    0  0.96137471229E-03  0.32903796685E+00  0.25753845810E+01  0.25963190574E+01  0.00000000000E+00 0.  1.
</event>
<event>
 5    1  0.1560836E+002  0.1599676E+01  0.7818608E-02  0.3353715E+00
         11   -1    0    0    0    0  0.00000000000E+00  0.00000000000E+00  0.39999999674E+01  0.40000000000E+01  0.51100000000E-03 0. -1.
    9000002   -1    0    0    0    0 -0.00000000000E+00 -0.00000000000E+00  0.00000000000E+00  0.93800000000E+00  0.93800000000E+00 0.  1.
         11    1    1    2    0    0  0.24133919776E-01 -0.14080805440E-01  0.48732273074E+00  0.48812336575E+00  0.51100000000E-03 0. -1.
    9000002    1    1    2    0    0 -0.20010862160E+00  0.11664480700E+00  0.35591164380E-01  0.96682997596E+00  0.93800000000E+00 0.  1.
         22    1    1    2    0    0  0.17597470183E+00 -0.10256400156E+00  0.34770860722E+01  0.34830466583E+01  0.00000000000E+00 0. -1.
</event>
<event>
 5    1  0.1560836E+002  0.1599672E+01  0.7818608E-02  0.3353719E+00
         11   -1    0    0    0    0  0.00000000000E+00  0.00000000000E+00  0.39999999674E+01  0.40000000000E+01  0.51100000000E-03 0. -1.
    9000002   -1    0    0    0    0 -0.00000000000E+00 -0.00000000000E+00  0.00000000000E+00  0.93800000000E+00  0.93800000000E+00 0. -1.
         11    1    1    2    0    0  0.37642879093E-01 -0.89859827359E-01  0.85691068472E+00  0.86243142198E+00  0.51100000000E-03 0. -1.
    9000002    1    1    2    0    0 -0.16248301020E+00  0.40043572749E+00  0.12651553715E+00  0.10404805052E+01  0.93800000000E+00 0. -1.
         22    1    1    2    0    0  0.12484013111E+00 -0.31057590013E+00  0.30165737455E+01  0.30350880729E+01  0.00000000000E+00 0. -1.
</event>
<event>
 5    1  0.1560836E+002  0.1599676E+01  0.7818608E-02  0.3353715E+00
         11   -1    0    0    0    0  0.00000000000E+00  0.00000000000E+00  0.39999999674E+01  0.40000000000E+01  0.51100000000E-03 0. -1.
    9000002   -1    0    0    0    0 -0.00000000000E+00 -0.00000000000E+00  0.00000000000E+00  0.93800000000E+00  0.93800000000E+00 0.  1.
         11    1    1    2    0    0 -0.75572085618E-01  0.21623393755E-01  0.88357221905E+00  0.88706191367E+00  0.51100000000E-03 0. -1.
    9000002    1    1    2    0    0  0.33363757370E+00 -0.92816704777E-01  0.80381623210E-01  0.10031122453E+01  0.93800000000E+00 0.  1.
         22    1    1    2    0    0 -0.25806548809E+00  0.71193311022E-01  0.30360461251E+01  0.30478258411E+01  0.00000000000E+00 0.  1.
</event>
<event>
 5    1  0.1560836E+002  0.1599400E+01  0.7818608E-02  0.3354015E+00
         11   -1    0    0    0    0  0.00000000000E+00  0.00000000000E+00  0.39999999674E+01  0.40000000000E+01  0.51100000000E-03 0. -1.
    9000002   -1    0    0    0    0 -0.00000000000E+00 -0.00000000000E+00  0.00000000000E+00  0.93800000000E+00  0.93800000000E+00 0. -1.
         11    1    1    2    0    0  0.10350754446E-01  0.12122686638E-01  0.32378186375E+00  0.32417441920E+00  0.51100000000E-03 0. -1.
    9000002    1    1    2    0    0 -0.21008658715E+00 -0.43274303467E-01  0.30695061274E-01  0.96270204437E+00  0.93800000000E+00 0. -1.
         22    1    1    2    0    0  0.19973583271E+00  0.31151616828E-01  0.36455230423E+01  0.36511235364E+01  0.00000000000E+00 0. -1.
</event>
<event>
 5    1  0.1560836E+002  0.1599677E+01  0.7818608E-02  0.3353714E+00
         11   -1    0    0    0    0  0.00000000000E+00  0.00000000000E+00  0.39999999674E+01  0.40000000000E+01  0.51100000000E-03 0.  1.
    9000002   -1    0    0    0    0 -0.00000000000E+00 -0.00000000000E+00  0.00000000000E+00  0.93800000000E+00  0.93800000000E+00 0. -1.
         11    1    1    2    0    0 -0.27530440542E+00  0.35540609809E-01  0.19605898497E+01  0.19801435480E+01  0.51100000000E-03 0.  1.
    9000002    1    1    2    0    0  0.53443420226E+00 -0.69637095989E-01  0.20021273480E+00  0.11001810673E+01  0.93800000000E+00 0. -1.
         22    1    1    2    0    0 -0.25912979684E+00  0.34096486180E-01  0.18391973828E+01  0.18576753847E+01  0.00000000000E+00 0.  1.
</event>
<event>
 5    1  0.1560836E+002  0.1599373E+01  0.7818608E-02  0.3354044E+00
         11   -1    0    0    0    0  0.00000000000E+00  0.00000000000E+00  0.39999999674E+01  0.40000000000E+01  0.51100000000E-03 0. -1.
    9000002   -1    0    0    0    0 -0.00000000000E+00 -0.00000000000E+00  0.00000000000E+00  0.93800000000E+00  0.93800000000E+00 0. -1.
         11    1    1    2    0    0 -0.59932335490E-01  0.57492980545E-01  0.35547799284E+00  0.36505094461E+00  0.51100000000E-03 0. -1.
    9000002    1    1    2    0    0  0.53270377238E+00 -0.48341409226E+00  0.37214034817E+00  0.12392719364E+01  0.93800000000E+00 0. -1.
         22    1    1    2    0    0 -0.47277143689E+00  0.42592111172E+00  0.32723816264E+01  0.33336771190E+01  0.00000000000E+00 0. -1.
</event>
<event>
 5    1  0.1560836E+002  0.1597519E+01  0.7818608E-02  0.3356060E+00
         11   -1    0    0    0    0  0.00000000000E+00  0.00000000000E+00  0.39999999674E+01  0.40000000000E+01  0.51100000000E-03 0.  1.
    9000002   -1    0    0    0    0 -0.00000000000E+00 -0.00000000000E+00  0.00000000000E+00  0.93800000000E+00  0.93800000000E+00 0.  1.
         11    1    1    2    0    0  0.21747503092E+00 -0.17851917389E+00  0.15125210406E+01  0.15384682785E+01  0.51100000000E-03 0.  1.
    9000002    1    1    2    0    0 -0.42942206176E+00  0.36680628934E+00  0.22299764305E+00  0.11173728607E+01  0.93800000000E+00 0.  1.
         22    1    1    2    0    0  0.21194703084E+00 -0.18828711545E+00  0.22644812837E+01  0.22821588608E+01  0.00000000000E+00 0.  1.
</event>
<event>
 5    1  0.1560836E+002  0.1581307E+01  0.7818608E-02  0.3373906E+00
         11   -1    0    0    0    0  0.00000000000E+00  0.00000000000E+00  0.39999999674E+01  0.40000000000E+01  0.51100000000E-03 0. -1.
    9000002   -1    0    0    0    0 -0.00000000000E+00 -0.00000000000E+00  0.00000000000E+00  0.93800000000E+00  0.93800000000E+00 0. -1.
         11    1    1    2    0    0 -0.10796435242E+00 -0.94072428741E-01  0.76540578551E+00  0.77868620179E+00  0.51100000000E-03 0. -1.
    9000002    1    1    2    0    0  0.22500146678E+00 -0.93210432023E-01  0.53515245747E-01  0.97057803716E+00  0.93800000000E+00 0. -1.
         22    1    1    2    0    0 -0.11703711436E+00  0.18728286076E+00  0.31810789361E+01  0.31887357611E+01  0.00000000000E+00 0. -1.
</event>
<event>
 5    1  0.1560836E+002  0.1528644E+01  0.7818608E-02  0.3434649E+00
         11   -1    0    0    0    0  0.00000000000E+00  0.00000000000E+00  0.39999999674E+01  0.40000000000E+01  0.51100000000E-03 0. -1.
    9000002   -1    0    0    0    0 -0.00000000000E+00 -0.00000000000E+00  0.00000000000E+00  0.93800000000E+00  0.93800000000E+00 0.  1.
         11    1    1    2    0    0 -0.38813107724E-01  0.73407792753E-01  0.35986900778E-01  0.90501268039E-01  0.51100000000E-03 0. -1.
    9000002    1    1    2    0    0  0.24182420225E+00 -0.43161243190E-01  0.96365356043E-01  0.97440859990E+00  0.93800000000E+00 0.  1.
         22    1    1    2    0    0 -0.20301109453E+00 -0.30246549563E-01  0.38676477105E+01  0.38730901321E+01  0.00000000000E+00 0. -1.
</event>
<event>
 5    1  0.1560836E+002  0.1599677E+01  0.7818608E-02  0.3353714E+00
         11   -1    0    0    0    0  0.00000000000E+00  0.00000000000E+00  0.39999999674E+01  0.40000000000E+01  0.51100000000E-03 0.  1.
    9000002   -1    0    0    0    0 -0.00000000000E+00 -0.00000000000E+00  0.00000000000E+00  0.93800000000E+00  0.93800000000E+00 0. -1.
         11    1    1    2    0    0  0.49876066704E-01  0.73772504308E-01  0.10371807831E+01  0.10409967543E+01  0.51100000000E-03 0. -1.
    9000002    1    1    2    0    0 -0.18895409146E+00 -0.27879074648E+00  0.75946249559E-01  0.99951976560E+00  0.93800000000E+00 0. -1.
         22    1    1    2    0    0  0.13907802475E+00  0.20501824217E+00  0.28868729347E+01  0.28974834801E+01  0.00000000000E+00 0.  1.
</event>
<event>
 5    1  0.1560836E+002  0.1589072E+01  0.7818608E-02  0.3365311E+00
         11   -1    0    0    0    0  0.00000000000E+00  0.00000000000E+00  0.39999999674E+01  0.40000000000E+01  0.51100000000E-03 0. -1.
    9000002   -1    0    0    0    0 -0.00000000000E+00 -0.00000000000E+00  0.00000000000E+00  0.93800000000E+00  0.93800000000E+00 0. -1.
         11    1    1    2    0    0  0.15426629819E-01 -0.47853314333E-02  0.37416401008E-01  0.40756944070E-01  0.51100000000E-03 0. -1.
    9000002    1    1    2    0    0  0.71686667142E+00 -0.60927693467E+00  0.70831032966E+00  0.15055443304E+01  0.93800000000E+00 0. -1.
         22    1    1    2    0    0 -0.73229330124E+00  0.61406226610E+00  0.32542732367E+01  0.33916987255E+01  0.00000000000E+00 0. -1.
</event>
<event>
 5    1  0.1560836E+002  0.1599355E+01  0.7818608E-02  0.3354064E+00
         11   -1    0    0    0    0  0.00000000000E+00  0.00000000000E+00  0.39999999674E+01  0.40000000000E+01  0.51100000000E-03 0.  1.
    9000002   -1    0    0    0    0 -0.00000000000E+00 -0.00000000000E+00  0.00000000000E+00  0.93800000000E+00  0.93800000000E+00 0.  1.
         11    1    1    2    0    0 -0.12696713146E+00 -0.13071591980E+00  0.16175096212E+01  0.16277422831E+01  0.51100000000E-03 0.  1.
    9000002    1    1    2    0    0  0.26829830196E+00  0.34931326604E+00  0.13185754261E+00  0.10446215335E+01  0.93800000000E+00 0.  1.
         22    1    1    2    0    0 -0.14133117050E+00 -0.21859734624E+00  0.22506328035E+01  0.22656361835E+01  0.00000000000E+00 0.  1.
</event>
<event>
 5    1  0.1560836E+002  0.1599675E+01  0.7818608E-02  0.3353716E+00
         11   -1    0    0    0    0  0.00000000000E+00  0.00000000000E+00  0.39999999674E+01  0.40000000000E+01  0.51100000000E-03 0.  1.
    9000002   -1    0    0    0    0 -0.00000000000E+00 -0.00000000000E+00  0.00000000000E+00  0.93800000000E+00  0.93800000000E+00 0.  1.
         11    1    1    2    0    0  0.77828710576E-01 -0.12503100276E+00  0.11030576452E+01  0.11128461212E+01  0.51100000000E-03 0.  1.
    9000002    1    1    2    0    0 -0.27027180994E+00  0.42863521537E+00  0.17597879080E+00  0.10805496444E+01  0.93800000000E+00 0.  1.
         22    1    1    2    0    0  0.19244309937E+00 -0.30360421261E+00  0.27209635314E+01  0.27446042344E+01  0.00000000000E+00 0.  1.
</event>
<event>
 5    1  0.1560836E+002  0.1572095E+01  0.7818608E-02  0.3384219E+00
         11   -1    0    0    0    0  0.00000000000E+00  0.00000000000E+00  0.39999999674E+01  0.40000000000E+01  0.51100000000E-03 0. -1.
    9000002   -1    0    0    0    0 -0.00000000000E+00 -0.00000000000E+00  0.00000000000E+00  0.93800000000E+00  0.93800000000E+00 0. -1.
         11    1    1    2    0    0  0.96656462177E-01 -0.44431737642E-01  0.24415823769E+00  0.26632716186E+00  0.51100000000E-03 0. -1.
    9000002    1    1    2    0    0 -0.19021297739E-01  0.30889341479E+00  0.85974354953E-01  0.99146988919E+00  0.93800000000E+00 0. -1.
         22    1    1    2    0    0 -0.77635164438E-01 -0.26446167715E+00  0.36698673747E+01  0.36802029489E+01  0.00000000000E+00 0. -1.
</event>
<event>
 5    1  0.1560836E+002  0.1599672E+01  0.7818608E-02  0.3353719E+00
         11   -1    0    0    0    0  0.00000000000E+00  0.00000000000E+00  0.39999999674E+01  0.40000000000E+01  0.51100000000E-03 0.  1.
    9000002   -1    0    0    0    0 -0.00000000000E+00 -0.00000000000E+00  0.00000000000E+00  0.93800000000E+00  0.93800000000E+00 0. -1.
         11    1    1    2    0    0  0.45676671496E-02  0.20732860928E-01  0.38531733704E+00  0.38590209438E+00  0.51100000000E-03 0.  1.
    9000002    1    1    2    0    0 -0.59039879876E-01 -0.22309315694E+00  0.35331307624E-01  0.96661707278E+00  0.93800000000E+00 0. -1.
         22    1    1    2    0    0  0.54472212726E-01  0.20236029601E+00  0.35793513227E+01  0.35854808328E+01  0.00000000000E+00 0.  1.
</event>
<event>
 5    1  0.1560836E+002  0.1597382E+01  0.7818608E-02  0.3356210E+00
         11   -1    0    0    0    0  0.00000000000E+00  0.00000000000E+00  0.39999999674E+01  0.40000000000E+01  0.51100000000E-03 0.  1.
    9000002   -1    0    0    0    0 -0.00000000000E+00 -0.00000000000E+00  0.00000000000E+00  0.93800000000E+00  0.93800000000E+00 0. -1.
         11    1    1    2    0    0 -0.44364037205E-01  0.19760760335E+00  0.21523293506E+01  0.21618369104E+01  0.51100000000E-03 0.  1.
    9000002    1    1    2    0    0  0.17808282341E+00 -0.38817186492E+00  0.12542135016E+00  0.10382511275E+01  0.93800000000E+00 0. -1.
         22    1    1    2    0    0 -0.13371878620E+00  0.19056426157E+00  0.17222492666E+01  0.17379119620E+01  0.00000000000E+00 0. -1.
</event>
<event>
 5    1  0.1560836E+002  0.1599647E+01  0.7818608E-02  0.3353746E+00
         11   -1    0    0    0    0  0.00000000000E+00  0.00000000000E+00  0.39999999674E+01  0.40000000000E+01  0.51100000000E-03 0. -1.
    9000002   -1    0    0    0    0 -0.00000000000E+00 -0.00000000000E+00  0.00000000000E+00  0.93800000000E+00  0.93800000000E+00 0. -1.
         11    1    1    2    0    0  0.27061923380E-01 -0.36486635878E-02  0.33873571895E+00  0.33983497298E+00  0.51100000000E-03 0. -1.
    9000002    1    1    2    0    0 -0.27295797472E+00  0.42835773400E-01  0.50843379709E-01  0.97916801863E+00  0.93800000000E+00 0. -1.
         22    1    1    2    0    0  0.24589605134E+00 -0.39187109813E-01  0.36104208687E+01  0.36189970084E+01  0.00000000000E+00 0. -1.
</event>
<event>
 5    1  0.1560836E+002  0.1598814E+01  0.7818608E-02  0.3354652E+00
         11   -1    0    0    0    0  0.00000000000E+00  0.00000000000E+00  0.39999999674E+01  0.40000000000E+01  0.51100000000E-03 0.  1.
    9000002   -1    0    0    0    0 -0.00000000000E+00 -0.00000000000E+00  0.00000000000E+00  0.93800000000E+00  0.93800000000E+00 0. -1.
         11    1    1    2    0    0  0.24707591242E-01 -0.23207777627E-01  0.33323251246E+00  0.33495258543E+00  0.51100000000E-03 0.  1.
    9000002    1    1    2    0    0 -0.35365982783E+00  0.49681808704E-01  0.86285891896E-01  0.10073891061E+01  0.93800000000E+00 0. -1.
         22    1    1    2    0    0  0.32895223659E+00 -0.26474031077E-01  0.35804815630E+01  0.35956583085E+01  0.00000000000E+00 0.  1.
</event>
<event>
 5    1  0.1560836E+002  0.1592577E+01  0.7818608E-02  0.3361460E+00
         11   -1    0    0    0    0  0.00000000000E+00  0.00000000000E+00  0.39999999674E+01  0.40000000000E+01  0.51100000000E-03 0.  1.
    9000002   -1    0    0    0    0 -0.00000000000E+00 -0.00000000000E+00  0.00000000000E+00  0.93800000000E+00  0.93800000000E+00 0.  1.
         11    1    1    2    0    0  0.74104374443E-01 -0.52647470270E-01  0.12012125257E+01  0.12046472544E+01  0.51100000000E-03 0.  1.
    9000002    1    1    2    0    0 -0.17261476494E-01  0.37735126319E+00  0.10182450210E+00  0.10163189281E+01  0.93800000000E+00 0.  1.
         22    1    1    2    0    0 -0.56842897949E-01 -0.32470379292E+00  0.26969629395E+01  0.27170338175E+01  0.00000000000E+00 0. -1.
</event>
<event>
 5    1  0.1560836E+002  0.1591397E+01  0.7818608E-02  0.3362754E+00
         11   -1    0    0    0    0  0.00000000000E+00  0.00000000000E+00  0.39999999674E+01  0.40000000000E+01  0.51100000000E-03 0. -1.
    9000002   -1    0    0    0    0 -0.00000000000E+00 -0.00000000000E+00  0.00000000000E+00  0.93800000000E+00  0.93800000000E+00 0. -1.
         11    1    1    2    0    0  0.12103743482E+00 -0.10854666237E+00  0.21995841214E+01  0.22055845046E+01  0.51100000000E-03 0. -1.
    9000002    1    1    2    0    0 -0.40324538617E+00  0.17360505520E+00  0.13782536338E+00  0.10447896379E+01  0.93800000000E+00 0. -1.
         22    1    1    2    0    0  0.28220795135E+00 -0.65058392827E-01  0.16625904826E+01  0.16876258575E+01  0.00000000000E+00 0. -1.
</event>
<event>
 5    1  0.1560836E+002  0.1599595E+01  0.7818608E-02  0.3353803E+00
         11   -1    0    0    0    0  0.00000000000E+00  0.00000000000E+00  0.39999999674E+01  0.40000000000E+01  0.51100000000E-03 0.  1.
    9000002   -1    0    0    0    0 -0.00000000000E+00 -0.00000000000E+00  0.00000000000E+00  0.93800000000E+00  0.93800000000E+00 0. -1.
         11    1    1    2    0    0  0.47318896592E+00  0.16085507389E+00  0.24059338610E+01  0.24572952930E+01  0.51100000000E-03 0.  1.
    9000002    1    1    2    0    0 -0.70448293810E+00 -0.22611335152E+00  0.39574639655E+00  0.12585240038E+01  0.93800000000E+00 0. -1.
         22    1    1    2    0    0  0.23129397218E+00  0.65258277635E-01  0.11983197098E+01  0.12221807032E+01  0.00000000000E+00 0. -1.
</event>
<event>
 5    1  0.1560836E+002  0.1595631E+01  0.7818608E-02  0.3358119E+00
         11   -1    0    0    0    0  0.00000000000E+00  0.00000000000E+00  0.39999999674E+01  0.40000000000E+01  0.51100000000E-03 0.  1.
    9000002   -1    0    0    0    0 -0.00000000000E+00 -0.00000000000E+00  0.00000000000E+00  0.93800000000E+00  0.93800000000E+00 0.  1.
         11    1    1    2    0    0  0.20492473204E+00 -0.20903702389E+00  0.25532891738E+01  0.25700148812E+01  0.51100000000E-03 0.  1.
    9000002    1    1    2    0    0 -0.38471844482E+00  0.38273901690E+00  0.20693034293E+00  0.11032504719E+01  0.93800000000E+00 0.  1.
         22    1    1    2    0    0  0.17979371278E+00 -0.17370199301E+00  0.12397804506E+01  0.12647346470E+01  0.00000000000E+00 0. -1.
</event>
<event>
 5    1  0.1560836E+002  0.1599381E+01  0.7818608E-02  0.3354035E+00
         11   -1    0    0    0    0  0.00000000000E+00  0.00000000000E+00  0.39999999674E+01  0.40000000000E+01  0.51100000000E-03 0. -1.
    9000002   -1    0    0    0    0 -0.00000000000E+00 -0.00000000000E+00  0.00000000000E+00  0.93800000000E+00  0.93800000000E+00 0.  1.
         11    1    1    2    0    0  0.72286566408E-02  0.26469157512E-01  0.29129222453E+00  0.29258210979E+00  0.51100000000E-03 0. -1.
    9000002    1    1    2    0    0 -0.32448715450E-01 -0.22855342095E+00  0.35574345357E-01  0.96664322240E+00  0.93800000000E+00 0.  1.
         22    1    1    2    0    0  0.25220058809E-01  0.20208426344E+00  0.36731333975E+01  0.36787746678E+01  0.00000000000E+00 0. -1.
</event>
<event>
 5    1  0.1560836E+002  0.1586463E+01  0.7818608E-02  0.3368188E+00
         11   -1    0    0    0    0  0.00000000000E+00  0.00000000000E+00  0.39999999674E+01  0.40000000000E+01  0.51100000000E-03 0.  1.
    9000002   -1    0    0    0    0 -0.00000000000E+00 -0.00000000000E+00  0.00000000000E+00  0.93800000000E+00  0.93800000000E+00 0.  1.
         11    1    1    2    0    0 -0.10934426065E+00 -0.45640586437E-02  0.54514765909E+00  0.55602448624E+00  0.51100000000E-03 0.  1.
    9000002    1    1    2    0    0  0.16413611934E+00  0.33569067070E+00  0.10475659272E+00  0.10151092728E+01  0.93800000000E+00 0.  1.
         22    1    1    2    0    0 -0.54791858689E-01 -0.33112661205E+00  0.33500957155E+01  0.33668662409E+01  0.00000000000E+00 0.  1.
</event>
<event>
 5    1  0.1560836E+002  0.1599667E+01  0.7818608E-02  0.3353724E+00
         11   -1    0    0    0    0  0.00000000000E+00  0.00000000000E+00  0.39999999674E+01  0.40000000000E+01  0.51100000000E-03 0.  1.
    9000002   -1    0    0    0    0 -0.00000000000E+00 -0.00000000000E+00  0.00000000000E+00  0.93800000000E+00  0.93800000000E+00 0. -1.
         11    1    1    2    0    0 -0.17826858111E-01  0.71001091111E-02  0.27870175872E+00  0.27936202292E+00  0.51100000000E-03 0.  1.
    9000002    1    1    2    0    0  0.27699485081E+00 -0.91573811251E-01  0.56743653013E-01  0.98395922296E+00  0.93800000000E+00 0. -1.
         22    1    1    2    0    0 -0.25916799270E+00  0.84473702140E-01  0.36645545556E+01  0.36746787541E+01  0.00000000000E+00 0.  1.
</event>
<event>
 5    1  0.1560836E+002  0.1598159E+01  0.7818608E-02  0.3355364E+00
         11   -1    0    0    0    0  0.00000000000E+00  0.00000000000E+00  0.39999999674E+01  0.40000000000E+01  0.51100000000E-03 0. -1.
    9000002   -1    0    0    0    0 -0.00000000000E+00 -0.00000000000E+00  0.00000000000E+00  0.93800000000E+00  0.93800000000E+00 0. -1.
         11    1    1    2    0    0  0.10783160300E+00  0.69426922656E-02  0.16515847117E+01  0.16551157593E+01  0.51100000000E-03 0. -1.
    9000002    1    1    2    0    0 -0.29740585644E+00  0.86096486261E-01  0.65204524637E-01  0.98992852188E+00  0.93800000000E+00 0. -1.
         22    1    1    2    0    0  0.18957425344E+00 -0.93039178527E-01  0.22832107310E+01  0.22929557189E+01  0.00000000000E+00 0. -1.
</event>
<event>
 5    1  0.1560836E+002  0.1599279E+01  0.7818608E-02  0.3354147E+00
         11   -1    0    0    0    0  0.00000000000E+00  0.00000000000E+00  0.39999999674E+01  0.40000000000E+01  0.51100000000E-03 0.  1.
    9000002   -1    0    0    0    0 -0.00000000000E+00 -0.00000000000E+00  0.00000000000E+00  0.93800000000E+00  0.93800000000E+00 0. -1.
         11    1    1    2    0    0 -0.75291014800E-01 -0.35317219423E-01  0.86076918110E+00  0.86477736276E+00  0.51100000000E-03 0.  1.
    9000002    1    1    2    0    0  0.42184991869E+00  0.18889768849E+00  0.14571417486E+00  0.10558012651E+01  0.93800000000E+00 0. -1.
         22    1    1    2    0    0 -0.34655890389E+00 -0.15358046907E+00  0.29935166114E+01  0.30174213721E+01  0.00000000000E+00 0.  1.
</event>
<event>
 5    1  0.1560836E+002  0.1587588E+01  0.7818608E-02  0.3366946E+00
         11   -1    0    0    0    0  0.00000000000E+00  0.00000000000E+00  0.39999999674E+01  0.40000000000E+01  0.51100000000E-03 0.  1.
    9000002   -1    0    0    0    0 -0.00000000000E+00 -0.00000000000E+00  0.00000000000E+00  0.93800000000E+00  0.93800000000E+00 0.  1.
         11    1    1    2    0    0 -0.10260307184E-01  0.86551566086E-01  0.11293569899E+01  0.11327152861E+01  0.51100000000E-03 0.  1.
    9000002    1    1    2    0    0 -0.14328053969E+00  0.75111997470E-01  0.26294636133E-01  0.95221139098E+00  0.93800000000E+00 0.  1.
         22    1    1    2    0    0  0.15354084688E+00 -0.16166356356E+00  0.28443483413E+01  0.28530733229E+01  0.00000000000E+00 0.  1.
</event>
<event>
 5    1  0.1560836E+002  0.1598811E+01  0.7818608E-02  0.3354655E+00
         11   -1    0    0    0    0  0.00000000000E+00  0.00000000000E+00  0.39999999674E+01  0.40000000000E+01  0.51100000000E-03 0.  1.
    9000002   -1    0    0    0    0 -0.00000000000E+00 -0.00000000000E+00  0.00000000000E+00  0.93800000000E+00  0.93800000000E+00 0. -1.
         11    1    1    2    0    0 -0.17586341858E-01  0.18743935217E-03  0.22906364734E+00  0.22973839515E+00  0.51100000000E-03 0.  1.
    9000002    1    1    2    0    0  0.11449512293E+00  0.21060084982E+00  0.38801317244E-01  0.96892280051E+00  0.93800000000E+00 0. -1.
         22    1    1    2    0    0 -0.96908781077E-01 -0.21078828918E+00  0.37321350028E+01  0.37393388043E+01  0.00000000000E+00 0.  1.
</event>
<event>
 5    1  0.1643085E+002  0.1575482E+01  0.7818608E-02  0.3380413E+00
         11   -1    0    0    0    0  0.00000000000E+00  0.00000000000E+00  0.39999999674E+01  0.40000000000E+01  0.51100000000E-03 0. -1.
    9000002   -1    0    0    0    0 -0.00000000000E+00 -0.00000000000E+00  0.00000000000E+00  0.93800000000E+00  0.93800000000E+00 0.  1.
         11    1    1    2    0    0  0.90081231133E-01  0.58305790974E-01  0.48129210330E+00  0.49310905820E+00  0.51100000000E-03 0. -1.
    9000002    1    1    2    0    0  0.87222420394E-01  0.95409434553E-01  0.29007619553E-01  0.94730995604E+00  0.93800000000E+00 0.  1.
         22    1    1    2    0    0 -0.17730365153E+00 -0.15371522553E+00  0.34897002445E+01  0.34975809858E+01  0.00000000000E+00 0. -1.
</event>
<event>
 5    1  0.1560836E+002  0.1563968E+01  0.7818608E-02  0.3393424E+00
         11   -1    0    0    0    0  0.00000000000E+00  0.00000000000E+00  0.39999999674E+01  0.40000000000E+01  0.51100000000E-03 0.  1.
    9000002   -1    0    0    0    0 -0.00000000000E+00 -0.00000000000E+00  0.00000000000E+00  0.93800000000E+00  0.93800000000E+00 0.  1.
         11    1    1    2    0    0 -0.26628163319E+00  0.45517705944E-01  0.15951708097E+01  0.16178837854E+01  0.51100000000E-03 0.  1.
    9000002    1    1    2    0    0  0.12754550117E+00 -0.26818608425E+00  0.87265510037E-01  0.98775042389E+00  0.93800000000E+00 0.  1.
         22    1    1    2    0    0  0.13873613202E+00  0.22266837830E+00  0.23175636476E+01  0.23323657907E+01  0.00000000000E+00 0.  1.
</event>
<event>
 5    1  0.1560836E+002  0.1595204E+01  0.7818608E-02  0.3358585E+00
         11   -1    0    0    0    0  0.00000000000E+00  0.00000000000E+00  0.39999999674E+01  0.40000000000E+01  0.51100000000E-03 0.  1.
    9000002   -1    0    0    0    0 -0.00000000000E+00 -0.00000000000E+00  0.00000000000E+00  0.93800000000E+00  0.93800000000E+00 0. -1.
         11    1    1    2    0    0 -0.36200885602E-01  0.13908199060E-01  0.73482279185E+00  0.73584559431E+00  0.51100000000E-03 0.  1.
    9000002    1    1    2    0    0  0.16075829487E+00  0.25985605591E+00  0.65839047309E-01  0.98870985598E+00  0.93800000000E+00 0. -1.
         22    1    1    2    0    0 -0.12455740927E+00 -0.27376425497E+00  0.31993381282E+01  0.32134445497E+01  0.00000000000E+00 0.  1.
</event>
<event>
 5    1  0.1560836E+002  0.1598764E+01  0.7818608E-02  0.3354706E+00
         11   -1    0    0    0    0  0.00000000000E+00  0.00000000000E+00  0.39999999674E+01  0.40000000000E+01  0.51100000000E-03 0. -1.
    9000002   -1    0    0    0    0 -0.00000000000E+00 -0.00000000000E+00  0.00000000000E+00  0.93800000000E+00  0.93800000000E+00 0. -1.
         11    1    1    2    0    0  0.17743232476E-01  0.35959175652E-02  0.30280389632E+00  0.30334504062E+00  0.51100000000E-03 0. -1.
    9000002    1    1    2    0    0 -0.12339727627E+00  0.18110997425E+00  0.32523572606E-01  0.96380988444E+00  0.93800000000E+00 0. -1.
         22    1    1    2    0    0  0.10565404379E+00 -0.18470589182E+00  0.36646724984E+01  0.36708450749E+01  0.00000000000E+00 0. -1.
</event>
<event>
 5    1  0.1560836E+002  0.1286391E+01  0.7818608E-02  0.3808308E+00
         11   -1    0    0    0    0  0.00000000000E+00  0.00000000000E+00  0.39999999674E+01  0.40000000000E+01  0.51100000000E-03 0.  1.
    9000002   -1    0    0    0    0 -0.00000000000E+00 -0.00000000000E+00  0.00000000000E+00  0.93800000000E+00  0.93800000000E+00 0.  1.
         11    1    1    2    0    0 -0.10097227112E+00 -0.68672617462E+00  0.16771058861E+01  0.18150682226E+01  0.51100000000E-03 0.  1.
    9000002    1    1    2    0    0 -0.24554459083E+00  0.10893009649E+00  0.34739654882E+00  0.10357056890E+01  0.93800000000E+00 0.  1.
         22    1    1    2    0    0  0.34651686195E+00  0.57779607813E+00  0.19754975325E+01  0.20872260884E+01  0.00000000000E+00 0. -1.
</event>
<event>
 5    1  0.1560836E+002  0.1537913E+01  0.7818608E-02  0.3423636E+00
         11   -1    0    0    0    0  0.00000000000E+00  0.00000000000E+00  0.39999999674E+01  0.40000000000E+01  0.51100000000E-03 0. -1.
    9000002   -1    0    0    0    0 -0.00000000000E+00 -0.00000000000E+00  0.00000000000E+00  0.93800000000E+00  0.93800000000E+00 0.  1.
         11    1    1    2    0    0  0.37317055630E+00 -0.31869853819E+00  0.18551567452E+01  0.19189663448E+01  0.51100000000E-03 0. -1.
    9000002    1    1    2    0    0 -0.15105741526E+00  0.56489244238E+00  0.30096176140E+00  0.11455757487E+01  0.93800000000E+00 0.  1.
         22    1    1    2    0    0 -0.22211314104E+00 -0.24619390419E+00  0.18438814608E+01  0.18734579065E+01  0.00000000000E+00 0. -1.
</event>
<event>
 5    1  0.1560836E+002  0.1599677E+01  0.7818608E-02  0.3353714E+00
         11   -1    0    0    0    0  0.00000000000E+00  0.00000000000E+00  0.39999999674E+01  0.40000000000E+01  0.51100000000E-03 0. -1.
    9000002   -1    0    0    0    0 -0.00000000000E+00 -0.00000000000E+00  0.00000000000E+00  0.93800000000E+00  0.93800000000E+00 0.  1.
         11    1    1    2    0    0 -0.24377527112E+00  0.78118635723E-01  0.21101549051E+01  0.21256252935E+01  0.51100000000E-03 0. -1.
    9000002    1    1    2    0    0  0.44479430993E+00 -0.14234058719E+00  0.14851269498E+00  0.10583018669E+01  0.93800000000E+00 0.  1.
         22    1    1    2    0    0 -0.20101903881E+00  0.64221951472E-01  0.17413323673E+01  0.17540728396E+01  0.00000000000E+00 0. -1.
</event>
<event>
 5    1  0.1560836E+002  0.1598596E+01  0.7818608E-02  0.3354888E+00
         11   -1    0    0    0    0  0.00000000000E+00  0.00000000000E+00  0.39999999674E+01  0.40000000000E+01  0.51100000000E-03 0. -1.
    9000002   -1    0    0    0    0 -0.00000000000E+00 -0.00000000000E+00  0.00000000000E+00  0.93800000000E+00  0.93800000000E+00 0.  1.
         11    1    1    2    0    0 -0.18573234756E-01  0.15821195864E+00  0.12315425748E+01  0.12418024656E+01  0.51100000000E-03 0. -1.
    9000002    1    1    2    0    0  0.10340894214E+00 -0.39178220944E+00  0.11172460121E+00  0.10278682286E+01  0.93800000000E+00 0.  1.
         22    1    1    2    0    0 -0.84835707383E-01  0.23357025081E+00  0.26567327913E+01  0.26683293057E+01  0.00000000000E+00 0. -1.
</event>
<event>
 5    1  0.1560836E+002  0.1599277E+01  0.7818608E-02  0.3354149E+00
         11   -1    0    0    0    0  0.00000000000E+00  0.00000000000E+00  0.39999999674E+01  0.40000000000E+01  0.51100000000E-03 0.  1.
    9000002   -1    0    0    0    0 -0.00000000000E+00 -0.00000000000E+00  0.00000000000E+00  0.93800000000E+00  0.93800000000E+00 0.  1.
         11    1    1    2    0    0  0.53626198148E-02 -0.15440834821E+00  0.10216739069E+01  0.10332901475E+01  0.51100000000E-03 0.  1.
    9000002    1    1    2    0    0 -0.71243595535E-01  0.51502318962E+00  0.18605518531E+00  0.10884783267E+01  0.93800000000E+00 0.  1.
         22    1    1    2    0    0  0.65880975720E-01 -0.36061484141E+00  0.27922708751E+01  0.28162315258E+01  0.00000000000E+00 0.  1.
</event>
<event>
 5    1  0.1560836E+002  0.1547826E+01  0.7818608E-02  0.3412014E+00
         11   -1    0    0    0    0  0.00000000000E+00  0.00000000000E+00  0.39999999674E+01  0.40000000000E+01  0.51100000000E-03 0. -1.
    9000002   -1    0    0    0    0 -0.00000000000E+00 -0.00000000000E+00  0.00000000000E+00  0.93800000000E+00  0.93800000000E+00 0. -1.
         11    1    1    2    0    0  0.19699320660E+00  0.12434027933E-01  0.71592021394E+00  0.74263244095E+00  0.51100000000E-03 0. -1.
    9000002    1    1    2    0    0  0.65608317514E-01  0.13231318250E+00  0.53669530463E-01  0.95107079026E+00  0.93800000000E+00 0. -1.
         22    1    1    2    0    0 -0.26260152412E+00 -0.14474721044E+00  0.32304102230E+01  0.32442967688E+01  0.00000000000E+00 0. -1.
</event>
<event>
 5    1  0.1560836E+002  0.1599664E+01  0.7818608E-02  0.3353728E+00
         11   -1    0    0    0    0  0.00000000000E+00  0.00000000000E+00  0.39999999674E+01  0.40000000000E+01  0.51100000000E-03 0.  1.
    9000002   -1    0    0    0    0 -0.00000000000E+00 -0.00000000000E+00  0.00000000000E+00  0.93800000000E+00  0.93800000000E+00 0. -1.
         11    1    1    2    0    0  0.86135878182E-02  0.13637159494E-01  0.28853805386E+00  0.28898898883E+00  0.51100000000E-03 0.  1.
    9000002    1    1    2    0    0 -0.14823838338E+00 -0.18074603185E+00  0.36265756067E-01  0.96736908747E+00  0.93800000000E+00 0. -1.
         22    1    1    2    0    0  0.13962479556E+00  0.16710887236E+00  0.36751961574E+01  0.36816419237E+01  0.00000000000E+00 0.  1.
</event>
<event>
 5    1  0.1560836E+002  0.1586475E+01  0.7818608E-02  0.3368175E+00
         11   -1    0    0    0    0  0.00000000000E+00  0.00000000000E+00  0.39999999674E+01  0.40000000000E+01  0.51100000000E-03 0.  1.
    9000002   -1    0    0    0    0 -0.00000000000E+00 -0.00000000000E+00  0.00000000000E+00  0.93800000000E+00  0.93800000000E+00 0.  1.
         11    1    1    2    0    0 -0.14542153663E+00  0.42960156348E-01  0.13788763503E+01  0.13871889738E+01  0.51100000000E-03 0.  1.
    9000002    1    1    2    0    0  0.75856320408E-01 -0.28612079016E+00  0.68814442221E-01  0.98600137696E+00  0.93800000000E+00 0.  1.
         22    1    1    2    0    0  0.69565216219E-01  0.24316063381E+00  0.25523091748E+01  0.25648096493E+01  0.00000000000E+00 0.  1.
</event>
<event>
 5    1  0.1560836E+002  0.1599545E+01  0.7818608E-02  0.3353857E+00
         11   -1    0    0    0    0  0.00000000000E+00  0.00000000000E+00  0.39999999674E+01  0.40000000000E+01  0.51100000000E-03 0.  1.
    9000002   -1    0    0    0    0 -0.00000000000E+00 -0.00000000000E+00  0.00000000000E+00  0.93800000000E+00  0.93800000000E+00 0.  1.
         11    1    1    2    0    0  0.14903453284E+00 -0.22979707752E+00  0.16757049315E+01  0.16979414794E+01  0.51100000000E-03 0.  1.
    9000002    1    1    2    0    0 -0.32132555147E+00  0.53962964676E+00  0.27705265473E+00  0.11623478133E+01  0.93800000000E+00 0.  1.
         22    1    1    2    0    0  0.17229101863E+00 -0.30983256924E+00  0.20472423811E+01  0.20777107072E+01  0.00000000000E+00 0.  1.
</event>
<event>
 5    1  0.1560836E+002  0.1599658E+01  0.7818608E-02  0.3353734E+00
         11   -1    0    0    0    0  0.00000000000E+00  0.00000000000E+00  0.39999999674E+01  0.40000000000E+01  0.51100000000E-03 0.  1.
    9000002   -1    0    0    0    0 -0.00000000000E+00 -0.00000000000E+00  0.00000000000E+00  0.93800000000E+00  0.93800000000E+00 0. -1.
         11    1    1    2    0    0  0.22517246224E-01  0.16456537054E+00  0.15236211470E+01  0.15326481815E+01  0.51100000000E-03 0.  1.
    9000002    1    1    2    0    0 -0.45030396962E-01 -0.41518402298E+00  0.11792906047E+00  0.10335167018E+01  0.93800000000E+00 0. -1.
         22    1    1    2    0    0  0.22513150738E-01  0.25061865243E+00  0.23584497599E+01  0.23718351167E+01  0.00000000000E+00 0.  1.
</event>
<event>
 5    1  0.1560836E+002  0.1588802E+01  0.7818608E-02  0.3365608E+00
         11   -1    0    0    0    0  0.00000000000E+00  0.00000000000E+00  0.39999999674E+01  0.40000000000E+01  0.51100000000E-03 0. -1.
    9000002   -1    0    0    0    0 -0.00000000000E+00 -0.00000000000E+00  0.00000000000E+00  0.93800000000E+00  0.93800000000E+00 0. -1.
         11    1    1    2    0    0  0.45649207874E-02  0.75370253341E-01  0.26063367112E+01  0.26074303111E+01  0.51100000000E-03 0. -1.
    9000002    1    1    2    0    0  0.13353555793E+00 -0.22748531231E+00  0.54681854598E-01  0.97591773105E+00  0.93800000000E+00 0. -1.
         22    1    1    2    0    0 -0.13810047871E+00  0.15211505897E+00  0.13389814015E+01  0.13546519579E+01  0.00000000000E+00 0. -1.
</event>
<event>
 5    1  0.1560836E+002  0.1599556E+01  0.7818608E-02  0.3353845E+00
         11   -1    0    0    0    0  0.00000000000E+00  0.00000000000E+00  0.39999999674E+01  0.40000000000E+01  0.51100000000E-03 0. -1.
    9000002   -1    0    0    0    0 -0.00000000000E+00 -0.00000000000E+00  0.00000000000E+00  0.93800000000E+00  0.93800000000E+00 0. -1.
         11    1    1    2    0    0  0.16724935306E-02 -0.19567231454E-01  0.50731490092E+00  0.50769512859E+00  0.51100000000E-03 0. -1.
    9000002    1    1    2    0    0 -0.17751411673E-02  0.22117818906E+00  0.32522960903E-01  0.96427417544E+00  0.93800000000E+00 0. -1.
         22    1    1    2    0    0  0.10264763671E-03 -0.20161095760E+00  0.34601621055E+01  0.34660306960E+01  0.00000000000E+00 0. -1.
</event>
<event>
 5    1  0.1560836E+002  0.1599677E+01  0.7818608E-02  0.3353714E+00
         11   -1    0    0    0    0  0.00000000000E+00  0.00000000000E+00  0.39999999674E+01  0.40000000000E+01  0.51100000000E-03 0. -1.
    9000002   -1    0    0    0    0 -0.00000000000E+00 -0.00000000000E+00  0.00000000000E+00  0.93800000000E+00  0.93800000000E+00 0. -1.
         11    1    1    2    0    0  0.69861400383E-01 -0.87002381492E-01  0.11918695726E+01  0.11970811872E+01  0.51100000000E-03 0. -1.
    9000002    1    1    2    0    0 -0.23017998937E+00  0.28600705962E+00  0.90548998542E-01  0.10113485981E+01  0.93800000000E+00 0. -1.
         22    1    1    2    0    0  0.16031858898E+00 -0.19900467812E+00  0.27175813962E+01  0.27295702147E+01  0.00000000000E+00 0. -1.
</event>
<event>
 5    1  0.1560836E+002  0.1599388E+01  0.7818608E-02  0.3354028E+00
         11   -1    0    0    0    0  0.00000000000E+00  0.00000000000E+00  0.39999999674E+01  0.40000000000E+01  0.51100000000E-03 0. -1.
    9000002   -1    0    0    0    0 -0.00000000000E+00 -0.00000000000E+00  0.00000000000E+00  0.93800000000E+00  0.93800000000E+00 0.  1.
         11    1    1    2    0    0 -0.40799172665E-01  0.31399233704E-01  0.42883930383E+00  0.43191885117E+00  0.51100000000E-03 0. -1.
    9000002    1    1    2    0    0  0.31180828467E+00 -0.18601139124E+00  0.88754842826E-01  0.10097257381E+01  0.93800000000E+00 0.  1.
         22    1    1    2    0    0 -0.27100911200E+00  0.15461215753E+00  0.34824058207E+01  0.34963554107E+01  0.00000000000E+00 0. -1.
</event>
<event>
 5    1  0.1560836E+002  0.1599677E+01  0.7818608E-02  0.3353714E+00
         11   -1    0    0    0    0  0.00000000000E+00  0.00000000000E+00  0.39999999674E+01  0.40000000000E+01  0.51100000000E-03 0. -1.
    9000002   -1    0    0    0    0 -0.00000000000E+00 -0.00000000000E+00  0.00000000000E+00  0.93800000000E+00  0.93800000000E+00 0. -1.
         11    1    1    2    0    0  0.16430456494E+00 -0.10611982945E+00  0.13482801808E+01  0.13623938914E+01  0.51100000000E-03 0. -1.
    9000002    1    1    2    0    0 -0.46314752786E+00  0.29878242825E+00  0.20986516217E+00  0.11079999812E+01  0.93800000000E+00 0. -1.
         22    1    1    2    0    0  0.29884296293E+00 -0.19266259879E+00  0.24418546244E+01  0.24676061275E+01  0.00000000000E+00 0. -1.
</event>
<event>
 5    1  0.1560836E+002  0.1584953E+01  0.7818608E-02  0.3369858E+00
         11   -1    0    0    0    0  0.00000000000E+00  0.00000000000E+00  0.39999999674E+01  0.40000000000E+01  0.51100000000E-03 0. -1.
    9000002   -1    0    0    0    0 -0.00000000000E+00 -0.00000000000E+00  0.00000000000E+00  0.93800000000E+00  0.93800000000E+00 0. -1.
         11    1    1    2    0    0 -0.36327663432E-02 -0.74247693521E-01  0.70716372648E+00  0.71106027463E+00  0.51100000000E-03 0. -1.
    9000002    1    1    2    0    0 -0.15920027343E+00 -0.18426886037E+00  0.50678773951E-01  0.97041850667E+00  0.93800000000E+00 0. -1.
         22    1    1    2    0    0  0.16283303977E+00  0.25851655389E+00  0.32421574669E+01  0.32565212187E+01  0.00000000000E+00 0. -1.
</event>
<event>
 5    1  0.1560836E+002  0.1599661E+01  0.7818608E-02  0.3353731E+00
         11   -1    0    0    0    0  0.00000000000E+00  0.00000000000E+00  0.39999999674E+01  0.40000000000E+01  0.51100000000E-03 0. -1.
    9000002   -1    0    0    0    0 -0.00000000000E+00 -0.00000000000E+00  0.00000000000E+00  0.93800000000E+00  0.93800000000E+00 0.  1.
         11    1    1    2    0    0  0.13592741963E+00 -0.89406659522E-02  0.14760551868E+01  0.14823276880E+01  0.51100000000E-03 0. -1.
    9000002    1    1    2    0    0 -0.34991053091E+00  0.29872199992E-01  0.82717633142E-01  0.10049954899E+01  0.93800000000E+00 0.  1.
         22    1    1    2    0    0  0.21398311129E+00 -0.20931534040E-01  0.24412271474E+01  0.24506768221E+01  0.00000000000E+00 0. -1.
</event>
<event>
 5    1  0.1560836E+002  0.1540979E+01  0.7818608E-02  0.3420025E+00
         11   -1    0    0    0    0  0.00000000000E+00  0.00000000000E+00  0.39999999674E+01  0.40000000000E+01  0.51100000000E-03 0.  1.
    9000002   -1    0    0    0    0 -0.00000000000E+00 -0.00000000000E+00  0.00000000000E+00  0.93800000000E+00  0.93800000000E+00 0. -1.
         11    1    1    2    0    0  0.83159042494E-01 -0.23740385017E+00  0.12137282792E+01  0.12395211217E+01  0.51100000000E-03 0.  1.
    9000002    1    1    2    0    0  0.13938686999E+00 -0.21551489162E-02  0.57347002794E-01  0.95003474827E+00  0.93800000000E+00 0. -1.
         22    1    1    2    0    0 -0.22254591248E+00  0.23955899908E+00  0.27289246854E+01  0.27484441300E+01  0.00000000000E+00 0.  1.
</event>
<event>
 5    1  0.1560836E+002  0.1599676E+01  0.7818608E-02  0.3353715E+00
         11   -1    0    0    0    0  0.00000000000E+00  0.00000000000E+00  0.39999999674E+01  0.40000000000E+01  0.51100000000E-03 0. -1.
    9000002   -1    0    0    0    0 -0.00000000000E+00 -0.00000000000E+00  0.00000000000E+00  0.93800000000E+00  0.93800000000E+00 0.  1.
         11    1    1    2    0    0 -0.21354441556E-01  0.49782497339E-01  0.39133655275E+00  0.39506818127E+00  0.51100000000E-03 0.  1.
    9000002    1    1    2    0    0  0.20416897981E+00 -0.48655978714E+00  0.19151696599E+00  0.10931368382E+01  0.93800000000E+00 0.  1.
         22    1    1    2    0    0 -0.18281453825E+00  0.43677728980E+00  0.34171464486E+01  0.34497949805E+01  0.00000000000E+00 0. -1.
</event>
<event>
 5    1  0.1560836E+002  0.1599676E+01  0.7818608E-02  0.3353715E+00
         11   -1    0    0    0    0  0.00000000000E+00  0.00000000000E+00  0.39999999674E+01  0.40000000000E+01  0.51100000000E-03 0.  1.
    9000002   -1    0    0    0    0 -0.00000000000E+00 -0.00000000000E+00  0.00000000000E+00  0.93800000000E+00  0.93800000000E+00 0. -1.
         11    1    1    2    0    0  0.18931654813E+00 -0.86804748911E-01  0.14972100332E+01  0.15116262648E+01  0.51100000000E-03 0.  1.
    9000002    1    1    2    0    0 -0.48102229506E+00  0.22378336525E+00  0.19370597121E+00  0.10949097891E+01  0.93800000000E+00 0. -1.
         22    1    1    2    0    0  0.29170574693E+00 -0.13697861634E+00  0.23090839629E+01  0.23314639461E+01  0.00000000000E+00 0.  1.
</event>
<event>
 5    1  0.1560836E+002  0.1588950E+01  0.7818608E-02  0.3365444E+00
         11   -1    0    0    0    0  0.00000000000E+00  0.00000000000E+00  0.39999999674E+01  0.40000000000E+01  0.51100000000E-03 0. -1.
    9000002   -1    0    0    0    0 -0.00000000000E+00 -0.00000000000E+00  0.00000000000E+00  0.93800000000E+00  0.93800000000E+00 0. -1.
         11    1    1    2    0    0 -0.21721753174E-01 -0.19058814301E-01  0.58101820720E-01  0.64893417659E-01  0.51100000000E-03 0. -1.
    9000002    1    1    2    0    0 -0.31153728745E+00  0.20165275644E+00  0.10136954722E+00  0.10138239989E+01  0.93800000000E+00 0. -1.
         22    1    1    2    0    0  0.33325904062E+00 -0.18259394213E+00  0.38405285994E+01  0.38592825834E+01  0.00000000000E+00 0. -1.
</event>
<event>
 5    1  0.1560836E+002  0.1599261E+01  0.7818608E-02  0.3354166E+00
         11   -1    0    0    0    0  0.00000000000E+00  0.00000000000E+00  0.39999999674E+01  0.40000000000E+01  0.51100000000E-03 0. -1.
    9000002   -1    0    0    0    0 -0.00000000000E+00 -0.00000000000E+00  0.00000000000E+00  0.93800000000E+00  0.93800000000E+00 0.  1.
         11    1    1    2    0    0 -0.12708372398E+00  0.19613815758E+00  0.20200888120E+01  0.20335632568E+01  0.51100000000E-03 0. -1.
    9000002    1    1    2    0    0  0.20339880217E+00 -0.40010265314E+00  0.13715911905E+00  0.10488612061E+01  0.93800000000E+00 0.  1.
         22    1    1    2    0    0 -0.76315078190E-01  0.20396449557E+00  0.18427520363E+01  0.18555755371E+01  0.00000000000E+00 0. -1.
</event>
<event>
 5    1  0.1560836E+002  0.1575670E+01  0.7818608E-02  0.3380202E+00
         11   -1    0    0    0    0  0.00000000000E+00  0.00000000000E+00  0.39999999674E+01  0.40000000000E+01  0.51100000000E-03 0. -1.
    9000002   -1    0    0    0    0 -0.00000000000E+00 -0.00000000000E+00  0.00000000000E+00  0.93800000000E+00  0.93800000000E+00 0.  1.
         11    1    1    2    0    0  0.11230326944E+00 -0.70275773606E-01  0.70048528929E+00  0.71290294593E+00  0.51100000000E-03 0. -1.
    9000002    1    1    2    0    0  0.14815141465E+00  0.20333582743E+00  0.60640772139E-01  0.97304450239E+00  0.93800000000E+00 0.  1.
         22    1    1    2    0    0 -0.26045468409E+00 -0.13306005382E+00  0.32388739059E+01  0.32520525517E+01  0.00000000000E+00 0. -1.
</event>
<event>
 5    1  0.1560836E+002  0.1599671E+01  0.7818608E-02  0.3353720E+00
         11   -1    0    0    0    0  0.00000000000E+00  0.00000000000E+00  0.39999999674E+01  0.40000000000E+01  0.51100000000E-03 0.  1.
    9000002   -1    0    0    0    0 -0.00000000000E+00 -0.00000000000E+00  0.00000000000E+00  0.93800000000E+00  0.93800000000E+00 0. -1.
         11    1    1    2    0    0  0.35012144398E-01  0.19685829262E+00  0.14939451300E+01  0.15072661843E+01  0.51100000000E-03 0.  1.
    9000002    1    1    2    0    0 -0.95508030574E-01 -0.50677966221E+00  0.18255111261E+00  0.10858712256E+01  0.93800000000E+00 0. -1.
         22    1    1    2    0    0  0.60495886176E-01  0.30992136960E+00  0.23235037247E+01  0.23448625901E+01  0.00000000000E+00 0.  1.
</event>
<event>
 5    1  0.1560836E+002  0.1599653E+01  0.7818608E-02  0.3353740E+00
         11   -1    0    0    0    0  0.00000000000E+00  0.00000000000E+00  0.39999999674E+01  0.40000000000E+01  0.51100000000E-03 0.  1.
    9000002   -1    0    0    0    0 -0.00000000000E+00 -0.00000000000E+00  0.00000000000E+00  0.93800000000E+00  0.93800000000E+00 0. -1.
         11    1    1    2    0    0 -0.75623685520E-03  0.29603225571E-02  0.79847098122E-01  0.79907168660E-01  0.51100000000E-03 0.  1.
    9000002    1    1    2    0    0  0.87257020262E-01 -0.20853768942E+00  0.33905691729E-01  0.96545085397E+00  0.93800000000E+00 0. -1.
         22    1    1    2    0    0 -0.86500783407E-01  0.20557736687E+00  0.38862471775E+01  0.38926419774E+01  0.00000000000E+00 0.  1.
</event>
<event>
 5    1  0.1560836E+002  0.1581194E+01  0.7818608E-02  0.3374031E+00
         11   -1    0    0    0    0  0.00000000000E+00  0.00000000000E+00  0.39999999674E+01  0.40000000000E+01  0.51100000000E-03 0. -1.
    9000002   -1    0    0    0    0 -0.00000000000E+00 -0.00000000000E+00  0.00000000000E+00  0.93800000000E+00  0.93800000000E+00 0. -1.
         11    1    1    2    0    0 -0.81034864328E-01 -0.45869504733E-01  0.64300583106E+00  0.64971333725E+00  0.51100000000E-03 0. -1.
    9000002    1    1    2    0    0 -0.12382751352E+00 -0.12302521511E+00  0.34006422733E-01  0.95470880034E+00  0.93800000000E+00 0. -1.
         22    1    1    2    0    0  0.20486237785E+00  0.16889471984E+00  0.33229877136E+01  0.33335778624E+01  0.00000000000E+00 0. -1.
</event>
<event>
 5    1  0.1560836E+002  0.1597452E+01  0.7818608E-02  0.3356133E+00
         11   -1    0    0    0    0  0.00000000000E+00  0.00000000000E+00  0.39999999674E+01  0.40000000000E+01  0.51100000000E-03 0. -1.
    9000002   -1    0    0    0    0 -0.00000000000E+00 -0.00000000000E+00  0.00000000000E+00  0.93800000000E+00  0.93800000000E+00 0.  1.
         11    1    1    2    0    0  0.26292656178E+00  0.39278379097E+00  0.22093982456E+01  0.22593915890E+01  0.51100000000E-03 0. -1.
    9000002    1    1    2    0    0 -0.37930681024E+00 -0.57573422975E+00  0.34122780985E+00  0.12131050976E+01  0.93800000000E+00 0.  1.
         22    1    1    2    0    0  0.11638024846E+00  0.18295043878E+00  0.14493739119E+01  0.14655033134E+01  0.00000000000E+00 0. -1.
</event>
<event>
 5    1  0.1560836E+002  0.1599672E+01  0.7818608E-02  0.3353719E+00
         11   -1    0    0    0    0  0.00000000000E+00  0.00000000000E+00  0.39999999674E+01  0.40000000000E+01  0.51100000000E-03 0.  1.
    9000002   -1    0    0    0    0 -0.00000000000E+00 -0.00000000000E+00  0.00000000000E+00  0.93800000000E+00  0.93800000000E+00 0.  1.
         11    1    1    2    0    0 -0.26221320598E-01  0.66002391469E-01  0.97309194838E+00  0.97568031365E+00  0.51100000000E-03 0.  1.
    9000002    1    1    2    0    0  0.11542014821E+00 -0.26834366885E+00  0.56887361346E-01  0.98407840496E+00  0.93800000000E+00 0.  1.
         22    1    1    2    0    0 -0.89198827611E-01  0.20234127738E+00  0.29700206576E+01  0.29782412814E+01  0.00000000000E+00 0.  1.
</event>
<event>
 5    1  0.1560836E+002  0.1599629E+01  0.7818608E-02  0.3353766E+00
         11   -1    0    0    0    0  0.00000000000E+00  0.00000000000E+00  0.39999999674E+01  0.40000000000E+01  0.51100000000E-03 0.  1.
    9000002   -1    0    0    0    0 -0.00000000000E+00 -0.00000000000E+00  0.00000000000E+00  0.93800000000E+00  0.93800000000E+00 0.  1.
         11    1    1    2    0    0  0.18664583635E-01  0.30287450251E-01  0.39036934735E+00  0.39198748041E+00  0.51100000000E-03 0.  1.
    9000002    1    1    2    0    0 -0.23491700659E+00 -0.31333963255E+00  0.10337933370E+00  0.10217137622E+01  0.93800000000E+00 0.  1.
         22    1    1    2    0    0  0.21625242296E+00  0.28305218229E+00  0.35062512863E+01  0.35242987574E+01  0.00000000000E+00 0.  1.
</event>
<event>
 5    1  0.1560836E+002  0.1599674E+01  0.7818608E-02  0.3353717E+00
         11   -1    0    0    0    0  0.00000000000E+00  0.00000000000E+00  0.39999999674E+01  0.40000000000E+01  0.51100000000E-03 0.  1.
    9000002   -1    0    0    0    0 -0.00000000000E+00 -0.00000000000E+00  0.00000000000E+00  0.93800000000E+00  0.93800000000E+00 0. -1.
         11    1    1    2    0    0 -0.74141625667E-01 -0.76132480205E-01  0.11541578501E+01  0.11590400076E+01  0.51100000000E-03 0.  1.
    9000002    1    1    2    0    0  0.24710334323E+00  0.25349182321E+00  0.84066980898E-01  0.10060961306E+01  0.93800000000E+00 0. -1.
         22    1    1    2    0    0 -0.17296171756E+00 -0.17735934301E+00  0.27617751363E+01  0.27728638618E+01  0.00000000000E+00 0.  1.
</event>
<event>
 5    1  0.1560836E+002  0.1597827E+01  0.7818608E-02  0.3355726E+00
         11   -1    0    0    0    0  0.00000000000E+00  0.00000000000E+00  0.39999999674E+01  0.40000000000E+01  0.51100000000E-03 0. -1.
    9000002   -1    0    0    0    0 -0.00000000000E+00 -0.00000000000E+00  0.00000000000E+00  0.93800000000E+00  0.93800000000E+00 0.  1.
         11    1    1    2    0    0  0.25993089945E-03 -0.33332806699E-01  0.10585689236E+01  0.10590937497E+01  0.51100000000E-03 0. -1.
    9000002    1    1    2    0    0 -0.16760914565E+00  0.16550963084E+00  0.38226279050E-01  0.96787990578E+00  0.93800000000E+00 0.  1.
         22    1    1    2    0    0  0.16734921475E+00 -0.13217682415E+00  0.29032047647E+01  0.29110263445E+01  0.00000000000E+00 0. -1.
</event>
<event>
 5    1  0.1560836E+002  0.1599675E+01  0.7818608E-02  0.3353716E+00
         11   -1    0    0    0    0  0.00000000000E+00  0.00000000000E+00  0.39999999674E+01  0.40000000000E+01  0.51100000000E-03 0. -1.
    9000002   -1    0    0    0    0 -0.00000000000E+00 -0.00000000000E+00  0.00000000000E+00  0.93800000000E+00  0.93800000000E+00 0.  1.
         11    1    1    2    0    0  0.70545888140E-01 -0.10233693601E+00  0.91690669338E+00  0.92529331365E+00  0.51100000000E-03 0. -1.
    9000002    1    1    2    0    0 -0.28866529924E+00  0.42441604191E+00  0.18076172787E+00  0.10844240102E+01  0.93800000000E+00 0.  1.
         22    1    1    2    0    0  0.21811941109E+00 -0.32207910590E+00  0.29023315461E+01  0.29282826762E+01  0.00000000000E+00 0. -1.
</event>
<event>
 5    1  0.1560836E+002  0.1599657E+01  0.7818608E-02  0.3353736E+00
         11   -1    0    0    0    0  0.00000000000E+00  0.00000000000E+00  0.39999999674E+01  0.40000000000E+01  0.51100000000E-03 0.  1.
    9000002   -1    0    0    0    0 -0.00000000000E+00 -0.00000000000E+00  0.00000000000E+00  0.93800000000E+00  0.93800000000E+00 0.  1.
         11    1    1    2    0    0  0.25665401639E+00 -0.36416752484E+00  0.40572722045E+00  0.60258120516E+00  0.51100000000E-03 0.  1.
    9000002    1    1    2    0    0 -0.71768148730E+00  0.10019635530E+01  0.28921562797E+01  0.32807635734E+01  0.93800000000E+00 0.  1.
         22    1    1    2    0    0  0.46102747091E+00 -0.63779602815E+00  0.70211646722E+00  0.10546552214E+01  0.00000000000E+00 0. -1.
</event>
<event>
 5    1  0.1560836E+002  0.1599671E+01  0.7818608E-02  0.3353721E+00
         11   -1    0    0    0    0  0.00000000000E+00  0.00000000000E+00  0.39999999674E+01  0.40000000000E+01  0.51100000000E-03 0. -1.
    9000002   -1    0    0    0    0 -0.00000000000E+00 -0.00000000000E+00  0.00000000000E+00  0.93800000000E+00  0.93800000000E+00 0.  1.
         11    1    1    2    0    0 -0.93563486543E-01 -0.59183490073E-01  0.11900483440E+01  0.11951870706E+01  0.51100000000E-03 0. -1.
    9000002    1    1    2    0    0  0.29869848641E+00  0.19676503639E+00  0.85862131667E-01  0.10075482971E+01  0.93800000000E+00 0.  1.
         22    1    1    2    0    0 -0.20513499987E+00 -0.13758154632E+00  0.27240894917E+01  0.27352646323E+01  0.00000000000E+00 0. -1.
</event>
<event>
 5    1  0.1560836E+002  0.1599668E+01  0.7818608E-02  0.3353724E+00
         11   -1    0    0    0    0  0.00000000000E+00  0.00000000000E+00  0.39999999674E+01  0.40000000000E+01  0.51100000000E-03 0.  1.
    9000002   -1    0    0    0    0 -0.00000000000E+00 -0.00000000000E+00  0.00000000000E+00  0.93800000000E+00  0.93800000000E+00 0.  1.
         11    1    1    2    0    0  0.52120311215E-02 -0.16171300876E-01  0.11905457690E+00  0.12026192100E+00  0.51100000000E-03 0.  1.
    9000002    1    1    2    0    0 -0.12986370346E+00  0.50728455345E+00  0.18848461855E+00  0.10906753188E+01  0.93800000000E+00 0.  1.
         22    1    1    2    0    0  0.12465167234E+00 -0.49111325257E+00  0.36924607719E+01  0.37270627602E+01  0.00000000000E+00 0.  1.
</event>
<event>
 5    1  0.1560836E+002  0.1599670E+01  0.7818608E-02  0.3353721E+00
         11   -1    0    0    0    0  0.00000000000E+00  0.00000000000E+00  0.39999999674E+01  0.40000000000E+01  0.51100000000E-03 0. -1.
    9000002   -1    0    0    0    0 -0.00000000000E+00 -0.00000000000E+00  0.00000000000E+00  0.93800000000E+00  0.93800000000E+00 0. -1.
         11    1    1    2    0    0 -0.85321543968E-01  0.12444473635E+00  0.76030163116E+00  0.77512907940E+00  0.51100000000E-03 0. -1.
    9000002    1    1    2    0    0  0.40128184632E+00 -0.60388277510E+00  0.37832860766E+00  0.12444589433E+01  0.93800000000E+00 0. -1.
         22    1    1    2    0    0 -0.31596030235E+00  0.47943803875E+00  0.28613697285E+01  0.29184119773E+01  0.00000000000E+00 0. -1.
</event>
<event>
 5    1  0.1560836E+002  0.1599553E+01  0.7818608E-02  0.3353849E+00
         11   -1    0    0    0    0  0.00000000000E+00  0.00000000000E+00  0.39999999674E+01  0.40000000000E+01  0.51100000000E-03 0. -1.
    9000002   -1    0    0    0    0 -0.00000000000E+00 -0.00000000000E+00  0.00000000000E+00  0.93800000000E+00  0.93800000000E+00 0.  1.
         11    1    1    2    0    0 -0.15128955628E-01 -0.10676346980E-01  0.31052262194E+00  0.31107463660E+00  0.51100000000E-03 0. -1.
    9000002    1    1    2    0    0  0.22596858131E+00  0.50542519394E-01  0.35662667444E-01  0.96681547973E+00  0.93800000000E+00 0.  1.
         22    1    1    2    0    0 -0.21083962568E+00 -0.39866172414E-01  0.36538146780E+01  0.36601098837E+01  0.00000000000E+00 0. -1.
</event>
<event>
 5    1  0.1560836E+002  0.1493665E+01  0.7818608E-02  0.3477531E+00
         11   -1    0    0    0    0  0.00000000000E+00  0.00000000000E+00  0.39999999674E+01  0.40000000000E+01  0.51100000000E-03 0.  1.
    9000002   -1    0    0    0    0 -0.00000000000E+00 -0.00000000000E+00  0.00000000000E+00  0.93800000000E+00  0.93800000000E+00 0. -1.
         11    1    1    2    0    0  0.96283932244E-01 -0.32123456232E+00  0.72015327013E+00  0.79440747305E+00  0.51100000000E-03 0.  1.
    9000002    1    1    2    0    0  0.47012447808E+00  0.34716222975E+00  0.34981492391E+00  0.11592036575E+01  0.93800000000E+00 0. -1.
         22    1    1    2    0    0 -0.56640841032E+00 -0.25927667428E-01  0.29300317733E+01  0.29843888694E+01  0.00000000000E+00 0.  1.
</event>
<event>
 5    1  0.1560836E+002  0.1599647E+01  0.7818608E-02  0.3353747E+00
         11   -1    0    0    0    0  0.00000000000E+00  0.00000000000E+00  0.39999999674E+01  0.40000000000E+01  0.51100000000E-03 0.  1.
    9000002   -1    0    0    0    0 -0.00000000000E+00 -0.00000000000E+00  0.00000000000E+00  0.93800000000E+00  0.93800000000E+00 0. -1.
         11    1    1    2    0    0  0.43668794876E-01  0.16426539702E+00  0.16045819313E+01  0.16135592706E+01  0.51100000000E-03 0.  1.
    9000002    1    1    2    0    0 -0.10222919265E+00 -0.41238826145E+00  0.12218976067E+00  0.10369615343E+01  0.93800000000E+00 0. -1.
         22    1    1    2    0    0  0.58560397779E-01  0.24812286443E+00  0.22732282754E+01  0.22874791951E+01  0.00000000000E+00 0.  1.
</event>
<event>
 5    1  0.1560836E+002  0.1598413E+01  0.7818608E-02  0.3355087E+00
         11   -1    0    0    0    0  0.00000000000E+00  0.00000000000E+00  0.39999999674E+01  0.40000000000E+01  0.51100000000E-03 0.  1.
    9000002   -1    0    0    0    0 -0.00000000000E+00 -0.00000000000E+00  0.00000000000E+00  0.93800000000E+00  0.93800000000E+00 0. -1.
         11    1    1    2    0    0 -0.16812106256E+00  0.29469765998E+00  0.20035084795E+01  0.20320329454E+01  0.51100000000E-03 0.  1.
    9000002    1    1    2    0    0  0.32475678651E+00 -0.47407864017E+00  0.23040702680E+00  0.11238989836E+01  0.93800000000E+00 0. -1.
         22    1    1    2    0    0 -0.15663572395E+00  0.17938098019E+00  0.17660844610E+01  0.17820680710E+01  0.00000000000E+00 0.  1.
</event>
<event>
 5    1  0.1560836E+002  0.1599672E+01  0.7818608E-02  0.3353719E+00
         11   -1    0    0    0    0  0.00000000000E+00  0.00000000000E+00  0.39999999674E+01  0.40000000000E+01  0.51100000000E-03 0.  1.
    9000002   -1    0    0    0    0 -0.00000000000E+00 -0.00000000000E+00  0.00000000000E+00  0.93800000000E+00  0.93800000000E+00 0. -1.
         11    1    1    2    0    0 -0.37223892583E+00 -0.10013855796E-01  0.23705250644E+01  0.23995940151E+01  0.51100000000E-03 0.  1.
    9000002    1    1    2    0    0  0.58836061484E+00  0.12257251405E-01  0.24104488658E+00  0.11332542039E+01  0.93800000000E+00 0. -1.
         22    1    1    2    0    0 -0.21612168901E+00 -0.22433956088E-02  0.13884300164E+01  0.14051517810E+01  0.00000000000E+00 0. -1.
</event>
<event>
 5    1  0.1560836E+002  0.1597912E+01  0.7818608E-02  0.3355633E+00
         11   -1    0    0    0    0  0.00000000000E+00  0.00000000000E+00  0.39999999674E+01  0.40000000000E+01  0.51100000000E-03 0. -1.
    9000002   -1    0    0    0    0 -0.00000000000E+00 -0.00000000000E+00  0.00000000000E+00  0.93800000000E+00  0.93800000000E+00 0.  1.
         11    1    1    2    0    0 -0.13203855492E+00  0.30106412084E-01  0.14588514594E+01  0.14651240281E+01  0.51100000000E-03 0. -1.
    9000002    1    1    2    0    0  0.37478470533E+00  0.48560583603E-01  0.97520254814E-01  0.10159605828E+01  0.93800000000E+00 0.  1.
         22    1    1    2    0    0 -0.24274615041E+00 -0.78666995687E-01  0.24436282532E+01  0.24569153892E+01  0.00000000000E+00 0. -1.
</event>
<event>
 5    1  0.1560836E+002  0.1550678E+01  0.7818608E-02  0.3408699E+00
         11   -1    0    0    0    0  0.00000000000E+00  0.00000000000E+00  0.39999999674E+01  0.40000000000E+01  0.51100000000E-03 0. -1.
    9000002   -1    0    0    0    0 -0.00000000000E+00 -0.00000000000E+00  0.00000000000E+00  0.93800000000E+00  0.93800000000E+00 0. -1.
         11    1    1    2    0    0  0.18085739706E+00  0.15590836548E+00  0.31192188769E+01  0.31283451664E+01  0.51100000000E-03 0. -1.
    9000002    1    1    2    0    0 -0.16743098972E+00  0.71008299478E-01  0.59303254675E-01  0.95730673816E+00  0.93800000000E+00 0. -1.
         22    1    1    2    0    0 -0.13426407346E-01 -0.22691666496E+00  0.82147783575E+00  0.85234809548E+00  0.00000000000E+00 0. -1.
</event>
<event>
 5    1  0.1560836E+002  0.1599566E+01  0.7818608E-02  0.3353835E+00
         11   -1    0    0    0    0  0.00000000000E+00  0.00000000000E+00  0.39999999674E+01  0.40000000000E+01  0.51100000000E-03 0.  1.
    9000002   -1    0    0    0    0 -0.00000000000E+00 -0.00000000000E+00  0.00000000000E+00  0.93800000000E+00  0.93800000000E+00 0.  1.
         11    1    1    2    0    0  0.34341853160E-02 -0.63040890975E-02  0.10613905232E+00  0.10638277453E+00  0.51100000000E-03 0.  1.
    9000002    1    1    2    0    0 -0.21979061965E+00  0.11398497057E+00  0.40798864548E-01  0.97098354124E+00  0.93800000000E+00 0.  1.
         22    1    1    2    0    0  0.21635643434E+00 -0.10768088147E+00  0.38530620505E+01  0.38606336842E+01  0.00000000000E+00 0.  1.
</event>
<event>
 5    1  0.1560836E+002  0.1599677E+01  0.7818608E-02  0.3353714E+00
         11   -1    0    0    0    0  0.00000000000E+00  0.00000000000E+00  0.39999999674E+01  0.40000000000E+01  0.51100000000E-03 0. -1.
    9000002   -1    0    0    0    0 -0.00000000000E+00 -0.00000000000E+00  0.00000000000E+00  0.93800000000E+00  0.93800000000E+00 0.  1.
         11    1    1    2    0    0 -0.16576319602E-01 -0.30600119354E-01  0.55051880461E+00  0.55161794481E+00  0.51100000000E-03 0.  1.
    9000002    1    1    2    0    0  0.11888812797E+00  0.22138734717E+00  0.41952111174E-01  0.97198288261E+00  0.93800000000E+00 0.  1.
         22    1    1    2    0    0 -0.10231180837E+00 -0.19078722781E+00  0.34075290516E+01  0.34143991726E+01  0.00000000000E+00 0. -1.
</event>
<event>
 5    1  0.1560836E+002  0.1596536E+01  0.7818608E-02  0.3357132E+00
         11   -1    0    0    0    0  0.00000000000E+00  0.00000000000E+00  0.39999999674E+01  0.40000000000E+01  0.51100000000E-03 0.  1.
    9000002   -1    0    0    0    0 -0.00000000000E+00 -0.00000000000E+00  0.00000000000E+00  0.93800000000E+00  0.93800000000E+00 0. -1.
         11    1    1    2    0    0 -0.11085507445E-01  0.58244495468E-02  0.41859834698E+00  0.41878592371E+00  0.51100000000E-03 0.  1.
    9000002    1    1    2    0    0  0.48050572349E+00  0.24487633190E-01  0.16076385074E+00  0.10663838006E+01  0.93800000000E+00 0. -1.
         22    1    1    2    0    0 -0.46942021604E+00 -0.30312082737E-01  0.34206377696E+01  0.34528302757E+01  0.00000000000E+00 0.  1.
</event>
<event>
 5    1  0.1560836E+002  0.1596323E+01  0.7818608E-02  0.3357363E+00
         11   -1    0    0    0    0  0.00000000000E+00  0.00000000000E+00  0.39999999674E+01  0.40000000000E+01  0.51100000000E-03 0.  1.
    9000002   -1    0    0    0    0 -0.00000000000E+00 -0.00000000000E+00  0.00000000000E+00  0.93800000000E+00  0.93800000000E+00 0.  1.
         11    1    1    2    0    0 -0.19152403396E+00  0.92200888792E-01  0.16427105341E+01  0.16564059344E+01  0.51100000000E-03 0.  1.
    9000002    1    1    2    0    0  0.43392278129E+00 -0.55701963951E-01  0.13262810487E+00  0.10434682090E+01  0.93800000000E+00 0.  1.
         22    1    1    2    0    0 -0.24239874733E+00 -0.36498924841E-01  0.22246613284E+01  0.22381258566E+01  0.00000000000E+00 0.  1.
</event>
<event>
 5    1  0.1560836E+002  0.1599671E+01  0.7818608E-02  0.3353721E+00
         11   -1    0    0    0    0  0.00000000000E+00  0.00000000000E+00  0.39999999674E+01  0.40000000000E+01  0.51100000000E-03 0.  1.
    9000002   -1    0    0    0    0 -0.00000000000E+00 -0.00000000000E+00  0.00000000000E+00  0.93800000000E+00  0.93800000000E+00 0.  1.
         11    1    1    2    0    0  0.49330846467E-01 -0.40795728770E-02  0.56495398737E+00  0.56711854518E+00  0.51100000000E-03 0. -1.
    9000002    1    1    2    0    0 -0.34225763179E+00  0.14135408747E-01  0.78618728481E-01  0.10016810874E+01  0.93800000000E+00 0.  1.
         22    1    1    2    0    0  0.29292678533E+00 -0.10055835870E-01  0.33564272515E+01  0.33692003675E+01  0.00000000000E+00 0.  1.
</event>
<event>
 5    1  0.1560836E+002  0.1599585E+01  0.7818608E-02  0.3353814E+00
         11   -1    0    0    0    0  0.00000000000E+00  0.00000000000E+00  0.39999999674E+01  0.40000000000E+01  0.51100000000E-03 0.  1.
    9000002   -1    0    0    0    0 -0.00000000000E+00 -0.00000000000E+00  0.00000000000E+00  0.93800000000E+00  0.93800000000E+00 0.  1.
         11    1    1    2    0    0 -0.31153716012E-01  0.38482470690E-01  0.89753593936E+00  0.89890070538E+00  0.51100000000E-03 0.  1.
    9000002    1    1    2    0    0  0.14469039964E+00 -0.21159106250E+00  0.43739693149E-01  0.97337723943E+00  0.93800000000E+00 0.  1.
         22    1    1    2    0    0 -0.11353668362E+00  0.17310859181E+00  0.30587243349E+01  0.30657220552E+01  0.00000000000E+00 0.  1.
</event>
<event>
 5    1  0.1560836E+002  0.1599654E+01  0.7818608E-02  0.3353739E+00
         11   -1    0    0    0    0  0.00000000000E+00  0.00000000000E+00  0.39999999674E+01  0.40000000000E+01  0.51100000000E-03 0. -1.
    9000002   -1    0    0    0    0 -0.00000000000E+00 -0.00000000000E+00  0.00000000000E+00  0.93800000000E+00  0.93800000000E+00 0. -1.
         11    1    1    2    0    0 -0.25743441241E-01  0.17539370267E-01  0.31831074934E+00  0.31983175037E+00  0.51100000000E-03 0. -1.
    9000002    1    1    2    0    0  0.28068117579E+00 -0.20244927239E+00  0.80289516595E-01  0.10030244448E+01  0.93800000000E+00 0. -1.
         22    1    1    2    0    0 -0.25493773455E+00  0.18490990212E+00  0.36013997014E+01  0.36151438049E+01  0.00000000000E+00 0. -1.
</event>
<event>
 5    1  0.1560836E+002  0.1571986E+01  0.7818608E-02  0.3384342E+00
         11   -1    0    0    0    0  0.00000000000E+00  0.00000000000E+00  0.39999999674E+01  0.40000000000E+01  0.51100000000E-03 0. -1.
    9000002   -1    0    0    0    0 -0.00000000000E+00 -0.00000000000E+00  0.00000000000E+00  0.93800000000E+00  0.93800000000E+00 0. -1.
         11    1    1    2    0    0  0.10291309494E+00  0.94676701349E-01  0.42051326408E+00  0.44315510747E+00  0.51100000000E-03 0. -1.
    9000002    1    1    2    0    0 -0.42174829859E+00  0.16612544207E+00  0.16400519136E+00  0.10546141440E+01  0.93800000000E+00 0. -1.
         22    1    1    2    0    0  0.31883520365E+00 -0.26080214342E+00  0.34154815119E+01  0.34402307486E+01  0.00000000000E+00 0. -1.
</event>
<event>
 5    1  0.1560836E+002  0.1599391E+01  0.7818608E-02  0.3354024E+00
         11   -1    0    0    0    0  0.00000000000E+00  0.00000000000E+00  0.39999999674E+01  0.40000000000E+01  0.51100000000E-03 0.  1.
    9000002   -1    0    0    0    0 -0.00000000000E+00 -0.00000000000E+00  0.00000000000E+00  0.93800000000E+00  0.93800000000E+00 0. -1.
         11    1    1    2    0    0 -0.88306058649E-02 -0.80157271178E-01  0.59747308548E+00  0.60289096586E+00  0.51100000000E-03 0.  1.
    9000002    1    1    2    0    0  0.80571639723E-01  0.42659693072E+00  0.12796125894E+00  0.10414868286E+01  0.93800000000E+00 0. -1.
         22    1    1    2    0    0 -0.71741033858E-01 -0.34643965954E+00  0.32745656229E+01  0.32936222055E+01  0.00000000000E+00 0.  1.
</event>
<event>
 5    1  0.1560836E+002  0.1599677E+01  0.7818608E-02  0.3353714E+00
         11   -1    0    0    0    0  0.00000000000E+00  0.00000000000E+00  0.39999999674E+01  0.40000000000E+01  0.51100000000E-03 0. -1.
    9000002   -1    0    0    0    0 -0.00000000000E+00 -0.00000000000E+00  0.00000000000E+00  0.93800000000E+00  0.93800000000E+00 0. -1.
         11    1    1    2    0    0 -0.36943674304E-02 -0.32581591605E-01  0.50201680080E+00  0.50308680948E+00  0.51100000000E-03 0.  1.
    9000002    1    1    2    0    0  0.30795174087E-01  0.25866209945E+00  0.45112358841E-01  0.97454273860E+00  0.93800000000E+00 0.  1.
         22    1    1    2    0    0 -0.27100806657E-01 -0.22608050785E+00  0.34528708077E+01  0.34603704519E+01  0.00000000000E+00 0. -1.
</event>
<event>
 5    1  0.1560836E+002  0.1598892E+01  0.7818608E-02  0.3354567E+00
         11   -1    0    0    0    0  0.00000000000E+00  0.00000000000E+00  0.39999999674E+01  0.40000000000E+01  0.51100000000E-03 0.  1.
    9000002   -1    0    0    0    0 -0.00000000000E+00 -0.00000000000E+00  0.00000000000E+00  0.93800000000E+00  0.93800000000E+00 0. -1.
         11    1    1    2    0    0  0.52739515133E+00 -0.30006197633E+00  0.21770599920E+01  0.22600383415E+01  0.51100000000E-03 0.  1.
    9000002    1    1    2    0    0 -0.84049982296E+00  0.42708443700E+00  0.69514292201E+00  0.15006361154E+01  0.93800000000E+00 0. -1.
         22    1    1    2    0    0  0.31310467163E+00 -0.12702246066E+00  0.11277970534E+01  0.11773255431E+01  0.00000000000E+00 0. -1.
</event>
<event>
 5    1  0.1560836E+002  0.1599675E+01  0.7818608E-02  0.3353716E+00
         11   -1    0    0    0    0  0.00000000000E+00  0.00000000000E+00  0.39999999674E+01  0.40000000000E+01  0.51100000000E-03 0.  1.
    9000002   -1    0    0    0    0 -0.00000000000E+00 -0.00000000000E+00  0.00000000000E+00  0.93800000000E+00  0.93800000000E+00 0.  1.
         11    1    1    2    0    0 -0.16270723634E-01 -0.49041857873E-01  0.50902082220E+00  0.51163688181E+00  0.51100000000E-03 0.  1.
    9000002    1    1    2    0    0  0.12954217250E+00  0.36854007767E+00  0.10281362098E+00  0.10212823331E+01  0.93800000000E+00 0.  1.
         22    1    1    2    0    0 -0.11327144886E+00 -0.31949821979E+00  0.33881655242E+01  0.34050807851E+01  0.00000000000E+00 0.  1.
</event>
<event>
 5    1  0.1560836E+002  0.1581753E+01  0.7818608E-02  0.3373409E+00
         11   -1    0    0    0    0  0.00000000000E+00  0.00000000000E+00  0.39999999674E+01  0.40000000000E+01  0.51100000000E-03 0.  1.
    9000002   -1    0    0    0    0 -0.00000000000E+00 -0.00000000000E+00  0.00000000000E+00  0.93800000000E+00  0.93800000000E+00 0. -1.
         11    1    1    2    0    0  0.13510643993E+00  0.12207754902E-01  0.10738165432E+01  0.10823516106E+01  0.51100000000E-03 0.  1.
    9000002    1    1    2    0    0  0.40526470932E-02 -0.20906318747E+00  0.42560984472E-01  0.96196635996E+00  0.93800000000E+00 0. -1.
         22    1    1    2    0    0 -0.13915908702E+00  0.19685543256E+00  0.28836224397E+01  0.28936820294E+01  0.00000000000E+00 0.  1.
</event>
<event>
 5    1  0.1560836E+002  0.1551902E+01  0.7818608E-02  0.3407281E+00
         11   -1    0    0    0    0  0.00000000000E+00  0.00000000000E+00  0.39999999674E+01  0.40000000000E+01  0.51100000000E-03 0.  1.
    9000002   -1    0    0    0    0 -0.00000000000E+00 -0.00000000000E+00  0.00000000000E+00  0.93800000000E+00  0.93800000000E+00 0.  1.
         11    1    1    2    0    0 -0.26748252661E+00 -0.44015679322E-01  0.51207664472E+00  0.57940230691E+00  0.51100000000E-03 0.  1.
    9000002    1    1    2    0    0  0.63873940616E+00 -0.18235424075E+00  0.36558210763E+00  0.12061241128E+01  0.93800000000E+00 0.  1.
         22    1    1    2    0    0 -0.37125687956E+00  0.22636992007E+00  0.31223412150E+01  0.31524735803E+01  0.00000000000E+00 0.  1.
</event>
<event>
 5    1  0.1560836E+002  0.1550166E+01  0.7818608E-02  0.3409294E+00
         11   -1    0    0    0    0  0.00000000000E+00  0.00000000000E+00  0.39999999674E+01  0.40000000000E+01  0.51100000000E-03 0.  1.
    9000002   -1    0    0    0    0 -0.00000000000E+00 -0.00000000000E+00  0.00000000000E+00  0.93800000000E+00  0.93800000000E+00 0. -1.
         11    1    1    2    0    0  0.12873309959E+00  0.15367930768E-01  0.14507844297E+00  0.19456721194E+00  0.51100000000E-03 0.  1.
    9000002    1    1    2    0    0 -0.48604113612E+00  0.44836633042E+00  0.36433976755E+00  0.12040995883E+01  0.93800000000E+00 0. -1.
         22    1    1    2    0    0  0.35730803653E+00 -0.46373426119E+00  0.34905817568E+01  0.35393331998E+01  0.00000000000E+00 0.  1.
</event>
<event>
 5    1  0.1560836E+002  0.1599587E+01  0.7818608E-02  0.3353812E+00
         11   -1    0    0    0    0  0.00000000000E+00  0.00000000000E+00  0.39999999674E+01  0.40000000000E+01  0.51100000000E-03 0. -1.
    9000002   -1    0    0    0    0 -0.00000000000E+00 -0.00000000000E+00  0.00000000000E+00  0.93800000000E+00  0.93800000000E+00 0.  1.
         11    1    1    2    0    0 -0.88037203207E-03 -0.67100293634E-01  0.84707348462E+00  0.84972758807E+00  0.51100000000E-03 0. -1.
    9000002    1    1    2    0    0 -0.32531639982E-01  0.33445467810E+00  0.75670786976E-01  0.99924386778E+00  0.93800000000E+00 0.  1.
         22    1    1    2    0    0  0.33412012014E-01 -0.26735438446E+00  0.30772556958E+01  0.30890285441E+01  0.00000000000E+00 0. -1.
</event>
<event>
 5    1  0.1560836E+002  0.1599675E+01  0.7818608E-02  0.3353717E+00
         11   -1    0    0    0    0  0.00000000000E+00  0.00000000000E+00  0.39999999674E+01  0.40000000000E+01  0.51100000000E-03 0. -1.
    9000002   -1    0    0    0    0 -0.00000000000E+00 -0.00000000000E+00  0.00000000000E+00  0.93800000000E+00  0.93800000000E+00 0. -1.
         11    1    1    2    0    0 -0.49068389304E-03 -0.55164903566E-01  0.75483862347E+00  0.75685204364E+00  0.51100000000E-03 0. -1.
    9000002    1    1    2    0    0  0.94486135097E-02  0.28547801684E+00  0.54358651270E-01  0.98203148492E+00  0.93800000000E+00 0. -1.
         22    1    1    2    0    0 -0.89579296167E-02 -0.23031311328E+00  0.31908026926E+01  0.31991164714E+01  0.00000000000E+00 0. -1.
</event>
<event>
 5    1  0.1560836E+002  0.1599677E+01  0.7818608E-02  0.3353714E+00
         11   -1    0    0    0    0  0.00000000000E+00  0.00000000000E+00  0.39999999674E+01  0.40000000000E+01  0.51100000000E-03 0. -1.
    9000002   -1    0    0    0    0 -0.00000000000E+00 -0.00000000000E+00  0.00000000000E+00  0.93800000000E+00  0.93800000000E+00 0.  1.
         11    1    1    2    0    0 -0.36865474671E-01  0.18003736436E+00  0.10580941009E+01  0.10739347761E+01  0.51100000000E-03 0. -1.
    9000002    1    1    2    0    0  0.13037582631E+00 -0.63229658505E+00  0.29380363610E+00  0.11759937943E+01  0.93800000000E+00 0.  1.
         22    1    1    2    0    0 -0.93510351635E-01  0.45225922069E+00  0.26481022303E+01  0.26880714296E+01  0.00000000000E+00 0. -1.
</event>
<event>
 5    1  0.1560836E+002  0.1599311E+01  0.7818608E-02  0.3354112E+00
         11   -1    0    0    0    0  0.00000000000E+00  0.00000000000E+00  0.39999999674E+01  0.40000000000E+01  0.51100000000E-03 0. -1.
    9000002   -1    0    0    0    0 -0.00000000000E+00 -0.00000000000E+00  0.00000000000E+00  0.93800000000E+00  0.93800000000E+00 0. -1.
         11    1    1    2    0    0 -0.24745810829E-01 -0.43743182754E+00  0.20735837340E+01  0.21193651695E+01  0.51100000000E-03 0. -1.
    9000002    1    1    2    0    0  0.80534012452E-01  0.76319957745E+00  0.42970459328E+00  0.12858652183E+01  0.93800000000E+00 0. -1.
         22    1    1    2    0    0 -0.55788201623E-01 -0.32576774991E+00  0.14967116401E+01  0.15327696122E+01  0.00000000000E+00 0.  1.
</event>
<event>
 5    1  0.1560836E+002  0.1599663E+01  0.7818608E-02  0.3353730E+00
         11   -1    0    0    0    0  0.00000000000E+00  0.00000000000E+00  0.39999999674E+01  0.40000000000E+01  0.51100000000E-03 0.  1.
    9000002   -1    0    0    0    0 -0.00000000000E+00 -0.00000000000E+00  0.00000000000E+00  0.93800000000E+00  0.93800000000E+00 0.  1.
         11    1    1    2    0    0  0.11797140847E+00 -0.10907299968E+00  0.10310613047E+01  0.10435045987E+01  0.51100000000E-03 0.  1.
    9000002    1    1    2    0    0 -0.44244639562E+00  0.40329419339E+00  0.25000191114E+00  0.11405042635E+01  0.93800000000E+00 0.  1.
         22    1    1    2    0    0  0.32447498716E+00 -0.29422119371E+00  0.27189367516E+01  0.27539911378E+01  0.00000000000E+00 0.  1.
</event>
<event>
 5    1  0.1560836E+002  0.1599649E+01  0.7818608E-02  0.3353744E+00
         11   -1    0    0    0    0  0.00000000000E+00  0.00000000000E+00  0.39999999674E+01  0.40000000000E+01  0.51100000000E-03 0.  1.
    9000002   -1    0    0    0    0 -0.00000000000E+00 -0.00000000000E+00  0.00000000000E+00  0.93800000000E+00  0.93800000000E+00 0.  1.
         11    1    1    2    0    0  0.44604907930E-01  0.49075938477E-01  0.10463662717E+01  0.10484658703E+01  0.51100000000E-03 0.  1.
    9000002    1    1    2    0    0 -0.18957750243E+00 -0.18707526671E+00  0.47205032753E-01  0.97622184977E+00  0.93800000000E+00 0.  1.
         22    1    1    2    0    0  0.14497259450E+00  0.13799932823E+00  0.29064286629E+01  0.29133122800E+01  0.00000000000E+00 0.  1.
</event>
<event>
 5    1  0.1560836E+002  0.1599573E+01  0.7818608E-02  0.3353827E+00
         11   -1    0    0    0    0  0.00000000000E+00  0.00000000000E+00  0.39999999674E+01  0.40000000000E+01  0.51100000000E-03 0.  1.
    9000002   -1    0    0    0    0 -0.00000000000E+00 -0.00000000000E+00  0.00000000000E+00  0.93800000000E+00  0.93800000000E+00 0.  1.
         11    1    1    2    0    0 -0.11428710264E-02 -0.99033044504E-02  0.12443517535E+00  0.12483491330E+00  0.51100000000E-03 0.  1.
    9000002    1    1    2    0    0  0.12064159864E+00  0.20872314306E+00  0.38662055390E-01  0.96925667411E+00  0.93800000000E+00 0.  1.
         22    1    1    2    0    0 -0.11949872762E+00 -0.19881983861E+00  0.38369027366E+01  0.38439084126E+01  0.00000000000E+00 0.  1.
</event>
<event>
 5    1  0.1560836E+002  0.1599670E+01  0.7818608E-02  0.3353721E+00
         11   -1    0    0    0    0  0.00000000000E+00  0.00000000000E+00  0.39999999674E+01  0.40000000000E+01  0.51100000000E-03 0.  1.
    9000002   -1    0    0    0    0 -0.00000000000E+00 -0.00000000000E+00  0.00000000000E+00  0.93800000000E+00  0.93800000000E+00 0. -1.
         11    1    1    2    0    0 -0.29725609030E-02  0.17772365474E-01  0.21199717196E+00  0.21276220325E+00  0.51100000000E-03 0.  1.
    9000002    1    1    2    0    0  0.62459499446E-01 -0.30620278218E+00  0.65233960425E-01  0.99083843409E+00  0.93800000000E+00 0. -1.
         22    1    1    2    0    0 -0.59486938543E-01  0.28843041670E+00  0.37227688350E+01  0.37343993627E+01  0.00000000000E+00 0.  1.
</event>
<event>
 5    1  0.1560836E+002  0.1594401E+01  0.7818608E-02  0.3359463E+00
         11   -1    0    0    0    0  0.00000000000E+00  0.00000000000E+00  0.39999999674E+01  0.40000000000E+01  0.51100000000E-03 0.  1.
    9000002   -1    0    0    0    0 -0.00000000000E+00 -0.00000000000E+00  0.00000000000E+00  0.93800000000E+00  0.93800000000E+00 0.  1.
         11    1    1    2    0    0 -0.21449012840E-01 -0.14756519267E-01  0.14251664021E+00  0.14487604657E+00  0.51100000000E-03 0.  1.
    9000002    1    1    2    0    0 -0.22530331392E+00  0.27226027965E-01  0.38159527337E-01  0.96581726501E+00  0.93800000000E+00 0.  1.
         22    1    1    2    0    0  0.24675232676E+00 -0.12469508698E-01  0.38193237998E+01  0.38273066884E+01  0.00000000000E+00 0.  1.
</event>
<event>
 5    1  0.1560836E+002  0.1599182E+01  0.7818608E-02  0.3354251E+00
         11   -1    0    0    0    0  0.00000000000E+00  0.00000000000E+00  0.39999999674E+01  0.40000000000E+01  0.51100000000E-03 0. -1.
    9000002   -1    0    0    0    0 -0.00000000000E+00 -0.00000000000E+00  0.00000000000E+00  0.93800000000E+00  0.93800000000E+00 0. -1.
         11    1    1    2    0    0 -0.22966973326E+00 -0.50846968110E+00  0.20636130491E+01  0.21377064065E+01  0.51100000000E-03 0. -1.
    9000002    1    1    2    0    0  0.34229662326E+00  0.81472812779E+00  0.59437688608E+00  0.14191817302E+01  0.93800000000E+00 0. -1.
         22    1    1    2    0    0 -0.11262689000E+00 -0.30625844669E+00  0.13420100322E+01  0.13811118633E+01  0.00000000000E+00 0. -1.
</event>
<event>
 5    1  0.1560836E+002  0.1598579E+01  0.7818608E-02  0.3354907E+00
         11   -1    0    0    0    0  0.00000000000E+00  0.00000000000E+00  0.39999999674E+01  0.40000000000E+01  0.51100000000E-03 0.  1.
    9000002   -1    0    0    0    0 -0.00000000000E+00 -0.00000000000E+00  0.00000000000E+00  0.93800000000E+00  0.93800000000E+00 0.  1.
         11    1    1    2    0    0  0.19430519633E+00 -0.79202283407E-01  0.22618072904E+01  0.22715193133E+01  0.51100000000E-03 0.  1.
    9000002    1    1    2    0    0 -0.40085867995E+00  0.13765971568E+00  0.12248331731E+00  0.10365732206E+01  0.93800000000E+00 0.  1.
         22    1    1    2    0    0  0.20655348362E+00 -0.58457432271E-01  0.16157093597E+01  0.16299074661E+01  0.00000000000E+00 0. -1.
</event>
<event>
 5    1  0.1560836E+002  0.1599673E+01  0.7818608E-02  0.3353718E+00
         11   -1    0    0    0    0  0.00000000000E+00  0.00000000000E+00  0.39999999674E+01  0.40000000000E+01  0.51100000000E-03 0. -1.
    9000002   -1    0    0    0    0 -0.00000000000E+00 -0.00000000000E+00  0.00000000000E+00  0.93800000000E+00  0.93800000000E+00 0.  1.
         11    1    1    2    0    0 -0.57092168878E-01 -0.92541543472E-01  0.13505785262E+01  0.13549487332E+01  0.51100000000E-03 0. -1.
    9000002    1    1    2    0    0  0.16240619197E+00  0.27446312685E+00  0.67975676424E-01  0.99306116215E+00  0.93800000000E+00 0.  1.
         22    1    1    2    0    0 -0.10531402310E+00 -0.18192158338E+00  0.25814457648E+01  0.25899901047E+01  0.00000000000E+00 0. -1.
</event>
<event>
 5    1  0.1560836E+002  0.1599677E+01  0.7818608E-02  0.3353714E+00
         11   -1    0    0    0    0  0.00000000000E+00  0.00000000000E+00  0.39999999674E+01  0.40000000000E+01  0.51100000000E-03 0. -1.
    9000002   -1    0    0    0    0 -0.00000000000E+00 -0.00000000000E+00  0.00000000000E+00  0.93800000000E+00  0.93800000000E+00 0.  1.
         11    1    1    2    0    0 -0.82982415665E-01  0.25700846931E+00  0.13483573820E+01  0.13751390204E+01  0.51100000000E-03 0.  1.
    9000002    1    1    2    0    0  0.22323220591E+00 -0.69056269403E+00  0.37912110531E+00  0.12451049211E+01  0.93800000000E+00 0.  1.
         22    1    1    2    0    0 -0.14024979024E+00  0.43355422472E+00  0.22725214800E+01  0.23177560585E+01  0.00000000000E+00 0. -1.
</event>
<event>
 5    1  0.1560836E+002  0.1599521E+01  0.7818608E-02  0.3353884E+00
         11   -1    0    0    0    0  0.00000000000E+00  0.00000000000E+00  0.39999999674E+01  0.40000000000E+01  0.51100000000E-03 0. -1.
    9000002   -1    0    0    0    0 -0.00000000000E+00 -0.00000000000E+00  0.00000000000E+00  0.93800000000E+00  0.93800000000E+00 0.  1.
         11    1    1    2    0    0 -0.62631120332E-01  0.51091572185E-01  0.69566274125E+00  0.70034271372E+00  0.51100000000E-03 0. -1.
    9000002    1    1    2    0    0  0.31793142058E+00 -0.23022226097E+00  0.10396284177E+00  0.10221227667E+01  0.93800000000E+00 0.  1.
         22    1    1    2    0    0 -0.25530030025E+00  0.17913068878E+00  0.32003743843E+01  0.32155345196E+01  0.00000000000E+00 0. -1.
</event>
<event>
 5    1  0.1560836E+002  0.1599352E+01  0.7818608E-02  0.3354067E+00
         11   -1    0    0    0    0  0.00000000000E+00  0.00000000000E+00  0.39999999674E+01  0.40000000000E+01  0.51100000000E-03 0.  1.
    9000002   -1    0    0    0    0 -0.00000000000E+00 -0.00000000000E+00  0.00000000000E+00  0.93800000000E+00  0.93800000000E+00 0.  1.
         11    1    1    2    0    0  0.29124077508E-01 -0.91449257029E-02  0.18075432116E+00  0.18331455833E+00  0.51100000000E-03 0.  1.
    9000002    1    1    2    0    0 -0.43984370249E+00  0.28006653069E+00  0.18711860887E+00  0.10893838249E+01  0.93800000000E+00 0.  1.
         22    1    1    2    0    0  0.41071962498E+00 -0.27092160499E+00  0.36321270373E+01  0.36653016167E+01  0.00000000000E+00 0.  1.
</event>
<event>
 5    1  0.1560836E+002  0.1599573E+01  0.7818608E-02  0.3353827E+00
         11   -1    0    0    0    0  0.00000000000E+00  0.00000000000E+00  0.39999999674E+01  0.40000000000E+01  0.51100000000E-03 0.  1.
    9000002   -1    0    0    0    0 -0.00000000000E+00 -0.00000000000E+00  0.00000000000E+00  0.93800000000E+00  0.93800000000E+00 0.  1.
         11    1    1    2    0    0  0.42533558754E-03 -0.43573734313E-03  0.18409856911E-01  0.18427010878E-01  0.51100000000E-03 0.  1.
    9000002    1    1    2    0    0 -0.30148755855E+00  0.35437642257E+00  0.14745702260E+00  0.10573859136E+01  0.93800000000E+00 0.  1.
         22    1    1    2    0    0  0.30106222296E+00 -0.35394068523E+00  0.38341330878E+01  0.38621870755E+01  0.00000000000E+00 0.  1.
</event>
<event>
 5    1  0.1560836E+002  0.1599674E+01  0.7818608E-02  0.3353717E+00
         11   -1    0    0    0    0  0.00000000000E+00  0.00000000000E+00  0.39999999674E+01  0.40000000000E+01  0.51100000000E-03 0.  1.
    9000002   -1    0    0    0    0 -0.00000000000E+00 -0.00000000000E+00  0.00000000000E+00  0.93800000000E+00  0.93800000000E+00 0. -1.
         11    1    1    2    0    0  0.42287190449E-01  0.77649447020E-02  0.37529272980E+00  0.37774779285E+00  0.51100000000E-03 0. -1.
    9000002    1    1    2    0    0 -0.42615993414E+00 -0.74731931495E-01  0.12682653696E+00  0.10407334536E+01  0.93800000000E+00 0. -1.
         22    1    1    2    0    0  0.38387274369E+00  0.66966986793E-01  0.34978807006E+01  0.35195187535E+01  0.00000000000E+00 0.  1.
</event>
<event>
 5    1  0.1560836E+002  0.1598103E+01  0.7818608E-02  0.3355424E+00
         11   -1    0    0    0    0  0.00000000000E+00  0.00000000000E+00  0.39999999674E+01  0.40000000000E+01  0.51100000000E-03 0.  1.
    9000002   -1    0    0    0    0 -0.00000000000E+00 -0.00000000000E+00  0.00000000000E+00  0.93800000000E+00  0.93800000000E+00 0.  1.
         11    1    1    2    0    0 -0.15217526572E+00  0.16818383237E-01  0.12655780931E+01  0.12748052167E+01  0.51100000000E-03 0.  1.
    9000002    1    1    2    0    0  0.43854028308E+00  0.82936008584E-01  0.13657383128E+00  0.10477081525E+01  0.93800000000E+00 0.  1.
         22    1    1    2    0    0 -0.28636501735E+00 -0.99754391821E-01  0.25978480430E+01  0.26154866309E+01  0.00000000000E+00 0.  1.
</event>
<event>
 5    1  0.1560836E+002  0.1599422E+01  0.7818608E-02  0.3353991E+00
         11   -1    0    0    0    0  0.00000000000E+00  0.00000000000E+00  0.39999999674E+01  0.40000000000E+01  0.51100000000E-03 0.  1.
    9000002   -1    0    0    0    0 -0.00000000000E+00 -0.00000000000E+00  0.00000000000E+00  0.93800000000E+00  0.93800000000E+00 0. -1.
         11    1    1    2    0    0  0.13547378678E-02 -0.15571314408E-01  0.13596183219E+00  0.13685825544E+00  0.51100000000E-03 0.  1.
    9000002    1    1    2    0    0 -0.91355048858E-01  0.25560696697E+00  0.49225972829E-01  0.97772586287E+00  0.93800000000E+00 0. -1.
         22    1    1    2    0    0  0.90000310990E-01 -0.24003565257E+00  0.38148121623E+01  0.38234158817E+01  0.00000000000E+00 0.  1.
</event>
<event>
 5    1  0.1560836E+002  0.1599639E+01  0.7818608E-02  0.3353755E+00
         11   -1    0    0    0    0  0.00000000000E+00  0.00000000000E+00  0.39999999674E+01  0.40000000000E+01  0.51100000000E-03 0. -1.
    9000002   -1    0    0    0    0 -0.00000000000E+00 -0.00000000000E+00  0.00000000000E+00  0.93800000000E+00  0.93800000000E+00 0. -1.
         11    1    1    2    0    0  0.65806852542E-02 -0.17235460861E-01  0.25892062489E+00  0.25957757538E+00  0.51100000000E-03 0. -1.
    9000002    1    1    2    0    0 -0.75001611387E-01  0.31109807778E+00  0.68478961043E-01  0.99344885315E+00  0.93800000000E+00 0. -1.
         22    1    1    2    0    0  0.68420926132E-01 -0.29386261692E+00  0.36726003814E+01  0.36849735715E+01  0.00000000000E+00 0. -1.
</event>
<event>
 5    1  0.1560836E+002  0.1478938E+01  0.7818608E-02  0.3496240E+00
         11   -1    0    0    0    0  0.00000000000E+00  0.00000000000E+00  0.39999999674E+01  0.40000000000E+01  0.51100000000E-03 0. -1.
    9000002   -1    0    0    0    0 -0.00000000000E+00 -0.00000000000E+00  0.00000000000E+00  0.93800000000E+00  0.93800000000E+00 0. -1.
         11    1    1    2    0    0 -0.14043291297E+00  0.32344950402E+00  0.49523898844E+00  0.60794975244E+00  0.51100000000E-03 0. -1.
    9000002    1    1    2    0    0 -0.39191720745E-01 -0.46535403411E+00  0.26314401190E+00  0.10803606523E+01  0.93800000000E+00 0. -1.
         22    1    1    2    0    0  0.17962463372E+00  0.14190453010E+00  0.32416169670E+01  0.32496895953E+01  0.00000000000E+00 0. -1.
</event>
<event>
 5    1  0.1560836E+002  0.1599151E+01  0.7818608E-02  0.3354285E+00
         11   -1    0    0    0    0  0.00000000000E+00  0.00000000000E+00  0.39999999674E+01  0.40000000000E+01  0.51100000000E-03 0. -1.
    9000002   -1    0    0    0    0 -0.00000000000E+00 -0.00000000000E+00  0.00000000000E+00  0.93800000000E+00  0.93800000000E+00 0.  1.
         11    1    1    2    0    0 -0.35814484147E-02  0.65895260175E-01  0.56627010363E+00  0.57010271309E+00  0.51100000000E-03 0. -1.
    9000002    1    1    2    0    0  0.10674552793E+00 -0.34857764051E+00  0.89685350039E-01  0.10103407550E+01  0.93800000000E+00 0.  1.
         22    1    1    2    0    0 -0.10316407952E+00  0.28268238033E+00  0.33440445137E+01  0.33575565319E+01  0.00000000000E+00 0. -1.
</event>
<event>
 5    1  0.1560836E+002  0.1599667E+01  0.7818608E-02  0.3353725E+00
         11   -1    0    0    0    0  0.00000000000E+00  0.00000000000E+00  0.39999999674E+01  0.40000000000E+01  0.51100000000E-03 0. -1.
    9000002   -1    0    0    0    0 -0.00000000000E+00 -0.00000000000E+00  0.00000000000E+00  0.93800000000E+00  0.93800000000E+00 0. -1.
         11    1    1    2    0    0  0.76125348772E-01 -0.41894701931E-01  0.90909889747E+00  0.91324219202E+00  0.51100000000E-03 0.  1.
    9000002    1    1    2    0    0 -0.33139356154E+00  0.19261445641E+00  0.98902866474E-01  0.10181099147E+01  0.93800000000E+00 0. -1.
         22    1    1    2    0    0  0.25526821277E+00 -0.15071975448E+00  0.29919982034E+01  0.30066478933E+01  0.00000000000E+00 0. -1.
</event>
<event>
 5    1  0.1560836E+002  0.1599655E+01  0.7818608E-02  0.3353738E+00
         11   -1    0    0    0    0  0.00000000000E+00  0.00000000000E+00  0.39999999674E+01  0.40000000000E+01  0.51100000000E-03 0. -1.
    9000002   -1    0    0    0    0 -0.00000000000E+00 -0.00000000000E+00  0.00000000000E+00  0.93800000000E+00  0.93800000000E+00 0.  1.
         11    1    1    2    0    0  0.44480955563E-01 -0.10520004099E+00  0.11347879867E+01  0.11405216526E+01  0.51100000000E-03 0. -1.
    9000002    1    1    2    0    0 -0.15177257558E+00  0.37793155014E+00  0.11200435869E+00  0.10287157759E+01  0.93800000000E+00 0.  1.
         22    1    1    2    0    0  0.10729162001E+00 -0.27273150915E+00  0.27532076219E+01  0.27687625715E+01  0.00000000000E+00 0. -1.
</event>
<event>
 5    1  0.1560836E+002  0.1450397E+01  0.7818608E-02  0.3533673E+00
         11   -1    0    0    0    0  0.00000000000E+00  0.00000000000E+00  0.39999999674E+01  0.40000000000E+01  0.51100000000E-03 0.  1.
    9000002   -1    0    0    0    0 -0.00000000000E+00 -0.00000000000E+00  0.00000000000E+00  0.93800000000E+00  0.93800000000E+00 0. -1.
         11    1    1    2    0    0 -0.22585208641E-01 -0.57677798321E+00  0.26899305966E+01  0.27511651730E+01  0.51100000000E-03 0.  1.
    9000002    1    1    2    0    0  0.88983653320E-03  0.21520097742E+00  0.15308103985E+00  0.97446911560E+00  0.93800000000E+00 0. -1.
         22    1    1    2    0    0  0.21695372108E-01  0.36157700580E+00  0.11569883309E+01  0.12123657114E+01  0.00000000000E+00 0.  1.
</event>
<event>
 5    1  0.1560836E+002  0.1589811E+01  0.7818608E-02  0.3364497E+00
         11   -1    0    0    0    0  0.00000000000E+00  0.00000000000E+00  0.39999999674E+01  0.40000000000E+01  0.51100000000E-03 0.  1.
    9000002   -1    0    0    0    0 -0.00000000000E+00 -0.00000000000E+00  0.00000000000E+00  0.93800000000E+00  0.93800000000E+00 0.  1.
         11    1    1    2    0    0 -0.51355932264E-01 -0.36084021283E-01  0.12373210055E+01  0.12389120309E+01  0.51100000000E-03 0.  1.
    9000002    1    1    2    0    0 -0.19022398531E+00  0.12189494476E+00  0.41350956982E-01  0.96571084896E+00  0.93800000000E+00 0.  1.
         22    1    1    2    0    0  0.24157991758E+00 -0.85810923481E-01  0.27213280049E+01  0.27333771202E+01  0.00000000000E+00 0.  1.
</event>
<event>
 5    1  0.1560836E+002  0.1599669E+01  0.7818608E-02  0.3353723E+00
         11   -1    0    0    0    0  0.00000000000E+00  0.00000000000E+00  0.39999999674E+01  0.40000000000E+01  0.51100000000E-03 0. -1.
    9000002   -1    0    0    0    0 -0.00000000000E+00 -0.00000000000E+00  0.00000000000E+00  0.93800000000E+00  0.93800000000E+00 0.  1.
         11    1    1    2    0    0  0.10643012488E+00 -0.24794331183E-01  0.14017037744E+01  0.14059572763E+01  0.51100000000E-03 0. -1.
    9000002    1    1    2    0    0 -0.30755422903E+00  0.72740270466E-01  0.66740811454E-01  0.99205800569E+00  0.93800000000E+00 0.  1.
         22    1    1    2    0    0  0.20112410415E+00 -0.47945939283E-01  0.25315553815E+01  0.25399847180E+01  0.00000000000E+00 0. -1.
</event>
<event>
 5    1  0.1560836E+002  0.1482810E+01  0.7818608E-02  0.3491283E+00
         11   -1    0    0    0    0  0.00000000000E+00  0.00000000000E+00  0.39999999674E+01  0.40000000000E+01  0.51100000000E-03 0.  1.
    9000002   -1    0    0    0    0 -0.00000000000E+00 -0.00000000000E+00  0.00000000000E+00  0.93800000000E+00  0.93800000000E+00 0.  1.
         11    1    1    2    0    0 -0.36548567157E+00 -0.44012668225E+00  0.23154633668E+01  0.23850916412E+01  0.51100000000E-03 0.  1.
    9000002    1    1    2    0    0  0.33858433565E+00  0.11772479801E+00  0.18775845229E+00  0.10215653268E+01  0.93800000000E+00 0.  1.
         22    1    1    2    0    0  0.26901335923E-01  0.32240188424E+00  0.14967781483E+01  0.15313430321E+01  0.00000000000E+00 0. -1.
</event>
<event>
 5    1  0.1560836E+002  0.1599190E+01  0.7818608E-02  0.3354243E+00
         11   -1    0    0    0    0  0.00000000000E+00  0.00000000000E+00  0.39999999674E+01  0.40000000000E+01  0.51100000000E-03 0.  1.
    9000002   -1    0    0    0    0 -0.00000000000E+00 -0.00000000000E+00  0.00000000000E+00  0.93800000000E+00  0.93800000000E+00 0. -1.
         11    1    1    2    0    0  0.28447530797E-01 -0.48946816352E-01  0.89798460605E+00  0.89976756257E+00  0.51100000000E-03 0.  1.
    9000002    1    1    2    0    0 -0.35747592384E-01  0.25544285910E+00  0.44595635344E-01  0.97383864953E+00  0.93800000000E+00 0. -1.
         22    1    1    2    0    0  0.73000615872E-02 -0.20649604274E+00  0.30574197260E+01  0.30643937879E+01  0.00000000000E+00 0.  1.
</event>
<event>
 5    1  0.1560836E+002  0.1470828E+01  0.7818608E-02  0.3506716E+00
         11   -1    0    0    0    0  0.00000000000E+00  0.00000000000E+00  0.39999999674E+01  0.40000000000E+01  0.51100000000E-03 0. -1.
    9000002   -1    0    0    0    0 -0.00000000000E+00 -0.00000000000E+00  0.00000000000E+00  0.93800000000E+00  0.93800000000E+00 0. -1.
         11    1    1    2    0    0 -0.19459946261E+00  0.41623577678E-01  0.13794749100E+00  0.24213889498E+00  0.51100000000E-03 0. -1.
    9000002    1    1    2    0    0  0.20377079275E+00 -0.27224929196E+00  0.18890115251E+00  0.10154653408E+01  0.93800000000E+00 0. -1.
         22    1    1    2    0    0 -0.91713301376E-02  0.23062571428E+00  0.36731513238E+01  0.36803957642E+01  0.00000000000E+00 0. -1.
</event>
<event>
 5    1  0.1560836E+002  0.1599376E+01  0.7818608E-02  0.3354041E+00
         11   -1    0    0    0    0  0.00000000000E+00  0.00000000000E+00  0.39999999674E+01  0.40000000000E+01  0.51100000000E-03 0. -1.
    9000002   -1    0    0    0    0 -0.00000000000E+00 -0.00000000000E+00  0.00000000000E+00  0.93800000000E+00  0.93800000000E+00 0.  1.
         11    1    1    2    0    0 -0.12487244092E+00  0.17762836436E-01  0.14144353348E+01  0.14200479648E+01  0.51100000000E-03 0. -1.
    9000002    1    1    2    0    0  0.36702168024E+00 -0.99749441586E-01  0.97581047623E-01  0.10168681949E+01  0.93800000000E+00 0.  1.
         22    1    1    2    0    0 -0.24214923932E+00  0.81986605149E-01  0.24879835849E+01  0.25010838403E+01  0.00000000000E+00 0. -1.
</event>
<event>
 5    1  0.1560836E+002  0.1596354E+01  0.7818608E-02  0.3357331E+00
         11   -1    0    0    0    0  0.00000000000E+00  0.00000000000E+00  0.39999999674E+01  0.40000000000E+01  0.51100000000E-03 0.  1.
    9000002   -1    0    0    0    0 -0.00000000000E+00 -0.00000000000E+00  0.00000000000E+00  0.93800000000E+00  0.93800000000E+00 0. -1.
         11    1    1    2    0    0  0.38485894949E-01 -0.10542621755E+00  0.12701740506E+01  0.12751228299E+01  0.51100000000E-03 0.  1.
    9000002    1    1    2    0    0  0.75562447095E-01  0.27758061522E+00  0.57738060117E-01  0.98282163435E+00  0.93800000000E+00 0. -1.
         22    1    1    2    0    0 -0.11404834204E+00 -0.17215439767E+00  0.26720878567E+01  0.26800555358E+01  0.00000000000E+00 0.  1.
</event>
<event>
 5    1  0.1560836E+002  0.1599486E+01  0.7818608E-02  0.3353921E+00
         11   -1    0    0    0    0  0.00000000000E+00  0.00000000000E+00  0.39999999674E+01  0.40000000000E+01  0.51100000000E-03 0. -1.
    9000002   -1    0    0    0    0 -0.00000000000E+00 -0.00000000000E+00  0.00000000000E+00  0.93800000000E+00  0.93800000000E+00 0. -1.
         11    1    1    2    0    0 -0.11857261913E-01  0.80307271654E-03  0.30466588690E+00  0.30489802122E+00  0.51100000000E-03 0. -1.
    9000002    1    1    2    0    0  0.21291737401E+00  0.88715329167E-01  0.35437671957E-01  0.96659404425E+00  0.93800000000E+00 0. -1.
         22    1    1    2    0    0 -0.20106011210E+00 -0.89518401883E-01  0.36598964085E+01  0.36665079345E+01  0.00000000000E+00 0. -1.
</event>
<event>
 5    1  0.1560836E+002  0.1599676E+01  0.7818608E-02  0.3353715E+00
         11   -1    0    0    0    0  0.00000000000E+00  0.00000000000E+00  0.39999999674E+01  0.40000000000E+01  0.51100000000E-03 0.  1.
    9000002   -1    0    0    0    0 -0.00000000000E+00 -0.00000000000E+00  0.00000000000E+00  0.93800000000E+00  0.93800000000E+00 0. -1.
         11    1    1    2    0    0  0.18857680086E-01 -0.34089457224E-01  0.20723029925E+00  0.21086099981E+00  0.51100000000E-03 0.  1.
    9000002    1    1    2    0    0 -0.33447145971E+00  0.60112260395E+00  0.33711566455E+00  0.12110782442E+01  0.93800000000E+00 0. -1.
         22    1    1    2    0    0  0.31561377962E+00 -0.56703314672E+00  0.34556540036E+01  0.35160607560E+01  0.00000000000E+00 0.  1.
</event>
<event>
 5    1  0.1560836E+002  0.1599586E+01  0.7818608E-02  0.3353813E+00
         11   -1    0    0    0    0  0.00000000000E+00  0.00000000000E+00  0.39999999674E+01  0.40000000000E+01  0.51100000000E-03 0.  1.
    9000002   -1    0    0    0    0 -0.00000000000E+00 -0.00000000000E+00  0.00000000000E+00  0.93800000000E+00  0.93800000000E+00 0. -1.
         11    1    1    2    0    0 -0.17438994211E+00 -0.46717724440E-01  0.17546825695E+01  0.17639460249E+01  0.51100000000E-03 0.  1.
    9000002    1    1    2    0    0  0.39944489992E+00  0.81803950631E-01  0.11232648831E+00  0.10289360303E+01  0.93800000000E+00 0. -1.
         22    1    1    2    0    0 -0.22505495781E+00 -0.35086226192E-01  0.21329909095E+01  0.21451179449E+01  0.00000000000E+00 0.  1.
</event>
<event>
 5    1  0.1560836E+002  0.1599571E+01  0.7818608E-02  0.3353829E+00
         11   -1    0    0    0    0  0.00000000000E+00  0.00000000000E+00  0.39999999674E+01  0.40000000000E+01  0.51100000000E-03 0. -1.
    9000002   -1    0    0    0    0 -0.00000000000E+00 -0.00000000000E+00  0.00000000000E+00  0.93800000000E+00  0.93800000000E+00 0. -1.
         11    1    1    2    0    0 -0.82608819261E-02  0.89799612429E-01  0.11530048547E+01  0.11565261211E+01  0.51100000000E-03 0. -1.
    9000002    1    1    2    0    0  0.41407492317E-01 -0.34148677442E+00  0.79372975049E-01  0.10022334392E+01  0.93800000000E+00 0. -1.
         22    1    1    2    0    0 -0.33146610391E-01  0.25168716199E+00  0.27676221376E+01  0.27792404397E+01  0.00000000000E+00 0. -1.
</event>
<event>
 5    1  0.1560836E+002  0.1599675E+01  0.7818608E-02  0.3353716E+00
         11   -1    0    0    0    0  0.00000000000E+00  0.00000000000E+00  0.39999999674E+01  0.40000000000E+01  0.51100000000E-03 0.  1.
    9000002   -1    0    0    0    0 -0.00000000000E+00 -0.00000000000E+00  0.00000000000E+00  0.93800000000E+00  0.93800000000E+00 0.  1.
         11    1    1    2    0    0 -0.22494493374E-02 -0.12363965367E+00  0.11413976657E+01  0.11480769645E+01  0.51100000000E-03 0.  1.
    9000002    1    1    2    0    0  0.13096447253E-01  0.42092024725E+00  0.11995965843E+00  0.10351713342E+01  0.93800000000E+00 0.  1.
         22    1    1    2    0    0 -0.10846997915E-01 -0.29728059359E+00  0.27386426432E+01  0.27547517013E+01  0.00000000000E+00 0.  1.
</event>
<event>
 5    1  0.1560836E+002  0.1599657E+01  0.7818608E-02  0.3353736E+00
         11   -1    0    0    0    0  0.00000000000E+00  0.00000000000E+00  0.39999999674E+01  0.40000000000E+01  0.51100000000E-03 0. -1.
    9000002   -1    0    0    0    0 -0.00000000000E+00 -0.00000000000E+00  0.00000000000E+00  0.93800000000E+00  0.93800000000E+00 0.  1.
         11    1    1    2    0    0 -0.95862575558E-01 -0.12572608504E+00  0.14505423082E+01  0.14591332807E+01  0.51100000000E-03 0. -1.
    9000002    1    1    2    0    0  0.24282480657E+00  0.33435802033E+00  0.11539707751E+00  0.10314648118E+01  0.93800000000E+00 0.  1.
         22    1    1    2    0    0 -0.14696223101E+00 -0.20863193529E+00  0.24340605816E+01  0.24474019075E+01  0.00000000000E+00 0. -1.
</event>
<event>
 5    1  0.1560836E+002  0.1599676E+01  0.7818608E-02  0.3353715E+00
         11   -1    0    0    0    0  0.00000000000E+00  0.00000000000E+00  0.39999999674E+01  0.40000000000E+01  0.51100000000E-03 0.  1.
    9000002   -1    0    0    0    0 -0.00000000000E+00 -0.00000000000E+00  0.00000000000E+00  0.93800000000E+00  0.93800000000E+00 0. -1.
         11    1    1    2    0    0 -0.10359902798E-01  0.35174847167E-01  0.60303157528E+00  0.60414562761E+00  0.51100000000E-03 0.  1.
    9000002    1    1    2    0    0  0.66025495897E-01 -0.22731828905E+00  0.37185931685E-01  0.96812177135E+00  0.93800000000E+00 0. -1.
         22    1    1    2    0    0 -0.55665593099E-01  0.19214344188E+00  0.33597824604E+01  0.33657326010E+01  0.00000000000E+00 0.  1.
</event>
<event>
 5    1  0.1560836E+002  0.1599463E+01  0.7818608E-02  0.3353946E+00
         11   -1    0    0    0    0  0.00000000000E+00  0.00000000000E+00  0.39999999674E+01  0.40000000000E+01  0.51100000000E-03 0.  1.
    9000002   -1    0    0    0    0 -0.00000000000E+00 -0.00000000000E+00  0.00000000000E+00  0.93800000000E+00  0.93800000000E+00 0.  1.
         11    1    1    2    0    0 -0.12117189088E-02 -0.12294518451E-01  0.14611294840E+00  0.14663518765E+00  0.51100000000E-03 0.  1.
    9000002    1    1    2    0    0  0.13464932811E+00  0.18567066093E+00  0.35053544328E-01  0.96626952082E+00  0.93800000000E+00 0.  1.
         22    1    1    2    0    0 -0.13343760920E+00 -0.17337614248E+00  0.38188334746E+01  0.38250952915E+01  0.00000000000E+00 0.  1.
</event>
<event>
 5    1  0.1560836E+002  0.1599671E+01  0.7818608E-02  0.3353721E+00
         11   -1    0    0    0    0  0.00000000000E+00  0.00000000000E+00  0.39999999674E+01  0.40000000000E+01  0.51100000000E-03 0.  1.
    9000002   -1    0    0    0    0 -0.00000000000E+00 -0.00000000000E+00  0.00000000000E+00  0.93800000000E+00  0.93800000000E+00 0. -1.
         11    1    1    2    0    0  0.12632216738E+00 -0.13710164013E+00  0.17684820762E+01  0.17782809858E+01  0.51100000000E-03 0.  1.
    9000002    1    1    2    0    0 -0.27719768352E+00  0.30757940285E+00  0.11586031503E+00  0.10318484663E+01  0.93800000000E+00 0. -1.
         22    1    1    2    0    0  0.15087551615E+00 -0.17047776273E+00  0.21156575761E+01  0.21278705479E+01  0.00000000000E+00 0.  1.
</event>
<event>
 5    1  0.1560836E+002  0.1599670E+01  0.7818608E-02  0.3353721E+00
         11   -1    0    0    0    0  0.00000000000E+00  0.00000000000E+00  0.39999999674E+01  0.40000000000E+01  0.51100000000E-03 0.  1.
    9000002   -1    0    0    0    0 -0.00000000000E+00 -0.00000000000E+00  0.00000000000E+00  0.93800000000E+00  0.93800000000E+00 0. -1.
         11    1    1    2    0    0  0.36271824307E-01 -0.42057216834E-01  0.72066122326E+00  0.72279825302E+00  0.51100000000E-03 0.  1.
    9000002    1    1    2    0    0 -0.18542499384E+00  0.22860861208E+00  0.57776645064E-01  0.98479767799E+00  0.93800000000E+00 0. -1.
         22    1    1    2    0    0  0.14915316954E+00 -0.18655139525E+00  0.32215620990E+01  0.32304040690E+01  0.00000000000E+00 0.  1.
</event>
<event>
 5    1  0.1560836E+002  0.1599400E+01  0.7818608E-02  0.3354014E+00
         11   -1    0    0    0    0  0.00000000000E+00  0.00000000000E+00  0.39999999674E+01  0.40000000000E+01  0.51100000000E-03 0.  1.
    9000002   -1    0    0    0    0 -0.00000000000E+00 -0.00000000000E+00  0.00000000000E+00  0.93800000000E+00  0.93800000000E+00 0. -1.
         11    1    1    2    0    0  0.79950623173E-01  0.23757776133E-01  0.11182410311E+01  0.11213473141E+01  0.51100000000E-03 0.  1.
    9000002    1    1    2    0    0 -0.27098560294E+00 -0.14631163151E+00  0.63534113001E-01  0.98930322653E+00  0.93800000000E+00 0. -1.
         22    1    1    2    0    0  0.19103497977E+00  0.12255385538E+00  0.28182248233E+01  0.28273494594E+01  0.00000000000E+00 0.  1.
</event>
<event>
 5    1  0.1560836E+002  0.1599643E+01  0.7818608E-02  0.3353751E+00
         11   -1    0    0    0    0  0.00000000000E+00  0.00000000000E+00  0.39999999674E+01  0.40000000000E+01  0.51100000000E-03 0.  1.
    9000002   -1    0    0    0    0 -0.00000000000E+00 -0.00000000000E+00  0.00000000000E+00  0.93800000000E+00  0.93800000000E+00 0.  1.
         11    1    1    2    0    0 -0.37559070877E-01  0.27463680251E-01  0.62006638608E+00  0.62180987593E+00  0.51100000000E-03 0.  1.
    9000002    1    1    2    0    0  0.21072807807E+00 -0.19089276393E+00  0.53883830302E-01  0.98162815637E+00  0.93800000000E+00 0.  1.
         22    1    1    2    0    0 -0.17316900719E+00  0.16342908368E+00  0.33260497510E+01  0.33345619677E+01  0.00000000000E+00 0.  1.
</event>
<event>
 5    1  0.1560836E+002  0.1495466E+01  0.7818608E-02  0.3475270E+00
         11   -1    0    0    0    0  0.00000000000E+00  0.00000000000E+00  0.39999999674E+01  0.40000000000E+01  0.51100000000E-03 0.  1.
    9000002   -1    0    0    0    0 -0.00000000000E+00 -0.00000000000E+00  0.00000000000E+00  0.93800000000E+00  0.93800000000E+00 0. -1.
         11    1    1    2    0    0  0.13353796458E-01  0.44832681195E+00  0.19194990140E+01  0.19712057173E+01  0.51100000000E-03 0.  1.
    9000002    1    1    2    0    0 -0.77557069342E-01 -0.12315850669E+00  0.95166660588E-01  0.95398312881E+00  0.93800000000E+00 0. -1.
         22    1    1    2    0    0  0.64203272884E-01 -0.32516830527E+00  0.19853342928E+01  0.20128111539E+01  0.00000000000E+00 0.  1.
</event>
<event>
 5    1  0.1560836E+002  0.1584530E+01  0.7818608E-02  0.3370327E+00
         11   -1    0    0    0    0  0.00000000000E+00  0.00000000000E+00  0.39999999674E+01  0.40000000000E+01  0.51100000000E-03 0. -1.
    9000002   -1    0    0    0    0 -0.00000000000E+00 -0.00000000000E+00  0.00000000000E+00  0.93800000000E+00  0.93800000000E+00 0.  1.
         11    1    1    2    0    0  0.17255983363E+00  0.16369558957E+00  0.26108841932E+01  0.26216959537E+01  0.51100000000E-03 0. -1.
    9000002    1    1    2    0    0 -0.45356926710E+00 -0.24738253051E+00  0.19722992158E+00  0.10888832988E+01  0.93800000000E+00 0.  1.
         22    1    1    2    0    0  0.28100943348E+00  0.83686940943E-01  0.11918858526E+01  0.12274207475E+01  0.00000000000E+00 0. -1.
</event>
<event>
 5    1  0.1560836E+002  0.1598247E+01  0.7818608E-02  0.3355269E+00
         11   -1    0    0    0    0  0.00000000000E+00  0.00000000000E+00  0.39999999674E+01  0.40000000000E+01  0.51100000000E-03 0. -1.
    9000002   -1    0    0    0    0 -0.00000000000E+00 -0.00000000000E+00  0.00000000000E+00  0.93800000000E+00  0.93800000000E+00 0. -1.
         11    1    1    2    0    0  0.34582071150E-02  0.74528057144E-01  0.60222343575E+00  0.60682758523E+00  0.51100000000E-03 0. -1.
    9000002    1    1    2    0    0  0.17627044779E-02 -0.27464381356E+00  0.51314754362E-01  0.97872853002E+00  0.93800000000E+00 0. -1.
         22    1    1    2    0    0 -0.52209115929E-02  0.20011575642E+00  0.33464617772E+01  0.33524438848E+01  0.00000000000E+00 0. -1.
</event>
<event>
 5    1  0.1560836E+002  0.1599669E+01  0.7818608E-02  0.3353723E+00
         11   -1    0    0    0    0  0.00000000000E+00  0.00000000000E+00  0.39999999674E+01  0.40000000000E+01  0.51100000000E-03 0. -1.
    9000002   -1    0    0    0    0 -0.00000000000E+00 -0.00000000000E+00  0.00000000000E+00  0.93800000000E+00  0.93800000000E+00 0. -1.
         11    1    1    2    0    0  0.44476278492E-01 -0.50978600277E-01  0.88580832957E+00  0.88838821181E+00  0.51100000000E-03 0. -1.
    9000002    1    1    2    0    0 -0.20741110368E+00  0.21820936046E+00  0.60475970974E-01  0.98698329975E+00  0.93800000000E+00 0. -1.
         22    1    1    2    0    0  0.16293482519E+00 -0.16723076018E+00  0.30537156668E+01  0.30626284884E+01  0.00000000000E+00 0. -1.
</event>
<event>
 5    1  0.1560836E+002  0.1514475E+01  0.7818608E-02  0.3451763E+00
         11   -1    0    0    0    0  0.00000000000E+00  0.00000000000E+00  0.39999999674E+01  0.40000000000E+01  0.51100000000E-03 0.  1.
    9000002   -1    0    0    0    0 -0.00000000000E+00 -0.00000000000E+00  0.00000000000E+00  0.93800000000E+00  0.93800000000E+00 0. -1.
         11    1    1    2    0    0  0.86441052381E-01 -0.17127742580E+00  0.16820954349E+01  0.16930012774E+01  0.51100000000E-03 0.  1.
    9000002    1    1    2    0    0 -0.85985153642E+00  0.23514654316E+00  0.75026261742E+00  0.14957862670E+01  0.93800000000E+00 0. -1.
         22    1    1    2    0    0  0.77341048404E+00 -0.63869117360E-01  0.15676419151E+01  0.17492124556E+01  0.00000000000E+00 0.  1.
</event>
<event>
 5    1  0.1560836E+002  0.1599676E+01  0.7818608E-02  0.3353715E+00
         11   -1    0    0    0    0  0.00000000000E+00  0.00000000000E+00  0.39999999674E+01  0.40000000000E+01  0.51100000000E-03 0.  1.
    9000002   -1    0    0    0    0 -0.00000000000E+00 -0.00000000000E+00  0.00000000000E+00  0.93800000000E+00  0.93800000000E+00 0. -1.
         11    1    1    2    0    0 -0.64280953751E-01 -0.65590823314E-01  0.65078762905E+00  0.65723587575E+00  0.51100000000E-03 0.  1.
    9000002    1    1    2    0    0  0.37139310866E+00  0.38508675473E+00  0.19714430164E+00  0.10976950968E+01  0.93800000000E+00 0. -1.
         22    1    1    2    0    0 -0.30711215491E+00 -0.31949593142E+00  0.31520680367E+01  0.31830690275E+01  0.00000000000E+00 0.  1.
</event>
<event>
 5    1  0.1560836E+002  0.1599673E+01  0.7818608E-02  0.3353719E+00
         11   -1    0    0    0    0  0.00000000000E+00  0.00000000000E+00  0.39999999674E+01  0.40000000000E+01  0.51100000000E-03 0. -1.
    9000002   -1    0    0    0    0 -0.00000000000E+00 -0.00000000000E+00  0.00000000000E+00  0.93800000000E+00  0.93800000000E+00 0. -1.
         11    1    1    2    0    0 -0.48084262122E-03  0.51598468252E-01  0.51198419715E+00  0.51457818880E+00  0.51100000000E-03 0. -1.
    9000002    1    1    2    0    0  0.13633408483E-01 -0.39948056713E+00  0.10776796576E+00  0.10252943615E+01  0.93800000000E+00 0. -1.
         22    1    1    2    0    0 -0.13152565862E-01  0.34788209887E+00  0.33802478045E+01  0.33981274497E+01  0.00000000000E+00 0. -1.
</event>
<event>
 5    1  0.1560836E+002  0.1599564E+01  0.7818608E-02  0.3353837E+00
         11   -1    0    0    0    0  0.00000000000E+00  0.00000000000E+00  0.39999999674E+01  0.40000000000E+01  0.51100000000E-03 0. -1.
    9000002   -1    0    0    0    0 -0.00000000000E+00 -0.00000000000E+00  0.00000000000E+00  0.93800000000E+00  0.93800000000E+00 0. -1.
         11    1    1    2    0    0  0.23775266599E-01  0.69744873888E-01  0.83784478407E+00  0.84107892261E+00  0.51100000000E-03 0. -1.
    9000002    1    1    2    0    0 -0.12128381992E+00 -0.27942163478E+00  0.62014306426E-01  0.98816799643E+00  0.93800000000E+00 0. -1.
         22    1    1    2    0    0  0.97508553324E-01  0.20967676089E+00  0.31001408769E+01  0.31087530810E+01  0.00000000000E+00 0. -1.
</event>
<event>
 5    1  0.1560836E+002  0.1599532E+01  0.7818608E-02  0.3353871E+00
         11   -1    0    0    0    0  0.00000000000E+00  0.00000000000E+00  0.39999999674E+01  0.40000000000E+01  0.51100000000E-03 0.  1.
    9000002   -1    0    0    0    0 -0.00000000000E+00 -0.00000000000E+00  0.00000000000E+00  0.93800000000E+00  0.93800000000E+00 0.  1.
         11    1    1    2    0    0  0.33492469266E+00  0.59598195818E+00  0.26152568598E+01  0.27031348002E+01  0.51100000000E-03 0.  1.
    9000002    1    1    2    0    0 -0.44941242424E+00 -0.77479494427E+00  0.61316422293E+00  0.14346055545E+01  0.93800000000E+00 0.  1.
         22    1    1    2    0    0  0.11448773159E+00  0.17881298609E+00  0.77157888460E+00  0.80025964526E+00  0.00000000000E+00 0.  1.
</event>
<event>
 5    1  0.1560836E+002  0.1599521E+01  0.7818608E-02  0.3353884E+00
         11   -1    0    0    0    0  0.00000000000E+00  0.00000000000E+00  0.39999999674E+01  0.40000000000E+01  0.51100000000E-03 0.  1.
    9000002   -1    0    0    0    0 -0.00000000000E+00 -0.00000000000E+00  0.00000000000E+00  0.93800000000E+00  0.93800000000E+00 0.  1.
         11    1    1    2    0    0 -0.50486666186E-01 -0.47268078750E-01  0.76516409416E+00  0.76828349380E+00  0.51100000000E-03 0.  1.
    9000002    1    1    2    0    0  0.25885136396E+00  0.18171521463E+00  0.66954920253E-01  0.99214485293E+00  0.93800000000E+00 0.  1.
         22    1    1    2    0    0 -0.20836469777E+00 -0.13444713588E+00  0.31678809529E+01  0.31775716533E+01  0.00000000000E+00 0.  1.
</event>
<event>
 5    1  0.1560836E+002  0.1599439E+01  0.7818608E-02  0.3353973E+00
         11   -1    0    0    0    0  0.00000000000E+00  0.00000000000E+00  0.39999999674E+01  0.40000000000E+01  0.51100000000E-03 0. -1.
    9000002   -1    0    0    0    0 -0.00000000000E+00 -0.00000000000E+00  0.00000000000E+00  0.93800000000E+00  0.93800000000E+00 0. -1.
         11    1    1    2    0    0 -0.17404832153E-01  0.14762861432E-01  0.45698405201E+00  0.45755388227E+00  0.51100000000E-03 0. -1.
    9000002    1    1    2    0    0  0.24126036066E+00 -0.79071423522E-01  0.43014818384E-01  0.97270402808E+00  0.93800000000E+00 0. -1.
         22    1    1    2    0    0 -0.22385552850E+00  0.64308562090E-01  0.35000010970E+01  0.35077420897E+01  0.00000000000E+00 0. -1.
</event>
<event>
 5    1  0.1560836E+002  0.1599647E+01  0.7818608E-02  0.3353746E+00
         11   -1    0    0    0    0  0.00000000000E+00  0.00000000000E+00  0.39999999674E+01  0.40000000000E+01  0.51100000000E-03 0. -1.
    9000002   -1    0    0    0    0 -0.00000000000E+00 -0.00000000000E+00  0.00000000000E+00  0.93800000000E+00  0.93800000000E+00 0.  1.
         11    1    1    2    0    0  0.14602291077E+00  0.12222066261E+00  0.19393533340E+01  0.19486796032E+01  0.51100000000E-03 0. -1.
    9000002    1    1    2    0    0 -0.30404862290E+00 -0.25310030545E+00  0.10553154193E+00  0.10234677504E+01  0.93800000000E+00 0.  1.
         22    1    1    2    0    0  0.15802571213E+00  0.13087964284E+00  0.19551150914E+01  0.19658526464E+01  0.00000000000E+00 0. -1.
</event>
<event>
 5    1  0.1560836E+002  0.1599449E+01  0.7818608E-02  0.3353962E+00
         11   -1    0    0    0    0  0.00000000000E+00  0.00000000000E+00  0.39999999674E+01  0.40000000000E+01  0.51100000000E-03 0.  1.
    9000002   -1    0    0    0    0 -0.00000000000E+00 -0.00000000000E+00  0.00000000000E+00  0.93800000000E+00  0.93800000000E+00 0. -1.
         11    1    1    2    0    0  0.33951927308E-01  0.16881237771E-01  0.42396213192E+00  0.42565462523E+00  0.51100000000E-03 0.  1.
    9000002    1    1    2    0    0 -0.22290144545E+00 -0.20577077001E+00  0.61590290387E-01  0.98775706935E+00  0.93800000000E+00 0. -1.
         22    1    1    2    0    0  0.18894951814E+00  0.18888953224E+00  0.35144475450E+01  0.35245883054E+01  0.00000000000E+00 0.  1.
</event>
<event>
 5    1  0.1560836E+002  0.1599219E+01  0.7818608E-02  0.3354211E+00
         11   -1    0    0    0    0  0.00000000000E+00  0.00000000000E+00  0.39999999674E+01  0.40000000000E+01  0.51100000000E-03 0. -1.
    9000002   -1    0    0    0    0 -0.00000000000E+00 -0.00000000000E+00  0.00000000000E+00  0.93800000000E+00  0.93800000000E+00 0. -1.
         11    1    1    2    0    0 -0.14859955608E+00  0.78207424421E-01  0.14712407852E+01  0.14807930100E+01  0.51100000000E-03 0. -1.
    9000002    1    1    2    0    0  0.34782249940E+00 -0.15959347132E+00  0.98946416931E-01  0.10178825868E+01  0.93800000000E+00 0. -1.
         22    1    1    2    0    0 -0.19922294332E+00  0.81386046901E-01  0.24298127653E+01  0.24393244032E+01  0.00000000000E+00 0. -1.
</event>
<event>
 5    1  0.1560836E+002  0.1476249E+01  0.7818608E-02  0.3499699E+00
         11   -1    0    0    0    0  0.00000000000E+00  0.00000000000E+00  0.39999999674E+01  0.40000000000E+01  0.51100000000E-03 0. -1.
    9000002   -1    0    0    0    0 -0.00000000000E+00 -0.00000000000E+00  0.00000000000E+00  0.93800000000E+00  0.93800000000E+00 0. -1.
         11    1    1    2    0    0  0.19773482100E+00 -0.43709899904E-01  0.23451483780E+00  0.30985010094E+00  0.51100000000E-03 0. -1.
    9000002    1    1    2    0    0  0.15479937894E+00 -0.11532698784E+00  0.12338439415E+00  0.96557281992E+00  0.93800000000E+00 0. -1.
         22    1    1    2    0    0 -0.35253419994E+00  0.15903688774E+00  0.36421007354E+01  0.36625770791E+01  0.00000000000E+00 0. -1.
</event>
<event>
 5    1  0.1560836E+002  0.1599672E+01  0.7818608E-02  0.3353719E+00
         11   -1    0    0    0    0  0.00000000000E+00  0.00000000000E+00  0.39999999674E+01  0.40000000000E+01  0.51100000000E-03 0.  1.
    9000002   -1    0    0    0    0 -0.00000000000E+00 -0.00000000000E+00  0.00000000000E+00  0.93800000000E+00  0.93800000000E+00 0. -1.
         11    1    1    2    0    0  0.33037061723E-01  0.14270831847E+00  0.13484803080E+01  0.13564131059E+01  0.51100000000E-03 0.  1.
    9000002    1    1    2    0    0 -0.89962874378E-01 -0.41546202841E+00  0.12229872207E+00  0.10370646042E+01  0.93800000000E+00 0. -1.
         22    1    1    2    0    0  0.56925812656E-01  0.27275370993E+00  0.25292209372E+01  0.25445222899E+01  0.00000000000E+00 0.  1.
</event>
<event>
 5    1  0.1560836E+002  0.1599668E+01  0.7818608E-02  0.3353724E+00
         11   -1    0    0    0    0  0.00000000000E+00  0.00000000000E+00  0.39999999674E+01  0.40000000000E+01  0.51100000000E-03 0. -1.
    9000002   -1    0    0    0    0 -0.00000000000E+00 -0.00000000000E+00  0.00000000000E+00  0.93800000000E+00  0.93800000000E+00 0.  1.
         11    1    1    2    0    0 -0.14388664966E+00  0.89901858005E-01  0.88583021425E+00  0.90193189412E+00  0.51100000000E-03 0. -1.
    9000002    1    1    2    0    0  0.58237279726E+00 -0.36803164990E+00  0.33820120994E+00  0.12119527337E+01  0.93800000000E+00 0.  1.
         22    1    1    2    0    0 -0.43848614759E+00  0.27812979189E+00  0.27759685432E+01  0.28241153722E+01  0.00000000000E+00 0. -1.
</event>
<event>
 5    1  0.1560836E+002  0.1599186E+01  0.7818608E-02  0.3354247E+00
         11   -1    0    0    0    0  0.00000000000E+00  0.00000000000E+00  0.39999999674E+01  0.40000000000E+01  0.51100000000E-03 0.  1.
    9000002   -1    0    0    0    0 -0.00000000000E+00 -0.00000000000E+00  0.00000000000E+00  0.93800000000E+00  0.93800000000E+00 0. -1.
         11    1    1    2    0    0  0.17838636056E+00 -0.12651979727E+00  0.17343394469E+01  0.17480739489E+01  0.51100000000E-03 0.  1.
    9000002    1    1    2    0    0 -0.35265000978E+00  0.24464033745E+00  0.12515779893E+00  0.10390954714E+01  0.93800000000E+00 0. -1.
         22    1    1    2    0    0  0.17426364922E+00 -0.11812054018E+00  0.21405027216E+01  0.21508305797E+01  0.00000000000E+00 0.  1.
</event>
<event>
 5    1  0.1560836E+002  0.1599662E+01  0.7818608E-02  0.3353731E+00
         11   -1    0    0    0    0  0.00000000000E+00  0.00000000000E+00  0.39999999674E+01  0.40000000000E+01  0.51100000000E-03 0.  1.
    9000002   -1    0    0    0    0 -0.00000000000E+00 -0.00000000000E+00  0.00000000000E+00  0.93800000000E+00  0.93800000000E+00 0. -1.
         11    1    1    2    0    0 -0.21012765077E-02  0.89432651881E-03  0.42430975237E-01  0.42495458151E-01  0.51100000000E-03 0.  1.
    9000002    1    1    2    0    0  0.22523124696E+00 -0.11606081733E-01  0.33739921497E-01  0.96532181061E+00  0.93800000000E+00 0. -1.
         22    1    1    2    0    0 -0.22312997046E+00  0.10711755215E-01  0.39238290706E+01  0.39301827312E+01  0.00000000000E+00 0.  1.
</event>
<event>
 5    1  0.1560836E+002  0.1598141E+01  0.7818608E-02  0.3355384E+00
         11   -1    0    0    0    0  0.00000000000E+00  0.00000000000E+00  0.39999999674E+01  0.40000000000E+01  0.51100000000E-03 0. -1.
    9000002   -1    0    0    0    0 -0.00000000000E+00 -0.00000000000E+00  0.00000000000E+00  0.93800000000E+00  0.93800000000E+00 0. -1.
         11    1    1    2    0    0  0.25340307126E+00  0.11594655868E+00  0.20869813316E+01  0.21055042295E+01  0.51100000000E-03 0. -1.
    9000002    1    1    2    0    0 -0.53870064476E+00 -0.18072909481E+00  0.22526819870E+00  0.11195763269E+01  0.93800000000E+00 0. -1.
         22    1    1    2    0    0  0.28529757349E+00  0.64782536131E-01  0.16877504370E+01  0.17129194436E+01  0.00000000000E+00 0. -1.
</event>
<event>
 5    1  0.1560836E+002  0.1599026E+01  0.7818608E-02  0.3354421E+00
         11   -1    0    0    0    0  0.00000000000E+00  0.00000000000E+00  0.39999999674E+01  0.40000000000E+01  0.51100000000E-03 0. -1.
    9000002   -1    0    0    0    0 -0.00000000000E+00 -0.00000000000E+00  0.00000000000E+00  0.93800000000E+00  0.93800000000E+00 0. -1.
         11    1    1    2    0    0  0.22963804198E-01  0.11410788602E-01  0.21238626782E+00  0.21392926466E+00  0.51100000000E-03 0. -1.
    9000002    1    1    2    0    0 -0.17400146903E+00 -0.16532126388E+00  0.38735185223E-01  0.96899537981E+00  0.93800000000E+00 0. -1.
         22    1    1    2    0    0  0.15103766483E+00  0.15391047528E+00  0.37488785143E+01  0.37550753555E+01  0.00000000000E+00 0. -1.
</event>
<event>
 5    1  0.1560836E+002  0.1526175E+01  0.7818608E-02  0.3437606E+00
         11   -1    0    0    0    0  0.00000000000E+00  0.00000000000E+00  0.39999999674E+01  0.40000000000E+01  0.51100000000E-03 0.  1.
    9000002   -1    0    0    0    0 -0.00000000000E+00 -0.00000000000E+00  0.00000000000E+00  0.93800000000E+00  0.93800000000E+00 0. -1.
         11    1    1    2    0    0  0.28921638500E-01 -0.19764446201E+00  0.34735290523E+00  0.40069202192E+00  0.51100000000E-03 0.  1.
    9000002    1    1    2    0    0  0.19705535092E+00  0.12986013848E+00  0.95044090578E-01  0.97189086118E+00  0.93800000000E+00 0. -1.
         22    1    1    2    0    0 -0.22597698942E+00  0.67784323531E-01  0.35576029716E+01  0.35654171169E+01  0.00000000000E+00 0.  1.
</event>
<event>
 5    1  0.1560836E+002  0.1599676E+01  0.7818608E-02  0.3353715E+00
         11   -1    0    0    0    0  0.00000000000E+00  0.00000000000E+00  0.39999999674E+01  0.40000000000E+01  0.51100000000E-03 0. -1.
    9000002   -1    0    0    0    0 -0.00000000000E+00 -0.00000000000E+00  0.00000000000E+00  0.93800000000E+00  0.93800000000E+00 0. -1.
         11    1    1    2    0    0  0.51558098133E+00  0.77915483545E-01  0.25723583888E+01  0.26246756967E+01  0.51100000000E-03 0. -1.
    9000002    1    1    2    0    0 -0.72335064815E+00 -0.10856280966E+00  0.38573675621E+00  0.12504634696E+01  0.93800000000E+00 0. -1.
         22    1    1    2    0    0  0.20776966682E+00  0.30647326115E-01  0.10419048223E+01  0.10628608337E+01  0.00000000000E+00 0.  1.
</event>
<event>
 5    1  0.1560836E+002  0.1599676E+01  0.7818608E-02  0.3353715E+00
         11   -1    0    0    0    0  0.00000000000E+00  0.00000000000E+00  0.39999999674E+01  0.40000000000E+01  0.51100000000E-03 0. -1.
    9000002   -1    0    0    0    0 -0.00000000000E+00 -0.00000000000E+00  0.00000000000E+00  0.93800000000E+00  0.93800000000E+00 0. -1.
         11    1    1    2    0    0 -0.17010266967E-01  0.44665750300E-01  0.70730203145E+00  0.70891522995E+00  0.51100000000E-03 0. -1.
    9000002    1    1    2    0    0  0.91987318196E-01 -0.24880189984E+00  0.46798974804E-01  0.97590890769E+00  0.93800000000E+00 0. -1.
         22    1    1    2    0    0 -0.74977051228E-01  0.20413614954E+00  0.32458989611E+01  0.32531758624E+01  0.00000000000E+00 0. -1.
</event>
<event>
 5    1  0.1560836E+002  0.1599674E+01  0.7818608E-02  0.3353717E+00
         11   -1    0    0    0    0  0.00000000000E+00  0.00000000000E+00  0.39999999674E+01  0.40000000000E+01  0.51100000000E-03 0.  1.
    9000002   -1    0    0    0    0 -0.00000000000E+00 -0.00000000000E+00  0.00000000000E+00  0.93800000000E+00  0.93800000000E+00 0. -1.
         11    1    1    2    0    0  0.60269803685E-01 -0.59924382383E-01  0.11753365933E+01  0.11784055964E+01  0.51100000000E-03 0.  1.
    9000002    1    1    2    0    0 -0.20634406965E+00  0.19666254031E+00  0.54134286871E-01  0.98184955612E+00  0.93800000000E+00 0. -1.
         22    1    1    2    0    0  0.14607426596E+00 -0.13673815793E+00  0.27705290872E+01  0.27777448475E+01  0.00000000000E+00 0.  1.
</event>
<event>
 5    1  0.1560836E+002  0.1599662E+01  0.7818608E-02  0.3353730E+00
         11   -1    0    0    0    0  0.00000000000E+00  0.00000000000E+00  0.39999999674E+01  0.40000000000E+01  0.51100000000E-03 0. -1.
    9000002   -1    0    0    0    0 -0.00000000000E+00 -0.00000000000E+00  0.00000000000E+00  0.93800000000E+00  0.93800000000E+00 0. -1.
         11    1    1    2    0    0 -0.29099995017E+00  0.24109461886E-01  0.22516566426E+01  0.22705109853E+01  0.51100000000E-03 0. -1.
    9000002    1    1    2    0    0  0.49088421947E+00 -0.34772123461E-01  0.16557951411E+00  0.10721179940E+01  0.93800000000E+00 0. -1.
         22    1    1    2    0    0 -0.19988426929E+00  0.10662661574E-01  0.15827638107E+01  0.15953710207E+01  0.00000000000E+00 0. -1.
</event>
<event>
 5    1  0.1560836E+002  0.1599676E+01  0.7818608E-02  0.3353715E+00
         11   -1    0    0    0    0  0.00000000000E+00  0.00000000000E+00  0.39999999674E+01  0.40000000000E+01  0.51100000000E-03 0.  1.
    9000002   -1    0    0    0    0 -0.00000000000E+00 -0.00000000000E+00  0.00000000000E+00  0.93800000000E+00  0.93800000000E+00 0.  1.
         11    1    1    2    0    0  0.66958936778E-01  0.63997535525E-01  0.11726510736E+01  0.11763035260E+01  0.51100000000E-03 0.  1.
    9000002    1    1    2    0    0 -0.22270213142E+00 -0.21803179440E+00  0.64872078479E-01  0.99054857997E+00  0.93800000000E+00 0.  1.
         22    1    1    2    0    0  0.15574319464E+00  0.15403425887E+00  0.27624768153E+01  0.27711478940E+01  0.00000000000E+00 0.  1.
</event>
<event>
 5    1  0.1560836E+002  0.1599467E+01  0.7818608E-02  0.3353942E+00
         11   -1    0    0    0    0  0.00000000000E+00  0.00000000000E+00  0.39999999674E+01  0.40000000000E+01  0.51100000000E-03 0. -1.
    9000002   -1    0    0    0    0 -0.00000000000E+00 -0.00000000000E+00  0.00000000000E+00  0.93800000000E+00  0.93800000000E+00 0. -1.
         11    1    1    2    0    0 -0.31388877282E-01  0.11964455757E+00  0.14194564900E+01  0.14248358046E+01  0.51100000000E-03 0. -1.
    9000002    1    1    2    0    0  0.12699147649E+00 -0.30773784993E+00  0.74343761343E-01  0.99809839907E+00  0.93800000000E+00 0. -1.
         22    1    1    2    0    0 -0.95602599208E-01  0.18809329235E+00  0.25061997160E+01  0.25150657964E+01  0.00000000000E+00 0. -1.
</event>
<event>
 5    1  0.1560836E+002  0.1592503E+01  0.7818608E-02  0.3361540E+00
         11   -1    0    0    0    0  0.00000000000E+00  0.00000000000E+00  0.39999999674E+01  0.40000000000E+01  0.51100000000E-03 0.  1.
    9000002   -1    0    0    0    0 -0.00000000000E+00 -0.00000000000E+00  0.00000000000E+00  0.93800000000E+00  0.93800000000E+00 0.  1.
         11    1    1    2    0    0 -0.14377455336E+00  0.13609665155E+00  0.15120719256E+01  0.15249771113E+01  0.51100000000E-03 0.  1.
    9000002    1    1    2    0    0  0.57605055650E+00 -0.41047805709E+00  0.36644609120E+00  0.12306312270E+01  0.93800000000E+00 0.  1.
         22    1    1    2    0    0 -0.43227600315E+00  0.27438140554E+00  0.21214819506E+01  0.21823916617E+01  0.00000000000E+00 0.  1.
</event>
<event>
 5    1  0.1560836E+002  0.1599430E+01  0.7818608E-02  0.3353982E+00
         11   -1    0    0    0    0  0.00000000000E+00  0.00000000000E+00  0.39999999674E+01  0.40000000000E+01  0.51100000000E-03 0. -1.
    9000002   -1    0    0    0    0 -0.00000000000E+00 -0.00000000000E+00  0.00000000000E+00  0.93800000000E+00  0.93800000000E+00 0. -1.
         11    1    1    2    0    0 -0.15178174589E-03  0.61379111286E-02  0.39503572594E-01  0.39981125039E-01  0.51100000000E-03 0. -1.
    9000002    1    1    2    0    0 -0.26867982117E-02 -0.24016264036E+00  0.38479692505E-01  0.96902528318E+00  0.93800000000E+00 0. -1.
         22    1    1    2    0    0  0.28385799576E-02  0.23402472923E+00  0.39220167023E+01  0.39289935918E+01  0.00000000000E+00 0. -1.
</event>
<event>
 5    1  0.1560836E+002  0.1599677E+01  0.7818608E-02  0.3353714E+00
         11   -1    0    0    0    0  0.00000000000E+00  0.00000000000E+00  0.39999999674E+01  0.40000000000E+01  0.51100000000E-03 0. -1.
    9000002   -1    0    0    0    0 -0.00000000000E+00 -0.00000000000E+00  0.00000000000E+00  0.93800000000E+00  0.93800000000E+00 0.  1.
         11    1    1    2    0    0 -0.62769733076E-01  0.12250784451E+00  0.10738500014E+01  0.10826367341E+01  0.51100000000E-03 0. -1.
    9000002    1    1    2    0    0  0.22560572841E+00 -0.43612979804E+00  0.16480597434E+00  0.10714999555E+01  0.93800000000E+00 0.  1.
         22    1    1    2    0    0 -0.16283599534E+00  0.31362195353E+00  0.27613439916E+01  0.27838633104E+01  0.00000000000E+00 0. -1.
</event>
<event>
 5    1  0.1560836E+002  0.1589932E+01  0.7818608E-02  0.3364364E+00
         11   -1    0    0    0    0  0.00000000000E+00  0.00000000000E+00  0.39999999674E+01  0.40000000000E+01  0.51100000000E-03 0.  1.
    9000002   -1    0    0    0    0 -0.00000000000E+00 -0.00000000000E+00  0.00000000000E+00  0.93800000000E+00  0.93800000000E+00 0. -1.
         11    1    1    2    0    0 -0.51286298771E-02  0.13659605434E+00  0.10990679137E+01  0.11075356992E+01  0.51100000000E-03 0.  1.
    9000002    1    1    2    0    0 -0.19672051921E+00 -0.17405094674E+00  0.53403927215E-01  0.97554532144E+00  0.93800000000E+00 0. -1.
         22    1    1    2    0    0  0.20184914909E+00  0.37454892398E-01  0.28475281265E+01  0.28549189794E+01  0.00000000000E+00 0.  1.
</event>
<event>
 5    1  0.1560836E+002  0.1597171E+01  0.7818608E-02  0.3356440E+00
         11   -1    0    0    0    0  0.00000000000E+00  0.00000000000E+00  0.39999999674E+01  0.40000000000E+01  0.51100000000E-03 0. -1.
    9000002   -1    0    0    0    0 -0.00000000000E+00 -0.00000000000E+00  0.00000000000E+00  0.93800000000E+00  0.93800000000E+00 0. -1.
         11    1    1    2    0    0  0.16987809559E+00 -0.23096203099E-01  0.10656497787E+01  0.10793524512E+01  0.51100000000E-03 0. -1.
    9000002    1    1    2    0    0 -0.42275635973E+00  0.54650279894E-01  0.12512506920E+00  0.10378872172E+01  0.93800000000E+00 0. -1.
         22    1    1    2    0    0  0.25287826414E+00 -0.31554076795E-01  0.28092251194E+01  0.28207603315E+01  0.00000000000E+00 0. -1.
</event>
<event>
 5    1  0.1560836E+002  0.1599652E+01  0.7818608E-02  0.3353742E+00
         11   -1    0    0    0    0  0.00000000000E+00  0.00000000000E+00  0.39999999674E+01  0.40000000000E+01  0.51100000000E-03 0. -1.
    9000002   -1    0    0    0    0 -0.00000000000E+00 -0.00000000000E+00  0.00000000000E+00  0.93800000000E+00  0.93800000000E+00 0.  1.
         11    1    1    2    0    0 -0.13105076780E-01  0.37435049669E-01  0.41908399319E+00  0.42095698171E+00  0.51100000000E-03 0. -1.
    9000002    1    1    2    0    0  0.11746229354E+00 -0.38222401630E+00  0.10786998329E+00  0.10253645802E+01  0.93800000000E+00 0.  1.
         22    1    1    2    0    0 -0.10435721676E+00  0.34478896663E+00  0.34730459909E+01  0.34916784381E+01  0.00000000000E+00 0. -1.
</event>
<event>
 5    1  0.1560836E+002  0.1599548E+01  0.7818608E-02  0.3353854E+00
         11   -1    0    0    0    0  0.00000000000E+00  0.00000000000E+00  0.39999999674E+01  0.40000000000E+01  0.51100000000E-03 0.  1.
    9000002   -1    0    0    0    0 -0.00000000000E+00 -0.00000000000E+00  0.00000000000E+00  0.93800000000E+00  0.93800000000E+00 0.  1.
         11    1    1    2    0    0 -0.21337465425E-01 -0.14667358484E-01  0.20599995325E+00  0.20762143602E+00  0.51100000000E-03 0.  1.
    9000002    1    1    2    0    0  0.33110537249E+00  0.18778360142E+00  0.97603581097E-01  0.10169876635E+01  0.93800000000E+00 0.  1.
         22    1    1    2    0    0 -0.30976790707E+00 -0.17311624294E+00  0.36963964330E+01  0.37133909005E+01  0.00000000000E+00 0.  1.
</event>
<event>
 5    1  0.1560836E+002  0.1599382E+01  0.7818608E-02  0.3354034E+00
         11   -1    0    0    0    0  0.00000000000E+00  0.00000000000E+00  0.39999999674E+01  0.40000000000E+01  0.51100000000E-03 0. -1.
    9000002   -1    0    0    0    0 -0.00000000000E+00 -0.00000000000E+00  0.00000000000E+00  0.93800000000E+00  0.93800000000E+00 0. -1.
         11    1    1    2    0    0 -0.12803290866E-01 -0.78926205156E+00  0.21948466313E+01  0.23324773325E+01  0.51100000000E-03 0. -1.
    9000002    1    1    2    0    0  0.19228268280E-01  0.10670729672E+01  0.95723445407E+00  0.17132297697E+01  0.93800000000E+00 0. -1.
         22    1    1    2    0    0 -0.64249774146E-02 -0.27781091564E+00  0.84791888197E+00  0.89229289787E+00  0.00000000000E+00 0. -1.
</event>
<event>
 5    1  0.1560836E+002  0.1411951E+01  0.7818608E-02  0.3587909E+00
         11   -1    0    0    0    0  0.00000000000E+00  0.00000000000E+00  0.39999999674E+01  0.40000000000E+01  0.51100000000E-03 0.  1.
    9000002   -1    0    0    0    0 -0.00000000000E+00 -0.00000000000E+00  0.00000000000E+00  0.93800000000E+00  0.93800000000E+00 0. -1.
         11    1    1    2    0    0  0.12167936296E+00  0.14337089766E+00  0.27027927803E+01  0.27093265134E+01  0.51100000000E-03 0.  1.
    9000002    1    1    2    0    0  0.50981681513E-01  0.41897463500E+00  0.30094924259E+00  0.10717058007E+01  0.93800000000E+00 0. -1.
         22    1    1    2    0    0 -0.17266104447E+00 -0.56234553266E+00  0.99625794444E+00  0.11569676859E+01  0.00000000000E+00 0.  1.
</event>
<event>
 5    1  0.1560836E+002  0.1599627E+01  0.7818608E-02  0.3353769E+00
         11   -1    0    0    0    0  0.00000000000E+00  0.00000000000E+00  0.39999999674E+01  0.40000000000E+01  0.51100000000E-03 0. -1.
    9000002   -1    0    0    0    0 -0.00000000000E+00 -0.00000000000E+00  0.00000000000E+00  0.93800000000E+00  0.93800000000E+00 0. -1.
         11    1    1    2    0    0 -0.56188073344E-01 -0.14873718935E-01  0.83704430975E+00  0.83906004833E+00  0.51100000000E-03 0. -1.
    9000002    1    1    2    0    0  0.28900483768E+00  0.47998803599E-01  0.57258831271E-01  0.98435270869E+00  0.93800000000E+00 0. -1.
         22    1    1    2    0    0 -0.23281676433E+00 -0.33125084664E-01  0.31056968263E+01  0.31145872430E+01  0.00000000000E+00 0. -1.
</event>
<event>
 5    1  0.1560836E+002  0.1599629E+01  0.7818608E-02  0.3353766E+00
         11   -1    0    0    0    0  0.00000000000E+00  0.00000000000E+00  0.39999999674E+01  0.40000000000E+01  0.51100000000E-03 0. -1.
    9000002   -1    0    0    0    0 -0.00000000000E+00 -0.00000000000E+00  0.00000000000E+00  0.93800000000E+00  0.93800000000E+00 0.  1.
         11    1    1    2    0    0  0.77246633096E-02 -0.10827315103E-01  0.16566650401E+00  0.16620033949E+00  0.51100000000E-03 0. -1.
    9000002    1    1    2    0    0 -0.15859903534E+00  0.18431681243E+00  0.39293160421E-01  0.96980116200E+00  0.93800000000E+00 0.  1.
         22    1    1    2    0    0  0.15087437203E+00 -0.17348949733E+00  0.37950403029E+01  0.38019984985E+01  0.00000000000E+00 0. -1.
</event>
<event>
 5    1  0.1560836E+002  0.1599616E+01  0.7818608E-02  0.3353780E+00
         11   -1    0    0    0    0  0.00000000000E+00  0.00000000000E+00  0.39999999674E+01  0.40000000000E+01  0.51100000000E-03 0. -1.
    9000002   -1    0    0    0    0 -0.00000000000E+00 -0.00000000000E+00  0.00000000000E+00  0.93800000000E+00  0.93800000000E+00 0.  1.
         11    1    1    2    0    0 -0.11562906488E+00  0.27272359486E-02  0.10251342718E+01  0.10316385292E+01  0.51100000000E-03 0. -1.
    9000002    1    1    2    0    0  0.41563323613E+00  0.11837011480E-01  0.11691213231E+00  0.10326681696E+01  0.93800000000E+00 0.  1.
         22    1    1    2    0    0 -0.30000417125E+00 -0.14564247428E-01  0.28579535632E+01  0.28736933012E+01  0.00000000000E+00 0. -1.
</event>
<event>
 5    1  0.1560836E+002  0.1599313E+01  0.7818608E-02  0.3354109E+00
         11   -1    0    0    0    0  0.00000000000E+00  0.00000000000E+00  0.39999999674E+01  0.40000000000E+01  0.51100000000E-03 0.  1.
    9000002   -1    0    0    0    0 -0.00000000000E+00 -0.00000000000E+00  0.00000000000E+00  0.93800000000E+00  0.93800000000E+00 0. -1.
         11    1    1    2    0    0  0.12001467162E-01  0.53359909034E-02  0.50654575703E+00  0.50671626489E+00  0.51100000000E-03 0.  1.
    9000002    1    1    2    0    0 -0.18933748651E+00 -0.11475725829E+00  0.32770064803E-01  0.96433178382E+00  0.93800000000E+00 0. -1.
         22    1    1    2    0    0  0.17733601935E+00  0.10942126739E+00  0.34606841455E+01  0.34669519513E+01  0.00000000000E+00 0.  1.
</event>
<event>
 5    1  0.1560836E+002  0.1596517E+01  0.7818608E-02  0.3357152E+00
         11   -1    0    0    0    0  0.00000000000E+00  0.00000000000E+00  0.39999999674E+01  0.40000000000E+01  0.51100000000E-03 0. -1.
    9000002   -1    0    0    0    0 -0.00000000000E+00 -0.00000000000E+00  0.00000000000E+00  0.93800000000E+00  0.93800000000E+00 0. -1.
         11    1    1    2    0    0  0.12915570476E-01 -0.61654271592E-02  0.96087714035E+00  0.96098385232E+00  0.51100000000E-03 0. -1.
    9000002    1    1    2    0    0 -0.17512096565E+00 -0.18017763728E+00  0.44361512905E-01  0.97208192937E+00  0.93800000000E+00 0. -1.
         22    1    1    2    0    0  0.16220539517E+00  0.18634306444E+00  0.29947613141E+01  0.30049342183E+01  0.00000000000E+00 0. -1.
</event>
<event>
 5    1  0.1560836E+002  0.1586845E+01  0.7818608E-02  0.3367766E+00
         11   -1    0    0    0    0  0.00000000000E+00  0.00000000000E+00  0.39999999674E+01  0.40000000000E+01  0.51100000000E-03 0. -1.
    9000002   -1    0    0    0    0 -0.00000000000E+00 -0.00000000000E+00  0.00000000000E+00  0.93800000000E+00  0.93800000000E+00 0. -1.
         11    1    1    2    0    0  0.73632350093E-01  0.29472852694E+00  0.11132774134E+01  0.11539815804E+01  0.51100000000E-03 0. -1.
    9000002    1    1    2    0    0 -0.29880089563E+00 -0.56176580295E+00  0.29817951106E+00  0.11720144254E+01  0.93800000000E+00 0. -1.
         22    1    1    2    0    0  0.22516854553E+00  0.26703727601E+00  0.25885430429E+01  0.26120039942E+01  0.00000000000E+00 0. -1.
</event>
<event>
 5    1  0.1560836E+002  0.1599574E+01  0.7818608E-02  0.3353826E+00
         11   -1    0    0    0    0  0.00000000000E+00  0.00000000000E+00  0.39999999674E+01  0.40000000000E+01  0.51100000000E-03 0. -1.
    9000002   -1    0    0    0    0 -0.00000000000E+00 -0.00000000000E+00  0.00000000000E+00  0.93800000000E+00  0.93800000000E+00 0. -1.
         11    1    1    2    0    0  0.13019380871E-01 -0.14254956171E-01  0.33196182002E+00  0.33252311066E+00  0.51100000000E-03 0. -1.
    9000002    1    1    2    0    0 -0.19773199631E+00  0.10140840317E+00  0.32816185550E-01  0.96452190677E+00  0.93800000000E+00 0. -1.
         22    1    1    2    0    0  0.18471261543E+00 -0.87153447001E-01  0.36352219618E+01  0.36409549826E+01  0.00000000000E+00 0. -1.
</event>
<event>
 5    1  0.1560836E+002  0.1599568E+01  0.7818608E-02  0.3353832E+00
         11   -1    0    0    0    0  0.00000000000E+00  0.00000000000E+00  0.39999999674E+01  0.40000000000E+01  0.51100000000E-03 0. -1.
    9000002   -1    0    0    0    0 -0.00000000000E+00 -0.00000000000E+00  0.00000000000E+00  0.93800000000E+00  0.93800000000E+00 0.  1.
         11    1    1    2    0    0 -0.13400204465E+00 -0.21243375396E+00  0.20442716954E+01  0.20596435792E+01  0.51100000000E-03 0. -1.
    9000002    1    1    2    0    0  0.24791370438E+00  0.42202191452E+00  0.16380578368E+00  0.10706260019E+01  0.93800000000E+00 0.  1.
         22    1    1    2    0    0 -0.11391165973E+00 -0.20958816056E+00  0.17919224883E+01  0.18077304189E+01  0.00000000000E+00 0. -1.
</event>
<event>
 5    1  0.1560836E+002  0.1599456E+01  0.7818608E-02  0.3353954E+00
         11   -1    0    0    0    0  0.00000000000E+00  0.00000000000E+00  0.39999999674E+01  0.40000000000E+01  0.51100000000E-03 0.  1.
    9000002   -1    0    0    0    0 -0.00000000000E+00 -0.00000000000E+00  0.00000000000E+00  0.93800000000E+00  0.93800000000E+00 0. -1.
         11    1    1    2    0    0  0.37687882930E+00  0.41129621647E+00  0.25366861229E+01  0.25973022499E+01  0.51100000000E-03 0.  1.
    9000002    1    1    2    0    0 -0.53227858390E+00 -0.59416915862E+00  0.46867846911E+00  0.13175207730E+01  0.93800000000E+00 0. -1.
         22    1    1    2    0    0  0.15539975460E+00  0.18287294214E+00  0.99463537530E+00  0.10231769771E+01  0.00000000000E+00 0. -1.
</event>
<event>
 5    1  0.1560836E+002  0.1599675E+01  0.7818608E-02  0.3353716E+00
         11   -1    0    0    0    0  0.00000000000E+00  0.00000000000E+00  0.39999999674E+01  0.40000000000E+01  0.51100000000E-03 0. -1.
    9000002   -1    0    0    0    0 -0.00000000000E+00 -0.00000000000E+00  0.00000000000E+00  0.93800000000E+00  0.93800000000E+00 0.  1.
         11    1    1    2    0    0 -0.12018905925E+00  0.19202042152E+00  0.18416141018E+01  0.18554945469E+01  0.51100000000E-03 0. -1.
    9000002    1    1    2    0    0  0.25199701812E+00 -0.40395988332E+00  0.15457814169E+00  0.10632142241E+01  0.93800000000E+00 0.  1.
         22    1    1    2    0    0 -0.13180795886E+00  0.21193946180E+00  0.20038077238E+01  0.20192912290E+01  0.00000000000E+00 0. -1.
</event>
<event>
 5    1  0.1560836E+002  0.1599654E+01  0.7818608E-02  0.3353739E+00
         11   -1    0    0    0    0  0.00000000000E+00  0.00000000000E+00  0.39999999674E+01  0.40000000000E+01  0.51100000000E-03 0. -1.
    9000002   -1    0    0    0    0 -0.00000000000E+00 -0.00000000000E+00  0.00000000000E+00  0.93800000000E+00  0.93800000000E+00 0. -1.
         11    1    1    2    0    0 -0.21815246627E+00 -0.11303816867E+00  0.12241292598E+01  0.12485434842E+01  0.51100000000E-03 0. -1.
    9000002    1    1    2    0    0  0.63967059476E+00  0.32090185699E+00  0.36762400170E+00  0.12357782480E+01  0.93800000000E+00 0. -1.
         22    1    1    2    0    0 -0.42151812849E+00 -0.20786368832E+00  0.24082467059E+01  0.24536782678E+01  0.00000000000E+00 0. -1.
</event>
<event>
 5    1  0.1560836E+002  0.1597993E+01  0.7818608E-02  0.3355544E+00
         11   -1    0    0    0    0  0.00000000000E+00  0.00000000000E+00  0.39999999674E+01  0.40000000000E+01  0.51100000000E-03 0.  1.
    9000002   -1    0    0    0    0 -0.00000000000E+00 -0.00000000000E+00  0.00000000000E+00  0.93800000000E+00  0.93800000000E+00 0.  1.
         11    1    1    2    0    0 -0.10554554209E-01  0.12882344221E-01  0.89559547833E-01  0.91096252043E-01  0.51100000000E-03 0.  1.
    9000002    1    1    2    0    0  0.21705894967E+00  0.31590474132E-01  0.33162348702E-01  0.96387565954E+00  0.93800000000E+00 0.  1.
         22    1    1    2    0    0 -0.20650439546E+00 -0.44472818353E-01  0.38772780708E+01  0.38830280884E+01  0.00000000000E+00 0.  1.
</event>
<event>
 5    1  0.1560836E+002  0.1598676E+01  0.7818608E-02  0.3354801E+00
         11   -1    0    0    0    0  0.00000000000E+00  0.00000000000E+00  0.39999999674E+01  0.40000000000E+01  0.51100000000E-03 0.  1.
    9000002   -1    0    0    0    0 -0.00000000000E+00 -0.00000000000E+00  0.00000000000E+00  0.93800000000E+00  0.93800000000E+00 0.  1.
         11    1    1    2    0    0  0.47910012838E-01 -0.15775259367E+00  0.16342657019E+01  0.16425607738E+01  0.51100000000E-03 0.  1.
    9000002    1    1    2    0    0 -0.17774291893E+00  0.31352630817E+00  0.88006566402E-01  0.10087023579E+01  0.93800000000E+00 0.  1.
         22    1    1    2    0    0  0.12983290609E+00 -0.15577371451E+00  0.22777276991E+01  0.22867368683E+01  0.00000000000E+00 0.  1.
</event>
<event>
 5    1  0.1560836E+002  0.1566029E+01  0.7818608E-02  0.3391080E+00
         11   -1    0    0    0    0  0.00000000000E+00  0.00000000000E+00  0.39999999674E+01  0.40000000000E+01  0.51100000000E-03 0.  1.
    9000002   -1    0    0    0    0 -0.00000000000E+00 -0.00000000000E+00  0.00000000000E+00  0.93800000000E+00  0.93800000000E+00 0.  1.
         11    1    1    2    0    0  0.40351288765E+00  0.25506601386E+00  0.42035745534E+00  0.63606758549E+00  0.51100000000E-03 0.  1.
    9000002    1    1    2    0    0 -0.11071798649E+01 -0.57481334535E+00  0.19453629429E+01  0.24941007628E+01  0.93800000000E+00 0.  1.
         22    1    1    2    0    0  0.70366697729E+00  0.31974733149E+00  0.16342795691E+01  0.18078316517E+01  0.00000000000E+00 0.  1.
</event>
<event>
 5    1  0.1560836E+002  0.1599032E+01  0.7818608E-02  0.3354415E+00
         11   -1    0    0    0    0  0.00000000000E+00  0.00000000000E+00  0.39999999674E+01  0.40000000000E+01  0.51100000000E-03 0. -1.
    9000002   -1    0    0    0    0 -0.00000000000E+00 -0.00000000000E+00  0.00000000000E+00  0.93800000000E+00  0.93800000000E+00 0.  1.
         11    1    1    2    0    0 -0.95089907048E-01  0.61009841893E-01  0.76320094453E+00  0.77151813594E+00  0.51100000000E-03 0. -1.
    9000002    1    1    2    0    0  0.35796201065E+00 -0.28944965146E+00  0.14471591512E+00  0.10548481397E+01  0.93800000000E+00 0.  1.
         22    1    1    2    0    0 -0.26287210360E+00  0.22843980956E+00  0.30920831077E+01  0.31116337243E+01  0.00000000000E+00 0. -1.
</event>
<event>
 5    1  0.1560836E+002  0.1599669E+01  0.7818608E-02  0.3353723E+00
         11   -1    0    0    0    0  0.00000000000E+00  0.00000000000E+00  0.39999999674E+01  0.40000000000E+01  0.51100000000E-03 0.  1.
    9000002   -1    0    0    0    0 -0.00000000000E+00 -0.00000000000E+00  0.00000000000E+00  0.93800000000E+00  0.93800000000E+00 0.  1.
         11    1    1    2    0    0  0.25004190798E+00 -0.18853753646E+00  0.12897224227E+01  0.13271968758E+01  0.51100000000E-03 0.  1.
    9000002    1    1    2    0    0 -0.67398041961E+00  0.49899340778E+00  0.52518274414E+00  0.13634166428E+01  0.93800000000E+00 0.  1.
         22    1    1    2    0    0  0.42393851163E+00 -0.31045587132E+00  0.21850948006E+01  0.22473864815E+01  0.00000000000E+00 0.  1.
</event>
<event>
 5    1  0.1560836E+002  0.1589888E+01  0.7818608E-02  0.3364413E+00
         11   -1    0    0    0    0  0.00000000000E+00  0.00000000000E+00  0.39999999674E+01  0.40000000000E+01  0.51100000000E-03 0.  1.
    9000002   -1    0    0    0    0 -0.00000000000E+00 -0.00000000000E+00  0.00000000000E+00  0.93800000000E+00  0.93800000000E+00 0. -1.
         11    1    1    2    0    0 -0.58763522039E-01  0.52631834417E-01  0.67932809432E+00  0.68389339986E+00  0.51100000000E-03 0.  1.
    9000002    1    1    2    0    0 -0.17380885632E+00 -0.21955806750E+00  0.59842228267E-01  0.98073460009E+00  0.93800000000E+00 0. -1.
         22    1    1    2    0    0  0.23257237836E+00  0.16692623308E+00  0.32608296448E+01  0.32733720000E+01  0.00000000000E+00 0.  1.
</event>
<event>
 5    1  0.1560836E+002  0.1504018E+01  0.7818608E-02  0.3464615E+00
         11   -1    0    0    0    0  0.00000000000E+00  0.00000000000E+00  0.39999999674E+01  0.40000000000E+01  0.51100000000E-03 0.  1.
    9000002   -1    0    0    0    0 -0.00000000000E+00 -0.00000000000E+00  0.00000000000E+00  0.93800000000E+00  0.93800000000E+00 0.  1.
         11    1    1    2    0    0  0.63766972481E-01 -0.22110508071E+00  0.23146994621E+01  0.23261099597E+01  0.51100000000E-03 0.  1.
    9000002    1    1    2    0    0 -0.13955798790E+00 -0.24262212089E+00  0.13036845479E+00  0.98751296677E+00  0.93800000000E+00 0.  1.
         22    1    1    2    0    0  0.75791015418E-01  0.46372720161E+00  0.15549320505E+01  0.16243770736E+01  0.00000000000E+00 0.  1.
</event>
<event>
 5    1  0.1560836E+002  0.1599677E+01  0.7818608E-02  0.3353714E+00
         11   -1    0    0    0    0  0.00000000000E+00  0.00000000000E+00  0.39999999674E+01  0.40000000000E+01  0.51100000000E-03 0. -1.
    9000002   -1    0    0    0    0 -0.00000000000E+00 -0.00000000000E+00  0.00000000000E+00  0.93800000000E+00  0.93800000000E+00 0. -1.
         11    1    1    2    0    0  0.22713549887E+00  0.55446174535E+00  0.26021086523E+01  0.26702037491E+01  0.51100000000E-03 0. -1.
    9000002    1    1    2    0    0 -0.30681770794E+00 -0.74897493526E+00  0.48411532311E+00  0.13301549555E+01  0.93800000000E+00 0. -1.
         22    1    1    2    0    0  0.79682209069E-01  0.19451318992E+00  0.91377599192E+00  0.93764129543E+00  0.00000000000E+00 0.  1.
</event>
<event>
 5    1  0.1560836E+002  0.1599602E+01  0.7818608E-02  0.3353796E+00
         11   -1    0    0    0    0  0.00000000000E+00  0.00000000000E+00  0.39999999674E+01  0.40000000000E+01  0.51100000000E-03 0. -1.
    9000002   -1    0    0    0    0 -0.00000000000E+00 -0.00000000000E+00  0.00000000000E+00  0.93800000000E+00  0.93800000000E+00 0. -1.
         11    1    1    2    0    0 -0.45266073384E-01 -0.59110124384E-01  0.78990644383E+00  0.79340750900E+00  0.51100000000E-03 0. -1.
    9000002    1    1    2    0    0  0.23453845298E+00  0.25295502522E+00  0.79803474750E-01  0.10026001822E+01  0.93800000000E+00 0. -1.
         22    1    1    2    0    0 -0.18927237960E+00 -0.19384490084E+00  0.31302900488E+01  0.31419923088E+01  0.00000000000E+00 0. -1.
</event>
<event>
 5    1  0.1560836E+002  0.1599580E+01  0.7818608E-02  0.3353820E+00
         11   -1    0    0    0    0  0.00000000000E+00  0.00000000000E+00  0.39999999674E+01  0.40000000000E+01  0.51100000000E-03 0. -1.
    9000002   -1    0    0    0    0 -0.00000000000E+00 -0.00000000000E+00  0.00000000000E+00  0.93800000000E+00  0.93800000000E+00 0. -1.
         11    1    1    2    0    0  0.56891230401E-02 -0.55277966585E-01  0.81769602720E+00  0.81958225562E+00  0.51100000000E-03 0. -1.
    9000002    1    1    2    0    0 -0.68575630483E-01  0.28800692560E+00  0.58527597694E-01  0.98535277235E+00  0.93800000000E+00 0. -1.
         22    1    1    2    0    0  0.62886507443E-01 -0.23272895902E+00  0.31237763425E+01  0.31330649720E+01  0.00000000000E+00 0. -1.
</event>
<event>
 5    1  0.1560836E+002  0.1598774E+01  0.7818608E-02  0.3354695E+00
         11   -1    0    0    0    0  0.00000000000E+00  0.00000000000E+00  0.39999999674E+01  0.40000000000E+01  0.51100000000E-03 0. -1.
    9000002   -1    0    0    0    0 -0.00000000000E+00 -0.00000000000E+00  0.00000000000E+00  0.93800000000E+00  0.93800000000E+00 0.  1.
         11    1    1    2    0    0 -0.17269398158E-01  0.68434803736E-02  0.49822998568E+00  0.49857641850E+00  0.51100000000E-03 0. -1.
    9000002    1    1    2    0    0  0.28164884438E+00  0.69169440930E-01  0.56763518606E-01  0.98345136135E+00  0.93800000000E+00 0.  1.
         22    1    1    2    0    0 -0.26437944622E+00 -0.76012921303E-01  0.34450064631E+01  0.34559722201E+01  0.00000000000E+00 0. -1.
</event>
<event>
 5    1  0.1560836E+002  0.1599677E+01  0.7818608E-02  0.3353714E+00
         11   -1    0    0    0    0  0.00000000000E+00  0.00000000000E+00  0.39999999674E+01  0.40000000000E+01  0.51100000000E-03 0.  1.
    9000002   -1    0    0    0    0 -0.00000000000E+00 -0.00000000000E+00  0.00000000000E+00  0.93800000000E+00  0.93800000000E+00 0.  1.
         11    1    1    2    0    0  0.41927546585E-01 -0.11459092838E-01  0.63670720210E+00  0.63818927624E+00  0.51100000000E-03 0.  1.
    9000002    1    1    2    0    0 -0.26148916760E+00  0.73619715224E-01  0.49107690296E-01  0.97777912255E+00  0.93800000000E+00 0.  1.
         22    1    1    2    0    0  0.21956162101E+00 -0.62160622386E-01  0.33141850750E+01  0.33220316012E+01  0.00000000000E+00 0.  1.
</event>
<event>
 5    1  0.1560836E+002  0.1599675E+01  0.7818608E-02  0.3353716E+00
         11   -1    0    0    0    0  0.00000000000E+00  0.00000000000E+00  0.39999999674E+01  0.40000000000E+01  0.51100000000E-03 0.  1.
    9000002   -1    0    0    0    0 -0.00000000000E+00 -0.00000000000E+00  0.00000000000E+00  0.93800000000E+00  0.93800000000E+00 0. -1.
         11    1    1    2    0    0 -0.19514391794E+00 -0.17321395499E-01  0.17585247189E+01  0.17694040318E+01  0.51100000000E-03 0.  1.
    9000002    1    1    2    0    0  0.43198792121E+00  0.41286233541E-01  0.12760866528E+00  0.10413674129E+01  0.93800000000E+00 0. -1.
         22    1    1    2    0    0 -0.23684400327E+00 -0.23964838042E-01  0.21138665831E+01  0.21272285553E+01  0.00000000000E+00 0.  1.
</event>
<event>
 5    1  0.1560836E+002  0.1598509E+01  0.7818608E-02  0.3354983E+00
         11   -1    0    0    0    0  0.00000000000E+00  0.00000000000E+00  0.39999999674E+01  0.40000000000E+01  0.51100000000E-03 0.  1.
    9000002   -1    0    0    0    0 -0.00000000000E+00 -0.00000000000E+00  0.00000000000E+00  0.93800000000E+00  0.93800000000E+00 0. -1.
         11    1    1    2    0    0  0.44886837363E-02  0.38953074875E-01  0.27889778801E+00  0.28164113265E+00  0.51100000000E-03 0.  1.
    9000002    1    1    2    0    0  0.21009547202E+00 -0.42516827981E+00  0.15434856433E+00  0.10623444135E+01  0.93800000000E+00 0. -1.
         22    1    1    2    0    0 -0.21458415575E+00  0.38621520494E+00  0.35667536150E+01  0.35940144539E+01  0.00000000000E+00 0.  1.
</event>
<event>
 5    1  0.1560836E+002  0.1599677E+01  0.7818608E-02  0.3353714E+00
         11   -1    0    0    0    0  0.00000000000E+00  0.00000000000E+00  0.39999999674E+01  0.40000000000E+01  0.51100000000E-03 0. -1.
    9000002   -1    0    0    0    0 -0.00000000000E+00 -0.00000000000E+00  0.00000000000E+00  0.93800000000E+00  0.93800000000E+00 0.  1.
         11    1    1    2    0    0 -0.17246205574E+00 -0.53664309784E-01  0.14989480592E+01  0.15097909008E+01  0.51100000000E-03 0. -1.
    9000002    1    1    2    0    0  0.44241451112E+00  0.13830586831E+00  0.14622577970E+00  0.10564492849E+01  0.93800000000E+00 0.  1.
         22    1    1    2    0    0 -0.26995245538E+00 -0.84641558528E-01  0.23548261285E+01  0.23717598144E+01  0.00000000000E+00 0.  1.
</event>
<event>
 5    1  0.1560836E+002  0.1599609E+01  0.7818608E-02  0.3353788E+00
         11   -1    0    0    0    0  0.00000000000E+00  0.00000000000E+00  0.39999999674E+01  0.40000000000E+01  0.51100000000E-03 0.  1.
    9000002   -1    0    0    0    0 -0.00000000000E+00 -0.00000000000E+00  0.00000000000E+00  0.93800000000E+00  0.93800000000E+00 0. -1.
         11    1    1    2    0    0 -0.23874809835E+00  0.20366347332E+00  0.23528683785E+01  0.23737037163E+01  0.51100000000E-03 0.  1.
    9000002    1    1    2    0    0  0.40023164277E+00 -0.33804669613E+00  0.18872452139E+00  0.10908354054E+01  0.93800000000E+00 0. -1.
         22    1    1    2    0    0 -0.16148354442E+00  0.13438322281E+00  0.14584070674E+01  0.14734608784E+01  0.00000000000E+00 0.  1.
</event>
<event>
 5    1  0.1560836E+002  0.1599677E+01  0.7818608E-02  0.3353714E+00
         11   -1    0    0    0    0  0.00000000000E+00  0.00000000000E+00  0.39999999674E+01  0.40000000000E+01  0.51100000000E-03 0. -1.
    9000002   -1    0    0    0    0 -0.00000000000E+00 -0.00000000000E+00  0.00000000000E+00  0.93800000000E+00  0.93800000000E+00 0.  1.
         11    1    1    2    0    0 -0.14784224876E+00  0.14663552755E+00  0.18277342184E+01  0.18395575400E+01  0.51100000000E-03 0. -1.
    9000002    1    1    2    0    0  0.31299652953E+00 -0.30995604276E+00  0.13160642228E+00  0.10446070200E+01  0.93800000000E+00 0.  1.
         22    1    1    2    0    0 -0.16515428078E+00  0.16332051521E+00  0.20406593266E+01  0.20538354400E+01  0.00000000000E+00 0.  1.
</event>
<event>
 5    1  0.1560836E+002  0.1597613E+01  0.7818608E-02  0.3355958E+00
         11   -1    0    0    0    0  0.00000000000E+00  0.00000000000E+00  0.39999999674E+01  0.40000000000E+01  0.51100000000E-03 0.  1.
    9000002   -1    0    0    0    0 -0.00000000000E+00 -0.00000000000E+00  0.00000000000E+00  0.93800000000E+00  0.93800000000E+00 0. -1.
         11    1    1    2    0    0 -0.91823728665E-01  0.78338063263E-01  0.14761225181E+01  0.14810490872E+01  0.51100000000E-03 0.  1.
    9000002    1    1    2    0    0  0.12429192145E+00 -0.28224642581E+00  0.65124608473E-01  0.98954370356E+00  0.93800000000E+00 0. -1.
         22    1    1    2    0    0 -0.32468192785E-01  0.20390836255E+00  0.24587528408E+01  0.24674072092E+01  0.00000000000E+00 0.  1.
</event>
<event>
 5    1  0.1560836E+002  0.1594711E+01  0.7818608E-02  0.3359124E+00
         11   -1    0    0    0    0  0.00000000000E+00  0.00000000000E+00  0.39999999674E+01  0.40000000000E+01  0.51100000000E-03 0. -1.
    9000002   -1    0    0    0    0 -0.00000000000E+00 -0.00000000000E+00  0.00000000000E+00  0.93800000000E+00  0.93800000000E+00 0. -1.
         11    1    1    2    0    0  0.45209653974E-01  0.11976313508E+00  0.99274969284E+00  0.10009691979E+01  0.51100000000E-03 0. -1.
    9000002    1    1    2    0    0  0.82843096534E-01 -0.34310634779E+00  0.87579396079E-01  0.10060313589E+01  0.93800000000E+00 0. -1.
         22    1    1    2    0    0 -0.12805275051E+00  0.22334321272E+00  0.29196708784E+01  0.29309994432E+01  0.00000000000E+00 0. -1.
</event>
<event>
 5    1  0.1560836E+002  0.1598239E+01  0.7818608E-02  0.3355277E+00
         11   -1    0    0    0    0  0.00000000000E+00  0.00000000000E+00  0.39999999674E+01  0.40000000000E+01  0.51100000000E-03 0.  1.
    9000002   -1    0    0    0    0 -0.00000000000E+00 -0.00000000000E+00  0.00000000000E+00  0.93800000000E+00  0.93800000000E+00 0. -1.
         11    1    1    2    0    0  0.88683373105E-02 -0.49739812451E-02  0.33302920817E-01  0.34824324143E-01  0.51100000000E-03 0.  1.
    9000002    1    1    2    0    0 -0.15849757724E+00  0.14111732104E+00  0.30920445987E-01  0.96220354098E+00  0.93800000000E+00 0. -1.
         22    1    1    2    0    0  0.14962923993E+00 -0.13614333979E+00  0.39357766006E+01  0.39409721349E+01  0.00000000000E+00 0.  1.
</event>
<event>
 5    1  0.1560836E+002  0.1599673E+01  0.7818608E-02  0.3353719E+00
         11   -1    0    0    0    0  0.00000000000E+00  0.00000000000E+00  0.39999999674E+01  0.40000000000E+01  0.51100000000E-03 0. -1.
    9000002   -1    0    0    0    0 -0.00000000000E+00 -0.00000000000E+00  0.00000000000E+00  0.93800000000E+00  0.93800000000E+00 0.  1.
         11    1    1    2    0    0  0.99901190150E-01 -0.90740202810E-01  0.15680101549E+01  0.15738075293E+01  0.51100000000E-03 0. -1.
    9000002    1    1    2    0    0 -0.24557009815E+00  0.23136634117E+00  0.76227151217E-01  0.99974478519E+00  0.93800000000E+00 0.  1.
         22    1    1    2    0    0  0.14566890800E+00 -0.14062613836E+00  0.23557626612E+01  0.23644476855E+01  0.00000000000E+00 0.  1.
</event>
<event>
 5    1  0.1560836E+002  0.1594011E+01  0.7818608E-02  0.3359889E+00
         11   -1    0    0    0    0  0.00000000000E+00  0.00000000000E+00  0.39999999674E+01  0.40000000000E+01  0.51100000000E-03 0.  1.
    9000002   -1    0    0    0    0 -0.00000000000E+00 -0.00000000000E+00  0.00000000000E+00  0.93800000000E+00  0.93800000000E+00 0.  1.
         11    1    1    2    0    0 -0.95875980241E-02 -0.27088020617E-01  0.40825731587E+00  0.40926761414E+00  0.51100000000E-03 0.  1.
    9000002    1    1    2    0    0 -0.20128374452E+00 -0.18306782602E+00  0.53650254516E-01  0.97813665944E+00  0.93800000000E+00 0.  1.
         22    1    1    2    0    0  0.21087134255E+00  0.21015584664E+00  0.35380923970E+01  0.35505957264E+01  0.00000000000E+00 0.  1.
</event>
<event>
 5    1  0.1560836E+002  0.1555835E+01  0.7818608E-02  0.3402739E+00
         11   -1    0    0    0    0  0.00000000000E+00  0.00000000000E+00  0.39999999674E+01  0.40000000000E+01  0.51100000000E-03 0. -1.
    9000002   -1    0    0    0    0 -0.00000000000E+00 -0.00000000000E+00  0.00000000000E+00  0.93800000000E+00  0.93800000000E+00 0. -1.
         11    1    1    2    0    0 -0.14929189492E+00 -0.85297228898E-02  0.44131405787E+00  0.46596049710E+00  0.51100000000E-03 0. -1.
    9000002    1    1    2    0    0 -0.81995961944E-01 -0.12586699266E+00  0.47986658655E-01  0.95116379085E+00  0.93800000000E+00 0. -1.
         22    1    1    2    0    0  0.23128785687E+00  0.13439671555E+00  0.35106992508E+01  0.35208757120E+01  0.00000000000E+00 0. -1.
</event>
<event>
 5    1  0.1560836E+002  0.1598423E+01  0.7818608E-02  0.3355077E+00
         11   -1    0    0    0    0  0.00000000000E+00  0.00000000000E+00  0.39999999674E+01  0.40000000000E+01  0.51100000000E-03 0. -1.
    9000002   -1    0    0    0    0 -0.00000000000E+00 -0.00000000000E+00  0.00000000000E+00  0.93800000000E+00  0.93800000000E+00 0. -1.
         11    1    1    2    0    0  0.15654470711E-01  0.16443627390E+00  0.96147319226E+00  0.97555897371E+00  0.51100000000E-03 0. -1.
    9000002    1    1    2    0    0  0.83404647546E-01 -0.64183935375E+00  0.29672759651E+00  0.11776270028E+01  0.93800000000E+00 0. -1.
         22    1    1    2    0    0 -0.99059118257E-01  0.47740307985E+00  0.27417991786E+01  0.27848140235E+01  0.00000000000E+00 0. -1.
</event>
<event>
 5    1  0.1560836E+002  0.1599677E+01  0.7818608E-02  0.3353714E+00
         11   -1    0    0    0    0  0.00000000000E+00  0.00000000000E+00  0.39999999674E+01  0.40000000000E+01  0.51100000000E-03 0.  1.
    9000002   -1    0    0    0    0 -0.00000000000E+00 -0.00000000000E+00  0.00000000000E+00  0.93800000000E+00  0.93800000000E+00 0. -1.
         11    1    1    2    0    0 -0.30810391652E+00 -0.14865497420E+00  0.22125193027E+01  0.22388095610E+01  0.51100000000E-03 0.  1.
    9000002    1    1    2    0    0  0.52315093940E+00  0.25260551667E+00  0.23453516582E+00  0.11279836863E+01  0.93800000000E+00 0. -1.
         22    1    1    2    0    0 -0.21504702288E+00 -0.10395054247E+00  0.15529454989E+01  0.15712067527E+01  0.00000000000E+00 0.  1.
</event>
<event>
 5    1  0.1560836E+002  0.1599474E+01  0.7818608E-02  0.3353935E+00
         11   -1    0    0    0    0  0.00000000000E+00  0.00000000000E+00  0.39999999674E+01  0.40000000000E+01  0.51100000000E-03 0. -1.
    9000002   -1    0    0    0    0 -0.00000000000E+00 -0.00000000000E+00  0.00000000000E+00  0.93800000000E+00  0.93800000000E+00 0.  1.
         11    1    1    2    0    0 -0.41397170009E-01  0.36335786050E-01  0.58134198614E+00  0.58394587164E+00  0.51100000000E-03 0. -1.
    9000002    1    1    2    0    0  0.22399979764E+00 -0.18630126587E+00  0.56740689624E-01  0.98384326845E+00  0.93800000000E+00 0.  1.
         22    1    1    2    0    0 -0.18260262764E+00  0.14996547982E+00  0.33619172916E+01  0.33702108599E+01  0.00000000000E+00 0. -1.
</event>
<event>
 5    1  0.1560836E+002  0.1599658E+01  0.7818608E-02  0.3353735E+00
         11   -1    0    0    0    0  0.00000000000E+00  0.00000000000E+00  0.39999999674E+01  0.40000000000E+01  0.51100000000E-03 0. -1.
    9000002   -1    0    0    0    0 -0.00000000000E+00 -0.00000000000E+00  0.00000000000E+00  0.93800000000E+00  0.93800000000E+00 0.  1.
         11    1    1    2    0    0 -0.11360922105E+00  0.59968455144E-01  0.13601227405E+01  0.13661761969E+01  0.51100000000E-03 0. -1.
    9000002    1    1    2    0    0  0.34043880443E+00 -0.17095512248E+00  0.97672587170E-01  0.10171077464E+01  0.93800000000E+00 0.  1.
         22    1    1    2    0    0 -0.22682958339E+00  0.11098666734E+00  0.25422046397E+01  0.25547160567E+01  0.00000000000E+00 0. -1.
</event>
<event>
 5    1  0.1560836E+002  0.1599616E+01  0.7818608E-02  0.3353780E+00
         11   -1    0    0    0    0  0.00000000000E+00  0.00000000000E+00  0.39999999674E+01  0.40000000000E+01  0.51100000000E-03 0.  1.
    9000002   -1    0    0    0    0 -0.00000000000E+00 -0.00000000000E+00  0.00000000000E+00  0.93800000000E+00  0.93800000000E+00 0.  1.
         11    1    1    2    0    0  0.38958940407E-01 -0.13460288004E+00  0.10751966014E+01  0.10842895033E+01  0.51100000000E-03 0.  1.
    9000002    1    1    2    0    0 -0.16464343021E+00  0.46443585198E+00  0.16606995811E+00  0.10724883919E+01  0.93800000000E+00 0.  1.
         22    1    1    2    0    0  0.12568448981E+00 -0.32983297194E+00  0.27587334079E+01  0.27812221048E+01  0.00000000000E+00 0.  1.
</event>
<event>
 5    1  0.1560836E+002  0.1599677E+01  0.7818608E-02  0.3353714E+00
         11   -1    0    0    0    0  0.00000000000E+00  0.00000000000E+00  0.39999999674E+01  0.40000000000E+01  0.51100000000E-03 0. -1.
    9000002   -1    0    0    0    0 -0.00000000000E+00 -0.00000000000E+00  0.00000000000E+00  0.93800000000E+00  0.93800000000E+00 0.  1.
         11    1    1    2    0    0 -0.39395311805E+00  0.31787960881E-01  0.21878059245E+01  0.22232194129E+01  0.51100000000E-03 0. -1.
    9000002    1    1    2    0    0  0.66390946320E+00 -0.54589033173E-01  0.31437446604E+00  0.11926571355E+01  0.93800000000E+00 0.  1.
         22    1    1    2    0    0 -0.26995634515E+00  0.22801072292E-01  0.14978195768E+01  0.15221234516E+01  0.00000000000E+00 0.  1.
</event>
<event>
 5    1  0.1560836E+002  0.1530251E+01  0.7818608E-02  0.3432729E+00
         11   -1    0    0    0    0  0.00000000000E+00  0.00000000000E+00  0.39999999674E+01  0.40000000000E+01  0.51100000000E-03 0. -1.
    9000002   -1    0    0    0    0 -0.00000000000E+00 -0.00000000000E+00  0.00000000000E+00  0.93800000000E+00  0.93800000000E+00 0. -1.
         11    1    1    2    0    0 -0.19007382612E+00  0.23911219735E+00  0.10521226511E+01  0.10955660803E+01  0.51100000000E-03 0. -1.
    9000002    1    1    2    0    0  0.13793405119E+00 -0.80560552702E-02  0.65544197518E-01  0.95038452446E+00  0.93800000000E+00 0. -1.
         22    1    1    2    0    0  0.52139774932E-01 -0.23105614208E+00  0.28823331188E+01  0.28920493953E+01  0.00000000000E+00 0. -1.
</event>
<event>
 5    1  0.1560836E+002  0.1345081E+01  0.7818608E-02  0.3699163E+00
         11   -1    0    0    0    0  0.00000000000E+00  0.00000000000E+00  0.39999999674E+01  0.40000000000E+01  0.51100000000E-03 0.  1.
    9000002   -1    0    0    0    0 -0.00000000000E+00 -0.00000000000E+00  0.00000000000E+00  0.93800000000E+00  0.93800000000E+00 0.  1.
         11    1    1    2    0    0 -0.26460584428E+00 -0.17407247499E+00  0.17056674567E+01  0.17348254129E+01  0.51100000000E-03 0.  1.
    9000002    1    1    2    0    0 -0.35796366798E+00 -0.50382444482E+00  0.59637660911E+00  0.12718042769E+01  0.93800000000E+00 0.  1.
         22    1    1    2    0    0  0.62256951227E+00  0.67789691981E+00  0.16979559016E+01  0.19313703102E+01  0.00000000000E+00 0.  1.
</event>
<event>
 5    1  0.1560836E+002  0.1599657E+01  0.7818608E-02  0.3353736E+00
         11   -1    0    0    0    0  0.00000000000E+00  0.00000000000E+00  0.39999999674E+01  0.40000000000E+01  0.51100000000E-03 0.  1.
    9000002   -1    0    0    0    0 -0.00000000000E+00 -0.00000000000E+00  0.00000000000E+00  0.93800000000E+00  0.93800000000E+00 0.  1.
         11    1    1    2    0    0 -0.14972951406E+00 -0.23592699335E+00  0.22683872332E+01  0.22855330613E+01  0.51100000000E-03 0.  1.
    9000002    1    1    2    0    0  0.25288914606E+00  0.40865018689E+00  0.15761220205E+00  0.10656610632E+01  0.93800000000E+00 0.  1.
         22    1    1    2    0    0 -0.10315963200E+00 -0.17272319353E+00  0.15740005321E+01  0.15868058754E+01  0.00000000000E+00 0.  1.
</event>
<event>
 5    1  0.1560836E+002  0.1588014E+01  0.7818608E-02  0.3366476E+00
         11   -1    0    0    0    0  0.00000000000E+00  0.00000000000E+00  0.39999999674E+01  0.40000000000E+01  0.51100000000E-03 0. -1.
    9000002   -1    0    0    0    0 -0.00000000000E+00 -0.00000000000E+00  0.00000000000E+00  0.93800000000E+00  0.93800000000E+00 0. -1.
         11    1    1    2    0    0  0.50051467277E-02 -0.94360174772E-01  0.14937634831E+01  0.14967493105E+01  0.51100000000E-03 0. -1.
    9000002    1    1    2    0    0 -0.17510063012E+00 -0.42133186591E-01  0.30181763828E-01  0.95560994917E+00  0.93800000000E+00 0. -1.
         22    1    1    2    0    0  0.17009548339E+00  0.13649336136E+00  0.24760547205E+01  0.24856407403E+01  0.00000000000E+00 0. -1.
</event>
<event>
 5    1  0.1560836E+002  0.1590930E+01  0.7818608E-02  0.3363267E+00
         11   -1    0    0    0    0  0.00000000000E+00  0.00000000000E+00  0.39999999674E+01  0.40000000000E+01  0.51100000000E-03 0. -1.
    9000002   -1    0    0    0    0 -0.00000000000E+00 -0.00000000000E+00  0.00000000000E+00  0.93800000000E+00  0.93800000000E+00 0.  1.
         11    1    1    2    0    0 -0.12349916803E-01 -0.59574276407E-02  0.95640834818E-02  0.16725555387E-01  0.51100000000E-03 0. -1.
    9000002    1    1    2    0    0  0.23155037482E-01  0.43311364770E+00  0.13496871784E+00  0.10422015843E+01  0.93800000000E+00 0.  1.
         22    1    1    2    0    0 -0.10805120679E-01 -0.42715622006E+00  0.38554671660E+01  0.38790728603E+01  0.00000000000E+00 0. -1.
</event>
<event>
 5    1  0.1560836E+002  0.1599365E+01  0.7818608E-02  0.3354053E+00
         11   -1    0    0    0    0  0.00000000000E+00  0.00000000000E+00  0.39999999674E+01  0.40000000000E+01  0.51100000000E-03 0. -1.
    9000002   -1    0    0    0    0 -0.00000000000E+00 -0.00000000000E+00  0.00000000000E+00  0.93800000000E+00  0.93800000000E+00 0. -1.
         11    1    1    2    0    0  0.53766974534E+00 -0.28011151685E+00  0.23444149544E+01  0.24215352478E+01  0.51100000000E-03 0. -1.
    9000002    1    1    2    0    0 -0.80092959124E+00  0.41527725648E+00  0.62408514808E+00  0.14433536233E+01  0.93800000000E+00 0. -1.
         22    1    1    2    0    0  0.26325984590E+00 -0.13516573963E+00  0.10314998649E+01  0.10731111289E+01  0.00000000000E+00 0. -1.
</event>
<event>
 5    1  0.1560836E+002  0.1412519E+01  0.7818608E-02  0.3587017E+00
         11   -1    0    0    0    0  0.00000000000E+00  0.00000000000E+00  0.39999999674E+01  0.40000000000E+01  0.51100000000E-03 0. -1.
    9000002   -1    0    0    0    0 -0.00000000000E+00 -0.00000000000E+00  0.00000000000E+00  0.93800000000E+00  0.93800000000E+00 0. -1.
         11    1    1    2    0    0 -0.13410706316E+00  0.44818885417E+00  0.31733590709E+01  0.32076574018E+01  0.51100000000E-03 0. -1.
    9000002    1    1    2    0    0 -0.20040702395E+00 -0.23735221977E+00  0.22991326438E+00  0.10144965060E+01  0.93800000000E+00 0. -1.
         22    1    1    2    0    0  0.33451408711E+00 -0.21083663440E+00  0.59672763212E+00  0.71584609227E+00  0.00000000000E+00 0. -1.
</event>
<event>
 5    1  0.1560836E+002  0.1596215E+01  0.7818608E-02  0.3357482E+00
         11   -1    0    0    0    0  0.00000000000E+00  0.00000000000E+00  0.39999999674E+01  0.40000000000E+01  0.51100000000E-03 0.  1.
    9000002   -1    0    0    0    0 -0.00000000000E+00 -0.00000000000E+00  0.00000000000E+00  0.93800000000E+00  0.93800000000E+00 0. -1.
         11    1    1    2    0    0  0.11544491305E-01 -0.14520487903E-01  0.86660979015E-01  0.88625652344E-01  0.51100000000E-03 0.  1.
    9000002    1    1    2    0    0 -0.11430315763E+00 -0.19131024366E+00  0.35548365471E-01  0.96476551942E+00  0.93800000000E+00 0. -1.
         22    1    1    2    0    0  0.10275866633E+00  0.20583073156E+00  0.38777906229E+01  0.38846088282E+01  0.00000000000E+00 0.  1.
</event>
<event>
 5    1  0.1560836E+002  0.1595561E+01  0.7818608E-02  0.3358195E+00
         11   -1    0    0    0    0  0.00000000000E+00  0.00000000000E+00  0.39999999674E+01  0.40000000000E+01  0.51100000000E-03 0. -1.
    9000002   -1    0    0    0    0 -0.00000000000E+00 -0.00000000000E+00  0.00000000000E+00  0.93800000000E+00  0.93800000000E+00 0.  1.
         11    1    1    2    0    0  0.42759468367E-01  0.33053525093E-01  0.34088521462E+00  0.34514330114E+00  0.51100000000E-03 0. -1.
    9000002    1    1    2    0    0 -0.85923194789E+00 -0.14448220983E+00  0.58019192540E+00  0.14055679704E+01  0.93800000000E+00 0.  1.
         22    1    1    2    0    0  0.81647247952E+00  0.11142868474E+00  0.30789228273E+01  0.31872887284E+01  0.00000000000E+00 0. -1.
</event>
<event>
 5    1  0.1560836E+002  0.1596292E+01  0.7818608E-02  0.3357397E+00
         11   -1    0    0    0    0  0.00000000000E+00  0.00000000000E+00  0.39999999674E+01  0.40000000000E+01  0.51100000000E-03 0.  1.
    9000002   -1    0    0    0    0 -0.00000000000E+00 -0.00000000000E+00  0.00000000000E+00  0.93800000000E+00  0.93800000000E+00 0. -1.
         11    1    1    2    0    0  0.10189871538E+00  0.14875176204E+00  0.18872828691E+01  0.18958763999E+01  0.51100000000E-03 0.  1.
    9000002    1    1    2    0    0 -0.14179637031E+00 -0.43118526205E+00  0.14294920171E+00  0.10518105415E+01  0.93800000000E+00 0. -1.
         22    1    1    2    0    0  0.39897654930E-01  0.28243350001E+00  0.19697678966E+01  0.19903130586E+01  0.00000000000E+00 0.  1.
</event>
<event>
 5    1  0.1560836E+002  0.1599661E+01  0.7818608E-02  0.3353731E+00
         11   -1    0    0    0    0  0.00000000000E+00  0.00000000000E+00  0.39999999674E+01  0.40000000000E+01  0.51100000000E-03 0.  1.
    9000002   -1    0    0    0    0 -0.00000000000E+00 -0.00000000000E+00  0.00000000000E+00  0.93800000000E+00  0.93800000000E+00 0.  1.
         11    1    1    2    0    0  0.11239295529E+00 -0.61254285751E-01  0.10912521526E+01  0.10987337191E+01  0.51100000000E-03 0.  1.
    9000002    1    1    2    0    0 -0.38626738581E+00  0.22687857393E+00  0.13626938636E+00  0.10483748024E+01  0.93800000000E+00 0.  1.
         22    1    1    2    0    0  0.27387443052E+00 -0.16562428818E+00  0.27724784284E+01  0.27908914785E+01  0.00000000000E+00 0.  1.
</event>
<event>
 5    1  0.1560836E+002  0.1599672E+01  0.7818608E-02  0.3353720E+00
         11   -1    0    0    0    0  0.00000000000E+00  0.00000000000E+00  0.39999999674E+01  0.40000000000E+01  0.51100000000E-03 0. -1.
    9000002   -1    0    0    0    0 -0.00000000000E+00 -0.00000000000E+00  0.00000000000E+00  0.93800000000E+00  0.93800000000E+00 0.  1.
         11    1    1    2    0    0 -0.90365230827E-01  0.56494306835E-01  0.13387770753E+01  0.13430122115E+01  0.51100000000E-03 0. -1.
    9000002    1    1    2    0    0  0.26146331154E+00 -0.17252061359E+00  0.65548209985E-01  0.99109383674E+00  0.93800000000E+00 0.  1.
         22    1    1    2    0    0 -0.17109808071E+00  0.11602630675E+00  0.25956746821E+01  0.26038939518E+01  0.00000000000E+00 0. -1.
</event>
<event>
 5    1  0.1560836E+002  0.1599579E+01  0.7818608E-02  0.3353820E+00
         11   -1    0    0    0    0  0.00000000000E+00  0.00000000000E+00  0.39999999674E+01  0.40000000000E+01  0.51100000000E-03 0.  1.
    9000002   -1    0    0    0    0 -0.00000000000E+00 -0.00000000000E+00  0.00000000000E+00  0.93800000000E+00  0.93800000000E+00 0. -1.
         11    1    1    2    0    0 -0.84107311968E-01  0.30286114261E+00  0.22932655055E+01  0.23147064288E+01  0.51100000000E-03 0.  1.
    9000002    1    1    2    0    0  0.12544757903E+00 -0.51588194387E+00  0.19409119762E+00  0.10951651328E+01  0.93800000000E+00 0. -1.
         22    1    1    2    0    0 -0.41340267058E-01  0.21302080126E+00  0.15126432643E+01  0.15281284384E+01  0.00000000000E+00 0.  1.
</event>
<event>
 5    1  0.1560836E+002  0.1592050E+01  0.7818608E-02  0.3362038E+00
         11   -1    0    0    0    0  0.00000000000E+00  0.00000000000E+00  0.39999999674E+01  0.40000000000E+01  0.51100000000E-03 0.  1.
    9000002   -1    0    0    0    0 -0.00000000000E+00 -0.00000000000E+00  0.00000000000E+00  0.93800000000E+00  0.93800000000E+00 0.  1.
         11    1    1    2    0    0  0.58192211880E-01  0.23628165023E-01  0.61596468570E+00  0.61915860558E+00  0.51100000000E-03 0.  1.
    9000002    1    1    2    0    0  0.11538539063E+00 -0.14502486256E+00  0.28427872700E-01  0.95655535286E+00  0.93800000000E+00 0.  1.
         22    1    1    2    0    0 -0.17357760251E+00  0.12139669754E+00  0.33556074090E+01  0.33622860416E+01  0.00000000000E+00 0.  1.
</event>
<event>
 5    1  0.1560836E+002  0.1598569E+01  0.7818608E-02  0.3354918E+00
         11   -1    0    0    0    0  0.00000000000E+00  0.00000000000E+00  0.39999999674E+01  0.40000000000E+01  0.51100000000E-03 0. -1.
    9000002   -1    0    0    0    0 -0.00000000000E+00 -0.00000000000E+00  0.00000000000E+00  0.93800000000E+00  0.93800000000E+00 0. -1.
         11    1    1    2    0    0 -0.59512404435E-02  0.11068630778E-01  0.56418790238E-01  0.57803744369E-01  0.51100000000E-03 0. -1.
    9000002    1    1    2    0    0  0.18984000540E+00 -0.14560838578E+00  0.38837372967E-01  0.96881028648E+00  0.93800000000E+00 0. -1.
         22    1    1    2    0    0 -0.18388876496E+00  0.13453975500E+00  0.39047438042E+01  0.39113859691E+01  0.00000000000E+00 0. -1.
</event>
<event>
 5    1  0.1560836E+002  0.1599666E+01  0.7818608E-02  0.3353726E+00
         11   -1    0    0    0    0  0.00000000000E+00  0.00000000000E+00  0.39999999674E+01  0.40000000000E+01  0.51100000000E-03 0. -1.
    9000002   -1    0    0    0    0 -0.00000000000E+00 -0.00000000000E+00  0.00000000000E+00  0.93800000000E+00  0.93800000000E+00 0. -1.
         11    1    1    2    0    0 -0.19310244176E+00 -0.62753203370E-01  0.17257211698E+01  0.17376249119E+01  0.51100000000E-03 0. -1.
    9000002    1    1    2    0    0  0.42360433818E+00  0.14110532227E+00  0.13533579187E+00  0.10476216511E+01  0.93800000000E+00 0. -1.
         22    1    1    2    0    0 -0.23050189641E+00 -0.78352118896E-01  0.21389430057E+01  0.21527534370E+01  0.00000000000E+00 0. -1.
</event>
<event>
 5    1  0.1560836E+002  0.1577360E+01  0.7818608E-02  0.3378308E+00
         11   -1    0    0    0    0  0.00000000000E+00  0.00000000000E+00  0.39999999674E+01  0.40000000000E+01  0.51100000000E-03 0.  1.
    9000002   -1    0    0    0    0 -0.00000000000E+00 -0.00000000000E+00  0.00000000000E+00  0.93800000000E+00  0.93800000000E+00 0. -1.
         11    1    1    2    0    0  0.18380436461E-01  0.16677386635E+00  0.10336688890E+01  0.10471976872E+01  0.51100000000E-03 0.  1.
    9000002    1    1    2    0    0 -0.24371785598E+00 -0.57849521640E-01  0.58939270318E-01  0.97265759549E+00  0.93800000000E+00 0. -1.
         22    1    1    2    0    0  0.22533741952E+00 -0.10892434471E+00  0.29073918080E+01  0.29181447173E+01  0.00000000000E+00 0. -1.
</event>
<event>
 5    1  0.1560836E+002  0.1599676E+01  0.7818608E-02  0.3353715E+00
         11   -1    0    0    0    0  0.00000000000E+00  0.00000000000E+00  0.39999999674E+01  0.40000000000E+01  0.51100000000E-03 0. -1.
    9000002   -1    0    0    0    0 -0.00000000000E+00 -0.00000000000E+00  0.00000000000E+00  0.93800000000E+00  0.93800000000E+00 0.  1.
         11    1    1    2    0    0  0.33198131241E+00 -0.33307516976E-01  0.23078975337E+01  0.23318902783E+01  0.51100000000E-03 0. -1.
    9000002    1    1    2    0    0 -0.54470912743E+00  0.56241009663E-01  0.20702805563E+00  0.11057014518E+01  0.93800000000E+00 0.  1.
         22    1    1    2    0    0  0.21272781503E+00 -0.22933492687E-01  0.14850743780E+01  0.15004082699E+01  0.00000000000E+00 0.  1.
</event>
<event>
 5    1  0.1560836E+002  0.1599675E+01  0.7818608E-02  0.3353716E+00
         11   -1    0    0    0    0  0.00000000000E+00  0.00000000000E+00  0.39999999674E+01  0.40000000000E+01  0.51100000000E-03 0.  1.
    9000002   -1    0    0    0    0 -0.00000000000E+00 -0.00000000000E+00  0.00000000000E+00  0.93800000000E+00  0.93800000000E+00 0. -1.
         11    1    1    2    0    0  0.10516792070E-01  0.28493570218E-01  0.30143293805E+00  0.30295967343E+00  0.51100000000E-03 0.  1.
    9000002    1    1    2    0    0 -0.14148322174E+00 -0.36177141861E+00  0.10163545502E+00  0.10203282938E+01  0.93800000000E+00 0. -1.
         22    1    1    2    0    0  0.13096642967E+00  0.33327784839E+00  0.35969315743E+01  0.36147120328E+01  0.00000000000E+00 0.  1.
</event>
<event>
 5    1  0.1560836E+002  0.1599592E+01  0.7818608E-02  0.3353807E+00
         11   -1    0    0    0    0  0.00000000000E+00  0.00000000000E+00  0.39999999674E+01  0.40000000000E+01  0.51100000000E-03 0. -1.
    9000002   -1    0    0    0    0 -0.00000000000E+00 -0.00000000000E+00  0.00000000000E+00  0.93800000000E+00  0.93800000000E+00 0.  1.
         11    1    1    2    0    0  0.18026728031E+00 -0.46197198630E+00  0.16540438840E+01  0.17267819317E+01  0.51100000000E-03 0. -1.
    9000002    1    1    2    0    0 -0.37476238722E+00  0.90432677962E+00  0.76208285294E+00  0.15552710523E+01  0.93800000000E+00 0.  1.
         22    1    1    2    0    0  0.19449510691E+00 -0.44235479333E+00  0.15838732304E+01  0.16559470160E+01  0.00000000000E+00 0. -1.
</event>
<event>
 5    1  0.1560836E+002  0.1482701E+01  0.7818608E-02  0.3491422E+00
         11   -1    0    0    0    0  0.00000000000E+00  0.00000000000E+00  0.39999999674E+01  0.40000000000E+01  0.51100000000E-03 0. -1.
    9000002   -1    0    0    0    0 -0.00000000000E+00 -0.00000000000E+00  0.00000000000E+00  0.93800000000E+00  0.93800000000E+00 0.  1.
         11    1    1    2    0    0  0.35179870768E+00  0.95313274959E-02  0.69343619188E+00  0.77762921129E+00  0.51100000000E-03 0. -1.
    9000002    1    1    2    0    0 -0.17053849883E+00  0.10320301561E+00  0.11972522815E+00  0.96639141773E+00  0.93800000000E+00 0.  1.
         22    1    1    2    0    0 -0.18126020884E+00 -0.11273434310E+00  0.31868385473E+01  0.31939793710E+01  0.00000000000E+00 0. -1.
</event>
<event>
 5    1  0.1560836E+002  0.1552643E+01  0.7818608E-02  0.3406423E+00
         11   -1    0    0    0    0  0.00000000000E+00  0.00000000000E+00  0.39999999674E+01  0.40000000000E+01  0.51100000000E-03 0. -1.
    9000002   -1    0    0    0    0 -0.00000000000E+00 -0.00000000000E+00  0.00000000000E+00  0.93800000000E+00  0.93800000000E+00 0. -1.
         11    1    1    2    0    0 -0.13635495005E+00  0.24823691706E-01  0.27466343857E+00  0.30765102581E+00  0.51100000000E-03 0. -1.
    9000002    1    1    2    0    0  0.12634308882E+00  0.37402792871E+00  0.14514319821E+00  0.10279931982E+01  0.93800000000E+00 0. -1.
         22    1    1    2    0    0  0.10011861235E-01 -0.39885162042E+00  0.35801933306E+01  0.36023557760E+01  0.00000000000E+00 0. -1.
</event>
<event>
 5    1  0.1560836E+002  0.1599159E+01  0.7818608E-02  0.3354277E+00
         11   -1    0    0    0    0  0.00000000000E+00  0.00000000000E+00  0.39999999674E+01  0.40000000000E+01  0.51100000000E-03 0.  1.
    9000002   -1    0    0    0    0 -0.00000000000E+00 -0.00000000000E+00  0.00000000000E+00  0.93800000000E+00  0.93800000000E+00 0.  1.
         11    1    1    2    0    0 -0.18947989916E-01 -0.41215770255E-01  0.65810080212E+00  0.65966255988E+00  0.51100000000E-03 0.  1.
    9000002    1    1    2    0    0  0.20760162939E+00  0.16868826775E+00  0.47998013072E-01  0.97657666236E+00  0.93800000000E+00 0.  1.
         22    1    1    2    0    0 -0.18865363947E+00 -0.12747249750E+00  0.32939011522E+01  0.33017607778E+01  0.00000000000E+00 0.  1.
</event>
<event>
 5    1  0.1560836E+002  0.1599564E+01  0.7818608E-02  0.3353836E+00
         11   -1    0    0    0    0  0.00000000000E+00  0.00000000000E+00  0.39999999674E+01  0.40000000000E+01  0.51100000000E-03 0.  1.
    9000002   -1    0    0    0    0 -0.00000000000E+00 -0.00000000000E+00  0.00000000000E+00  0.93800000000E+00  0.93800000000E+00 0. -1.
         11    1    1    2    0    0 -0.59897687775E-02 -0.17354164093E+00  0.17178331428E+01  0.17265872541E+01  0.51100000000E-03 0.  1.
    9000002    1    1    2    0    0  0.22333916514E-01  0.41945377812E+00  0.11942311683E+00  0.10346720044E+01  0.93800000000E+00 0. -1.
         22    1    1    2    0    0 -0.16344147736E-01 -0.24591213719E+00  0.21627437078E+01  0.21767407415E+01  0.00000000000E+00 0.  1.
</event>
<event>
 5    1  0.1560836E+002  0.1597449E+01  0.7818608E-02  0.3356137E+00
         11   -1    0    0    0    0  0.00000000000E+00  0.00000000000E+00  0.39999999674E+01  0.40000000000E+01  0.51100000000E-03 0. -1.
    9000002   -1    0    0    0    0 -0.00000000000E+00 -0.00000000000E+00  0.00000000000E+00  0.93800000000E+00  0.93800000000E+00 0. -1.
         11    1    1    2    0    0  0.11142748792E-01  0.96403018322E-01  0.81942182676E+00  0.82514852850E+00  0.51100000000E-03 0. -1.
    9000002    1    1    2    0    0 -0.23976654521E+00 -0.34147896410E+00  0.11957700539E+00  0.10335562584E+01  0.93800000000E+00 0. -1.
         22    1    1    2    0    0  0.22862379642E+00  0.24507594578E+00  0.30610011352E+01  0.30792952131E+01  0.00000000000E+00 0. -1.
</event>
<event>
 5    1  0.1560836E+002  0.1599677E+01  0.7818608E-02  0.3353714E+00
         11   -1    0    0    0    0  0.00000000000E+00  0.00000000000E+00  0.39999999674E+01  0.40000000000E+01  0.51100000000E-03 0. -1.
    9000002   -1    0    0    0    0 -0.00000000000E+00 -0.00000000000E+00  0.00000000000E+00  0.93800000000E+00  0.93800000000E+00 0. -1.
         11    1    1    2    0    0 -0.73932150046E-01  0.16019551927E-01  0.87132674768E+00  0.87460456848E+00  0.51100000000E-03 0.  1.
    9000002    1    1    2    0    0  0.33380954151E+00 -0.72510906616E-01  0.78168184018E-01  0.10013195826E+01  0.93800000000E+00 0. -1.
         22    1    1    2    0    0 -0.25987739146E+00  0.56491354690E-01  0.30505050357E+01  0.30620758489E+01  0.00000000000E+00 0. -1.
</event>
<event>
 5    1  0.1560836E+002  0.1599675E+01  0.7818608E-02  0.3353716E+00
         11   -1    0    0    0    0  0.00000000000E+00  0.00000000000E+00  0.39999999674E+01  0.40000000000E+01  0.51100000000E-03 0. -1.
    9000002   -1    0    0    0    0 -0.00000000000E+00 -0.00000000000E+00  0.00000000000E+00  0.93800000000E+00  0.93800000000E+00 0.  1.
         11    1    1    2    0    0 -0.91825217580E-02  0.65408842443E-02  0.13995236734E+00  0.14040665269E+00  0.51100000000E-03 0.  1.
    9000002    1    1    2    0    0  0.25254342244E+00 -0.19258253322E+00  0.67404331181E-01  0.99259939360E+00  0.93800000000E+00 0.  1.
         22    1    1    2    0    0 -0.24336090068E+00  0.18604164898E+00  0.37926432688E+01  0.38049939537E+01  0.00000000000E+00 0. -1.
</event>
<event>
 5    1  0.1560836E+002  0.1545282E+01  0.7818608E-02  0.3414981E+00
         11   -1    0    0    0    0  0.00000000000E+00  0.00000000000E+00  0.39999999674E+01  0.40000000000E+01  0.51100000000E-03 0.  1.
    9000002   -1    0    0    0    0 -0.00000000000E+00 -0.00000000000E+00  0.00000000000E+00  0.93800000000E+00  0.93800000000E+00 0. -1.
         11    1    1    2    0    0 -0.28937814059E+00 -0.19101203059E+00  0.26451926973E+01  0.26678212030E+01  0.51100000000E-03 0.  1.
    9000002    1    1    2    0    0  0.86935375761E-01  0.94813545648E-01  0.51972761002E-01  0.94820490185E+00  0.93800000000E+00 0. -1.
         22    1    1    2    0    0  0.20244276483E+00  0.96198484942E-01  0.13028345090E+01  0.13219738951E+01  0.00000000000E+00 0.  1.
</event>
<event>
 5    1  0.1560836E+002  0.1599574E+01  0.7818608E-02  0.3353826E+00
         11   -1    0    0    0    0  0.00000000000E+00  0.00000000000E+00  0.39999999674E+01  0.40000000000E+01  0.51100000000E-03 0.  1.
    9000002   -1    0    0    0    0 -0.00000000000E+00 -0.00000000000E+00  0.00000000000E+00  0.93800000000E+00  0.93800000000E+00 0.  1.
         11    1    1    2    0    0 -0.24866449567E-01 -0.44279501012E-02  0.51659001883E+00  0.51720736241E+00  0.51100000000E-03 0.  1.
    9000002    1    1    2    0    0  0.24967170960E+00  0.12209832359E-01  0.41586663039E-01  0.97162672520E+00  0.93800000000E+00 0.  1.
         22    1    1    2    0    0 -0.22480526004E+00 -0.77818822583E-02  0.34418232855E+01  0.34491659124E+01  0.00000000000E+00 0.  1.
</event>
<event>
 5    1  0.1560836E+002  0.1588041E+01  0.7818608E-02  0.3366447E+00
         11   -1    0    0    0    0  0.00000000000E+00  0.00000000000E+00  0.39999999674E+01  0.40000000000E+01  0.51100000000E-03 0.  1.
    9000002   -1    0    0    0    0 -0.00000000000E+00 -0.00000000000E+00  0.00000000000E+00  0.93800000000E+00  0.93800000000E+00 0.  1.
         11    1    1    2    0    0 -0.75277008958E-02  0.26295991495E-01  0.15328164384E+01  0.15330605469E+01  0.51100000000E-03 0.  1.
    9000002    1    1    2    0    0  0.27053511097E+00 -0.26980017765E+00  0.10787313998E+00  0.10185587840E+01  0.93800000000E+00 0.  1.
         22    1    1    2    0    0 -0.26300741007E+00  0.24350418615E+00  0.23593103890E+01  0.23863806691E+01  0.00000000000E+00 0. -1.
</event>
<event>
 5    1  0.1560836E+002  0.1599665E+01  0.7818608E-02  0.3353727E+00
         11   -1    0    0    0    0  0.00000000000E+00  0.00000000000E+00  0.39999999674E+01  0.40000000000E+01  0.51100000000E-03 0. -1.
    9000002   -1    0    0    0    0 -0.00000000000E+00 -0.00000000000E+00  0.00000000000E+00  0.93800000000E+00  0.93800000000E+00 0.  1.
         11    1    1    2    0    0  0.64828216319E-01  0.57837252954E-01  0.10967362558E+01  0.11001720417E+01  0.51100000000E-03 0. -1.
    9000002    1    1    2    0    0 -0.24106845574E+00 -0.19695359298E+00  0.64725364283E-01  0.99042318780E+00  0.93800000000E+00 0.  1.
         22    1    1    2    0    0  0.17624023942E+00  0.13911634003E+00  0.28385383473E+01  0.28474047705E+01  0.00000000000E+00 0. -1.
</event>
<event>
 5    1  0.1560836E+002  0.1506994E+01  0.7818608E-02  0.3460939E+00
         11   -1    0    0    0    0  0.00000000000E+00  0.00000000000E+00  0.39999999674E+01  0.40000000000E+01  0.51100000000E-03 0.  1.
    9000002   -1    0    0    0    0 -0.00000000000E+00 -0.00000000000E+00  0.00000000000E+00  0.93800000000E+00  0.93800000000E+00 0. -1.
         11    1    1    2    0    0 -0.30845363416E+00 -0.68122911944E-01  0.76932396391E+00  0.83165136813E+00  0.51100000000E-03 0.  1.
    9000002    1    1    2    0    0  0.62350568713E-01  0.29252608630E+00  0.13609129417E+00  0.99389332674E+00  0.93800000000E+00 0. -1.
         22    1    1    2    0    0  0.24610306545E+00 -0.22440317436E+00  0.30945847093E+01  0.31124553051E+01  0.00000000000E+00 0.  1.
</event>
<event>
 5    1  0.1560836E+002  0.1599416E+01  0.7818608E-02  0.3353998E+00
         11   -1    0    0    0    0  0.00000000000E+00  0.00000000000E+00  0.39999999674E+01  0.40000000000E+01  0.51100000000E-03 0. -1.
    9000002   -1    0    0    0    0 -0.00000000000E+00 -0.00000000000E+00  0.00000000000E+00  0.93800000000E+00  0.93800000000E+00 0.  1.
         11    1    1    2    0    0 -0.39824238915E-01  0.87324332227E-02  0.84660374470E+00  0.84758503235E+00  0.51100000000E-03 0. -1.
    9000002    1    1    2    0    0  0.25961935220E+00 -0.52782022004E-01  0.46881373461E-01  0.97582273650E+00  0.93800000000E+00 0.  1.
         22    1    1    2    0    0 -0.21979511329E+00  0.44049588782E-01  0.31065148492E+01  0.31145922312E+01  0.00000000000E+00 0. -1.
</event>
<event>
 5    1  0.1560836E+002  0.1599675E+01  0.7818608E-02  0.3353716E+00
         11   -1    0    0    0    0  0.00000000000E+00  0.00000000000E+00  0.39999999674E+01  0.40000000000E+01  0.51100000000E-03 0. -1.
    9000002   -1    0    0    0    0 -0.00000000000E+00 -0.00000000000E+00  0.00000000000E+00  0.93800000000E+00  0.93800000000E+00 0.  1.
         11    1    1    2    0    0 -0.15073775186E+00  0.68850570132E-01  0.16337661963E+01  0.16421493587E+01  0.51100000000E-03 0. -1.
    9000002    1    1    2    0    0  0.35601074506E+00 -0.16505656052E+00  0.10376882038E+00  0.10220564010E+01  0.93800000000E+00 0.  1.
         22    1    1    2    0    0 -0.20527299320E+00  0.96205990392E-01  0.22624649506E+01  0.22737942403E+01  0.00000000000E+00 0.  1.
</event>
<event>
 5    1  0.1560836E+002  0.1595118E+01  0.7818608E-02  0.3358679E+00
         11   -1    0    0    0    0  0.00000000000E+00  0.00000000000E+00  0.39999999674E+01  0.40000000000E+01  0.51100000000E-03 0.  1.
    9000002   -1    0    0    0    0 -0.00000000000E+00 -0.00000000000E+00  0.00000000000E+00  0.93800000000E+00  0.93800000000E+00 0.  1.
         11    1    1    2    0    0  0.16110758417E-01 -0.14832251622E-01  0.39626948582E+00  0.39687443699E+00  0.51100000000E-03 0.  1.
    9000002    1    1    2    0    0  0.71395329625E-01 -0.27977235123E+00  0.59116293222E-01  0.98321340396E+00  0.93800000000E+00 0.  1.
         22    1    1    2    0    0 -0.87506088042E-01  0.29460460285E+00  0.35446141883E+01  0.35579121590E+01  0.00000000000E+00 0.  1.
</event>
<event>
 5    1  0.1560836E+002  0.1592545E+01  0.7818608E-02  0.3361495E+00
         11   -1    0    0    0    0  0.00000000000E+00  0.00000000000E+00  0.39999999674E+01  0.40000000000E+01  0.51100000000E-03 0. -1.
    9000002   -1    0    0    0    0 -0.00000000000E+00 -0.00000000000E+00  0.00000000000E+00  0.93800000000E+00  0.93800000000E+00 0. -1.
         11    1    1    2    0    0  0.24918553301E+00 -0.24722555340E-01  0.17559295305E+01  0.17736948474E+01  0.51100000000E-03 0. -1.
    9000002    1    1    2    0    0 -0.40943825897E+00 -0.11954208305E+00  0.12922450369E+00  0.10384955319E+01  0.93800000000E+00 0. -1.
         22    1    1    2    0    0  0.16025272596E+00  0.14426463839E+00  0.21148459332E+01  0.21258096206E+01  0.00000000000E+00 0. -1.
</event>
<event>
 5    1  0.1560836E+002  0.1528365E+01  0.7818608E-02  0.3434983E+00
         11   -1    0    0    0    0  0.00000000000E+00  0.00000000000E+00  0.39999999674E+01  0.40000000000E+01  0.51100000000E-03 0.  1.
    9000002   -1    0    0    0    0 -0.00000000000E+00 -0.00000000000E+00  0.00000000000E+00  0.93800000000E+00  0.93800000000E+00 0.  1.
         11    1    1    2    0    0 -0.80754877107E-01  0.56957436351E-01  0.75703572869E-01  0.12448611086E+00  0.51100000000E-03 0.  1.
    9000002    1    1    2    0    0 -0.16932687317E+00 -0.96572101056E-01  0.80532365508E-01  0.96141937913E+00  0.93800000000E+00 0.  1.
         22    1    1    2    0    0  0.25008175027E+00  0.39614664705E-01  0.38437640290E+01  0.38520945100E+01  0.00000000000E+00 0.  1.
</event>
<event>
 5    1  0.1560836E+002  0.1599630E+01  0.7818608E-02  0.3353765E+00
         11   -1    0    0    0    0  0.00000000000E+00  0.00000000000E+00  0.39999999674E+01  0.40000000000E+01  0.51100000000E-03 0. -1.
    9000002   -1    0    0    0    0 -0.00000000000E+00 -0.00000000000E+00  0.00000000000E+00  0.93800000000E+00  0.93800000000E+00 0. -1.
         11    1    1    2    0    0 -0.26032463867E-01 -0.56472396495E-01  0.78646322127E+00  0.78891791732E+00  0.51100000000E-03 0. -1.
    9000002    1    1    2    0    0  0.10811151473E+00  0.25924052948E+00  0.52576952912E-01  0.98056212844E+00  0.93800000000E+00 0. -1.
         22    1    1    2    0    0 -0.82079050861E-01 -0.20276813299E+00  0.31609597932E+01  0.31685199542E+01  0.00000000000E+00 0. -1.
</event>
<event>
 5    1  0.1560836E+002  0.1581721E+01  0.7818608E-02  0.3373445E+00
         11   -1    0    0    0    0  0.00000000000E+00  0.00000000000E+00  0.39999999674E+01  0.40000000000E+01  0.51100000000E-03 0. -1.
    9000002   -1    0    0    0    0 -0.00000000000E+00 -0.00000000000E+00  0.00000000000E+00  0.93800000000E+00  0.93800000000E+00 0. -1.
         11    1    1    2    0    0  0.12477572368E+00  0.12297310362E-01  0.13846503863E+01  0.13903154889E+01  0.51100000000E-03 0. -1.
    9000002    1    1    2    0    0  0.47428072653E-01 -0.20822793064E+00  0.43865372799E-01  0.96300387544E+00  0.93800000000E+00 0. -1.
         22    1    1    2    0    0 -0.17220379633E+00  0.19593062028E+00  0.25714842082E+01  0.25846806357E+01  0.00000000000E+00 0.  1.
</event>
<event>
 5    1  0.1560836E+002  0.1560489E+01  0.7818608E-02  0.3397397E+00
         11   -1    0    0    0    0  0.00000000000E+00  0.00000000000E+00  0.39999999674E+01  0.40000000000E+01  0.51100000000E-03 0.  1.
    9000002   -1    0    0    0    0 -0.00000000000E+00 -0.00000000000E+00  0.00000000000E+00  0.93800000000E+00  0.93800000000E+00 0. -1.
         11    1    1    2    0    0 -0.15730572492E+00  0.13054236363E+00  0.22559540656E+01  0.22651965493E+01  0.51100000000E-03 0.  1.
    9000002    1    1    2    0    0 -0.11722497168E+00 -0.99647404472E-01  0.45164821104E-01  0.95160662055E+00  0.93800000000E+00 0. -1.
         22    1    1    2    0    0  0.27453069660E+00 -0.30894959156E-01  0.16988810806E+01  0.17211968301E+01  0.00000000000E+00 0.  1.
</event>
<event>
 5    1  0.1560836E+002  0.1598419E+01  0.7818608E-02  0.3355081E+00
         11   -1    0    0    0    0  0.00000000000E+00  0.00000000000E+00  0.39999999674E+01  0.40000000000E+01  0.51100000000E-03 0.  1.
    9000002   -1    0    0    0    0 -0.00000000000E+00 -0.00000000000E+00  0.00000000000E+00  0.93800000000E+00  0.93800000000E+00 0.  1.
         11    1    1    2    0    0  0.31217847333E-02 -0.88265482793E-02  0.22845454885E+00  0.22864687950E+00  0.51100000000E-03 0.  1.
    9000002    1    1    2    0    0  0.26352243329E+00  0.18980595281E-01  0.47390214874E-01  0.97565063845E+00  0.93800000000E+00 0.  1.
         22    1    1    2    0    0 -0.26664421802E+00 -0.10154047001E-01  0.37241552036E+01  0.37337024820E+01  0.00000000000E+00 0.  1.
</event>
<event>
 5    1  0.1560836E+002  0.1595782E+01  0.7818608E-02  0.3357954E+00
         11   -1    0    0    0    0  0.00000000000E+00  0.00000000000E+00  0.39999999674E+01  0.40000000000E+01  0.51100000000E-03 0.  1.
    9000002   -1    0    0    0    0 -0.00000000000E+00 -0.00000000000E+00  0.00000000000E+00  0.93800000000E+00  0.93800000000E+00 0.  1.
         11    1    1    2    0    0  0.14973143969E+00 -0.17734203645E+00  0.20757750375E+01  0.20887105997E+01  0.51100000000E-03 0.  1.
    9000002    1    1    2    0    0 -0.35110039207E+00  0.21093004729E+00  0.11657061795E+00  0.10301435236E+01  0.93800000000E+00 0.  1.
         22    1    1    2    0    0  0.20136895238E+00 -0.33588010836E-01  0.18076543119E+01  0.18191458767E+01  0.00000000000E+00 0.  1.
</event>
<event>
 5    1  0.1560836E+002  0.1599673E+01  0.7818608E-02  0.3353718E+00
         11   -1    0    0    0    0  0.00000000000E+00  0.00000000000E+00  0.39999999674E+01  0.40000000000E+01  0.51100000000E-03 0.  1.
    9000002   -1    0    0    0    0 -0.00000000000E+00 -0.00000000000E+00  0.00000000000E+00  0.93800000000E+00  0.93800000000E+00 0. -1.
         11    1    1    2    0    0  0.74769723087E-01 -0.98127322979E-01  0.14228505144E+01  0.14281888287E+01  0.51100000000E-03 0.  1.
    9000002    1    1    2    0    0 -0.20019689244E+00  0.27104225175E+00  0.76027255237E-01  0.99958333395E+00  0.93800000000E+00 0. -1.
         22    1    1    2    0    0  0.12542716935E+00 -0.17291492877E+00  0.25011221977E+01  0.25102278373E+01  0.00000000000E+00 0.  1.
</event>
<event>
 5    1  0.1560836E+002  0.1599670E+01  0.7818608E-02  0.3353722E+00
         11   -1    0    0    0    0  0.00000000000E+00  0.00000000000E+00  0.39999999674E+01  0.40000000000E+01  0.51100000000E-03 0.  1.
    9000002   -1    0    0    0    0 -0.00000000000E+00 -0.00000000000E+00  0.00000000000E+00  0.93800000000E+00  0.93800000000E+00 0.  1.
         11    1    1    2    0    0 -0.17406173620E+00  0.16027057074E+00  0.18697351466E+01  0.18846468962E+01  0.51100000000E-03 0.  1.
    9000002    1    1    2    0    0  0.35662241789E+00 -0.32279648104E+00  0.15790482831E+00  0.10659057425E+01  0.93800000000E+00 0.  1.
         22    1    1    2    0    0 -0.18256068169E+00  0.16252591030E+00  0.19723599925E+01  0.19874473613E+01  0.00000000000E+00 0. -1.
</event>
<event>
 5    1  0.1560836E+002  0.1599672E+01  0.7818608E-02  0.3353720E+00
         11   -1    0    0    0    0  0.00000000000E+00  0.00000000000E+00  0.39999999674E+01  0.40000000000E+01  0.51100000000E-03 0.  1.
    9000002   -1    0    0    0    0 -0.00000000000E+00 -0.00000000000E+00  0.00000000000E+00  0.93800000000E+00  0.93800000000E+00 0. -1.
         11    1    1    2    0    0  0.54979331601E-01 -0.79306491409E-02  0.77631786815E+00  0.77830284313E+00  0.51100000000E-03 0.  1.
    9000002    1    1    2    0    0 -0.28294643892E+00  0.29613723009E-01  0.53921676927E-01  0.98167571383E+00  0.93800000000E+00 0. -1.
         22    1    1    2    0    0  0.22796710732E+00 -0.21683073868E-01  0.31697604223E+01  0.31780214430E+01  0.00000000000E+00 0.  1.
</event>
<event>
 5    1  0.1560836E+002  0.1599674E+01  0.7818608E-02  0.3353717E+00
         11   -1    0    0    0    0  0.00000000000E+00  0.00000000000E+00  0.39999999674E+01  0.40000000000E+01  0.51100000000E-03 0. -1.
    9000002   -1    0    0    0    0 -0.00000000000E+00 -0.00000000000E+00  0.00000000000E+00  0.93800000000E+00  0.93800000000E+00 0. -1.
         11    1    1    2    0    0  0.73248262617E-01  0.11146365307E+00  0.70975898326E+00  0.72218247651E+00  0.51100000000E-03 0. -1.
    9000002    1    1    2    0    0 -0.37637583771E+00 -0.58215071162E+00  0.34282502210E+00  0.12157019446E+01  0.93800000000E+00 0. -1.
         22    1    1    2    0    0  0.30312757509E+00  0.47068705855E+00  0.29474159620E+01  0.30001155789E+01  0.00000000000E+00 0. -1.
</event>
<event>
 5    1  0.1560836E+002  0.1599347E+01  0.7818608E-02  0.3354072E+00
         11   -1    0    0    0    0  0.00000000000E+00  0.00000000000E+00  0.39999999674E+01  0.40000000000E+01  0.51100000000E-03 0. -1.
    9000002   -1    0    0    0    0 -0.00000000000E+00 -0.00000000000E+00  0.00000000000E+00  0.93800000000E+00  0.93800000000E+00 0.  1.
         11    1    1    2    0    0  0.10561386160E+00  0.61670542848E-01  0.11863331233E+01  0.11926206791E+01  0.51100000000E-03 0. -1.
    9000002    1    1    2    0    0 -0.32800201677E+00 -0.26522566477E+00  0.12064338351E+00  0.10355331005E+01  0.93800000000E+00 0.  1.
         22    1    1    2    0    0  0.22238815517E+00  0.20355512192E+00  0.26930234605E+01  0.27098462204E+01  0.00000000000E+00 0. -1.
</event>
<event>
 5    1  0.1560836E+002  0.1599677E+01  0.7818608E-02  0.3353714E+00
         11   -1    0    0    0    0  0.00000000000E+00  0.00000000000E+00  0.39999999674E+01  0.40000000000E+01  0.51100000000E-03 0. -1.
    9000002   -1    0    0    0    0 -0.00000000000E+00 -0.00000000000E+00  0.00000000000E+00  0.93800000000E+00  0.93800000000E+00 0. -1.
         11    1    1    2    0    0 -0.43235300239E-01 -0.84602395684E-01  0.87473858872E+00  0.87988335378E+00  0.51100000000E-03 0. -1.
    9000002    1    1    2    0    0  0.19318073672E+00  0.37404943321E+00  0.11987897524E+00  0.10351071173E+01  0.93800000000E+00 0. -1.
         22    1    1    2    0    0 -0.14994543648E+00 -0.28944703752E+00  0.30053824034E+01  0.30230095290E+01  0.00000000000E+00 0. -1.
</event>
<event>
 5    1  0.1560836E+002  0.1599073E+01  0.7818608E-02  0.3354370E+00
         11   -1    0    0    0    0  0.00000000000E+00  0.00000000000E+00  0.39999999674E+01  0.40000000000E+01  0.51100000000E-03 0.  1.
    9000002   -1    0    0    0    0 -0.00000000000E+00 -0.00000000000E+00  0.00000000000E+00  0.93800000000E+00  0.93800000000E+00 0.  1.
         11    1    1    2    0    0  0.30014839275E-02 -0.46228787560E-02  0.15896554045E+00  0.15906188760E+00  0.51100000000E-03 0.  1.
    9000002    1    1    2    0    0  0.21064742522E+00  0.16003762742E+00  0.47008234376E-01  0.97572442526E+00  0.93800000000E+00 0.  1.
         22    1    1    2    0    0 -0.21364890915E+00 -0.15541474866E+00  0.37940261925E+01  0.38032136871E+01  0.00000000000E+00 0.  1.
</event>
<event>
 5    1  0.1560836E+002  0.1577191E+01  0.7818608E-02  0.3378498E+00
         11   -1    0    0    0    0  0.00000000000E+00  0.00000000000E+00  0.39999999674E+01  0.40000000000E+01  0.51100000000E-03 0. -1.
    9000002   -1    0    0    0    0 -0.00000000000E+00 -0.00000000000E+00  0.00000000000E+00  0.93800000000E+00  0.93800000000E+00 0. -1.
         11    1    1    2    0    0  0.12920366840E-01  0.16231079143E+00  0.44708072186E+00  0.47580790438E+00  0.51100000000E-03 0. -1.
    9000002    1    1    2    0    0 -0.55120518643E-01 -0.38743910470E+00  0.12202524138E+00  0.10236608281E+01  0.93800000000E+00 0. -1.
         22    1    1    2    0    0  0.42200151803E-01  0.22512831328E+00  0.34308940041E+01  0.34385312675E+01  0.00000000000E+00 0. -1.
</event>
<event>
 5    1  0.1560836E+002  0.1597015E+01  0.7818608E-02  0.3356610E+00
         11   -1    0    0    0    0  0.00000000000E+00  0.00000000000E+00  0.39999999674E+01  0.40000000000E+01  0.51100000000E-03 0.  1.
    9000002   -1    0    0    0    0 -0.00000000000E+00 -0.00000000000E+00  0.00000000000E+00  0.93800000000E+00  0.93800000000E+00 0.  1.
         11    1    1    2    0    0  0.57115120589E-01  0.47856657638E-01  0.48528976755E+00  0.49097740914E+00  0.51100000000E-03 0.  1.
    9000002    1    1    2    0    0 -0.14532887500E+00 -0.28827746371E+00  0.71795849829E-01  0.99459691436E+00  0.93800000000E+00 0.  1.
         22    1    1    2    0    0  0.88213754413E-01  0.24042080607E+00  0.34429143500E+01  0.34524256765E+01  0.00000000000E+00 0.  1.
</event>
<event>
 5    1  0.1560836E+002  0.1599677E+01  0.7818608E-02  0.3353714E+00
         11   -1    0    0    0    0  0.00000000000E+00  0.00000000000E+00  0.39999999674E+01  0.40000000000E+01  0.51100000000E-03 0. -1.
    9000002   -1    0    0    0    0 -0.00000000000E+00 -0.00000000000E+00  0.00000000000E+00  0.93800000000E+00  0.93800000000E+00 0.  1.
         11    1    1    2    0    0  0.21859728548E+00  0.16608794923E+00  0.15817278425E+01  0.16053763450E+01  0.51100000000E-03 0. -1.
    9000002    1    1    2    0    0 -0.51349637321E+00 -0.39052001889E+00  0.29333895533E+00  0.11756173498E+01  0.93800000000E+00 0.  1.
         22    1    1    2    0    0  0.29489908773E+00  0.22443206966E+00  0.21249331695E+01  0.21570063052E+01  0.00000000000E+00 0. -1.
</event>
<event>
 5    1  0.1560836E+002  0.1599677E+01  0.7818608E-02  0.3353714E+00
         11   -1    0    0    0    0  0.00000000000E+00  0.00000000000E+00  0.39999999674E+01  0.40000000000E+01  0.51100000000E-03 0. -1.
    9000002   -1    0    0    0    0 -0.00000000000E+00 -0.00000000000E+00  0.00000000000E+00  0.93800000000E+00  0.93800000000E+00 0. -1.
         11    1    1    2    0    0  0.76355247152E-01 -0.38511546005E-01  0.65963449129E+00  0.66515500912E+00  0.51100000000E-03 0.  1.
    9000002    1    1    2    0    0 -0.44407353667E+00  0.22255828430E+00  0.16881057698E+00  0.10747439261E+01  0.93800000000E+00 0. -1.
         22    1    1    2    0    0  0.36771828951E+00 -0.18404673830E+00  0.31715548991E+01  0.31981010647E+01  0.00000000000E+00 0. -1.
</event>
<event>
 5    1  0.1560836E+002  0.1599661E+01  0.7818608E-02  0.3353731E+00
         11   -1    0    0    0    0  0.00000000000E+00  0.00000000000E+00  0.39999999674E+01  0.40000000000E+01  0.51100000000E-03 0.  1.
    9000002   -1    0    0    0    0 -0.00000000000E+00 -0.00000000000E+00  0.00000000000E+00  0.93800000000E+00  0.93800000000E+00 0.  1.
         11    1    1    2    0    0  0.66426855792E-01 -0.16172935826E-01  0.82060732333E+00  0.82345050321E+00  0.51100000000E-03 0.  1.
    9000002    1    1    2    0    0 -0.33575258024E+00  0.78772357102E-01  0.79714830203E-01  0.10025633813E+01  0.93800000000E+00 0.  1.
         22    1    1    2    0    0  0.26932572445E+00 -0.62599421276E-01  0.30996778138E+01  0.31119861155E+01  0.00000000000E+00 0.  1.
</event>
<event>
 5    1  0.1560836E+002  0.1584599E+01  0.7818608E-02  0.3370251E+00
         11   -1    0    0    0    0  0.00000000000E+00  0.00000000000E+00  0.39999999674E+01  0.40000000000E+01  0.51100000000E-03 0. -1.
    9000002   -1    0    0    0    0 -0.00000000000E+00 -0.00000000000E+00  0.00000000000E+00  0.93800000000E+00  0.93800000000E+00 0.  1.
         11    1    1    2    0    0 -0.17038483137E+00 -0.96374322623E-01  0.17775739753E+01  0.17883200216E+01  0.51100000000E-03 0. -1.
    9000002    1    1    2    0    0  0.26070149278E+00 -0.90634041596E-01  0.62464797087E-01  0.97975795415E+00  0.93800000000E+00 0.  1.
         22    1    1    2    0    0 -0.90316661411E-01  0.18700836422E+00  0.21599611949E+01  0.21699220242E+01  0.00000000000E+00 0. -1.
</event>
<event>
 5    1  0.1560836E+002  0.1599674E+01  0.7818608E-02  0.3353717E+00
         11   -1    0    0    0    0  0.00000000000E+00  0.00000000000E+00  0.39999999674E+01  0.40000000000E+01  0.51100000000E-03 0.  1.
    9000002   -1    0    0    0    0 -0.00000000000E+00 -0.00000000000E+00  0.00000000000E+00  0.93800000000E+00  0.93800000000E+00 0. -1.
         11    1    1    2    0    0  0.35333498363E-01  0.37085487725E-01  0.71787313643E+00  0.71969847202E+00  0.51100000000E-03 0.  1.
    9000002    1    1    2    0    0 -0.18633990418E+00 -0.20161658447E+00  0.50170041913E-01  0.97863825805E+00  0.93800000000E+00 0. -1.
         22    1    1    2    0    0  0.15100640582E+00  0.16453109674E+00  0.32319567890E+01  0.32396632699E+01  0.00000000000E+00 0.  1.
</event>
<event>
 5    1  0.1560836E+002  0.1599563E+01  0.7818608E-02  0.3353837E+00
         11   -1    0    0    0    0  0.00000000000E+00  0.00000000000E+00  0.39999999674E+01  0.40000000000E+01  0.51100000000E-03 0.  1.
    9000002   -1    0    0    0    0 -0.00000000000E+00 -0.00000000000E+00  0.00000000000E+00  0.93800000000E+00  0.93800000000E+00 0.  1.
         11    1    1    2    0    0  0.99740875101E-01  0.24871552228E-01  0.13742972508E+01  0.13781364341E+01  0.51100000000E-03 0.  1.
    9000002    1    1    2    0    0 -0.31835993620E+00 -0.82039760786E-01  0.72397578859E-01  0.99657863752E+00  0.93800000000E+00 0.  1.
         22    1    1    2    0    0  0.21861906110E+00  0.57168208558E-01  0.25533051377E+01  0.25632849284E+01  0.00000000000E+00 0.  1.
</event>
<event>
 5    1  0.1560836E+002  0.1492073E+01  0.7818608E-02  0.3479534E+00
         11   -1    0    0    0    0  0.00000000000E+00  0.00000000000E+00  0.39999999674E+01  0.40000000000E+01  0.51100000000E-03 0.  1.
    9000002   -1    0    0    0    0 -0.00000000000E+00 -0.00000000000E+00  0.00000000000E+00  0.93800000000E+00  0.93800000000E+00 0. -1.
         11    1    1    2    0    0 -0.24848954926E-01 -0.64029161773E-01 -0.67783482523E-02  0.69017470573E-01  0.51100000000E-03 0.  1.
    9000002    1    1    2    0    0  0.63102927933E-01 -0.19987767519E+00  0.11489726789E+00  0.96797647013E+00  0.93800000000E+00 0. -1.
         22    1    1    2    0    0 -0.38253973008E-01  0.26390683696E+00  0.38918810477E+01  0.39010060593E+01  0.00000000000E+00 0.  1.
</event>
<event>
 5    1  0.1560836E+002  0.1597706E+01  0.7818608E-02  0.3355857E+00
         11   -1    0    0    0    0  0.00000000000E+00  0.00000000000E+00  0.39999999674E+01  0.40000000000E+01  0.51100000000E-03 0. -1.
    9000002   -1    0    0    0    0 -0.00000000000E+00 -0.00000000000E+00  0.00000000000E+00  0.93800000000E+00  0.93800000000E+00 0.  1.
         11    1    1    2    0    0 -0.28757823109E-01  0.13446149456E-01  0.80826997440E+00  0.80889333287E+00  0.51100000000E-03 0. -1.
    9000002    1    1    2    0    0 -0.17296072223E-02 -0.22157900299E+00  0.34040560913E-01  0.96441848069E+00  0.93800000000E+00 0.  1.
         22    1    1    2    0    0  0.30487430331E-01  0.20813285354E+00  0.31576894320E+01  0.31646881864E+01  0.00000000000E+00 0. -1.
</event>
<event>
 5    1  0.1560836E+002  0.1599671E+01  0.7818608E-02  0.3353720E+00
         11   -1    0    0    0    0  0.00000000000E+00  0.00000000000E+00  0.39999999674E+01  0.40000000000E+01  0.51100000000E-03 0. -1.
    9000002   -1    0    0    0    0 -0.00000000000E+00 -0.00000000000E+00  0.00000000000E+00  0.93800000000E+00  0.93800000000E+00 0.  1.
         11    1    1    2    0    0 -0.28129574809E-02 -0.28834674456E-01  0.32443939608E+00  0.32573076925E+00  0.51100000000E-03 0.  1.
    9000002    1    1    2    0    0  0.22428646714E-01  0.33402897304E+00  0.75031444662E-01  0.99877530842E+00  0.93800000000E+00 0.  1.
         22    1    1    2    0    0 -0.19615689233E-01 -0.30519429858E+00  0.36005291266E+01  0.36134939223E+01  0.00000000000E+00 0. -1.
</event>
<event>
 5    1  0.1560836E+002  0.1599642E+01  0.7818608E-02  0.3353752E+00
         11   -1    0    0    0    0  0.00000000000E+00  0.00000000000E+00  0.39999999674E+01  0.40000000000E+01  0.51100000000E-03 0.  1.
    9000002   -1    0    0    0    0 -0.00000000000E+00 -0.00000000000E+00  0.00000000000E+00  0.93800000000E+00  0.93800000000E+00 0.  1.
         11    1    1    2    0    0  0.62974113420E-02 -0.37706587217E-01  0.31367128538E+00  0.31599269058E+00  0.51100000000E-03 0.  1.
    9000002    1    1    2    0    0 -0.70157372499E-01  0.41904393881E+00  0.12219717311E+00  0.10369648155E+01  0.93800000000E+00 0.  1.
         22    1    1    2    0    0  0.63859961157E-01 -0.38133735159E+00  0.35641315089E+01  0.35850424939E+01  0.00000000000E+00 0. -1.
</event>
<event>
 5    1  0.1560836E+002  0.1599638E+01  0.7818608E-02  0.3353756E+00
         11   -1    0    0    0    0  0.00000000000E+00  0.00000000000E+00  0.39999999674E+01  0.40000000000E+01  0.51100000000E-03 0. -1.
    9000002   -1    0    0    0    0 -0.00000000000E+00 -0.00000000000E+00  0.00000000000E+00  0.93800000000E+00  0.93800000000E+00 0.  1.
         11    1    1    2    0    0 -0.64217933084E-02  0.12525168867E-01  0.20905625990E+00  0.20953018925E+00  0.51100000000E-03 0. -1.
    9000002    1    1    2    0    0  0.14078505254E+00 -0.17729749936E+00  0.34019222291E-01  0.96553412254E+00  0.93800000000E+00 0.  1.
         22    1    1    2    0    0 -0.13436325923E+00  0.16477233050E+00  0.37569244852E+01  0.37629356882E+01  0.00000000000E+00 0. -1.
</event>
<event>
 5    1  0.1560836E+002  0.1480372E+01  0.7818608E-02  0.3494401E+00
         11   -1    0    0    0    0  0.00000000000E+00  0.00000000000E+00  0.39999999674E+01  0.40000000000E+01  0.51100000000E-03 0.  1.
    9000002   -1    0    0    0    0 -0.00000000000E+00 -0.00000000000E+00  0.00000000000E+00  0.93800000000E+00  0.93800000000E+00 0. -1.
         11    1    1    2    0    0  0.52069021890E+00 -0.10722862207E+00  0.98167436362E+00  0.11163785643E+01  0.51100000000E-03 0.  1.
    9000002    1    1    2    0    0 -0.72197120317E+00 -0.44541335257E+00  0.73288048422E+00  0.14617090261E+01  0.93800000000E+00 0. -1.
         22    1    1    2    0    0  0.20128098426E+00  0.55264197464E+00  0.22854451195E+01  0.23599124096E+01  0.00000000000E+00 0.  1.
</event>
<event>
 5    1  0.1560836E+002  0.1594997E+01  0.7818608E-02  0.3358812E+00
         11   -1    0    0    0    0  0.00000000000E+00  0.00000000000E+00  0.39999999674E+01  0.40000000000E+01  0.51100000000E-03 0.  1.
    9000002   -1    0    0    0    0 -0.00000000000E+00 -0.00000000000E+00  0.00000000000E+00  0.93800000000E+00  0.93800000000E+00 0. -1.
         11    1    1    2    0    0 -0.38352116688E-01  0.32732674214E-01  0.59055544417E+00  0.59270423196E+00  0.51100000000E-03 0.  1.
    9000002    1    1    2    0    0  0.12440829835E+00  0.15052719921E+00  0.28749565421E-01  0.95854389566E+00  0.93800000000E+00 0. -1.
         22    1    1    2    0    0 -0.86056181661E-01 -0.18325987342E+00  0.33806949578E+01  0.33867518724E+01  0.00000000000E+00 0.  1.
</event>
<event>
 5    1  0.1560836E+002  0.1599677E+01  0.7818608E-02  0.3353714E+00
         11   -1    0    0    0    0  0.00000000000E+00  0.00000000000E+00  0.39999999674E+01  0.40000000000E+01  0.51100000000E-03 0. -1.
    9000002   -1    0    0    0    0 -0.00000000000E+00 -0.00000000000E+00  0.00000000000E+00  0.93800000000E+00  0.93800000000E+00 0. -1.
         11    1    1    2    0    0 -0.83956515877E-01  0.23036502690E+00  0.20125113262E+01  0.20273921282E+01  0.51100000000E-03 0. -1.
    9000002    1    1    2    0    0  0.16006122391E+00 -0.44056057811E+00  0.14964912320E+00  0.10592223933E+01  0.93800000000E+00 0. -1.
         22    1    1    2    0    0 -0.76104708030E-01  0.21019555121E+00  0.18378395180E+01  0.18513854785E+01  0.00000000000E+00 0. -1.
</event>
<event>
 5    1  0.1560836E+002  0.1599672E+01  0.7818608E-02  0.3353720E+00
         11   -1    0    0    0    0  0.00000000000E+00  0.00000000000E+00  0.39999999674E+01  0.40000000000E+01  0.51100000000E-03 0. -1.
    9000002   -1    0    0    0    0 -0.00000000000E+00 -0.00000000000E+00  0.00000000000E+00  0.93800000000E+00  0.93800000000E+00 0.  1.
         11    1    1    2    0    0  0.15699852510E-02  0.79346766811E-01  0.98023672702E+00  0.98344429246E+00  0.51100000000E-03 0. -1.
    9000002    1    1    2    0    0 -0.10908500981E-01 -0.31023524645E+00  0.64353912172E-01  0.99012642099E+00  0.93800000000E+00 0.  1.
         22    1    1    2    0    0  0.93385157297E-02  0.23088847964E+00  0.29554093282E+01  0.29644292865E+01  0.00000000000E+00 0. -1.
</event>
<event>
 5    1  0.1560836E+002  0.1599658E+01  0.7818608E-02  0.3353734E+00
         11   -1    0    0    0    0  0.00000000000E+00  0.00000000000E+00  0.39999999674E+01  0.40000000000E+01  0.51100000000E-03 0. -1.
    9000002   -1    0    0    0    0 -0.00000000000E+00 -0.00000000000E+00  0.00000000000E+00  0.93800000000E+00  0.93800000000E+00 0. -1.
         11    1    1    2    0    0  0.26634716254E-01  0.75122920853E-01  0.96425029294E+00  0.96753901725E+00  0.51100000000E-03 0. -1.
    9000002    1    1    2    0    0 -0.91189995211E-01 -0.31142720710E+00  0.70430859571E-01  0.99504121851E+00  0.93800000000E+00 0. -1.
         22    1    1    2    0    0  0.64555278957E-01  0.23630428625E+00  0.29653188148E+01  0.29754197642E+01  0.00000000000E+00 0. -1.
</event>
<event>
 5    1  0.1560836E+002  0.1598219E+01  0.7818608E-02  0.3355299E+00
         11   -1    0    0    0    0  0.00000000000E+00  0.00000000000E+00  0.39999999674E+01  0.40000000000E+01  0.51100000000E-03 0. -1.
    9000002   -1    0    0    0    0 -0.00000000000E+00 -0.00000000000E+00  0.00000000000E+00  0.93800000000E+00  0.93800000000E+00 0.  1.
         11    1    1    2    0    0 -0.84400567009E-01  0.10782629569E-01  0.14637163960E+01  0.14661874607E+01  0.51100000000E-03 0. -1.
    9000002    1    1    2    0    0  0.34483261843E+00 -0.39597367198E-01  0.81928519530E-01  0.10035107217E+01  0.93800000000E+00 0.  1.
         22    1    1    2    0    0 -0.26043205142E+00  0.28814737630E-01  0.24543550518E+01  0.24683018177E+01  0.00000000000E+00 0. -1.
</event>
<event>
 5    1  0.1560836E+002  0.1599677E+01  0.7818608E-02  0.3353714E+00
         11   -1    0    0    0    0  0.00000000000E+00  0.00000000000E+00  0.39999999674E+01  0.40000000000E+01  0.51100000000E-03 0.  1.
    9000002   -1    0    0    0    0 -0.00000000000E+00 -0.00000000000E+00  0.00000000000E+00  0.93800000000E+00  0.93800000000E+00 0. -1.
         11    1    1    2    0    0 -0.27611511382E-01  0.74267391295E-01  0.10636394646E+01  0.10665867113E+01  0.51100000000E-03 0.  1.
    9000002    1    1    2    0    0  0.10138129672E+00 -0.27506705165E+00  0.57295658854E-01  0.98441192737E+00  0.93800000000E+00 0. -1.
         22    1    1    2    0    0 -0.73769785342E-01  0.20079966036E+00  0.28790648439E+01  0.28870013614E+01  0.00000000000E+00 0.  1.
</event>
<event>
 5    1  0.1560836E+002  0.1590101E+01  0.7818608E-02  0.3364178E+00
         11   -1    0    0    0    0  0.00000000000E+00  0.00000000000E+00  0.39999999674E+01  0.40000000000E+01  0.51100000000E-03 0. -1.
    9000002   -1    0    0    0    0 -0.00000000000E+00 -0.00000000000E+00  0.00000000000E+00  0.93800000000E+00  0.93800000000E+00 0. -1.
         11    1    1    2    0    0 -0.12931509639E+00 -0.66146679696E-01  0.10003781066E+01  0.10108681391E+01  0.51100000000E-03 0. -1.
    9000002    1    1    2    0    0  0.10843398838E+00  0.32054513928E+00  0.84378642452E-01  0.10007351655E+01  0.93800000000E+00 0. -1.
         22    1    1    2    0    0  0.20881108014E-01 -0.25439845959E+00  0.29152432183E+01  0.29263966954E+01  0.00000000000E+00 0. -1.
</event>
<event>
 5    1  0.1560836E+002  0.1599323E+01  0.7818608E-02  0.3354098E+00
         11   -1    0    0    0    0  0.00000000000E+00  0.00000000000E+00  0.39999999674E+01  0.40000000000E+01  0.51100000000E-03 0.  1.
    9000002   -1    0    0    0    0 -0.00000000000E+00 -0.00000000000E+00  0.00000000000E+00  0.93800000000E+00  0.93800000000E+00 0. -1.
         11    1    1    2    0    0  0.17006293592E-01 -0.14949716570E+00  0.69699929476E+00  0.71305462244E+00  0.51100000000E-03 0.  1.
    9000002    1    1    2    0    0 -0.68366516059E-01  0.83616290074E+00  0.52617679416E+00  0.13640192065E+01  0.93800000000E+00 0. -1.
         22    1    1    2    0    0  0.51360222467E-01 -0.68666573504E+00  0.27768238784E+01  0.28609261710E+01  0.00000000000E+00 0.  1.
</event>
<event>
 5    1  0.1560836E+002  0.1599244E+01  0.7818608E-02  0.3354184E+00
         11   -1    0    0    0    0  0.00000000000E+00  0.00000000000E+00  0.39999999674E+01  0.40000000000E+01  0.51100000000E-03 0.  1.
    9000002   -1    0    0    0    0 -0.00000000000E+00 -0.00000000000E+00  0.00000000000E+00  0.93800000000E+00  0.93800000000E+00 0.  1.
         11    1    1    2    0    0 -0.34096732367E-03  0.27524445508E-02  0.39949899880E-01  0.40049317487E-01  0.51100000000E-03 0.  1.
    9000002    1    1    2    0    0 -0.36334691706E-02  0.21912050117E+00  0.32160138595E-01  0.96379731824E+00  0.93800000000E+00 0.  1.
         22    1    1    2    0    0  0.39744364942E-02 -0.22187294572E+00  0.39278899289E+01  0.39341533643E+01  0.00000000000E+00 0.  1.
</event>
<event>
 5    1  0.1560836E+002  0.1599669E+01  0.7818608E-02  0.3353722E+00
         11   -1    0    0    0    0  0.00000000000E+00  0.00000000000E+00  0.39999999674E+01  0.40000000000E+01  0.51100000000E-03 0. -1.
    9000002   -1    0    0    0    0 -0.00000000000E+00 -0.00000000000E+00  0.00000000000E+00  0.93800000000E+00  0.93800000000E+00 0. -1.
         11    1    1    2    0    0  0.20132610482E-01 -0.11263394617E+00  0.41035126850E+00  0.42600487381E+00  0.51100000000E-03 0. -1.
    9000002    1    1    2    0    0 -0.15389328756E+00  0.92550630212E+00  0.68560629985E+00  0.14933670204E+01  0.93800000000E+00 0. -1.
         22    1    1    2    0    0  0.13376067708E+00 -0.81287235595E+00  0.29040423990E+01  0.30186281058E+01  0.00000000000E+00 0. -1.
</event>
<event>
 5    1  0.1560836E+002  0.1599675E+01  0.7818608E-02  0.3353716E+00
         11   -1    0    0    0    0  0.00000000000E+00  0.00000000000E+00  0.39999999674E+01  0.40000000000E+01  0.51100000000E-03 0. -1.
    9000002   -1    0    0    0    0 -0.00000000000E+00 -0.00000000000E+00  0.00000000000E+00  0.93800000000E+00  0.93800000000E+00 0. -1.
         11    1    1    2    0    0  0.16886605966E-01  0.59513829722E-01  0.85605988318E+00  0.85829239663E+00  0.51100000000E-03 0. -1.
    9000002    1    1    2    0    0 -0.78602281962E-01 -0.27988701879E+00  0.56334423621E-01  0.98363236491E+00  0.93800000000E+00 0. -1.
         22    1    1    2    0    0  0.61715675997E-01  0.22037318907E+00  0.30876056606E+01  0.30960752385E+01  0.00000000000E+00 0.  1.
</event>
<event>
 5    1  0.1560836E+002  0.1599672E+01  0.7818608E-02  0.3353719E+00
         11   -1    0    0    0    0  0.00000000000E+00  0.00000000000E+00  0.39999999674E+01  0.40000000000E+01  0.51100000000E-03 0. -1.
    9000002   -1    0    0    0    0 -0.00000000000E+00 -0.00000000000E+00  0.00000000000E+00  0.93800000000E+00  0.93800000000E+00 0.  1.
         11    1    1    2    0    0 -0.40260786748E-01  0.70179805795E-01  0.89798748058E+00  0.90162515076E+00  0.51100000000E-03 0.  1.
    9000002    1    1    2    0    0  0.18410575178E+00 -0.30967770563E+00  0.87133098360E-01  0.10085788943E+01  0.93800000000E+00 0.  1.
         22    1    1    2    0    0 -0.14384496503E+00  0.23949789984E+00  0.30148793884E+01  0.30277959549E+01  0.00000000000E+00 0. -1.
</event>
<event>
 5    1  0.1560836E+002  0.1599595E+01  0.7818608E-02  0.3353803E+00
         11   -1    0    0    0    0  0.00000000000E+00  0.00000000000E+00  0.39999999674E+01  0.40000000000E+01  0.51100000000E-03 0.  1.
    9000002   -1    0    0    0    0 -0.00000000000E+00 -0.00000000000E+00  0.00000000000E+00  0.93800000000E+00  0.93800000000E+00 0.  1.
         11    1    1    2    0    0  0.13697810506E+00 -0.24412361294E-02  0.52445037345E+00  0.54204927473E+00  0.51100000000E-03 0.  1.
    9000002    1    1    2    0    0 -0.90034174866E+00  0.63297925350E-01  0.62435032605E+00  0.14437033010E+01  0.93800000000E+00 0.  1.
         22    1    1    2    0    0  0.76336364359E+00 -0.60856689220E-01  0.28511992679E+01  0.29522474243E+01  0.00000000000E+00 0.  1.
</event>
<event>
 5    1  0.1560836E+002  0.1599667E+01  0.7818608E-02  0.3353725E+00
         11   -1    0    0    0    0  0.00000000000E+00  0.00000000000E+00  0.39999999674E+01  0.40000000000E+01  0.51100000000E-03 0.  1.
    9000002   -1    0    0    0    0 -0.00000000000E+00 -0.00000000000E+00  0.00000000000E+00  0.93800000000E+00  0.93800000000E+00 0. -1.
         11    1    1    2    0    0  0.61953565476E-01  0.72429014191E-02  0.57851394328E+00  0.58186712193E+00  0.51100000000E-03 0.  1.
    9000002    1    1    2    0    0 -0.41021238441E+00 -0.66088830342E-01  0.11669634068E+00  0.10325231086E+01  0.93800000000E+00 0. -1.
         22    1    1    2    0    0  0.34825881894E+00  0.58845928923E-01  0.33047896834E+01  0.33236097695E+01  0.00000000000E+00 0.  1.
</event>
<event>
 5    1  0.1560836E+002  0.1538212E+01  0.7818608E-02  0.3423283E+00
         11   -1    0    0    0    0  0.00000000000E+00  0.00000000000E+00  0.39999999674E+01  0.40000000000E+01  0.51100000000E-03 0.  1.
    9000002   -1    0    0    0    0 -0.00000000000E+00 -0.00000000000E+00  0.00000000000E+00  0.93800000000E+00  0.93800000000E+00 0.  1.
         11    1    1    2    0    0 -0.30852106269E+00  0.89745606139E-01  0.28593758695E+01  0.28773720900E+01  0.51100000000E-03 0.  1.
    9000002    1    1    2    0    0  0.11344197726E+00  0.71130997463E-01  0.58454920328E-01  0.94931010672E+00  0.93800000000E+00 0.  1.
         22    1    1    2    0    0  0.19507908543E+00 -0.16087660360E+00  0.10821691775E+01  0.11113178033E+01  0.00000000000E+00 0. -1.
</event>
<event>
 5    1  0.1560836E+002  0.1599248E+01  0.7818608E-02  0.3354180E+00
         11   -1    0    0    0    0  0.00000000000E+00  0.00000000000E+00  0.39999999674E+01  0.40000000000E+01  0.51100000000E-03 0. -1.
    9000002   -1    0    0    0    0 -0.00000000000E+00 -0.00000000000E+00  0.00000000000E+00  0.93800000000E+00  0.93800000000E+00 0. -1.
         11    1    1    2    0    0 -0.16135448225E-02  0.38121171661E-02  0.47533026598E-01  0.47715673554E-01  0.51100000000E-03 0. -1.
    9000002    1    1    2    0    0 -0.29162327995E+00 -0.17118404509E+00  0.76916700515E-01  0.10000541453E+01  0.93800000000E+00 0. -1.
         22    1    1    2    0    0  0.29323682477E+00  0.16737192793E+00  0.38755502402E+01  0.38902301812E+01  0.00000000000E+00 0. -1.
</event>
<event>
 5    1  0.1560836E+002  0.1599544E+01  0.7818608E-02  0.3353859E+00
         11   -1    0    0    0    0  0.00000000000E+00  0.00000000000E+00  0.39999999674E+01  0.40000000000E+01  0.51100000000E-03 0. -1.
    9000002   -1    0    0    0    0 -0.00000000000E+00 -0.00000000000E+00  0.00000000000E+00  0.93800000000E+00  0.93800000000E+00 0. -1.
         11    1    1    2    0    0  0.38252928739E+00  0.17553525027E+00  0.24190629733E+01  0.24554036755E+01  0.51100000000E-03 0. -1.
    9000002    1    1    2    0    0 -0.58323654209E+00 -0.28870625760E+00  0.29904989608E+00  0.11801656695E+01  0.93800000000E+00 0. -1.
         22    1    1    2    0    0  0.20070725470E+00  0.11317100733E+00  0.12818870980E+01  0.13024306550E+01  0.00000000000E+00 0.  1.
</event>
<event>
 5    1  0.1560836E+002  0.1588142E+01  0.7818608E-02  0.3366335E+00
         11   -1    0    0    0    0  0.00000000000E+00  0.00000000000E+00  0.39999999674E+01  0.40000000000E+01  0.51100000000E-03 0. -1.
    9000002   -1    0    0    0    0 -0.00000000000E+00 -0.00000000000E+00  0.00000000000E+00  0.93800000000E+00  0.93800000000E+00 0.  1.
         11    1    1    2    0    0 -0.25502665649E+00 -0.16678830034E-01  0.14491279411E+01  0.14714920420E+01  0.51100000000E-03 0. -1.
    9000002    1    1    2    0    0  0.42272135078E+00  0.26150401969E+00  0.17949271114E+00  0.10766333294E+01  0.93800000000E+00 0.  1.
         22    1    1    2    0    0 -0.16769469429E+00 -0.24482518966E+00  0.23713793152E+01  0.23898746286E+01  0.00000000000E+00 0.  1.
</event>
<event>
 5    1  0.1560836E+002  0.1242629E+01  0.7818608E-02  0.3897949E+00
         11   -1    0    0    0    0  0.00000000000E+00  0.00000000000E+00  0.39999999674E+01  0.40000000000E+01  0.51100000000E-03 0.  1.
    9000002   -1    0    0    0    0 -0.00000000000E+00 -0.00000000000E+00  0.00000000000E+00  0.93800000000E+00  0.93800000000E+00 0. -1.
         11    1    1    2    0    0 -0.76482400197E-01 -0.63473530663E+00  0.14396382525E+01  0.15752133272E+01  0.51100000000E-03 0.  1.
    9000002    1    1    2    0    0 -0.43554881300E+00 -0.61442667213E-01  0.54647011071E+00  0.11713033560E+01  0.93800000000E+00 0. -1.
         22    1    1    2    0    0  0.51203121320E+00  0.69617797384E+00  0.20138916041E+01  0.21914833168E+01  0.00000000000E+00 0. -1.
</event>
<event>
 5    1  0.1560836E+002  0.1599084E+01  0.7818608E-02  0.3354359E+00
         11   -1    0    0    0    0  0.00000000000E+00  0.00000000000E+00  0.39999999674E+01  0.40000000000E+01  0.51100000000E-03 0. -1.
    9000002   -1    0    0    0    0 -0.00000000000E+00 -0.00000000000E+00  0.00000000000E+00  0.93800000000E+00  0.93800000000E+00 0.  1.
         11    1    1    2    0    0 -0.13120326341E-02 -0.36068830875E-02  0.88610140311E-01  0.88694696133E-01  0.51100000000E-03 0. -1.
    9000002    1    1    2    0    0  0.95327453899E-01 -0.22391362687E+00  0.39774872302E-01  0.96987147408E+00  0.93800000000E+00 0.  1.
         22    1    1    2    0    0 -0.94015421265E-01  0.22752050995E+00  0.38716149547E+01  0.38794338298E+01  0.00000000000E+00 0. -1.
</event>
<event>
 5    1  0.1560836E+002  0.1579182E+01  0.7818608E-02  0.3376274E+00
         11   -1    0    0    0    0  0.00000000000E+00  0.00000000000E+00  0.39999999674E+01  0.40000000000E+01  0.51100000000E-03 0.  1.
    9000002   -1    0    0    0    0 -0.00000000000E+00 -0.00000000000E+00  0.00000000000E+00  0.93800000000E+00  0.93800000000E+00 0.  1.
         11    1    1    2    0    0 -0.20168847194E+00 -0.91173640786E-01  0.73627675923E+00  0.76882676839E+00  0.51100000000E-03 0.  1.
    9000002    1    1    2    0    0  0.32838404454E+00  0.41860928007E+00  0.21413296521E+00  0.10994392829E+01  0.93800000000E+00 0.  1.
         22    1    1    2    0    0 -0.12669557260E+00 -0.32743563928E+00  0.30495902429E+01  0.30697339487E+01  0.00000000000E+00 0.  1.
</event>
<event>
 5    1  0.1560836E+002  0.1599676E+01  0.7818608E-02  0.3353715E+00
         11   -1    0    0    0    0  0.00000000000E+00  0.00000000000E+00  0.39999999674E+01  0.40000000000E+01  0.51100000000E-03 0.  1.
    9000002   -1    0    0    0    0 -0.00000000000E+00 -0.00000000000E+00  0.00000000000E+00  0.93800000000E+00  0.93800000000E+00 0. -1.
         11    1    1    2    0    0  0.61990669551E-01  0.71867923401E-01  0.75197587021E+00  0.75794182628E+00  0.51100000000E-03 0. -1.
    9000002    1    1    2    0    0 -0.31887105371E+00 -0.36861642715E+00  0.16228314660E+00  0.10694562352E+01  0.93800000000E+00 0. -1.
         22    1    1    2    0    0  0.25688038416E+00  0.29674850375E+00  0.30857409506E+01  0.31106019386E+01  0.00000000000E+00 0.  1.
</event>
<event>
 5    1  0.1560836E+002  0.1479931E+01  0.7818608E-02  0.3494966E+00
         11   -1    0    0    0    0  0.00000000000E+00  0.00000000000E+00  0.39999999674E+01  0.40000000000E+01  0.51100000000E-03 0.  1.
    9000002   -1    0    0    0    0 -0.00000000000E+00 -0.00000000000E+00  0.00000000000E+00  0.93800000000E+00  0.93800000000E+00 0.  1.
         11    1    1    2    0    0 -0.15557059730E+00  0.24280948788E+00  0.23824795839E+01  0.23998683061E+01  0.51100000000E-03 0.  1.
    9000002    1    1    2    0    0 -0.29905896556E+00 -0.34848836633E-01  0.16100699814E+00  0.99820737312E+00  0.93800000000E+00 0.  1.
         22    1    1    2    0    0  0.45462956286E+00 -0.20796065124E+00  0.14565133854E+01  0.15399243207E+01  0.00000000000E+00 0.  1.
</event>
<event>
 5    1  0.1560836E+002  0.1598638E+01  0.7818608E-02  0.3354843E+00
         11   -1    0    0    0    0  0.00000000000E+00  0.00000000000E+00  0.39999999674E+01  0.40000000000E+01  0.51100000000E-03 0.  1.
    9000002   -1    0    0    0    0 -0.00000000000E+00 -0.00000000000E+00  0.00000000000E+00  0.93800000000E+00  0.93800000000E+00 0. -1.
         11    1    1    2    0    0  0.12488617790E-01 -0.61836723597E-01  0.53191003488E+00  0.53563821025E+00  0.51100000000E-03 0.  1.
    9000002    1    1    2    0    0  0.11748303290E-01  0.29111709884E+00  0.57394730921E-01  0.98388278926E+00  0.93800000000E+00 0. -1.
         22    1    1    2    0    0 -0.24236921080E-01 -0.22928037524E+00  0.34106952016E+01  0.34184790005E+01  0.00000000000E+00 0.  1.
</event>
<event>
 5    1  0.1560836E+002  0.1599666E+01  0.7818608E-02  0.3353726E+00
         11   -1    0    0    0    0  0.00000000000E+00  0.00000000000E+00  0.39999999674E+01  0.40000000000E+01  0.51100000000E-03 0. -1.
    9000002   -1    0    0    0    0 -0.00000000000E+00 -0.00000000000E+00  0.00000000000E+00  0.93800000000E+00  0.93800000000E+00 0.  1.
         11    1    1    2    0    0  0.10602530144E+00 -0.65564129896E-01  0.14290551051E+01  0.14344820578E+01  0.51100000000E-03 0. -1.
    9000002    1    1    2    0    0 -0.30066009656E+00  0.18326277030E+00  0.83159492381E-01  0.10053562741E+01  0.93800000000E+00 0.  1.
         22    1    1    2    0    0  0.19463479512E+00 -0.11769864041E+00  0.24877853699E+01  0.24981616681E+01  0.00000000000E+00 0. -1.
</event>
<event>
 5    1  0.1560836E+002  0.1599655E+01  0.7818608E-02  0.3353737E+00
         11   -1    0    0    0    0  0.00000000000E+00  0.00000000000E+00  0.39999999674E+01  0.40000000000E+01  0.51100000000E-03 0.  1.
    9000002   -1    0    0    0    0 -0.00000000000E+00 -0.00000000000E+00  0.00000000000E+00  0.93800000000E+00  0.93800000000E+00 0.  1.
         11    1    1    2    0    0  0.54142606410E-01  0.95573112401E-01  0.12494071928E+01  0.12542265490E+01  0.51100000000E-03 0.  1.
    9000002    1    1    2    0    0 -0.17663658563E+00 -0.31409220255E+00  0.87187344727E-01  0.10086129229E+01  0.93800000000E+00 0.  1.
         22    1    1    2    0    0  0.12249397922E+00  0.21851909015E+00  0.26634054298E+01  0.26751605281E+01  0.00000000000E+00 0.  1.
</event>
<event>
 5    1  0.1560836E+002  0.1599540E+01  0.7818608E-02  0.3353863E+00
         11   -1    0    0    0    0  0.00000000000E+00  0.00000000000E+00  0.39999999674E+01  0.40000000000E+01  0.51100000000E-03 0. -1.
    9000002   -1    0    0    0    0 -0.00000000000E+00 -0.00000000000E+00  0.00000000000E+00  0.93800000000E+00  0.93800000000E+00 0. -1.
         11    1    1    2    0    0  0.62106729544E-02  0.10039545852E+00  0.14517862203E+01  0.14552667491E+01  0.51100000000E-03 0. -1.
    9000002    1    1    2    0    0 -0.31791606484E-01 -0.30607622220E+00  0.63325118248E-01  0.98921556328E+00  0.93800000000E+00 0. -1.
         22    1    1    2    0    0  0.25580933530E-01  0.20568076369E+00  0.24848886288E+01  0.24935176876E+01  0.00000000000E+00 0. -1.
</event>
<event>
 5    1  0.1560836E+002  0.1590785E+01  0.7818608E-02  0.3363426E+00
         11   -1    0    0    0    0  0.00000000000E+00  0.00000000000E+00  0.39999999674E+01  0.40000000000E+01  0.51100000000E-03 0.  1.
    9000002   -1    0    0    0    0 -0.00000000000E+00 -0.00000000000E+00  0.00000000000E+00  0.93800000000E+00  0.93800000000E+00 0.  1.
         11    1    1    2    0    0  0.29422815317E+00  0.36387135314E+00  0.13639955504E+01  0.14420321391E+01  0.51100000000E-03 0.  1.
    9000002    1    1    2    0    0 -0.47575752251E+00 -0.76531938026E+00  0.63578525022E+00  0.14478003517E+01  0.93800000000E+00 0.  1.
         22    1    1    2    0    0  0.18152936934E+00  0.40144802712E+00  0.20002191668E+01  0.20481675092E+01  0.00000000000E+00 0. -1.
</event>
<event>
 5    1  0.1560836E+002  0.1599673E+01  0.7818608E-02  0.3353718E+00
         11   -1    0    0    0    0  0.00000000000E+00  0.00000000000E+00  0.39999999674E+01  0.40000000000E+01  0.51100000000E-03 0.  1.
    9000002   -1    0    0    0    0 -0.00000000000E+00 -0.00000000000E+00  0.00000000000E+00  0.93800000000E+00  0.93800000000E+00 0. -1.
         11    1    1    2    0    0  0.26987201852E-01  0.26917715764E-01  0.28192459696E+00  0.28449009118E+00  0.51100000000E-03 0.  1.
    9000002    1    1    2    0    0 -0.36360049903E+00 -0.34985102853E+00  0.17442699774E+00  0.10792913613E+01  0.93800000000E+00 0. -1.
         22    1    1    2    0    0  0.33661329717E+00  0.32293331277E+00  0.35436483727E+01  0.35742185475E+01  0.00000000000E+00 0.  1.
</event>
<event>
 5    1  0.1560836E+002  0.1593842E+01  0.7818608E-02  0.3360075E+00
         11   -1    0    0    0    0  0.00000000000E+00  0.00000000000E+00  0.39999999674E+01  0.40000000000E+01  0.51100000000E-03 0. -1.
    9000002   -1    0    0    0    0 -0.00000000000E+00 -0.00000000000E+00  0.00000000000E+00  0.93800000000E+00  0.93800000000E+00 0.  1.
         11    1    1    2    0    0 -0.47183021018E-02 -0.45182859110E-01  0.23063468777E+00  0.23506674256E+00  0.51100000000E-03 0. -1.
    9000002    1    1    2    0    0 -0.34924535714E+00  0.16675949904E+00  0.10569273087E+00  0.10201941008E+01  0.93800000000E+00 0.  1.
         22    1    1    2    0    0  0.35396365925E+00 -0.12157663993E+00  0.36636725487E+01  0.36827391566E+01  0.00000000000E+00 0. -1.
</event>
<event>
 5    1  0.1560836E+002  0.1599675E+01  0.7818608E-02  0.3353717E+00
         11   -1    0    0    0    0  0.00000000000E+00  0.00000000000E+00  0.39999999674E+01  0.40000000000E+01  0.51100000000E-03 0. -1.
    9000002   -1    0    0    0    0 -0.00000000000E+00 -0.00000000000E+00  0.00000000000E+00  0.93800000000E+00  0.93800000000E+00 0. -1.
         11    1    1    2    0    0  0.84720979897E-03  0.45828746812E-02  0.83672752060E-01  0.83804003861E-01  0.51100000000E-03 0.  1.
    9000002    1    1    2    0    0 -0.51139803937E-01 -0.21937655337E+00  0.33648372908E-01  0.96525518114E+00  0.93800000000E+00 0. -1.
         22    1    1    2    0    0  0.50292594138E-01  0.21479367869E+00  0.38826788424E+01  0.38889408150E+01  0.00000000000E+00 0. -1.
</event>
<event>
 5    1  0.1560836E+002  0.1599677E+01  0.7818608E-02  0.3353714E+00
         11   -1    0    0    0    0  0.00000000000E+00  0.00000000000E+00  0.39999999674E+01  0.40000000000E+01  0.51100000000E-03 0.  1.
    9000002   -1    0    0    0    0 -0.00000000000E+00 -0.00000000000E+00  0.00000000000E+00  0.93800000000E+00  0.93800000000E+00 0. -1.
         11    1    1    2    0    0 -0.20308470653E+00  0.57648701734E-01  0.18718458502E+01  0.18837128016E+01  0.51100000000E-03 0.  1.
    9000002    1    1    2    0    0  0.41868815159E+00 -0.11879786832E+00  0.12837168012E+00  0.10419865594E+01  0.93800000000E+00 0. -1.
         22    1    1    2    0    0 -0.21560344506E+00  0.61149166590E-01  0.19997824370E+01  0.20123006389E+01  0.00000000000E+00 0.  1.
</event>
<event>
 5    1  0.1560836E+002  0.1598471E+01  0.7818608E-02  0.3355024E+00
         11   -1    0    0    0    0  0.00000000000E+00  0.00000000000E+00  0.39999999674E+01  0.40000000000E+01  0.51100000000E-03 0. -1.
    9000002   -1    0    0    0    0 -0.00000000000E+00 -0.00000000000E+00  0.00000000000E+00  0.93800000000E+00  0.93800000000E+00 0. -1.
         11    1    1    2    0    0 -0.89781914041E-01  0.11421113653E+00  0.97414306229E+00  0.98491621102E+00  0.51100000000E-03 0. -1.
    9000002    1    1    2    0    0  0.23637759190E+00 -0.37208075169E+00  0.13283626545E+00  0.10448961313E+01  0.93800000000E+00 0. -1.
         22    1    1    2    0    0 -0.14659567786E+00  0.25786961516E+00  0.28930206396E+01  0.29081876577E+01  0.00000000000E+00 0. -1.
</event>
<event>
 5    1  0.1560836E+002  0.1599334E+01  0.7818608E-02  0.3354087E+00
         11   -1    0    0    0    0  0.00000000000E+00  0.00000000000E+00  0.39999999674E+01  0.40000000000E+01  0.51100000000E-03 0.  1.
    9000002   -1    0    0    0    0 -0.00000000000E+00 -0.00000000000E+00  0.00000000000E+00  0.93800000000E+00  0.93800000000E+00 0. -1.
         11    1    1    2    0    0 -0.14849763854E+00  0.16409787305E+00  0.18820236776E+01  0.18949915685E+01  0.51100000000E-03 0.  1.
    9000002    1    1    2    0    0  0.26056219573E+00 -0.34681410550E+00  0.12779798316E+00  0.10413207988E+01  0.93800000000E+00 0. -1.
         22    1    1    2    0    0 -0.11206455719E+00  0.18271623244E+00  0.19901783066E+01  0.20016876326E+01  0.00000000000E+00 0.  1.
</event>
<event>
 5    1  0.1560836E+002  0.1599410E+01  0.7818608E-02  0.3354004E+00
         11   -1    0    0    0    0  0.00000000000E+00  0.00000000000E+00  0.39999999674E+01  0.40000000000E+01  0.51100000000E-03 0. -1.
    9000002   -1    0    0    0    0 -0.00000000000E+00 -0.00000000000E+00  0.00000000000E+00  0.93800000000E+00  0.93800000000E+00 0. -1.
         11    1    1    2    0    0  0.66699309032E-01  0.15795854791E-01  0.52530921044E+00  0.52976252656E+00  0.51100000000E-03 0. -1.
    9000002    1    1    2    0    0 -0.41240410886E+00 -0.57759642481E-01  0.11744811797E+00  0.10329817935E+01  0.93800000000E+00 0. -1.
         22    1    1    2    0    0  0.34570479983E+00  0.41963787689E-01  0.33572426390E+01  0.33752556799E+01  0.00000000000E+00 0. -1.
</event>
<event>
 5    1  0.1560836E+002  0.1586511E+01  0.7818608E-02  0.3368135E+00
         11   -1    0    0    0    0  0.00000000000E+00  0.00000000000E+00  0.39999999674E+01  0.40000000000E+01  0.51100000000E-03 0.  1.
    9000002   -1    0    0    0    0 -0.00000000000E+00 -0.00000000000E+00  0.00000000000E+00  0.93800000000E+00  0.93800000000E+00 0.  1.
         11    1    1    2    0    0 -0.41913279248E-02 -0.18618696757E-01  0.12369531749E-01  0.22748396325E-01  0.51100000000E-03 0.  1.
    9000002    1    1    2    0    0  0.17277511618E+00  0.13895417163E+00  0.42601764935E-01  0.96478931014E+00  0.93800000000E+00 0.  1.
         22    1    1    2    0    0 -0.16858378826E+00 -0.12033547488E+00  0.39450286707E+01  0.39504622935E+01  0.00000000000E+00 0.  1.
</event>
<event>
 5    1  0.1560836E+002  0.1599531E+01  0.7818608E-02  0.3353872E+00
         11   -1    0    0    0    0  0.00000000000E+00  0.00000000000E+00  0.39999999674E+01  0.40000000000E+01  0.51100000000E-03 0.  1.
    9000002   -1    0    0    0    0 -0.00000000000E+00 -0.00000000000E+00  0.00000000000E+00  0.93800000000E+00  0.93800000000E+00 0.  1.
         11    1    1    2    0    0 -0.40623605464E-01  0.37589833111E-01  0.54577649939E+00  0.54857590293E+00  0.51100000000E-03 0.  1.
    9000002    1    1    2    0    0  0.25370544023E+00 -0.33002396076E+00  0.11725534677E+00  0.10328964524E+01  0.93800000000E+00 0.  1.
         22    1    1    2    0    0 -0.21308183476E+00  0.29243412765E+00  0.33369681212E+01  0.33565276446E+01  0.00000000000E+00 0.  1.
</event>
<event>
 5    1  0.1560836E+002  0.1598505E+01  0.7818608E-02  0.3354987E+00
         11   -1    0    0    0    0  0.00000000000E+00  0.00000000000E+00  0.39999999674E+01  0.40000000000E+01  0.51100000000E-03 0.  1.
    9000002   -1    0    0    0    0 -0.00000000000E+00 -0.00000000000E+00  0.00000000000E+00  0.93800000000E+00  0.93800000000E+00 0. -1.
         11    1    1    2    0    0 -0.10395225408E+00  0.73906938965E-01  0.17777751521E+01  0.17823448205E+01  0.51100000000E-03 0.  1.
    9000002    1    1    2    0    0  0.23993042707E+00 -0.25279724428E+00  0.82378773917E-01  0.10040434846E+01  0.93800000000E+00 0. -1.
         22    1    1    2    0    0 -0.13597817299E+00  0.17889030531E+00  0.21398460414E+01  0.21516116949E+01  0.00000000000E+00 0.  1.
</event>
<event>
 5    1  0.1560836E+002  0.1599674E+01  0.7818608E-02  0.3353718E+00
         11   -1    0    0    0    0  0.00000000000E+00  0.00000000000E+00  0.39999999674E+01  0.40000000000E+01  0.51100000000E-03 0.  1.
    9000002   -1    0    0    0    0 -0.00000000000E+00 -0.00000000000E+00  0.00000000000E+00  0.93800000000E+00  0.93800000000E+00 0. -1.
         11    1    1    2    0    0 -0.50557333536E+00 -0.32395476072E+00  0.20739393981E+01  0.21591146270E+01  0.51100000000E-03 0.  1.
    9000002    1    1    2    0    0  0.80430174283E+00  0.51370525226E+00  0.71502809546E+00  0.15172025432E+01  0.93800000000E+00 0. -1.
         22    1    1    2    0    0 -0.29872840747E+00 -0.18975049154E+00  0.12110324738E+01  0.12616828298E+01  0.00000000000E+00 0. -1.
</event>
<event>
 5    1  0.1560836E+002  0.1596412E+01  0.7818608E-02  0.3357267E+00
         11   -1    0    0    0    0  0.00000000000E+00  0.00000000000E+00  0.39999999674E+01  0.40000000000E+01  0.51100000000E-03 0. -1.
    9000002   -1    0    0    0    0 -0.00000000000E+00 -0.00000000000E+00  0.00000000000E+00  0.93800000000E+00  0.93800000000E+00 0.  1.
         11    1    1    2    0    0  0.27154603142E+00  0.40463222601E-01  0.25413010487E+01  0.25560879877E+01  0.51100000000E-03 0. -1.
    9000002    1    1    2    0    0 -0.48346580774E+00 -0.12536509445E+00  0.17369558114E+00  0.10767867705E+01  0.93800000000E+00 0.  1.
         22    1    1    2    0    0  0.21191977633E+00  0.84901871845E-01  0.12850033375E+01  0.13051252418E+01  0.00000000000E+00 0. -1.
</event>
<event>
 5    1  0.1560836E+002  0.1599662E+01  0.7818608E-02  0.3353731E+00
         11   -1    0    0    0    0  0.00000000000E+00  0.00000000000E+00  0.39999999674E+01  0.40000000000E+01  0.51100000000E-03 0.  1.
    9000002   -1    0    0    0    0 -0.00000000000E+00 -0.00000000000E+00  0.00000000000E+00  0.93800000000E+00  0.93800000000E+00 0. -1.
         11    1    1    2    0    0 -0.47190796804E-01  0.10987198808E+00  0.83295257891E+00  0.84149217756E+00  0.51100000000E-03 0.  1.
    9000002    1    1    2    0    0  0.20166927466E+00 -0.51194098646E+00  0.20913609670E+00  0.11074005494E+01  0.93800000000E+00 0. -1.
         22    1    1    2    0    0 -0.15447847785E+00  0.40206899838E+00  0.29579112918E+01  0.29891072730E+01  0.00000000000E+00 0.  1.
</event>
<event>
 5    1  0.1560836E+002  0.1599656E+01  0.7818608E-02  0.3353736E+00
         11   -1    0    0    0    0  0.00000000000E+00  0.00000000000E+00  0.39999999674E+01  0.40000000000E+01  0.51100000000E-03 0. -1.
    9000002   -1    0    0    0    0 -0.00000000000E+00 -0.00000000000E+00  0.00000000000E+00  0.93800000000E+00  0.93800000000E+00 0. -1.
         11    1    1    2    0    0 -0.24182088144E+00 -0.17330799785E+00  0.21375849192E+01  0.21581896462E+01  0.51100000000E-03 0. -1.
    9000002    1    1    2    0    0  0.43807922064E+00  0.30254217027E+00  0.19515546808E+00  0.10960724543E+01  0.93800000000E+00 0. -1.
         22    1    1    2    0    0 -0.19625833920E+00 -0.12923417243E+00  0.16672595801E+01  0.16837378995E+01  0.00000000000E+00 0. -1.
</event>
<event>
 5    1  0.1560836E+002  0.1597813E+01  0.7818608E-02  0.3355740E+00
         11   -1    0    0    0    0  0.00000000000E+00  0.00000000000E+00  0.39999999674E+01  0.40000000000E+01  0.51100000000E-03 0.  1.
    9000002   -1    0    0    0    0 -0.00000000000E+00 -0.00000000000E+00  0.00000000000E+00  0.93800000000E+00  0.93800000000E+00 0.  1.
         11    1    1    2    0    0  0.11642539092E+00  0.13142980482E+00  0.14461638217E+01  0.14567836921E+01  0.51100000000E-03 0.  1.
    9000002    1    1    2    0    0 -0.18096159026E+00 -0.32913107620E+00  0.96397079214E-01  0.10149929849E+01  0.93800000000E+00 0.  1.
         22    1    1    2    0    0  0.64536199343E-01  0.19770127138E+00  0.24574390665E+01  0.24662233231E+01  0.00000000000E+00 0.  1.
</event>
<event>
 5    1  0.1560836E+002  0.1597534E+01  0.7818608E-02  0.3356044E+00
         11   -1    0    0    0    0  0.00000000000E+00  0.00000000000E+00  0.39999999674E+01  0.40000000000E+01  0.51100000000E-03 0. -1.
    9000002   -1    0    0    0    0 -0.00000000000E+00 -0.00000000000E+00  0.00000000000E+00  0.93800000000E+00  0.93800000000E+00 0.  1.
         11    1    1    2    0    0  0.12600172545E+00 -0.45235810556E-01  0.18250705933E+01  0.18299742198E+01  0.51100000000E-03 0. -1.
    9000002    1    1    2    0    0 -0.32811977479E+00 -0.78182063051E-02  0.73767603012E-01  0.99649855505E+00  0.93800000000E+00 0.  1.
         22    1    1    2    0    0  0.20211804934E+00  0.53054016861E-01  0.21011617710E+01  0.21115272251E+01  0.00000000000E+00 0. -1.
</event>
<event>
 5    1  0.1560836E+002  0.1564058E+01  0.7818608E-02  0.3393322E+00
         11   -1    0    0    0    0  0.00000000000E+00  0.00000000000E+00  0.39999999674E+01  0.40000000000E+01  0.51100000000E-03 0. -1.
    9000002   -1    0    0    0    0 -0.00000000000E+00 -0.00000000000E+00  0.00000000000E+00  0.93800000000E+00  0.93800000000E+00 0. -1.
         11    1    1    2    0    0 -0.66989016053E-01 -0.17199990365E+00  0.11932064250E+01  0.12073994074E+01  0.51100000000E-03 0. -1.
    9000002    1    1    2    0    0  0.10762066805E+00 -0.11149339139E+00  0.42660285806E-01  0.95167057562E+00  0.93800000000E+00 0. -1.
         22    1    1    2    0    0 -0.40631651996E-01  0.28349329504E+00  0.27641332565E+01  0.27789300170E+01  0.00000000000E+00 0. -1.
</event>
<event>
 5    1  0.1560836E+002  0.1599316E+01  0.7818608E-02  0.3354106E+00
         11   -1    0    0    0    0  0.00000000000E+00  0.00000000000E+00  0.39999999674E+01  0.40000000000E+01  0.51100000000E-03 0. -1.
    9000002   -1    0    0    0    0 -0.00000000000E+00 -0.00000000000E+00  0.00000000000E+00  0.93800000000E+00  0.93800000000E+00 0.  1.
         11    1    1    2    0    0  0.40291911373E-02 -0.72574278814E-02  0.26792886599E+00  0.26805790977E+00  0.51100000000E-03 0. -1.
    9000002    1    1    2    0    0 -0.10188270040E+00  0.27083720574E+00  0.56085979347E-01  0.98322048073E+00  0.93800000000E+00 0.  1.
         22    1    1    2    0    0  0.97853509264E-01 -0.26357977786E+00  0.36759851220E+01  0.36867216095E+01  0.00000000000E+00 0. -1.
</event>
<event>
 5    1  0.1560836E+002  0.1599677E+01  0.7818608E-02  0.3353714E+00
         11   -1    0    0    0    0  0.00000000000E+00  0.00000000000E+00  0.39999999674E+01  0.40000000000E+01  0.51100000000E-03 0.  1.
    9000002   -1    0    0    0    0 -0.00000000000E+00 -0.00000000000E+00  0.00000000000E+00  0.93800000000E+00  0.93800000000E+00 0. -1.
         11    1    1    2    0    0 -0.68000405239E-02 -0.68909499518E-01  0.10059708302E+01  0.10083512939E+01  0.51100000000E-03 0. -1.
    9000002    1    1    2    0    0  0.26090142757E-01  0.27024689793E+00  0.49051997572E-01  0.97773420716E+00  0.93800000000E+00 0. -1.
         22    1    1    2    0    0 -0.19290102233E-01 -0.20133739841E+00  0.29449771396E+01  0.29519144989E+01  0.00000000000E+00 0.  1.
</event>
<event>
 5    1  0.1560836E+002  0.1598747E+01  0.7818608E-02  0.3354724E+00
         11   -1    0    0    0    0  0.00000000000E+00  0.00000000000E+00  0.39999999674E+01  0.40000000000E+01  0.51100000000E-03 0. -1.
    9000002   -1    0    0    0    0 -0.00000000000E+00 -0.00000000000E+00  0.00000000000E+00  0.93800000000E+00  0.93800000000E+00 0.  1.
         11    1    1    2    0    0  0.16431185215E+00 -0.70541038020E-01  0.18174634075E+01  0.18262387361E+01  0.51100000000E-03 0. -1.
    9000002    1    1    2    0    0 -0.42709663073E+00  0.15317241886E+00  0.14070922498E+00  0.10514354036E+01  0.93800000000E+00 0.  1.
         22    1    1    2    0    0  0.26278477858E+00 -0.82631380838E-01  0.20418273349E+01  0.20603258603E+01  0.00000000000E+00 0.  1.
</event>
<event>
 5    1  0.1560836E+002  0.1598981E+01  0.7818608E-02  0.3354470E+00
         11   -1    0    0    0    0  0.00000000000E+00  0.00000000000E+00  0.39999999674E+01  0.40000000000E+01  0.51100000000E-03 0. -1.
    9000002   -1    0    0    0    0 -0.00000000000E+00 -0.00000000000E+00  0.00000000000E+00  0.93800000000E+00  0.93800000000E+00 0. -1.
         11    1    1    2    0    0 -0.85792430478E-03 -0.11293238495E-01  0.52332593357E-01  0.53546565887E-01  0.51100000000E-03 0. -1.
    9000002    1    1    2    0    0 -0.10654072645E+00  0.32360815582E+00  0.78307141618E-01  0.10010240623E+01  0.93800000000E+00 0. -1.
         22    1    1    2    0    0  0.10739865076E+00 -0.31231491733E+00  0.38693602324E+01  0.38834293718E+01  0.00000000000E+00 0. -1.
</event>
<event>
 5    1  0.1560836E+002  0.1591321E+01  0.7818608E-02  0.3362838E+00
         11   -1    0    0    0    0  0.00000000000E+00  0.00000000000E+00  0.39999999674E+01  0.40000000000E+01  0.51100000000E-03 0. -1.
    9000002   -1    0    0    0    0 -0.00000000000E+00 -0.00000000000E+00  0.00000000000E+00  0.93800000000E+00  0.93800000000E+00 0.  1.
         11    1    1    2    0    0  0.29330302869E-02  0.11046608256E-01  0.91302424046E-02  0.14637372305E-01  0.51100000000E-03 0. -1.
    9000002    1    1    2    0    0 -0.77977917923E-01  0.22096298443E+00  0.42801451556E-01  0.96777123352E+00  0.93800000000E+00 0.  1.
         22    1    1    2    0    0  0.75044887636E-01 -0.23200959268E+00  0.39480682734E+01  0.39555913942E+01  0.00000000000E+00 0. -1.
</event>
<event>
 5    1  0.1560836E+002  0.1455304E+01  0.7818608E-02  0.3527123E+00
         11   -1    0    0    0    0  0.00000000000E+00  0.00000000000E+00  0.39999999674E+01  0.40000000000E+01  0.51100000000E-03 0. -1.
    9000002   -1    0    0    0    0 -0.00000000000E+00 -0.00000000000E+00  0.00000000000E+00  0.93800000000E+00  0.93800000000E+00 0. -1.
         11    1    1    2    0    0  0.34686007376E+00  0.28127712472E+00  0.31001813184E+01  0.31321802630E+01  0.51100000000E-03 0. -1.
    9000002    1    1    2    0    0 -0.15847509375E+00  0.18719671113E-01  0.13247511806E+00  0.96065521303E+00  0.93800000000E+00 0. -1.
         22    1    1    2    0    0 -0.18838498001E+00 -0.29999679583E+00  0.76734353086E+00  0.84516452395E+00  0.00000000000E+00 0. -1.
</event>
<event>
 5    1  0.1560836E+002  0.1599646E+01  0.7818608E-02  0.3353748E+00
         11   -1    0    0    0    0  0.00000000000E+00  0.00000000000E+00  0.39999999674E+01  0.40000000000E+01  0.51100000000E-03 0.  1.
    9000002   -1    0    0    0    0 -0.00000000000E+00 -0.00000000000E+00  0.00000000000E+00  0.93800000000E+00  0.93800000000E+00 0. -1.
         11    1    1    2    0    0  0.97368973255E-01  0.35112196109E-01  0.12815371730E+01  0.12857104534E+01  0.51100000000E-03 0.  1.
    9000002    1    1    2    0    0 -0.30872752569E+00 -0.12379393344E+00  0.74070278498E-01  0.99798197841E+00  0.93800000000E+00 0. -1.
         22    1    1    2    0    0  0.21135855243E+00  0.88681737328E-01  0.26443925159E+01  0.26543075682E+01  0.00000000000E+00 0.  1.
</event>
<event>
 5    1  0.1560836E+002  0.1599676E+01  0.7818608E-02  0.3353715E+00
         11   -1    0    0    0    0  0.00000000000E+00  0.00000000000E+00  0.39999999674E+01  0.40000000000E+01  0.51100000000E-03 0. -1.
    9000002   -1    0    0    0    0 -0.00000000000E+00 -0.00000000000E+00  0.00000000000E+00  0.93800000000E+00  0.93800000000E+00 0. -1.
         11    1    1    2    0    0  0.51443279025E-02 -0.17506378139E+00  0.83773958623E+00  0.85585142819E+00  0.51100000000E-03 0. -1.
    9000002    1    1    2    0    0 -0.22005327037E-01  0.74785054925E+00  0.40556925849E+00  0.12665287608E+01  0.93800000000E+00 0. -1.
         22    1    1    2    0    0  0.16860999135E-01 -0.57278676786E+00  0.27566911226E+01  0.28156198110E+01  0.00000000000E+00 0. -1.
</event>
<event>
 5    1  0.1560836E+002  0.1568280E+01  0.7818608E-02  0.3388527E+00
         11   -1    0    0    0    0  0.00000000000E+00  0.00000000000E+00  0.39999999674E+01  0.40000000000E+01  0.51100000000E-03 0. -1.
    9000002   -1    0    0    0    0 -0.00000000000E+00 -0.00000000000E+00  0.00000000000E+00  0.93800000000E+00  0.93800000000E+00 0.  1.
         11    1    1    2    0    0  0.12757610614E+00 -0.65896281347E-01  0.17464661261E+01  0.17523590310E+01  0.51100000000E-03 0. -1.
    9000002    1    1    2    0    0  0.12783082785E+00 -0.88574908436E-01  0.39550291612E-01  0.95162726974E+00  0.93800000000E+00 0.  1.
         22    1    1    2    0    0 -0.25540693399E+00  0.15447118978E+00  0.22139835497E+01  0.22340136993E+01  0.00000000000E+00 0. -1.
</event>
<event>
 5    1  0.1560836E+002  0.1597344E+01  0.7818608E-02  0.3356251E+00
         11   -1    0    0    0    0  0.00000000000E+00  0.00000000000E+00  0.39999999674E+01  0.40000000000E+01  0.51100000000E-03 0.  1.
    9000002   -1    0    0    0    0 -0.00000000000E+00 -0.00000000000E+00  0.00000000000E+00  0.93800000000E+00  0.93800000000E+00 0.  1.
         11    1    1    2    0    0 -0.37773099239E-01  0.73105932575E-02  0.71383776409E+00  0.71487402132E+00  0.51100000000E-03 0.  1.
    9000002    1    1    2    0    0  0.26765826998E-01 -0.20801613143E+00  0.30893953885E-01  0.96165771292E+00  0.93800000000E+00 0.  1.
         22    1    1    2    0    0  0.11007272241E-01  0.20070553817E+00  0.32552682494E+01  0.32614682658E+01  0.00000000000E+00 0.  1.
</event>
<event>
 5    1  0.1560836E+002  0.1599677E+01  0.7818608E-02  0.3353714E+00
         11   -1    0    0    0    0  0.00000000000E+00  0.00000000000E+00  0.39999999674E+01  0.40000000000E+01  0.51100000000E-03 0.  1.
    9000002   -1    0    0    0    0 -0.00000000000E+00 -0.00000000000E+00  0.00000000000E+00  0.93800000000E+00  0.93800000000E+00 0. -1.
         11    1    1    2    0    0  0.13796600157E+00  0.30170153197E-01  0.14594021229E+01  0.14662195174E+01  0.51100000000E-03 0.  1.
    9000002    1    1    2    0    0 -0.36866243752E+00 -0.80665115036E-01  0.95794937384E-01  0.10155981113E+01  0.93800000000E+00 0. -1.
         22    1    1    2    0    0  0.23069643595E+00  0.50494961839E-01  0.24448029070E+01  0.24561823713E+01  0.00000000000E+00 0.  1.
</event>
<event>
 5    1  0.1560836E+002  0.1599671E+01  0.7818608E-02  0.3353721E+00
         11   -1    0    0    0    0  0.00000000000E+00  0.00000000000E+00  0.39999999674E+01  0.40000000000E+01  0.51100000000E-03 0. -1.
    9000002   -1    0    0    0    0 -0.00000000000E+00 -0.00000000000E+00  0.00000000000E+00  0.93800000000E+00  0.93800000000E+00 0. -1.
         11    1    1    2    0    0  0.34757149935E-02 -0.48737245172E-02  0.51651966161E-01  0.52000197257E-01  0.51100000000E-03 0.  1.
    9000002    1    1    2    0    0 -0.29157064681E+00  0.34734868700E+00  0.13976207293E+00  0.10512097742E+01  0.93800000000E+00 0. -1.
         22    1    1    2    0    0  0.28809493182E+00 -0.34247496248E+00  0.38085859283E+01  0.38347900285E+01  0.00000000000E+00 0. -1.
</event>
<event>
 5    1  0.1560836E+002  0.1589393E+01  0.7818608E-02  0.3364957E+00
         11   -1    0    0    0    0  0.00000000000E+00  0.00000000000E+00  0.39999999674E+01  0.40000000000E+01  0.51100000000E-03 0.  1.
    9000002   -1    0    0    0    0 -0.00000000000E+00 -0.00000000000E+00  0.00000000000E+00  0.93800000000E+00  0.93800000000E+00 0. -1.
         11    1    1    2    0    0  0.29651832485E-01 -0.19021724377E-01  0.11743045404E+00  0.12260191608E+00  0.51100000000E-03 0.  1.
    9000002    1    1    2    0    0  0.18676731793E+00 -0.11073434954E+00  0.39039148086E-01  0.96359336979E+00  0.93800000000E+00 0. -1.
         22    1    1    2    0    0 -0.21641915042E+00  0.12975607392E+00  0.38435303652E+01  0.38518047141E+01  0.00000000000E+00 0.  1.
</event>
<event>
 5    1  0.1560836E+002  0.1589833E+01  0.7818608E-02  0.3364473E+00
         11   -1    0    0    0    0  0.00000000000E+00  0.00000000000E+00  0.39999999674E+01  0.40000000000E+01  0.51100000000E-03 0. -1.
    9000002   -1    0    0    0    0 -0.00000000000E+00 -0.00000000000E+00  0.00000000000E+00  0.93800000000E+00  0.93800000000E+00 0.  1.
         11    1    1    2    0    0 -0.51624692846E-01 -0.27989144296E-01  0.18527238339E+01  0.18536543278E+01  0.51100000000E-03 0. -1.
    9000002    1    1    2    0    0 -0.12545762327E+00  0.15710582277E+00  0.34178262594E-01  0.95991354216E+00  0.93800000000E+00 0.  1.
         22    1    1    2    0    0  0.17708231612E+00 -0.12911667847E+00  0.21130978708E+01  0.21244321300E+01  0.00000000000E+00 0. -1.
</event>
<event>
 5    1  0.1560836E+002  0.1599676E+01  0.7818608E-02  0.3353716E+00
         11   -1    0    0    0    0  0.00000000000E+00  0.00000000000E+00  0.39999999674E+01  0.40000000000E+01  0.51100000000E-03 0. -1.
    9000002   -1    0    0    0    0 -0.00000000000E+00 -0.00000000000E+00  0.00000000000E+00  0.93800000000E+00  0.93800000000E+00 0.  1.
         11    1    1    2    0    0 -0.19942517812E+00  0.19336520482E+00  0.18887011776E+01  0.19090188326E+01  0.51100000000E-03 0. -1.
    9000002    1    1    2    0    0  0.40134386226E+00 -0.38957380007E+00  0.21647058800E+00  0.11133499706E+01  0.93800000000E+00 0.  1.
         22    1    1    2    0    0 -0.20191868414E+00  0.19620859526E+00  0.18948282018E+01  0.19156311968E+01  0.00000000000E+00 0.  1.
</event>
<event>
 5    1  0.1560836E+002  0.1598632E+01  0.7818608E-02  0.3354849E+00
         11   -1    0    0    0    0  0.00000000000E+00  0.00000000000E+00  0.39999999674E+01  0.40000000000E+01  0.51100000000E-03 0.  1.
    9000002   -1    0    0    0    0 -0.00000000000E+00 -0.00000000000E+00  0.00000000000E+00  0.93800000000E+00  0.93800000000E+00 0. -1.
         11    1    1    2    0    0  0.13063995270E+00 -0.12185908133E+00  0.14511288175E+01  0.14620846552E+01  0.51100000000E-03 0.  1.
    9000002    1    1    2    0    0 -0.24916395494E+00  0.31988981787E+00  0.11185120113E+00  0.10279916650E+01  0.93800000000E+00 0. -1.
         22    1    1    2    0    0  0.11852400224E+00 -0.19803073655E+00  0.24370199488E+01  0.24479236799E+01  0.00000000000E+00 0.  1.
</event>
<event>
 5    1  0.1560836E+002  0.1535317E+01  0.7818608E-02  0.3426706E+00
         11   -1    0    0    0    0  0.00000000000E+00  0.00000000000E+00  0.39999999674E+01  0.40000000000E+01  0.51100000000E-03 0.  1.
    9000002   -1    0    0    0    0 -0.00000000000E+00 -0.00000000000E+00  0.00000000000E+00  0.93800000000E+00  0.93800000000E+00 0.  1.
         11    1    1    2    0    0  0.31818163502E+00 -0.87353610227E-01  0.19941818071E+01  0.20212945225E+01  0.51100000000E-03 0.  1.
    9000002    1    1    2    0    0 -0.27912568733E-01  0.11969077514E+00  0.58734862694E-01  0.94783900386E+00  0.93800000000E+00 0.  1.
         22    1    1    2    0    0 -0.29026906629E+00 -0.32337164912E-01  0.19470832976E+01  0.19688664736E+01  0.00000000000E+00 0.  1.
</event>
<event>
 5    1  0.1560836E+002  0.1598994E+01  0.7818608E-02  0.3354456E+00
         11   -1    0    0    0    0  0.00000000000E+00  0.00000000000E+00  0.39999999674E+01  0.40000000000E+01  0.51100000000E-03 0.  1.
    9000002   -1    0    0    0    0 -0.00000000000E+00 -0.00000000000E+00  0.00000000000E+00  0.93800000000E+00  0.93800000000E+00 0.  1.
         11    1    1    2    0    0 -0.91236543644E-02 -0.18667762487E+00  0.17594117752E+01  0.17693111180E+01  0.51100000000E-03 0.  1.
    9000002    1    1    2    0    0  0.10779955480E-01  0.47626702828E+00  0.15536372285E+00  0.10634511630E+01  0.93800000000E+00 0.  1.
         22    1    1    2    0    0 -0.16563011154E-02 -0.28958940340E+00  0.20852244693E+01  0.21052377190E+01  0.00000000000E+00 0.  1.
</event>
<event>
 5    1  0.1560836E+002  0.1598379E+01  0.7818608E-02  0.3355124E+00
         11   -1    0    0    0    0  0.00000000000E+00  0.00000000000E+00  0.39999999674E+01  0.40000000000E+01  0.51100000000E-03 0. -1.
    9000002   -1    0    0    0    0 -0.00000000000E+00 -0.00000000000E+00  0.00000000000E+00  0.93800000000E+00  0.93800000000E+00 0.  1.
         11    1    1    2    0    0  0.12876849362E-01  0.50012089962E-01  0.10765998071E+01  0.10778378488E+01  0.51100000000E-03 0. -1.
    9000002    1    1    2    0    0 -0.11314649104E+00 -0.30741773979E+00  0.72811484902E-01  0.99621950769E+00  0.93800000000E+00 0.  1.
         22    1    1    2    0    0  0.10026964168E+00  0.25740564983E+00  0.28505886753E+01  0.28639426435E+01  0.00000000000E+00 0. -1.
</event>
<event>
 5    1  0.1560836E+002  0.1599639E+01  0.7818608E-02  0.3353756E+00
         11   -1    0    0    0    0  0.00000000000E+00  0.00000000000E+00  0.39999999674E+01  0.40000000000E+01  0.51100000000E-03 0.  1.
    9000002   -1    0    0    0    0 -0.00000000000E+00 -0.00000000000E+00  0.00000000000E+00  0.93800000000E+00  0.93800000000E+00 0.  1.
         11    1    1    2    0    0  0.13321923073E-01  0.30782434082E-01  0.47947445196E+00  0.48064648452E+00  0.51100000000E-03 0.  1.
    9000002    1    1    2    0    0 -0.70076107916E-01 -0.25774070816E+00  0.47484896665E-01  0.97644239408E+00  0.93800000000E+00 0.  1.
         22    1    1    2    0    0  0.56754184843E-01  0.22695827408E+00  0.34730406187E+01  0.34809111214E+01  0.00000000000E+00 0.  1.
</event>
<event>
 5    1  0.1560836E+002  0.1599203E+01  0.7818608E-02  0.3354229E+00
         11   -1    0    0    0    0  0.00000000000E+00  0.00000000000E+00  0.39999999674E+01  0.40000000000E+01  0.51100000000E-03 0. -1.
    9000002   -1    0    0    0    0 -0.00000000000E+00 -0.00000000000E+00  0.00000000000E+00  0.93800000000E+00  0.93800000000E+00 0. -1.
         11    1    1    2    0    0  0.20965691028E-02 -0.41593168853E-02  0.90513453029E-01  0.90634661246E-01  0.51100000000E-03 0. -1.
    9000002    1    1    2    0    0  0.23439119132E+00  0.79691425665E-01  0.41068461771E-01  0.97098948112E+00  0.93800000000E+00 0. -1.
         22    1    1    2    0    0 -0.23648776042E+00 -0.75532108779E-01  0.38684180526E+01  0.38763758576E+01  0.00000000000E+00 0. -1.
</event>
<event>
 5    1  0.1560836E+002  0.1599544E+01  0.7818608E-02  0.3353858E+00
         11   -1    0    0    0    0  0.00000000000E+00  0.00000000000E+00  0.39999999674E+01  0.40000000000E+01  0.51100000000E-03 0. -1.
    9000002   -1    0    0    0    0 -0.00000000000E+00 -0.00000000000E+00  0.00000000000E+00  0.93800000000E+00  0.93800000000E+00 0. -1.
         11    1    1    2    0    0  0.61574522693E-01  0.30862294495E-01  0.10936829380E+01  0.10958496855E+01  0.51100000000E-03 0. -1.
    9000002    1    1    2    0    0 -0.25397866733E+00 -0.14269137430E+00  0.56673408456E-01  0.98383020231E+00  0.93800000000E+00 0. -1.
         22    1    1    2    0    0  0.19240414464E+00  0.11182907981E+00  0.28496436209E+01  0.28583201122E+01  0.00000000000E+00 0. -1.
</event>
<event>
 5    1  0.1560836E+002  0.1558109E+01  0.7818608E-02  0.3400124E+00
         11   -1    0    0    0    0  0.00000000000E+00  0.00000000000E+00  0.39999999674E+01  0.40000000000E+01  0.51100000000E-03 0. -1.
    9000002   -1    0    0    0    0 -0.00000000000E+00 -0.00000000000E+00  0.00000000000E+00  0.93800000000E+00  0.93800000000E+00 0. -1.
         11    1    1    2    0    0 -0.72597453566E-01 -0.25747986701E+00  0.18163129953E+01  0.18359083393E+01  0.51100000000E-03 0. -1.
    9000002    1    1    2    0    0 -0.11439130024E+00  0.10313624171E+00  0.47031974202E-01  0.95172394134E+00  0.93800000000E+00 0. -1.
         22    1    1    2    0    0  0.18698875381E+00  0.15434362530E+00  0.21366549979E+01  0.21503677194E+01  0.00000000000E+00 0. -1.
</event>
<event>
 5    1  0.1560836E+002  0.1599677E+01  0.7818608E-02  0.3353714E+00
         11   -1    0    0    0    0  0.00000000000E+00  0.00000000000E+00  0.39999999674E+01  0.40000000000E+01  0.51100000000E-03 0. -1.
    9000002   -1    0    0    0    0 -0.00000000000E+00 -0.00000000000E+00  0.00000000000E+00  0.93800000000E+00  0.93800000000E+00 0. -1.
         11    1    1    2    0    0  0.51711739885E-01 -0.73106859192E-01  0.90034290747E+00  0.90478523919E+00  0.51100000000E-03 0. -1.
    9000002    1    1    2    0    0 -0.22299862757E+00  0.31493391344E+00  0.10026613144E+00  0.10192198266E+01  0.93800000000E+00 0. -1.
         22    1    1    2    0    0  0.17128688768E+00 -0.24182705425E+00  0.29993909285E+01  0.30139949343E+01  0.00000000000E+00 0. -1.
</event>
<event>
 5    1  0.1560836E+002  0.1599598E+01  0.7818608E-02  0.3353799E+00
         11   -1    0    0    0    0  0.00000000000E+00  0.00000000000E+00  0.39999999674E+01  0.40000000000E+01  0.51100000000E-03 0. -1.
    9000002   -1    0    0    0    0 -0.00000000000E+00 -0.00000000000E+00  0.00000000000E+00  0.93800000000E+00  0.93800000000E+00 0.  1.
         11    1    1    2    0    0 -0.22390848958E-01  0.62570634447E-01  0.86747577172E+00  0.87001776422E+00  0.51100000000E-03 0. -1.
    9000002    1    1    2    0    0  0.10692613201E+00 -0.24511260641E+00  0.47631884987E-01  0.97653785589E+00  0.93800000000E+00 0.  1.
         22    1    1    2    0    0 -0.84535283056E-01  0.18254197196E+00  0.30848923107E+01  0.30914443799E+01  0.00000000000E+00 0.  1.
</event>
<event>
 5    1  0.1560836E+002  0.1562032E+01  0.7818608E-02  0.3395632E+00
         11   -1    0    0    0    0  0.00000000000E+00  0.00000000000E+00  0.39999999674E+01  0.40000000000E+01  0.51100000000E-03 0.  1.
    9000002   -1    0    0    0    0 -0.00000000000E+00 -0.00000000000E+00  0.00000000000E+00  0.93800000000E+00  0.93800000000E+00 0.  1.
         11    1    1    2    0    0  0.88792043170E-01  0.14196273041E+00  0.97597371304E+00  0.99023350449E+00  0.51100000000E-03 0.  1.
    9000002    1    1    2    0    0  0.16421761610E+00  0.50547415206E-01  0.48007757625E-01  0.95481475241E+00  0.93800000000E+00 0.  1.
         22    1    1    2    0    0 -0.25300965927E+00 -0.19251014562E+00  0.29760184967E+01  0.29929517431E+01  0.00000000000E+00 0.  1.
</event>
<event>
 5    1  0.1560836E+002  0.1494141E+01  0.7818608E-02  0.3476933E+00
         11   -1    0    0    0    0  0.00000000000E+00  0.00000000000E+00  0.39999999674E+01  0.40000000000E+01  0.51100000000E-03 0.  1.
    9000002   -1    0    0    0    0 -0.00000000000E+00 -0.00000000000E+00  0.00000000000E+00  0.93800000000E+00  0.93800000000E+00 0.  1.
         11    1    1    2    0    0 -0.21657255946E+00 -0.44312578560E+00  0.10671200261E+01  0.11755890211E+01  0.51100000000E-03 0.  1.
    9000002    1    1    2    0    0  0.39396725330E+00  0.33578369383E+00  0.28796607738E+00  0.11093824171E+01  0.93800000000E+00 0.  1.
         22    1    1    2    0    0 -0.17739469384E+00  0.10734209177E+00  0.26449138639E+01  0.26530285618E+01  0.00000000000E+00 0.  1.
</event>
<event>
 5    1  0.1560836E+002  0.1599674E+01  0.7818608E-02  0.3353718E+00
         11   -1    0    0    0    0  0.00000000000E+00  0.00000000000E+00  0.39999999674E+01  0.40000000000E+01  0.51100000000E-03 0. -1.
    9000002   -1    0    0    0    0 -0.00000000000E+00 -0.00000000000E+00  0.00000000000E+00  0.93800000000E+00  0.93800000000E+00 0. -1.
         11    1    1    2    0    0  0.49714825404E-02 -0.20841644953E+00  0.19564871977E+01  0.19675630988E+01  0.51100000000E-03 0. -1.
    9000002    1    1    2    0    0 -0.64299133878E-02  0.41132927146E+00  0.11432342918E+00  0.10306051425E+01  0.93800000000E+00 0. -1.
         22    1    1    2    0    0  0.14584308474E-02 -0.20291282194E+00  0.19291893405E+01  0.19398317587E+01  0.00000000000E+00 0.  1.
</event>
<event>
 5    1  0.1560836E+002  0.1599615E+01  0.7818608E-02  0.3353781E+00
         11   -1    0    0    0    0  0.00000000000E+00  0.00000000000E+00  0.39999999674E+01  0.40000000000E+01  0.51100000000E-03 0. -1.
    9000002   -1    0    0    0    0 -0.00000000000E+00 -0.00000000000E+00  0.00000000000E+00  0.93800000000E+00  0.93800000000E+00 0. -1.
         11    1    1    2    0    0  0.92912739168E-01 -0.30452331247E-01  0.40713229717E+00  0.41870883690E+00  0.51100000000E-03 0. -1.
    9000002    1    1    2    0    0 -0.83366236498E+00  0.26114481779E+00  0.57782644800E+00  0.14060287901E+01  0.93800000000E+00 0. -1.
         22    1    1    2    0    0  0.74074962582E+00 -0.23069248655E+00  0.30150412222E+01  0.31132623730E+01  0.00000000000E+00 0. -1.
</event>
<event>
 5    1  0.1560836E+002  0.1598313E+01  0.7818608E-02  0.3355196E+00
         11   -1    0    0    0    0  0.00000000000E+00  0.00000000000E+00  0.39999999674E+01  0.40000000000E+01  0.51100000000E-03 0.  1.
    9000002   -1    0    0    0    0 -0.00000000000E+00 -0.00000000000E+00  0.00000000000E+00  0.93800000000E+00  0.93800000000E+00 0. -1.
         11    1    1    2    0    0  0.14977751020E-01 -0.23437497493E-01  0.26218933537E+00  0.26366106655E+00  0.51100000000E-03 0.  1.
    9000002    1    1    2    0    0 -0.21649025227E+00  0.20454896466E-01  0.32368285076E-01  0.96342002159E+00  0.93800000000E+00 0. -1.
         22    1    1    2    0    0  0.20151250125E+00  0.29826010263E-02  0.37054423469E+01  0.37109189119E+01  0.00000000000E+00 0.  1.
</event>
<event>
 5    1  0.1560836E+002  0.1599659E+01  0.7818608E-02  0.3353734E+00
         11   -1    0    0    0    0  0.00000000000E+00  0.00000000000E+00  0.39999999674E+01  0.40000000000E+01  0.51100000000E-03 0. -1.
    9000002   -1    0    0    0    0 -0.00000000000E+00 -0.00000000000E+00  0.00000000000E+00  0.93800000000E+00  0.93800000000E+00 0. -1.
         11    1    1    2    0    0 -0.30207964558E+00 -0.40089238178E+00  0.22062686498E+01  0.22626507530E+01  0.51100000000E-03 0. -1.
    9000002    1    1    2    0    0  0.48342108506E+00  0.63374182832E+00  0.46755460609E+00  0.13167292661E+01  0.93800000000E+00 0. -1.
         22    1    1    2    0    0 -0.18134143947E+00 -0.23284944654E+00  0.13261767115E+01  0.13586199809E+01  0.00000000000E+00 0. -1.
</event>
<event>
 5    1  0.1560836E+002  0.1599676E+01  0.7818608E-02  0.3353715E+00
         11   -1    0    0    0    0  0.00000000000E+00  0.00000000000E+00  0.39999999674E+01  0.40000000000E+01  0.51100000000E-03 0.  1.
    9000002   -1    0    0    0    0 -0.00000000000E+00 -0.00000000000E+00  0.00000000000E+00  0.93800000000E+00  0.93800000000E+00 0. -1.
         11    1    1    2    0    0 -0.10902500099E+00  0.35770552105E-01  0.94683318452E+00  0.95376062179E+00  0.51100000000E-03 0.  1.
    9000002    1    1    2    0    0  0.44687801129E+00 -0.14447605069E+00  0.15025699336E+00  0.10597143248E+01  0.93800000000E+00 0. -1.
         22    1    1    2    0    0 -0.33785301030E+00  0.10870549859E+00  0.29029097895E+01  0.29245250534E+01  0.00000000000E+00 0.  1.
</event>
<event>
 5    1  0.1560836E+002  0.1599079E+01  0.7818608E-02  0.3354364E+00
         11   -1    0    0    0    0  0.00000000000E+00  0.00000000000E+00  0.39999999674E+01  0.40000000000E+01  0.51100000000E-03 0. -1.
    9000002   -1    0    0    0    0 -0.00000000000E+00 -0.00000000000E+00  0.00000000000E+00  0.93800000000E+00  0.93800000000E+00 0.  1.
         11    1    1    2    0    0  0.13035714523E-01  0.14415421671E-01  0.17739687314E+00  0.17845908763E+00  0.51100000000E-03 0. -1.
    9000002    1    1    2    0    0 -0.21608103304E+00 -0.60571812815E-01  0.33844217434E-01  0.96506444780E+00  0.93800000000E+00 0.  1.
         22    1    1    2    0    0  0.20304531852E+00  0.46156391143E-01  0.37887588768E+01  0.37944764646E+01  0.00000000000E+00 0. -1.
</event>
