<event>
 5    1  0.4838219E+001  0.1516320E+01  0.7818608E-02  0.3449514E+00
         11   -1    0    0    0    0  0.00000000000E+00  0.00000000000E+00  0.39999999674E+01  0.40000000000E+01  0.51100000000E-03 0.  1.
    9000002   -1    0    0    0    0 -0.00000000000E+00 -0.00000000000E+00  0.00000000000E+00  0.93800000000E+00  0.93800000000E+00 0.  1.
         11    1    1    2    0    0  0.12362197095E+00 -0.25148516276E+00  0.71047810162E+00  0.76374509674E+00  0.51100000000E-03 0.  1.
    9000002    1    1    2    0    0  0.10044706861E+00  0.11438024453E+00  0.79597263353E-01  0.95359959011E+00  0.93800000000E+00 0.  1.
         22    1    1    2    0    0 -0.22406903956E+00  0.13710491824E+00  0.32099246024E+01  0.32206553131E+01  0.00000000000E+00 0.  1.
</event>
<event>
 5    1  0.4838219E+001  0.1588333E+01  0.7818608E-02  0.3366125E+00
         11   -1    0    0    0    0  0.00000000000E+00  0.00000000000E+00  0.39999999674E+01  0.40000000000E+01  0.51100000000E-03 0.  1.
    9000002   -1    0    0    0    0 -0.00000000000E+00 -0.00000000000E+00  0.00000000000E+00  0.93800000000E+00  0.93800000000E+00 0.  1.
         11    1    1    2    0    0 -0.31054316766E-01  0.86799587717E-01  0.13205092474E+01  0.13237233369E+01  0.51100000000E-03 0.  1.
    9000002    1    1    2    0    0 -0.19875355790E+00 -0.45437957086E-01  0.36086895683E-01  0.96057995438E+00  0.93800000000E+00 0.  1.
         22    1    1    2    0    0  0.22980787466E+00 -0.41361630631E-01  0.26434038243E+01  0.26536967088E+01  0.00000000000E+00 0.  1.
</event>
<event>
 5    1  0.4838219E+001  0.1592127E+01  0.7818608E-02  0.3361953E+00
         11   -1    0    0    0    0  0.00000000000E+00  0.00000000000E+00  0.39999999674E+01  0.40000000000E+01  0.51100000000E-03 0. -1.
    9000002   -1    0    0    0    0 -0.00000000000E+00 -0.00000000000E+00  0.00000000000E+00  0.93800000000E+00  0.93800000000E+00 0. -1.
         11    1    1    2    0    0 -0.13419332887E+00  0.11043205906E+00  0.17554902729E+01  0.17640718376E+01  0.51100000000E-03 0. -1.
    9000002    1    1    2    0    0  0.16797123663E+00 -0.43278926335E+00  0.15331807952E+00  0.10577671371E+01  0.93800000000E+00 0. -1.
         22    1    1    2    0    0 -0.33777907764E-01  0.32235720429E+00  0.20911916150E+01  0.21161610253E+01  0.00000000000E+00 0. -1.
</event>
<event>
 5    1  0.4838219E+001  0.1542641E+01  0.7818608E-02  0.3418073E+00
         11   -1    0    0    0    0  0.00000000000E+00  0.00000000000E+00  0.39999999674E+01  0.40000000000E+01  0.51100000000E-03 0. -1.
    9000002   -1    0    0    0    0 -0.00000000000E+00 -0.00000000000E+00  0.00000000000E+00  0.93800000000E+00  0.93800000000E+00 0. -1.
         11    1    1    2    0    0 -0.24650152914E+00 -0.22877500379E+00  0.18597384398E+01  0.18899016725E+01  0.51100000000E-03 0. -1.
    9000002    1    1    2    0    0  0.93747099267E-01  0.53511512308E-01  0.50602090378E-01  0.94554564783E+00  0.93800000000E+00 0. -1.
         22    1    1    2    0    0  0.15275442987E+00  0.17526349148E+00  0.20896594372E+01  0.21025526797E+01  0.00000000000E+00 0. -1.
</event>
<event>
 5    1  0.4861163E+001  0.1561617E+01  0.7818608E-02  0.3396106E+00
         11   -1    0    0    0    0  0.00000000000E+00  0.00000000000E+00  0.39999999674E+01  0.40000000000E+01  0.51100000000E-03 0. -1.
    9000002   -1    0    0    0    0 -0.00000000000E+00 -0.00000000000E+00  0.00000000000E+00  0.93800000000E+00  0.93800000000E+00 0. -1.
         11    1    1    2    0    0 -0.36281466462E-01  0.16605648689E+00  0.62686111352E+00  0.64949689638E+00  0.51100000000E-03 0. -1.
    9000002    1    1    2    0    0  0.99003510740E-01  0.31224630114E-01  0.35441546409E-01  0.94439227860E+00  0.93800000000E+00 0. -1.
         22    1    1    2    0    0 -0.62722044279E-01 -0.19728111701E+00  0.33376973074E+01  0.33441108250E+01  0.00000000000E+00 0. -1.
</event>
<event>
 5    1  0.4838219E+001  0.1448549E+01  0.7818608E-02  0.3536151E+00
         11   -1    0    0    0    0  0.00000000000E+00  0.00000000000E+00  0.39999999674E+01  0.40000000000E+01  0.51100000000E-03 0. -1.
    9000002   -1    0    0    0    0 -0.00000000000E+00 -0.00000000000E+00  0.00000000000E+00  0.93800000000E+00  0.93800000000E+00 0.  1.
         11    1    1    2    0    0 -0.48984061711E+00 -0.17524331901E+00  0.28519446434E+01  0.28990071682E+01  0.51100000000E-03 0. -1.
    9000002    1    1    2    0    0  0.13412177691E+00  0.56328592246E-01  0.13503821079E+00  0.95877050420E+00  0.93800000000E+00 0.  1.
         22    1    1    2    0    0  0.35571884020E+00  0.11891472676E+00  0.10130171132E+01  0.10802223276E+01  0.00000000000E+00 0.  1.
</event>
<event>
 5    1  0.4838219E+001  0.1556313E+01  0.7818608E-02  0.3402189E+00
         11   -1    0    0    0    0  0.00000000000E+00  0.00000000000E+00  0.39999999674E+01  0.40000000000E+01  0.51100000000E-03 0.  1.
    9000002   -1    0    0    0    0 -0.00000000000E+00 -0.00000000000E+00  0.00000000000E+00  0.93800000000E+00  0.93800000000E+00 0. -1.
         11    1    1    2    0    0 -0.11739590703E+00 -0.58600584411E-01  0.29354693578E+01  0.29384003198E+01  0.51100000000E-03 0.  1.
    9000002    1    1    2    0    0 -0.11163570122E+00 -0.45403855713E-01  0.42062743806E-01  0.94664529488E+00  0.93800000000E+00 0. -1.
         22    1    1    2    0    0  0.22903160825E+00  0.10400444012E+00  0.10224678657E+01  0.10529543853E+01  0.00000000000E+00 0.  1.
</event>
<event>
 5    1  0.4838219E+001  0.1587523E+01  0.7818608E-02  0.3367018E+00
         11   -1    0    0    0    0  0.00000000000E+00  0.00000000000E+00  0.39999999674E+01  0.40000000000E+01  0.51100000000E-03 0. -1.
    9000002   -1    0    0    0    0 -0.00000000000E+00 -0.00000000000E+00  0.00000000000E+00  0.93800000000E+00  0.93800000000E+00 0. -1.
         11    1    1    2    0    0  0.18929479631E-01  0.15370875484E+00  0.10427216631E+01  0.10541600611E+01  0.51100000000E-03 0. -1.
    9000002    1    1    2    0    0  0.31733366070E+00 -0.36838179788E+00  0.17236278055E+00  0.10704946190E+01  0.93800000000E+00 0. -1.
         22    1    1    2    0    0 -0.33626314033E+00  0.21467304304E+00  0.27849155237E+01  0.28133453199E+01  0.00000000000E+00 0. -1.
</event>
<event>
 5    1  0.4838219E+001  0.1506044E+01  0.7818608E-02  0.3462110E+00
         11   -1    0    0    0    0  0.00000000000E+00  0.00000000000E+00  0.39999999674E+01  0.40000000000E+01  0.51100000000E-03 0. -1.
    9000002   -1    0    0    0    0 -0.00000000000E+00 -0.00000000000E+00  0.00000000000E+00  0.93800000000E+00  0.93800000000E+00 0. -1.
         11    1    1    2    0    0  0.37738998214E+00 -0.80274816419E-01  0.17591463341E+01  0.18009617793E+01  0.51100000000E-03 0. -1.
    9000002    1    1    2    0    0 -0.95187119547E-01 -0.15411310585E+00  0.94987298402E-01  0.96004063663E+00  0.93800000000E+00 0. -1.
         22    1    1    2    0    0 -0.28220286260E+00  0.23438792227E+00  0.21458663349E+01  0.21769975840E+01  0.00000000000E+00 0. -1.
</event>
<event>
 5    1  0.4838219E+001  0.1463016E+01  0.7818608E-02  0.3516926E+00
         11   -1    0    0    0    0  0.00000000000E+00  0.00000000000E+00  0.39999999674E+01  0.40000000000E+01  0.51100000000E-03 0.  1.
    9000002   -1    0    0    0    0 -0.00000000000E+00 -0.00000000000E+00  0.00000000000E+00  0.93800000000E+00  0.93800000000E+00 0.  1.
         11    1    1    2    0    0 -0.45025777888E+00 -0.12768995067E+00  0.13493122386E+01  0.14281738583E+01  0.51100000000E-03 0.  1.
    9000002    1    1    2    0    0  0.92892781392E-01  0.12976693037E+00  0.12578444943E+00  0.95975739266E+00  0.93800000000E+00 0.  1.
         22    1    1    2    0    0  0.35736499749E+00 -0.20769796976E-02  0.25249032793E+01  0.25500687491E+01  0.00000000000E+00 0.  1.
</event>
<event>
 5    1  0.4838219E+001  0.1531758E+01  0.7818608E-02  0.3430933E+00
         11   -1    0    0    0    0  0.00000000000E+00  0.00000000000E+00  0.39999999674E+01  0.40000000000E+01  0.51100000000E-03 0. -1.
    9000002   -1    0    0    0    0 -0.00000000000E+00 -0.00000000000E+00  0.00000000000E+00  0.93800000000E+00  0.93800000000E+00 0.  1.
         11    1    1    2    0    0  0.29555600681E+00  0.24799995288E-01  0.28866651165E+01  0.29018621864E+01  0.51100000000E-03 0. -1.
    9000002    1    1    2    0    0 -0.30065082424E-01  0.39725757259E-01  0.52614368717E-01  0.94079451357E+00  0.93800000000E+00 0.  1.
         22    1    1    2    0    0 -0.26549092439E+00 -0.64525752547E-01  0.10607204821E+01  0.10953433000E+01  0.00000000000E+00 0. -1.
</event>
<event>
 5    1  0.4838219E+001  0.1590895E+01  0.7818608E-02  0.3363306E+00
         11   -1    0    0    0    0  0.00000000000E+00  0.00000000000E+00  0.39999999674E+01  0.40000000000E+01  0.51100000000E-03 0. -1.
    9000002   -1    0    0    0    0 -0.00000000000E+00 -0.00000000000E+00  0.00000000000E+00  0.93800000000E+00  0.93800000000E+00 0.  1.
         11    1    1    2    0    0 -0.65573223529E-01 -0.48007666821E+00  0.28756576470E+01  0.29161928295E+01  0.51100000000E-03 0. -1.
    9000002    1    1    2    0    0 -0.17418500310E-01  0.67572046916E+00  0.33409163879E+00  0.12034794471E+01  0.93800000000E+00 0.  1.
         22    1    1    2    0    0  0.82991723839E-01 -0.19564380095E+00  0.79025068161E+00  0.81832772339E+00  0.00000000000E+00 0.  1.
</event>
<event>
 5    1  0.4838219E+001  0.1559253E+01  0.7818608E-02  0.3398812E+00
         11   -1    0    0    0    0  0.00000000000E+00  0.00000000000E+00  0.39999999674E+01  0.40000000000E+01  0.51100000000E-03 0. -1.
    9000002   -1    0    0    0    0 -0.00000000000E+00 -0.00000000000E+00  0.00000000000E+00  0.93800000000E+00  0.93800000000E+00 0.  1.
         11    1    1    2    0    0  0.12749550216E-01 -0.23526442754E+00  0.95212576351E+00  0.98084434675E+00  0.51100000000E-03 0. -1.
    9000002    1    1    2    0    0  0.17372714403E+00  0.14231640956E+00  0.64660648677E-01  0.96667475424E+00  0.93800000000E+00 0.  1.
         22    1    1    2    0    0 -0.18647669425E+00  0.92948017976E-01  0.29832135552E+01  0.29904808990E+01  0.00000000000E+00 0. -1.
</event>
<event>
 5    1  0.4838219E+001  0.1564800E+01  0.7818608E-02  0.3392478E+00
         11   -1    0    0    0    0  0.00000000000E+00  0.00000000000E+00  0.39999999674E+01  0.40000000000E+01  0.51100000000E-03 0.  1.
    9000002   -1    0    0    0    0 -0.00000000000E+00 -0.00000000000E+00  0.00000000000E+00  0.93800000000E+00  0.93800000000E+00 0. -1.
         11    1    1    2    0    0  0.17139263059E-01  0.22391535831E+00  0.16790657907E+01  0.16940171287E+01  0.51100000000E-03 0.  1.
    9000002    1    1    2    0    0  0.56668682761E-01 -0.13498911637E-01  0.27992323890E-01  0.94022397886E+00  0.93800000000E+00 0. -1.
         22    1    1    2    0    0 -0.73807945820E-01 -0.21041644667E+00  0.22929418528E+01  0.23037588924E+01  0.00000000000E+00 0.  1.
</event>
<event>
 5    1  0.4838219E+001  0.1592059E+01  0.7818608E-02  0.3362028E+00
         11   -1    0    0    0    0  0.00000000000E+00  0.00000000000E+00  0.39999999674E+01  0.40000000000E+01  0.51100000000E-03 0. -1.
    9000002   -1    0    0    0    0 -0.00000000000E+00 -0.00000000000E+00  0.00000000000E+00  0.93800000000E+00  0.93800000000E+00 0. -1.
         11    1    1    2    0    0  0.63166330753E-01 -0.31190995945E-01  0.43142445600E+00  0.43713863468E+00  0.51100000000E-03 0. -1.
    9000002    1    1    2    0    0  0.22259492101E-01  0.26063386584E+00  0.51370375503E-01  0.97514532891E+00  0.93800000000E+00 0. -1.
         22    1    1    2    0    0 -0.85425822854E-01 -0.22944286990E+00  0.35172051359E+01  0.35257160364E+01  0.00000000000E+00 0. -1.
</event>
<event>
 5    1  0.4838219E+001  0.1568134E+01  0.7818608E-02  0.3388692E+00
         11   -1    0    0    0    0  0.00000000000E+00  0.00000000000E+00  0.39999999674E+01  0.40000000000E+01  0.51100000000E-03 0. -1.
    9000002   -1    0    0    0    0 -0.00000000000E+00 -0.00000000000E+00  0.00000000000E+00  0.93800000000E+00  0.93800000000E+00 0.  1.
         11    1    1    2    0    0 -0.12380729864E+00  0.64216556732E-01  0.42527591304E+00  0.44756214841E+00  0.51100000000E-03 0. -1.
    9000002    1    1    2    0    0 -0.32353450081E-01 -0.21002969068E+00  0.54051576491E-01  0.96328852875E+00  0.93800000000E+00 0.  1.
         22    1    1    2    0    0  0.15616074873E+00  0.14581313395E+00  0.35206724778E+01  0.35271493228E+01  0.00000000000E+00 0. -1.
</event>
<event>
 5    1  0.4838219E+001  0.1555948E+01  0.7818608E-02  0.3402609E+00
         11   -1    0    0    0    0  0.00000000000E+00  0.00000000000E+00  0.39999999674E+01  0.40000000000E+01  0.51100000000E-03 0. -1.
    9000002   -1    0    0    0    0 -0.00000000000E+00 -0.00000000000E+00  0.00000000000E+00  0.93800000000E+00  0.93800000000E+00 0.  1.
         11    1    1    2    0    0  0.23645039213E-01 -0.16069366477E+00  0.67076473740E+00  0.69015008211E+00  0.51100000000E-03 0. -1.
    9000002    1    1    2    0    0  0.12085167927E+00 -0.13875622447E+00  0.55728430052E-01  0.95750095359E+00  0.93800000000E+00 0.  1.
         22    1    1    2    0    0 -0.14449671849E+00  0.29944988924E+00  0.32735067999E+01  0.32903489643E+01  0.00000000000E+00 0. -1.
</event>
<event>
 5    1  0.4838219E+001  0.1467229E+01  0.7818608E-02  0.3511406E+00
         11   -1    0    0    0    0  0.00000000000E+00  0.00000000000E+00  0.39999999674E+01  0.40000000000E+01  0.51100000000E-03 0. -1.
    9000002   -1    0    0    0    0 -0.00000000000E+00 -0.00000000000E+00  0.00000000000E+00  0.93800000000E+00  0.93800000000E+00 0.  1.
         11    1    1    2    0    0  0.17158018428E+00  0.11176323935E-02  0.35280647762E+01  0.35322347508E+01  0.51100000000E-03 0. -1.
    9000002    1    1    2    0    0 -0.12632169009E+00 -0.27116805562E+00  0.17167750667E+00  0.99940304686E+00  0.93800000000E+00 0.  1.
         22    1    1    2    0    0 -0.45258494187E-01  0.27005042323E+00  0.30025768454E+00  0.40636220236E+00  0.00000000000E+00 0.  1.
</event>
<event>
 5    1  0.4838219E+001  0.1557212E+01  0.7818608E-02  0.3401155E+00
         11   -1    0    0    0    0  0.00000000000E+00  0.00000000000E+00  0.39999999674E+01  0.40000000000E+01  0.51100000000E-03 0. -1.
    9000002   -1    0    0    0    0 -0.00000000000E+00 -0.00000000000E+00  0.00000000000E+00  0.93800000000E+00  0.93800000000E+00 0.  1.
         11    1    1    2    0    0  0.22333005680E+00  0.34865658850E-01  0.25924059829E+01  0.26022415280E+01  0.51100000000E-03 0. -1.
    9000002    1    1    2    0    0  0.19560115363E-01 -0.62057503855E-01  0.34293964236E-01  0.94087927381E+00  0.93800000000E+00 0.  1.
         22    1    1    2    0    0 -0.24289017217E+00  0.27191845005E-01  0.13733000202E+01  0.13948791982E+01  0.00000000000E+00 0. -1.
</event>
<event>
 5    1  0.4838219E+001  0.1569374E+01  0.7818608E-02  0.3387289E+00
         11   -1    0    0    0    0  0.00000000000E+00  0.00000000000E+00  0.39999999674E+01  0.40000000000E+01  0.51100000000E-03 0. -1.
    9000002   -1    0    0    0    0 -0.00000000000E+00 -0.00000000000E+00  0.00000000000E+00  0.93800000000E+00  0.93800000000E+00 0. -1.
         11    1    1    2    0    0  0.68794780951E-03 -0.16549413048E+00  0.14397615082E+01  0.14492419543E+01  0.51100000000E-03 0. -1.
    9000002    1    1    2    0    0 -0.13015584765E+00 -0.84000129605E-01  0.38586257868E-01  0.95148802712E+00  0.93800000000E+00 0. -1.
         22    1    1    2    0    0  0.12946789984E+00  0.24949426009E+00  0.25216522013E+01  0.25372700185E+01  0.00000000000E+00 0. -1.
</event>
<event>
 5    1  0.4838219E+001  0.1536236E+01  0.7818608E-02  0.3425618E+00
         11   -1    0    0    0    0  0.00000000000E+00  0.00000000000E+00  0.39999999674E+01  0.40000000000E+01  0.51100000000E-03 0.  1.
    9000002   -1    0    0    0    0 -0.00000000000E+00 -0.00000000000E+00  0.00000000000E+00  0.93800000000E+00  0.93800000000E+00 0. -1.
         11    1    1    2    0    0 -0.14658644798E+00 -0.17865249246E+00  0.34001386234E+01  0.34079828667E+01  0.51100000000E-03 0.  1.
    9000002    1    1    2    0    0  0.54317150504E-01 -0.10177642833E-01  0.49542098695E-01  0.94093164300E+00  0.93800000000E+00 0. -1.
         22    1    1    2    0    0  0.92269297480E-01  0.18883013530E+00  0.55031924523E+00  0.58908549034E+00  0.00000000000E+00 0.  1.
</event>
<event>
 5    1  0.4838219E+001  0.1498037E+01  0.7818608E-02  0.3472053E+00
         11   -1    0    0    0    0  0.00000000000E+00  0.00000000000E+00  0.39999999674E+01  0.40000000000E+01  0.51100000000E-03 0. -1.
    9000002   -1    0    0    0    0 -0.00000000000E+00 -0.00000000000E+00  0.00000000000E+00  0.93800000000E+00  0.93800000000E+00 0.  1.
         11    1    1    2    0    0  0.37769784819E-01  0.49905981905E+00  0.10301738744E+01  0.11453146870E+01  0.51100000000E-03 0. -1.
    9000002    1    1    2    0    0  0.12186132371E+00 -0.67864689492E-01  0.18002823572E+00  0.96525124395E+00  0.93800000000E+00 0.  1.
         22    1    1    2    0    0 -0.15963110853E+00 -0.43119512955E+00  0.27897978572E+01  0.28274340690E+01  0.00000000000E+00 0. -1.
</event>
<event>
 5    1  0.4838219E+001  0.1553476E+01  0.7818608E-02  0.3405461E+00
         11   -1    0    0    0    0  0.00000000000E+00  0.00000000000E+00  0.39999999674E+01  0.40000000000E+01  0.51100000000E-03 0. -1.
    9000002   -1    0    0    0    0 -0.00000000000E+00 -0.00000000000E+00  0.00000000000E+00  0.93800000000E+00  0.93800000000E+00 0.  1.
         11    1    1    2    0    0 -0.50632604506E-01 -0.20868479589E+00  0.25066871418E+01  0.25158683774E+01  0.51100000000E-03 0. -1.
    9000002    1    1    2    0    0  0.19066835795E+00 -0.47736037809E-01  0.60986404252E-01  0.96031062346E+00  0.93800000000E+00 0.  1.
         22    1    1    2    0    0 -0.14003575344E+00  0.25642083370E+00  0.14323264213E+01  0.14618209991E+01  0.00000000000E+00 0.  1.
</event>
<event>
 5    1  0.4838219E+001  0.1576001E+01  0.7818608E-02  0.3379830E+00
         11   -1    0    0    0    0  0.00000000000E+00  0.00000000000E+00  0.39999999674E+01  0.40000000000E+01  0.51100000000E-03 0. -1.
    9000002   -1    0    0    0    0 -0.00000000000E+00 -0.00000000000E+00  0.00000000000E+00  0.93800000000E+00  0.93800000000E+00 0. -1.
         11    1    1    2    0    0 -0.90775880588E-01  0.12124042940E+00  0.12644600406E+01  0.12734987074E+01  0.51100000000E-03 0. -1.
    9000002    1    1    2    0    0 -0.12663038670E+00 -0.28551911056E-01  0.28711469919E-01  0.94737469618E+00  0.93800000000E+00 0. -1.
         22    1    1    2    0    0  0.21740626729E+00 -0.92688518340E-01  0.27068284568E+01  0.27171265964E+01  0.00000000000E+00 0. -1.
</event>
<event>
 5    1  0.4838219E+001  0.1556216E+01  0.7818608E-02  0.3402301E+00
         11   -1    0    0    0    0  0.00000000000E+00  0.00000000000E+00  0.39999999674E+01  0.40000000000E+01  0.51100000000E-03 0. -1.
    9000002   -1    0    0    0    0 -0.00000000000E+00 -0.00000000000E+00  0.00000000000E+00  0.93800000000E+00  0.93800000000E+00 0. -1.
         11    1    1    2    0    0 -0.11964503258E+00  0.19420311402E+00  0.12127402452E+01  0.12340052459E+01  0.51100000000E-03 0. -1.
    9000002    1    1    2    0    0 -0.82902352858E-01 -0.45001410993E-01  0.38258917000E-01  0.94350711276E+00  0.93800000000E+00 0. -1.
         22    1    1    2    0    0  0.20254738544E+00 -0.14920170303E+00  0.27490008051E+01  0.27604876414E+01  0.00000000000E+00 0. -1.
</event>
<event>
 5    1  0.4838219E+001  0.1538625E+01  0.7818608E-02  0.3422796E+00
         11   -1    0    0    0    0  0.00000000000E+00  0.00000000000E+00  0.39999999674E+01  0.40000000000E+01  0.51100000000E-03 0. -1.
    9000002   -1    0    0    0    0 -0.00000000000E+00 -0.00000000000E+00  0.00000000000E+00  0.93800000000E+00  0.93800000000E+00 0. -1.
         11    1    1    2    0    0  0.35558539149E+00 -0.95048173802E-01  0.20006922457E+01  0.20342676445E+01  0.51100000000E-03 0. -1.
    9000002    1    1    2    0    0 -0.13584197601E+00  0.30753006286E-01  0.59166370586E-01  0.95012812254E+00  0.93800000000E+00 0. -1.
         22    1    1    2    0    0 -0.21974341548E+00  0.64295167517E-01  0.19401413510E+01  0.19536042330E+01  0.00000000000E+00 0. -1.
</event>
<event>
 5    1  0.4838219E+001  0.1464210E+01  0.7818608E-02  0.3515359E+00
         11   -1    0    0    0    0  0.00000000000E+00  0.00000000000E+00  0.39999999674E+01  0.40000000000E+01  0.51100000000E-03 0.  1.
    9000002   -1    0    0    0    0 -0.00000000000E+00 -0.00000000000E+00  0.00000000000E+00  0.93800000000E+00  0.93800000000E+00 0. -1.
         11    1    1    2    0    0  0.10985364460E+00 -0.10419149856E+01  0.24754849664E+01  0.26880626370E+01  0.51100000000E-03 0.  1.
    9000002    1    1    2    0    0 -0.29402746408E+00  0.88762514699E+00  0.95807913205E+00  0.16346529217E+01  0.93800000000E+00 0. -1.
         22    1    1    2    0    0  0.18417381948E+00  0.15428983863E+00  0.56643586892E+00  0.61528444129E+00  0.00000000000E+00 0.  1.
</event>
<event>
 5    1  0.4838219E+001  0.1576459E+01  0.7818608E-02  0.3379317E+00
         11   -1    0    0    0    0  0.00000000000E+00  0.00000000000E+00  0.39999999674E+01  0.40000000000E+01  0.51100000000E-03 0.  1.
    9000002   -1    0    0    0    0 -0.00000000000E+00 -0.00000000000E+00  0.00000000000E+00  0.93800000000E+00  0.93800000000E+00 0. -1.
         11    1    1    2    0    0  0.91603572808E-01 -0.87024548236E-01  0.10489644206E+01  0.10565467824E+01  0.51100000000E-03 0.  1.
    9000002    1    1    2    0    0  0.14799886439E+00 -0.30951317414E-01  0.32438174128E-01  0.95066181319E+00  0.93800000000E+00 0. -1.
         22    1    1    2    0    0 -0.23960243719E+00  0.11797586565E+00  0.29185973726E+01  0.29307914045E+01  0.00000000000E+00 0.  1.
</event>
<event>
 5    1  0.4838219E+001  0.1529889E+01  0.7818608E-02  0.3433161E+00
         11   -1    0    0    0    0  0.00000000000E+00  0.00000000000E+00  0.39999999674E+01  0.40000000000E+01  0.51100000000E-03 0.  1.
    9000002   -1    0    0    0    0 -0.00000000000E+00 -0.00000000000E+00  0.00000000000E+00  0.93800000000E+00  0.93800000000E+00 0.  1.
         11    1    1    2    0    0  0.21294797812E+00  0.33221124458E-01  0.49480826813E+00  0.53970915114E+00  0.51100000000E-03 0.  1.
    9000002    1    1    2    0    0 -0.84826820923E-02 -0.25792273438E-01  0.52837492815E-01  0.93987924645E+00  0.93800000000E+00 0.  1.
         22    1    1    2    0    0 -0.20446529603E+00 -0.74288510198E-02  0.34523542064E+01  0.34584116024E+01  0.00000000000E+00 0.  1.
</event>
<event>
 5    1  0.4838219E+001  0.1575735E+01  0.7818608E-02  0.3380129E+00
         11   -1    0    0    0    0  0.00000000000E+00  0.00000000000E+00  0.39999999674E+01  0.40000000000E+01  0.51100000000E-03 0.  1.
    9000002   -1    0    0    0    0 -0.00000000000E+00 -0.00000000000E+00  0.00000000000E+00  0.93800000000E+00  0.93800000000E+00 0. -1.
         11    1    1    2    0    0  0.10471838893E+00 -0.71872070524E-01  0.75873327314E+00  0.76929056695E+00  0.51100000000E-03 0.  1.
    9000002    1    1    2    0    0  0.10117392745E+00 -0.31926046636E-01  0.25127113357E-01  0.94431499399E+00  0.93800000000E+00 0. -1.
         22    1    1    2    0    0 -0.20589231638E+00  0.10379811716E+00  0.32161395809E+01  0.32243944391E+01  0.00000000000E+00 0.  1.
</event>
<event>
 5    1  0.4838219E+001  0.1578542E+01  0.7818608E-02  0.3376988E+00
         11   -1    0    0    0    0  0.00000000000E+00  0.00000000000E+00  0.39999999674E+01  0.40000000000E+01  0.51100000000E-03 0.  1.
    9000002   -1    0    0    0    0 -0.00000000000E+00 -0.00000000000E+00  0.00000000000E+00  0.93800000000E+00  0.93800000000E+00 0. -1.
         11    1    1    2    0    0  0.12392702745E+00  0.32849679418E-01  0.21324464460E+01  0.21362970570E+01  0.51100000000E-03 0.  1.
    9000002    1    1    2    0    0  0.47246193567E-01  0.10738985428E+00  0.24720949174E-01  0.94563201561E+00  0.93800000000E+00 0. -1.
         22    1    1    2    0    0 -0.17117322102E+00 -0.14023953370E+00  0.18428325722E+01  0.18560709274E+01  0.00000000000E+00 0.  1.
</event>
<event>
 5    1  0.4838219E+001  0.1565281E+01  0.7818608E-02  0.3391931E+00
         11   -1    0    0    0    0  0.00000000000E+00  0.00000000000E+00  0.39999999674E+01  0.40000000000E+01  0.51100000000E-03 0.  1.
    9000002   -1    0    0    0    0 -0.00000000000E+00 -0.00000000000E+00  0.00000000000E+00  0.93800000000E+00  0.93800000000E+00 0.  1.
         11    1    1    2    0    0  0.43662636150E+00 -0.98294147225E-01  0.19583619267E+01  0.20088519149E+01  0.51100000000E-03 0.  1.
    9000002    1    1    2    0    0 -0.53236689832E+00 -0.11207124768E+00  0.23723099618E+00  0.11099986597E+01  0.93800000000E+00 0.  1.
         22    1    1    2    0    0  0.95740536819E-01  0.21036539490E+00  0.18044070445E+01  0.18191494254E+01  0.00000000000E+00 0.  1.
</event>
<event>
 5    1  0.6472920E+001  0.1567142E+01  0.7818608E-02  0.3389817E+00
         11   -1    0    0    0    0  0.00000000000E+00  0.00000000000E+00  0.39999999674E+01  0.40000000000E+01  0.51100000000E-03 0.  1.
    9000002   -1    0    0    0    0 -0.00000000000E+00 -0.00000000000E+00  0.00000000000E+00  0.93800000000E+00  0.93800000000E+00 0. -1.
         11    1    1    2    0    0 -0.95830087717E-01  0.16901844423E+00  0.25450086185E+01  0.25524144980E+01  0.51100000000E-03 0.  1.
    9000002    1    1    2    0    0  0.34980307880E-01  0.40710190157E-01  0.25885352278E-01  0.93989094739E+00  0.93800000000E+00 0. -1.
         22    1    1    2    0    0  0.60849779837E-01 -0.20972863438E+00  0.14291059966E+01  0.14456945546E+01  0.00000000000E+00 0.  1.
</event>
<event>
 5    1  0.4838219E+001  0.1573425E+01  0.7818608E-02  0.3382722E+00
         11   -1    0    0    0    0  0.00000000000E+00  0.00000000000E+00  0.39999999674E+01  0.40000000000E+01  0.51100000000E-03 0. -1.
    9000002   -1    0    0    0    0 -0.00000000000E+00 -0.00000000000E+00  0.00000000000E+00  0.93800000000E+00  0.93800000000E+00 0. -1.
         11    1    1    2    0    0 -0.15851468458E+00 -0.87457210717E-01  0.14137161044E+01  0.14252610827E+01  0.51100000000E-03 0. -1.
    9000002    1    1    2    0    0  0.46892066660E-01 -0.95513896590E-01  0.26902738116E-01  0.94439902990E+00  0.93800000000E+00 0. -1.
         22    1    1    2    0    0  0.11162261792E+00  0.18297110731E+00  0.25593811249E+01  0.25683398874E+01  0.00000000000E+00 0. -1.
</event>
<event>
 5    1  0.4838219E+001  0.1542628E+01  0.7818608E-02  0.3418089E+00
         11   -1    0    0    0    0  0.00000000000E+00  0.00000000000E+00  0.39999999674E+01  0.40000000000E+01  0.51100000000E-03 0.  1.
    9000002   -1    0    0    0    0 -0.00000000000E+00 -0.00000000000E+00  0.00000000000E+00  0.93800000000E+00  0.93800000000E+00 0. -1.
         11    1    1    2    0    0  0.25469300099E+00  0.84091713149E-01  0.11561554381E+01  0.11868595533E+01  0.51100000000E-03 0.  1.
    9000002    1    1    2    0    0 -0.10987070368E+00  0.18863551771E+00  0.75931842644E-01  0.96605619650E+00  0.93800000000E+00 0. -1.
         22    1    1    2    0    0 -0.14482229731E+00 -0.27272723086E+00  0.27679126866E+01  0.27850842502E+01  0.00000000000E+00 0.  1.
</event>
<event>
 5    1  0.4838219E+001  0.1593128E+01  0.7818608E-02  0.3360856E+00
         11   -1    0    0    0    0  0.00000000000E+00  0.00000000000E+00  0.39999999674E+01  0.40000000000E+01  0.51100000000E-03 0. -1.
    9000002   -1    0    0    0    0 -0.00000000000E+00 -0.00000000000E+00  0.00000000000E+00  0.93800000000E+00  0.93800000000E+00 0.  1.
         11    1    1    2    0    0 -0.18634596038E-01  0.40581394243E-01  0.12257658194E+01  0.12265790651E+01  0.51100000000E-03 0. -1.
    9000002    1    1    2    0    0  0.18675539751E+00  0.13093157313E+00  0.39477163367E-01  0.96613824154E+00  0.93800000000E+00 0.  1.
         22    1    1    2    0    0 -0.16812080147E+00 -0.17151296737E+00  0.27347569846E+01  0.27452826934E+01  0.00000000000E+00 0. -1.
</event>
<event>
 5    1  0.4838219E+001  0.1528832E+01  0.7818608E-02  0.3434424E+00
         11   -1    0    0    0    0  0.00000000000E+00  0.00000000000E+00  0.39999999674E+01  0.40000000000E+01  0.51100000000E-03 0.  1.
    9000002   -1    0    0    0    0 -0.00000000000E+00 -0.00000000000E+00  0.00000000000E+00  0.93800000000E+00  0.93800000000E+00 0. -1.
         11    1    1    2    0    0  0.35254259995E+00  0.94175678719E-01  0.13973379113E+01  0.14441983391E+01  0.51100000000E-03 0.  1.
    9000002    1    1    2    0    0 -0.16416631786E+00 -0.93559873082E-02  0.72326226469E-01  0.95504617556E+00  0.93800000000E+00 0. -1.
         22    1    1    2    0    0 -0.18837628209E+00 -0.84819691411E-01  0.25303358296E+01  0.25387554854E+01  0.00000000000E+00 0. -1.
</event>
<event>
 5    1  0.4838219E+001  0.1526153E+01  0.7818608E-02  0.3437633E+00
         11   -1    0    0    0    0  0.00000000000E+00  0.00000000000E+00  0.39999999674E+01  0.40000000000E+01  0.51100000000E-03 0.  1.
    9000002   -1    0    0    0    0 -0.00000000000E+00 -0.00000000000E+00  0.00000000000E+00  0.93800000000E+00  0.93800000000E+00 0. -1.
         11    1    1    2    0    0  0.46929632709E+00  0.85217231930E-01  0.23381638127E+01  0.23863175177E+01  0.51100000000E-03 0.  1.
    9000002    1    1    2    0    0 -0.26119391002E+00 -0.28893397339E-01  0.10473780874E+00  0.97973011366E+00  0.93800000000E+00 0. -1.
         22    1    1    2    0    0 -0.20810241707E+00 -0.56323834591E-01  0.15570983459E+01  0.15719523686E+01  0.00000000000E+00 0.  1.
</event>
<event>
 5    1  0.4838219E+001  0.1485542E+01  0.7818608E-02  0.3487801E+00
         11   -1    0    0    0    0  0.00000000000E+00  0.00000000000E+00  0.39999999674E+01  0.40000000000E+01  0.51100000000E-03 0. -1.
    9000002   -1    0    0    0    0 -0.00000000000E+00 -0.00000000000E+00  0.00000000000E+00  0.93800000000E+00  0.93800000000E+00 0. -1.
         11    1    1    2    0    0 -0.55615994104E+00  0.38521613558E-01  0.25964164746E+01  0.26555934489E+01  0.51100000000E-03 0. -1.
    9000002    1    1    2    0    0  0.26397644824E+00  0.12709546250E-01  0.14006582766E+00  0.98453417100E+00  0.93800000000E+00 0. -1.
         22    1    1    2    0    0  0.29218349280E+00 -0.51231159808E-01  0.12635176651E+01  0.12978723801E+01  0.00000000000E+00 0. -1.
</event>
<event>
 5    1  0.4838219E+001  0.1572201E+01  0.7818608E-02  0.3384099E+00
         11   -1    0    0    0    0  0.00000000000E+00  0.00000000000E+00  0.39999999674E+01  0.40000000000E+01  0.51100000000E-03 0. -1.
    9000002   -1    0    0    0    0 -0.00000000000E+00 -0.00000000000E+00  0.00000000000E+00  0.93800000000E+00  0.93800000000E+00 0.  1.
         11    1    1    2    0    0  0.89118226998E-01 -0.20595040582E+00  0.61977367526E+00  0.65914891922E+00  0.51100000000E-03 0. -1.
    9000002    1    1    2    0    0 -0.10396784921E+00  0.45783689961E+00  0.17467107838E+00  0.10633804239E+01  0.93800000000E+00 0.  1.
         22    1    1    2    0    0  0.14849622213E-01 -0.25188649378E+00  0.32055552137E+01  0.32154706569E+01  0.00000000000E+00 0. -1.
</event>
<event>
 5    1  0.4838219E+001  0.1534418E+01  0.7818608E-02  0.3427772E+00
         11   -1    0    0    0    0  0.00000000000E+00  0.00000000000E+00  0.39999999674E+01  0.40000000000E+01  0.51100000000E-03 0.  1.
    9000002   -1    0    0    0    0 -0.00000000000E+00 -0.00000000000E+00  0.00000000000E+00  0.93800000000E+00  0.93800000000E+00 0.  1.
         11    1    1    2    0    0  0.23714818155E+00  0.16919832695E+00  0.22824729024E+01  0.23009889494E+01  0.51100000000E-03 0.  1.
    9000002    1    1    2    0    0 -0.12442423178E-01  0.50630115079E-01  0.50715351820E-01  0.94081574676E+00  0.93800000000E+00 0.  1.
         22    1    1    2    0    0 -0.22470575837E+00 -0.21982844203E+00  0.16668117131E+01  0.16961953038E+01  0.00000000000E+00 0.  1.
</event>
<event>
 5    1  0.4838219E+001  0.1583499E+01  0.7818608E-02  0.3371470E+00
         11   -1    0    0    0    0  0.00000000000E+00  0.00000000000E+00  0.39999999674E+01  0.40000000000E+01  0.51100000000E-03 0.  1.
    9000002   -1    0    0    0    0 -0.00000000000E+00 -0.00000000000E+00  0.00000000000E+00  0.93800000000E+00  0.93800000000E+00 0.  1.
         11    1    1    2    0    0 -0.86733851061E-01  0.46664031347E-02  0.23272297982E+01  0.23288502165E+01  0.51100000000E-03 0.  1.
    9000002    1    1    2    0    0 -0.45591449097E-01  0.16177421979E+00  0.30766538398E-01  0.95343592250E+00  0.93800000000E+00 0.  1.
         22    1    1    2    0    0  0.13232530016E+00 -0.16644062292E+00  0.16420036307E+01  0.16557138610E+01  0.00000000000E+00 0.  1.
</event>
<event>
 5    1  0.4838219E+001  0.1567461E+01  0.7818608E-02  0.3389455E+00
         11   -1    0    0    0    0  0.00000000000E+00  0.00000000000E+00  0.39999999674E+01  0.40000000000E+01  0.51100000000E-03 0. -1.
    9000002   -1    0    0    0    0 -0.00000000000E+00 -0.00000000000E+00  0.00000000000E+00  0.93800000000E+00  0.93800000000E+00 0. -1.
         11    1    1    2    0    0  0.12393724650E+00  0.12697330310E+00  0.18321566260E+01  0.18407283407E+01  0.51100000000E-03 0. -1.
    9000002    1    1    2    0    0  0.19347790615E+00 -0.22278058942E+00  0.83646040798E-01  0.98686653167E+00  0.93800000000E+00 0. -1.
         22    1    1    2    0    0 -0.31741515265E+00  0.95807286321E-01  0.20841973006E+01  0.21104051277E+01  0.00000000000E+00 0. -1.
</event>
<event>
 5    1  0.4838219E+001  0.1595436E+01  0.7818608E-02  0.3358332E+00
         11   -1    0    0    0    0  0.00000000000E+00  0.00000000000E+00  0.39999999674E+01  0.40000000000E+01  0.51100000000E-03 0.  1.
    9000002   -1    0    0    0    0 -0.00000000000E+00 -0.00000000000E+00  0.00000000000E+00  0.93800000000E+00  0.93800000000E+00 0. -1.
         11    1    1    2    0    0 -0.36744256653E-01 -0.62099632983E-01  0.15668047523E+01  0.15684654596E+01  0.51100000000E-03 0.  1.
    9000002    1    1    2    0    0  0.20355178349E+00  0.31080408664E+00  0.96249041458E-01  0.10134793470E+01  0.93800000000E+00 0. -1.
         22    1    1    2    0    0 -0.16680752683E+00 -0.24870445366E+00  0.23369461736E+01  0.23560551934E+01  0.00000000000E+00 0. -1.
</event>
<event>
 5    1  0.4838219E+001  0.1529077E+01  0.7818608E-02  0.3434131E+00
         11   -1    0    0    0    0  0.00000000000E+00  0.00000000000E+00  0.39999999674E+01  0.40000000000E+01  0.51100000000E-03 0.  1.
    9000002   -1    0    0    0    0 -0.00000000000E+00 -0.00000000000E+00  0.00000000000E+00  0.93800000000E+00  0.93800000000E+00 0. -1.
         11    1    1    2    0    0  0.21366817984E+00  0.13345148542E+00  0.85151861673E+00  0.88800203029E+00  0.51100000000E-03 0.  1.
    9000002    1    1    2    0    0  0.34780844585E-01  0.51933557733E-01  0.55709334670E-01  0.94172943648E+00  0.93800000000E+00 0. -1.
         22    1    1    2    0    0 -0.24844902442E+00 -0.18538504316E+00  0.30927720160E+01  0.31082685332E+01  0.00000000000E+00 0.  1.
</event>
<event>
 5    1  0.4838219E+001  0.1508398E+01  0.7818608E-02  0.3459208E+00
         11   -1    0    0    0    0  0.00000000000E+00  0.00000000000E+00  0.39999999674E+01  0.40000000000E+01  0.51100000000E-03 0. -1.
    9000002   -1    0    0    0    0 -0.00000000000E+00 -0.00000000000E+00  0.00000000000E+00  0.93800000000E+00  0.93800000000E+00 0. -1.
         11    1    1    2    0    0  0.27449919875E+00 -0.14901005631E+00  0.11021141059E+01  0.11455171629E+01  0.51100000000E-03 0. -1.
    9000002    1    1    2    0    0 -0.37179623781E-01 -0.16141946108E+00  0.89127933349E-01  0.95667463400E+00  0.93800000000E+00 0. -1.
         22    1    1    2    0    0 -0.23731957497E+00  0.31042951739E+00  0.28087579281E+01  0.28358082031E+01  0.00000000000E+00 0. -1.
</event>
<event>
 5    1  0.4838219E+001  0.1523509E+01  0.7818608E-02  0.3440811E+00
         11   -1    0    0    0    0  0.00000000000E+00  0.00000000000E+00  0.39999999674E+01  0.40000000000E+01  0.51100000000E-03 0.  1.
    9000002   -1    0    0    0    0 -0.00000000000E+00 -0.00000000000E+00  0.00000000000E+00  0.93800000000E+00  0.93800000000E+00 0.  1.
         11    1    1    2    0    0 -0.16399534064E+00  0.26221935796E+00  0.96667686335E+00  0.10149472315E+01  0.51100000000E-03 0.  1.
    9000002    1    1    2    0    0  0.31090948681E+00  0.55000327518E-01  0.12937051138E+00  0.99813349519E+00  0.93800000000E+00 0.  1.
         22    1    1    2    0    0 -0.14691414617E+00 -0.31721968547E+00  0.29039525926E+01  0.29249192733E+01  0.00000000000E+00 0.  1.
</event>
<event>
 5    1  0.4838219E+001  0.1460441E+01  0.7818608E-02  0.3520318E+00
         11   -1    0    0    0    0  0.00000000000E+00  0.00000000000E+00  0.39999999674E+01  0.40000000000E+01  0.51100000000E-03 0.  1.
    9000002   -1    0    0    0    0 -0.00000000000E+00 -0.00000000000E+00  0.00000000000E+00  0.93800000000E+00  0.93800000000E+00 0. -1.
         11    1    1    2    0    0  0.33410345588E+00 -0.26716197825E+00  0.22980097767E+01  0.23374879330E+01  0.51100000000E-03 0.  1.
    9000002    1    1    2    0    0  0.92677383949E-01  0.97533739226E-01  0.12235091020E+00  0.95546620715E+00  0.93800000000E+00 0. -1.
         22    1    1    2    0    0 -0.42678083983E+00  0.16962823903E+00  0.15796392804E+01  0.16450458599E+01  0.00000000000E+00 0.  1.
</event>
<event>
 5    1  0.4838219E+001  0.1563212E+01  0.7818608E-02  0.3394286E+00
         11   -1    0    0    0    0  0.00000000000E+00  0.00000000000E+00  0.39999999674E+01  0.40000000000E+01  0.51100000000E-03 0.  1.
    9000002   -1    0    0    0    0 -0.00000000000E+00 -0.00000000000E+00  0.00000000000E+00  0.93800000000E+00  0.93800000000E+00 0.  1.
         11    1    1    2    0    0 -0.87361240321E-01  0.24730337894E+00  0.19257332123E+01  0.19435121851E+01  0.51100000000E-03 0.  1.
    9000002    1    1    2    0    0  0.80774190196E-01 -0.46759713399E-01  0.32819247328E-01  0.94320307654E+00  0.93800000000E+00 0.  1.
         22    1    1    2    0    0  0.65870501252E-02 -0.20054366554E+00  0.20414475078E+01  0.20512847384E+01  0.00000000000E+00 0.  1.
</event>
<event>
 5    1  0.4838219E+001  0.1542061E+01  0.7818608E-02  0.3418753E+00
         11   -1    0    0    0    0  0.00000000000E+00  0.00000000000E+00  0.39999999674E+01  0.40000000000E+01  0.51100000000E-03 0. -1.
    9000002   -1    0    0    0    0 -0.00000000000E+00 -0.00000000000E+00  0.00000000000E+00  0.93800000000E+00  0.93800000000E+00 0.  1.
         11    1    1    2    0    0  0.91887441467E-01 -0.34259092016E+00  0.26866975545E+01  0.27100103046E+01  0.51100000000E-03 0. -1.
    9000002    1    1    2    0    0  0.59329262279E-01  0.15883495718E+00  0.63043327506E-01  0.95528370976E+00  0.93800000000E+00 0.  1.
         22    1    1    2    0    0 -0.15121670375E+00  0.18375596298E+00  0.12502590853E+01  0.12727059856E+01  0.00000000000E+00 0. -1.
</event>
<event>
 5    1  0.4838219E+001  0.1571862E+01  0.7818608E-02  0.3384482E+00
         11   -1    0    0    0    0  0.00000000000E+00  0.00000000000E+00  0.39999999674E+01  0.40000000000E+01  0.51100000000E-03 0. -1.
    9000002   -1    0    0    0    0 -0.00000000000E+00 -0.00000000000E+00  0.00000000000E+00  0.93800000000E+00  0.93800000000E+00 0. -1.
         11    1    1    2    0    0  0.43709882700E-02 -0.21575191698E+00  0.52973816921E+00  0.57200593026E+00  0.51100000000E-03 0. -1.
    9000002    1    1    2    0    0 -0.19452700642E+00  0.52460844573E+00  0.24363095599E+00  0.11190419207E+01  0.93800000000E+00 0. -1.
         22    1    1    2    0    0  0.19015601815E+00 -0.30885652875E+00  0.32266308422E+01  0.32469521490E+01  0.00000000000E+00 0. -1.
</event>
<event>
 5    1  0.4838219E+001  0.1514822E+01  0.7818608E-02  0.3451339E+00
         11   -1    0    0    0    0  0.00000000000E+00  0.00000000000E+00  0.39999999674E+01  0.40000000000E+01  0.51100000000E-03 0. -1.
    9000002   -1    0    0    0    0 -0.00000000000E+00 -0.00000000000E+00  0.00000000000E+00  0.93800000000E+00  0.93800000000E+00 0. -1.
         11    1    1    2    0    0  0.29138873839E+00 -0.61101655194E-02  0.34542839446E+01  0.34665577396E+01  0.51100000000E-03 0. -1.
    9000002    1    1    2    0    0 -0.70820401587E-01 -0.40045504267E-01  0.68877729126E-01  0.94403777110E+00  0.93800000000E+00 0. -1.
         22    1    1    2    0    0 -0.22056833680E+00  0.46155669786E-01  0.47683829365E+00  0.52740448931E+00  0.00000000000E+00 0. -1.
</event>
<event>
 5    1  0.4838219E+001  0.1520433E+01  0.7818608E-02  0.3444525E+00
         11   -1    0    0    0    0  0.00000000000E+00  0.00000000000E+00  0.39999999674E+01  0.40000000000E+01  0.51100000000E-03 0. -1.
    9000002   -1    0    0    0    0 -0.00000000000E+00 -0.00000000000E+00  0.00000000000E+00  0.93800000000E+00  0.93800000000E+00 0. -1.
         11    1    1    2    0    0  0.80271145459E-01  0.71356823031E-01  0.29575667869E+01  0.29595163140E+01  0.51100000000E-03 0. -1.
    9000002    1    1    2    0    0  0.32474885495E-01  0.26621223485E+00  0.11161946905E+00  0.98195034398E+00  0.93800000000E+00 0. -1.
         22    1    1    2    0    0 -0.11274603095E+00 -0.33756905788E+00  0.93081371144E+00  0.99653334201E+00  0.00000000000E+00 0. -1.
</event>
<event>
 5    1  0.4838219E+001  0.1534805E+01  0.7818608E-02  0.3427312E+00
         11   -1    0    0    0    0  0.00000000000E+00  0.00000000000E+00  0.39999999674E+01  0.40000000000E+01  0.51100000000E-03 0. -1.
    9000002   -1    0    0    0    0 -0.00000000000E+00 -0.00000000000E+00  0.00000000000E+00  0.93800000000E+00  0.93800000000E+00 0. -1.
         11    1    1    2    0    0 -0.19439472285E+00 -0.12135655953E+00  0.69212464223E+00  0.72907715937E+00  0.51100000000E-03 0. -1.
    9000002    1    1    2    0    0 -0.39000306441E-01  0.26640743830E-02  0.49579002574E-01  0.94012243814E+00  0.93800000000E+00 0. -1.
         22    1    1    2    0    0  0.23339502930E+00  0.11869248515E+00  0.32582963226E+01  0.32688004025E+01  0.00000000000E+00 0. -1.
</event>
<event>
 5    1  0.4838219E+001  0.1556798E+01  0.7818608E-02  0.3401630E+00
         11   -1    0    0    0    0  0.00000000000E+00  0.00000000000E+00  0.39999999674E+01  0.40000000000E+01  0.51100000000E-03 0. -1.
    9000002   -1    0    0    0    0 -0.00000000000E+00 -0.00000000000E+00  0.00000000000E+00  0.93800000000E+00  0.93800000000E+00 0.  1.
         11    1    1    2    0    0  0.20241835855E+00  0.50662669932E-01  0.64458602409E+00  0.67751848800E+00  0.51100000000E-03 0. -1.
    9000002    1    1    2    0    0 -0.92784992921E-01 -0.39984142893E+00  0.15066690085E+00  0.10349042169E+01  0.93800000000E+00 0.  1.
         22    1    1    2    0    0 -0.10963336563E+00  0.34917875900E+00  0.32047470424E+01  0.32255772951E+01  0.00000000000E+00 0. -1.
</event>
<event>
 5    1  0.4838219E+001  0.1526914E+01  0.7818608E-02  0.3436720E+00
         11   -1    0    0    0    0  0.00000000000E+00  0.00000000000E+00  0.39999999674E+01  0.40000000000E+01  0.51100000000E-03 0.  1.
    9000002   -1    0    0    0    0 -0.00000000000E+00 -0.00000000000E+00  0.00000000000E+00  0.93800000000E+00  0.93800000000E+00 0.  1.
         11    1    1    2    0    0  0.41042940542E+00 -0.19611024053E+00  0.22513472131E+01  0.22968404512E+01  0.51100000000E-03 0.  1.
    9000002    1    1    2    0    0 -0.19303344052E+00  0.13862971695E+00  0.95003034248E-01  0.97229094622E+00  0.93800000000E+00 0.  1.
         22    1    1    2    0    0 -0.21739596490E+00  0.57480523575E-01  0.16536497200E+01  0.16688686026E+01  0.00000000000E+00 0.  1.
</event>
<event>
 5    1  0.4838219E+001  0.1531740E+01  0.7818608E-02  0.3430955E+00
         11   -1    0    0    0    0  0.00000000000E+00  0.00000000000E+00  0.39999999674E+01  0.40000000000E+01  0.51100000000E-03 0.  1.
    9000002   -1    0    0    0    0 -0.00000000000E+00 -0.00000000000E+00  0.00000000000E+00  0.93800000000E+00  0.93800000000E+00 0.  1.
         11    1    1    2    0    0  0.91128902848E-03 -0.24111325032E+00  0.27663008830E+01  0.27767890209E+01  0.51100000000E-03 0.  1.
    9000002    1    1    2    0    0 -0.26374694177E-01 -0.66373740641E-01  0.54475244257E-01  0.94229117059E+00  0.93800000000E+00 0.  1.
         22    1    1    2    0    0  0.25463405149E-01  0.30748699096E+00  0.11792238401E+01  0.12189198085E+01  0.00000000000E+00 0. -1.
</event>
<event>
 5    1  0.4838219E+001  0.1568751E+01  0.7818608E-02  0.3387994E+00
         11   -1    0    0    0    0  0.00000000000E+00  0.00000000000E+00  0.39999999674E+01  0.40000000000E+01  0.51100000000E-03 0. -1.
    9000002   -1    0    0    0    0 -0.00000000000E+00 -0.00000000000E+00  0.00000000000E+00  0.93800000000E+00  0.93800000000E+00 0. -1.
         11    1    1    2    0    0 -0.16271157497E+00  0.71607725922E-01  0.14907988037E+01  0.15013607353E+01  0.51100000000E-03 0. -1.
    9000002    1    1    2    0    0 -0.94074106484E-01 -0.50250439557E-01  0.30453829489E-01  0.94453506018E+00  0.93800000000E+00 0. -1.
         22    1    1    2    0    0  0.25678568146E+00 -0.21357286364E-01  0.24787473341E+01  0.24921042045E+01  0.00000000000E+00 0. -1.
</event>
<event>
 5    1  0.4838219E+001  0.1517140E+01  0.7818608E-02  0.3448518E+00
         11   -1    0    0    0    0  0.00000000000E+00  0.00000000000E+00  0.39999999674E+01  0.40000000000E+01  0.51100000000E-03 0.  1.
    9000002   -1    0    0    0    0 -0.00000000000E+00 -0.00000000000E+00  0.00000000000E+00  0.93800000000E+00  0.93800000000E+00 0.  1.
         11    1    1    2    0    0 -0.25177750060E+00  0.28736560563E+00  0.88098949402E+00  0.96026748920E+00  0.51100000000E-03 0.  1.
    9000002    1    1    2    0    0  0.41429293350E+00 -0.14414304589E+00  0.20489444416E+00  0.10555764234E+01  0.93800000000E+00 0.  1.
         22    1    1    2    0    0 -0.16251543290E+00 -0.14322255974E+00  0.29141160292E+01  0.29221560874E+01  0.00000000000E+00 0.  1.
</event>
<event>
 5    1  0.4838219E+001  0.1464737E+01  0.7818608E-02  0.3514667E+00
         11   -1    0    0    0    0  0.00000000000E+00  0.00000000000E+00  0.39999999674E+01  0.40000000000E+01  0.51100000000E-03 0.  1.
    9000002   -1    0    0    0    0 -0.00000000000E+00 -0.00000000000E+00  0.00000000000E+00  0.93800000000E+00  0.93800000000E+00 0. -1.
         11    1    1    2    0    0 -0.33486982052E+00  0.36339036758E-01  0.89201784646E+00  0.95349589502E+00  0.51100000000E-03 0.  1.
    9000002    1    1    2    0    0 -0.13610117631E+00  0.18038452343E+00  0.14399924562E+00  0.97552134227E+00  0.93800000000E+00 0. -1.
         22    1    1    2    0    0  0.47097099683E+00 -0.21672356018E+00  0.29639828753E+01  0.30089827627E+01  0.00000000000E+00 0.  1.
</event>
<event>
 5    1  0.4838219E+001  0.1545134E+01  0.7818608E-02  0.3415154E+00
         11   -1    0    0    0    0  0.00000000000E+00  0.00000000000E+00  0.39999999674E+01  0.40000000000E+01  0.51100000000E-03 0. -1.
    9000002   -1    0    0    0    0 -0.00000000000E+00 -0.00000000000E+00  0.00000000000E+00  0.93800000000E+00  0.93800000000E+00 0.  1.
         11    1    1    2    0    0 -0.21419555802E+00  0.19579441897E+00  0.13878700179E+01  0.14178852702E+01  0.51100000000E-03 0. -1.
    9000002    1    1    2    0    0  0.65913193621E-01 -0.19696444968E-01  0.43853514827E-01  0.94154109300E+00  0.93800000000E+00 0.  1.
         22    1    1    2    0    0  0.14828236440E+00 -0.17609797400E+00  0.25682764346E+01  0.25785736368E+01  0.00000000000E+00 0. -1.
</event>
<event>
 5    1  0.5727763E+001  0.1569175E+01  0.7818608E-02  0.3387514E+00
         11   -1    0    0    0    0  0.00000000000E+00  0.00000000000E+00  0.39999999674E+01  0.40000000000E+01  0.51100000000E-03 0.  1.
    9000002   -1    0    0    0    0 -0.00000000000E+00 -0.00000000000E+00  0.00000000000E+00  0.93800000000E+00  0.93800000000E+00 0. -1.
         11    1    1    2    0    0 -0.11363996419E+00 -0.18474059675E+00  0.22796201261E+01  0.22899151316E+01  0.51100000000E-03 0.  1.
    9000002    1    1    2    0    0  0.28439950788E-01  0.18245196968E-02  0.22960452135E-01  0.93871366350E+00  0.93800000000E+00 0. -1.
         22    1    1    2    0    0  0.85200013404E-01  0.18291607706E+00  0.16974193891E+01  0.17093712049E+01  0.00000000000E+00 0. -1.
</event>
<event>
 5    1  0.4838219E+001  0.1528394E+01  0.7818608E-02  0.3434948E+00
         11   -1    0    0    0    0  0.00000000000E+00  0.00000000000E+00  0.39999999674E+01  0.40000000000E+01  0.51100000000E-03 0.  1.
    9000002   -1    0    0    0    0 -0.00000000000E+00 -0.00000000000E+00  0.00000000000E+00  0.93800000000E+00  0.93800000000E+00 0. -1.
         11    1    1    2    0    0 -0.12818163183E+00 -0.35384976623E+00  0.15275192437E+01  0.15731991256E+01  0.51100000000E-03 0.  1.
    9000002    1    1    2    0    0  0.13625293970E+00  0.12523307707E+00  0.77825581967E-01  0.95924397750E+00  0.93800000000E+00 0. -1.
         22    1    1    2    0    0 -0.80713078700E-02  0.22861668915E+00  0.23946551416E+01  0.24055568968E+01  0.00000000000E+00 0.  1.
</event>
<event>
 5    1  0.4838219E+001  0.1598178E+01  0.7818608E-02  0.3355344E+00
         11   -1    0    0    0    0  0.00000000000E+00  0.00000000000E+00  0.39999999674E+01  0.40000000000E+01  0.51100000000E-03 0.  1.
    9000002   -1    0    0    0    0 -0.00000000000E+00 -0.00000000000E+00  0.00000000000E+00  0.93800000000E+00  0.93800000000E+00 0. -1.
         11    1    1    2    0    0  0.60984322333E-02  0.18387718091E-01  0.74726866910E+00  0.74751991545E+00  0.51100000000E-03 0.  1.
    9000002    1    1    2    0    0 -0.21131139031E+00 -0.23850480711E-01  0.31090627749E-01  0.96230555243E+00  0.93800000000E+00 0. -1.
         22    1    1    2    0    0  0.20521295808E+00  0.54627626191E-02  0.32216406705E+01  0.32281745321E+01  0.00000000000E+00 0.  1.
</event>
<event>
 5    1  0.4838219E+001  0.1597252E+01  0.7818608E-02  0.3356351E+00
         11   -1    0    0    0    0  0.00000000000E+00  0.00000000000E+00  0.39999999674E+01  0.40000000000E+01  0.51100000000E-03 0. -1.
    9000002   -1    0    0    0    0 -0.00000000000E+00 -0.00000000000E+00  0.00000000000E+00  0.93800000000E+00  0.93800000000E+00 0. -1.
         11    1    1    2    0    0 -0.50646077912E-01  0.15577381369E+00  0.11105389702E+01  0.11225540396E+01  0.51100000000E-03 0. -1.
    9000002    1    1    2    0    0  0.15528451299E+00 -0.35888431210E+00  0.10503237922E+00  0.10216589598E+01  0.93800000000E+00 0. -1.
         22    1    1    2    0    0 -0.10463843508E+00  0.20311049841E+00  0.27844286179E+01  0.27937870006E+01  0.00000000000E+00 0.  1.
</event>
<event>
 5    1  0.4838219E+001  0.1550930E+01  0.7818608E-02  0.3408407E+00
         11   -1    0    0    0    0  0.00000000000E+00  0.00000000000E+00  0.39999999674E+01  0.40000000000E+01  0.51100000000E-03 0.  1.
    9000002   -1    0    0    0    0 -0.00000000000E+00 -0.00000000000E+00  0.00000000000E+00  0.93800000000E+00  0.93800000000E+00 0.  1.
         11    1    1    2    0    0  0.15917712698E+00 -0.27192859942E+00  0.18264176564E+01  0.18533980246E+01  0.51100000000E-03 0.  1.
    9000002    1    1    2    0    0 -0.28224859737E-01  0.10998954543E+00  0.45067070810E-01  0.94592250406E+00  0.93800000000E+00 0.  1.
         22    1    1    2    0    0 -0.13095226724E+00  0.16193905398E+00  0.21285152402E+01  0.21386794713E+01  0.00000000000E+00 0.  1.
</event>
<event>
 5    1  0.4838219E+001  0.1577333E+01  0.7818608E-02  0.3378339E+00
         11   -1    0    0    0    0  0.00000000000E+00  0.00000000000E+00  0.39999999674E+01  0.40000000000E+01  0.51100000000E-03 0.  1.
    9000002   -1    0    0    0    0 -0.00000000000E+00 -0.00000000000E+00  0.00000000000E+00  0.93800000000E+00  0.93800000000E+00 0.  1.
         11    1    1    2    0    0  0.22128236683E+00 -0.25034585957E+00  0.13232547513E+01  0.13647865522E+01  0.51100000000E-03 0.  1.
    9000002    1    1    2    0    0 -0.42354405767E+00  0.27038869322E+00  0.19338056621E+00  0.10815450326E+01  0.93800000000E+00 0.  1.
         22    1    1    2    0    0  0.20226169084E+00 -0.20042833649E-01  0.24833646499E+01  0.24916684152E+01  0.00000000000E+00 0.  1.
</event>
<event>
 5    1  0.4838219E+001  0.1582431E+01  0.7818608E-02  0.3372656E+00
         11   -1    0    0    0    0  0.00000000000E+00  0.00000000000E+00  0.39999999674E+01  0.40000000000E+01  0.51100000000E-03 0. -1.
    9000002   -1    0    0    0    0 -0.00000000000E+00 -0.00000000000E+00  0.00000000000E+00  0.93800000000E+00  0.93800000000E+00 0. -1.
         11    1    1    2    0    0 -0.12518926212E+00 -0.14767263782E+00  0.11534655067E+01  0.11695992885E+01  0.51100000000E-03 0. -1.
    9000002    1    1    2    0    0 -0.19425765776E-01  0.29662520125E+00  0.72537123283E-01  0.98664558208E+00  0.93800000000E+00 0. -1.
         22    1    1    2    0    0  0.14461502790E+00 -0.14895256343E+00  0.27739973374E+01  0.27817551294E+01  0.00000000000E+00 0. -1.
</event>
<event>
 5    1  0.4838219E+001  0.1511110E+01  0.7818608E-02  0.3455877E+00
         11   -1    0    0    0    0  0.00000000000E+00  0.00000000000E+00  0.39999999674E+01  0.40000000000E+01  0.51100000000E-03 0.  1.
    9000002   -1    0    0    0    0 -0.00000000000E+00 -0.00000000000E+00  0.00000000000E+00  0.93800000000E+00  0.93800000000E+00 0. -1.
         11    1    1    2    0    0 -0.89287717752E-01 -0.76787357210E-01  0.33865707490E+01  0.33886177556E+01  0.51100000000E-03 0.  1.
    9000002    1    1    2    0    0  0.56235894189E-01  0.35657791505E+00  0.16314089324E+00  0.10182186584E+01  0.93800000000E+00 0. -1.
         22    1    1    2    0    0  0.33051823563E-01 -0.27979055784E+00  0.45028832517E+00  0.53116358599E+00  0.00000000000E+00 0.  1.
</event>
<event>
 5    1  0.4838219E+001  0.1586133E+01  0.7818608E-02  0.3368553E+00
         11   -1    0    0    0    0  0.00000000000E+00  0.00000000000E+00  0.39999999674E+01  0.40000000000E+01  0.51100000000E-03 0.  1.
    9000002   -1    0    0    0    0 -0.00000000000E+00 -0.00000000000E+00  0.00000000000E+00  0.93800000000E+00  0.93800000000E+00 0. -1.
         11    1    1    2    0    0  0.76555106636E-01  0.11518472319E+00  0.20085620966E+01  0.20133181969E+01  0.51100000000E-03 0.  1.
    9000002    1    1    2    0    0  0.12349891786E+00 -0.19791922872E+00  0.46458343618E-01  0.96769126352E+00  0.93800000000E+00 0. -1.
         22    1    1    2    0    0 -0.20005402450E+00  0.82734505527E-01  0.19449795271E+01  0.19569905396E+01  0.00000000000E+00 0.  1.
</event>
<event>
 5    1  0.4838219E+001  0.1524683E+01  0.7818608E-02  0.3439399E+00
         11   -1    0    0    0    0  0.00000000000E+00  0.00000000000E+00  0.39999999674E+01  0.40000000000E+01  0.51100000000E-03 0.  1.
    9000002   -1    0    0    0    0 -0.00000000000E+00 -0.00000000000E+00  0.00000000000E+00  0.93800000000E+00  0.93800000000E+00 0. -1.
         11    1    1    2    0    0 -0.17306281769E+00 -0.14214482028E+00  0.15051244952E+01  0.15216950732E+01  0.51100000000E-03 0.  1.
    9000002    1    1    2    0    0  0.20134849312E-01 -0.34302861824E+00  0.14192272415E+00  0.10089896455E+01  0.93800000000E+00 0. -1.
         22    1    1    2    0    0  0.15292796838E+00  0.48517343852E+00  0.23529527480E+01  0.24073152813E+01  0.00000000000E+00 0.  1.
</event>
<event>
 5    1  0.4838219E+001  0.1496124E+01  0.7818608E-02  0.3474446E+00
         11   -1    0    0    0    0  0.00000000000E+00  0.00000000000E+00  0.39999999674E+01  0.40000000000E+01  0.51100000000E-03 0.  1.
    9000002   -1    0    0    0    0 -0.00000000000E+00 -0.00000000000E+00  0.00000000000E+00  0.93800000000E+00  0.93800000000E+00 0.  1.
         11    1    1    2    0    0 -0.33401151745E+00  0.48463424872E-01  0.82128679280E+00  0.88793279841E+00  0.51100000000E-03 0.  1.
    9000002    1    1    2    0    0  0.71515186620E-01 -0.13678019780E+00  0.96571062093E-01  0.95550678410E+00  0.93800000000E+00 0.  1.
         22    1    1    2    0    0  0.26249633083E+00  0.88316772924E-01  0.30821421125E+01  0.30945604175E+01  0.00000000000E+00 0.  1.
</event>
<event>
 5    1  0.4838219E+001  0.1565678E+01  0.7818608E-02  0.3391479E+00
         11   -1    0    0    0    0  0.00000000000E+00  0.00000000000E+00  0.39999999674E+01  0.40000000000E+01  0.51100000000E-03 0.  1.
    9000002   -1    0    0    0    0 -0.00000000000E+00 -0.00000000000E+00  0.00000000000E+00  0.93800000000E+00  0.93800000000E+00 0.  1.
         11    1    1    2    0    0 -0.24484320490E-01  0.13519440574E+00  0.10329690563E+01  0.10420663807E+01  0.51100000000E-03 0.  1.
    9000002    1    1    2    0    0 -0.36921105515E+00  0.66643314506E-01  0.12301362843E+00  0.10177104143E+01  0.93800000000E+00 0.  1.
         22    1    1    2    0    0  0.39369537564E+00 -0.20183772024E+00  0.28440172826E+01  0.28782232050E+01  0.00000000000E+00 0.  1.
</event>
<event>
 5    1  0.4838219E+001  0.1554491E+01  0.7818608E-02  0.3404288E+00
         11   -1    0    0    0    0  0.00000000000E+00  0.00000000000E+00  0.39999999674E+01  0.40000000000E+01  0.51100000000E-03 0. -1.
    9000002   -1    0    0    0    0 -0.00000000000E+00 -0.00000000000E+00  0.00000000000E+00  0.93800000000E+00  0.93800000000E+00 0. -1.
         11    1    1    2    0    0  0.33681716152E+00 -0.22234161914E+00  0.19864414317E+01  0.20270252634E+01  0.51100000000E-03 0. -1.
    9000002    1    1    2    0    0 -0.16059348040E+00  0.36995975060E+00  0.14846622308E+00  0.10317687252E+01  0.93800000000E+00 0. -1.
         22    1    1    2    0    0 -0.17622368112E+00 -0.14761813146E+00  0.18650923126E+01  0.18792060113E+01  0.00000000000E+00 0. -1.
</event>
<event>
 5    1  0.4838219E+001  0.1560801E+01  0.7818608E-02  0.3397039E+00
         11   -1    0    0    0    0  0.00000000000E+00  0.00000000000E+00  0.39999999674E+01  0.40000000000E+01  0.51100000000E-03 0. -1.
    9000002   -1    0    0    0    0 -0.00000000000E+00 -0.00000000000E+00  0.00000000000E+00  0.93800000000E+00  0.93800000000E+00 0. -1.
         11    1    1    2    0    0 -0.19817530075E+00 -0.18613705579E+00  0.22248877111E+01  0.22414383868E+01  0.51100000000E-03 0. -1.
    9000002    1    1    2    0    0  0.10188214019E+00 -0.43316581946E-02  0.35801950480E-01  0.94420575798E+00  0.93800000000E+00 0. -1.
         22    1    1    2    0    0  0.96293160552E-01  0.19046871398E+00  0.17393103057E+01  0.17523558553E+01  0.00000000000E+00 0.  1.
</event>
<event>
 5    1  0.4838219E+001  0.1553021E+01  0.7818608E-02  0.3405986E+00
         11   -1    0    0    0    0  0.00000000000E+00  0.00000000000E+00  0.39999999674E+01  0.40000000000E+01  0.51100000000E-03 0. -1.
    9000002   -1    0    0    0    0 -0.00000000000E+00 -0.00000000000E+00  0.00000000000E+00  0.93800000000E+00  0.93800000000E+00 0. -1.
         11    1    1    2    0    0 -0.19542876546E+00 -0.19252943910E+00  0.17203771668E+01  0.17421130401E+01  0.51100000000E-03 0. -1.
    9000002    1    1    2    0    0 -0.20624484429E-01  0.81771692647E-01  0.39464032451E-01  0.94260988162E+00  0.93800000000E+00 0. -1.
         22    1    1    2    0    0  0.21605324989E+00  0.11075774646E+00  0.22401587681E+01  0.22532770783E+01  0.00000000000E+00 0. -1.
</event>
<event>
 5    1  0.4838219E+001  0.1528338E+01  0.7818608E-02  0.3435015E+00
         11   -1    0    0    0    0  0.00000000000E+00  0.00000000000E+00  0.39999999674E+01  0.40000000000E+01  0.51100000000E-03 0.  1.
    9000002   -1    0    0    0    0 -0.00000000000E+00 -0.00000000000E+00  0.00000000000E+00  0.93800000000E+00  0.93800000000E+00 0. -1.
         11    1    1    2    0    0 -0.52964854668E-01  0.22832424384E+00  0.61043137559E+00  0.65388375234E+00  0.51100000000E-03 0.  1.
    9000002    1    1    2    0    0 -0.39812426336E-01 -0.49171658341E-02  0.54661738043E-01  0.94044729433E+00  0.93800000000E+00 0. -1.
         22    1    1    2    0    0  0.92777281003E-01 -0.22340707801E+00  0.33349068537E+01  0.33436689533E+01  0.00000000000E+00 0.  1.
</event>
<event>
 5    1  0.4838219E+001  0.1546624E+01  0.7818608E-02  0.3413415E+00
         11   -1    0    0    0    0  0.00000000000E+00  0.00000000000E+00  0.39999999674E+01  0.40000000000E+01  0.51100000000E-03 0.  1.
    9000002   -1    0    0    0    0 -0.00000000000E+00 -0.00000000000E+00  0.00000000000E+00  0.93800000000E+00  0.93800000000E+00 0.  1.
         11    1    1    2    0    0 -0.16578718575E+00  0.23815435100E+00  0.20176526451E+01  0.20384124566E+01  0.51100000000E-03 0.  1.
    9000002    1    1    2    0    0  0.71705075298E-01  0.13640929146E-01  0.43123749708E-01  0.94182341793E+00  0.93800000000E+00 0.  1.
         22    1    1    2    0    0  0.94082110448E-01 -0.25179528014E+00  0.19392235726E+01  0.19577641255E+01  0.00000000000E+00 0.  1.
</event>
<event>
 5    1  0.4838219E+001  0.1519902E+01  0.7818608E-02  0.3445167E+00
         11   -1    0    0    0    0  0.00000000000E+00  0.00000000000E+00  0.39999999674E+01  0.40000000000E+01  0.51100000000E-03 0. -1.
    9000002   -1    0    0    0    0 -0.00000000000E+00 -0.00000000000E+00  0.00000000000E+00  0.93800000000E+00  0.93800000000E+00 0.  1.
         11    1    1    2    0    0 -0.39161951422E+00  0.25808029545E+00  0.14916980819E+01  0.15636926525E+01  0.51100000000E-03 0. -1.
    9000002    1    1    2    0    0  0.19903967867E+00 -0.36609343110E+00  0.18793447156E+00  0.10434579817E+01  0.93800000000E+00 0.  1.
         22    1    1    2    0    0  0.19257983555E+00  0.10801313565E+00  0.23203674139E+01  0.23308493658E+01  0.00000000000E+00 0.  1.
</event>
<event>
 5    1  0.4838219E+001  0.1533539E+01  0.7818608E-02  0.3428815E+00
         11   -1    0    0    0    0  0.00000000000E+00  0.00000000000E+00  0.39999999674E+01  0.40000000000E+01  0.51100000000E-03 0. -1.
    9000002   -1    0    0    0    0 -0.00000000000E+00 -0.00000000000E+00  0.00000000000E+00  0.93800000000E+00  0.93800000000E+00 0.  1.
         11    1    1    2    0    0  0.19766454026E+00  0.17169673110E+00  0.29567610202E+01  0.29683306807E+01  0.51100000000E-03 0. -1.
    9000002    1    1    2    0    0  0.79340861111E-01 -0.12478220582E+00  0.64911186485E-01  0.95179989140E+00  0.93800000000E+00 0.  1.
         22    1    1    2    0    0 -0.27700540137E+00 -0.46914525280E-01  0.97832776064E+00  0.10178694279E+01  0.00000000000E+00 0. -1.
</event>
<event>
 5    1  0.4838219E+001  0.1527836E+01  0.7818608E-02  0.3435616E+00
         11   -1    0    0    0    0  0.00000000000E+00  0.00000000000E+00  0.39999999674E+01  0.40000000000E+01  0.51100000000E-03 0.  1.
    9000002   -1    0    0    0    0 -0.00000000000E+00 -0.00000000000E+00  0.00000000000E+00  0.93800000000E+00  0.93800000000E+00 0.  1.
         11    1    1    2    0    0 -0.39621157716E+00 -0.24945512966E+00  0.18973136210E+01  0.19542289306E+01  0.51100000000E-03 0.  1.
    9000002    1    1    2    0    0  0.15473807878E+00  0.40139069077E+00  0.18921097535E+00  0.10491440096E+01  0.93800000000E+00 0.  1.
         22    1    1    2    0    0  0.24147349838E+00 -0.15193556111E+00  0.19134753710E+01  0.19346270598E+01  0.00000000000E+00 0.  1.
</event>
<event>
 5    1  0.4838219E+001  0.1578908E+01  0.7818608E-02  0.3376579E+00
         11   -1    0    0    0    0  0.00000000000E+00  0.00000000000E+00  0.39999999674E+01  0.40000000000E+01  0.51100000000E-03 0.  1.
    9000002   -1    0    0    0    0 -0.00000000000E+00 -0.00000000000E+00  0.00000000000E+00  0.93800000000E+00  0.93800000000E+00 0. -1.
         11    1    1    2    0    0  0.16540752684E+00 -0.30306794772E+00  0.27988632907E+01  0.28200790436E+01  0.51100000000E-03 0.  1.
    9000002    1    1    2    0    0 -0.20000059826E-01  0.46083372934E+00  0.16308292793E+00  0.10579261647E+01  0.93800000000E+00 0. -1.
         22    1    1    2    0    0 -0.14540746702E+00 -0.15776578162E+00  0.10380537488E+01  0.10599947918E+01  0.00000000000E+00 0.  1.
</event>
<event>
 5    1  0.4838219E+001  0.1486723E+01  0.7818608E-02  0.3486300E+00
         11   -1    0    0    0    0  0.00000000000E+00  0.00000000000E+00  0.39999999674E+01  0.40000000000E+01  0.51100000000E-03 0. -1.
    9000002   -1    0    0    0    0 -0.00000000000E+00 -0.00000000000E+00  0.00000000000E+00  0.93800000000E+00  0.93800000000E+00 0.  1.
         11    1    1    2    0    0 -0.31988061229E+00 -0.16284908380E+00  0.83957773776E+00  0.91309061384E+00  0.51100000000E-03 0. -1.
    9000002    1    1    2    0    0  0.42219326761E-01  0.15003054726E+00  0.10474070116E+00  0.95661186023E+00  0.93800000000E+00 0.  1.
         22    1    1    2    0    0  0.27766128553E+00  0.12818536541E-01  0.30556815284E+01  0.30682975259E+01  0.00000000000E+00 0. -1.
</event>
<event>
 5    1  0.5147985E+001  0.1567236E+01  0.7818608E-02  0.3389710E+00
         11   -1    0    0    0    0  0.00000000000E+00  0.00000000000E+00  0.39999999674E+01  0.40000000000E+01  0.51100000000E-03 0.  1.
    9000002   -1    0    0    0    0 -0.00000000000E+00 -0.00000000000E+00  0.00000000000E+00  0.93800000000E+00  0.93800000000E+00 0.  1.
         11    1    1    2    0    0  0.57769665500E-01  0.18174330468E+00  0.10875474070E+01  0.11041411081E+01  0.51100000000E-03 0.  1.
    9000002    1    1    2    0    0 -0.25281024688E-01  0.18049612886E-01  0.24513022125E-01  0.93883428090E+00  0.93800000000E+00 0.  1.
         22    1    1    2    0    0 -0.32488640812E-01 -0.19979291756E+00  0.28879395382E+01  0.28950246110E+01  0.00000000000E+00 0.  1.
</event>
<event>
 5    1  0.4838219E+001  0.1498509E+01  0.7818608E-02  0.3471464E+00
         11   -1    0    0    0    0  0.00000000000E+00  0.00000000000E+00  0.39999999674E+01  0.40000000000E+01  0.51100000000E-03 0. -1.
    9000002   -1    0    0    0    0 -0.00000000000E+00 -0.00000000000E+00  0.00000000000E+00  0.93800000000E+00  0.93800000000E+00 0. -1.
         11    1    1    2    0    0  0.29806191179E+00  0.30956849703E+00  0.31950945054E+01  0.32238645625E+01  0.51100000000E-03 0. -1.
    9000002    1    1    2    0    0 -0.88785028625E-01 -0.14199902531E+00  0.97712702875E-01  0.95782998324E+00  0.93800000000E+00 0. -1.
         22    1    1    2    0    0 -0.20927688316E+00 -0.16756947172E+00  0.70719275910E+00  0.75630545430E+00  0.00000000000E+00 0. -1.
</event>
<event>
 5    1  0.4838219E+001  0.1566765E+01  0.7818608E-02  0.3390245E+00
         11   -1    0    0    0    0  0.00000000000E+00  0.00000000000E+00  0.39999999674E+01  0.40000000000E+01  0.51100000000E-03 0.  1.
    9000002   -1    0    0    0    0 -0.00000000000E+00 -0.00000000000E+00  0.00000000000E+00  0.93800000000E+00  0.93800000000E+00 0. -1.
         11    1    1    2    0    0  0.82857808035E-01 -0.12035976399E+00  0.17077420416E+01  0.17139822143E+01  0.51100000000E-03 0.  1.
    9000002    1    1    2    0    0  0.20484567099E+00 -0.26837916326E-01  0.53410557597E-01  0.96196606507E+00  0.93800000000E+00 0. -1.
         22    1    1    2    0    0 -0.28770347902E+00  0.14719768031E+00  0.22388473681E+01  0.22620517206E+01  0.00000000000E+00 0.  1.
</event>
<event>
 5    1  0.4838219E+001  0.1582551E+01  0.7818608E-02  0.3372522E+00
         11   -1    0    0    0    0  0.00000000000E+00  0.00000000000E+00  0.39999999674E+01  0.40000000000E+01  0.51100000000E-03 0.  1.
    9000002   -1    0    0    0    0 -0.00000000000E+00 -0.00000000000E+00  0.00000000000E+00  0.93800000000E+00  0.93800000000E+00 0.  1.
         11    1    1    2    0    0  0.84432021589E-01  0.18714282449E+00  0.94108197923E+00  0.96321687889E+00  0.51100000000E-03 0.  1.
    9000002    1    1    2    0    0  0.25798419236E-01 -0.35765866103E+00  0.10029576566E+00  0.10092019208E+01  0.93800000000E+00 0.  1.
         22    1    1    2    0    0 -0.11023044083E+00  0.17051583654E+00  0.29586222225E+01  0.29655812004E+01  0.00000000000E+00 0.  1.
</event>
<event>
 5    1  0.4838219E+001  0.1599539E+01  0.7818608E-02  0.3353864E+00
         11   -1    0    0    0    0  0.00000000000E+00  0.00000000000E+00  0.39999999674E+01  0.40000000000E+01  0.51100000000E-03 0. -1.
    9000002   -1    0    0    0    0 -0.00000000000E+00 -0.00000000000E+00  0.00000000000E+00  0.93800000000E+00  0.93800000000E+00 0. -1.
         11    1    1    2    0    0  0.25416837904E+00  0.21486887411E+00  0.22586835096E+01  0.22830728537E+01  0.51100000000E-03 0. -1.
    9000002    1    1    2    0    0 -0.41138695184E+00 -0.34467210020E+00  0.19858254628E+00  0.10987798271E+01  0.93800000000E+00 0. -1.
         22    1    1    2    0    0  0.15721857280E+00  0.12980322609E+00  0.15427339115E+01  0.15561473191E+01  0.00000000000E+00 0. -1.
</event>
<event>
 5    1  0.4838219E+001  0.1551512E+01  0.7818608E-02  0.3407732E+00
         11   -1    0    0    0    0  0.00000000000E+00  0.00000000000E+00  0.39999999674E+01  0.40000000000E+01  0.51100000000E-03 0. -1.
    9000002   -1    0    0    0    0 -0.00000000000E+00 -0.00000000000E+00  0.00000000000E+00  0.93800000000E+00  0.93800000000E+00 0.  1.
         11    1    1    2    0    0  0.17066238645E+00 -0.15786601230E+00  0.27822690995E+01  0.27919650663E+01  0.51100000000E-03 0. -1.
    9000002    1    1    2    0    0 -0.68487188679E-01 -0.72022370994E-01  0.42529908390E-01  0.94420893347E+00  0.93800000000E+00 0.  1.
         22    1    1    2    0    0 -0.10217519777E+00  0.22988838330E+00  0.11752009594E+01  0.12018260003E+01  0.00000000000E+00 0. -1.
</event>
<event>
 5    1  0.4838219E+001  0.1592364E+01  0.7818608E-02  0.3361693E+00
         11   -1    0    0    0    0  0.00000000000E+00  0.00000000000E+00  0.39999999674E+01  0.40000000000E+01  0.51100000000E-03 0. -1.
    9000002   -1    0    0    0    0 -0.00000000000E+00 -0.00000000000E+00  0.00000000000E+00  0.93800000000E+00  0.93800000000E+00 0. -1.
         11    1    1    2    0    0 -0.43741547598E-02  0.53427907304E-01  0.60999688675E+00  0.61234805256E+00  0.51100000000E-03 0. -1.
    9000002    1    1    2    0    0  0.83335412357E-01  0.13206126962E+00  0.21531605564E-01  0.95115328939E+00  0.93800000000E+00 0. -1.
         22    1    1    2    0    0 -0.78961257597E-01 -0.18548917693E+00  0.33684714750E+01  0.33744986580E+01  0.00000000000E+00 0. -1.
</event>
<event>
 5    1  0.4838219E+001  0.1552063E+01  0.7818608E-02  0.3407094E+00
         11   -1    0    0    0    0  0.00000000000E+00  0.00000000000E+00  0.39999999674E+01  0.40000000000E+01  0.51100000000E-03 0. -1.
    9000002   -1    0    0    0    0 -0.00000000000E+00 -0.00000000000E+00  0.00000000000E+00  0.93800000000E+00  0.93800000000E+00 0.  1.
         11    1    1    2    0    0 -0.23256401168E+00  0.10777215796E+00  0.11245804058E+01  0.11534219557E+01  0.51100000000E-03 0. -1.
    9000002    1    1    2    0    0  0.20048329121E-01 -0.13027185643E+00  0.47299600765E-01  0.94839545777E+00  0.93800000000E+00 0.  1.
         22    1    1    2    0    0  0.21251568256E+00  0.22499698470E-01  0.28281199608E+01  0.28361825866E+01  0.00000000000E+00 0. -1.
</event>
<event>
 5    1  0.4838219E+001  0.1498026E+01  0.7818608E-02  0.3472067E+00
         11   -1    0    0    0    0  0.00000000000E+00  0.00000000000E+00  0.39999999674E+01  0.40000000000E+01  0.51100000000E-03 0. -1.
    9000002   -1    0    0    0    0 -0.00000000000E+00 -0.00000000000E+00  0.00000000000E+00  0.93800000000E+00  0.93800000000E+00 0.  1.
         11    1    1    2    0    0 -0.85851404252E+00 -0.36499523636E-01  0.28100689253E+01  0.29385142849E+01  0.51100000000E-03 0. -1.
    9000002    1    1    2    0    0  0.84508833824E+00 -0.22817536280E+00  0.75065987007E+00  0.14864630961E+01  0.93800000000E+00 0.  1.
         22    1    1    2    0    0  0.13425704285E-01  0.26467488644E+00  0.43927117198E+00  0.51302261897E+00  0.00000000000E+00 0. -1.
</event>
<event>
 5    1  0.4838219E+001  0.1540438E+01  0.7818608E-02  0.3420661E+00
         11   -1    0    0    0    0  0.00000000000E+00  0.00000000000E+00  0.39999999674E+01  0.40000000000E+01  0.51100000000E-03 0. -1.
    9000002   -1    0    0    0    0 -0.00000000000E+00 -0.00000000000E+00  0.00000000000E+00  0.93800000000E+00  0.93800000000E+00 0.  1.
         11    1    1    2    0    0  0.18964066584E+00 -0.28334294137E+00  0.20236310990E+01  0.20521525018E+01  0.51100000000E-03 0. -1.
    9000002    1    1    2    0    0  0.12779364919E+00  0.27263957674E+00  0.10842360143E+00  0.99109193969E+00  0.93800000000E+00 0.  1.
         22    1    1    2    0    0 -0.31743431502E+00  0.10703364632E-01  0.18679452669E+01  0.18947555585E+01  0.00000000000E+00 0. -1.
</event>
<event>
 5    1  0.4838219E+001  0.1598600E+01  0.7818608E-02  0.3354884E+00
         11   -1    0    0    0    0  0.00000000000E+00  0.00000000000E+00  0.39999999674E+01  0.40000000000E+01  0.51100000000E-03 0.  1.
    9000002   -1    0    0    0    0 -0.00000000000E+00 -0.00000000000E+00  0.00000000000E+00  0.93800000000E+00  0.93800000000E+00 0. -1.
         11    1    1    2    0    0 -0.36649531171E+00  0.12613976739E+00  0.24365561931E+01  0.24671920067E+01  0.51100000000E-03 0.  1.
    9000002    1    1    2    0    0  0.61204707945E+00 -0.16986503874E+00  0.28481932848E+00  0.11680846753E+01  0.93800000000E+00 0. -1.
         22    1    1    2    0    0 -0.24555176773E+00  0.43725271354E-01  0.12786244458E+01  0.13027233180E+01  0.00000000000E+00 0.  1.
</event>
<event>
 5    1  0.4838219E+001  0.1468225E+01  0.7818608E-02  0.3510106E+00
         11   -1    0    0    0    0  0.00000000000E+00  0.00000000000E+00  0.39999999674E+01  0.40000000000E+01  0.51100000000E-03 0.  1.
    9000002   -1    0    0    0    0 -0.00000000000E+00 -0.00000000000E+00  0.00000000000E+00  0.93800000000E+00  0.93800000000E+00 0. -1.
         11    1    1    2    0    0  0.12839908964E+00  0.34044984474E+00  0.32422015248E+01  0.32625547369E+01  0.51100000000E-03 0.  1.
    9000002    1    1    2    0    0  0.56910132067E-01 -0.72024346345E-01  0.10834976718E+00  0.94868853774E+00  0.93800000000E+00 0. -1.
         22    1    1    2    0    0 -0.18530922170E+00 -0.26842549839E+00  0.64944867540E+00  0.72675672533E+00  0.00000000000E+00 0. -1.
</event>
<event>
 5    1  0.4838219E+001  0.1544053E+01  0.7818608E-02  0.3416419E+00
         11   -1    0    0    0    0  0.00000000000E+00  0.00000000000E+00  0.39999999674E+01  0.40000000000E+01  0.51100000000E-03 0.  1.
    9000002   -1    0    0    0    0 -0.00000000000E+00 -0.00000000000E+00  0.00000000000E+00  0.93800000000E+00  0.93800000000E+00 0. -1.
         11    1    1    2    0    0  0.24160129864E-01  0.35167881627E+00  0.20062490854E+01  0.20369824142E+01  0.51100000000E-03 0.  1.
    9000002    1    1    2    0    0  0.20473608048E+00 -0.19299546069E+00  0.97174291061E-01  0.98409905667E+00  0.93800000000E+00 0. -1.
         22    1    1    2    0    0 -0.22889621034E+00 -0.15868335558E+00  0.18965765909E+01  0.19169185292E+01  0.00000000000E+00 0.  1.
</event>
<event>
 5    1  0.4838219E+001  0.1582347E+01  0.7818608E-02  0.3372749E+00
         11   -1    0    0    0    0  0.00000000000E+00  0.00000000000E+00  0.39999999674E+01  0.40000000000E+01  0.51100000000E-03 0.  1.
    9000002   -1    0    0    0    0 -0.00000000000E+00 -0.00000000000E+00  0.00000000000E+00  0.93800000000E+00  0.93800000000E+00 0.  1.
         11    1    1    2    0    0  0.14482467931E-01 -0.28669539322E+00  0.27197507782E+01  0.27348580488E+01  0.51100000000E-03 0.  1.
    9000002    1    1    2    0    0 -0.21953011437E+00  0.35301836757E+00  0.13153721551E+00  0.10343894228E+01  0.93800000000E+00 0.  1.
         22    1    1    2    0    0  0.20504764644E+00 -0.66322974343E-01  0.11487119737E+01  0.11687525284E+01  0.00000000000E+00 0.  1.
</event>
<event>
 5    1  0.4838219E+001  0.1564430E+01  0.7818608E-02  0.3392898E+00
         11   -1    0    0    0    0  0.00000000000E+00  0.00000000000E+00  0.39999999674E+01  0.40000000000E+01  0.51100000000E-03 0.  1.
    9000002   -1    0    0    0    0 -0.00000000000E+00 -0.00000000000E+00  0.00000000000E+00  0.93800000000E+00  0.93800000000E+00 0. -1.
         11    1    1    2    0    0  0.39264949069E-01  0.65192595621E-01  0.22909591036E+01  0.22922228701E+01  0.51100000000E-03 0.  1.
    9000002    1    1    2    0    0  0.22166996283E+00  0.13982797050E+00  0.73262820820E-01  0.97667849094E+00  0.93800000000E+00 0. -1.
         22    1    1    2    0    0 -0.26093491190E+00 -0.20502056612E+00  0.16357780429E+01  0.16690986389E+01  0.00000000000E+00 0.  1.
</event>
<event>
 5    1  0.4838219E+001  0.1582056E+01  0.7818608E-02  0.3373072E+00
         11   -1    0    0    0    0  0.00000000000E+00  0.00000000000E+00  0.39999999674E+01  0.40000000000E+01  0.51100000000E-03 0. -1.
    9000002   -1    0    0    0    0 -0.00000000000E+00 -0.00000000000E+00  0.00000000000E+00  0.93800000000E+00  0.93800000000E+00 0. -1.
         11    1    1    2    0    0 -0.11838672339E+00 -0.24079754621E-01  0.16745066568E+01  0.16788591530E+01  0.51100000000E-03 0. -1.
    9000002    1    1    2    0    0 -0.85262640845E-01 -0.20806999453E-01  0.18025973994E-01  0.94226938021E+00  0.93800000000E+00 0. -1.
         22    1    1    2    0    0  0.20364936423E+00  0.44886754074E-01  0.23074673366E+01  0.23168714668E+01  0.00000000000E+00 0.  1.
</event>
<event>
 5    1  0.4838219E+001  0.1540443E+01  0.7818608E-02  0.3420655E+00
         11   -1    0    0    0    0  0.00000000000E+00  0.00000000000E+00  0.39999999674E+01  0.40000000000E+01  0.51100000000E-03 0.  1.
    9000002   -1    0    0    0    0 -0.00000000000E+00 -0.00000000000E+00  0.00000000000E+00  0.93800000000E+00  0.93800000000E+00 0.  1.
         11    1    1    2    0    0 -0.50968519408E-01 -0.11078825940E+00  0.12149922231E+00  0.17214572471E+00  0.51100000000E-03 0.  1.
    9000002    1    1    2    0    0 -0.51514565167E-01  0.33754307845E+00  0.12717397058E+00  0.10062834089E+01  0.93800000000E+00 0.  1.
         22    1    1    2    0    0  0.10248308457E+00 -0.22675481905E+00  0.37513267745E+01  0.37595708664E+01  0.00000000000E+00 0.  1.
</event>
<event>
 5    1  0.4838219E+001  0.1569368E+01  0.7818608E-02  0.3387297E+00
         11   -1    0    0    0    0  0.00000000000E+00  0.00000000000E+00  0.39999999674E+01  0.40000000000E+01  0.51100000000E-03 0. -1.
    9000002   -1    0    0    0    0 -0.00000000000E+00 -0.00000000000E+00  0.00000000000E+00  0.93800000000E+00  0.93800000000E+00 0. -1.
         11    1    1    2    0    0 -0.20158319553E+00 -0.76691112705E-01  0.18096218235E+01  0.18224293448E+01  0.51100000000E-03 0. -1.
    9000002    1    1    2    0    0  0.55503778695E-01 -0.76669862279E-01  0.28346451238E-01  0.94318951358E+00  0.93800000000E+00 0. -1.
         22    1    1    2    0    0  0.14607941683E+00  0.15336097498E+00  0.21620316926E+01  0.21723811416E+01  0.00000000000E+00 0. -1.
</event>
<event>
 5    1  0.4838219E+001  0.1567661E+01  0.7818608E-02  0.3389229E+00
         11   -1    0    0    0    0  0.00000000000E+00  0.00000000000E+00  0.39999999674E+01  0.40000000000E+01  0.51100000000E-03 0.  1.
    9000002   -1    0    0    0    0 -0.00000000000E+00 -0.00000000000E+00  0.00000000000E+00  0.93800000000E+00  0.93800000000E+00 0. -1.
         11    1    1    2    0    0  0.15820106566E+00  0.12075709551E+00  0.22619412163E+01  0.22706801141E+01  0.51100000000E-03 0.  1.
    9000002    1    1    2    0    0 -0.18522084112E-01  0.58217582636E-01  0.26075633988E-01  0.94034902734E+00  0.93800000000E+00 0. -1.
         22    1    1    2    0    0 -0.13967898155E+00 -0.17897467815E+00  0.17119831171E+01  0.17269708586E+01  0.00000000000E+00 0.  1.
</event>
<event>
 5    1  0.4838219E+001  0.1582371E+01  0.7818608E-02  0.3372723E+00
         11   -1    0    0    0    0  0.00000000000E+00  0.00000000000E+00  0.39999999674E+01  0.40000000000E+01  0.51100000000E-03 0. -1.
    9000002   -1    0    0    0    0 -0.00000000000E+00 -0.00000000000E+00  0.00000000000E+00  0.93800000000E+00  0.93800000000E+00 0.  1.
         11    1    1    2    0    0  0.97375156885E-01 -0.47578383537E-01  0.20480467796E+01  0.20509123570E+01  0.51100000000E-03 0. -1.
    9000002    1    1    2    0    0  0.45032270626E-01 -0.10680500196E+00  0.21640816466E-01  0.94538221835E+00  0.93800000000E+00 0.  1.
         22    1    1    2    0    0 -0.14240742751E+00  0.15438338550E+00  0.19303123713E+01  0.19417054246E+01  0.00000000000E+00 0. -1.
</event>
<event>
 5    1  0.4838219E+001  0.1498973E+01  0.7818608E-02  0.3470886E+00
         11   -1    0    0    0    0  0.00000000000E+00  0.00000000000E+00  0.39999999674E+01  0.40000000000E+01  0.51100000000E-03 0. -1.
    9000002   -1    0    0    0    0 -0.00000000000E+00 -0.00000000000E+00  0.00000000000E+00  0.93800000000E+00  0.93800000000E+00 0. -1.
         11    1    1    2    0    0 -0.28836818593E+00 -0.32453726635E+00  0.23677040009E+01  0.24071774229E+01  0.51100000000E-03 0. -1.
    9000002    1    1    2    0    0  0.24381030018E+00 -0.34226698832E-01  0.12147623037E+00  0.97735121831E+00  0.93800000000E+00 0. -1.
         22    1    1    2    0    0  0.44557885754E-01  0.35876396518E+00  0.15108197360E+01  0.15534713588E+01  0.00000000000E+00 0.  1.
</event>
<event>
 5    1  0.4838219E+001  0.1566531E+01  0.7818608E-02  0.3390511E+00
         11   -1    0    0    0    0  0.00000000000E+00  0.00000000000E+00  0.39999999674E+01  0.40000000000E+01  0.51100000000E-03 0.  1.
    9000002   -1    0    0    0    0 -0.00000000000E+00 -0.00000000000E+00  0.00000000000E+00  0.93800000000E+00  0.93800000000E+00 0. -1.
         11    1    1    2    0    0  0.21656208292E+00 -0.78181919565E-01  0.30569527679E+01  0.30656112008E+01  0.51100000000E-03 0.  1.
    9000002    1    1    2    0    0 -0.36140897175E+00 -0.11278861935E+00  0.12412653316E+00  0.10191119241E+01  0.93800000000E+00 0. -1.
         22    1    1    2    0    0  0.14484688883E+00  0.19097053891E+00  0.81892066634E+00  0.85327687517E+00  0.00000000000E+00 0. -1.
</event>
<event>
 5    1  0.4838219E+001  0.1519980E+01  0.7818608E-02  0.3445073E+00
         11   -1    0    0    0    0  0.00000000000E+00  0.00000000000E+00  0.39999999674E+01  0.40000000000E+01  0.51100000000E-03 0. -1.
    9000002   -1    0    0    0    0 -0.00000000000E+00 -0.00000000000E+00  0.00000000000E+00  0.93800000000E+00  0.93800000000E+00 0. -1.
         11    1    1    2    0    0 -0.15257809819E+00  0.11292515150E+00  0.31889484798E+00  0.37111501058E+00  0.51100000000E-03 0. -1.
    9000002    1    1    2    0    0  0.37006998988E-01  0.79574752796E-01  0.65559906099E-01  0.94437479877E+00  0.93800000000E+00 0. -1.
         22    1    1    2    0    0  0.11557109920E+00 -0.19249990430E+00  0.36155452133E+01  0.36225101907E+01  0.00000000000E+00 0. -1.
</event>
<event>
 5    1  0.4838219E+001  0.1510578E+01  0.7818608E-02  0.3456531E+00
         11   -1    0    0    0    0  0.00000000000E+00  0.00000000000E+00  0.39999999674E+01  0.40000000000E+01  0.51100000000E-03 0. -1.
    9000002   -1    0    0    0    0 -0.00000000000E+00 -0.00000000000E+00  0.00000000000E+00  0.93800000000E+00  0.93800000000E+00 0. -1.
         11    1    1    2    0    0 -0.28314214495E+00 -0.11412347023E+00  0.92995972083E+00  0.97878444215E+00  0.51100000000E-03 0. -1.
    9000002    1    1    2    0    0  0.92819028418E-01 -0.20588652832E+00  0.10456154226E+00  0.97045440424E+00  0.93800000000E+00 0. -1.
         22    1    1    2    0    0  0.19032311653E+00  0.32000999855E+00  0.29654787043E+01  0.29887611536E+01  0.00000000000E+00 0. -1.
</event>
<event>
 5    1  0.4838219E+001  0.1579531E+01  0.7818608E-02  0.3375884E+00
         11   -1    0    0    0    0  0.00000000000E+00  0.00000000000E+00  0.39999999674E+01  0.40000000000E+01  0.51100000000E-03 0. -1.
    9000002   -1    0    0    0    0 -0.00000000000E+00 -0.00000000000E+00  0.00000000000E+00  0.93800000000E+00  0.93800000000E+00 0.  1.
         11    1    1    2    0    0 -0.29619128307E-01 -0.22060143396E+00  0.65673703214E+00  0.69343065690E+00  0.51100000000E-03 0. -1.
    9000002    1    1    2    0    0  0.40700211361E+00  0.52879325912E+00  0.33753019918E+00  0.11996014616E+01  0.93800000000E+00 0.  1.
         22    1    1    2    0    0 -0.37738298530E+00 -0.30819182516E+00  0.30057327360E+01  0.30449678815E+01  0.00000000000E+00 0. -1.
</event>
<event>
 5    1  0.4838219E+001  0.1490256E+01  0.7818608E-02  0.3481827E+00
         11   -1    0    0    0    0  0.00000000000E+00  0.00000000000E+00  0.39999999674E+01  0.40000000000E+01  0.51100000000E-03 0.  1.
    9000002   -1    0    0    0    0 -0.00000000000E+00 -0.00000000000E+00  0.00000000000E+00  0.93800000000E+00  0.93800000000E+00 0.  1.
         11    1    1    2    0    0 -0.21436542531E+00  0.32797980261E+00  0.34656455717E+01  0.34877245844E+01  0.51100000000E-03 0.  1.
    9000002    1    1    2    0    0  0.40178646946E+00 -0.44757797770E+00  0.37109437631E+00  0.11744417607E+01  0.93800000000E+00 0.  1.
         22    1    1    2    0    0 -0.18742104416E+00  0.11959817509E+00  0.16326001932E+00  0.27583365492E+00  0.00000000000E+00 0.  1.
</event>
<event>
 5    1  0.4838219E+001  0.1425467E+01  0.7818608E-02  0.3567708E+00
         11   -1    0    0    0    0  0.00000000000E+00  0.00000000000E+00  0.39999999674E+01  0.40000000000E+01  0.51100000000E-03 0. -1.
    9000002   -1    0    0    0    0 -0.00000000000E+00 -0.00000000000E+00  0.00000000000E+00  0.93800000000E+00  0.93800000000E+00 0.  1.
         11    1    1    2    0    0 -0.22121663138E+00 -0.51313220050E+00  0.30919998578E+01  0.31420860642E+01  0.51100000000E-03 0. -1.
    9000002    1    1    2    0    0  0.18196414015E+00  0.14988354020E+00  0.18339204342E+00  0.98440472648E+00  0.93800000000E+00 0.  1.
         22    1    1    2    0    0  0.39252491233E-01  0.36324866030E+00  0.72460806615E+00  0.81150920932E+00  0.00000000000E+00 0.  1.
</event>
<event>
 5    1  0.5122393E+001  0.1563314E+01  0.7818608E-02  0.3394170E+00
         11   -1    0    0    0    0  0.00000000000E+00  0.00000000000E+00  0.39999999674E+01  0.40000000000E+01  0.51100000000E-03 0. -1.
    9000002   -1    0    0    0    0 -0.00000000000E+00 -0.00000000000E+00  0.00000000000E+00  0.93800000000E+00  0.93800000000E+00 0.  1.
         11    1    1    2    0    0  0.17811507198E-01 -0.22593680026E+00  0.16866398538E+01  0.17017987381E+01  0.51100000000E-03 0. -1.
    9000002    1    1    2    0    0  0.18173892740E-01  0.12468004282E-02  0.27020753662E-01  0.93856590926E+00  0.93800000000E+00 0.  1.
         22    1    1    2    0    0 -0.35985399938E-01  0.22468999983E+00  0.22863393599E+01  0.22976353527E+01  0.00000000000E+00 0. -1.
</event>
<event>
 5    1  0.4838219E+001  0.1591489E+01  0.7818608E-02  0.3362653E+00
         11   -1    0    0    0    0  0.00000000000E+00  0.00000000000E+00  0.39999999674E+01  0.40000000000E+01  0.51100000000E-03 0. -1.
    9000002   -1    0    0    0    0 -0.00000000000E+00 -0.00000000000E+00  0.00000000000E+00  0.93800000000E+00  0.93800000000E+00 0. -1.
         11    1    1    2    0    0 -0.65128038895E-01  0.95770352393E-01  0.22232416861E+01  0.22262563818E+01  0.51100000000E-03 0. -1.
    9000002    1    1    2    0    0  0.30497693445E+00 -0.17218384372E+00  0.88868854526E-01  0.10051864901E+01  0.93800000000E+00 0. -1.
         22    1    1    2    0    0 -0.23984889556E+00  0.76413491326E-01  0.16878894268E+01  0.17065571280E+01  0.00000000000E+00 0. -1.
</event>
<event>
 5    1  0.4838219E+001  0.1541800E+01  0.7818608E-02  0.3419060E+00
         11   -1    0    0    0    0  0.00000000000E+00  0.00000000000E+00  0.39999999674E+01  0.40000000000E+01  0.51100000000E-03 0. -1.
    9000002   -1    0    0    0    0 -0.00000000000E+00 -0.00000000000E+00  0.00000000000E+00  0.93800000000E+00  0.93800000000E+00 0.  1.
         11    1    1    2    0    0 -0.18627138789E+00 -0.28434092671E+00  0.24905991924E+01  0.25136888015E+01  0.51100000000E-03 0. -1.
    9000002    1    1    2    0    0  0.10182985857E+00  0.52283539949E-01  0.52269667155E-01  0.94640319460E+00  0.93800000000E+00 0.  1.
         22    1    1    2    0    0  0.84441529318E-01  0.23205738676E+00  0.14571311078E+01  0.14779080039E+01  0.00000000000E+00 0. -1.
</event>
<event>
 5    1  0.4838219E+001  0.1448274E+01  0.7818608E-02  0.3536521E+00
         11   -1    0    0    0    0  0.00000000000E+00  0.00000000000E+00  0.39999999674E+01  0.40000000000E+01  0.51100000000E-03 0. -1.
    9000002   -1    0    0    0    0 -0.00000000000E+00 -0.00000000000E+00  0.00000000000E+00  0.93800000000E+00  0.93800000000E+00 0. -1.
         11    1    1    2    0    0 -0.16315171127E+00  0.45726992445E+00  0.96143831241E+00  0.10770692431E+01  0.51100000000E-03 0. -1.
    9000002    1    1    2    0    0  0.40903170190E+00 -0.16986553884E+00  0.27709125476E+00  0.10736781631E+01  0.93800000000E+00 0. -1.
         22    1    1    2    0    0 -0.24587999063E+00 -0.28740438561E+00  0.27614704002E+01  0.27872525938E+01  0.00000000000E+00 0. -1.
</event>
<event>
 5    1  0.4838219E+001  0.1526274E+01  0.7818608E-02  0.3437488E+00
         11   -1    0    0    0    0  0.00000000000E+00  0.00000000000E+00  0.39999999674E+01  0.40000000000E+01  0.51100000000E-03 0.  1.
    9000002   -1    0    0    0    0 -0.00000000000E+00 -0.00000000000E+00  0.00000000000E+00  0.93800000000E+00  0.93800000000E+00 0. -1.
         11    1    1    2    0    0  0.89117782092E-02 -0.22051610591E+00  0.20755916248E+01  0.20872919362E+01  0.51100000000E-03 0.  1.
    9000002    1    1    2    0    0  0.14987133722E+00 -0.17548618183E+00  0.93203132573E-01  0.97045743938E+00  0.93800000000E+00 0. -1.
         22    1    1    2    0    0 -0.15878311542E+00  0.39600228774E+00  0.18312052100E+01  0.18802506245E+01  0.00000000000E+00 0.  1.
</event>
<event>
 5    1  0.4838219E+001  0.1536525E+01  0.7818608E-02  0.3425276E+00
         11   -1    0    0    0    0  0.00000000000E+00  0.00000000000E+00  0.39999999674E+01  0.40000000000E+01  0.51100000000E-03 0.  1.
    9000002   -1    0    0    0    0 -0.00000000000E+00 -0.00000000000E+00  0.00000000000E+00  0.93800000000E+00  0.93800000000E+00 0.  1.
         11    1    1    2    0    0  0.29152696252E+00  0.11910565771E+00  0.23814185620E+01  0.24021508604E+01  0.51100000000E-03 0.  1.
    9000002    1    1    2    0    0 -0.50151976195E-02 -0.88079159516E-01  0.52638528350E-01  0.94360897898E+00  0.93800000000E+00 0.  1.
         22    1    1    2    0    0 -0.28651176490E+00 -0.31026498194E-01  0.15659428770E+01  0.15922401606E+01  0.00000000000E+00 0. -1.
</event>
<event>
 5    1  0.6973936E+001  0.1545387E+01  0.7818608E-02  0.3414859E+00
         11   -1    0    0    0    0  0.00000000000E+00  0.00000000000E+00  0.39999999674E+01  0.40000000000E+01  0.51100000000E-03 0.  1.
    9000002   -1    0    0    0    0 -0.00000000000E+00 -0.00000000000E+00  0.00000000000E+00  0.93800000000E+00  0.93800000000E+00 0.  1.
         11    1    1    2    0    0  0.15824333039E+00  0.25369116100E-02  0.35190012558E+00  0.38585145722E+00  0.51100000000E-03 0.  1.
    9000002    1    1    2    0    0  0.46615947881E-01  0.26107964737E-01  0.42354361835E-01  0.94047464845E+00  0.93800000000E+00 0.  1.
         22    1    1    2    0    0 -0.20485927827E+00 -0.28644876347E-01  0.36057454799E+01  0.36116738943E+01  0.00000000000E+00 0.  1.
</event>
<event>
 5    1  0.4838219E+001  0.1578620E+01  0.7818608E-02  0.3376900E+00
         11   -1    0    0    0    0  0.00000000000E+00  0.00000000000E+00  0.39999999674E+01  0.40000000000E+01  0.51100000000E-03 0.  1.
    9000002   -1    0    0    0    0 -0.00000000000E+00 -0.00000000000E+00  0.00000000000E+00  0.93800000000E+00  0.93800000000E+00 0. -1.
         11    1    1    2    0    0 -0.14244219721E+00 -0.20151430591E-01  0.15648506477E+01  0.15714495443E+01  0.51100000000E-03 0.  1.
    9000002    1    1    2    0    0 -0.71251721653E-01  0.66989555716E-01  0.21831327882E-01  0.94333716946E+00  0.93800000000E+00 0. -1.
         22    1    1    2    0    0  0.21369391886E+00 -0.46838125125E-01  0.24133179918E+01  0.24232132862E+01  0.00000000000E+00 0.  1.
</event>
<event>
 5    1  0.4838219E+001  0.1561122E+01  0.7818608E-02  0.3396672E+00
         11   -1    0    0    0    0  0.00000000000E+00  0.00000000000E+00  0.39999999674E+01  0.40000000000E+01  0.51100000000E-03 0.  1.
    9000002   -1    0    0    0    0 -0.00000000000E+00 -0.00000000000E+00  0.00000000000E+00  0.93800000000E+00  0.93800000000E+00 0.  1.
         11    1    1    2    0    0 -0.17063919669E+00  0.13139327561E+00  0.12360224509E+01  0.12546448456E+01  0.51100000000E-03 0.  1.
    9000002    1    1    2    0    0  0.13302919093E-01  0.34960453727E-01  0.29397519215E-01  0.93920573631E+00  0.93800000000E+00 0.  1.
         22    1    1    2    0    0  0.15733627760E+00 -0.16635372933E+00  0.27345799973E+01  0.27441494181E+01  0.00000000000E+00 0.  1.
</event>
<event>
 5    1  0.5162331E+001  0.1564849E+01  0.7818608E-02  0.3392422E+00
         11   -1    0    0    0    0  0.00000000000E+00  0.00000000000E+00  0.39999999674E+01  0.40000000000E+01  0.51100000000E-03 0.  1.
    9000002   -1    0    0    0    0 -0.00000000000E+00 -0.00000000000E+00  0.00000000000E+00  0.93800000000E+00  0.93800000000E+00 0.  1.
         11    1    1    2    0    0  0.20352119694E+00  0.41615756198E-01  0.26164577009E+01  0.26246912029E+01  0.51100000000E-03 0.  1.
    9000002    1    1    2    0    0  0.94752321984E-03  0.29883985755E-01  0.26252639069E-01  0.93884351809E+00  0.93800000000E+00 0.  1.
         22    1    1    2    0    0 -0.20446872016E+00 -0.71499741953E-01  0.13572896273E+01  0.13744652790E+01  0.00000000000E+00 0.  1.
</event>
<event>
 5    1  0.4838219E+001  0.1586677E+01  0.7818608E-02  0.3367952E+00
         11   -1    0    0    0    0  0.00000000000E+00  0.00000000000E+00  0.39999999674E+01  0.40000000000E+01  0.51100000000E-03 0.  1.
    9000002   -1    0    0    0    0 -0.00000000000E+00 -0.00000000000E+00  0.00000000000E+00  0.93800000000E+00  0.93800000000E+00 0.  1.
         11    1    1    2    0    0 -0.98357950154E-02  0.91508219526E-01  0.15553088669E+01  0.15580296627E+01  0.51100000000E-03 0.  1.
    9000002    1    1    2    0    0 -0.58209833990E-01  0.98163841068E-01  0.18165225755E-01  0.94509179443E+00  0.93800000000E+00 0.  1.
         22    1    1    2    0    0  0.68045629006E-01 -0.18967206059E+00  0.24265258747E+01  0.24348785429E+01  0.00000000000E+00 0.  1.
</event>
<event>
 5    1  0.4838219E+001  0.1701547E+01  0.7818608E-02  0.3250025E+00
         11   -1    0    0    0    0  0.00000000000E+00  0.00000000000E+00  0.39999999674E+01  0.40000000000E+01  0.51100000000E-03 0.  1.
    9000002   -1    0    0    0    0 -0.00000000000E+00 -0.00000000000E+00  0.00000000000E+00  0.93800000000E+00  0.93800000000E+00 0.  1.
         11    1    1    2    0    0  0.68564386836E-01  0.20031774496E+00 -0.92843904232E-01  0.23118937208E+00  0.51100000000E-03 0.  1.
    9000002    1    1    2    0    0  0.36498874784E+00 -0.17339264259E+00  0.59482450682E+00  0.11819230045E+01  0.93800000000E+00 0.  1.
         22    1    1    2    0    0 -0.43355313468E+00 -0.26925102375E-01  0.34980193648E+01  0.35248876235E+01  0.00000000000E+00 0.  1.
</event>
<event>
 5    1  0.4838219E+001  0.1549052E+01  0.7818608E-02  0.3410588E+00
         11   -1    0    0    0    0  0.00000000000E+00  0.00000000000E+00  0.39999999674E+01  0.40000000000E+01  0.51100000000E-03 0. -1.
    9000002   -1    0    0    0    0 -0.00000000000E+00 -0.00000000000E+00  0.00000000000E+00  0.93800000000E+00  0.93800000000E+00 0. -1.
         11    1    1    2    0    0  0.23795857235E+00 -0.24867972363E+00  0.30141816796E+00  0.45751400000E+00  0.51100000000E-03 0. -1.
    9000002    1    1    2    0    0  0.17727859744E+00 -0.62946030150E-01  0.24426053896E+00  0.98736878354E+00  0.93800000000E+00 0. -1.
         22    1    1    2    0    0 -0.41523716979E+00  0.31162575378E+00  0.34543212604E+01  0.34931172165E+01  0.00000000000E+00 0. -1.
</event>
<event>
 5    1  0.4838219E+001  0.1574496E+01  0.7818608E-02  0.3381518E+00
         11   -1    0    0    0    0  0.00000000000E+00  0.00000000000E+00  0.39999999674E+01  0.40000000000E+01  0.51100000000E-03 0. -1.
    9000002   -1    0    0    0    0 -0.00000000000E+00 -0.00000000000E+00  0.00000000000E+00  0.93800000000E+00  0.93800000000E+00 0.  1.
         11    1    1    2    0    0  0.37999501711E-01 -0.11835015849E+00  0.70226745403E+00  0.71318339875E+00  0.51100000000E-03 0. -1.
    9000002    1    1    2    0    0  0.32453590508E-01 -0.11770067609E+00  0.28526541549E-01  0.94634266958E+00  0.93800000000E+00 0.  1.
         22    1    1    2    0    0 -0.70453092219E-01  0.23605083459E+00  0.32692059718E+01  0.32784739317E+01  0.00000000000E+00 0. -1.
</event>
<event>
 5    1  0.4838219E+001  0.1588402E+01  0.7818608E-02  0.3366049E+00
         11   -1    0    0    0    0  0.00000000000E+00  0.00000000000E+00  0.39999999674E+01  0.40000000000E+01  0.51100000000E-03 0. -1.
    9000002   -1    0    0    0    0 -0.00000000000E+00 -0.00000000000E+00  0.00000000000E+00  0.93800000000E+00  0.93800000000E+00 0. -1.
         11    1    1    2    0    0 -0.10413946225E+00  0.53089417846E-01  0.56361032282E+00  0.57560435283E+00  0.51100000000E-03 0. -1.
    9000002    1    1    2    0    0  0.27610428945E+00  0.66523156940E-01  0.62536219559E-01  0.98204566483E+00  0.93800000000E+00 0. -1.
         22    1    1    2    0    0 -0.17196482720E+00 -0.11961257479E+00  0.33738534250E+01  0.33803499823E+01  0.00000000000E+00 0. -1.
</event>
<event>
 5    1  0.4838219E+001  0.1567623E+01  0.7818608E-02  0.3389272E+00
         11   -1    0    0    0    0  0.00000000000E+00  0.00000000000E+00  0.39999999674E+01  0.40000000000E+01  0.51100000000E-03 0. -1.
    9000002   -1    0    0    0    0 -0.00000000000E+00 -0.00000000000E+00  0.00000000000E+00  0.93800000000E+00  0.93800000000E+00 0. -1.
         11    1    1    2    0    0  0.23193694667E+00 -0.57757273679E-01  0.18430100121E+01  0.18584447304E+01  0.51100000000E-03 0. -1.
    9000002    1    1    2    0    0 -0.88083244378E-01 -0.87713506316E-01  0.34084709362E-01  0.94681470444E+00  0.93800000000E+00 0. -1.
         22    1    1    2    0    0 -0.14385370229E+00  0.14547077999E+00  0.21229052459E+01  0.21327405652E+01  0.00000000000E+00 0. -1.
</event>
<event>
 5    1  0.4838219E+001  0.1566221E+01  0.7818608E-02  0.3390862E+00
         11   -1    0    0    0    0  0.00000000000E+00  0.00000000000E+00  0.39999999674E+01  0.40000000000E+01  0.51100000000E-03 0. -1.
    9000002   -1    0    0    0    0 -0.00000000000E+00 -0.00000000000E+00  0.00000000000E+00  0.93800000000E+00  0.93800000000E+00 0. -1.
         11    1    1    2    0    0 -0.43486221159E+00  0.34910427475E+00  0.67923336035E+00  0.87882714834E+00  0.51100000000E-03 0. -1.
    9000002    1    1    2    0    0  0.84311730413E-01 -0.30784243947E+00  0.32510891386E+00  0.10427920413E+01  0.93800000000E+00 0. -1.
         22    1    1    2    0    0  0.35055048118E+00 -0.41261835277E-01  0.29956576931E+01  0.30163808104E+01  0.00000000000E+00 0. -1.
</event>
<event>
 5    1  0.4838219E+001  0.1565311E+01  0.7818608E-02  0.3391896E+00
         11   -1    0    0    0    0  0.00000000000E+00  0.00000000000E+00  0.39999999674E+01  0.40000000000E+01  0.51100000000E-03 0. -1.
    9000002   -1    0    0    0    0 -0.00000000000E+00 -0.00000000000E+00  0.00000000000E+00  0.93800000000E+00  0.93800000000E+00 0. -1.
         11    1    1    2    0    0 -0.83216816109E-01 -0.19363438452E+00  0.16001696023E+01  0.16139895695E+01  0.51100000000E-03 0. -1.
    9000002    1    1    2    0    0  0.21154349804E-01 -0.29898184880E-01  0.26210411225E-01  0.93908061083E+00  0.93800000000E+00 0. -1.
         22    1    1    2    0    0  0.62062466305E-01  0.22353256940E+00  0.23736199539E+01  0.23849298197E+01  0.00000000000E+00 0. -1.
</event>
<event>
 5    1  0.4838219E+001  0.1568101E+01  0.7818608E-02  0.3388730E+00
         11   -1    0    0    0    0  0.00000000000E+00  0.00000000000E+00  0.39999999674E+01  0.40000000000E+01  0.51100000000E-03 0.  1.
    9000002   -1    0    0    0    0 -0.00000000000E+00 -0.00000000000E+00  0.00000000000E+00  0.93800000000E+00  0.93800000000E+00 0. -1.
         11    1    1    2    0    0  0.13764581313E+00  0.15906665968E+00  0.16284282706E+01  0.16419584239E+01  0.51100000000E-03 0.  1.
    9000002    1    1    2    0    0 -0.29448644073E-01  0.23551353025E-01  0.24176491756E-01  0.93906889610E+00  0.93800000000E+00 0. -1.
         22    1    1    2    0    0 -0.10819716906E+00 -0.18261801270E+00  0.23473952050E+01  0.23569726800E+01  0.00000000000E+00 0.  1.
</event>
<event>
 5    1  0.4838219E+001  0.1567838E+01  0.7818608E-02  0.3389028E+00
         11   -1    0    0    0    0  0.00000000000E+00  0.00000000000E+00  0.39999999674E+01  0.40000000000E+01  0.51100000000E-03 0.  1.
    9000002   -1    0    0    0    0 -0.00000000000E+00 -0.00000000000E+00  0.00000000000E+00  0.93800000000E+00  0.93800000000E+00 0.  1.
         11    1    1    2    0    0 -0.13863134933E+00  0.37988148535E-01  0.58400212568E+00  0.60143203637E+00  0.51100000000E-03 0.  1.
    9000002    1    1    2    0    0 -0.30180169436E-01  0.10532601663E+00  0.31571385664E-01  0.94490484431E+00  0.93800000000E+00 0.  1.
         22    1    1    2    0    0  0.16881151877E+00 -0.14331416517E+00  0.33844264560E+01  0.33916631193E+01  0.00000000000E+00 0.  1.
</event>
<event>
 5    1  0.4838219E+001  0.1573937E+01  0.7818608E-02  0.3382146E+00
         11   -1    0    0    0    0  0.00000000000E+00  0.00000000000E+00  0.39999999674E+01  0.40000000000E+01  0.51100000000E-03 0.  1.
    9000002   -1    0    0    0    0 -0.00000000000E+00 -0.00000000000E+00  0.00000000000E+00  0.93800000000E+00  0.93800000000E+00 0.  1.
         11    1    1    2    0    0 -0.15845771082E+00  0.72569512589E-01  0.23412919548E+01  0.23477698906E+01  0.51100000000E-03 0.  1.
    9000002    1    1    2    0    0 -0.39464461106E-01 -0.28450999509E-01  0.20463832668E-01  0.93948372605E+00  0.93800000000E+00 0.  1.
         22    1    1    2    0    0  0.19792217193E+00 -0.44118513080E-01  0.16382441799E+01  0.16507463834E+01  0.00000000000E+00 0.  1.
</event>
<event>
 5    1  0.4838219E+001  0.1539708E+01  0.7818608E-02  0.3421520E+00
         11   -1    0    0    0    0  0.00000000000E+00  0.00000000000E+00  0.39999999674E+01  0.40000000000E+01  0.51100000000E-03 0. -1.
    9000002   -1    0    0    0    0 -0.00000000000E+00 -0.00000000000E+00  0.00000000000E+00  0.93800000000E+00  0.93800000000E+00 0. -1.
         11    1    1    2    0    0 -0.25296400956E+00 -0.12473877197E+00  0.11948985194E+01  0.12277350220E+01  0.51100000000E-03 0. -1.
    9000002    1    1    2    0    0  0.57220996353E-02  0.73356236354E-01  0.48510045268E-01  0.94213115028E+00  0.93800000000E+00 0. -1.
         22    1    1    2    0    0  0.24724190993E+00  0.51382535613E-01  0.27565914026E+01  0.27681338277E+01  0.00000000000E+00 0. -1.
</event>
<event>
 5    1  0.4838219E+001  0.1491975E+01  0.7818608E-02  0.3479657E+00
         11   -1    0    0    0    0  0.00000000000E+00  0.00000000000E+00  0.39999999674E+01  0.40000000000E+01  0.51100000000E-03 0.  1.
    9000002   -1    0    0    0    0 -0.00000000000E+00 -0.00000000000E+00  0.00000000000E+00  0.93800000000E+00  0.93800000000E+00 0.  1.
         11    1    1    2    0    0 -0.16227025583E+00 -0.25135508406E+00  0.21218304194E+01  0.21428195453E+01  0.51100000000E-03 0.  1.
    9000002    1    1    2    0    0  0.10826921563E+00 -0.23502831022E+00  0.13226409255E+00  0.98198692447E+00  0.93800000000E+00 0.  1.
         22    1    1    2    0    0  0.54001040203E-01  0.48638339428E+00  0.17459054554E+01  0.18131935302E+01  0.00000000000E+00 0.  1.
</event>
<event>
 5    1  0.4838219E+001  0.1588391E+01  0.7818608E-02  0.3366060E+00
         11   -1    0    0    0    0  0.00000000000E+00  0.00000000000E+00  0.39999999674E+01  0.40000000000E+01  0.51100000000E-03 0. -1.
    9000002   -1    0    0    0    0 -0.00000000000E+00 -0.00000000000E+00  0.00000000000E+00  0.93800000000E+00  0.93800000000E+00 0. -1.
         11    1    1    2    0    0 -0.81861523179E-01 -0.11376880722E+00  0.16549091300E+01  0.16608338689E+01  0.51100000000E-03 0. -1.
    9000002    1    1    2    0    0 -0.74780189339E-01  0.39708186273E+00  0.11966179404E+00  0.10283136814E+01  0.93800000000E+00 0. -1.
         22    1    1    2    0    0  0.15664171252E+00 -0.28331305551E+00  0.22254290433E+01  0.22488524497E+01  0.00000000000E+00 0. -1.
</event>
<event>
 5    1  0.4838219E+001  0.1588838E+01  0.7818608E-02  0.3365568E+00
         11   -1    0    0    0    0  0.00000000000E+00  0.00000000000E+00  0.39999999674E+01  0.40000000000E+01  0.51100000000E-03 0.  1.
    9000002   -1    0    0    0    0 -0.00000000000E+00 -0.00000000000E+00  0.00000000000E+00  0.93800000000E+00  0.93800000000E+00 0.  1.
         11    1    1    2    0    0 -0.33487225680E+00  0.25350906560E+00  0.23929067035E+01  0.24294874002E+01  0.51100000000E-03 0.  1.
    9000002    1    1    2    0    0  0.56491158779E+00 -0.21287799536E+00  0.26537153686E+00  0.11466072543E+01  0.93800000000E+00 0.  1.
         22    1    1    2    0    0 -0.23003933099E+00 -0.40631070240E-01  0.13417217270E+01  0.13619053456E+01  0.00000000000E+00 0.  1.
</event>
<event>
 5    1  0.4838219E+001  0.1474502E+01  0.7818608E-02  0.3501955E+00
         11   -1    0    0    0    0  0.00000000000E+00  0.00000000000E+00  0.39999999674E+01  0.40000000000E+01  0.51100000000E-03 0.  1.
    9000002   -1    0    0    0    0 -0.00000000000E+00 -0.00000000000E+00  0.00000000000E+00  0.93800000000E+00  0.93800000000E+00 0. -1.
         11    1    1    2    0    0  0.42470562171E+00 -0.26853205065E+00  0.49139628140E+00  0.70281924692E+00  0.51100000000E-03 0.  1.
    9000002    1    1    2    0    0 -0.62831937051E+00  0.32831231458E+00  0.60214100165E+00  0.13209814507E+01  0.93800000000E+00 0. -1.
         22    1    1    2    0    0  0.20361374880E+00 -0.59780263930E-01  0.29064626843E+01  0.29141993024E+01  0.00000000000E+00 0.  1.
</event>
<event>
 5    1  0.4838219E+001  0.1583530E+01  0.7818608E-02  0.3371436E+00
         11   -1    0    0    0    0  0.00000000000E+00  0.00000000000E+00  0.39999999674E+01  0.40000000000E+01  0.51100000000E-03 0.  1.
    9000002   -1    0    0    0    0 -0.00000000000E+00 -0.00000000000E+00  0.00000000000E+00  0.93800000000E+00  0.93800000000E+00 0.  1.
         11    1    1    2    0    0 -0.39977208272E-01  0.99127833321E-01  0.15765809843E+01  0.15802001031E+01  0.51100000000E-03 0.  1.
    9000002    1    1    2    0    0 -0.16519274477E+00  0.17423281248E-01  0.30300309367E-01  0.95307624165E+00  0.93800000000E+00 0.  1.
         22    1    1    2    0    0  0.20516995305E+00 -0.11655111457E+00  0.23931186737E+01  0.24047236553E+01  0.00000000000E+00 0.  1.
</event>
<event>
 5    1  0.4838219E+001  0.1563754E+01  0.7818608E-02  0.3393668E+00
         11   -1    0    0    0    0  0.00000000000E+00  0.00000000000E+00  0.39999999674E+01  0.40000000000E+01  0.51100000000E-03 0.  1.
    9000002   -1    0    0    0    0 -0.00000000000E+00 -0.00000000000E+00  0.00000000000E+00  0.93800000000E+00  0.93800000000E+00 0. -1.
         11    1    1    2    0    0  0.33213547597E-01  0.18637864482E+00  0.67771028290E+00  0.70365590146E+00  0.51100000000E-03 0.  1.
    9000002    1    1    2    0    0  0.19501684594E+00 -0.15273943364E+00  0.68700699625E-01  0.97258659816E+00  0.93800000000E+00 0. -1.
         22    1    1    2    0    0 -0.22823039353E+00 -0.33639211187E-01  0.32535889848E+01  0.32617575004E+01  0.00000000000E+00 0.  1.
</event>
<event>
 5    1  0.4838219E+001  0.1349430E+01  0.7818608E-02  0.3691528E+00
         11   -1    0    0    0    0  0.00000000000E+00  0.00000000000E+00  0.39999999674E+01  0.40000000000E+01  0.51100000000E-03 0.  1.
    9000002   -1    0    0    0    0 -0.00000000000E+00 -0.00000000000E+00  0.00000000000E+00  0.93800000000E+00  0.93800000000E+00 0.  1.
         11    1    1    2    0    0  0.53745771736E+00  0.35010458240E-01  0.16188659176E+01  0.17061106794E+01  0.51100000000E-03 0.  1.
    9000002    1    1    2    0    0  0.12138225515E+00  0.12036565912E+00  0.23563003771E+00  0.98213393101E+00  0.93800000000E+00 0.  1.
         22    1    1    2    0    0 -0.65883997251E+00 -0.15537611736E+00  0.21455040121E+01  0.22497553896E+01  0.00000000000E+00 0.  1.
</event>
<event>
 5    1  0.4838219E+001  0.1502723E+01  0.7818608E-02  0.3466220E+00
         11   -1    0    0    0    0  0.00000000000E+00  0.00000000000E+00  0.39999999674E+01  0.40000000000E+01  0.51100000000E-03 0. -1.
    9000002   -1    0    0    0    0 -0.00000000000E+00 -0.00000000000E+00  0.00000000000E+00  0.93800000000E+00  0.93800000000E+00 0.  1.
         11    1    1    2    0    0 -0.30131104271E+00 -0.33313946707E+00  0.15986632966E+01  0.16605706387E+01  0.51100000000E-03 0. -1.
    9000002    1    1    2    0    0  0.12912242388E+00  0.14422109763E+00  0.10116065750E+00  0.96309387080E+00  0.93800000000E+00 0.  1.
         22    1    1    2    0    0  0.17218861884E+00  0.18891836944E+00  0.23001760133E+01  0.23143354905E+01  0.00000000000E+00 0. -1.
</event>
<event>
 5    1  0.4838219E+001  0.1564595E+01  0.7818608E-02  0.3392711E+00
         11   -1    0    0    0    0  0.00000000000E+00  0.00000000000E+00  0.39999999674E+01  0.40000000000E+01  0.51100000000E-03 0.  1.
    9000002   -1    0    0    0    0 -0.00000000000E+00 -0.00000000000E+00  0.00000000000E+00  0.93800000000E+00  0.93800000000E+00 0.  1.
         11    1    1    2    0    0 -0.20145371720E+00  0.81930884125E-01  0.14681168519E+01  0.14841373326E+01  0.51100000000E-03 0.  1.
    9000002    1    1    2    0    0  0.97232575131E-01  0.16138800354E+00  0.50146419081E-01  0.95804954188E+00  0.93800000000E+00 0.  1.
         22    1    1    2    0    0  0.10422114207E+00 -0.24331888767E+00  0.24817366964E+01  0.24958131255E+01  0.00000000000E+00 0.  1.
</event>
<event>
 5    1  0.4838219E+001  0.1586903E+01  0.7818608E-02  0.3367702E+00
         11   -1    0    0    0    0  0.00000000000E+00  0.00000000000E+00  0.39999999674E+01  0.40000000000E+01  0.51100000000E-03 0.  1.
    9000002   -1    0    0    0    0 -0.00000000000E+00 -0.00000000000E+00  0.00000000000E+00  0.93800000000E+00  0.93800000000E+00 0. -1.
         11    1    1    2    0    0  0.83206897587E-01 -0.31383115829E-01  0.34347465428E+00  0.35480048904E+00  0.51100000000E-03 0.  1.
    9000002    1    1    2    0    0 -0.73897330180E-01  0.25546171135E+00  0.56936200252E-01  0.97663055055E+00  0.93800000000E+00 0. -1.
         22    1    1    2    0    0 -0.93095674075E-02 -0.22407859552E+00  0.35995891128E+01  0.36065689604E+01  0.00000000000E+00 0.  1.
</event>
<event>
 5    1  0.4838219E+001  0.1460678E+01  0.7818608E-02  0.3520006E+00
         11   -1    0    0    0    0  0.00000000000E+00  0.00000000000E+00  0.39999999674E+01  0.40000000000E+01  0.51100000000E-03 0. -1.
    9000002   -1    0    0    0    0 -0.00000000000E+00 -0.00000000000E+00  0.00000000000E+00  0.93800000000E+00  0.93800000000E+00 0. -1.
         11    1    1    2    0    0  0.71114832708E-01  0.31878579783E+00  0.79487281324E+00  0.85936299355E+00  0.51100000000E-03 0. -1.
    9000002    1    1    2    0    0 -0.51352894925E+00  0.23398514060E+00  0.36857069631E+00  0.11550538455E+01  0.93800000000E+00 0. -1.
         22    1    1    2    0    0  0.44241411654E+00 -0.55277093843E+00  0.28365564578E+01  0.29235831610E+01  0.00000000000E+00 0. -1.
</event>
<event>
 5    1  0.4838219E+001  0.1544605E+01  0.7818608E-02  0.3415773E+00
         11   -1    0    0    0    0  0.00000000000E+00  0.00000000000E+00  0.39999999674E+01  0.40000000000E+01  0.51100000000E-03 0.  1.
    9000002   -1    0    0    0    0 -0.00000000000E+00 -0.00000000000E+00  0.00000000000E+00  0.93800000000E+00  0.93800000000E+00 0.  1.
         11    1    1    2    0    0 -0.54045284467E-01  0.29477884635E+00  0.14041441983E+01  0.14357704035E+01  0.51100000000E-03 0.  1.
    9000002    1    1    2    0    0  0.20439719980E+00 -0.68107193827E-01  0.73474649880E-01  0.96522501486E+00  0.93800000000E+00 0.  1.
         22    1    1    2    0    0 -0.15035191533E+00 -0.22667165252E+00  0.25223811192E+01  0.25370045816E+01  0.00000000000E+00 0.  1.
</event>
<event>
 5    1  0.4838219E+001  0.1556932E+01  0.7818608E-02  0.3401476E+00
         11   -1    0    0    0    0  0.00000000000E+00  0.00000000000E+00  0.39999999674E+01  0.40000000000E+01  0.51100000000E-03 0.  1.
    9000002   -1    0    0    0    0 -0.00000000000E+00 -0.00000000000E+00  0.00000000000E+00  0.93800000000E+00  0.93800000000E+00 0. -1.
         11    1    1    2    0    0 -0.20665718410E+00  0.14037108976E+00  0.28198444580E+01  0.28308893061E+01  0.51100000000E-03 0.  1.
    9000002    1    1    2    0    0  0.22749884160E+00  0.11109020913E+00  0.76047677673E-01  0.97453784266E+00  0.93800000000E+00 0. -1.
         22    1    1    2    0    0 -0.20841657492E-01 -0.25146129889E+00  0.11041078316E+01  0.11325728513E+01  0.00000000000E+00 0.  1.
</event>
<event>
 5    1  0.4838219E+001  0.1532763E+01  0.7818608E-02  0.3429738E+00
         11   -1    0    0    0    0  0.00000000000E+00  0.00000000000E+00  0.39999999674E+01  0.40000000000E+01  0.51100000000E-03 0.  1.
    9000002   -1    0    0    0    0 -0.00000000000E+00 -0.00000000000E+00  0.00000000000E+00  0.93800000000E+00  0.93800000000E+00 0. -1.
         11    1    1    2    0    0  0.22806697678E+00  0.92029695592E-01  0.26608945674E+01  0.26722358000E+01  0.51100000000E-03 0.  1.
    9000002    1    1    2    0    0  0.70362265872E-01  0.94654996704E-02  0.53635737887E-01  0.94221082382E+00  0.93800000000E+00 0. -1.
         22    1    1    2    0    0 -0.29842924266E+00 -0.10149519526E+00  0.12854696620E+01  0.13235533762E+01  0.00000000000E+00 0. -1.
</event>
<event>
 5    1  0.4838219E+001  0.1556088E+01  0.7818608E-02  0.3402448E+00
         11   -1    0    0    0    0  0.00000000000E+00  0.00000000000E+00  0.39999999674E+01  0.40000000000E+01  0.51100000000E-03 0. -1.
    9000002   -1    0    0    0    0 -0.00000000000E+00 -0.00000000000E+00  0.00000000000E+00  0.93800000000E+00  0.93800000000E+00 0.  1.
         11    1    1    2    0    0 -0.24922544582E+00  0.15155181321E-01  0.15439436678E+01  0.15640029773E+01  0.51100000000E-03 0. -1.
    9000002    1    1    2    0    0  0.37172147020E-01  0.14296577994E+00  0.47276020089E-01  0.95073655911E+00  0.93800000000E+00 0.  1.
         22    1    1    2    0    0  0.21205329880E+00 -0.15812096126E+00  0.24087802794E+01  0.24232604636E+01  0.00000000000E+00 0. -1.
</event>
<event>
 5    1  0.4838219E+001  0.1551654E+01  0.7818608E-02  0.3407568E+00
         11   -1    0    0    0    0  0.00000000000E+00  0.00000000000E+00  0.39999999674E+01  0.40000000000E+01  0.51100000000E-03 0.  1.
    9000002   -1    0    0    0    0 -0.00000000000E+00 -0.00000000000E+00  0.00000000000E+00  0.93800000000E+00  0.93800000000E+00 0. -1.
         11    1    1    2    0    0  0.17816423250E+00 -0.19732641477E+00  0.18981714458E+01  0.19166990652E+01  0.51100000000E-03 0.  1.
    9000002    1    1    2    0    0 -0.16255544574E-01 -0.75315372004E-02  0.35817446150E-01  0.93885454477E+00  0.93800000000E+00 0. -1.
         22    1    1    2    0    0 -0.16190868792E+00  0.20485795197E+00  0.20660110754E+01  0.20824463900E+01  0.00000000000E+00 0.  1.
</event>
<event>
 5    1  0.4838219E+001  0.1589721E+01  0.7818608E-02  0.3364596E+00
         11   -1    0    0    0    0  0.00000000000E+00  0.00000000000E+00  0.39999999674E+01  0.40000000000E+01  0.51100000000E-03 0.  1.
    9000002   -1    0    0    0    0 -0.00000000000E+00 -0.00000000000E+00  0.00000000000E+00  0.93800000000E+00  0.93800000000E+00 0. -1.
         11    1    1    2    0    0 -0.46646513565E-01  0.19555021906E+00  0.95711278822E+00  0.97799843348E+00  0.51100000000E-03 0.  1.
    9000002    1    1    2    0    0  0.14704527508E+00 -0.37191555909E+00  0.11621398995E+00  0.10263007296E+01  0.93800000000E+00 0. -1.
         22    1    1    2    0    0 -0.10039876152E+00  0.17636534004E+00  0.29266731892E+01  0.29337008370E+01  0.00000000000E+00 0.  1.
</event>
<event>
 5    1  0.4838219E+001  0.1354399E+01  0.7818608E-02  0.3682877E+00
         11   -1    0    0    0    0  0.00000000000E+00  0.00000000000E+00  0.39999999674E+01  0.40000000000E+01  0.51100000000E-03 0. -1.
    9000002   -1    0    0    0    0 -0.00000000000E+00 -0.00000000000E+00  0.00000000000E+00  0.93800000000E+00  0.93800000000E+00 0.  1.
         11    1    1    2    0    0  0.94719776279E-01  0.79094138879E+00  0.24565400109E+01  0.25824695938E+01  0.51100000000E-03 0. -1.
    9000002    1    1    2    0    0 -0.11114214380E+00 -0.34424469994E+00  0.32325550132E+00  0.10560279867E+01  0.93800000000E+00 0.  1.
         22    1    1    2    0    0  0.16422367524E-01 -0.44669668886E+00  0.12202044551E+01  0.12995024195E+01  0.00000000000E+00 0.  1.
</event>
<event>
 5    1  0.4838219E+001  0.1530807E+01  0.7818608E-02  0.3432066E+00
         11   -1    0    0    0    0  0.00000000000E+00  0.00000000000E+00  0.39999999674E+01  0.40000000000E+01  0.51100000000E-03 0.  1.
    9000002   -1    0    0    0    0 -0.00000000000E+00 -0.00000000000E+00  0.00000000000E+00  0.93800000000E+00  0.93800000000E+00 0.  1.
         11    1    1    2    0    0  0.51230948956E+00  0.45560264222E-01  0.29112494442E+01  0.29563339355E+01  0.51100000000E-03 0.  1.
    9000002    1    1    2    0    0 -0.33249711365E+00 -0.15855392963E+00  0.14957434084E+00  0.10187787604E+01  0.93800000000E+00 0.  1.
         22    1    1    2    0    0 -0.17981237591E+00  0.11299366541E+00  0.93917618229E+00  0.96288730407E+00  0.00000000000E+00 0. -1.
</event>
<event>
 5    1  0.4838219E+001  0.1543201E+01  0.7818608E-02  0.3417416E+00
         11   -1    0    0    0    0  0.00000000000E+00  0.00000000000E+00  0.39999999674E+01  0.40000000000E+01  0.51100000000E-03 0. -1.
    9000002   -1    0    0    0    0 -0.00000000000E+00 -0.00000000000E+00  0.00000000000E+00  0.93800000000E+00  0.93800000000E+00 0.  1.
         11    1    1    2    0    0 -0.24219928856E+00 -0.27975744517E+00  0.27600888648E+01  0.27847828508E+01  0.51100000000E-03 0. -1.
    9000002    1    1    2    0    0  0.94418784798E-01  0.12230506581E+00  0.58722999166E-01  0.95245253251E+00  0.93800000000E+00 0.  1.
         22    1    1    2    0    0  0.14778050376E+00  0.15745237936E+00  0.11811881034E+01  0.12007646167E+01  0.00000000000E+00 0.  1.
</event>
<event>
 5    1  0.4838219E+001  0.1556731E+01  0.7818608E-02  0.3401708E+00
         11   -1    0    0    0    0  0.00000000000E+00  0.00000000000E+00  0.39999999674E+01  0.40000000000E+01  0.51100000000E-03 0. -1.
    9000002   -1    0    0    0    0 -0.00000000000E+00 -0.00000000000E+00  0.00000000000E+00  0.93800000000E+00  0.93800000000E+00 0.  1.
         11    1    1    2    0    0 -0.26988425408E+00  0.61638249684E-02  0.28380139021E+01  0.28508242094E+01  0.51100000000E-03 0. -1.
    9000002    1    1    2    0    0  0.94335594238E-01 -0.14473118386E+00  0.52335423508E-01  0.95521166056E+00  0.93800000000E+00 0.  1.
         22    1    1    2    0    0  0.17554865984E+00  0.13856735889E+00  0.11096506418E+01  0.11319641301E+01  0.00000000000E+00 0. -1.
</event>
<event>
 5    1  0.4838219E+001  0.1453952E+01  0.7818608E-02  0.3528923E+00
         11   -1    0    0    0    0  0.00000000000E+00  0.00000000000E+00  0.39999999674E+01  0.40000000000E+01  0.51100000000E-03 0.  1.
    9000002   -1    0    0    0    0 -0.00000000000E+00 -0.00000000000E+00  0.00000000000E+00  0.93800000000E+00  0.93800000000E+00 0. -1.
         11    1    1    2    0    0  0.38814968259E+00 -0.12825676493E+00  0.68069089941E+00  0.79400902734E+00  0.51100000000E-03 0.  1.
    9000002    1    1    2    0    0 -0.22290224796E+00 -0.86926251250E-01  0.16979222562E+00  0.98280974007E+00  0.93800000000E+00 0. -1.
         22    1    1    2    0    0 -0.16524743462E+00  0.21518301618E+00  0.31495168423E+01  0.31611812326E+01  0.00000000000E+00 0.  1.
</event>
<event>
 5    1  0.4838219E+001  0.1577996E+01  0.7818608E-02  0.3377597E+00
         11   -1    0    0    0    0  0.00000000000E+00  0.00000000000E+00  0.39999999674E+01  0.40000000000E+01  0.51100000000E-03 0.  1.
    9000002   -1    0    0    0    0 -0.00000000000E+00 -0.00000000000E+00  0.00000000000E+00  0.93800000000E+00  0.93800000000E+00 0. -1.
         11    1    1    2    0    0 -0.60201187660E-01  0.98639664005E-01  0.20847558110E+01  0.20879561822E+01  0.51100000000E-03 0.  1.
    9000002    1    1    2    0    0  0.46445709315E-01  0.14234114727E+00  0.30977091508E-01  0.95037981161E+00  0.93800000000E+00 0. -1.
         22    1    1    2    0    0  0.13755478345E-01 -0.24098081128E+00  0.18842670649E+01  0.18996640062E+01  0.00000000000E+00 0.  1.
</event>
<event>
 5    1  0.4838219E+001  0.1457920E+01  0.7818608E-02  0.3523651E+00
         11   -1    0    0    0    0  0.00000000000E+00  0.00000000000E+00  0.39999999674E+01  0.40000000000E+01  0.51100000000E-03 0. -1.
    9000002   -1    0    0    0    0 -0.00000000000E+00 -0.00000000000E+00  0.00000000000E+00  0.93800000000E+00  0.93800000000E+00 0. -1.
         11    1    1    2    0    0  0.38102317811E+00 -0.17288210531E-01  0.64173145474E+00  0.74652331887E+00  0.51100000000E-03 0. -1.
    9000002    1    1    2    0    0 -0.70938240286E-01 -0.72242996193E-01  0.13613597318E+00  0.95321995763E+00  0.93800000000E+00 0. -1.
         22    1    1    2    0    0 -0.31008493782E+00  0.89531206723E-01  0.32221325394E+01  0.32382567235E+01  0.00000000000E+00 0. -1.
</event>
<event>
 5    1  0.4838219E+001  0.1578325E+01  0.7818608E-02  0.3377230E+00
         11   -1    0    0    0    0  0.00000000000E+00  0.00000000000E+00  0.39999999674E+01  0.40000000000E+01  0.51100000000E-03 0.  1.
    9000002   -1    0    0    0    0 -0.00000000000E+00 -0.00000000000E+00  0.00000000000E+00  0.93800000000E+00  0.93800000000E+00 0.  1.
         11    1    1    2    0    0 -0.30233541891E+00  0.65982765432E+00  0.22735134622E+01  0.23865546218E+01  0.51100000000E-03 0.  1.
    9000002    1    1    2    0    0  0.21734101078E+00 -0.88168391425E+00  0.66779448407E+00  0.14664232379E+01  0.93800000000E+00 0.  1.
         22    1    1    2    0    0  0.84994408125E-01  0.22185625993E+00  0.10586920211E+01  0.10850221403E+01  0.00000000000E+00 0.  1.
</event>
<event>
 5    1  0.4838219E+001  0.1503497E+01  0.7818608E-02  0.3465261E+00
         11   -1    0    0    0    0  0.00000000000E+00  0.00000000000E+00  0.39999999674E+01  0.40000000000E+01  0.51100000000E-03 0.  1.
    9000002   -1    0    0    0    0 -0.00000000000E+00 -0.00000000000E+00  0.00000000000E+00  0.93800000000E+00  0.93800000000E+00 0. -1.
         11    1    1    2    0    0  0.12048567900E-01  0.18142354153E+00  0.33234695499E+01  0.33284395413E+01  0.51100000000E-03 0.  1.
    9000002    1    1    2    0    0  0.13863991886E-01  0.10745486813E+00  0.81673597898E-01  0.94776227797E+00  0.93800000000E+00 0. -1.
         22    1    1    2    0    0 -0.25912559786E-01 -0.28887840965E+00  0.59485681953E+00  0.66179818076E+00  0.00000000000E+00 0.  1.
</event>
<event>
 5    1  0.4838219E+001  0.1573510E+01  0.7818608E-02  0.3382627E+00
         11   -1    0    0    0    0  0.00000000000E+00  0.00000000000E+00  0.39999999674E+01  0.40000000000E+01  0.51100000000E-03 0. -1.
    9000002   -1    0    0    0    0 -0.00000000000E+00 -0.00000000000E+00  0.00000000000E+00  0.93800000000E+00  0.93800000000E+00 0.  1.
         11    1    1    2    0    0  0.36476826133E-02  0.11477975964E+00  0.27789077945E+01  0.27812796497E+01  0.51100000000E-03 0. -1.
    9000002    1    1    2    0    0 -0.20151243688E-01  0.91310007681E-01  0.25093612490E-01  0.94298318093E+00  0.93800000000E+00 0.  1.
         22    1    1    2    0    0  0.16503561075E-01 -0.20608976732E+00  0.11959985604E+01  0.12137371693E+01  0.00000000000E+00 0. -1.
</event>
<event>
 5    1  0.4838219E+001  0.1541478E+01  0.7818608E-02  0.3419438E+00
         11   -1    0    0    0    0  0.00000000000E+00  0.00000000000E+00  0.39999999674E+01  0.40000000000E+01  0.51100000000E-03 0. -1.
    9000002   -1    0    0    0    0 -0.00000000000E+00 -0.00000000000E+00  0.00000000000E+00  0.93800000000E+00  0.93800000000E+00 0. -1.
         11    1    1    2    0    0  0.64463859786E-01 -0.26500990062E+00  0.12849428544E+01  0.13135692737E+01  0.51100000000E-03 0. -1.
    9000002    1    1    2    0    0  0.12450627773E-01  0.46268051908E-02  0.43488722130E-01  0.93910153573E+00  0.93800000000E+00 0. -1.
         22    1    1    2    0    0 -0.76914487559E-01  0.26038309543E+00  0.26715683909E+01  0.26853291906E+01  0.00000000000E+00 0. -1.
</event>
<event>
 5    1  0.4838219E+001  0.1537443E+01  0.7818608E-02  0.3424191E+00
         11   -1    0    0    0    0  0.00000000000E+00  0.00000000000E+00  0.39999999674E+01  0.40000000000E+01  0.51100000000E-03 0. -1.
    9000002   -1    0    0    0    0 -0.00000000000E+00 -0.00000000000E+00  0.00000000000E+00  0.93800000000E+00  0.93800000000E+00 0. -1.
         11    1    1    2    0    0  0.15399848141E+00  0.14695126276E+00  0.24762019778E+01  0.24853343240E+01  0.51100000000E-03 0. -1.
    9000002    1    1    2    0    0  0.21329299759E+00 -0.21268894872E+00  0.11098278657E+00  0.99140893210E+00  0.93800000000E+00 0. -1.
         22    1    1    2    0    0 -0.36729147901E+00  0.65737685953E-01  0.14128152029E+01  0.14612567439E+01  0.00000000000E+00 0.  1.
</event>
<event>
 5    1  0.4838219E+001  0.1455126E+01  0.7818608E-02  0.3527359E+00
         11   -1    0    0    0    0  0.00000000000E+00  0.00000000000E+00  0.39999999674E+01  0.40000000000E+01  0.51100000000E-03 0. -1.
    9000002   -1    0    0    0    0 -0.00000000000E+00 -0.00000000000E+00  0.00000000000E+00  0.93800000000E+00  0.93800000000E+00 0. -1.
         11    1    1    2    0    0  0.23225862482E+00  0.32769313930E+00  0.35781530583E+01  0.36006258389E+01  0.51100000000E-03 0. -1.
    9000002    1    1    2    0    0 -0.75525430030E-01 -0.14421636912E+00  0.13343429312E+00  0.96132781208E+00  0.93800000000E+00 0. -1.
         22    1    1    2    0    0 -0.15673319479E+00 -0.18347677018E+00  0.28841261596E+00  0.37604634899E+00  0.00000000000E+00 0.  1.
</event>
<event>
 5    1  0.4838219E+001  0.1452821E+01  0.7818608E-02  0.3530431E+00
         11   -1    0    0    0    0  0.00000000000E+00  0.00000000000E+00  0.39999999674E+01  0.40000000000E+01  0.51100000000E-03 0.  1.
    9000002   -1    0    0    0    0 -0.00000000000E+00 -0.00000000000E+00  0.00000000000E+00  0.93800000000E+00  0.93800000000E+00 0.  1.
         11    1    1    2    0    0  0.22367771628E+00 -0.90396752557E-01  0.20668513378E+00  0.31768270221E+00  0.51100000000E-03 0.  1.
    9000002    1    1    2    0    0  0.22840868296E-01  0.17885590196E+00  0.14914383251E+00  0.96674661712E+00  0.93800000000E+00 0.  1.
         22    1    1    2    0    0 -0.24651858458E+00 -0.88459149404E-01  0.36441710011E+01  0.36535706807E+01  0.00000000000E+00 0.  1.
</event>
<event>
 5    1  0.4838219E+001  0.1577780E+01  0.7818608E-02  0.3377838E+00
         11   -1    0    0    0    0  0.00000000000E+00  0.00000000000E+00  0.39999999674E+01  0.40000000000E+01  0.51100000000E-03 0. -1.
    9000002   -1    0    0    0    0 -0.00000000000E+00 -0.00000000000E+00  0.00000000000E+00  0.93800000000E+00  0.93800000000E+00 0. -1.
         11    1    1    2    0    0  0.42044973092E-01  0.14617256004E+00  0.22595262750E+01  0.22646398048E+01  0.51100000000E-03 0. -1.
    9000002    1    1    2    0    0 -0.80013146994E-01  0.53243619961E-01  0.22236491701E-01  0.94317307443E+00  0.93800000000E+00 0. -1.
         22    1    1    2    0    0  0.37968173902E-01 -0.19941618000E+00  0.17182372007E+01  0.17301871208E+01  0.00000000000E+00 0. -1.
</event>
<event>
 5    1  0.4838219E+001  0.1537967E+01  0.7818608E-02  0.3423572E+00
         11   -1    0    0    0    0  0.00000000000E+00  0.00000000000E+00  0.39999999674E+01  0.40000000000E+01  0.51100000000E-03 0. -1.
    9000002   -1    0    0    0    0 -0.00000000000E+00 -0.00000000000E+00  0.00000000000E+00  0.93800000000E+00  0.93800000000E+00 0. -1.
         11    1    1    2    0    0  0.13965176026E+00 -0.38559452456E+00  0.21031249883E+01  0.21427367382E+01  0.51100000000E-03 0. -1.
    9000002    1    1    2    0    0 -0.22166231876E+00  0.16344183735E+00  0.99825488447E-01  0.98267825146E+00  0.93800000000E+00 0. -1.
         22    1    1    2    0    0  0.82010558501E-01  0.22215268721E+00  0.17970494906E+01  0.18125850104E+01  0.00000000000E+00 0. -1.
</event>
<event>
 5    1  0.4838219E+001  0.1565851E+01  0.7818608E-02  0.3391283E+00
         11   -1    0    0    0    0  0.00000000000E+00  0.00000000000E+00  0.39999999674E+01  0.40000000000E+01  0.51100000000E-03 0.  1.
    9000002   -1    0    0    0    0 -0.00000000000E+00 -0.00000000000E+00  0.00000000000E+00  0.93800000000E+00  0.93800000000E+00 0.  1.
         11    1    1    2    0    0  0.40635264896E-01 -0.11847934267E+00  0.24356551050E+00  0.27388500948E+00  0.51100000000E-03 0.  1.
    9000002    1    1    2    0    0  0.11533973702E+00  0.30000274001E+00  0.96344292276E-01  0.99620837258E+00  0.93800000000E+00 0.  1.
         22    1    1    2    0    0 -0.15597500192E+00 -0.18152339733E+00  0.36600901646E+01  0.36679066179E+01  0.00000000000E+00 0.  1.
</event>
<event>
 5    1  0.4838219E+001  0.1549404E+01  0.7818608E-02  0.3410178E+00
         11   -1    0    0    0    0  0.00000000000E+00  0.00000000000E+00  0.39999999674E+01  0.40000000000E+01  0.51100000000E-03 0.  1.
    9000002   -1    0    0    0    0 -0.00000000000E+00 -0.00000000000E+00  0.00000000000E+00  0.93800000000E+00  0.93800000000E+00 0.  1.
         11    1    1    2    0    0  0.37249552445E+00 -0.20862286783E+00  0.25408956561E+01  0.25765145863E+01  0.51100000000E-03 0.  1.
    9000002    1    1    2    0    0 -0.18044836802E+00  0.26805959714E+00  0.11079020181E+00  0.99826651249E+00  0.93800000000E+00 0.  1.
         22    1    1    2    0    0 -0.19204715644E+00 -0.59436729307E-01  0.13483141094E+01  0.13632189013E+01  0.00000000000E+00 0.  1.
</event>
<event>
 5    1  0.4838219E+001  0.1491577E+01  0.7818608E-02  0.3480159E+00
         11   -1    0    0    0    0  0.00000000000E+00  0.00000000000E+00  0.39999999674E+01  0.40000000000E+01  0.51100000000E-03 0. -1.
    9000002   -1    0    0    0    0 -0.00000000000E+00 -0.00000000000E+00  0.00000000000E+00  0.93800000000E+00  0.93800000000E+00 0.  1.
         11    1    1    2    0    0  0.14449843619E+00  0.34554157573E+00  0.95171745060E+00  0.10227634846E+01  0.51100000000E-03 0. -1.
    9000002    1    1    2    0    0  0.33518149720E-01 -0.15431353849E+00  0.10116805033E+00  0.95656422102E+00  0.93800000000E+00 0.  1.
         22    1    1    2    0    0 -0.17801658592E+00 -0.19122803723E+00  0.29471144664E+01  0.29586722943E+01  0.00000000000E+00 0. -1.
</event>
<event>
 5    1  0.4838219E+001  0.1592796E+01  0.7818608E-02  0.3361220E+00
         11   -1    0    0    0    0  0.00000000000E+00  0.00000000000E+00  0.39999999674E+01  0.40000000000E+01  0.51100000000E-03 0. -1.
    9000002   -1    0    0    0    0 -0.00000000000E+00 -0.00000000000E+00  0.00000000000E+00  0.93800000000E+00  0.93800000000E+00 0.  1.
         11    1    1    2    0    0  0.17860332631E-01  0.49635879657E-01  0.54424863910E+00  0.54679937300E+00  0.51100000000E-03 0. -1.
    9000002    1    1    2    0    0  0.17128286582E+00  0.37777909758E-01  0.25471501656E-01  0.95459823381E+00  0.93800000000E+00 0.  1.
         22    1    1    2    0    0 -0.18914319845E+00 -0.87413789415E-01  0.34302798266E+01  0.34366023932E+01  0.00000000000E+00 0. -1.
</event>
<event>
 5    1  0.4838219E+001  0.1516187E+01  0.7818608E-02  0.3449677E+00
         11   -1    0    0    0    0  0.00000000000E+00  0.00000000000E+00  0.39999999674E+01  0.40000000000E+01  0.51100000000E-03 0. -1.
    9000002   -1    0    0    0    0 -0.00000000000E+00 -0.00000000000E+00  0.00000000000E+00  0.93800000000E+00  0.93800000000E+00 0.  1.
         11    1    1    2    0    0 -0.29665455178E-01 -0.34556514162E+00  0.14869157762E+01  0.15268313899E+01  0.51100000000E-03 0. -1.
    9000002    1    1    2    0    0  0.34288016449E+00  0.59093474215E-01  0.15163844397E+00  0.10118779885E+01  0.93800000000E+00 0.  1.
         22    1    1    2    0    0 -0.31321470932E+00  0.28647166741E+00  0.23614457472E+01  0.23992906217E+01  0.00000000000E+00 0. -1.
</event>
<event>
 5    1  0.4838219E+001  0.1547565E+01  0.7818608E-02  0.3412318E+00
         11   -1    0    0    0    0  0.00000000000E+00  0.00000000000E+00  0.39999999674E+01  0.40000000000E+01  0.51100000000E-03 0. -1.
    9000002   -1    0    0    0    0 -0.00000000000E+00 -0.00000000000E+00  0.00000000000E+00  0.93800000000E+00  0.93800000000E+00 0.  1.
         11    1    1    2    0    0 -0.16270154973E+00  0.19880378614E+00  0.14447969208E+01  0.14674580550E+01  0.51100000000E-03 0. -1.
    9000002    1    1    2    0    0  0.44584550083E-01  0.59207710156E-01  0.42517113531E-01  0.94188377202E+00  0.93800000000E+00 0.  1.
         22    1    1    2    0    0  0.11811699965E+00 -0.25801149629E+00  0.25126859330E+01  0.25286581730E+01  0.00000000000E+00 0. -1.
</event>
<event>
 5    1  0.4838219E+001  0.1594596E+01  0.7818608E-02  0.3359250E+00
         11   -1    0    0    0    0  0.00000000000E+00  0.00000000000E+00  0.39999999674E+01  0.40000000000E+01  0.51100000000E-03 0. -1.
    9000002   -1    0    0    0    0 -0.00000000000E+00 -0.00000000000E+00  0.00000000000E+00  0.93800000000E+00  0.93800000000E+00 0.  1.
         11    1    1    2    0    0  0.29475698484E-01  0.16614820940E-01  0.35103508804E+00  0.35266239271E+00  0.51100000000E-03 0. -1.
    9000002    1    1    2    0    0  0.67610907921E-01  0.18980735715E+00  0.30698606610E-01  0.95988773935E+00  0.93800000000E+00 0.  1.
         22    1    1    2    0    0 -0.97086606405E-01 -0.20642217809E+00  0.36182662727E+01  0.36254498679E+01  0.00000000000E+00 0. -1.
</event>
<event>
 5    1  0.4838219E+001  0.1458740E+01  0.7818608E-02  0.3522565E+00
         11   -1    0    0    0    0  0.00000000000E+00  0.00000000000E+00  0.39999999674E+01  0.40000000000E+01  0.51100000000E-03 0.  1.
    9000002   -1    0    0    0    0 -0.00000000000E+00 -0.00000000000E+00  0.00000000000E+00  0.93800000000E+00  0.93800000000E+00 0. -1.
         11    1    1    2    0    0  0.27216733507E+00  0.93624900321E-01  0.36183785423E+01  0.36298077383E+01  0.51100000000E-03 0.  1.
    9000002    1    1    2    0    0 -0.98983205033E-01  0.73550507339E-01  0.12159084963E+00  0.95385307397E+00  0.93800000000E+00 0. -1.
         22    1    1    2    0    0 -0.17318413003E+00 -0.16717540766E+00  0.26003057539E+00  0.35433918773E+00  0.00000000000E+00 0.  1.
</event>
<event>
 5    1  0.4838219E+001  0.1579724E+01  0.7818608E-02  0.3375669E+00
         11   -1    0    0    0    0  0.00000000000E+00  0.00000000000E+00  0.39999999674E+01  0.40000000000E+01  0.51100000000E-03 0. -1.
    9000002   -1    0    0    0    0 -0.00000000000E+00 -0.00000000000E+00  0.00000000000E+00  0.93800000000E+00  0.93800000000E+00 0. -1.
         11    1    1    2    0    0 -0.13363971499E+00 -0.78651264955E-02  0.11429144661E+01  0.11507281049E+01  0.51100000000E-03 0. -1.
    9000002    1    1    2    0    0 -0.68806369058E-01 -0.12265102930E-01  0.17862988565E-01  0.94076981007E+00  0.93800000000E+00 0. -1.
         22    1    1    2    0    0  0.20244608404E+00  0.20130229425E-01  0.28392225127E+01  0.28465020850E+01  0.00000000000E+00 0. -1.
</event>
<event>
 5    1  0.4838219E+001  0.1538602E+01  0.7818608E-02  0.3422823E+00
         11   -1    0    0    0    0  0.00000000000E+00  0.00000000000E+00  0.39999999674E+01  0.40000000000E+01  0.51100000000E-03 0. -1.
    9000002   -1    0    0    0    0 -0.00000000000E+00 -0.00000000000E+00  0.00000000000E+00  0.93800000000E+00  0.93800000000E+00 0.  1.
         11    1    1    2    0    0 -0.28583592932E-01  0.39422685776E+00  0.14557796103E+01  0.15084847935E+01  0.51100000000E-03 0. -1.
    9000002    1    1    2    0    0 -0.21640737749E+00 -0.33326987656E+00  0.15907155851E+00  0.10310425425E+01  0.93800000000E+00 0.  1.
         22    1    1    2    0    0  0.24499097043E+00 -0.60956981202E-01  0.23851487985E+01  0.23984726640E+01  0.00000000000E+00 0. -1.
</event>
<event>
 5    1  0.4838219E+001  0.1559360E+01  0.7818608E-02  0.3398689E+00
         11   -1    0    0    0    0  0.00000000000E+00  0.00000000000E+00  0.39999999674E+01  0.40000000000E+01  0.51100000000E-03 0. -1.
    9000002   -1    0    0    0    0 -0.00000000000E+00 -0.00000000000E+00  0.00000000000E+00  0.93800000000E+00  0.93800000000E+00 0. -1.
         11    1    1    2    0    0  0.34931411463E-01 -0.20457928977E+00  0.11753813888E+01  0.11935638063E+01  0.51100000000E-03 0. -1.
    9000002    1    1    2    0    0 -0.10427134325E-02 -0.45572697173E-01  0.31190140195E-01  0.93962480960E+00  0.93800000000E+00 0. -1.
         22    1    1    2    0    0 -0.33888698031E-01  0.25015198694E+00  0.27934284383E+01  0.28048113841E+01  0.00000000000E+00 0. -1.
</event>
<event>
 5    1  0.4838219E+001  0.1554681E+01  0.7818608E-02  0.3404070E+00
         11   -1    0    0    0    0  0.00000000000E+00  0.00000000000E+00  0.39999999674E+01  0.40000000000E+01  0.51100000000E-03 0.  1.
    9000002   -1    0    0    0    0 -0.00000000000E+00 -0.00000000000E+00  0.00000000000E+00  0.93800000000E+00  0.93800000000E+00 0.  1.
         11    1    1    2    0    0  0.22469627517E+00  0.12617803285E+00  0.12377849656E+01  0.12643263796E+01  0.51100000000E-03 0.  1.
    9000002    1    1    2    0    0 -0.60514330264E-02 -0.14262321257E+00  0.47362960108E-01  0.94998171066E+00  0.93800000000E+00 0.  1.
         22    1    1    2    0    0 -0.21864484214E+00  0.16445179716E-01  0.27148520417E+01  0.27236919097E+01  0.00000000000E+00 0.  1.
</event>
<event>
 5    1  0.4838219E+001  0.1546166E+01  0.7818608E-02  0.3413949E+00
         11   -1    0    0    0    0  0.00000000000E+00  0.00000000000E+00  0.39999999674E+01  0.40000000000E+01  0.51100000000E-03 0.  1.
    9000002   -1    0    0    0    0 -0.00000000000E+00 -0.00000000000E+00  0.00000000000E+00  0.93800000000E+00  0.93800000000E+00 0.  1.
         11    1    1    2    0    0 -0.23220915195E-01  0.24576265556E+00  0.32925034321E+01  0.33017446305E+01  0.51100000000E-03 0.  1.
    9000002    1    1    2    0    0 -0.20986568684E+00 -0.25720253034E+00  0.11767157464E+00  0.10019417885E+01  0.93800000000E+00 0.  1.
         22    1    1    2    0    0  0.23308660204E+00  0.11439874777E-01  0.58982496065E+00  0.63431358096E+00  0.00000000000E+00 0. -1.
</event>
<event>
 5    1  0.4838219E+001  0.1574517E+01  0.7818608E-02  0.3381495E+00
         11   -1    0    0    0    0  0.00000000000E+00  0.00000000000E+00  0.39999999674E+01  0.40000000000E+01  0.51100000000E-03 0. -1.
    9000002   -1    0    0    0    0 -0.00000000000E+00 -0.00000000000E+00  0.00000000000E+00  0.93800000000E+00  0.93800000000E+00 0. -1.
         11    1    1    2    0    0  0.12224089718E+00 -0.36007470834E+00  0.27602221313E+00  0.46987780943E+00  0.51100000000E-03 0. -1.
    9000002    1    1    2    0    0  0.72865047648E-01  0.77953264141E-01  0.24910738317E+00  0.97636290124E+00  0.93800000000E+00 0. -1.
         22    1    1    2    0    0 -0.19510594483E+00  0.28212144420E+00  0.34748703711E+01  0.34917592893E+01  0.00000000000E+00 0. -1.
</event>
<event>
 5    1  0.4838219E+001  0.1588779E+01  0.7818608E-02  0.3365633E+00
         11   -1    0    0    0    0  0.00000000000E+00  0.00000000000E+00  0.39999999674E+01  0.40000000000E+01  0.51100000000E-03 0. -1.
    9000002   -1    0    0    0    0 -0.00000000000E+00 -0.00000000000E+00  0.00000000000E+00  0.93800000000E+00  0.93800000000E+00 0. -1.
         11    1    1    2    0    0 -0.98416463745E-01  0.10192894758E+00  0.78641259126E+00  0.79907467455E+00  0.51100000000E-03 0. -1.
    9000002    1    1    2    0    0  0.82437335769E-02 -0.36120488982E+00  0.96527446008E-01  0.10098012079E+01  0.93800000000E+00 0. -1.
         22    1    1    2    0    0  0.90172730168E-01  0.25927594224E+00  0.31170599301E+01  0.31291241176E+01  0.00000000000E+00 0. -1.
</event>
<event>
 5    1  0.4838219E+001  0.1551406E+01  0.7818608E-02  0.3407855E+00
         11   -1    0    0    0    0  0.00000000000E+00  0.00000000000E+00  0.39999999674E+01  0.40000000000E+01  0.51100000000E-03 0. -1.
    9000002   -1    0    0    0    0 -0.00000000000E+00 -0.00000000000E+00  0.00000000000E+00  0.93800000000E+00  0.93800000000E+00 0. -1.
         11    1    1    2    0    0  0.61172031869E-02 -0.33035426302E+00  0.20543515431E+01  0.20807527203E+01  0.51100000000E-03 0. -1.
    9000002    1    1    2    0    0  0.10202336175E+00  0.13992458970E+00  0.56579868391E-01  0.95552757085E+00  0.93800000000E+00 0. -1.
         22    1    1    2    0    0 -0.10814056494E+00  0.19042967332E+00  0.18890685559E+01  0.19017197089E+01  0.00000000000E+00 0. -1.
</event>
<event>
 5    1  0.4838219E+001  0.1597262E+01  0.7818608E-02  0.3356340E+00
         11   -1    0    0    0    0  0.00000000000E+00  0.00000000000E+00  0.39999999674E+01  0.40000000000E+01  0.51100000000E-03 0. -1.
    9000002   -1    0    0    0    0 -0.00000000000E+00 -0.00000000000E+00  0.00000000000E+00  0.93800000000E+00  0.93800000000E+00 0.  1.
         11    1    1    2    0    0 -0.19143247794E-01  0.10373772722E-02  0.38485515634E+00  0.38533270373E+00  0.51100000000E-03 0. -1.
    9000002    1    1    2    0    0 -0.24899138238E-01  0.27314346565E+00  0.51938841940E-01  0.97865671367E+00  0.93800000000E+00 0.  1.
         22    1    1    2    0    0  0.44042386032E-01 -0.27418084292E+00  0.35632059691E+01  0.35740105826E+01  0.00000000000E+00 0. -1.
</event>
<event>
 5    1  0.4838219E+001  0.1518430E+01  0.7818608E-02  0.3446951E+00
         11   -1    0    0    0    0  0.00000000000E+00  0.00000000000E+00  0.39999999674E+01  0.40000000000E+01  0.51100000000E-03 0.  1.
    9000002   -1    0    0    0    0 -0.00000000000E+00 -0.00000000000E+00  0.00000000000E+00  0.93800000000E+00  0.93800000000E+00 0.  1.
         11    1    1    2    0    0 -0.16587631339E+00  0.87141894459E-02  0.23957327768E+00  0.29152444999E+00  0.51100000000E-03 0.  1.
    9000002    1    1    2    0    0 -0.81895504630E-01 -0.29500951831E-01  0.66698978031E-01  0.94438865596E+00  0.93800000000E+00 0.  1.
         22    1    1    2    0    0  0.24777181802E+00  0.20786762385E-01  0.36937277117E+01  0.37020868941E+01  0.00000000000E+00 0.  1.
</event>
<event>
 5    1  0.4838219E+001  0.1467174E+01  0.7818608E-02  0.3511477E+00
         11   -1    0    0    0    0  0.00000000000E+00  0.00000000000E+00  0.39999999674E+01  0.40000000000E+01  0.51100000000E-03 0.  1.
    9000002   -1    0    0    0    0 -0.00000000000E+00 -0.00000000000E+00  0.00000000000E+00  0.93800000000E+00  0.93800000000E+00 0.  1.
         11    1    1    2    0    0  0.24667893454E-03  0.41141505783E+00  0.91504102340E+00  0.10032760070E+01  0.51100000000E-03 0.  1.
    9000002    1    1    2    0    0 -0.82319901615E-01 -0.14562481693E+00  0.12412423566E+00  0.96085065405E+00  0.93800000000E+00 0.  1.
         22    1    1    2    0    0  0.82073222681E-01 -0.26579024090E+00  0.29608347083E+01  0.29738733389E+01  0.00000000000E+00 0.  1.
</event>
<event>
 5    1  0.4838219E+001  0.1595386E+01  0.7818608E-02  0.3358387E+00
         11   -1    0    0    0    0  0.00000000000E+00  0.00000000000E+00  0.39999999674E+01  0.40000000000E+01  0.51100000000E-03 0.  1.
    9000002   -1    0    0    0    0 -0.00000000000E+00 -0.00000000000E+00  0.00000000000E+00  0.93800000000E+00  0.93800000000E+00 0.  1.
         11    1    1    2    0    0  0.13305908744E+00 -0.12112748412E+00  0.10462920729E+01  0.10616515205E+01  0.51100000000E-03 0.  1.
    9000002    1    1    2    0    0 -0.43030781502E+00  0.19285577612E+00  0.15529816951E+00  0.10612820961E+01  0.93800000000E+00 0.  1.
         22    1    1    2    0    0  0.29724872758E+00 -0.71728292007E-01  0.27984097250E+01  0.28150663834E+01  0.00000000000E+00 0.  1.
</event>
<event>
 5    1  0.4838219E+001  0.1536339E+01  0.7818608E-02  0.3425496E+00
         11   -1    0    0    0    0  0.00000000000E+00  0.00000000000E+00  0.39999999674E+01  0.40000000000E+01  0.51100000000E-03 0. -1.
    9000002   -1    0    0    0    0 -0.00000000000E+00 -0.00000000000E+00  0.00000000000E+00  0.93800000000E+00  0.93800000000E+00 0. -1.
         11    1    1    2    0    0 -0.85754408514E-01 -0.80065028471E-01  0.14661099136E+00  0.18777452243E+00  0.51100000000E-03 0. -1.
    9000002    1    1    2    0    0 -0.80602577216E-01 -0.64398698450E-01  0.54794110374E-01  0.94524619140E+00  0.93800000000E+00 0. -1.
         22    1    1    2    0    0  0.16635698573E+00  0.14446372692E+00  0.37985948656E+01  0.38049792862E+01  0.00000000000E+00 0. -1.
</event>
<event>
 5    1  0.5937976E+001  0.1564267E+01  0.7818608E-02  0.3393084E+00
         11   -1    0    0    0    0  0.00000000000E+00  0.00000000000E+00  0.39999999674E+01  0.40000000000E+01  0.51100000000E-03 0. -1.
    9000002   -1    0    0    0    0 -0.00000000000E+00 -0.00000000000E+00  0.00000000000E+00  0.93800000000E+00  0.93800000000E+00 0.  1.
         11    1    1    2    0    0  0.54250427701E-01 -0.17053296997E+00  0.87004146881E+00  0.88825504295E+00  0.51100000000E-03 0. -1.
    9000002    1    1    2    0    0 -0.21002445954E-01 -0.47889769139E-01  0.27943690842E-01  0.93987200330E+00  0.93800000000E+00 0.  1.
         22    1    1    2    0    0 -0.33247981747E-01  0.21842273911E+00  0.31020148077E+01  0.31098729538E+01  0.00000000000E+00 0. -1.
</event>
<event>
 5    1  0.4838219E+001  0.1589791E+01  0.7818608E-02  0.3364519E+00
         11   -1    0    0    0    0  0.00000000000E+00  0.00000000000E+00  0.39999999674E+01  0.40000000000E+01  0.51100000000E-03 0.  1.
    9000002   -1    0    0    0    0 -0.00000000000E+00 -0.00000000000E+00  0.00000000000E+00  0.93800000000E+00  0.93800000000E+00 0.  1.
         11    1    1    2    0    0 -0.25101894948E-01  0.86340763489E-01  0.12418335912E+01  0.12450846405E+01  0.51100000000E-03 0.  1.
    9000002    1    1    2    0    0  0.20027658358E+00  0.57657769164E-01  0.36237740910E-01  0.96155722770E+00  0.93800000000E+00 0.  1.
         22    1    1    2    0    0 -0.17517468863E+00 -0.14399853265E+00  0.27219286352E+01  0.27313581318E+01  0.00000000000E+00 0.  1.
</event>
<event>
 5    1  0.4838219E+001  0.1570758E+01  0.7818608E-02  0.3385726E+00
         11   -1    0    0    0    0  0.00000000000E+00  0.00000000000E+00  0.39999999674E+01  0.40000000000E+01  0.51100000000E-03 0. -1.
    9000002   -1    0    0    0    0 -0.00000000000E+00 -0.00000000000E+00  0.00000000000E+00  0.93800000000E+00  0.93800000000E+00 0. -1.
         11    1    1    2    0    0  0.17525411632E+00 -0.13218339457E+00  0.19682914738E+01  0.19804943934E+01  0.51100000000E-03 0. -1.
    9000002    1    1    2    0    0 -0.25877698234E+00 -0.13421415695E+00  0.79533873601E-01  0.98546872277E+00  0.93800000000E+00 0. -1.
         22    1    1    2    0    0  0.83522866026E-01  0.26639755152E+00  0.19521746199E+01  0.19720368838E+01  0.00000000000E+00 0. -1.
</event>
<event>
 5    1  0.4838219E+001  0.1494630E+01  0.7818608E-02  0.3476319E+00
         11   -1    0    0    0    0  0.00000000000E+00  0.00000000000E+00  0.39999999674E+01  0.40000000000E+01  0.51100000000E-03 0.  1.
    9000002   -1    0    0    0    0 -0.00000000000E+00 -0.00000000000E+00  0.00000000000E+00  0.93800000000E+00  0.93800000000E+00 0.  1.
         11    1    1    2    0    0  0.48475400075E+00 -0.21734565450E+00  0.11976891138E+01  0.13102232822E+01  0.51100000000E-03 0.  1.
    9000002    1    1    2    0    0 -0.38046366302E+00  0.38938614058E+00  0.31084761775E+00  0.11282040626E+01  0.93800000000E+00 0.  1.
         22    1    1    2    0    0 -0.10429033772E+00 -0.17204048608E+00  0.24914632358E+01  0.24995726552E+01  0.00000000000E+00 0.  1.
</event>
<event>
 5    1  0.4838219E+001  0.1550329E+01  0.7818608E-02  0.3409105E+00
         11   -1    0    0    0    0  0.00000000000E+00  0.00000000000E+00  0.39999999674E+01  0.40000000000E+01  0.51100000000E-03 0.  1.
    9000002   -1    0    0    0    0 -0.00000000000E+00 -0.00000000000E+00  0.00000000000E+00  0.93800000000E+00  0.93800000000E+00 0. -1.
         11    1    1    2    0    0 -0.16784069935E+00 -0.11346918241E+00  0.28728586347E+01  0.28799935333E+01  0.51100000000E-03 0.  1.
    9000002    1    1    2    0    0 -0.82841541132E-01  0.56517944527E-01  0.43562245588E-01  0.94435092430E+00  0.93800000000E+00 0. -1.
         22    1    1    2    0    0  0.25068224048E+00  0.56951237879E-01  0.10835790870E+01  0.11136555424E+01  0.00000000000E+00 0. -1.
</event>
<event>
 5    1  0.4838219E+001  0.1582617E+01  0.7818608E-02  0.3372450E+00
         11   -1    0    0    0    0  0.00000000000E+00  0.00000000000E+00  0.39999999674E+01  0.40000000000E+01  0.51100000000E-03 0.  1.
    9000002   -1    0    0    0    0 -0.00000000000E+00 -0.00000000000E+00  0.00000000000E+00  0.93800000000E+00  0.93800000000E+00 0. -1.
         11    1    1    2    0    0 -0.37172516231E-01  0.53435584872E-01  0.23306241895E+00  0.24198245792E+00  0.51100000000E-03 0.  1.
    9000002    1    1    2    0    0  0.36842728843E-02  0.18873860132E+00  0.36422447538E-01  0.95750009304E+00  0.93800000000E+00 0. -1.
         22    1    1    2    0    0  0.33488243347E-01 -0.24217418619E+00  0.37305151009E+01  0.37385174490E+01  0.00000000000E+00 0.  1.
</event>
<event>
 5    1  0.4838219E+001  0.1566874E+01  0.7818608E-02  0.3390121E+00
         11   -1    0    0    0    0  0.00000000000E+00  0.00000000000E+00  0.39999999674E+01  0.40000000000E+01  0.51100000000E-03 0. -1.
    9000002   -1    0    0    0    0 -0.00000000000E+00 -0.00000000000E+00  0.00000000000E+00  0.93800000000E+00  0.93800000000E+00 0.  1.
         11    1    1    2    0    0  0.49347765536E-01 -0.14670585828E+00  0.28618055841E+01  0.28659883589E+01  0.51100000000E-03 0. -1.
    9000002    1    1    2    0    0 -0.17775098357E+00 -0.44180413940E-01  0.47043132301E-01  0.95687218448E+00  0.93800000000E+00 0.  1.
         22    1    1    2    0    0  0.12840321804E+00  0.19088627222E+00  0.10911512509E+01  0.11151394566E+01  0.00000000000E+00 0. -1.
</event>
<event>
 5    1  0.4838219E+001  0.1561438E+01  0.7818608E-02  0.3396311E+00
         11   -1    0    0    0    0  0.00000000000E+00  0.00000000000E+00  0.39999999674E+01  0.40000000000E+01  0.51100000000E-03 0.  1.
    9000002   -1    0    0    0    0 -0.00000000000E+00 -0.00000000000E+00  0.00000000000E+00  0.93800000000E+00  0.93800000000E+00 0. -1.
         11    1    1    2    0    0  0.99067161186E-01  0.12939547808E+00  0.66085770721E+00  0.68065458382E+00  0.51100000000E-03 0.  1.
    9000002    1    1    2    0    0  0.18110980815E-01  0.83775528350E-01  0.33228006920E-01  0.94249373856E+00  0.93800000000E+00 0. -1.
         22    1    1    2    0    0 -0.11717814200E+00 -0.21317100643E+00  0.33059142532E+01  0.33148516776E+01  0.00000000000E+00 0.  1.
</event>
<event>
 5    1  0.4838219E+001  0.1599340E+01  0.7818608E-02  0.3354080E+00
         11   -1    0    0    0    0  0.00000000000E+00  0.00000000000E+00  0.39999999674E+01  0.40000000000E+01  0.51100000000E-03 0. -1.
    9000002   -1    0    0    0    0 -0.00000000000E+00 -0.00000000000E+00  0.00000000000E+00  0.93800000000E+00  0.93800000000E+00 0. -1.
         11    1    1    2    0    0 -0.28745869141E+00 -0.51856662513E-01  0.23745106242E+01  0.23924093668E+01  0.51100000000E-03 0. -1.
    9000002    1    1    2    0    0  0.49774187683E+00  0.86596314356E-01  0.17518939656E+00  0.10797134908E+01  0.93800000000E+00 0. -1.
         22    1    1    2    0    0 -0.21028318542E+00 -0.34739651844E-01  0.14502999466E+01  0.14658771423E+01  0.00000000000E+00 0.  1.
</event>
<event>
 5    1  0.4838219E+001  0.1509168E+01  0.7818608E-02  0.3458261E+00
         11   -1    0    0    0    0  0.00000000000E+00  0.00000000000E+00  0.39999999674E+01  0.40000000000E+01  0.51100000000E-03 0. -1.
    9000002   -1    0    0    0    0 -0.00000000000E+00 -0.00000000000E+00  0.00000000000E+00  0.93800000000E+00  0.93800000000E+00 0.  1.
         11    1    1    2    0    0  0.26056058186E+00  0.23072919415E+00  0.21082930626E+01  0.21368265434E+01  0.51100000000E-03 0. -1.
    9000002    1    1    2    0    0  0.63835203402E-01 -0.41499788883E-01  0.72795769158E-01  0.94389638715E+00  0.93800000000E+00 0.  1.
         22    1    1    2    0    0 -0.32439578526E+00 -0.18922940527E+00  0.18189111356E+01  0.18572770694E+01  0.00000000000E+00 0. -1.
</event>
<event>
 5    1  0.4838219E+001  0.1562471E+01  0.7818608E-02  0.3395131E+00
         11   -1    0    0    0    0  0.00000000000E+00  0.00000000000E+00  0.39999999674E+01  0.40000000000E+01  0.51100000000E-03 0.  1.
    9000002   -1    0    0    0    0 -0.00000000000E+00 -0.00000000000E+00  0.00000000000E+00  0.93800000000E+00  0.93800000000E+00 0. -1.
         11    1    1    2    0    0 -0.17135156523E-01 -0.22961541474E+00  0.21197118432E+01  0.21321809050E+01  0.51100000000E-03 0.  1.
    9000002    1    1    2    0    0  0.47803146855E-01 -0.33711919702E-02  0.28995017826E-01  0.93967080238E+00  0.93800000000E+00 0. -1.
         22    1    1    2    0    0 -0.30667990332E-01  0.23298660671E+00  0.18512931063E+01  0.18661482926E+01  0.00000000000E+00 0.  1.
</event>
<event>
 5    1  0.4838219E+001  0.1479481E+01  0.7818608E-02  0.3495543E+00
         11   -1    0    0    0    0  0.00000000000E+00  0.00000000000E+00  0.39999999674E+01  0.40000000000E+01  0.51100000000E-03 0.  1.
    9000002   -1    0    0    0    0 -0.00000000000E+00 -0.00000000000E+00  0.00000000000E+00  0.93800000000E+00  0.93800000000E+00 0.  1.
         11    1    1    2    0    0 -0.18254200634E-01 -0.14219812012E+00  0.81665479496E-01  0.16499403889E+00  0.51100000000E-03 0.  1.
    9000002    1    1    2    0    0 -0.57353559199E-01 -0.49757981614E-01  0.96941690999E-01  0.94604808490E+00  0.93800000000E+00 0. -1.
         22    1    1    2    0    0  0.75607759833E-01  0.19195610174E+00  0.38213927969E+01  0.38269578762E+01  0.00000000000E+00 0.  1.
</event>
<event>
 5    1  0.4838219E+001  0.1572465E+01  0.7818608E-02  0.3383802E+00
         11   -1    0    0    0    0  0.00000000000E+00  0.00000000000E+00  0.39999999674E+01  0.40000000000E+01  0.51100000000E-03 0.  1.
    9000002   -1    0    0    0    0 -0.00000000000E+00 -0.00000000000E+00  0.00000000000E+00  0.93800000000E+00  0.93800000000E+00 0.  1.
         11    1    1    2    0    0 -0.75705131772E-01  0.30997794144E-01  0.26743486151E+01  0.26755995415E+01  0.51100000000E-03 0.  1.
    9000002    1    1    2    0    0 -0.10278800150E+00  0.12763301586E+00  0.38182178260E-01  0.95297294753E+00  0.93800000000E+00 0.  1.
         22    1    1    2    0    0  0.17849313327E+00 -0.15863081000E+00  0.12874691740E+01  0.13094275110E+01  0.00000000000E+00 0.  1.
</event>
<event>
 5    1  0.4838219E+001  0.1564712E+01  0.7818608E-02  0.3392578E+00
         11   -1    0    0    0    0  0.00000000000E+00  0.00000000000E+00  0.39999999674E+01  0.40000000000E+01  0.51100000000E-03 0. -1.
    9000002   -1    0    0    0    0 -0.00000000000E+00 -0.00000000000E+00  0.00000000000E+00  0.93800000000E+00  0.93800000000E+00 0.  1.
         11    1    1    2    0    0 -0.26189575190E+00  0.16175638683E+00  0.24236225019E+01  0.24430924678E+01  0.51100000000E-03 0. -1.
    9000002    1    1    2    0    0  0.70976147868E-01 -0.23468886210E+00  0.67077699081E-01  0.97183326413E+00  0.93800000000E+00 0.  1.
         22    1    1    2    0    0  0.19091960403E+00  0.72932475278E-01  0.15092997664E+01  0.15230742681E+01  0.00000000000E+00 0.  1.
</event>
<event>
 5    1  0.4838219E+001  0.1489424E+01  0.7818608E-02  0.3482878E+00
         11   -1    0    0    0    0  0.00000000000E+00  0.00000000000E+00  0.39999999674E+01  0.40000000000E+01  0.51100000000E-03 0.  1.
    9000002   -1    0    0    0    0 -0.00000000000E+00 -0.00000000000E+00  0.00000000000E+00  0.93800000000E+00  0.93800000000E+00 0. -1.
         11    1    1    2    0    0  0.23839042270E+00 -0.72845222931E-01  0.34584396081E+00  0.42631529000E+00  0.51100000000E-03 0.  1.
    9000002    1    1    2    0    0 -0.33807979058E-01  0.30514303106E+00  0.15523504398E+00  0.99909817722E+00  0.93800000000E+00 0. -1.
         22    1    1    2    0    0 -0.20458244364E+00 -0.23229780813E+00  0.34989209626E+01  0.35125865328E+01  0.00000000000E+00 0.  1.
</event>
<event>
 5    1  0.4838219E+001  0.1558827E+01  0.7818608E-02  0.3399301E+00
         11   -1    0    0    0    0  0.00000000000E+00  0.00000000000E+00  0.39999999674E+01  0.40000000000E+01  0.51100000000E-03 0. -1.
    9000002   -1    0    0    0    0 -0.00000000000E+00 -0.00000000000E+00  0.00000000000E+00  0.93800000000E+00  0.93800000000E+00 0. -1.
         11    1    1    2    0    0  0.18687989319E+00 -0.17575082257E+00  0.23546164582E+01  0.23685504791E+01  0.51100000000E-03 0. -1.
    9000002    1    1    2    0    0 -0.40634732818E-01  0.13789639016E-02  0.31301597607E-01  0.93940240210E+00  0.93800000000E+00 0. -1.
         22    1    1    2    0    0 -0.14624516038E+00  0.17437185867E+00  0.16140819116E+01  0.16300471188E+01  0.00000000000E+00 0. -1.
</event>
<event>
 5    1  0.4838219E+001  0.1570426E+01  0.7818608E-02  0.3386101E+00
         11   -1    0    0    0    0  0.00000000000E+00  0.00000000000E+00  0.39999999674E+01  0.40000000000E+01  0.51100000000E-03 0. -1.
    9000002   -1    0    0    0    0 -0.00000000000E+00 -0.00000000000E+00  0.00000000000E+00  0.93800000000E+00  0.93800000000E+00 0.  1.
         11    1    1    2    0    0 -0.32503195508E-01 -0.16388211549E+00  0.10814092811E+01  0.10942395076E+01  0.51100000000E-03 0. -1.
    9000002    1    1    2    0    0 -0.14347510196E+00 -0.18205975065E-01  0.35685013874E-01  0.94975469603E+00  0.93800000000E+00 0.  1.
         22    1    1    2    0    0  0.17597829747E+00  0.18208809056E+00  0.28829056723E+01  0.28940057964E+01  0.00000000000E+00 0. -1.
</event>
<event>
 5    1  0.4838219E+001  0.1559999E+01  0.7818608E-02  0.3397957E+00
         11   -1    0    0    0    0  0.00000000000E+00  0.00000000000E+00  0.39999999674E+01  0.40000000000E+01  0.51100000000E-03 0.  1.
    9000002   -1    0    0    0    0 -0.00000000000E+00 -0.00000000000E+00  0.00000000000E+00  0.93800000000E+00  0.93800000000E+00 0.  1.
         11    1    1    2    0    0  0.10597322708E+00 -0.17337372450E-02  0.21204386111E+01  0.21230858426E+01  0.51100000000E-03 0.  1.
    9000002    1    1    2    0    0  0.22199383409E+00 -0.14379838404E+00  0.77695112221E-01  0.97767058260E+00  0.93800000000E+00 0.  1.
         22    1    1    2    0    0 -0.32796706117E+00  0.14553212128E+00  0.18018662441E+01  0.18372435748E+01  0.00000000000E+00 0.  1.
</event>
<event>
 5    1  0.4838219E+001  0.1559033E+01  0.7818608E-02  0.3399065E+00
         11   -1    0    0    0    0  0.00000000000E+00  0.00000000000E+00  0.39999999674E+01  0.40000000000E+01  0.51100000000E-03 0.  1.
    9000002   -1    0    0    0    0 -0.00000000000E+00 -0.00000000000E+00  0.00000000000E+00  0.93800000000E+00  0.93800000000E+00 0.  1.
         11    1    1    2    0    0  0.15603966693E-01 -0.29694783280E+00  0.23590961513E+01  0.23777629006E+01  0.51100000000E-03 0.  1.
    9000002    1    1    2    0    0 -0.47021146684E-01  0.99347161530E-01  0.38302572792E-01  0.94519412494E+00  0.93800000000E+00 0.  1.
         22    1    1    2    0    0  0.31417179991E-01  0.19760067127E+00  0.16026012433E+01  0.16150429745E+01  0.00000000000E+00 0.  1.
</event>
<event>
 5    1  0.4838219E+001  0.1465360E+01  0.7818608E-02  0.3513851E+00
         11   -1    0    0    0    0  0.00000000000E+00  0.00000000000E+00  0.39999999674E+01  0.40000000000E+01  0.51100000000E-03 0.  1.
    9000002   -1    0    0    0    0 -0.00000000000E+00 -0.00000000000E+00  0.00000000000E+00  0.93800000000E+00  0.93800000000E+00 0.  1.
         11    1    1    2    0    0  0.32209965986E+00  0.10602892811E+00  0.31905066400E+00  0.46560059257E+00  0.51100000000E-03 0.  1.
    9000002    1    1    2    0    0 -0.60685917780E+00 -0.13128848648E+00  0.42277281178E+00  0.12017052795E+01  0.93800000000E+00 0.  1.
         22    1    1    2    0    0  0.28475951794E+00  0.25259558371E-01  0.32581764916E+01  0.32706941279E+01  0.00000000000E+00 0.  1.
</event>
<event>
 5    1  0.4838219E+001  0.1463756E+01  0.7818608E-02  0.3515955E+00
         11   -1    0    0    0    0  0.00000000000E+00  0.00000000000E+00  0.39999999674E+01  0.40000000000E+01  0.51100000000E-03 0. -1.
    9000002   -1    0    0    0    0 -0.00000000000E+00 -0.00000000000E+00  0.00000000000E+00  0.93800000000E+00  0.93800000000E+00 0.  1.
         11    1    1    2    0    0  0.24268282418E+00  0.19910523769E+00  0.58054277693E+00  0.65997577667E+00  0.51100000000E-03 0. -1.
    9000002    1    1    2    0    0  0.23294751125E-01  0.63082959618E-01  0.10915621121E+00  0.94672128088E+00  0.93800000000E+00 0.  1.
         22    1    1    2    0    0 -0.26597757530E+00 -0.26218819731E+00  0.33103009792E+01  0.33313029424E+01  0.00000000000E+00 0. -1.
</event>
<event>
 5    1  0.4838219E+001  0.1524787E+01  0.7818608E-02  0.3439273E+00
         11   -1    0    0    0    0  0.00000000000E+00  0.00000000000E+00  0.39999999674E+01  0.40000000000E+01  0.51100000000E-03 0.  1.
    9000002   -1    0    0    0    0 -0.00000000000E+00 -0.00000000000E+00  0.00000000000E+00  0.93800000000E+00  0.93800000000E+00 0. -1.
         11    1    1    2    0    0  0.22461988158E+00  0.24593090163E+00  0.13361528441E+01  0.13770405889E+01  0.51100000000E-03 0.  1.
    9000002    1    1    2    0    0 -0.28216977544E-01 -0.56470032359E-01  0.59122860145E-01  0.94197907353E+00  0.93800000000E+00 0. -1.
         22    1    1    2    0    0 -0.19640290403E+00 -0.18946086927E+00  0.26047242631E+01  0.26189803375E+01  0.00000000000E+00 0.  1.
</event>
<event>
 5    1  0.4838219E+001  0.1564576E+01  0.7818608E-02  0.3392732E+00
         11   -1    0    0    0    0  0.00000000000E+00  0.00000000000E+00  0.39999999674E+01  0.40000000000E+01  0.51100000000E-03 0.  1.
    9000002   -1    0    0    0    0 -0.00000000000E+00 -0.00000000000E+00  0.00000000000E+00  0.93800000000E+00  0.93800000000E+00 0. -1.
         11    1    1    2    0    0 -0.52569252238E-01  0.98370636834E-01  0.91490177400E+00  0.92167555336E+00  0.51100000000E-03 0.  1.
    9000002    1    1    2    0    0  0.32979046991E+00  0.38455602562E+00  0.20841590741E+00  0.10862441168E+01  0.93800000000E+00 0. -1.
         22    1    1    2    0    0 -0.27722121768E+00 -0.48292666246E+00  0.28766822860E+01  0.29300803298E+01  0.00000000000E+00 0.  1.
</event>
<event>
 5    1  0.4838219E+001  0.1523048E+01  0.7818608E-02  0.3441367E+00
         11   -1    0    0    0    0  0.00000000000E+00  0.00000000000E+00  0.39999999674E+01  0.40000000000E+01  0.51100000000E-03 0. -1.
    9000002   -1    0    0    0    0 -0.00000000000E+00 -0.00000000000E+00  0.00000000000E+00  0.93800000000E+00  0.93800000000E+00 0. -1.
         11    1    1    2    0    0  0.22917676733E+00 -0.24775262812E+00  0.28206075778E+01  0.28407271471E+01  0.51100000000E-03 0. -1.
    9000002    1    1    2    0    0 -0.69036218209E-01  0.87205610216E-02  0.61098707622E-01  0.94255986530E+00  0.93800000000E+00 0. -1.
         22    1    1    2    0    0 -0.16014054912E+00  0.23903206710E+00  0.11182936820E+01  0.11547129876E+01  0.00000000000E+00 0.  1.
</event>
<event>
 5    1  0.4838219E+001  0.1545261E+01  0.7818608E-02  0.3415005E+00
         11   -1    0    0    0    0  0.00000000000E+00  0.00000000000E+00  0.39999999674E+01  0.40000000000E+01  0.51100000000E-03 0.  1.
    9000002   -1    0    0    0    0 -0.00000000000E+00 -0.00000000000E+00  0.00000000000E+00  0.93800000000E+00  0.93800000000E+00 0. -1.
         11    1    1    2    0    0  0.26133398832E+00 -0.30670220657E-01  0.13812752492E+01  0.14061143947E+01  0.51100000000E-03 0.  1.
    9000002    1    1    2    0    0  0.72706103287E-02 -0.42893290271E-01  0.41781718399E-01  0.93993744905E+00  0.93800000000E+00 0. -1.
         22    1    1    2    0    0 -0.26860459865E+00  0.73563510928E-01  0.25769429998E+01  0.25919481562E+01  0.00000000000E+00 0.  1.
</event>
<event>
 5    1  0.5202887E+001  0.1575390E+01  0.7818608E-02  0.3380516E+00
         11   -1    0    0    0    0  0.00000000000E+00  0.00000000000E+00  0.39999999674E+01  0.40000000000E+01  0.51100000000E-03 0.  1.
    9000002   -1    0    0    0    0 -0.00000000000E+00 -0.00000000000E+00  0.00000000000E+00  0.93800000000E+00  0.93800000000E+00 0. -1.
         11    1    1    2    0    0  0.52436141818E-01  0.12047140834E+00  0.72833833507E+00  0.74009452143E+00  0.51100000000E-03 0.  1.
    9000002    1    1    2    0    0  0.59929478926E-01  0.55956439299E-01  0.22323039236E-01  0.94184127305E+00  0.93800000000E+00 0. -1.
         22    1    1    2    0    0 -0.11236562074E+00 -0.17642784764E+00  0.32493385931E+01  0.32560642055E+01  0.00000000000E+00 0.  1.
</event>
<event>
 5    1  0.4838219E+001  0.1581202E+01  0.7818608E-02  0.3374022E+00
         11   -1    0    0    0    0  0.00000000000E+00  0.00000000000E+00  0.39999999674E+01  0.40000000000E+01  0.51100000000E-03 0.  1.
    9000002   -1    0    0    0    0 -0.00000000000E+00 -0.00000000000E+00  0.00000000000E+00  0.93800000000E+00  0.93800000000E+00 0. -1.
         11    1    1    2    0    0 -0.41909061021E-01  0.11996180068E+00  0.16421169094E+01  0.16470262318E+01  0.51100000000E-03 0.  1.
    9000002    1    1    2    0    0 -0.58660482319E-01  0.65138993183E-01  0.18647044483E-01  0.94227164496E+00  0.93800000000E+00 0. -1.
         22    1    1    2    0    0  0.10056954334E+00 -0.18510079386E+00  0.23392360135E+01  0.23487021233E+01  0.00000000000E+00 0.  1.
</event>
<event>
 5    1  0.4838219E+001  0.1376166E+01  0.7818608E-02  0.3645854E+00
         11   -1    0    0    0    0  0.00000000000E+00  0.00000000000E+00  0.39999999674E+01  0.40000000000E+01  0.51100000000E-03 0.  1.
    9000002   -1    0    0    0    0 -0.00000000000E+00 -0.00000000000E+00  0.00000000000E+00  0.93800000000E+00  0.93800000000E+00 0. -1.
         11    1    1    2    0    0  0.46783604303E+00 -0.38433766169E+00  0.30633329093E+01  0.31225942381E+01  0.51100000000E-03 0.  1.
    9000002    1    1    2    0    0 -0.26792574759E+00  0.13121183725E-01  0.24587284024E+00  0.10061082572E+01  0.93800000000E+00 0. -1.
         22    1    1    2    0    0 -0.19991029544E+00  0.37121647797E+00  0.69079421778E+00  0.80929750466E+00  0.00000000000E+00 0. -1.
</event>
<event>
 5    1  0.4838219E+001  0.1544934E+01  0.7818608E-02  0.3415388E+00
         11   -1    0    0    0    0  0.00000000000E+00  0.00000000000E+00  0.39999999674E+01  0.40000000000E+01  0.51100000000E-03 0.  1.
    9000002   -1    0    0    0    0 -0.00000000000E+00 -0.00000000000E+00  0.00000000000E+00  0.93800000000E+00  0.93800000000E+00 0.  1.
         11    1    1    2    0    0  0.19487317618E+00  0.23228256303E+00  0.18986303578E+01  0.19226877647E+01  0.51100000000E-03 0.  1.
    9000002    1    1    2    0    0  0.45224368205E-01 -0.10973627951E+00  0.50525713684E-01  0.94682846507E+00  0.93800000000E+00 0.  1.
         22    1    1    2    0    0 -0.24009754439E+00 -0.12254628352E+00  0.20508438959E+01  0.20684837702E+01  0.00000000000E+00 0. -1.
</event>
<event>
 5    1  0.4838219E+001  0.1588900E+01  0.7818608E-02  0.3365500E+00
         11   -1    0    0    0    0  0.00000000000E+00  0.00000000000E+00  0.39999999674E+01  0.40000000000E+01  0.51100000000E-03 0. -1.
    9000002   -1    0    0    0    0 -0.00000000000E+00 -0.00000000000E+00  0.00000000000E+00  0.93800000000E+00  0.93800000000E+00 0.  1.
         11    1    1    2    0    0 -0.84832578410E-01  0.53492874501E-01  0.18306597864E+01  0.18334049113E+01  0.51100000000E-03 0. -1.
    9000002    1    1    2    0    0  0.25300471342E+00  0.14369018839E+00  0.64873379112E-01  0.98423107580E+00  0.93800000000E+00 0.  1.
         22    1    1    2    0    0 -0.16817213501E+00 -0.19718306289E+00  0.21044668018E+01  0.21203640129E+01  0.00000000000E+00 0. -1.
</event>
<event>
 5    1  0.4838219E+001  0.1580309E+01  0.7818608E-02  0.3375017E+00
         11   -1    0    0    0    0  0.00000000000E+00  0.00000000000E+00  0.39999999674E+01  0.40000000000E+01  0.51100000000E-03 0.  1.
    9000002   -1    0    0    0    0 -0.00000000000E+00 -0.00000000000E+00  0.00000000000E+00  0.93800000000E+00  0.93800000000E+00 0. -1.
         11    1    1    2    0    0 -0.91918008703E-01 -0.11360723860E-01  0.13537705287E+01  0.13569351096E+01  0.51100000000E-03 0.  1.
    9000002    1    1    2    0    0 -0.15019024652E+00  0.23262401937E+00  0.66180734671E-01  0.98025248491E+00  0.93800000000E+00 0. -1.
         22    1    1    2    0    0  0.24210825523E+00 -0.22126329551E+00  0.25800487040E+01  0.26008124054E+01  0.00000000000E+00 0.  1.
</event>
<event>
 5    1  0.4838219E+001  0.1554100E+01  0.7818608E-02  0.3404739E+00
         11   -1    0    0    0    0  0.00000000000E+00  0.00000000000E+00  0.39999999674E+01  0.40000000000E+01  0.51100000000E-03 0.  1.
    9000002   -1    0    0    0    0 -0.00000000000E+00 -0.00000000000E+00  0.00000000000E+00  0.93800000000E+00  0.93800000000E+00 0.  1.
         11    1    1    2    0    0  0.18571830624E+00 -0.17087923655E+00  0.11730811870E+01  0.11999211371E+01  0.51100000000E-03 0.  1.
    9000002    1    1    2    0    0 -0.14754549643E+00 -0.56679421132E-01  0.51002965328E-01  0.95258990797E+00  0.93800000000E+00 0.  1.
         22    1    1    2    0    0 -0.38172809814E-01  0.22755865768E+00  0.27759158150E+01  0.27854889550E+01  0.00000000000E+00 0.  1.
</event>
<event>
 5    1  0.4838219E+001  0.1523870E+01  0.7818608E-02  0.3440376E+00
         11   -1    0    0    0    0  0.00000000000E+00  0.00000000000E+00  0.39999999674E+01  0.40000000000E+01  0.51100000000E-03 0. -1.
    9000002   -1    0    0    0    0 -0.00000000000E+00 -0.00000000000E+00  0.00000000000E+00  0.93800000000E+00  0.93800000000E+00 0. -1.
         11    1    1    2    0    0 -0.10647223432E+00  0.17251392159E+00  0.31266988284E+01  0.31332639874E+01  0.51100000000E-03 0. -1.
    9000002    1    1    2    0    0  0.43911853366E+00 -0.17261204196E+00  0.22169496315E+00  0.10731321728E+01  0.93800000000E+00 0. -1.
         22    1    1    2    0    0 -0.33264629935E+00  0.98120366535E-04  0.65160617579E+00  0.73160383981E+00  0.00000000000E+00 0. -1.
</event>
<event>
 5    1  0.4838219E+001  0.1543153E+01  0.7818608E-02  0.3417472E+00
         11   -1    0    0    0    0  0.00000000000E+00  0.00000000000E+00  0.39999999674E+01  0.40000000000E+01  0.51100000000E-03 0.  1.
    9000002   -1    0    0    0    0 -0.00000000000E+00 -0.00000000000E+00  0.00000000000E+00  0.93800000000E+00  0.93800000000E+00 0. -1.
         11    1    1    2    0    0 -0.28541988541E+00  0.33157588068E-01  0.13193079236E+01  0.13502361257E+01  0.51100000000E-03 0.  1.
    9000002    1    1    2    0    0  0.48592934621E-01 -0.27525871844E-01  0.44252176299E-01  0.94070250453E+00  0.93800000000E+00 0. -1.
         22    1    1    2    0    0  0.23682695079E+00 -0.56317162248E-02  0.26364398674E+01  0.26470613698E+01  0.00000000000E+00 0.  1.
</event>
<event>
 5    1  0.4838219E+001  0.1580412E+01  0.7818608E-02  0.3374902E+00
         11   -1    0    0    0    0  0.00000000000E+00  0.00000000000E+00  0.39999999674E+01  0.40000000000E+01  0.51100000000E-03 0.  1.
    9000002   -1    0    0    0    0 -0.00000000000E+00 -0.00000000000E+00  0.00000000000E+00  0.93800000000E+00  0.93800000000E+00 0.  1.
         11    1    1    2    0    0 -0.45422216722E-01 -0.12059026153E+00  0.24433799286E+01  0.24467756182E+01  0.51100000000E-03 0.  1.
    9000002    1    1    2    0    0  0.21064268260E+00  0.40359122249E+00  0.15777882654E+00  0.10545114379E+01  0.93800000000E+00 0.  1.
         22    1    1    2    0    0 -0.16522046588E+00 -0.28300096096E+00  0.13988412122E+01  0.14367129439E+01  0.00000000000E+00 0.  1.
</event>
<event>
 5    1  0.4838219E+001  0.1502726E+01  0.7818608E-02  0.3466217E+00
         11   -1    0    0    0    0  0.00000000000E+00  0.00000000000E+00  0.39999999674E+01  0.40000000000E+01  0.51100000000E-03 0. -1.
    9000002   -1    0    0    0    0 -0.00000000000E+00 -0.00000000000E+00  0.00000000000E+00  0.93800000000E+00  0.93800000000E+00 0. -1.
         11    1    1    2    0    0  0.21361245259E+00 -0.81689776445E-01  0.35694337576E+00  0.42392491563E+00  0.51100000000E-03 0. -1.
    9000002    1    1    2    0    0  0.21685082423E-02  0.15935309561E+00  0.92287093918E-01  0.95590743234E+00  0.93800000000E+00 0. -1.
         22    1    1    2    0    0 -0.21578096083E+00 -0.77663319161E-01  0.35507694977E+01  0.35581676520E+01  0.00000000000E+00 0. -1.
</event>
<event>
 5    1  0.4838219E+001  0.1529277E+01  0.7818608E-02  0.3433892E+00
         11   -1    0    0    0    0  0.00000000000E+00  0.00000000000E+00  0.39999999674E+01  0.40000000000E+01  0.51100000000E-03 0.  1.
    9000002   -1    0    0    0    0 -0.00000000000E+00 -0.00000000000E+00  0.00000000000E+00  0.93800000000E+00  0.93800000000E+00 0. -1.
         11    1    1    2    0    0 -0.34983980511E+00  0.41471704113E-01  0.30342161435E+01  0.30545990994E+01  0.51100000000E-03 0.  1.
    9000002    1    1    2    0    0  0.17169077351E+00  0.14859172306E+00  0.89519259607E-01  0.96923419240E+00  0.93800000000E+00 0. -1.
         22    1    1    2    0    0  0.17814903160E+00 -0.19006342718E+00  0.87626456423E+00  0.91416670818E+00  0.00000000000E+00 0.  1.
</event>
<event>
 5    1  0.4838219E+001  0.1567954E+01  0.7818608E-02  0.3388896E+00
         11   -1    0    0    0    0  0.00000000000E+00  0.00000000000E+00  0.39999999674E+01  0.40000000000E+01  0.51100000000E-03 0. -1.
    9000002   -1    0    0    0    0 -0.00000000000E+00 -0.00000000000E+00  0.00000000000E+00  0.93800000000E+00  0.93800000000E+00 0. -1.
         11    1    1    2    0    0 -0.31014688249E+00 -0.32715192632E-01  0.20158551624E+01  0.20398366772E+01  0.51100000000E-03 0. -1.
    9000002    1    1    2    0    0  0.23985895596E+00  0.26868442074E+00  0.11324755255E+00  0.10111343357E+01  0.93800000000E+00 0. -1.
         22    1    1    2    0    0  0.70287926528E-01 -0.23596922811E+00  0.18708972524E+01  0.18870289871E+01  0.00000000000E+00 0. -1.
</event>
<event>
 5    1  0.4838219E+001  0.1524670E+01  0.7818608E-02  0.3439414E+00
         11   -1    0    0    0    0  0.00000000000E+00  0.00000000000E+00  0.39999999674E+01  0.40000000000E+01  0.51100000000E-03 0. -1.
    9000002   -1    0    0    0    0 -0.00000000000E+00 -0.00000000000E+00  0.00000000000E+00  0.93800000000E+00  0.93800000000E+00 0. -1.
         11    1    1    2    0    0  0.25385772219E+00  0.34387253313E+00  0.22959212080E+01  0.23353686040E+01  0.51100000000E-03 0. -1.
    9000002    1    1    2    0    0 -0.57628630202E-01 -0.17954296902E+00  0.81767000843E-01  0.96025339321E+00  0.93800000000E+00 0. -1.
         22    1    1    2    0    0 -0.19622909198E+00 -0.16432956411E+00  0.16223117585E+01  0.16423780028E+01  0.00000000000E+00 0. -1.
</event>
<event>
 5    1  0.4838219E+001  0.1569010E+01  0.7818608E-02  0.3387701E+00
         11   -1    0    0    0    0  0.00000000000E+00  0.00000000000E+00  0.39999999674E+01  0.40000000000E+01  0.51100000000E-03 0. -1.
    9000002   -1    0    0    0    0 -0.00000000000E+00 -0.00000000000E+00  0.00000000000E+00  0.93800000000E+00  0.93800000000E+00 0.  1.
         11    1    1    2    0    0  0.76755012204E-01 -0.17629737024E+00  0.12659160665E+01  0.12804358020E+01  0.51100000000E-03 0. -1.
    9000002    1    1    2    0    0 -0.48788057654E-01 -0.32611069077E-01  0.24869055481E-01  0.94016287223E+00  0.93800000000E+00 0.  1.
         22    1    1    2    0    0 -0.27966954550E-01  0.20890843931E+00  0.27092148454E+01  0.27174013257E+01  0.00000000000E+00 0. -1.
</event>
<event>
 5    1  0.4838219E+001  0.1527625E+01  0.7818608E-02  0.3435868E+00
         11   -1    0    0    0    0  0.00000000000E+00  0.00000000000E+00  0.39999999674E+01  0.40000000000E+01  0.51100000000E-03 0.  1.
    9000002   -1    0    0    0    0 -0.00000000000E+00 -0.00000000000E+00  0.00000000000E+00  0.93800000000E+00  0.93800000000E+00 0. -1.
         11    1    1    2    0    0  0.28206216991E+00 -0.13448816447E-01  0.11714646066E+01  0.12050184746E+01  0.51100000000E-03 0.  1.
    9000002    1    1    2    0    0  0.42003747298E-01 -0.43388299507E-01  0.56660021030E-01  0.94164813880E+00  0.93800000000E+00 0. -1.
         22    1    1    2    0    0 -0.32406591721E+00  0.56837115954E-01  0.27718753397E+01  0.27913333866E+01  0.00000000000E+00 0.  1.
</event>
<event>
 5    1  0.4838219E+001  0.1583133E+01  0.7818608E-02  0.3371876E+00
         11   -1    0    0    0    0  0.00000000000E+00  0.00000000000E+00  0.39999999674E+01  0.40000000000E+01  0.51100000000E-03 0. -1.
    9000002   -1    0    0    0    0 -0.00000000000E+00 -0.00000000000E+00  0.00000000000E+00  0.93800000000E+00  0.93800000000E+00 0. -1.
         11    1    1    2    0    0 -0.24900893614E-01 -0.79901270652E-01  0.44200150637E+00  0.44985537710E+00  0.51100000000E-03 0. -1.
    9000002    1    1    2    0    0 -0.60822583913E-02 -0.12750554048E+00  0.22993891636E-01  0.94692522185E+00  0.93800000000E+00 0. -1.
         22    1    1    2    0    0  0.30983152005E-01  0.20740681113E+00  0.35350045694E+01  0.35412194010E+01  0.00000000000E+00 0. -1.
</event>
<event>
 5    1  0.4838219E+001  0.1543641E+01  0.7818608E-02  0.3416901E+00
         11   -1    0    0    0    0  0.00000000000E+00  0.00000000000E+00  0.39999999674E+01  0.40000000000E+01  0.51100000000E-03 0.  1.
    9000002   -1    0    0    0    0 -0.00000000000E+00 -0.00000000000E+00  0.00000000000E+00  0.93800000000E+00  0.93800000000E+00 0. -1.
         11    1    1    2    0    0 -0.23439910081E+00  0.13672148861E+00  0.14244232771E+01  0.14500405640E+01  0.51100000000E-03 0.  1.
    9000002    1    1    2    0    0 -0.80483061677E-01 -0.17113904487E+00  0.66733948194E-01  0.95919941396E+00  0.93800000000E+00 0. -1.
         22    1    1    2    0    0  0.31488216249E+00  0.34417556265E-01  0.25088427421E+01  0.25287600220E+01  0.00000000000E+00 0.  1.
</event>
<event>
 5    1  0.4838219E+001  0.1534326E+01  0.7818608E-02  0.3427881E+00
         11   -1    0    0    0    0  0.00000000000E+00  0.00000000000E+00  0.39999999674E+01  0.40000000000E+01  0.51100000000E-03 0.  1.
    9000002   -1    0    0    0    0 -0.00000000000E+00 -0.00000000000E+00  0.00000000000E+00  0.93800000000E+00  0.93800000000E+00 0.  1.
         11    1    1    2    0    0 -0.39670464925E+00 -0.10932936001E+00  0.22516251626E+01  0.22889175655E+01  0.51100000000E-03 0.  1.
    9000002    1    1    2    0    0  0.16302227065E+00  0.14347082840E+00  0.82265298769E-01  0.96631864243E+00  0.93800000000E+00 0.  1.
         22    1    1    2    0    0  0.23368237859E+00 -0.34141468392E-01  0.16661095059E+01  0.16827637920E+01  0.00000000000E+00 0.  1.
</event>
<event>
 5    1  0.4838219E+001  0.1451588E+01  0.7818608E-02  0.3532079E+00
         11   -1    0    0    0    0  0.00000000000E+00  0.00000000000E+00  0.39999999674E+01  0.40000000000E+01  0.51100000000E-03 0.  1.
    9000002   -1    0    0    0    0 -0.00000000000E+00 -0.00000000000E+00  0.00000000000E+00  0.93800000000E+00  0.93800000000E+00 0.  1.
         11    1    1    2    0    0 -0.34224775758E+00  0.20644176583E-01  0.62807330244E+00  0.71556693883E+00  0.51100000000E-03 0.  1.
    9000002    1    1    2    0    0 -0.36447287042E-01 -0.83445757316E-01  0.12241511796E+00  0.95032681760E+00  0.93800000000E+00 0.  1.
         22    1    1    2    0    0  0.37869504462E+00  0.62801580733E-01  0.32495115470E+01  0.32721062436E+01  0.00000000000E+00 0.  1.
</event>
<event>
 5    1  0.4838219E+001  0.1548866E+01  0.7818608E-02  0.3410804E+00
         11   -1    0    0    0    0  0.00000000000E+00  0.00000000000E+00  0.39999999674E+01  0.40000000000E+01  0.51100000000E-03 0. -1.
    9000002   -1    0    0    0    0 -0.00000000000E+00 -0.00000000000E+00  0.00000000000E+00  0.93800000000E+00  0.93800000000E+00 0.  1.
         11    1    1    2    0    0  0.17482687090E+00  0.28881929624E+00  0.19220153928E+01  0.19514416342E+01  0.51100000000E-03 0. -1.
    9000002    1    1    2    0    0 -0.12909872180E+00 -0.85554723251E-01  0.54376829718E-01  0.95225360606E+00  0.93800000000E+00 0.  1.
         22    1    1    2    0    0 -0.45728149100E-01 -0.20326457299E+00  0.20236077449E+01  0.20343047597E+01  0.00000000000E+00 0.  1.
</event>
<event>
 5    1  0.4838219E+001  0.1553954E+01  0.7818608E-02  0.3404908E+00
         11   -1    0    0    0    0  0.00000000000E+00  0.00000000000E+00  0.39999999674E+01  0.40000000000E+01  0.51100000000E-03 0.  1.
    9000002   -1    0    0    0    0 -0.00000000000E+00 -0.00000000000E+00  0.00000000000E+00  0.93800000000E+00  0.93800000000E+00 0. -1.
         11    1    1    2    0    0 -0.63050324975E-01  0.24922737170E+00  0.15047477540E+01  0.15265502581E+01  0.51100000000E-03 0.  1.
    9000002    1    1    2    0    0  0.16995906574E+00  0.21391480988E-02  0.53830329255E-01  0.95479440946E+00  0.93800000000E+00 0. -1.
         22    1    1    2    0    0 -0.10690874076E+00 -0.25136651980E+00  0.24414218841E+01  0.24566553324E+01  0.00000000000E+00 0.  1.
</event>
<event>
 5    1  0.4838219E+001  0.1518823E+01  0.7818608E-02  0.3446475E+00
         11   -1    0    0    0    0  0.00000000000E+00  0.00000000000E+00  0.39999999674E+01  0.40000000000E+01  0.51100000000E-03 0. -1.
    9000002   -1    0    0    0    0 -0.00000000000E+00 -0.00000000000E+00  0.00000000000E+00  0.93800000000E+00  0.93800000000E+00 0. -1.
         11    1    1    2    0    0  0.29246698910E+00 -0.20429328344E+00  0.18526755636E+01  0.18867113427E+01  0.51100000000E-03 0. -1.
    9000002    1    1    2    0    0  0.10187530896E+00  0.41707475486E+00  0.19709877172E+00  0.10502484732E+01  0.93800000000E+00 0. -1.
         22    1    1    2    0    0 -0.39434229806E+00 -0.21278147142E+00  0.19502256320E+01  0.20010401841E+01  0.00000000000E+00 0.  1.
</event>
<event>
 5    1  0.4838219E+001  0.1569441E+01  0.7818608E-02  0.3387214E+00
         11   -1    0    0    0    0  0.00000000000E+00  0.00000000000E+00  0.39999999674E+01  0.40000000000E+01  0.51100000000E-03 0.  1.
    9000002   -1    0    0    0    0 -0.00000000000E+00 -0.00000000000E+00  0.00000000000E+00  0.93800000000E+00  0.93800000000E+00 0. -1.
         11    1    1    2    0    0  0.84370232450E-01  0.18964633502E+00  0.23519177581E+01  0.23610593958E+01  0.51100000000E-03 0.  1.
    9000002    1    1    2    0    0 -0.11091895935E+00  0.25600387317E-01  0.31011338456E-01  0.94539097652E+00  0.93800000000E+00 0. -1.
         22    1    1    2    0    0  0.26548726895E-01 -0.21524672234E+00  0.16170708708E+01  0.16315496276E+01  0.00000000000E+00 0.  1.
</event>
<event>
 5    1  0.4838219E+001  0.1533705E+01  0.7818608E-02  0.3428618E+00
         11   -1    0    0    0    0  0.00000000000E+00  0.00000000000E+00  0.39999999674E+01  0.40000000000E+01  0.51100000000E-03 0. -1.
    9000002   -1    0    0    0    0 -0.00000000000E+00 -0.00000000000E+00  0.00000000000E+00  0.93800000000E+00  0.93800000000E+00 0. -1.
         11    1    1    2    0    0 -0.43685253046E+00 -0.21372005184E+00  0.12348926673E+01  0.13272062970E+01  0.51100000000E-03 0. -1.
    9000002    1    1    2    0    0  0.63006917657E+00  0.49656125372E-01  0.35222591093E+00  0.11846349608E+01  0.93800000000E+00 0. -1.
         22    1    1    2    0    0 -0.19321664611E+00  0.16406392647E+00  0.24128813891E+01  0.24261587422E+01  0.00000000000E+00 0. -1.
</event>
<event>
 5    1  0.4838219E+001  0.1517276E+01  0.7818608E-02  0.3448352E+00
         11   -1    0    0    0    0  0.00000000000E+00  0.00000000000E+00  0.39999999674E+01  0.40000000000E+01  0.51100000000E-03 0. -1.
    9000002   -1    0    0    0    0 -0.00000000000E+00 -0.00000000000E+00  0.00000000000E+00  0.93800000000E+00  0.93800000000E+00 0. -1.
         11    1    1    2    0    0  0.14206616315E+00  0.16796356496E+00  0.35945145025E+00  0.42142634003E+00  0.51100000000E-03 0. -1.
    9000002    1    1    2    0    0  0.10918639360E+00 -0.28288827141E+00  0.12903078809E+00  0.99420339314E+00  0.93800000000E+00 0. -1.
         22    1    1    2    0    0 -0.25125255674E+00  0.11492470645E+00  0.35115177290E+01  0.35223702668E+01  0.00000000000E+00 0. -1.
</event>
<event>
 5    1  0.4838219E+001  0.1467110E+01  0.7818608E-02  0.3511561E+00
         11   -1    0    0    0    0  0.00000000000E+00  0.00000000000E+00  0.39999999674E+01  0.40000000000E+01  0.51100000000E-03 0. -1.
    9000002   -1    0    0    0    0 -0.00000000000E+00 -0.00000000000E+00  0.00000000000E+00  0.93800000000E+00  0.93800000000E+00 0. -1.
         11    1    1    2    0    0  0.14186205922E+00  0.81739763476E-01  0.11317215970E+00  0.19903374496E+00  0.51100000000E-03 0. -1.
    9000002    1    1    2    0    0  0.32083913975E+00 -0.13602221552E+00  0.19700640196E+00  0.10198506357E+01  0.93800000000E+00 0. -1.
         22    1    1    2    0    0 -0.46270119897E+00  0.54282452043E-01  0.36898214057E+01  0.37191156193E+01  0.00000000000E+00 0. -1.
</event>
<event>
 5    1  0.4838219E+001  0.1568550E+01  0.7818608E-02  0.3388222E+00
         11   -1    0    0    0    0  0.00000000000E+00  0.00000000000E+00  0.39999999674E+01  0.40000000000E+01  0.51100000000E-03 0. -1.
    9000002   -1    0    0    0    0 -0.00000000000E+00 -0.00000000000E+00  0.00000000000E+00  0.93800000000E+00  0.93800000000E+00 0.  1.
         11    1    1    2    0    0  0.77294051561E-01  0.13964709060E+00  0.28316052600E+01  0.28361001904E+01  0.51100000000E-03 0. -1.
    9000002    1    1    2    0    0  0.21708215495E-01  0.40877497528E-01  0.24329887428E-01  0.93945631077E+00  0.93800000000E+00 0.  1.
         22    1    1    2    0    0 -0.99002267056E-01 -0.18052458813E+00  0.11440648199E+01  0.11624434988E+01  0.00000000000E+00 0. -1.
</event>
<event>
 5    1  0.4838219E+001  0.1556370E+01  0.7818608E-02  0.3402124E+00
         11   -1    0    0    0    0  0.00000000000E+00  0.00000000000E+00  0.39999999674E+01  0.40000000000E+01  0.51100000000E-03 0.  1.
    9000002   -1    0    0    0    0 -0.00000000000E+00 -0.00000000000E+00  0.00000000000E+00  0.93800000000E+00  0.93800000000E+00 0.  1.
         11    1    1    2    0    0  0.18857820504E+00 -0.15894159320E+00  0.19549170714E+01  0.19704124408E+01  0.51100000000E-03 0.  1.
    9000002    1    1    2    0    0 -0.30034102717E-01 -0.43218078680E-01  0.33926262020E-01  0.94008767724E+00  0.93800000000E+00 0.  1.
         22    1    1    2    0    0 -0.15854410232E+00  0.20215967188E+00  0.20111566339E+01  0.20274998820E+01  0.00000000000E+00 0. -1.
</event>
<event>
 5    1  0.4838219E+001  0.1569912E+01  0.7818608E-02  0.3386682E+00
         11   -1    0    0    0    0  0.00000000000E+00  0.00000000000E+00  0.39999999674E+01  0.40000000000E+01  0.51100000000E-03 0.  1.
    9000002   -1    0    0    0    0 -0.00000000000E+00 -0.00000000000E+00  0.00000000000E+00  0.93800000000E+00  0.93800000000E+00 0. -1.
         11    1    1    2    0    0 -0.13194955789E+00 -0.43169636582E-01  0.30177065426E+00  0.33217479170E+00  0.51100000000E-03 0.  1.
    9000002    1    1    2    0    0  0.34245649087E+00 -0.13724821254E-01  0.10295766892E+00  0.10039467618E+01  0.93800000000E+00 0. -1.
         22    1    1    2    0    0 -0.21050693298E+00  0.56894457836E-01  0.35952716442E+01  0.36018784465E+01  0.00000000000E+00 0.  1.
</event>
<event>
 5    1  0.4838219E+001  0.1520381E+01  0.7818608E-02  0.3444588E+00
         11   -1    0    0    0    0  0.00000000000E+00  0.00000000000E+00  0.39999999674E+01  0.40000000000E+01  0.51100000000E-03 0. -1.
    9000002   -1    0    0    0    0 -0.00000000000E+00 -0.00000000000E+00  0.00000000000E+00  0.93800000000E+00  0.93800000000E+00 0. -1.
         11    1    1    2    0    0 -0.20779998840E+00  0.21689791394E+00  0.23999875833E+01  0.24187116822E+01  0.51100000000E-03 0. -1.
    9000002    1    1    2    0    0  0.32467788517E+00  0.17987343468E+00  0.16041083177E+00  0.10214430070E+01  0.93800000000E+00 0. -1.
         22    1    1    2    0    0 -0.11687789677E+00 -0.39677134862E+00  0.14396015523E+01  0.14978453108E+01  0.00000000000E+00 0. -1.
</event>
<event>
 5    1  0.4838219E+001  0.1501282E+01  0.7818608E-02  0.3468010E+00
         11   -1    0    0    0    0  0.00000000000E+00  0.00000000000E+00  0.39999999674E+01  0.40000000000E+01  0.51100000000E-03 0.  1.
    9000002   -1    0    0    0    0 -0.00000000000E+00 -0.00000000000E+00  0.00000000000E+00  0.93800000000E+00  0.93800000000E+00 0. -1.
         11    1    1    2    0    0 -0.43998032183E-01 -0.45128245978E+00  0.31289629680E+01  0.31616453314E+01  0.51100000000E-03 0.  1.
    9000002    1    1    2    0    0 -0.84759705011E-01  0.21414712911E+00  0.11387882405E+00  0.97255107170E+00  0.93800000000E+00 0. -1.
         22    1    1    2    0    0  0.12875773719E+00  0.23713533067E+00  0.75715817528E+00  0.80380359687E+00  0.00000000000E+00 0. -1.
</event>
<event>
 5    1  0.4838219E+001  0.1581769E+01  0.7818608E-02  0.3373391E+00
         11   -1    0    0    0    0  0.00000000000E+00  0.00000000000E+00  0.39999999674E+01  0.40000000000E+01  0.51100000000E-03 0.  1.
    9000002   -1    0    0    0    0 -0.00000000000E+00 -0.00000000000E+00  0.00000000000E+00  0.93800000000E+00  0.93800000000E+00 0. -1.
         11    1    1    2    0    0  0.72705769494E-01 -0.50650886673E-01  0.15263941171E+01  0.15289639967E+01  0.51100000000E-03 0.  1.
    9000002    1    1    2    0    0  0.79592296937E-01 -0.17448348549E+00  0.37840672338E-01  0.95815204270E+00  0.93800000000E+00 0. -1.
         22    1    1    2    0    0 -0.15229806643E+00  0.22513437216E+00  0.24357651779E+01  0.24508839606E+01  0.00000000000E+00 0.  1.
</event>
<event>
 5    1  0.4838219E+001  0.1564164E+01  0.7818608E-02  0.3393201E+00
         11   -1    0    0    0    0  0.00000000000E+00  0.00000000000E+00  0.39999999674E+01  0.40000000000E+01  0.51100000000E-03 0.  1.
    9000002   -1    0    0    0    0 -0.00000000000E+00 -0.00000000000E+00  0.00000000000E+00  0.93800000000E+00  0.93800000000E+00 0. -1.
         11    1    1    2    0    0 -0.16450148760E+00 -0.55180913758E-01  0.87224691861E+00  0.88933718061E+00  0.51100000000E-03 0.  1.
    9000002    1    1    2    0    0 -0.38599144811E-01 -0.85450925929E-01  0.32154702747E-01  0.94322302751E+00  0.93800000000E+00 0. -1.
         22    1    1    2    0    0  0.20310063241E+00  0.14063183969E+00  0.30955983460E+01  0.31054397919E+01  0.00000000000E+00 0.  1.
</event>
<event>
 5    1  0.4838219E+001  0.1599308E+01  0.7818608E-02  0.3354115E+00
         11   -1    0    0    0    0  0.00000000000E+00  0.00000000000E+00  0.39999999674E+01  0.40000000000E+01  0.51100000000E-03 0.  1.
    9000002   -1    0    0    0    0 -0.00000000000E+00 -0.00000000000E+00  0.00000000000E+00  0.93800000000E+00  0.93800000000E+00 0.  1.
         11    1    1    2    0    0  0.28395012804E-01  0.15633402485E+00  0.14590586673E+01  0.14676849321E+01  0.51100000000E-03 0.  1.
    9000002    1    1    2    0    0 -0.12317031209E+00 -0.38063303198E+00  0.10826687704E+00  0.10254843477E+01  0.93800000000E+00 0.  1.
         22    1    1    2    0    0  0.94775299281E-01  0.22429900712E+00  0.24326744230E+01  0.24448307202E+01  0.00000000000E+00 0.  1.
</event>
<event>
 5    1  0.4838219E+001  0.1524186E+01  0.7818608E-02  0.3439996E+00
         11   -1    0    0    0    0  0.00000000000E+00  0.00000000000E+00  0.39999999674E+01  0.40000000000E+01  0.51100000000E-03 0.  1.
    9000002   -1    0    0    0    0 -0.00000000000E+00 -0.00000000000E+00  0.00000000000E+00  0.93800000000E+00  0.93800000000E+00 0. -1.
         11    1    1    2    0    0 -0.30739049828E+00 -0.98289537029E-01  0.83962179078E+00  0.89950806789E+00  0.51100000000E-03 0.  1.
    9000002    1    1    2    0    0  0.28189890822E+00 -0.12221195010E+00  0.12490190926E+00  0.99491067043E+00  0.93800000000E+00 0. -1.
         22    1    1    2    0    0  0.25491590052E-01  0.22050148713E+00  0.30354762673E+01  0.30435812617E+01  0.00000000000E+00 0. -1.
</event>
<event>
 5    1  0.4838219E+001  0.1550137E+01  0.7818608E-02  0.3409327E+00
         11   -1    0    0    0    0  0.00000000000E+00  0.00000000000E+00  0.39999999674E+01  0.40000000000E+01  0.51100000000E-03 0.  1.
    9000002   -1    0    0    0    0 -0.00000000000E+00 -0.00000000000E+00  0.00000000000E+00  0.93800000000E+00  0.93800000000E+00 0.  1.
         11    1    1    2    0    0 -0.15080662373E+00 -0.15991893730E+00  0.11482747443E+01  0.11691243962E+01  0.51100000000E-03 0.  1.
    9000002    1    1    2    0    0 -0.17668290405E+00  0.83121616163E-01  0.63258329255E-01  0.96019355751E+00  0.93800000000E+00 0.  1.
         22    1    1    2    0    0  0.32748952778E+00  0.76797321134E-01  0.27884668938E+01  0.28086820462E+01  0.00000000000E+00 0.  1.
</event>
<event>
 5    1  0.4838219E+001  0.1304638E+01  0.7818608E-02  0.3773099E+00
         11   -1    0    0    0    0  0.00000000000E+00  0.00000000000E+00  0.39999999674E+01  0.40000000000E+01  0.51100000000E-03 0. -1.
    9000002   -1    0    0    0    0 -0.00000000000E+00 -0.00000000000E+00  0.00000000000E+00  0.93800000000E+00  0.93800000000E+00 0.  1.
         11    1    1    2    0    0 -0.39078410736E+00  0.86491102806E+00  0.23362854024E+01  0.25217083590E+01  0.51100000000E-03 0. -1.
    9000002    1    1    2    0    0  0.21533865454E+00 -0.45056175404E+00  0.51152111745E+00  0.11793534177E+01  0.93800000000E+00 0.  1.
         22    1    1    2    0    0  0.17544545282E+00 -0.41434927402E+00  0.11521934475E+01  0.12369382233E+01  0.00000000000E+00 0.  1.
</event>
<event>
 5    1  0.4838219E+001  0.1583613E+01  0.7818608E-02  0.3371344E+00
         11   -1    0    0    0    0  0.00000000000E+00  0.00000000000E+00  0.39999999674E+01  0.40000000000E+01  0.51100000000E-03 0.  1.
    9000002   -1    0    0    0    0 -0.00000000000E+00 -0.00000000000E+00  0.00000000000E+00  0.93800000000E+00  0.93800000000E+00 0. -1.
         11    1    1    2    0    0  0.24945383423E+00 -0.31615404707E+00  0.26163074465E+01  0.26471202301E+01  0.51100000000E-03 0.  1.
    9000002    1    1    2    0    0 -0.48464174119E+00  0.29662470180E+00  0.23940186807E+00  0.11225066082E+01  0.93800000000E+00 0. -1.
         22    1    1    2    0    0  0.23518790697E+00  0.19529345268E-01  0.11442906527E+01  0.11683731617E+01  0.00000000000E+00 0. -1.
</event>
<event>
 5    1  0.4838219E+001  0.1433118E+01  0.7818608E-02  0.3557125E+00
         11   -1    0    0    0    0  0.00000000000E+00  0.00000000000E+00  0.39999999674E+01  0.40000000000E+01  0.51100000000E-03 0.  1.
    9000002   -1    0    0    0    0 -0.00000000000E+00 -0.00000000000E+00  0.00000000000E+00  0.93800000000E+00  0.93800000000E+00 0. -1.
         11    1    1    2    0    0 -0.13650579894E+00  0.47774704744E+00  0.17840067805E+01  0.18519061878E+01  0.51100000000E-03 0.  1.
    9000002    1    1    2    0    0 -0.61397671378E-01 -0.35942218688E-01  0.13596013514E+00  0.95046866097E+00  0.93800000000E+00 0. -1.
         22    1    1    2    0    0  0.19790347032E+00 -0.44180482875E+00  0.20800330517E+01  0.21356251512E+01  0.00000000000E+00 0.  1.
</event>
<event>
 5    1  0.6913598E+001  0.1565250E+01  0.7818608E-02  0.3391966E+00
         11   -1    0    0    0    0  0.00000000000E+00  0.00000000000E+00  0.39999999674E+01  0.40000000000E+01  0.51100000000E-03 0. -1.
    9000002   -1    0    0    0    0 -0.00000000000E+00 -0.00000000000E+00  0.00000000000E+00  0.93800000000E+00  0.93800000000E+00 0. -1.
         11    1    1    2    0    0 -0.11530473811E+00 -0.68330444532E-01  0.44975986506E+00  0.46930632813E+00  0.51100000000E-03 0. -1.
    9000002    1    1    2    0    0 -0.51665381442E-01 -0.58737587373E-01  0.29512031157E-01  0.94171884116E+00  0.93800000000E+00 0. -1.
         22    1    1    2    0    0  0.16697011955E+00  0.12706803190E+00  0.35207280711E+01  0.35269748307E+01  0.00000000000E+00 0. -1.
</event>
<event>
 5    1  0.4838219E+001  0.1557123E+01  0.7818608E-02  0.3401257E+00
         11   -1    0    0    0    0  0.00000000000E+00  0.00000000000E+00  0.39999999674E+01  0.40000000000E+01  0.51100000000E-03 0. -1.
    9000002   -1    0    0    0    0 -0.00000000000E+00 -0.00000000000E+00  0.00000000000E+00  0.93800000000E+00  0.93800000000E+00 0. -1.
         11    1    1    2    0    0 -0.99532184390E-02  0.23842612655E+00  0.27052626583E+01  0.27157673678E+01  0.51100000000E-03 0. -1.
    9000002    1    1    2    0    0 -0.31504170897E-02 -0.10647994990E-01  0.31539388590E-01  0.93859577985E+00  0.93800000000E+00 0. -1.
         22    1    1    2    0    0  0.13103635529E-01 -0.22777813156E+00  0.12631979205E+01  0.12836368524E+01  0.00000000000E+00 0. -1.
</event>
<event>
 5    1  0.4838219E+001  0.1593182E+01  0.7818608E-02  0.3360797E+00
         11   -1    0    0    0    0  0.00000000000E+00  0.00000000000E+00  0.39999999674E+01  0.40000000000E+01  0.51100000000E-03 0.  1.
    9000002   -1    0    0    0    0 -0.00000000000E+00 -0.00000000000E+00  0.00000000000E+00  0.93800000000E+00  0.93800000000E+00 0.  1.
         11    1    1    2    0    0  0.12003866337E+00  0.25924864163E-01  0.17265550769E+01  0.17309171193E+01  0.51100000000E-03 0.  1.
    9000002    1    1    2    0    0 -0.22523203429E+00  0.15511240886E+00  0.54809592794E-01  0.97858950542E+00  0.93800000000E+00 0.  1.
         22    1    1    2    0    0  0.10519337092E+00 -0.18103727303E+00  0.22186352977E+01  0.22284933753E+01  0.00000000000E+00 0. -1.
</event>
<event>
 5    1  0.4838219E+001  0.1566662E+01  0.7818608E-02  0.3390362E+00
         11   -1    0    0    0    0  0.00000000000E+00  0.00000000000E+00  0.39999999674E+01  0.40000000000E+01  0.51100000000E-03 0. -1.
    9000002   -1    0    0    0    0 -0.00000000000E+00 -0.00000000000E+00  0.00000000000E+00  0.93800000000E+00  0.93800000000E+00 0.  1.
         11    1    1    2    0    0  0.10224959328E+00 -0.15581440201E+00  0.12308745129E+01  0.12449037854E+01  0.51100000000E-03 0. -1.
    9000002    1    1    2    0    0 -0.35964890426E-01 -0.80128610551E-01  0.29535253425E-01  0.94256585911E+00  0.93800000000E+00 0.  1.
         22    1    1    2    0    0 -0.66284702851E-01  0.23594301256E+00  0.27395902010E+01  0.27505303555E+01  0.00000000000E+00 0. -1.
</event>
<event>
 5    1  0.4838219E+001  0.1523077E+01  0.7818608E-02  0.3441332E+00
         11   -1    0    0    0    0  0.00000000000E+00  0.00000000000E+00  0.39999999674E+01  0.40000000000E+01  0.51100000000E-03 0. -1.
    9000002   -1    0    0    0    0 -0.00000000000E+00 -0.00000000000E+00  0.00000000000E+00  0.93800000000E+00  0.93800000000E+00 0. -1.
         11    1    1    2    0    0 -0.15416243736E+00 -0.12139248251E+00  0.22349963171E+00  0.29741307705E+00  0.51100000000E-03 0. -1.
    9000002    1    1    2    0    0  0.17399352146E+00  0.46313001278E+00  0.23965822635E+00  0.10872181105E+01  0.93800000000E+00 0. -1.
         22    1    1    2    0    0 -0.19831084092E-01 -0.34173753027E+00  0.35368421093E+01  0.35533688125E+01  0.00000000000E+00 0. -1.
</event>
<event>
 5    1  0.4838219E+001  0.1533071E+01  0.7818608E-02  0.3429371E+00
         11   -1    0    0    0    0  0.00000000000E+00  0.00000000000E+00  0.39999999674E+01  0.40000000000E+01  0.51100000000E-03 0.  1.
    9000002   -1    0    0    0    0 -0.00000000000E+00 -0.00000000000E+00  0.00000000000E+00  0.93800000000E+00  0.93800000000E+00 0.  1.
         11    1    1    2    0    0 -0.90478882603E-01 -0.25694852415E-01  0.81211138682E-01  0.12426650315E+00  0.51100000000E-03 0.  1.
    9000002    1    1    2    0    0 -0.17255139755E+00 -0.62348484455E-01  0.73655347063E-01  0.95860858981E+00  0.93800000000E+00 0.  1.
         22    1    1    2    0    0  0.26303028015E+00  0.88043336870E-01  0.38451334816E+01  0.38551249070E+01  0.00000000000E+00 0.  1.
</event>
<event>
 5    1  0.4838219E+001  0.1558334E+01  0.7818608E-02  0.3399866E+00
         11   -1    0    0    0    0  0.00000000000E+00  0.00000000000E+00  0.39999999674E+01  0.40000000000E+01  0.51100000000E-03 0. -1.
    9000002   -1    0    0    0    0 -0.00000000000E+00 -0.00000000000E+00  0.00000000000E+00  0.93800000000E+00  0.93800000000E+00 0.  1.
         11    1    1    2    0    0 -0.17769537890E+00 -0.16766144896E+00  0.19518483145E+01  0.19670785732E+01  0.51100000000E-03 0. -1.
    9000002    1    1    2    0    0  0.55074078579E-01 -0.51025585664E-01  0.34406626947E-01  0.94162868505E+00  0.93800000000E+00 0.  1.
         22    1    1    2    0    0  0.12262130032E+00  0.21868703462E+00  0.20137450259E+01  0.20292927417E+01  0.00000000000E+00 0. -1.
</event>
<event>
 5    1  0.4838219E+001  0.1502526E+01  0.7818608E-02  0.3466465E+00
         11   -1    0    0    0    0  0.00000000000E+00  0.00000000000E+00  0.39999999674E+01  0.40000000000E+01  0.51100000000E-03 0.  1.
    9000002   -1    0    0    0    0 -0.00000000000E+00 -0.00000000000E+00  0.00000000000E+00  0.93800000000E+00  0.93800000000E+00 0.  1.
         11    1    1    2    0    0  0.14753567463E+00  0.33261167859E+00  0.70205235727E+00  0.79074337018E+00  0.51100000000E-03 0.  1.
    9000002    1    1    2    0    0 -0.34542394498E+00 -0.24143489856E+00  0.20739174573E+00  0.10490299558E+01  0.93800000000E+00 0.  1.
         22    1    1    2    0    0  0.19788827035E+00 -0.91176780030E-01  0.30905558644E+01  0.30982266740E+01  0.00000000000E+00 0.  1.
</event>
<event>
 5    1  0.4838219E+001  0.1580742E+01  0.7818608E-02  0.3374534E+00
         11   -1    0    0    0    0  0.00000000000E+00  0.00000000000E+00  0.39999999674E+01  0.40000000000E+01  0.51100000000E-03 0.  1.
    9000002   -1    0    0    0    0 -0.00000000000E+00 -0.00000000000E+00  0.00000000000E+00  0.93800000000E+00  0.93800000000E+00 0.  1.
         11    1    1    2    0    0 -0.24442306937E+00  0.13483594695E+00  0.15946033028E+01  0.16188524713E+01  0.51100000000E-03 0.  1.
    9000002    1    1    2    0    0  0.40131904390E+00  0.19138520701E-01  0.12485457528E+00  0.10280349814E+01  0.93800000000E+00 0.  1.
         22    1    1    2    0    0 -0.15689597452E+00 -0.15397446765E+00  0.22805420893E+01  0.22911125474E+01  0.00000000000E+00 0. -1.
</event>
<event>
 5    1  0.4838219E+001  0.1551842E+01  0.7818608E-02  0.3407351E+00
         11   -1    0    0    0    0  0.00000000000E+00  0.00000000000E+00  0.39999999674E+01  0.40000000000E+01  0.51100000000E-03 0. -1.
    9000002   -1    0    0    0    0 -0.00000000000E+00 -0.00000000000E+00  0.00000000000E+00  0.93800000000E+00  0.93800000000E+00 0.  1.
         11    1    1    2    0    0  0.20187630233E+00  0.17552109167E+00  0.13291033474E+01  0.13557572291E+01  0.51100000000E-03 0. -1.
    9000002    1    1    2    0    0 -0.27763692658E-01 -0.52906269677E-01  0.37917164277E-01  0.94066551300E+00  0.93800000000E+00 0.  1.
         22    1    1    2    0    0 -0.17411260967E+00 -0.12261482199E+00  0.26329794556E+01  0.26415772579E+01  0.00000000000E+00 0. -1.
</event>
<event>
 5    1  0.4838219E+001  0.1582540E+01  0.7818608E-02  0.3372535E+00
         11   -1    0    0    0    0  0.00000000000E+00  0.00000000000E+00  0.39999999674E+01  0.40000000000E+01  0.51100000000E-03 0. -1.
    9000002   -1    0    0    0    0 -0.00000000000E+00 -0.00000000000E+00  0.00000000000E+00  0.93800000000E+00  0.93800000000E+00 0. -1.
         11    1    1    2    0    0 -0.15331945947E+00 -0.27374935280E-01  0.11571623288E+01  0.11675963172E+01  0.51100000000E-03 0. -1.
    9000002    1    1    2    0    0  0.59947306009E-01  0.25223021868E+00  0.57949294182E-01  0.97489275482E+00  0.93800000000E+00 0. -1.
         22    1    1    2    0    0  0.93372153465E-01 -0.22485528340E+00  0.27848883444E+01  0.27955109280E+01  0.00000000000E+00 0. -1.
</event>
<event>
 5    1  0.4838219E+001  0.1526134E+01  0.7818608E-02  0.3437656E+00
         11   -1    0    0    0    0  0.00000000000E+00  0.00000000000E+00  0.39999999674E+01  0.40000000000E+01  0.51100000000E-03 0.  1.
    9000002   -1    0    0    0    0 -0.00000000000E+00 -0.00000000000E+00  0.00000000000E+00  0.93800000000E+00  0.93800000000E+00 0. -1.
         11    1    1    2    0    0  0.59093161116E-01  0.24290117984E+00  0.73125762101E+00  0.77280719087E+00  0.51100000000E-03 0.  1.
    9000002    1    1    2    0    0  0.12828342076E-01  0.27898965459E-01  0.55910285175E-01  0.94016641007E+00  0.93800000000E+00 0. -1.
         22    1    1    2    0    0 -0.71921503192E-01 -0.27080014530E+00  0.32128320612E+01  0.32250263991E+01  0.00000000000E+00 0.  1.
</event>
<event>
 5    1  0.4838219E+001  0.1213674E+01  0.7818608E-02  0.3961698E+00
         11   -1    0    0    0    0  0.00000000000E+00  0.00000000000E+00  0.39999999674E+01  0.40000000000E+01  0.51100000000E-03 0.  1.
    9000002   -1    0    0    0    0 -0.00000000000E+00 -0.00000000000E+00  0.00000000000E+00  0.93800000000E+00  0.93800000000E+00 0.  1.
         11    1    1    2    0    0 -0.69039565471E+00  0.36907110549E-01  0.13419060737E+01  0.15095431317E+01  0.51100000000E-03 0.  1.
    9000002    1    1    2    0    0 -0.91915359517E-01 -0.10299176363E+00  0.38445627670E+00  0.10230866852E+01  0.93800000000E+00 0. -1.
         22    1    1    2    0    0  0.78231101423E+00  0.66084653081E-01  0.22736376170E+01  0.24053701831E+01  0.00000000000E+00 0.  1.
</event>
<event>
 5    1  0.4838219E+001  0.1556528E+01  0.7818608E-02  0.3401941E+00
         11   -1    0    0    0    0  0.00000000000E+00  0.00000000000E+00  0.39999999674E+01  0.40000000000E+01  0.51100000000E-03 0. -1.
    9000002   -1    0    0    0    0 -0.00000000000E+00 -0.00000000000E+00  0.00000000000E+00  0.93800000000E+00  0.93800000000E+00 0. -1.
         11    1    1    2    0    0  0.37414000027E-01 -0.28308082985E+00  0.20246695710E+01  0.20447057726E+01  0.51100000000E-03 0. -1.
    9000002    1    1    2    0    0  0.38616247541E-01  0.77899014090E-01  0.37099801037E-01  0.94275122180E+00  0.93800000000E+00 0. -1.
         22    1    1    2    0    0 -0.76030247567E-01  0.20518181576E+00  0.19382305953E+01  0.19505430056E+01  0.00000000000E+00 0. -1.
</event>
<event>
 5    1  0.4838219E+001  0.1526716E+01  0.7818608E-02  0.3436958E+00
         11   -1    0    0    0    0  0.00000000000E+00  0.00000000000E+00  0.39999999674E+01  0.40000000000E+01  0.51100000000E-03 0. -1.
    9000002   -1    0    0    0    0 -0.00000000000E+00 -0.00000000000E+00  0.00000000000E+00  0.93800000000E+00  0.93800000000E+00 0. -1.
         11    1    1    2    0    0  0.42969012637E-01 -0.26561386248E+00  0.90814357671E+00  0.94716528496E+00  0.51100000000E-03 0. -1.
    9000002    1    1    2    0    0 -0.51032615600E-01 -0.32960530340E-01  0.57402426931E-01  0.94171639204E+00  0.93800000000E+00 0. -1.
         22    1    1    2    0    0  0.80636029636E-02  0.29857439282E+00  0.30344539637E+01  0.30491183230E+01  0.00000000000E+00 0. -1.
</event>
<event>
 5    1  0.4838219E+001  0.1453176E+01  0.7818608E-02  0.3529958E+00
         11   -1    0    0    0    0  0.00000000000E+00  0.00000000000E+00  0.39999999674E+01  0.40000000000E+01  0.51100000000E-03 0. -1.
    9000002   -1    0    0    0    0 -0.00000000000E+00 -0.00000000000E+00  0.00000000000E+00  0.93800000000E+00  0.93800000000E+00 0.  1.
         11    1    1    2    0    0  0.26887898631E+00  0.30105182730E+00  0.12154772347E+01  0.12807471574E+01  0.51100000000E-03 0. -1.
    9000002    1    1    2    0    0  0.14586798114E+00 -0.31904288948E-01  0.13187569904E+00  0.95892155653E+00  0.93800000000E+00 0.  1.
         22    1    1    2    0    0 -0.41474696745E+00 -0.26914753835E+00  0.26526470337E+01  0.26983312861E+01  0.00000000000E+00 0. -1.
</event>
<event>
 5    1  0.4838219E+001  0.1594625E+01  0.7818608E-02  0.3359218E+00
         11   -1    0    0    0    0  0.00000000000E+00  0.00000000000E+00  0.39999999674E+01  0.40000000000E+01  0.51100000000E-03 0.  1.
    9000002   -1    0    0    0    0 -0.00000000000E+00 -0.00000000000E+00  0.00000000000E+00  0.93800000000E+00  0.93800000000E+00 0.  1.
         11    1    1    2    0    0  0.73625502294E-01 -0.41363289495E-01  0.11294880563E+01  0.11326407934E+01  0.51100000000E-03 0.  1.
    9000002    1    1    2    0    0 -0.14038851872E-01  0.26210294492E+00  0.49703458155E-01  0.97529968566E+00  0.93800000000E+00 0.  1.
         22    1    1    2    0    0 -0.59586650421E-01 -0.22073965542E+00  0.28208084529E+01  0.28300595210E+01  0.00000000000E+00 0. -1.
</event>
<event>
 5    1  0.4838219E+001  0.1545594E+01  0.7818608E-02  0.3414617E+00
         11   -1    0    0    0    0  0.00000000000E+00  0.00000000000E+00  0.39999999674E+01  0.40000000000E+01  0.51100000000E-03 0.  1.
    9000002   -1    0    0    0    0 -0.00000000000E+00 -0.00000000000E+00  0.00000000000E+00  0.93800000000E+00  0.93800000000E+00 0.  1.
         11    1    1    2    0    0  0.27894470201E+00 -0.20772319822E-01  0.15507557621E+01  0.15757808638E+01  0.51100000000E-03 0.  1.
    9000002    1    1    2    0    0 -0.17913505323E-01 -0.17796801978E-01  0.40655570608E-01  0.93922015271E+00  0.93800000000E+00 0.  1.
         22    1    1    2    0    0 -0.26103119669E+00  0.38569121800E-01  0.24085886347E+01  0.24229989835E+01  0.00000000000E+00 0. -1.
</event>
<event>
 5    1  0.4838219E+001  0.1591854E+01  0.7818608E-02  0.3362252E+00
         11   -1    0    0    0    0  0.00000000000E+00  0.00000000000E+00  0.39999999674E+01  0.40000000000E+01  0.51100000000E-03 0. -1.
    9000002   -1    0    0    0    0 -0.00000000000E+00 -0.00000000000E+00  0.00000000000E+00  0.93800000000E+00  0.93800000000E+00 0.  1.
         11    1    1    2    0    0 -0.43323333667E+00  0.19331197373E+00  0.25105668836E+01  0.25549964739E+01  0.51100000000E-03 0. -1.
    9000002    1    1    2    0    0  0.68604202868E+00 -0.14959154290E+00  0.36140721551E+00  0.12261690219E+01  0.93800000000E+00 0.  1.
         22    1    1    2    0    0 -0.25280869200E+00 -0.43720430834E-01  0.11280258682E+01  0.11568345043E+01  0.00000000000E+00 0. -1.
</event>
<event>
 5    1  0.4838219E+001  0.1533367E+01  0.7818608E-02  0.3429020E+00
         11   -1    0    0    0    0  0.00000000000E+00  0.00000000000E+00  0.39999999674E+01  0.40000000000E+01  0.51100000000E-03 0.  1.
    9000002   -1    0    0    0    0 -0.00000000000E+00 -0.00000000000E+00  0.00000000000E+00  0.93800000000E+00  0.93800000000E+00 0. -1.
         11    1    1    2    0    0  0.25010309434E+00 -0.33023580121E+00  0.31503216888E+01  0.31774414623E+01  0.51100000000E-03 0.  1.
    9000002    1    1    2    0    0 -0.22245485433E+00  0.11800720506E+00  0.94687074825E-01  0.97581837695E+00  0.93800000000E+00 0. -1.
         22    1    1    2    0    0 -0.27648240012E-01  0.21222859614E+00  0.75499120371E+00  0.78474016074E+00  0.00000000000E+00 0.  1.
</event>
<event>
 5    1  0.4838219E+001  0.1546146E+01  0.7818608E-02  0.3413972E+00
         11   -1    0    0    0    0  0.00000000000E+00  0.00000000000E+00  0.39999999674E+01  0.40000000000E+01  0.51100000000E-03 0. -1.
    9000002   -1    0    0    0    0 -0.00000000000E+00 -0.00000000000E+00  0.00000000000E+00  0.93800000000E+00  0.93800000000E+00 0. -1.
         11    1    1    2    0    0  0.77485408681E-01  0.31125744913E-01  0.79367967957E-01  0.11520562492E+00  0.51100000000E-03 0. -1.
    9000002    1    1    2    0    0  0.12971691244E+00 -0.41288097633E-01  0.52686564571E-01  0.94928976528E+00  0.93800000000E+00 0. -1.
         22    1    1    2    0    0 -0.20720232112E+00  0.10162352720E-01  0.38679454348E+01  0.38735046098E+01  0.00000000000E+00 0. -1.
</event>
<event>
 5    1  0.4838219E+001  0.1525664E+01  0.7818608E-02  0.3438220E+00
         11   -1    0    0    0    0  0.00000000000E+00  0.00000000000E+00  0.39999999674E+01  0.40000000000E+01  0.51100000000E-03 0.  1.
    9000002   -1    0    0    0    0 -0.00000000000E+00 -0.00000000000E+00  0.00000000000E+00  0.93800000000E+00  0.93800000000E+00 0.  1.
         11    1    1    2    0    0  0.23489604231E+00  0.13213200766E+00  0.16573957574E+01  0.16791652616E+01  0.51100000000E-03 0.  1.
    9000002    1    1    2    0    0  0.39712699120E-01  0.16795110116E+00  0.76826569896E-01  0.95683383756E+00  0.93800000000E+00 0.  1.
         22    1    1    2    0    0 -0.27460874143E+00 -0.30008310882E+00  0.22657776401E+01  0.23020009008E+01  0.00000000000E+00 0.  1.
</event>
<event>
 5    1  0.4838219E+001  0.1558883E+01  0.7818608E-02  0.3399237E+00
         11   -1    0    0    0    0  0.00000000000E+00  0.00000000000E+00  0.39999999674E+01  0.40000000000E+01  0.51100000000E-03 0. -1.
    9000002   -1    0    0    0    0 -0.00000000000E+00 -0.00000000000E+00  0.00000000000E+00  0.93800000000E+00  0.93800000000E+00 0. -1.
         11    1    1    2    0    0  0.24580266394E+00  0.63410256038E-01  0.14628053535E+01  0.14846681695E+01  0.51100000000E-03 0. -1.
    9000002    1    1    2    0    0 -0.77073062238E-01  0.68733566363E-01  0.37443378853E-01  0.94441016867E+00  0.93800000000E+00 0. -1.
         22    1    1    2    0    0 -0.16872960170E+00 -0.13214382240E+00  0.24997512350E+01  0.25089216618E+01  0.00000000000E+00 0. -1.
</event>
<event>
 5    1  0.4838219E+001  0.1466908E+01  0.7818608E-02  0.3511825E+00
         11   -1    0    0    0    0  0.00000000000E+00  0.00000000000E+00  0.39999999674E+01  0.40000000000E+01  0.51100000000E-03 0.  1.
    9000002   -1    0    0    0    0 -0.00000000000E+00 -0.00000000000E+00  0.00000000000E+00  0.93800000000E+00  0.93800000000E+00 0.  1.
         11    1    1    2    0    0 -0.94394938426E-01 -0.34713618768E+00  0.10764358604E+01  0.11349574265E+01  0.51100000000E-03 0.  1.
    9000002    1    1    2    0    0  0.12043994336E+00 -0.15173959979E+00  0.13166664140E+00  0.96680442208E+00  0.93800000000E+00 0.  1.
         22    1    1    2    0    0 -0.26045004932E-01  0.49887578747E+00  0.27918974655E+01  0.28362381514E+01  0.00000000000E+00 0.  1.
</event>
<event>
 5    1  0.4838219E+001  0.1490467E+01  0.7818608E-02  0.3481559E+00
         11   -1    0    0    0    0  0.00000000000E+00  0.00000000000E+00  0.39999999674E+01  0.40000000000E+01  0.51100000000E-03 0. -1.
    9000002   -1    0    0    0    0 -0.00000000000E+00 -0.00000000000E+00  0.00000000000E+00  0.93800000000E+00  0.93800000000E+00 0. -1.
         11    1    1    2    0    0 -0.22598256500E+00 -0.21527693768E+00  0.27724515071E+01  0.27899641396E+01  0.51100000000E-03 0. -1.
    9000002    1    1    2    0    0 -0.58702361117E-01 -0.43463201850E-01  0.87580508954E-01  0.94490706562E+00  0.93800000000E+00 0. -1.
         22    1    1    2    0    0  0.28468492611E+00  0.25874013953E+00  0.11399679513E+01  0.12031287948E+01  0.00000000000E+00 0.  1.
</event>
<event>
 5    1  0.4838219E+001  0.1535041E+01  0.7818608E-02  0.3427033E+00
         11   -1    0    0    0    0  0.00000000000E+00  0.00000000000E+00  0.39999999674E+01  0.40000000000E+01  0.51100000000E-03 0.  1.
    9000002   -1    0    0    0    0 -0.00000000000E+00 -0.00000000000E+00  0.00000000000E+00  0.93800000000E+00  0.93800000000E+00 0.  1.
         11    1    1    2    0    0  0.14044986357E-01 -0.33070724067E+00  0.26753198750E+01  0.26957190572E+01  0.51100000000E-03 0.  1.
    9000002    1    1    2    0    0 -0.85121289913E-01  0.70802786442E-01  0.56944337902E-01  0.94622688938E+00  0.93800000000E+00 0.  1.
         22    1    1    2    0    0  0.71076303556E-01  0.25990445423E+00  0.12677357545E+01  0.12960540534E+01  0.00000000000E+00 0.  1.
</event>
<event>
 5    1  0.4838219E+001  0.1499045E+01  0.7818608E-02  0.3470796E+00
         11   -1    0    0    0    0  0.00000000000E+00  0.00000000000E+00  0.39999999674E+01  0.40000000000E+01  0.51100000000E-03 0.  1.
    9000002   -1    0    0    0    0 -0.00000000000E+00 -0.00000000000E+00  0.00000000000E+00  0.93800000000E+00  0.93800000000E+00 0.  1.
         11    1    1    2    0    0 -0.30979229533E+00 -0.23685226174E+00  0.11550110571E+01  0.12190656518E+01  0.51100000000E-03 0.  1.
    9000002    1    1    2    0    0  0.18898038556E+00 -0.63271009689E+00  0.57102603513E+00  0.12813861189E+01  0.93800000000E+00 0.  1.
         22    1    1    2    0    0  0.12081190977E+00  0.86956235863E+00  0.22739628751E+01  0.24375482294E+01  0.00000000000E+00 0.  1.
</event>
<event>
 5    1  0.4838219E+001  0.1459297E+01  0.7818608E-02  0.3521829E+00
         11   -1    0    0    0    0  0.00000000000E+00  0.00000000000E+00  0.39999999674E+01  0.40000000000E+01  0.51100000000E-03 0. -1.
    9000002   -1    0    0    0    0 -0.00000000000E+00 -0.00000000000E+00  0.00000000000E+00  0.93800000000E+00  0.93800000000E+00 0.  1.
         11    1    1    2    0    0 -0.75517730795E-01 -0.32230237332E+00  0.60916644591E+00  0.69330063281E+00  0.51100000000E-03 0. -1.
    9000002    1    1    2    0    0 -0.18419601060E+00  0.23312271011E-01  0.13595508111E+00  0.96581541527E+00  0.93800000000E+00 0.  1.
         22    1    1    2    0    0  0.25971374140E+00  0.29899010231E+00  0.32548784403E+01  0.32788839519E+01  0.00000000000E+00 0. -1.
</event>
<event>
 5    1  0.4892140E+001  0.1553749E+01  0.7818608E-02  0.3405145E+00
         11   -1    0    0    0    0  0.00000000000E+00  0.00000000000E+00  0.39999999674E+01  0.40000000000E+01  0.51100000000E-03 0. -1.
    9000002   -1    0    0    0    0 -0.00000000000E+00 -0.00000000000E+00  0.00000000000E+00  0.93800000000E+00  0.93800000000E+00 0.  1.
         11    1    1    2    0    0  0.12053473388E+00  0.23851018918E+00  0.21588813757E+01  0.21753585424E+01  0.51100000000E-03 0. -1.
    9000002    1    1    2    0    0  0.64184022849E-02 -0.24972665440E-01  0.34464180204E-01  0.93898701249E+00  0.93800000000E+00 0.  1.
         22    1    1    2    0    0 -0.12695313617E+00 -0.21353752374E+00  0.18066544114E+01  0.18236544451E+01  0.00000000000E+00 0. -1.
</event>
<event>
 5    1  0.4838219E+001  0.1513510E+01  0.7818608E-02  0.3452941E+00
         11   -1    0    0    0    0  0.00000000000E+00  0.00000000000E+00  0.39999999674E+01  0.40000000000E+01  0.51100000000E-03 0.  1.
    9000002   -1    0    0    0    0 -0.00000000000E+00 -0.00000000000E+00  0.00000000000E+00  0.93800000000E+00  0.93800000000E+00 0. -1.
         11    1    1    2    0    0  0.32218057977E+00  0.15953470648E+00  0.24755471586E+01  0.25015166687E+01  0.51100000000E-03 0.  1.
    9000002    1    1    2    0    0  0.20477381842E-01 -0.33063991369E+00  0.14554230429E+00  0.10053699011E+01  0.93800000000E+00 0. -1.
         22    1    1    2    0    0 -0.34265796161E+00  0.17110520721E+00  0.13789105045E+01  0.14311134302E+01  0.00000000000E+00 0. -1.
</event>
<event>
 5    1  0.4838219E+001  0.1575310E+01  0.7818608E-02  0.3380604E+00
         11   -1    0    0    0    0  0.00000000000E+00  0.00000000000E+00  0.39999999674E+01  0.40000000000E+01  0.51100000000E-03 0.  1.
    9000002   -1    0    0    0    0 -0.00000000000E+00 -0.00000000000E+00  0.00000000000E+00  0.93800000000E+00  0.93800000000E+00 0.  1.
         11    1    1    2    0    0  0.14892061313E+00  0.24246326514E-01  0.19722898329E+01  0.19780527495E+01  0.51100000000E-03 0.  1.
    9000002    1    1    2    0    0  0.78467569328E-01 -0.45081328159E-01  0.23372708511E-01  0.94264509180E+00  0.93800000000E+00 0.  1.
         22    1    1    2    0    0 -0.22738818246E+00  0.20835001645E-01  0.20043374259E+01  0.20173021588E+01  0.00000000000E+00 0.  1.
</event>
<event>
 5    1  0.4838219E+001  0.1492990E+01  0.7818608E-02  0.3478379E+00
         11   -1    0    0    0    0  0.00000000000E+00  0.00000000000E+00  0.39999999674E+01  0.40000000000E+01  0.51100000000E-03 0. -1.
    9000002   -1    0    0    0    0 -0.00000000000E+00 -0.00000000000E+00  0.00000000000E+00  0.93800000000E+00  0.93800000000E+00 0. -1.
         11    1    1    2    0    0  0.41504516711E+00 -0.77085600848E-02  0.53400637953E+00  0.67637636500E+00  0.51100000000E-03 0. -1.
    9000002    1    1    2    0    0 -0.17992706515E+00 -0.74863208222E-01  0.19065258543E+00  0.97681659335E+00  0.93800000000E+00 0. -1.
         22    1    1    2    0    0 -0.23511810196E+00  0.82571768307E-01  0.32753410024E+01  0.32848070416E+01  0.00000000000E+00 0. -1.
</event>
<event>
 5    1  0.4838219E+001  0.1559431E+01  0.7818608E-02  0.3398608E+00
         11   -1    0    0    0    0  0.00000000000E+00  0.00000000000E+00  0.39999999674E+01  0.40000000000E+01  0.51100000000E-03 0. -1.
    9000002   -1    0    0    0    0 -0.00000000000E+00 -0.00000000000E+00  0.00000000000E+00  0.93800000000E+00  0.93800000000E+00 0. -1.
         11    1    1    2    0    0  0.93463867117E-01  0.21606093451E+00  0.15615297994E+01  0.15791749103E+01  0.51100000000E-03 0. -1.
    9000002    1    1    2    0    0  0.14731957538E-01 -0.52235441298E-02  0.29880998787E-01  0.93860598233E+00  0.93800000000E+00 0. -1.
         22    1    1    2    0    0 -0.10819582465E+00 -0.21083739038E+00  0.24085891692E+01  0.24202191073E+01  0.00000000000E+00 0. -1.
</event>
<event>
 5    1  0.4838219E+001  0.1555108E+01  0.7818608E-02  0.3403577E+00
         11   -1    0    0    0    0  0.00000000000E+00  0.00000000000E+00  0.39999999674E+01  0.40000000000E+01  0.51100000000E-03 0. -1.
    9000002   -1    0    0    0    0 -0.00000000000E+00 -0.00000000000E+00  0.00000000000E+00  0.93800000000E+00  0.93800000000E+00 0.  1.
         11    1    1    2    0    0 -0.28275294552E+00 -0.54719430934E-01  0.20782735135E+01  0.20981335759E+01  0.51100000000E-03 0. -1.
    9000002    1    1    2    0    0  0.11292695332E+00  0.32962700066E+00  0.11815495518E+00  0.10075768208E+01  0.93800000000E+00 0.  1.
         22    1    1    2    0    0  0.16982599220E+00 -0.27490756973E+00  0.18035714987E+01  0.18322896033E+01  0.00000000000E+00 0. -1.
</event>
<event>
 5    1  0.4838219E+001  0.1579972E+01  0.7818608E-02  0.3375392E+00
         11   -1    0    0    0    0  0.00000000000E+00  0.00000000000E+00  0.39999999674E+01  0.40000000000E+01  0.51100000000E-03 0. -1.
    9000002   -1    0    0    0    0 -0.00000000000E+00 -0.00000000000E+00  0.00000000000E+00  0.93800000000E+00  0.93800000000E+00 0.  1.
         11    1    1    2    0    0 -0.26591550559E-01 -0.20459547005E+00  0.16772367909E+01  0.16898786734E+01  0.51100000000E-03 0. -1.
    9000002    1    1    2    0    0  0.32310313495E+00  0.18779968541E+00  0.11018605162E+00  0.10157013949E+01  0.93800000000E+00 0.  1.
         22    1    1    2    0    0 -0.29651158439E+00  0.16795784640E-01  0.22125771248E+01  0.22324199317E+01  0.00000000000E+00 0. -1.
</event>
<event>
 5    1  0.4838219E+001  0.1577541E+01  0.7818608E-02  0.3378107E+00
         11   -1    0    0    0    0  0.00000000000E+00  0.00000000000E+00  0.39999999674E+01  0.40000000000E+01  0.51100000000E-03 0.  1.
    9000002   -1    0    0    0    0 -0.00000000000E+00 -0.00000000000E+00  0.00000000000E+00  0.93800000000E+00  0.93800000000E+00 0.  1.
         11    1    1    2    0    0  0.15996448428E+00 -0.85223594444E-01  0.12396906630E+01  0.12528706630E+01  0.51100000000E-03 0.  1.
    9000002    1    1    2    0    0  0.13238400291E-01  0.18876856159E+00  0.40405596349E-01  0.95775019567E+00  0.93800000000E+00 0.  1.
         22    1    1    2    0    0 -0.17320288457E+00 -0.10354496714E+00  0.27199037080E+01  0.27273791413E+01  0.00000000000E+00 0.  1.
</event>
<event>
 5    1  0.4838219E+001  0.1556478E+01  0.7818608E-02  0.3401999E+00
         11   -1    0    0    0    0  0.00000000000E+00  0.00000000000E+00  0.39999999674E+01  0.40000000000E+01  0.51100000000E-03 0.  1.
    9000002   -1    0    0    0    0 -0.00000000000E+00 -0.00000000000E+00  0.00000000000E+00  0.93800000000E+00  0.93800000000E+00 0. -1.
         11    1    1    2    0    0  0.52935867289E-01 -0.21595084782E+00  0.11347938919E+01  0.11563712262E+01  0.51100000000E-03 0.  1.
    9000002    1    1    2    0    0  0.19454556835E-01 -0.95395626902E-02  0.32263807074E-01  0.93880479136E+00  0.93800000000E+00 0. -1.
         22    1    1    2    0    0 -0.72390424125E-01  0.22549041051E+00  0.28329422684E+01  0.28428239824E+01  0.00000000000E+00 0.  1.
</event>
<event>
 5    1  0.4838219E+001  0.1564086E+01  0.7818608E-02  0.3393290E+00
         11   -1    0    0    0    0  0.00000000000E+00  0.00000000000E+00  0.39999999674E+01  0.40000000000E+01  0.51100000000E-03 0. -1.
    9000002   -1    0    0    0    0 -0.00000000000E+00 -0.00000000000E+00  0.00000000000E+00  0.93800000000E+00  0.93800000000E+00 0.  1.
         11    1    1    2    0    0 -0.25182567687E+00  0.65977518068E-01  0.15922376779E+01  0.16133785323E+01  0.51100000000E-03 0. -1.
    9000002    1    1    2    0    0  0.21300709044E+00  0.20649975420E+00  0.87045563650E-01  0.98764117938E+00  0.93800000000E+00 0.  1.
         22    1    1    2    0    0  0.38818586435E-01 -0.27247727227E+00  0.23207167258E+01  0.23369802883E+01  0.00000000000E+00 0. -1.
</event>
<event>
 5    1  0.4838219E+001  0.1569250E+01  0.7818608E-02  0.3387430E+00
         11   -1    0    0    0    0  0.00000000000E+00  0.00000000000E+00  0.39999999674E+01  0.40000000000E+01  0.51100000000E-03 0. -1.
    9000002   -1    0    0    0    0 -0.00000000000E+00 -0.00000000000E+00  0.00000000000E+00  0.93800000000E+00  0.93800000000E+00 0.  1.
         11    1    1    2    0    0 -0.19023132259E+00  0.62212565910E-01  0.14237789501E+01  0.14377778407E+01  0.51100000000E-03 0. -1.
    9000002    1    1    2    0    0  0.35515676531E-01  0.91833714783E-01  0.28935610621E-01  0.94359740568E+00  0.93800000000E+00 0.  1.
         22    1    1    2    0    0  0.15471564606E+00 -0.15404628069E+00  0.25472854067E+01  0.25566247536E+01  0.00000000000E+00 0. -1.
</event>
<event>
 5    1  0.4838219E+001  0.1528650E+01  0.7818608E-02  0.3434642E+00
         11   -1    0    0    0    0  0.00000000000E+00  0.00000000000E+00  0.39999999674E+01  0.40000000000E+01  0.51100000000E-03 0. -1.
    9000002   -1    0    0    0    0 -0.00000000000E+00 -0.00000000000E+00  0.00000000000E+00  0.93800000000E+00  0.93800000000E+00 0.  1.
         11    1    1    2    0    0  0.45208898250E+00  0.22964239798E+00  0.13426967387E+01  0.14352542884E+01  0.51100000000E-03 0. -1.
    9000002    1    1    2    0    0 -0.38662155477E+00 -0.49043545622E+00  0.35021493399E+00  0.11800413820E+01  0.93800000000E+00 0.  1.
         22    1    1    2    0    0 -0.65467427737E-01  0.26079305824E+00  0.23070882946E+01  0.23227043295E+01  0.00000000000E+00 0. -1.
</event>
<event>
 5    1  0.4838219E+001  0.1536721E+01  0.7818608E-02  0.3425044E+00
         11   -1    0    0    0    0  0.00000000000E+00  0.00000000000E+00  0.39999999674E+01  0.40000000000E+01  0.51100000000E-03 0. -1.
    9000002   -1    0    0    0    0 -0.00000000000E+00 -0.00000000000E+00  0.00000000000E+00  0.93800000000E+00  0.93800000000E+00 0. -1.
         11    1    1    2    0    0  0.30590500940E+00  0.51853635001E-01  0.13757045188E+01  0.14102587913E+01  0.51100000000E-03 0. -1.
    9000002    1    1    2    0    0 -0.60238534266E-01 -0.23495303126E-01  0.49957144658E-01  0.94155213694E+00  0.93800000000E+00 0. -1.
         22    1    1    2    0    0 -0.24566647514E+00 -0.28358331875E-01  0.25743383039E+01  0.25861890718E+01  0.00000000000E+00 0. -1.
</event>
<event>
 5    1  0.4838219E+001  0.1578871E+01  0.7818608E-02  0.3376621E+00
         11   -1    0    0    0    0  0.00000000000E+00  0.00000000000E+00  0.39999999674E+01  0.40000000000E+01  0.51100000000E-03 0. -1.
    9000002   -1    0    0    0    0 -0.00000000000E+00 -0.00000000000E+00  0.00000000000E+00  0.93800000000E+00  0.93800000000E+00 0. -1.
         11    1    1    2    0    0 -0.22475535024E-01 -0.16556814030E+00  0.12621345705E+01  0.12731464542E+01  0.51100000000E-03 0. -1.
    9000002    1    1    2    0    0  0.16250684443E+00  0.20347080272E-01  0.33297723128E-01  0.95277238443E+00  0.93800000000E+00 0. -1.
         22    1    1    2    0    0 -0.14003130941E+00  0.14522106003E+00  0.27045676738E+01  0.27120811614E+01  0.00000000000E+00 0. -1.
</event>
<event>
 5    1  0.4838219E+001  0.1554539E+01  0.7818608E-02  0.3404233E+00
         11   -1    0    0    0    0  0.00000000000E+00  0.00000000000E+00  0.39999999674E+01  0.40000000000E+01  0.51100000000E-03 0. -1.
    9000002   -1    0    0    0    0 -0.00000000000E+00 -0.00000000000E+00  0.00000000000E+00  0.93800000000E+00  0.93800000000E+00 0.  1.
         11    1    1    2    0    0 -0.16356226873E+00 -0.18019575548E+00  0.18264702332E+01  0.18426114349E+01  0.51100000000E-03 0. -1.
    9000002    1    1    2    0    0  0.89779324835E-01 -0.94286110809E-01  0.45100256685E-01  0.94806552042E+00  0.93800000000E+00 0.  1.
         22    1    1    2    0    0  0.73782943894E-01  0.27448186629E+00  0.21284294774E+01  0.21473230447E+01  0.00000000000E+00 0. -1.
</event>
<event>
 5    1  0.4838219E+001  0.1496822E+01  0.7818608E-02  0.3473572E+00
         11   -1    0    0    0    0  0.00000000000E+00  0.00000000000E+00  0.39999999674E+01  0.40000000000E+01  0.51100000000E-03 0. -1.
    9000002   -1    0    0    0    0 -0.00000000000E+00 -0.00000000000E+00  0.00000000000E+00  0.93800000000E+00  0.93800000000E+00 0.  1.
         11    1    1    2    0    0 -0.18188438835E+00 -0.40290884093E-01  0.23050255077E+00  0.29637303031E+00  0.51100000000E-03 0. -1.
    9000002    1    1    2    0    0 -0.98797771297E-01  0.17106542705E-01  0.85864889958E-01  0.94724358681E+00  0.93800000000E+00 0.  1.
         22    1    1    2    0    0  0.28068215965E+00  0.23184341389E-01  0.36836325266E+01  0.36943833829E+01  0.00000000000E+00 0. -1.
</event>
<event>
 5    1  0.4838219E+001  0.1559652E+01  0.7818608E-02  0.3398355E+00
         11   -1    0    0    0    0  0.00000000000E+00  0.00000000000E+00  0.39999999674E+01  0.40000000000E+01  0.51100000000E-03 0.  1.
    9000002   -1    0    0    0    0 -0.00000000000E+00 -0.00000000000E+00  0.00000000000E+00  0.93800000000E+00  0.93800000000E+00 0.  1.
         11    1    1    2    0    0 -0.47235859680E+00 -0.37711275624E+00  0.17487663323E+01  0.18502758229E+01  0.51100000000E-03 0.  1.
    9000002    1    1    2    0    0  0.48826146704E+00  0.58991661930E+00  0.47819393094E+00  0.13018887485E+01  0.93800000000E+00 0.  1.
         22    1    1    2    0    0 -0.15902870248E-01 -0.21280386306E+00  0.17730397041E+01  0.17858354285E+01  0.00000000000E+00 0.  1.
</event>
<event>
 5    1  0.4838219E+001  0.1564611E+01  0.7818608E-02  0.3392693E+00
         11   -1    0    0    0    0  0.00000000000E+00  0.00000000000E+00  0.39999999674E+01  0.40000000000E+01  0.51100000000E-03 0. -1.
    9000002   -1    0    0    0    0 -0.00000000000E+00 -0.00000000000E+00  0.00000000000E+00  0.93800000000E+00  0.93800000000E+00 0. -1.
         11    1    1    2    0    0  0.96343792616E-01  0.15492113273E+00  0.73065428975E+00  0.75308607476E+00  0.51100000000E-03 0. -1.
    9000002    1    1    2    0    0 -0.21834975664E+00  0.64252514237E-01  0.61394320394E-01  0.96717023547E+00  0.93800000000E+00 0. -1.
         22    1    1    2    0    0  0.12200596402E+00 -0.21917364697E+00  0.32079513572E+01  0.32177436898E+01  0.00000000000E+00 0. -1.
</event>
<event>
 5    1  0.4838219E+001  0.1575977E+01  0.7818608E-02  0.3379858E+00
         11   -1    0    0    0    0  0.00000000000E+00  0.00000000000E+00  0.39999999674E+01  0.40000000000E+01  0.51100000000E-03 0. -1.
    9000002   -1    0    0    0    0 -0.00000000000E+00 -0.00000000000E+00  0.00000000000E+00  0.93800000000E+00  0.93800000000E+00 0.  1.
         11    1    1    2    0    0  0.84893644136E-01  0.11155492266E+00  0.25167580375E+01  0.25206591820E+01  0.51100000000E-03 0. -1.
    9000002    1    1    2    0    0  0.96484434900E-01 -0.13270163891E-01  0.23750333802E-01  0.94334162517E+00  0.93800000000E+00 0.  1.
         22    1    1    2    0    0 -0.18137807904E+00 -0.98284758771E-01  0.14594915961E+01  0.14739991928E+01  0.00000000000E+00 0. -1.
</event>
<event>
 5    1  0.4838219E+001  0.1599360E+01  0.7818608E-02  0.3354058E+00
         11   -1    0    0    0    0  0.00000000000E+00  0.00000000000E+00  0.39999999674E+01  0.40000000000E+01  0.51100000000E-03 0. -1.
    9000002   -1    0    0    0    0 -0.00000000000E+00 -0.00000000000E+00  0.00000000000E+00  0.93800000000E+00  0.93800000000E+00 0. -1.
         11    1    1    2    0    0 -0.15984011847E-01 -0.10273218621E-01  0.21987234154E+00  0.22069239985E+00  0.51100000000E-03 0. -1.
    9000002    1    1    2    0    0  0.11527461013E+00  0.22232510690E+00  0.41905446815E-01  0.97175961810E+00  0.93800000000E+00 0. -1.
         22    1    1    2    0    0 -0.99290598288E-01 -0.21205188828E+00  0.37382221790E+01  0.37455479821E+01  0.00000000000E+00 0. -1.
</event>
<event>
 5    1  0.4838219E+001  0.1575960E+01  0.7818608E-02  0.3379876E+00
         11   -1    0    0    0    0  0.00000000000E+00  0.00000000000E+00  0.39999999674E+01  0.40000000000E+01  0.51100000000E-03 0. -1.
    9000002   -1    0    0    0    0 -0.00000000000E+00 -0.00000000000E+00  0.00000000000E+00  0.93800000000E+00  0.93800000000E+00 0. -1.
         11    1    1    2    0    0 -0.12394953067E+00  0.82560466341E-01  0.19939271722E+01  0.19994813193E+01  0.51100000000E-03 0. -1.
    9000002    1    1    2    0    0 -0.42175476763E-01  0.65355786784E-01  0.21443948146E-01  0.94146375003E+00  0.93800000000E+00 0. -1.
         22    1    1    2    0    0  0.16612500743E+00 -0.14791625313E+00  0.19846288470E+01  0.19970549307E+01  0.00000000000E+00 0. -1.
</event>
<event>
 5    1  0.4838219E+001  0.1494649E+01  0.7818608E-02  0.3476295E+00
         11   -1    0    0    0    0  0.00000000000E+00  0.00000000000E+00  0.39999999674E+01  0.40000000000E+01  0.51100000000E-03 0.  1.
    9000002   -1    0    0    0    0 -0.00000000000E+00 -0.00000000000E+00  0.00000000000E+00  0.93800000000E+00  0.93800000000E+00 0.  1.
         11    1    1    2    0    0 -0.39491798881E+00  0.26111263382E+00  0.21139747739E+01  0.21663401467E+01  0.51100000000E-03 0.  1.
    9000002    1    1    2    0    0  0.10250192620E+00 -0.13218253689E+00  0.10086666739E+00  0.95812157502E+00  0.93800000000E+00 0.  1.
         22    1    1    2    0    0  0.29241606261E+00 -0.12893009692E+00  0.17851585261E+01  0.18135382783E+01  0.00000000000E+00 0.  1.
</event>
<event>
 5    1  0.4838219E+001  0.1542777E+01  0.7818608E-02  0.3417914E+00
         11   -1    0    0    0    0  0.00000000000E+00  0.00000000000E+00  0.39999999674E+01  0.40000000000E+01  0.51100000000E-03 0.  1.
    9000002   -1    0    0    0    0 -0.00000000000E+00 -0.00000000000E+00  0.00000000000E+00  0.93800000000E+00  0.93800000000E+00 0.  1.
         11    1    1    2    0    0  0.74392803310E-01 -0.39233641034E+00  0.27491260730E+01  0.27779770651E+01  0.51100000000E-03 0.  1.
    9000002    1    1    2    0    0 -0.54312376603E-01  0.18821413117E+00  0.69257017746E-01  0.96073665899E+00  0.93800000000E+00 0.  1.
         22    1    1    2    0    0 -0.20080426706E-01  0.20412227917E+00  0.11816168766E+01  0.11992862759E+01  0.00000000000E+00 0.  1.
</event>
<event>
 5    1  0.4838219E+001  0.1568607E+01  0.7818608E-02  0.3388157E+00
         11   -1    0    0    0    0  0.00000000000E+00  0.00000000000E+00  0.39999999674E+01  0.40000000000E+01  0.51100000000E-03 0.  1.
    9000002   -1    0    0    0    0 -0.00000000000E+00 -0.00000000000E+00  0.00000000000E+00  0.93800000000E+00  0.93800000000E+00 0.  1.
         11    1    1    2    0    0 -0.83159563180E-01 -0.20207629647E+00  0.18545325572E+01  0.18673622062E+01  0.51100000000E-03 0.  1.
    9000002    1    1    2    0    0 -0.81787324854E-01  0.61435101624E-01  0.29941994163E-01  0.94403599573E+00  0.93800000000E+00 0.  1.
         22    1    1    2    0    0  0.16494688803E+00  0.14064119485E+00  0.21155254160E+01  0.21266017980E+01  0.00000000000E+00 0.  1.
</event>
<event>
 5    1  0.4838219E+001  0.1582025E+01  0.7818608E-02  0.3373107E+00
         11   -1    0    0    0    0  0.00000000000E+00  0.00000000000E+00  0.39999999674E+01  0.40000000000E+01  0.51100000000E-03 0. -1.
    9000002   -1    0    0    0    0 -0.00000000000E+00 -0.00000000000E+00  0.00000000000E+00  0.93800000000E+00  0.93800000000E+00 0.  1.
         11    1    1    2    0    0  0.59779373972E-01 -0.95842416671E-01  0.78187361645E+00  0.78999111110E+00  0.51100000000E-03 0. -1.
    9000002    1    1    2    0    0 -0.86535499901E-01 -0.12186400636E+00  0.27891774521E-01  0.95024269525E+00  0.93800000000E+00 0.  1.
         22    1    1    2    0    0  0.26756125929E-01  0.21770642303E+00  0.31902345764E+01  0.31977661937E+01  0.00000000000E+00 0. -1.
</event>
<event>
 5    1  0.4838219E+001  0.1338662E+01  0.7818608E-02  0.3710539E+00
         11   -1    0    0    0    0  0.00000000000E+00  0.00000000000E+00  0.39999999674E+01  0.40000000000E+01  0.51100000000E-03 0.  1.
    9000002   -1    0    0    0    0 -0.00000000000E+00 -0.00000000000E+00  0.00000000000E+00  0.93800000000E+00  0.93800000000E+00 0.  1.
         11    1    1    2    0    0 -0.23142870380E+00 -0.68253182151E+00  0.13745520244E+01  0.15520317204E+01  0.51100000000E-03 0.  1.
    9000002    1    1    2    0    0  0.17237900951E+00  0.27717510865E+00  0.31858154870E+00  0.10430142698E+01  0.93800000000E+00 0.  1.
         22    1    1    2    0    0  0.59049694288E-01  0.40535671286E+00  0.23068663943E+01  0.23429540098E+01  0.00000000000E+00 0.  1.
</event>
<event>
 5    1  0.5065741E+001  0.1575132E+01  0.7818608E-02  0.3380805E+00
         11   -1    0    0    0    0  0.00000000000E+00  0.00000000000E+00  0.39999999674E+01  0.40000000000E+01  0.51100000000E-03 0.  1.
    9000002   -1    0    0    0    0 -0.00000000000E+00 -0.00000000000E+00  0.00000000000E+00  0.93800000000E+00  0.93800000000E+00 0. -1.
         11    1    1    2    0    0  0.15900342981E+00 -0.71670348649E-01  0.18232312743E+01  0.18315543318E+01  0.51100000000E-03 0.  1.
    9000002    1    1    2    0    0  0.41171644709E-01  0.24572346425E-01  0.19530001515E-01  0.93942765847E+00  0.93800000000E+00 0. -1.
         22    1    1    2    0    0 -0.20017507452E+00  0.47098002223E-01  0.21572386915E+01  0.21670180097E+01  0.00000000000E+00 0.  1.
</event>
<event>
 5    1  0.4838219E+001  0.1556397E+01  0.7818608E-02  0.3402093E+00
         11   -1    0    0    0    0  0.00000000000E+00  0.00000000000E+00  0.39999999674E+01  0.40000000000E+01  0.51100000000E-03 0.  1.
    9000002   -1    0    0    0    0 -0.00000000000E+00 -0.00000000000E+00  0.00000000000E+00  0.93800000000E+00  0.93800000000E+00 0.  1.
         11    1    1    2    0    0  0.18739559917E+00  0.28532652267E-01  0.27587274383E+01  0.27652320993E+01  0.51100000000E-03 0.  1.
    9000002    1    1    2    0    0  0.62347566653E-01 -0.32150789236E-01  0.35384454554E-01  0.94128473479E+00  0.93800000000E+00 0.  1.
         22    1    1    2    0    0 -0.24974316582E+00  0.36181369694E-02  0.12058880745E+01  0.12314831659E+01  0.00000000000E+00 0.  1.
</event>
<event>
 5    1  0.4838219E+001  0.1535308E+01  0.7818608E-02  0.3426717E+00
         11   -1    0    0    0    0  0.00000000000E+00  0.00000000000E+00  0.39999999674E+01  0.40000000000E+01  0.51100000000E-03 0.  1.
    9000002   -1    0    0    0    0 -0.00000000000E+00 -0.00000000000E+00  0.00000000000E+00  0.93800000000E+00  0.93800000000E+00 0.  1.
         11    1    1    2    0    0  0.23588575781E-01 -0.27712273333E+00  0.10190312013E+01  0.10563040663E+01  0.51100000000E-03 0.  1.
    9000002    1    1    2    0    0 -0.39974487609E-01  0.35459272355E-01  0.50121591580E-01  0.94085678698E+00  0.93800000000E+00 0.  1.
         22    1    1    2    0    0  0.16385911827E-01  0.24166346097E+00  0.29308471745E+01  0.29408391467E+01  0.00000000000E+00 0.  1.
</event>
<event>
 5    1  0.4838219E+001  0.1571340E+01  0.7818608E-02  0.3385070E+00
         11   -1    0    0    0    0  0.00000000000E+00  0.00000000000E+00  0.39999999674E+01  0.40000000000E+01  0.51100000000E-03 0.  1.
    9000002   -1    0    0    0    0 -0.00000000000E+00 -0.00000000000E+00  0.00000000000E+00  0.93800000000E+00  0.93800000000E+00 0. -1.
         11    1    1    2    0    0 -0.19136358328E+00  0.20869032045E-01  0.20188554364E+01  0.20280120985E+01  0.51100000000E-03 0.  1.
    9000002    1    1    2    0    0 -0.89724573767E-02  0.59977379697E-01  0.23286172392E-01  0.94024679574E+00  0.93800000000E+00 0. -1.
         22    1    1    2    0    0  0.20033604066E+00 -0.80846411742E-01  0.19578583585E+01  0.19697411057E+01  0.00000000000E+00 0.  1.
</event>
<event>
 5    1  0.4838219E+001  0.1545139E+01  0.7818608E-02  0.3415149E+00
         11   -1    0    0    0    0  0.00000000000E+00  0.00000000000E+00  0.39999999674E+01  0.40000000000E+01  0.51100000000E-03 0.  1.
    9000002   -1    0    0    0    0 -0.00000000000E+00 -0.00000000000E+00  0.00000000000E+00  0.93800000000E+00  0.93800000000E+00 0.  1.
         11    1    1    2    0    0 -0.24010626405E-01 -0.27188735490E+00  0.13281173138E+01  0.13558742952E+01  0.51100000000E-03 0.  1.
    9000002    1    1    2    0    0 -0.17598179025E+00  0.57054333315E-01  0.64465521668E-01  0.95824036177E+00  0.93800000000E+00 0.  1.
         22    1    1    2    0    0  0.19999241665E+00  0.21483302159E+00  0.26074171318E+01  0.26238853430E+01  0.00000000000E+00 0.  1.
</event>
<event>
 5    1  0.4838219E+001  0.1535319E+01  0.7818608E-02  0.3426703E+00
         11   -1    0    0    0    0  0.00000000000E+00  0.00000000000E+00  0.39999999674E+01  0.40000000000E+01  0.51100000000E-03 0. -1.
    9000002   -1    0    0    0    0 -0.00000000000E+00 -0.00000000000E+00  0.00000000000E+00  0.93800000000E+00  0.93800000000E+00 0. -1.
         11    1    1    2    0    0  0.10924840176E+00  0.20877748115E+00  0.66143279294E+00  0.70215158664E+00  0.51100000000E-03 0. -1.
    9000002    1    1    2    0    0 -0.96335925096E-01  0.11632939166E-01  0.54725100931E-01  0.94459238426E+00  0.93800000000E+00 0. -1.
         22    1    1    2    0    0 -0.12912476668E-01 -0.22041042032E+00  0.32838420735E+01  0.32912560291E+01  0.00000000000E+00 0. -1.
</event>
<event>
 5    1  0.4838219E+001  0.1594142E+01  0.7818608E-02  0.3359746E+00
         11   -1    0    0    0    0  0.00000000000E+00  0.00000000000E+00  0.39999999674E+01  0.40000000000E+01  0.51100000000E-03 0.  1.
    9000002   -1    0    0    0    0 -0.00000000000E+00 -0.00000000000E+00  0.00000000000E+00  0.93800000000E+00  0.93800000000E+00 0.  1.
         11    1    1    2    0    0 -0.52148268298E-01 -0.48626691112E-01  0.34003007589E+00  0.34742583469E+00  0.51100000000E-03 0.  1.
    9000002    1    1    2    0    0  0.25163048361E+00  0.95337178133E-01  0.52450882176E-01  0.97724212601E+00  0.93800000000E+00 0.  1.
         22    1    1    2    0    0 -0.19948221531E+00 -0.46710487021E-01  0.36075190093E+01  0.36133320393E+01  0.00000000000E+00 0. -1.
</event>
<event>
 5    1  0.4838219E+001  0.1571451E+01  0.7818608E-02  0.3384944E+00
         11   -1    0    0    0    0  0.00000000000E+00  0.00000000000E+00  0.39999999674E+01  0.40000000000E+01  0.51100000000E-03 0. -1.
    9000002   -1    0    0    0    0 -0.00000000000E+00 -0.00000000000E+00  0.00000000000E+00  0.93800000000E+00  0.93800000000E+00 0.  1.
         11    1    1    2    0    0 -0.15367523649E+00  0.93434009969E-01  0.16534877293E+01  0.16632401885E+01  0.51100000000E-03 0. -1.
    9000002    1    1    2    0    0 -0.84737653830E-01 -0.72196686350E-01  0.29112246036E-01  0.94503140390E+00  0.93800000000E+00 0.  1.
         22    1    1    2    0    0  0.23841289032E+00 -0.21237323619E-01  0.23173999920E+01  0.23297284076E+01  0.00000000000E+00 0. -1.
</event>
<event>
 5    1  0.4838219E+001  0.1534068E+01  0.7818608E-02  0.3428188E+00
         11   -1    0    0    0    0  0.00000000000E+00  0.00000000000E+00  0.39999999674E+01  0.40000000000E+01  0.51100000000E-03 0.  1.
    9000002   -1    0    0    0    0 -0.00000000000E+00 -0.00000000000E+00  0.00000000000E+00  0.93800000000E+00  0.93800000000E+00 0. -1.
         11    1    1    2    0    0  0.67909119784E-01 -0.42401253208E+00  0.24936804399E+01  0.25303835032E+01  0.51100000000E-03 0.  1.
    9000002    1    1    2    0    0 -0.21388364757E+00  0.21301828133E+00  0.11410842052E+00  0.99196155899E+00  0.93800000000E+00 0. -1.
         22    1    1    2    0    0  0.14597452779E+00  0.21099425075E+00  0.13922111070E+01  0.14156549378E+01  0.00000000000E+00 0.  1.
</event>
<event>
 5    1  0.4838219E+001  0.1467178E+01  0.7818608E-02  0.3511472E+00
         11   -1    0    0    0    0  0.00000000000E+00  0.00000000000E+00  0.39999999674E+01  0.40000000000E+01  0.51100000000E-03 0. -1.
    9000002   -1    0    0    0    0 -0.00000000000E+00 -0.00000000000E+00  0.00000000000E+00  0.93800000000E+00  0.93800000000E+00 0. -1.
         11    1    1    2    0    0  0.58479407783E+00  0.52528100219E+00  0.13625714577E+00  0.79779102252E+00  0.51100000000E-03 0. -1.
    9000002    1    1    2    0    0 -0.75639567726E+00 -0.38240839916E+00  0.32966629413E+01  0.35307507917E+01  0.93800000000E+00 0. -1.
         22    1    1    2    0    0  0.17160159943E+00 -0.14287260303E+00  0.56707988030E+00  0.60945818582E+00  0.00000000000E+00 0.  1.
</event>
<event>
 5    1  0.4838219E+001  0.1517922E+01  0.7818608E-02  0.3447567E+00
         11   -1    0    0    0    0  0.00000000000E+00  0.00000000000E+00  0.39999999674E+01  0.40000000000E+01  0.51100000000E-03 0.  1.
    9000002   -1    0    0    0    0 -0.00000000000E+00 -0.00000000000E+00  0.00000000000E+00  0.93800000000E+00  0.93800000000E+00 0.  1.
         11    1    1    2    0    0  0.21377912105E+00 -0.33414240595E+00  0.21307113262E+01  0.21673217751E+01  0.51100000000E-03 0.  1.
    9000002    1    1    2    0    0 -0.23515823073E+00  0.43554723426E-02  0.10159776753E+00  0.97236025730E+00  0.93800000000E+00 0.  1.
         22    1    1    2    0    0  0.21379109673E-01  0.32978693361E+00  0.17676908736E+01  0.17983179676E+01  0.00000000000E+00 0.  1.
</event>
<event>
 5    1  0.4838219E+001  0.1505005E+01  0.7818608E-02  0.3463393E+00
         11   -1    0    0    0    0  0.00000000000E+00  0.00000000000E+00  0.39999999674E+01  0.40000000000E+01  0.51100000000E-03 0.  1.
    9000002   -1    0    0    0    0 -0.00000000000E+00 -0.00000000000E+00  0.00000000000E+00  0.93800000000E+00  0.93800000000E+00 0.  1.
         11    1    1    2    0    0 -0.91750086202E-01  0.41135680247E+00  0.68655160424E+00  0.80559658866E+00  0.51100000000E-03 0.  1.
    9000002    1    1    2    0    0 -0.11391510349E+00 -0.66081174659E+00  0.42956585212E+00  0.12304550526E+01  0.93800000000E+00 0.  1.
         22    1    1    2    0    0  0.20566518969E+00  0.24945494412E+00  0.28838825110E+01  0.29019483587E+01  0.00000000000E+00 0.  1.
</event>
<event>
 5    1  0.4838219E+001  0.1588980E+01  0.7818608E-02  0.3365411E+00
         11   -1    0    0    0    0  0.00000000000E+00  0.00000000000E+00  0.39999999674E+01  0.40000000000E+01  0.51100000000E-03 0.  1.
    9000002   -1    0    0    0    0 -0.00000000000E+00 -0.00000000000E+00  0.00000000000E+00  0.93800000000E+00  0.93800000000E+00 0. -1.
         11    1    1    2    0    0 -0.15466037369E+00  0.44211591175E-01  0.22726487040E+01  0.22783342356E+01  0.51100000000E-03 0.  1.
    9000002    1    1    2    0    0  0.27979458310E+00  0.13583108373E+00  0.73070343815E-01  0.99091794170E+00  0.93800000000E+00 0. -1.
         22    1    1    2    0    0 -0.12513420940E+00 -0.18004267490E+00  0.16542809195E+01  0.16687478227E+01  0.00000000000E+00 0. -1.
</event>
<event>
 5    1  0.4838219E+001  0.1565907E+01  0.7818608E-02  0.3391219E+00
         11   -1    0    0    0    0  0.00000000000E+00  0.00000000000E+00  0.39999999674E+01  0.40000000000E+01  0.51100000000E-03 0. -1.
    9000002   -1    0    0    0    0 -0.00000000000E+00 -0.00000000000E+00  0.00000000000E+00  0.93800000000E+00  0.93800000000E+00 0.  1.
         11    1    1    2    0    0  0.15079020475E+00  0.14199393405E-01  0.62031057852E+00  0.63853330655E+00  0.51100000000E-03 0. -1.
    9000002    1    1    2    0    0  0.56691397616E-01  0.51236508998E-01  0.28826454350E-01  0.94154875545E+00  0.93800000000E+00 0.  1.
         22    1    1    2    0    0 -0.20748160237E+00 -0.65435902402E-01  0.33508629345E+01  0.33579179380E+01  0.00000000000E+00 0. -1.
</event>
<event>
 5    1  0.4838219E+001  0.1501239E+01  0.7818608E-02  0.3468063E+00
         11   -1    0    0    0    0  0.00000000000E+00  0.00000000000E+00  0.39999999674E+01  0.40000000000E+01  0.51100000000E-03 0. -1.
    9000002   -1    0    0    0    0 -0.00000000000E+00 -0.00000000000E+00  0.00000000000E+00  0.93800000000E+00  0.93800000000E+00 0.  1.
         11    1    1    2    0    0  0.10619245116E+00  0.27195058619E+00  0.31401694187E+01  0.31537118126E+01  0.51100000000E-03 0. -1.
    9000002    1    1    2    0    0  0.22458727274E+00 -0.25128354277E+00  0.15935918397E+00  0.10093672332E+01  0.93800000000E+00 0.  1.
         22    1    1    2    0    0 -0.33077972390E+00 -0.20667043415E-01  0.70047136473E+00  0.77492095418E+00  0.00000000000E+00 0. -1.
</event>
<event>
 5    1  0.4838219E+001  0.1548148E+01  0.7818608E-02  0.3411639E+00
         11   -1    0    0    0    0  0.00000000000E+00  0.00000000000E+00  0.39999999674E+01  0.40000000000E+01  0.51100000000E-03 0. -1.
    9000002   -1    0    0    0    0 -0.00000000000E+00 -0.00000000000E+00  0.00000000000E+00  0.93800000000E+00  0.93800000000E+00 0. -1.
         11    1    1    2    0    0 -0.30705134640E+00  0.11079885805E+00  0.10112412774E+01  0.10626222746E+01  0.51100000000E-03 0. -1.
    9000002    1    1    2    0    0  0.39154443418E+00  0.80572672114E-01  0.15197661291E+00  0.10308927637E+01  0.93800000000E+00 0. -1.
         22    1    1    2    0    0 -0.84493087776E-01 -0.19137153016E+00  0.28367820771E+01  0.28444849617E+01  0.00000000000E+00 0. -1.
</event>
<event>
 5    1  0.4838219E+001  0.1569561E+01  0.7818608E-02  0.3387078E+00
         11   -1    0    0    0    0  0.00000000000E+00  0.00000000000E+00  0.39999999674E+01  0.40000000000E+01  0.51100000000E-03 0.  1.
    9000002   -1    0    0    0    0 -0.00000000000E+00 -0.00000000000E+00  0.00000000000E+00  0.93800000000E+00  0.93800000000E+00 0.  1.
         11    1    1    2    0    0  0.13500435739E+00 -0.12759061028E+00  0.17134316166E+01  0.17234714114E+01  0.51100000000E-03 0.  1.
    9000002    1    1    2    0    0  0.10169891081E+00  0.55063692184E-01  0.31203818142E-01  0.94561744745E+00  0.93800000000E+00 0.  1.
         22    1    1    2    0    0 -0.23670326820E+00  0.72526918097E-01  0.22553645327E+01  0.22689111411E+01  0.00000000000E+00 0.  1.
</event>
<event>
 5    1  0.4838219E+001  0.1572954E+01  0.7818608E-02  0.3383252E+00
         11   -1    0    0    0    0  0.00000000000E+00  0.00000000000E+00  0.39999999674E+01  0.40000000000E+01  0.51100000000E-03 0. -1.
    9000002   -1    0    0    0    0 -0.00000000000E+00 -0.00000000000E+00  0.00000000000E+00  0.93800000000E+00  0.93800000000E+00 0. -1.
         11    1    1    2    0    0 -0.10435552111E+00 -0.11121968252E+00  0.94348298626E+00  0.95573024388E+00  0.51100000000E-03 0. -1.
    9000002    1    1    2    0    0 -0.18498517030E-01 -0.68263575506E-01  0.22977807920E-01  0.94094319198E+00  0.93800000000E+00 0. -1.
         22    1    1    2    0    0  0.12285403814E+00  0.17948325803E+00  0.30335391732E+01  0.30413265641E+01  0.00000000000E+00 0. -1.
</event>
<event>
 5    1  0.4838219E+001  0.1583480E+01  0.7818608E-02  0.3371491E+00
         11   -1    0    0    0    0  0.00000000000E+00  0.00000000000E+00  0.39999999674E+01  0.40000000000E+01  0.51100000000E-03 0. -1.
    9000002   -1    0    0    0    0 -0.00000000000E+00 -0.00000000000E+00  0.00000000000E+00  0.93800000000E+00  0.93800000000E+00 0. -1.
         11    1    1    2    0    0  0.30679814608E+00  0.57488673646E-02  0.15465300693E+01  0.15766780484E+01  0.51100000000E-03 0. -1.
    9000002    1    1    2    0    0 -0.46291998776E+00  0.21488781536E+00  0.19349859819E+00  0.10852453159E+01  0.93800000000E+00 0. -1.
         22    1    1    2    0    0  0.15612184168E+00 -0.22063668272E+00  0.22599712999E+01  0.22760766357E+01  0.00000000000E+00 0. -1.
</event>
<event>
 5    1  0.4838219E+001  0.1311869E+01  0.7818608E-02  0.3759476E+00
         11   -1    0    0    0    0  0.00000000000E+00  0.00000000000E+00  0.39999999674E+01  0.40000000000E+01  0.51100000000E-03 0. -1.
    9000002   -1    0    0    0    0 -0.00000000000E+00 -0.00000000000E+00  0.00000000000E+00  0.93800000000E+00  0.93800000000E+00 0. -1.
         11    1    1    2    0    0  0.49859112282E+00 -0.63829228824E+00  0.92703442022E+00  0.12310171528E+01  0.51100000000E-03 0. -1.
    9000002    1    1    2    0    0 -0.28412099070E+00  0.61890198345E+00  0.76462193548E+00  0.13886162561E+01  0.93800000000E+00 0. -1.
         22    1    1    2    0    0 -0.21447013211E+00  0.19390304794E-01  0.23083436117E+01  0.23183665911E+01  0.00000000000E+00 0. -1.
</event>
<event>
 5    1  0.4838219E+001  0.1559287E+01  0.7818608E-02  0.3398773E+00
         11   -1    0    0    0    0  0.00000000000E+00  0.00000000000E+00  0.39999999674E+01  0.40000000000E+01  0.51100000000E-03 0.  1.
    9000002   -1    0    0    0    0 -0.00000000000E+00 -0.00000000000E+00  0.00000000000E+00  0.93800000000E+00  0.93800000000E+00 0.  1.
         11    1    1    2    0    0  0.10871927745E+00  0.98988391732E-01  0.52461478425E+00  0.54482980458E+00  0.51100000000E-03 0.  1.
    9000002    1    1    2    0    0  0.28293825195E+00 -0.16438044545E+00  0.10443330583E+00  0.99891205851E+00  0.93800000000E+00 0.  1.
         22    1    1    2    0    0 -0.39165752940E+00  0.65392053718E-01  0.33709518773E+01  0.33942581369E+01  0.00000000000E+00 0.  1.
</event>
<event>
 5    1  0.4838219E+001  0.1514977E+01  0.7818608E-02  0.3451150E+00
         11   -1    0    0    0    0  0.00000000000E+00  0.00000000000E+00  0.39999999674E+01  0.40000000000E+01  0.51100000000E-03 0.  1.
    9000002   -1    0    0    0    0 -0.00000000000E+00 -0.00000000000E+00  0.00000000000E+00  0.93800000000E+00  0.93800000000E+00 0.  1.
         11    1    1    2    0    0 -0.47099129706E+00  0.59190537195E-01  0.14562846543E+01  0.15316989185E+01  0.51100000000E-03 0.  1.
    9000002    1    1    2    0    0  0.35593121102E+00 -0.37647690776E+00  0.26650384606E+00  0.11042147386E+01  0.93800000000E+00 0.  1.
         22    1    1    2    0    0  0.11506008604E+00  0.31728637057E+00  0.22772114670E+01  0.23020863429E+01  0.00000000000E+00 0.  1.
</event>
<event>
 5    1  0.4838219E+001  0.1588510E+01  0.7818608E-02  0.3365929E+00
         11   -1    0    0    0    0  0.00000000000E+00  0.00000000000E+00  0.39999999674E+01  0.40000000000E+01  0.51100000000E-03 0.  1.
    9000002   -1    0    0    0    0 -0.00000000000E+00 -0.00000000000E+00  0.00000000000E+00  0.93800000000E+00  0.93800000000E+00 0. -1.
         11    1    1    2    0    0 -0.67594666059E-01 -0.36232224170E-02  0.19111024488E+01  0.19123009694E+01  0.51100000000E-03 0.  1.
    9000002    1    1    2    0    0 -0.10047037478E+00  0.11624952032E+00  0.23886450450E-01  0.95080114099E+00  0.93800000000E+00 0. -1.
         22    1    1    2    0    0  0.16806504084E+00 -0.11262629790E+00  0.20650110681E+01  0.20748978896E+01  0.00000000000E+00 0.  1.
</event>
<event>
 5    1  0.4838219E+001  0.1570723E+01  0.7818608E-02  0.3385765E+00
         11   -1    0    0    0    0  0.00000000000E+00  0.00000000000E+00  0.39999999674E+01  0.40000000000E+01  0.51100000000E-03 0.  1.
    9000002   -1    0    0    0    0 -0.00000000000E+00 -0.00000000000E+00  0.00000000000E+00  0.93800000000E+00  0.93800000000E+00 0.  1.
         11    1    1    2    0    0 -0.19482395786E+00 -0.14561711204E-01  0.13909291317E+01  0.14045826884E+01  0.51100000000E-03 0.  1.
    9000002    1    1    2    0    0  0.21383051440E-01 -0.11748878855E+00  0.30929776449E-01  0.94607690036E+00  0.93800000000E+00 0.  1.
         22    1    1    2    0    0  0.17344090642E+00  0.13205049976E+00  0.25781410592E+01  0.25873404113E+01  0.00000000000E+00 0.  1.
</event>
<event>
 5    1  0.4838219E+001  0.1541731E+01  0.7818608E-02  0.3419141E+00
         11   -1    0    0    0    0  0.00000000000E+00  0.00000000000E+00  0.39999999674E+01  0.40000000000E+01  0.51100000000E-03 0. -1.
    9000002   -1    0    0    0    0 -0.00000000000E+00 -0.00000000000E+00  0.00000000000E+00  0.93800000000E+00  0.93800000000E+00 0. -1.
         11    1    1    2    0    0 -0.28240589043E+00  0.24632642765E+00  0.22270996370E+01  0.22584071489E+01  0.51100000000E-03 0. -1.
    9000002    1    1    2    0    0  0.78513660443E-01 -0.15131795497E+00  0.63523616601E-01  0.95547933951E+00  0.93800000000E+00 0. -1.
         22    1    1    2    0    0  0.20389222999E+00 -0.95008472683E-01  0.17093767137E+01  0.17241135116E+01  0.00000000000E+00 0. -1.
</event>
<event>
 5    1  0.4838219E+001  0.1565958E+01  0.7818608E-02  0.3391160E+00
         11   -1    0    0    0    0  0.00000000000E+00  0.00000000000E+00  0.39999999674E+01  0.40000000000E+01  0.51100000000E-03 0. -1.
    9000002   -1    0    0    0    0 -0.00000000000E+00 -0.00000000000E+00  0.00000000000E+00  0.93800000000E+00  0.93800000000E+00 0.  1.
         11    1    1    2    0    0  0.13002957051E+00 -0.17591411689E+00  0.24358892565E+01  0.24456921713E+01  0.51100000000E-03 0. -1.
    9000002    1    1    2    0    0  0.36245863750E-01  0.38660404368E-01  0.26723620439E-01  0.93987581169E+00  0.93800000000E+00 0.  1.
         22    1    1    2    0    0 -0.16627543426E+00  0.13725371252E+00  0.15373870904E+01  0.15524320170E+01  0.00000000000E+00 0. -1.
</event>
<event>
 5    1  0.4838219E+001  0.1542635E+01  0.7818608E-02  0.3418080E+00
         11   -1    0    0    0    0  0.00000000000E+00  0.00000000000E+00  0.39999999674E+01  0.40000000000E+01  0.51100000000E-03 0. -1.
    9000002   -1    0    0    0    0 -0.00000000000E+00 -0.00000000000E+00  0.00000000000E+00  0.93800000000E+00  0.93800000000E+00 0. -1.
         11    1    1    2    0    0 -0.16180246118E+00  0.13381216683E+00  0.63412392211E+00  0.66798139356E+00  0.51100000000E-03 0. -1.
    9000002    1    1    2    0    0  0.53526026106E-01  0.85510076075E-01  0.49576166395E-01  0.94471096366E+00  0.93800000000E+00 0. -1.
         22    1    1    2    0    0  0.10827643507E+00 -0.21932224290E+00  0.33162998789E+01  0.33253076428E+01  0.00000000000E+00 0. -1.
</event>
<event>
 5    1  0.4838219E+001  0.1546722E+01  0.7818608E-02  0.3413300E+00
         11   -1    0    0    0    0  0.00000000000E+00  0.00000000000E+00  0.39999999674E+01  0.40000000000E+01  0.51100000000E-03 0. -1.
    9000002   -1    0    0    0    0 -0.00000000000E+00 -0.00000000000E+00  0.00000000000E+00  0.93800000000E+00  0.93800000000E+00 0.  1.
         11    1    1    2    0    0  0.22817265382E+00 -0.31150554547E-01  0.30146044664E+01  0.30233877468E+01  0.51100000000E-03 0. -1.
    9000002    1    1    2    0    0 -0.12633408131E-02  0.12651062494E+00  0.50478780117E-01  0.94783893225E+00  0.93800000000E+00 0.  1.
         22    1    1    2    0    0 -0.22690931300E+00 -0.95360070393E-01  0.93491672079E+00  0.96677332099E+00  0.00000000000E+00 0. -1.
</event>
<event>
 5    1  0.4838219E+001  0.1517129E+01  0.7818608E-02  0.3448532E+00
         11   -1    0    0    0    0  0.00000000000E+00  0.00000000000E+00  0.39999999674E+01  0.40000000000E+01  0.51100000000E-03 0. -1.
    9000002   -1    0    0    0    0 -0.00000000000E+00 -0.00000000000E+00  0.00000000000E+00  0.93800000000E+00  0.93800000000E+00 0. -1.
         11    1    1    2    0    0  0.32651508312E+00 -0.12799883039E+00  0.12329152133E+01  0.12818252550E+01  0.51100000000E-03 0. -1.
    9000002    1    1    2    0    0 -0.11421477284E+00 -0.35230205063E-01  0.72548383595E-01  0.94836356406E+00  0.93800000000E+00 0. -1.
         22    1    1    2    0    0 -0.21230031028E+00  0.16322903545E+00  0.26945363704E+01  0.27078111809E+01  0.00000000000E+00 0. -1.
</event>
<event>
 5    1  0.4838219E+001  0.1463450E+01  0.7818608E-02  0.3516356E+00
         11   -1    0    0    0    0  0.00000000000E+00  0.00000000000E+00  0.39999999674E+01  0.40000000000E+01  0.51100000000E-03 0.  1.
    9000002   -1    0    0    0    0 -0.00000000000E+00 -0.00000000000E+00  0.00000000000E+00  0.93800000000E+00  0.93800000000E+00 0.  1.
         11    1    1    2    0    0  0.58048186514E+00 -0.38961776435E+00  0.25455120976E+01  0.26397714481E+01  0.51100000000E-03 0.  1.
    9000002    1    1    2    0    0 -0.45028732566E+00  0.11599081746E+00  0.27781047685E+00  0.10831598250E+01  0.93800000000E+00 0.  1.
         22    1    1    2    0    0 -0.13019453948E+00  0.27362694689E+00  0.11766773929E+01  0.12150687270E+01  0.00000000000E+00 0.  1.
</event>
<event>
 5    1  0.4838219E+001  0.1518866E+01  0.7818608E-02  0.3446423E+00
         11   -1    0    0    0    0  0.00000000000E+00  0.00000000000E+00  0.39999999674E+01  0.40000000000E+01  0.51100000000E-03 0. -1.
    9000002   -1    0    0    0    0 -0.00000000000E+00 -0.00000000000E+00  0.00000000000E+00  0.93800000000E+00  0.93800000000E+00 0. -1.
         11    1    1    2    0    0 -0.20175389533E+00 -0.44772078158E+00  0.22299455996E+01  0.22833782365E+01  0.51100000000E-03 0. -1.
    9000002    1    1    2    0    0 -0.10189023774E-01  0.31348534306E+00  0.13241216776E+00  0.99787467083E+00  0.93800000000E+00 0. -1.
         22    1    1    2    0    0  0.21194291910E+00  0.13423543852E+00  0.16376422000E+01  0.16567470927E+01  0.00000000000E+00 0. -1.
</event>
<event>
 5    1  0.4838219E+001  0.1573864E+01  0.7818608E-02  0.3382228E+00
         11   -1    0    0    0    0  0.00000000000E+00  0.00000000000E+00  0.39999999674E+01  0.40000000000E+01  0.51100000000E-03 0. -1.
    9000002   -1    0    0    0    0 -0.00000000000E+00 -0.00000000000E+00  0.00000000000E+00  0.93800000000E+00  0.93800000000E+00 0.  1.
         11    1    1    2    0    0 -0.29663283609E-01 -0.65568617204E-01  0.28826259464E+01  0.28835241913E+01  0.51100000000E-03 0. -1.
    9000002    1    1    2    0    0 -0.16195975473E+00  0.20870313577E+00  0.66533365822E-01  0.97675925888E+00  0.93800000000E+00 0.  1.
         22    1    1    2    0    0  0.19162303833E+00 -0.14313451857E+00  0.10508406551E+01  0.10777165498E+01  0.00000000000E+00 0. -1.
</event>
<event>
 5    1  0.4838219E+001  0.1548241E+01  0.7818608E-02  0.3411531E+00
         11   -1    0    0    0    0  0.00000000000E+00  0.00000000000E+00  0.39999999674E+01  0.40000000000E+01  0.51100000000E-03 0. -1.
    9000002   -1    0    0    0    0 -0.00000000000E+00 -0.00000000000E+00  0.00000000000E+00  0.93800000000E+00  0.93800000000E+00 0. -1.
         11    1    1    2    0    0 -0.23657683374E+00  0.79831954820E-01  0.10433366730E+01  0.10727970049E+01  0.51100000000E-03 0. -1.
    9000002    1    1    2    0    0  0.22365285752E-01 -0.35627233188E-01  0.39418249807E-01  0.93976981446E+00  0.93800000000E+00 0. -1.
         22    1    1    2    0    0  0.21421154799E+00 -0.44204721633E-01  0.29172450445E+01  0.29254331807E+01  0.00000000000E+00 0. -1.
</event>
<event>
 5    1  0.4838219E+001  0.1598220E+01  0.7818608E-02  0.3355297E+00
         11   -1    0    0    0    0  0.00000000000E+00  0.00000000000E+00  0.39999999674E+01  0.40000000000E+01  0.51100000000E-03 0. -1.
    9000002   -1    0    0    0    0 -0.00000000000E+00 -0.00000000000E+00  0.00000000000E+00  0.93800000000E+00  0.93800000000E+00 0.  1.
         11    1    1    2    0    0 -0.80968510011E-01  0.22205288316E-01  0.10164418222E+01  0.10199035314E+01  0.51100000000E-03 0. -1.
    9000002    1    1    2    0    0  0.27864633786E+00  0.65627889934E-01  0.55735452216E-01  0.98229386752E+00  0.93800000000E+00 0.  1.
         22    1    1    2    0    0 -0.19767782785E+00 -0.87833178249E-01  0.29278226930E+01  0.29358026010E+01  0.00000000000E+00 0. -1.
</event>
<event>
 5    1  0.4838219E+001  0.1574526E+01  0.7818608E-02  0.3381485E+00
         11   -1    0    0    0    0  0.00000000000E+00  0.00000000000E+00  0.39999999674E+01  0.40000000000E+01  0.51100000000E-03 0. -1.
    9000002   -1    0    0    0    0 -0.00000000000E+00 -0.00000000000E+00  0.00000000000E+00  0.93800000000E+00  0.93800000000E+00 0.  1.
         11    1    1    2    0    0  0.10795708098E+00  0.94528864364E-01  0.24483542174E+01  0.24525556207E+01  0.51100000000E-03 0. -1.
    9000002    1    1    2    0    0  0.45219645853E-01  0.52505723578E-01  0.21669747975E-01  0.94080563633E+00  0.93800000000E+00 0.  1.
         22    1    1    2    0    0 -0.15317672684E+00 -0.14703458794E+00  0.15299760020E+01  0.15446387430E+01  0.00000000000E+00 0. -1.
</event>
<event>
 5    1  0.4838219E+001  0.1496881E+01  0.7818608E-02  0.3473498E+00
         11   -1    0    0    0    0  0.00000000000E+00  0.00000000000E+00  0.39999999674E+01  0.40000000000E+01  0.51100000000E-03 0. -1.
    9000002   -1    0    0    0    0 -0.00000000000E+00 -0.00000000000E+00  0.00000000000E+00  0.93800000000E+00  0.93800000000E+00 0.  1.
         11    1    1    2    0    0  0.35791951751E+00 -0.19463267737E+00  0.14414659687E+01  0.14979361335E+01  0.51100000000E-03 0. -1.
    9000002    1    1    2    0    0 -0.10216676013E+00  0.82538460542E-02  0.86149102918E-01  0.94750822729E+00  0.93800000000E+00 0.  1.
         22    1    1    2    0    0 -0.25575275738E+00  0.18637883132E+00  0.24723848958E+01  0.24925556392E+01  0.00000000000E+00 0. -1.
</event>
<event>
 5    1  0.4838219E+001  0.1554651E+01  0.7818608E-02  0.3404104E+00
         11   -1    0    0    0    0  0.00000000000E+00  0.00000000000E+00  0.39999999674E+01  0.40000000000E+01  0.51100000000E-03 0.  1.
    9000002   -1    0    0    0    0 -0.00000000000E+00 -0.00000000000E+00  0.00000000000E+00  0.93800000000E+00  0.93800000000E+00 0.  1.
         11    1    1    2    0    0 -0.11703152020E+00 -0.14968930733E+00  0.27526472742E+01  0.27591974455E+01  0.51100000000E-03 0.  1.
    9000002    1    1    2    0    0 -0.51253747830E-02 -0.76161087069E-01  0.37334964849E-01  0.94184111200E+00  0.93800000000E+00 0.  1.
         22    1    1    2    0    0  0.12215689498E+00  0.22585039440E+00  0.12100177283E+01  0.12369614425E+01  0.00000000000E+00 0. -1.
</event>
<event>
 5    1  0.4838219E+001  0.1561238E+01  0.7818608E-02  0.3396540E+00
         11   -1    0    0    0    0  0.00000000000E+00  0.00000000000E+00  0.39999999674E+01  0.40000000000E+01  0.51100000000E-03 0. -1.
    9000002   -1    0    0    0    0 -0.00000000000E+00 -0.00000000000E+00  0.00000000000E+00  0.93800000000E+00  0.93800000000E+00 0.  1.
         11    1    1    2    0    0 -0.11548649916E+00 -0.20721996029E+00  0.30231371218E+01  0.30324306359E+01  0.51100000000E-03 0. -1.
    9000002    1    1    2    0    0  0.15433900139E+00  0.84711143848E-02  0.44741088973E-01  0.95170271208E+00  0.93800000000E+00 0.  1.
         22    1    1    2    0    0 -0.38852502234E-01  0.19874884590E+00  0.93212175659E+00  0.95386665200E+00  0.00000000000E+00 0.  1.
</event>
<event>
 5    1  0.4838219E+001  0.1466498E+01  0.7818608E-02  0.3512361E+00
         11   -1    0    0    0    0  0.00000000000E+00  0.00000000000E+00  0.39999999674E+01  0.40000000000E+01  0.51100000000E-03 0. -1.
    9000002   -1    0    0    0    0 -0.00000000000E+00 -0.00000000000E+00  0.00000000000E+00  0.93800000000E+00  0.93800000000E+00 0.  1.
         11    1    1    2    0    0  0.22781343853E+00  0.87868381809E+00  0.29100765080E+01  0.30483650960E+01  0.51100000000E-03 0. -1.
    9000002    1    1    2    0    0 -0.20793850454E+00 -0.66728610804E+00  0.51754553994E+00  0.12791428996E+01  0.93800000000E+00 0.  1.
         22    1    1    2    0    0 -0.19874933990E-01 -0.21139771005E+00  0.57237791940E+00  0.61049200440E+00  0.00000000000E+00 0. -1.
</event>
<event>
 5    1  0.4838219E+001  0.1557601E+01  0.7818608E-02  0.3400708E+00
         11   -1    0    0    0    0  0.00000000000E+00  0.00000000000E+00  0.39999999674E+01  0.40000000000E+01  0.51100000000E-03 0.  1.
    9000002   -1    0    0    0    0 -0.00000000000E+00 -0.00000000000E+00  0.00000000000E+00  0.93800000000E+00  0.93800000000E+00 0. -1.
         11    1    1    2    0    0  0.20056419436E+00  0.18815721011E+00  0.22769732011E+01  0.22935205147E+01  0.51100000000E-03 0.  1.
    9000002    1    1    2    0    0  0.40928539649E-02 -0.91460884897E-01  0.36849467872E-01  0.94317746379E+00  0.93800000000E+00 0. -1.
         22    1    1    2    0    0 -0.20465704833E+00 -0.96696325209E-01  0.16861772984E+01  0.17013020215E+01  0.00000000000E+00 0.  1.
</event>
<event>
 5    1  0.4838219E+001  0.1616857E+01  0.7818608E-02  0.3335268E+00
         11   -1    0    0    0    0  0.00000000000E+00  0.00000000000E+00  0.39999999674E+01  0.40000000000E+01  0.51100000000E-03 0. -1.
    9000002   -1    0    0    0    0 -0.00000000000E+00 -0.00000000000E+00  0.00000000000E+00  0.93800000000E+00  0.93800000000E+00 0.  1.
         11    1    1    2    0    0 -0.22331421581E+00  0.20542672770E+00  0.33648095116E-01  0.30528975558E+00  0.51100000000E-03 0. -1.
    9000002    1    1    2    0    0  0.12475003715E+00 -0.41099546343E+00  0.47817376838E+00  0.11370901440E+01  0.93800000000E+00 0.  1.
         22    1    1    2    0    0  0.98564178665E-01  0.20556873573E+00  0.34881781039E+01  0.34956201005E+01  0.00000000000E+00 0. -1.
</event>
<event>
 5    1  0.4838219E+001  0.1547484E+01  0.7818608E-02  0.3412412E+00
         11   -1    0    0    0    0  0.00000000000E+00  0.00000000000E+00  0.39999999674E+01  0.40000000000E+01  0.51100000000E-03 0. -1.
    9000002   -1    0    0    0    0 -0.00000000000E+00 -0.00000000000E+00  0.00000000000E+00  0.93800000000E+00  0.93800000000E+00 0. -1.
         11    1    1    2    0    0  0.12491085048E+00 -0.23213208715E+00  0.11158646760E+01  0.11465785026E+01  0.51100000000E-03 0. -1.
    9000002    1    1    2    0    0  0.82712686300E-01  0.11658340963E+00  0.52974279131E-01  0.95030697889E+00  0.93800000000E+00 0. -1.
         22    1    1    2    0    0 -0.20762353678E+00  0.11554867752E+00  0.28311610122E+01  0.28411145185E+01  0.00000000000E+00 0. -1.
</event>
<event>
 5    1  0.4838219E+001  0.1568277E+01  0.7818608E-02  0.3388531E+00
         11   -1    0    0    0    0  0.00000000000E+00  0.00000000000E+00  0.39999999674E+01  0.40000000000E+01  0.51100000000E-03 0. -1.
    9000002   -1    0    0    0    0 -0.00000000000E+00 -0.00000000000E+00  0.00000000000E+00  0.93800000000E+00  0.93800000000E+00 0. -1.
         11    1    1    2    0    0  0.17695403873E+00  0.18373298297E+00  0.12022102830E+01  0.12289753319E+01  0.51100000000E-03 0. -1.
    9000002    1    1    2    0    0 -0.31269130450E+00 -0.11738252987E-01  0.90572707431E-01  0.99295571594E+00  0.93800000000E+00 0. -1.
         22    1    1    2    0    0  0.13573726577E+00 -0.17199472999E+00  0.27072169769E+01  0.27160689521E+01  0.00000000000E+00 0. -1.
</event>
<event>
 5    1  0.4838219E+001  0.1547019E+01  0.7818608E-02  0.3412954E+00
         11   -1    0    0    0    0  0.00000000000E+00  0.00000000000E+00  0.39999999674E+01  0.40000000000E+01  0.51100000000E-03 0. -1.
    9000002   -1    0    0    0    0 -0.00000000000E+00 -0.00000000000E+00  0.00000000000E+00  0.93800000000E+00  0.93800000000E+00 0. -1.
         11    1    1    2    0    0 -0.20794513729E+00 -0.22462103394E+00  0.94607570545E+00  0.99436175035E+00  0.51100000000E-03 0. -1.
    9000002    1    1    2    0    0  0.35314542377E+00  0.73009639082E-01  0.13128590483E+00  0.10134703185E+01  0.93800000000E+00 0. -1.
         22    1    1    2    0    0 -0.14520028649E+00  0.15161139486E+00  0.29226383571E+01  0.29301679311E+01  0.00000000000E+00 0. -1.
</event>
<event>
 5    1  0.4838219E+001  0.1578591E+01  0.7818608E-02  0.3376933E+00
         11   -1    0    0    0    0  0.00000000000E+00  0.00000000000E+00  0.39999999674E+01  0.40000000000E+01  0.51100000000E-03 0.  1.
    9000002   -1    0    0    0    0 -0.00000000000E+00 -0.00000000000E+00  0.00000000000E+00  0.93800000000E+00  0.93800000000E+00 0.  1.
         11    1    1    2    0    0  0.11766813982E+00 -0.18255939098E+00  0.11563998595E+01  0.11766199975E+01  0.51100000000E-03 0.  1.
    9000002    1    1    2    0    0 -0.29775993539E+00  0.86547975100E-01  0.80987066058E-01  0.99123883902E+00  0.93800000000E+00 0.  1.
         22    1    1    2    0    0  0.18009179557E+00  0.96011415879E-01  0.27626130418E+01  0.27701411635E+01  0.00000000000E+00 0.  1.
</event>
<event>
 5    1  0.4838219E+001  0.1550084E+01  0.7818608E-02  0.3409388E+00
         11   -1    0    0    0    0  0.00000000000E+00  0.00000000000E+00  0.39999999674E+01  0.40000000000E+01  0.51100000000E-03 0. -1.
    9000002   -1    0    0    0    0 -0.00000000000E+00 -0.00000000000E+00  0.00000000000E+00  0.93800000000E+00  0.93800000000E+00 0. -1.
         11    1    1    2    0    0  0.18494959350E+00 -0.21546234603E+00  0.23689233042E+01  0.23858810232E+01  0.51100000000E-03 0. -1.
    9000002    1    1    2    0    0  0.76446169439E-01  0.15055500333E+00  0.56582406835E-01  0.95475462534E+00  0.93800000000E+00 0. -1.
         22    1    1    2    0    0 -0.26139576294E+00  0.64907342704E-01  0.15744942563E+01  0.15973643514E+01  0.00000000000E+00 0.  1.
</event>
<event>
 5    1  0.4838219E+001  0.1555351E+01  0.7818608E-02  0.3403297E+00
         11   -1    0    0    0    0  0.00000000000E+00  0.00000000000E+00  0.39999999674E+01  0.40000000000E+01  0.51100000000E-03 0. -1.
    9000002   -1    0    0    0    0 -0.00000000000E+00 -0.00000000000E+00  0.00000000000E+00  0.93800000000E+00  0.93800000000E+00 0.  1.
         11    1    1    2    0    0 -0.16922047693E+00 -0.79593142819E-01  0.67757119340E+00  0.70290370709E+00  0.51100000000E-03 0. -1.
    9000002    1    1    2    0    0 -0.25190982198E-01 -0.11056993103E-01  0.33314348256E-01  0.93899450929E+00  0.93800000000E+00 0.  1.
         22    1    1    2    0    0  0.19441145913E+00  0.90650135922E-01  0.32891144257E+01  0.32961017836E+01  0.00000000000E+00 0. -1.
</event>
<event>
 5    1  0.4838219E+001  0.1524261E+01  0.7818608E-02  0.3439906E+00
         11   -1    0    0    0    0  0.00000000000E+00  0.00000000000E+00  0.39999999674E+01  0.40000000000E+01  0.51100000000E-03 0. -1.
    9000002   -1    0    0    0    0 -0.00000000000E+00 -0.00000000000E+00  0.00000000000E+00  0.93800000000E+00  0.93800000000E+00 0.  1.
         11    1    1    2    0    0  0.25346106749E+00 -0.10907505978E+00  0.11637220358E+01  0.11959887621E+01  0.51100000000E-03 0. -1.
    9000002    1    1    2    0    0  0.93174906301E-01 -0.49084096116E-02  0.62893385656E-01  0.94472495130E+00  0.93800000000E+00 0.  1.
         22    1    1    2    0    0 -0.34663597379E+00  0.11398346939E+00  0.27733845459E+01  0.27972862866E+01  0.00000000000E+00 0. -1.
</event>
<event>
 5    1  0.4838219E+001  0.1454381E+01  0.7818608E-02  0.3528351E+00
         11   -1    0    0    0    0  0.00000000000E+00  0.00000000000E+00  0.39999999674E+01  0.40000000000E+01  0.51100000000E-03 0.  1.
    9000002   -1    0    0    0    0 -0.00000000000E+00 -0.00000000000E+00  0.00000000000E+00  0.93800000000E+00  0.93800000000E+00 0.  1.
         11    1    1    2    0    0  0.27112812662E+00  0.15670193128E+00  0.46880000668E+00  0.56377270570E+00  0.51100000000E-03 0.  1.
    9000002    1    1    2    0    0 -0.79283533648E-02 -0.41253229536E-01  0.11499733477E+00  0.94595616956E+00  0.93800000000E+00 0.  1.
         22    1    1    2    0    0 -0.26319977325E+00 -0.11544870175E+00  0.34162026259E+01  0.34282711247E+01  0.00000000000E+00 0.  1.
</event>
<event>
 5    1  0.4838219E+001  0.1576568E+01  0.7818608E-02  0.3379196E+00
         11   -1    0    0    0    0  0.00000000000E+00  0.00000000000E+00  0.39999999674E+01  0.40000000000E+01  0.51100000000E-03 0. -1.
    9000002   -1    0    0    0    0 -0.00000000000E+00 -0.00000000000E+00  0.00000000000E+00  0.93800000000E+00  0.93800000000E+00 0. -1.
         11    1    1    2    0    0  0.15996721530E-01  0.82304873614E-01  0.27465553631E+00  0.28716878672E+00  0.51100000000E-03 0. -1.
    9000002    1    1    2    0    0  0.39035367543E-01  0.13457892202E+00  0.30170235480E-01  0.94888855472E+00  0.93800000000E+00 0. -1.
         22    1    1    2    0    0 -0.55032089073E-01 -0.21688379564E+00  0.36951741956E+01  0.37019426586E+01  0.00000000000E+00 0. -1.
</event>
<event>
 5    1  0.4838219E+001  0.1555152E+01  0.7818608E-02  0.3403526E+00
         11   -1    0    0    0    0  0.00000000000E+00  0.00000000000E+00  0.39999999674E+01  0.40000000000E+01  0.51100000000E-03 0.  1.
    9000002   -1    0    0    0    0 -0.00000000000E+00 -0.00000000000E+00  0.00000000000E+00  0.93800000000E+00  0.93800000000E+00 0.  1.
         11    1    1    2    0    0 -0.19231310012E+00 -0.97058454804E-01  0.94528033274E+00  0.96951526069E+00  0.51100000000E-03 0.  1.
    9000002    1    1    2    0    0  0.15303553545E-01 -0.42452357571E-01  0.34344756722E-01  0.93971270276E+00  0.93800000000E+00 0.  1.
         22    1    1    2    0    0  0.17700954657E+00  0.13951081237E+00  0.30203748779E+01  0.30287720366E+01  0.00000000000E+00 0.  1.
</event>
<event>
 5    1  0.4838219E+001  0.1474369E+01  0.7818608E-02  0.3502127E+00
         11   -1    0    0    0    0  0.00000000000E+00  0.00000000000E+00  0.39999999674E+01  0.40000000000E+01  0.51100000000E-03 0.  1.
    9000002   -1    0    0    0    0 -0.00000000000E+00 -0.00000000000E+00  0.00000000000E+00  0.93800000000E+00  0.93800000000E+00 0.  1.
         11    1    1    2    0    0 -0.23291237184E-01  0.11832351033E+00  0.47805946525E-01  0.12972511118E+00  0.51100000000E-03 0.  1.
    9000002    1    1    2    0    0 -0.81956687805E-01  0.27835880564E+00  0.16104611893E+00  0.99497757551E+00  0.93800000000E+00 0.  1.
         22    1    1    2    0    0  0.10524792499E+00 -0.39668231597E+00  0.37911479019E+01  0.38132973133E+01  0.00000000000E+00 0.  1.
</event>
<event>
 5    1  0.4838219E+001  0.1598161E+01  0.7818608E-02  0.3355362E+00
         11   -1    0    0    0    0  0.00000000000E+00  0.00000000000E+00  0.39999999674E+01  0.40000000000E+01  0.51100000000E-03 0.  1.
    9000002   -1    0    0    0    0 -0.00000000000E+00 -0.00000000000E+00  0.00000000000E+00  0.93800000000E+00  0.93800000000E+00 0. -1.
         11    1    1    2    0    0  0.65253211233E-01  0.22713160064E-01  0.14027214780E+01  0.14044221855E+01  0.51100000000E-03 0.  1.
    9000002    1    1    2    0    0 -0.28158909501E+00  0.15782138790E-01  0.54154057045E-01  0.98097816297E+00  0.93800000000E+00 0. -1.
         22    1    1    2    0    0  0.21633588378E+00 -0.38495298854E-01  0.25431244324E+01  0.25525996515E+01  0.00000000000E+00 0.  1.
</event>
<event>
 5    1  0.4838219E+001  0.1496980E+01  0.7818608E-02  0.3473375E+00
         11   -1    0    0    0    0  0.00000000000E+00  0.00000000000E+00  0.39999999674E+01  0.40000000000E+01  0.51100000000E-03 0. -1.
    9000002   -1    0    0    0    0 -0.00000000000E+00 -0.00000000000E+00  0.00000000000E+00  0.93800000000E+00  0.93800000000E+00 0. -1.
         11    1    1    2    0    0  0.11107080808E+00  0.32951329384E+00  0.14245686044E+01  0.14663941165E+01  0.51100000000E-03 0. -1.
    9000002    1    1    2    0    0 -0.56786229736E-01  0.84128290065E-01  0.85919048317E-01  0.94737971687E+00  0.93800000000E+00 0. -1.
         22    1    1    2    0    0 -0.54284578346E-01 -0.41364158391E+00  0.24895123147E+01  0.25242261666E+01  0.00000000000E+00 0. -1.
</event>
<event>
 5    1  0.4838219E+001  0.1545577E+01  0.7818608E-02  0.3414636E+00
         11   -1    0    0    0    0  0.00000000000E+00  0.00000000000E+00  0.39999999674E+01  0.40000000000E+01  0.51100000000E-03 0.  1.
    9000002   -1    0    0    0    0 -0.00000000000E+00 -0.00000000000E+00  0.00000000000E+00  0.93800000000E+00  0.93800000000E+00 0. -1.
         11    1    1    2    0    0 -0.67216566784E-01  0.34298193330E+00  0.24508636477E+01  0.24756590141E+01  0.51100000000E-03 0.  1.
    9000002    1    1    2    0    0 -0.38272354005E-01 -0.14031674244E+00  0.54961377666E-01  0.95079877699E+00  0.93800000000E+00 0. -1.
         22    1    1    2    0    0  0.10548892079E+00 -0.20266519086E+00  0.14941749420E+01  0.15115422089E+01  0.00000000000E+00 0. -1.
</event>
<event>
 5    1  0.4838219E+001  0.1376648E+01  0.7818608E-02  0.3645050E+00
         11   -1    0    0    0    0  0.00000000000E+00  0.00000000000E+00  0.39999999674E+01  0.40000000000E+01  0.51100000000E-03 0. -1.
    9000002   -1    0    0    0    0 -0.00000000000E+00 -0.00000000000E+00  0.00000000000E+00  0.93800000000E+00  0.93800000000E+00 0. -1.
         11    1    1    2    0    0 -0.33882877967E+00  0.62801935569E+00  0.30164429353E+01  0.30997002268E+01  0.51100000000E-03 0. -1.
    9000002    1    1    2    0    0  0.17074967841E+00 -0.27713094547E+00  0.27549799345E+00  0.10303883530E+01  0.93800000000E+00 0. -1.
         22    1    1    2    0    0  0.16807910126E+00 -0.35088841022E+00  0.70805903861E+00  0.80791142018E+00  0.00000000000E+00 0. -1.
</event>
<event>
 5    1  0.5316940E+001  0.1559948E+01  0.7818608E-02  0.3398015E+00
         11   -1    0    0    0    0  0.00000000000E+00  0.00000000000E+00  0.39999999674E+01  0.40000000000E+01  0.51100000000E-03 0. -1.
    9000002   -1    0    0    0    0 -0.00000000000E+00 -0.00000000000E+00  0.00000000000E+00  0.93800000000E+00  0.93800000000E+00 0.  1.
         11    1    1    2    0    0 -0.21699347583E+00  0.34897614525E-01  0.11874459905E+01  0.12076142818E+01  0.51100000000E-03 0. -1.
    9000002    1    1    2    0    0  0.48745907854E-02  0.29353943006E-01  0.29929984510E-01  0.93894899733E+00  0.93800000000E+00 0.  1.
         22    1    1    2    0    0  0.21211888504E+00 -0.64251557531E-01  0.27826239923E+01  0.27914367209E+01  0.00000000000E+00 0. -1.
</event>
<event>
 5    1  0.4838219E+001  0.1587858E+01  0.7818608E-02  0.3366648E+00
         11   -1    0    0    0    0  0.00000000000E+00  0.00000000000E+00  0.39999999674E+01  0.40000000000E+01  0.51100000000E-03 0.  1.
    9000002   -1    0    0    0    0 -0.00000000000E+00 -0.00000000000E+00  0.00000000000E+00  0.93800000000E+00  0.93800000000E+00 0.  1.
         11    1    1    2    0    0  0.32984031196E+00  0.62387371961E+00  0.22930330655E+01  0.23991694292E+01  0.51100000000E-03 0.  1.
    9000002    1    1    2    0    0 -0.32845191692E+00 -0.82672051829E+00  0.62115581754E+00  0.14342336026E+01  0.93800000000E+00 0.  1.
         22    1    1    2    0    0 -0.13883950313E-02  0.20284679869E+00  0.10858110844E+01  0.11045969683E+01  0.00000000000E+00 0. -1.
</event>
<event>
 5    1  0.4838219E+001  0.1481733E+01  0.7818608E-02  0.3492658E+00
         11   -1    0    0    0    0  0.00000000000E+00  0.00000000000E+00  0.39999999674E+01  0.40000000000E+01  0.51100000000E-03 0. -1.
    9000002   -1    0    0    0    0 -0.00000000000E+00 -0.00000000000E+00  0.00000000000E+00  0.93800000000E+00  0.93800000000E+00 0.  1.
         11    1    1    2    0    0 -0.33983741539E+00  0.27315880739E+00  0.18973519315E+01  0.19468050278E+01  0.51100000000E-03 0. -1.
    9000002    1    1    2    0    0 -0.14205357034E+00 -0.48070194975E+00  0.28745574739E+00  0.11016934184E+01  0.93800000000E+00 0.  1.
         22    1    1    2    0    0  0.48189098573E+00  0.20754314235E+00  0.18151922884E+01  0.18895015539E+01  0.00000000000E+00 0. -1.
</event>
<event>
 5    1  0.4838219E+001  0.1549334E+01  0.7818608E-02  0.3410260E+00
         11   -1    0    0    0    0  0.00000000000E+00  0.00000000000E+00  0.39999999674E+01  0.40000000000E+01  0.51100000000E-03 0. -1.
    9000002   -1    0    0    0    0 -0.00000000000E+00 -0.00000000000E+00  0.00000000000E+00  0.93800000000E+00  0.93800000000E+00 0. -1.
         11    1    1    2    0    0  0.44016704784E-01 -0.25280766997E+00  0.23064830057E+01  0.23207139645E+01  0.51100000000E-03 0. -1.
    9000002    1    1    2    0    0  0.26021853411E-01 -0.11916529912E-01  0.37926539786E-01  0.93920262082E+00  0.93800000000E+00 0. -1.
         22    1    1    2    0    0 -0.70038558196E-01  0.26472419988E+00  0.16555904219E+01  0.16780834147E+01  0.00000000000E+00 0. -1.
</event>
<event>
 5    1  0.4838219E+001  0.1490588E+01  0.7818608E-02  0.3481408E+00
         11   -1    0    0    0    0  0.00000000000E+00  0.00000000000E+00  0.39999999674E+01  0.40000000000E+01  0.51100000000E-03 0.  1.
    9000002   -1    0    0    0    0 -0.00000000000E+00 -0.00000000000E+00  0.00000000000E+00  0.93800000000E+00  0.93800000000E+00 0. -1.
         11    1    1    2    0    0  0.28019985342E+00 -0.12932527620E+00  0.47376710024E+00  0.56541357546E+00  0.51100000000E-03 0.  1.
    9000002    1    1    2    0    0 -0.17268476855E+00  0.32004637803E+00  0.18342137385E+00  0.10226128856E+01  0.93800000000E+00 0. -1.
         22    1    1    2    0    0 -0.10751508487E+00 -0.19072110183E+00  0.33428114933E+01  0.33499735390E+01  0.00000000000E+00 0.  1.
</event>
<event>
 5    1  0.4838219E+001  0.1574184E+01  0.7818608E-02  0.3381869E+00
         11   -1    0    0    0    0  0.00000000000E+00  0.00000000000E+00  0.39999999674E+01  0.40000000000E+01  0.51100000000E-03 0.  1.
    9000002   -1    0    0    0    0 -0.00000000000E+00 -0.00000000000E+00  0.00000000000E+00  0.93800000000E+00  0.93800000000E+00 0.  1.
         11    1    1    2    0    0 -0.30206681791E-01  0.11620623615E+00  0.55809573195E+00  0.57086551839E+00  0.51100000000E-03 0.  1.
    9000002    1    1    2    0    0 -0.94859054887E-01  0.74115701120E-01  0.28480184349E-01  0.94612182004E+00  0.93800000000E+00 0.  1.
         22    1    1    2    0    0  0.12506573668E+00 -0.19032193727E+00  0.34134240511E+01  0.34210126616E+01  0.00000000000E+00 0.  1.
</event>
<event>
 5    1  0.4838219E+001  0.1298202E+01  0.7818608E-02  0.3785380E+00
         11   -1    0    0    0    0  0.00000000000E+00  0.00000000000E+00  0.39999999674E+01  0.40000000000E+01  0.51100000000E-03 0. -1.
    9000002   -1    0    0    0    0 -0.00000000000E+00 -0.00000000000E+00  0.00000000000E+00  0.93800000000E+00  0.93800000000E+00 0. -1.
         11    1    1    2    0    0 -0.31489119712E-01 -0.57475664459E+00  0.12317144174E+01  0.13595798735E+01  0.51100000000E-03 0. -1.
    9000002    1    1    2    0    0  0.37609187388E+00 -0.13536182255E+00  0.42300431330E+00  0.11038770628E+01  0.93800000000E+00 0. -1.
         22    1    1    2    0    0 -0.34460275416E+00  0.71011846714E+00  0.23452812366E+01  0.24745430638E+01  0.00000000000E+00 0. -1.
</event>
<event>
 5    1  0.4838219E+001  0.1468118E+01  0.7818608E-02  0.3510245E+00
         11   -1    0    0    0    0  0.00000000000E+00  0.00000000000E+00  0.39999999674E+01  0.40000000000E+01  0.51100000000E-03 0.  1.
    9000002   -1    0    0    0    0 -0.00000000000E+00 -0.00000000000E+00  0.00000000000E+00  0.93800000000E+00  0.93800000000E+00 0.  1.
         11    1    1    2    0    0  0.94722011102E-01  0.45255152103E+00  0.15725066723E+01  0.16390706617E+01  0.51100000000E-03 0.  1.
    9000002    1    1    2    0    0 -0.50395168371E-01 -0.73942206900E-01  0.10812212940E+00  0.94844162594E+00  0.93800000000E+00 0.  1.
         22    1    1    2    0    0 -0.44326842731E-01 -0.37860931413E+00  0.23193711657E+01  0.23504877123E+01  0.00000000000E+00 0.  1.
</event>
<event>
 5    1  0.4838219E+001  0.1579120E+01  0.7818608E-02  0.3376342E+00
         11   -1    0    0    0    0  0.00000000000E+00  0.00000000000E+00  0.39999999674E+01  0.40000000000E+01  0.51100000000E-03 0. -1.
    9000002   -1    0    0    0    0 -0.00000000000E+00 -0.00000000000E+00  0.00000000000E+00  0.93800000000E+00  0.93800000000E+00 0.  1.
         11    1    1    2    0    0 -0.59181594954E-02 -0.21613390948E+00  0.19664808531E+01  0.19783316451E+01  0.51100000000E-03 0. -1.
    9000002    1    1    2    0    0 -0.30207973916E+00  0.29581429734E+00  0.13853972138E+00  0.10381693126E+01  0.93800000000E+00 0.  1.
         22    1    1    2    0    0  0.30799789866E+00 -0.79680387853E-01  0.18949793929E+01  0.19214990422E+01  0.00000000000E+00 0.  1.
</event>
<event>
 5    1  0.4838219E+001  0.1506146E+01  0.7818608E-02  0.3461985E+00
         11   -1    0    0    0    0  0.00000000000E+00  0.00000000000E+00  0.39999999674E+01  0.40000000000E+01  0.51100000000E-03 0.  1.
    9000002   -1    0    0    0    0 -0.00000000000E+00 -0.00000000000E+00  0.00000000000E+00  0.93800000000E+00  0.93800000000E+00 0.  1.
         11    1    1    2    0    0 -0.10261884972E-01 -0.32402768833E+00  0.72347517043E+00  0.79278990435E+00  0.51100000000E-03 0.  1.
    9000002    1    1    2    0    0  0.16907449601E+00  0.17755162616E+00  0.11499698703E+00  0.97630890203E+00  0.93800000000E+00 0.  1.
         22    1    1    2    0    0 -0.15881261103E+00  0.14647606217E+00  0.31615278099E+01  0.31689011936E+01  0.00000000000E+00 0.  1.
</event>
<event>
 5    1  0.4838219E+001  0.1584881E+01  0.7818608E-02  0.3369939E+00
         11   -1    0    0    0    0  0.00000000000E+00  0.00000000000E+00  0.39999999674E+01  0.40000000000E+01  0.51100000000E-03 0. -1.
    9000002   -1    0    0    0    0 -0.00000000000E+00 -0.00000000000E+00  0.00000000000E+00  0.93800000000E+00  0.93800000000E+00 0. -1.
         11    1    1    2    0    0  0.98043011760E-01 -0.45283016079E-01  0.16897609086E+01  0.16932085439E+01  0.51100000000E-03 0. -1.
    9000002    1    1    2    0    0 -0.10715656325E+00 -0.21013989355E+00  0.48248874798E-01  0.96840758869E+00  0.93800000000E+00 0. -1.
         22    1    1    2    0    0  0.91135514873E-02  0.25542290963E+00  0.22619901840E+01  0.22763838675E+01  0.00000000000E+00 0. -1.
</event>
<event>
 5    1  0.4838219E+001  0.1498780E+01  0.7818608E-02  0.3471126E+00
         11   -1    0    0    0    0  0.00000000000E+00  0.00000000000E+00  0.39999999674E+01  0.40000000000E+01  0.51100000000E-03 0.  1.
    9000002   -1    0    0    0    0 -0.00000000000E+00 -0.00000000000E+00  0.00000000000E+00  0.93800000000E+00  0.93800000000E+00 0.  1.
         11    1    1    2    0    0  0.17678039603E+00 -0.51211782601E+00  0.12888015419E+01  0.13980435085E+01  0.51100000000E-03 0.  1.
    9000002    1    1    2    0    0  0.23199702461E-01  0.54652833019E+00  0.30866766341E+00  0.11288716350E+01  0.93800000000E+00 0.  1.
         22    1    1    2    0    0 -0.19998009849E+00 -0.34410504176E-01  0.24025307620E+01  0.24110848565E+01  0.00000000000E+00 0.  1.
</event>
<event>
 5    1  0.4838219E+001  0.1571912E+01  0.7818608E-02  0.3384424E+00
         11   -1    0    0    0    0  0.00000000000E+00  0.00000000000E+00  0.39999999674E+01  0.40000000000E+01  0.51100000000E-03 0. -1.
    9000002   -1    0    0    0    0 -0.00000000000E+00 -0.00000000000E+00  0.00000000000E+00  0.93800000000E+00  0.93800000000E+00 0.  1.
         11    1    1    2    0    0  0.14956345813E+00 -0.11536389123E+00  0.16536027401E+01  0.16643558329E+01  0.51100000000E-03 0. -1.
    9000002    1    1    2    0    0  0.39640410869E-01  0.19684441735E-01  0.21695690221E-01  0.93929417245E+00  0.93800000000E+00 0.  1.
         22    1    1    2    0    0 -0.18920386900E+00  0.95679449493E-01  0.23247015370E+01  0.23343499946E+01  0.00000000000E+00 0. -1.
</event>
<event>
 5    1  0.4838219E+001  0.1546278E+01  0.7818608E-02  0.3413819E+00
         11   -1    0    0    0    0  0.00000000000E+00  0.00000000000E+00  0.39999999674E+01  0.40000000000E+01  0.51100000000E-03 0. -1.
    9000002   -1    0    0    0    0 -0.00000000000E+00 -0.00000000000E+00  0.00000000000E+00  0.93800000000E+00  0.93800000000E+00 0.  1.
         11    1    1    2    0    0 -0.43440154420E-01  0.25243639260E+00  0.11031149327E+01  0.11324636838E+01  0.51100000000E-03 0. -1.
    9000002    1    1    2    0    0 -0.17609566694E+00 -0.71043613473E-01  0.64852888929E-01  0.95922196395E+00  0.93800000000E+00 0.  1.
         22    1    1    2    0    0  0.21953582136E+00 -0.18139277912E+00  0.28320321458E+01  0.28463143523E+01  0.00000000000E+00 0.  1.
</event>
<event>
 5    1  0.4838219E+001  0.1112837E+01  0.7818608E-02  0.4217286E+00
         11   -1    0    0    0    0  0.00000000000E+00  0.00000000000E+00  0.39999999674E+01  0.40000000000E+01  0.51100000000E-03 0. -1.
    9000002   -1    0    0    0    0 -0.00000000000E+00 -0.00000000000E+00  0.00000000000E+00  0.93800000000E+00  0.93800000000E+00 0.  1.
         11    1    1    2    0    0 -0.51453111481E+00  0.40050693763E+00  0.51506124701E+00  0.83092504144E+00  0.51100000000E-03 0. -1.
    9000002    1    1    2    0    0 -0.20826467969E+00 -0.23218754740E+00  0.66561423598E+00  0.11917095053E+01  0.93800000000E+00 0.  1.
         22    1    1    2    0    0  0.72279579450E+00 -0.16831939023E+00  0.28193244844E+01  0.29153654532E+01  0.00000000000E+00 0. -1.
</event>
<event>
 5    1  0.4838219E+001  0.1205649E+01  0.7818608E-02  0.3980048E+00
         11   -1    0    0    0    0  0.00000000000E+00  0.00000000000E+00  0.39999999674E+01  0.40000000000E+01  0.51100000000E-03 0.  1.
    9000002   -1    0    0    0    0 -0.00000000000E+00 -0.00000000000E+00  0.00000000000E+00  0.93800000000E+00  0.93800000000E+00 0.  1.
         11    1    1    2    0    0 -0.21757644664E+00  0.88829066153E+00  0.11902404868E+01  0.15010238130E+01  0.51100000000E-03 0.  1.
    9000002    1    1    2    0    0  0.18828648070E+00 -0.44019234496E+00  0.66454380033E+00  0.12452644546E+01  0.93800000000E+00 0.  1.
         22    1    1    2    0    0  0.29289965946E-01 -0.44809831658E+00  0.21452156802E+01  0.21917117324E+01  0.00000000000E+00 0.  1.
</event>
<event>
 5    1  0.4838219E+001  0.1553679E+01  0.7818608E-02  0.3405226E+00
         11   -1    0    0    0    0  0.00000000000E+00  0.00000000000E+00  0.39999999674E+01  0.40000000000E+01  0.51100000000E-03 0.  1.
    9000002   -1    0    0    0    0 -0.00000000000E+00 -0.00000000000E+00  0.00000000000E+00  0.93800000000E+00  0.93800000000E+00 0. -1.
         11    1    1    2    0    0 -0.18057122001E+00 -0.20248797263E+00  0.20475029334E+01  0.20653996872E+01  0.51100000000E-03 0.  1.
    9000002    1    1    2    0    0 -0.43862917774E-01  0.84568210574E-01  0.40317480146E-01  0.94368704399E+00  0.93800000000E+00 0. -1.
         22    1    1    2    0    0  0.22443413779E+00  0.11791976206E+00  0.19121795539E+01  0.19289132688E+01  0.00000000000E+00 0.  1.
</event>
<event>
 5    1  0.4838219E+001  0.1489841E+01  0.7818608E-02  0.3482350E+00
         11   -1    0    0    0    0  0.00000000000E+00  0.00000000000E+00  0.39999999674E+01  0.40000000000E+01  0.51100000000E-03 0. -1.
    9000002   -1    0    0    0    0 -0.00000000000E+00 -0.00000000000E+00  0.00000000000E+00  0.93800000000E+00  0.93800000000E+00 0. -1.
         11    1    1    2    0    0  0.16842561440E+00  0.26370095013E+00  0.67727100266E+00  0.74605740453E+00  0.51100000000E-03 0. -1.
    9000002    1    1    2    0    0  0.14304932258E+00 -0.14260920348E+00  0.11444805382E+00  0.96630370517E+00  0.93800000000E+00 0. -1.
         22    1    1    2    0    0 -0.31147493698E+00 -0.12109174666E+00  0.32082809109E+01  0.32256388903E+01  0.00000000000E+00 0. -1.
</event>
<event>
 5    1  0.4838219E+001  0.1559324E+01  0.7818608E-02  0.3398731E+00
         11   -1    0    0    0    0  0.00000000000E+00  0.00000000000E+00  0.39999999674E+01  0.40000000000E+01  0.51100000000E-03 0. -1.
    9000002   -1    0    0    0    0 -0.00000000000E+00 -0.00000000000E+00  0.00000000000E+00  0.93800000000E+00  0.93800000000E+00 0.  1.
         11    1    1    2    0    0 -0.12221951570E+00  0.17562480881E+00  0.11584996659E+01  0.11780931290E+01  0.51100000000E-03 0. -1.
    9000002    1    1    2    0    0  0.55592837275E-01  0.59115260272E-01  0.34307260538E-01  0.94212852928E+00  0.93800000000E+00 0.  1.
         22    1    1    2    0    0  0.66626678429E-01 -0.23474006908E+00  0.28071930409E+01  0.28177783418E+01  0.00000000000E+00 0. -1.
</event>
<event>
 5    1  0.4838219E+001  0.1516035E+01  0.7818608E-02  0.3449861E+00
         11   -1    0    0    0    0  0.00000000000E+00  0.00000000000E+00  0.39999999674E+01  0.40000000000E+01  0.51100000000E-03 0. -1.
    9000002   -1    0    0    0    0 -0.00000000000E+00 -0.00000000000E+00  0.00000000000E+00  0.93800000000E+00  0.93800000000E+00 0. -1.
         11    1    1    2    0    0 -0.11083611487E+00  0.10456855277E+00  0.17391655156E+00  0.23122814408E+00  0.51100000000E-03 0. -1.
    9000002    1    1    2    0    0 -0.14638782170E+00 -0.12830599585E+00  0.90480948275E-01  0.96224873339E+00  0.93800000000E+00 0. -1.
         22    1    1    2    0    0  0.25722393657E+00  0.23737443076E-01  0.37356024675E+01  0.37445231225E+01  0.00000000000E+00 0. -1.
</event>
<event>
 5    1  0.4838219E+001  0.1498054E+01  0.7818608E-02  0.3472032E+00
         11   -1    0    0    0    0  0.00000000000E+00  0.00000000000E+00  0.39999999674E+01  0.40000000000E+01  0.51100000000E-03 0. -1.
    9000002   -1    0    0    0    0 -0.00000000000E+00 -0.00000000000E+00  0.00000000000E+00  0.93800000000E+00  0.93800000000E+00 0.  1.
         11    1    1    2    0    0 -0.42761089068E+00  0.12787506301E+00  0.29738163501E+01  0.30071227197E+01  0.51100000000E-03 0. -1.
    9000002    1    1    2    0    0  0.17556657581E+00 -0.33713564431E+00  0.18593725174E+00  0.10290290214E+01  0.93800000000E+00 0.  1.
         22    1    1    2    0    0  0.25204431487E+00  0.20926058130E+00  0.84024636547E+00  0.90184825898E+00  0.00000000000E+00 0.  1.
</event>
<event>
 5    1  0.4838219E+001  0.1574024E+01  0.7818608E-02  0.3382049E+00
         11   -1    0    0    0    0  0.00000000000E+00  0.00000000000E+00  0.39999999674E+01  0.40000000000E+01  0.51100000000E-03 0. -1.
    9000002   -1    0    0    0    0 -0.00000000000E+00 -0.00000000000E+00  0.00000000000E+00  0.93800000000E+00  0.93800000000E+00 0. -1.
         11    1    1    2    0    0  0.11039302637E+00 -0.91798948044E-01  0.88961475315E+00  0.90112614948E+00  0.51100000000E-03 0. -1.
    9000002    1    1    2    0    0  0.49748235583E-01 -0.60205493627E-01  0.22921023536E-01  0.94152480675E+00  0.93800000000E+00 0. -1.
         22    1    1    2    0    0 -0.16014126196E+00  0.15200444167E+00  0.30874641907E+01  0.30953490438E+01  0.00000000000E+00 0. -1.
</event>
<event>
 5    1  0.4838219E+001  0.1583649E+01  0.7818608E-02  0.3371304E+00
         11   -1    0    0    0    0  0.00000000000E+00  0.00000000000E+00  0.39999999674E+01  0.40000000000E+01  0.51100000000E-03 0.  1.
    9000002   -1    0    0    0    0 -0.00000000000E+00 -0.00000000000E+00  0.00000000000E+00  0.93800000000E+00  0.93800000000E+00 0. -1.
         11    1    1    2    0    0 -0.74757450207E-01  0.11500044242E+00  0.28945918585E+01  0.28978398966E+01  0.51100000000E-03 0.  1.
    9000002    1    1    2    0    0  0.47990861681E-01 -0.32953262609E+00  0.87108338099E-01  0.99916301825E+00  0.93800000000E+00 0. -1.
         22    1    1    2    0    0  0.26766588526E-01  0.21453218367E+00  0.10182997708E+01  0.10409970851E+01  0.00000000000E+00 0.  1.
</event>
<event>
 5    1  0.4838219E+001  0.1517141E+01  0.7818608E-02  0.3448516E+00
         11   -1    0    0    0    0  0.00000000000E+00  0.00000000000E+00  0.39999999674E+01  0.40000000000E+01  0.51100000000E-03 0.  1.
    9000002   -1    0    0    0    0 -0.00000000000E+00 -0.00000000000E+00  0.00000000000E+00  0.93800000000E+00  0.93800000000E+00 0. -1.
         11    1    1    2    0    0 -0.70800569743E-01 -0.16884182708E+00  0.25548972435E+00  0.31431758401E+00  0.51100000000E-03 0.  1.
    9000002    1    1    2    0    0  0.23664691579E+00 -0.30336371335E-01  0.10341717698E+00  0.97337617121E+00  0.93800000000E+00 0. -1.
         22    1    1    2    0    0 -0.16584634605E+00  0.19917819841E+00  0.36410930660E+01  0.36503062448E+01  0.00000000000E+00 0.  1.
</event>
<event>
 5    1  0.4838219E+001  0.1536319E+01  0.7818608E-02  0.3425520E+00
         11   -1    0    0    0    0  0.00000000000E+00  0.00000000000E+00  0.39999999674E+01  0.40000000000E+01  0.51100000000E-03 0.  1.
    9000002   -1    0    0    0    0 -0.00000000000E+00 -0.00000000000E+00  0.00000000000E+00  0.93800000000E+00  0.93800000000E+00 0.  1.
         11    1    1    2    0    0  0.60697192182E-01  0.26576795064E+00  0.22097724382E+01  0.22265244761E+01  0.51100000000E-03 0.  1.
    9000002    1    1    2    0    0  0.53794913500E-01  0.37647618079E-01  0.50360297474E-01  0.94164292353E+00  0.93800000000E+00 0.  1.
         22    1    1    2    0    0 -0.11449210568E+00 -0.30341556872E+00  0.17398672317E+01  0.17698326004E+01  0.00000000000E+00 0. -1.
</event>
<event>
 5    1  0.4838219E+001  0.1560338E+01  0.7818608E-02  0.3397570E+00
         11   -1    0    0    0    0  0.00000000000E+00  0.00000000000E+00  0.39999999674E+01  0.40000000000E+01  0.51100000000E-03 0. -1.
    9000002   -1    0    0    0    0 -0.00000000000E+00 -0.00000000000E+00  0.00000000000E+00  0.93800000000E+00  0.93800000000E+00 0.  1.
         11    1    1    2    0    0 -0.10404350772E-01  0.20579651351E+00  0.17302203818E+01  0.17424474989E+01  0.51100000000E-03 0. -1.
    9000002    1    1    2    0    0  0.65022265370E-01  0.69275944741E-01  0.35213326586E-01  0.94345695709E+00  0.93800000000E+00 0.  1.
         22    1    1    2    0    0 -0.54617914599E-01 -0.27507245825E+00  0.22345662589E+01  0.22520955440E+01  0.00000000000E+00 0.  1.
</event>
<event>
 5    1  0.4838219E+001  0.1572305E+01  0.7818608E-02  0.3383983E+00
         11   -1    0    0    0    0  0.00000000000E+00  0.00000000000E+00  0.39999999674E+01  0.40000000000E+01  0.51100000000E-03 0. -1.
    9000002   -1    0    0    0    0 -0.00000000000E+00 -0.00000000000E+00  0.00000000000E+00  0.93800000000E+00  0.93800000000E+00 0.  1.
         11    1    1    2    0    0  0.14378414608E+00 -0.16024477796E+00  0.15809525420E+01  0.15955448821E+01  0.51100000000E-03 0. -1.
    9000002    1    1    2    0    0  0.56051792315E-01  0.14565339365E+00  0.36601988273E-01  0.95159887560E+00  0.93800000000E+00 0.  1.
         22    1    1    2    0    0 -0.19983593839E+00  0.14591384309E-01  0.23824454371E+01  0.23908562423E+01  0.00000000000E+00 0. -1.
</event>
<event>
 5    1  0.4838219E+001  0.1558463E+01  0.7818608E-02  0.3399718E+00
         11   -1    0    0    0    0  0.00000000000E+00  0.00000000000E+00  0.39999999674E+01  0.40000000000E+01  0.51100000000E-03 0.  1.
    9000002   -1    0    0    0    0 -0.00000000000E+00 -0.00000000000E+00  0.00000000000E+00  0.93800000000E+00  0.93800000000E+00 0. -1.
         11    1    1    2    0    0 -0.18257226416E+00 -0.89176410440E-01  0.19690328835E+01  0.19794887777E+01  0.51100000000E-03 0.  1.
    9000002    1    1    2    0    0 -0.11613064993E+00  0.25880779428E+00  0.86310512830E-01  0.98374859942E+00  0.93800000000E+00 0. -1.
         22    1    1    2    0    0  0.29870291409E+00 -0.16963138384E+00  0.19446565711E+01  0.19747626229E+01  0.00000000000E+00 0.  1.
</event>
<event>
 5    1  0.4838219E+001  0.1555868E+01  0.7818608E-02  0.3402702E+00
         11   -1    0    0    0    0  0.00000000000E+00  0.00000000000E+00  0.39999999674E+01  0.40000000000E+01  0.51100000000E-03 0.  1.
    9000002   -1    0    0    0    0 -0.00000000000E+00 -0.00000000000E+00  0.00000000000E+00  0.93800000000E+00  0.93800000000E+00 0. -1.
         11    1    1    2    0    0 -0.13543965320E-01 -0.24898740337E+00  0.19078638242E+01  0.19240901223E+01  0.51100000000E-03 0.  1.
    9000002    1    1    2    0    0 -0.18395670328E+00  0.39495039682E-01  0.56861772561E-01  0.95837215528E+00  0.93800000000E+00 0. -1.
         22    1    1    2    0    0  0.19750066860E+00  0.20949236369E+00  0.20352743706E+01  0.20555377224E+01  0.00000000000E+00 0.  1.
</event>
<event>
 5    1  0.4838219E+001  0.1577759E+01  0.7818608E-02  0.3377862E+00
         11   -1    0    0    0    0  0.00000000000E+00  0.00000000000E+00  0.39999999674E+01  0.40000000000E+01  0.51100000000E-03 0. -1.
    9000002   -1    0    0    0    0 -0.00000000000E+00 -0.00000000000E+00  0.00000000000E+00  0.93800000000E+00  0.93800000000E+00 0. -1.
         11    1    1    2    0    0 -0.24399698679E-01 -0.40746628223E-01  0.19583334965E+01  0.19589093848E+01  0.51100000000E-03 0. -1.
    9000002    1    1    2    0    0  0.10347914268E+00  0.42810023483E+00  0.15059859071E+00  0.10471397612E+01  0.93800000000E+00 0. -1.
         22    1    1    2    0    0 -0.79079444004E-01 -0.38735360661E+00  0.18910678801E+01  0.19319508540E+01  0.00000000000E+00 0. -1.
</event>
<event>
 5    1  0.4838219E+001  0.1480263E+01  0.7818608E-02  0.3494540E+00
         11   -1    0    0    0    0  0.00000000000E+00  0.00000000000E+00  0.39999999674E+01  0.40000000000E+01  0.51100000000E-03 0. -1.
    9000002   -1    0    0    0    0 -0.00000000000E+00 -0.00000000000E+00  0.00000000000E+00  0.93800000000E+00  0.93800000000E+00 0. -1.
         11    1    1    2    0    0  0.45075864522E+00 -0.35836629370E+00  0.27059368862E+01  0.27665329295E+01  0.51100000000E-03 0. -1.
    9000002    1    1    2    0    0 -0.43837259112E+00  0.78528836965E+00  0.83602118383E+00  0.15451937652E+01  0.93800000000E+00 0. -1.
         22    1    1    2    0    0 -0.12386054101E-01 -0.42692207595E+00  0.45804189735E+00  0.62627330535E+00  0.00000000000E+00 0.  1.
</event>
<event>
 5    1  0.4838219E+001  0.1574648E+01  0.7818608E-02  0.3381348E+00
         11   -1    0    0    0    0  0.00000000000E+00  0.00000000000E+00  0.39999999674E+01  0.40000000000E+01  0.51100000000E-03 0. -1.
    9000002   -1    0    0    0    0 -0.00000000000E+00 -0.00000000000E+00  0.00000000000E+00  0.93800000000E+00  0.93800000000E+00 0.  1.
         11    1    1    2    0    0 -0.58672290923E-01 -0.60254077848E+00  0.18463813174E+01  0.19430959981E+01  0.51100000000E-03 0. -1.
    9000002    1    1    2    0    0 -0.15869400333E+00  0.87323922706E+00  0.63860417631E+00  0.14406213341E+01  0.93800000000E+00 0.  1.
         22    1    1    2    0    0  0.21736629426E+00 -0.27069844858E+00  0.15150144737E+01  0.15542826678E+01  0.00000000000E+00 0. -1.
</event>
<event>
 5    1  0.4838219E+001  0.1555149E+01  0.7818608E-02  0.3403529E+00
         11   -1    0    0    0    0  0.00000000000E+00  0.00000000000E+00  0.39999999674E+01  0.40000000000E+01  0.51100000000E-03 0.  1.
    9000002   -1    0    0    0    0 -0.00000000000E+00 -0.00000000000E+00  0.00000000000E+00  0.93800000000E+00  0.93800000000E+00 0. -1.
         11    1    1    2    0    0  0.77212745137E-01  0.29896793707E+00  0.25221570943E+01  0.25409880568E+01  0.51100000000E-03 0.  1.
    9000002    1    1    2    0    0  0.14866482151E-01 -0.11095712326E+00  0.41579352828E-01  0.94557143468E+00  0.93800000000E+00 0. -1.
         22    1    1    2    0    0 -0.92079227288E-01 -0.18801081380E+00  0.14362635203E+01  0.14514405085E+01  0.00000000000E+00 0. -1.
</event>
<event>
 5    1  0.4838219E+001  0.1556243E+01  0.7818608E-02  0.3402269E+00
         11   -1    0    0    0    0  0.00000000000E+00  0.00000000000E+00  0.39999999674E+01  0.40000000000E+01  0.51100000000E-03 0.  1.
    9000002   -1    0    0    0    0 -0.00000000000E+00 -0.00000000000E+00  0.00000000000E+00  0.93800000000E+00  0.93800000000E+00 0.  1.
         11    1    1    2    0    0 -0.25067557413E+00  0.23796900210E-01  0.26960610423E+01  0.27077942944E+01  0.51100000000E-03 0.  1.
    9000002    1    1    2    0    0  0.27176259201E-01 -0.79108636385E-01  0.36929181373E-01  0.94244601429E+00  0.93800000000E+00 0.  1.
         22    1    1    2    0    0  0.22349931493E+00  0.55311736174E-01  0.12670097437E+01  0.12877596913E+01  0.00000000000E+00 0.  1.
</event>
<event>
 5    1  0.4838219E+001  0.1575949E+01  0.7818608E-02  0.3379888E+00
         11   -1    0    0    0    0  0.00000000000E+00  0.00000000000E+00  0.39999999674E+01  0.40000000000E+01  0.51100000000E-03 0.  1.
    9000002   -1    0    0    0    0 -0.00000000000E+00 -0.00000000000E+00  0.00000000000E+00  0.93800000000E+00  0.93800000000E+00 0.  1.
         11    1    1    2    0    0  0.12512229051E+00  0.95553225394E-01  0.13128073960E+01  0.13222138733E+01  0.51100000000E-03 0.  1.
    9000002    1    1    2    0    0  0.52455110205E-01  0.14999895154E-01  0.19379691936E-01  0.93978513922E+00  0.93800000000E+00 0.  1.
         22    1    1    2    0    0 -0.17757740072E+00 -0.11055312055E+00  0.26678128794E+01  0.26760009875E+01  0.00000000000E+00 0.  1.
</event>
<event>
 5    1  0.5134314E+001  0.1562344E+01  0.7818608E-02  0.3395277E+00
         11   -1    0    0    0    0  0.00000000000E+00  0.00000000000E+00  0.39999999674E+01  0.40000000000E+01  0.51100000000E-03 0. -1.
    9000002   -1    0    0    0    0 -0.00000000000E+00 -0.00000000000E+00  0.00000000000E+00  0.93800000000E+00  0.93800000000E+00 0. -1.
         11    1    1    2    0    0 -0.23354594596E+00 -0.57096640732E-01  0.23848327845E+01  0.23969212349E+01  0.51100000000E-03 0. -1.
    9000002    1    1    2    0    0  0.11078201621E-01  0.61922971371E-01  0.30225471677E-01  0.94059277058E+00  0.93800000000E+00 0. -1.
         22    1    1    2    0    0  0.22246774434E+00 -0.48263306396E-02  0.15849417112E+01  0.16004859945E+01  0.00000000000E+00 0. -1.
</event>
<event>
 5    1  0.4838219E+001  0.1424010E+01  0.7818608E-02  0.3569737E+00
         11   -1    0    0    0    0  0.00000000000E+00  0.00000000000E+00  0.39999999674E+01  0.40000000000E+01  0.51100000000E-03 0.  1.
    9000002   -1    0    0    0    0 -0.00000000000E+00 -0.00000000000E+00  0.00000000000E+00  0.93800000000E+00  0.93800000000E+00 0. -1.
         11    1    1    2    0    0  0.47835911298E+00 -0.54839950780E+00  0.31057703958E+01  0.31898870628E+01  0.51100000000E-03 0.  1.
    9000002    1    1    2    0    0 -0.28360317988E+00  0.31056153937E+00  0.28664025439E+00  0.10671859579E+01  0.93800000000E+00 0. -1.
         22    1    1    2    0    0 -0.19475593310E+00  0.23783796843E+00  0.60758931718E+00  0.68092697923E+00  0.00000000000E+00 0.  1.
</event>
<event>
 5    1  0.4838219E+001  0.1569295E+01  0.7818608E-02  0.3387379E+00
         11   -1    0    0    0    0  0.00000000000E+00  0.00000000000E+00  0.39999999674E+01  0.40000000000E+01  0.51100000000E-03 0.  1.
    9000002   -1    0    0    0    0 -0.00000000000E+00 -0.00000000000E+00  0.00000000000E+00  0.93800000000E+00  0.93800000000E+00 0. -1.
         11    1    1    2    0    0  0.12011843760E+00  0.22500720058E+00  0.14590147517E+01  0.14811417847E+01  0.51100000000E-03 0.  1.
    9000002    1    1    2    0    0 -0.25621440814E+00 -0.63626365962E-01  0.70088615592E-01  0.97695985149E+00  0.93800000000E+00 0. -1.
         22    1    1    2    0    0  0.13609597054E+00 -0.16138083461E+00  0.24708966000E+01  0.24798983638E+01  0.00000000000E+00 0.  1.
</event>
<event>
 5    1  0.4838219E+001  0.1563370E+01  0.7818608E-02  0.3394105E+00
         11   -1    0    0    0    0  0.00000000000E+00  0.00000000000E+00  0.39999999674E+01  0.40000000000E+01  0.51100000000E-03 0. -1.
    9000002   -1    0    0    0    0 -0.00000000000E+00 -0.00000000000E+00  0.00000000000E+00  0.93800000000E+00  0.93800000000E+00 0.  1.
         11    1    1    2    0    0  0.98739942914E-01  0.17586915392E+00  0.10453437330E+01  0.10646235564E+01  0.51100000000E-03 0. -1.
    9000002    1    1    2    0    0 -0.18637475058E+00  0.78035898075E-01  0.54769901449E-01  0.96107694341E+00  0.93800000000E+00 0.  1.
         22    1    1    2    0    0  0.87634807665E-01 -0.25390505200E+00  0.28998863329E+01  0.29122995002E+01  0.00000000000E+00 0. -1.
</event>
<event>
 5    1  0.4838219E+001  0.1520392E+01  0.7818608E-02  0.3444574E+00
         11   -1    0    0    0    0  0.00000000000E+00  0.00000000000E+00  0.39999999674E+01  0.40000000000E+01  0.51100000000E-03 0. -1.
    9000002   -1    0    0    0    0 -0.00000000000E+00 -0.00000000000E+00  0.00000000000E+00  0.93800000000E+00  0.93800000000E+00 0.  1.
         11    1    1    2    0    0 -0.29869317453E+00 -0.32223994170E+00  0.18261414939E+01  0.18782569604E+01  0.51100000000E-03 0. -1.
    9000002    1    1    2    0    0  0.18170613284E+00  0.12692174869E+00  0.95052502465E-01  0.96850669963E+00  0.93800000000E+00 0.  1.
         22    1    1    2    0    0  0.11698704170E+00  0.19531819301E+00  0.20788059710E+01  0.20912363400E+01  0.00000000000E+00 0.  1.
</event>
<event>
 5    1  0.4838219E+001  0.1542517E+01  0.7818608E-02  0.3418218E+00
         11   -1    0    0    0    0  0.00000000000E+00  0.00000000000E+00  0.39999999674E+01  0.40000000000E+01  0.51100000000E-03 0. -1.
    9000002   -1    0    0    0    0 -0.00000000000E+00 -0.00000000000E+00  0.00000000000E+00  0.93800000000E+00  0.93800000000E+00 0.  1.
         11    1    1    2    0    0  0.12120239779E+00 -0.21671789905E+00  0.84331490394E+00  0.87911145899E+00  0.51100000000E-03 0. -1.
    9000002    1    1    2    0    0  0.74741441233E-01  0.10781377415E+00  0.54587129673E-01  0.94870113717E+00  0.93800000000E+00 0.  1.
         22    1    1    2    0    0 -0.19594383902E+00  0.10890412491E+00  0.31020979338E+01  0.31101874038E+01  0.00000000000E+00 0. -1.
</event>
<event>
 5    1  0.4838219E+001  0.1584545E+01  0.7818608E-02  0.3370311E+00
         11   -1    0    0    0    0  0.00000000000E+00  0.00000000000E+00  0.39999999674E+01  0.40000000000E+01  0.51100000000E-03 0.  1.
    9000002   -1    0    0    0    0 -0.00000000000E+00 -0.00000000000E+00  0.00000000000E+00  0.93800000000E+00  0.93800000000E+00 0. -1.
         11    1    1    2    0    0  0.86867916194E-01  0.63309643994E-01  0.12002466527E+01  0.12050503866E+01  0.51100000000E-03 0.  1.
    9000002    1    1    2    0    0  0.10288418370E+00  0.13945297321E-01  0.18243609346E-01  0.94390489768E+00  0.93800000000E+00 0. -1.
         22    1    1    2    0    0 -0.18975209989E+00 -0.77254941315E-01  0.27815097054E+01  0.27890447157E+01  0.00000000000E+00 0.  1.
</event>
<event>
 5    1  0.4838219E+001  0.1571240E+01  0.7818608E-02  0.3385183E+00
         11   -1    0    0    0    0  0.00000000000E+00  0.00000000000E+00  0.39999999674E+01  0.40000000000E+01  0.51100000000E-03 0.  1.
    9000002   -1    0    0    0    0 -0.00000000000E+00 -0.00000000000E+00  0.00000000000E+00  0.93800000000E+00  0.93800000000E+00 0.  1.
         11    1    1    2    0    0 -0.90787948773E-01 -0.11258586518E+00  0.68466958821E+00  0.69977906144E+00  0.51100000000E-03 0.  1.
    9000002    1    1    2    0    0  0.40357460669E-01 -0.94159187739E-01  0.27982708000E-01  0.94399243070E+00  0.93800000000E+00 0.  1.
         22    1    1    2    0    0  0.50430488104E-01  0.20674505292E+00  0.32873476711E+01  0.32942285079E+01  0.00000000000E+00 0.  1.
</event>
<event>
 5    1  0.4838219E+001  0.1570953E+01  0.7818608E-02  0.3385506E+00
         11   -1    0    0    0    0  0.00000000000E+00  0.00000000000E+00  0.39999999674E+01  0.40000000000E+01  0.51100000000E-03 0. -1.
    9000002   -1    0    0    0    0 -0.00000000000E+00 -0.00000000000E+00  0.00000000000E+00  0.93800000000E+00  0.93800000000E+00 0. -1.
         11    1    1    2    0    0 -0.32594238110E+00 -0.89968303844E-04  0.25968701179E+01  0.26172453294E+01  0.51100000000E-03 0. -1.
    9000002    1    1    2    0    0  0.28606029415E+00  0.20516474352E+00  0.10664103810E+00  0.10075412522E+01  0.93800000000E+00 0. -1.
         22    1    1    2    0    0  0.39882086945E-01 -0.20507477522E+00  0.12964888114E+01  0.13132134184E+01  0.00000000000E+00 0. -1.
</event>
<event>
 5    1  0.4838219E+001  0.1576893E+01  0.7818608E-02  0.3378831E+00
         11   -1    0    0    0    0  0.00000000000E+00  0.00000000000E+00  0.39999999674E+01  0.40000000000E+01  0.51100000000E-03 0. -1.
    9000002   -1    0    0    0    0 -0.00000000000E+00 -0.00000000000E+00  0.00000000000E+00  0.93800000000E+00  0.93800000000E+00 0.  1.
         11    1    1    2    0    0 -0.10000747107E+00  0.14587867359E+00  0.19846754219E+01  0.19925408084E+01  0.51100000000E-03 0. -1.
    9000002    1    1    2    0    0 -0.10049183491E+00 -0.87654128160E-01  0.28670857720E-01  0.94786490237E+00  0.93800000000E+00 0.  1.
         22    1    1    2    0    0  0.20049930598E+00 -0.58224545433E-01  0.19866536877E+01  0.19975942892E+01  0.00000000000E+00 0. -1.
</event>
<event>
 5    1  0.4838219E+001  0.1566894E+01  0.7818608E-02  0.3390098E+00
         11   -1    0    0    0    0  0.00000000000E+00  0.00000000000E+00  0.39999999674E+01  0.40000000000E+01  0.51100000000E-03 0. -1.
    9000002   -1    0    0    0    0 -0.00000000000E+00 -0.00000000000E+00  0.00000000000E+00  0.93800000000E+00  0.93800000000E+00 0. -1.
         11    1    1    2    0    0 -0.22580381736E+00  0.39185870135E-01  0.19008349896E+01  0.19146009545E+01  0.51100000000E-03 0. -1.
    9000002    1    1    2    0    0  0.17859309819E-01 -0.11015261443E+00  0.32590122068E-01  0.94517652820E+00  0.93800000000E+00 0. -1.
         22    1    1    2    0    0  0.20794450754E+00  0.70966744291E-01  0.20665748557E+01  0.20782225173E+01  0.00000000000E+00 0. -1.
</event>
<event>
 5    1  0.4838219E+001  0.1453001E+01  0.7818608E-02  0.3530191E+00
         11   -1    0    0    0    0  0.00000000000E+00  0.00000000000E+00  0.39999999674E+01  0.40000000000E+01  0.51100000000E-03 0. -1.
    9000002   -1    0    0    0    0 -0.00000000000E+00 -0.00000000000E+00  0.00000000000E+00  0.93800000000E+00  0.93800000000E+00 0. -1.
         11    1    1    2    0    0  0.38092362086E-01 -0.26512232087E+00  0.21999111666E+00  0.34660817302E+00  0.51100000000E-03 0. -1.
    9000002    1    1    2    0    0  0.21722007945E+00  0.29253244931E+00  0.23016016139E+00  0.10322681322E+01  0.93800000000E+00 0. -1.
         22    1    1    2    0    0 -0.25531244154E+00 -0.27410128442E-01  0.35498486893E+01  0.35591236948E+01  0.00000000000E+00 0. -1.
</event>
<event>
 5    1  0.4838219E+001  0.1480580E+01  0.7818608E-02  0.3494134E+00
         11   -1    0    0    0    0  0.00000000000E+00  0.00000000000E+00  0.39999999674E+01  0.40000000000E+01  0.51100000000E-03 0.  1.
    9000002   -1    0    0    0    0 -0.00000000000E+00 -0.00000000000E+00  0.00000000000E+00  0.93800000000E+00  0.93800000000E+00 0. -1.
         11    1    1    2    0    0 -0.41448473027E+00  0.65640429774E-01  0.27374225961E+01  0.27694022800E+01  0.51100000000E-03 0.  1.
    9000002    1    1    2    0    0  0.48891753106E-01 -0.12578684275E+00  0.10534010245E+00  0.95349529129E+00  0.93800000000E+00 0. -1.
         22    1    1    2    0    0  0.36559297716E+00  0.60146412979E-01  0.11572372688E+01  0.12151024287E+01  0.00000000000E+00 0. -1.
</event>
<event>
 5    1  0.4838219E+001  0.1579796E+01  0.7818608E-02  0.3375589E+00
         11   -1    0    0    0    0  0.00000000000E+00  0.00000000000E+00  0.39999999674E+01  0.40000000000E+01  0.51100000000E-03 0.  1.
    9000002   -1    0    0    0    0 -0.00000000000E+00 -0.00000000000E+00  0.00000000000E+00  0.93800000000E+00  0.93800000000E+00 0. -1.
         11    1    1    2    0    0 -0.27052843573E+00 -0.19506956519E+00  0.88027355917E+00  0.94133924272E+00  0.51100000000E-03 0.  1.
    9000002    1    1    2    0    0  0.57166039103E+00  0.47746113750E+00  0.42564657592E+00  0.12711348269E+01  0.93800000000E+00 0. -1.
         22    1    1    2    0    0 -0.30113195530E+00 -0.28239157231E+00  0.26940798323E+01  0.27255259304E+01  0.00000000000E+00 0.  1.
</event>
<event>
 5    1  0.4838219E+001  0.1436684E+01  0.7818608E-02  0.3552235E+00
         11   -1    0    0    0    0  0.00000000000E+00  0.00000000000E+00  0.39999999674E+01  0.40000000000E+01  0.51100000000E-03 0.  1.
    9000002   -1    0    0    0    0 -0.00000000000E+00 -0.00000000000E+00  0.00000000000E+00  0.93800000000E+00  0.93800000000E+00 0. -1.
         11    1    1    2    0    0 -0.50330513498E+00 -0.17892874353E+00  0.16810442284E+01  0.17638711724E+01  0.51100000000E-03 0.  1.
    9000002    1    1    2    0    0  0.99753818187E-01  0.74384505511E-01  0.14103531870E+00  0.95667070616E+00  0.93800000000E+00 0. -1.
         22    1    1    2    0    0  0.40355131679E+00  0.10454423802E+00  0.21779204203E+01  0.22174581214E+01  0.00000000000E+00 0.  1.
</event>
<event>
 5    1  0.4838219E+001  0.1559252E+01  0.7818608E-02  0.3398813E+00
         11   -1    0    0    0    0  0.00000000000E+00  0.00000000000E+00  0.39999999674E+01  0.40000000000E+01  0.51100000000E-03 0.  1.
    9000002   -1    0    0    0    0 -0.00000000000E+00 -0.00000000000E+00  0.00000000000E+00  0.93800000000E+00  0.93800000000E+00 0.  1.
         11    1    1    2    0    0  0.30892039966E-01 -0.19032643729E+00  0.11461343352E+01  0.11622403565E+01  0.51100000000E-03 0.  1.
    9000002    1    1    2    0    0  0.24307288520E-01 -0.89387630769E-01  0.35731405536E-01  0.94324001513E+00  0.93800000000E+00 0.  1.
         22    1    1    2    0    0 -0.55199328486E-01  0.27971406805E+00  0.28181342266E+01  0.28325196283E+01  0.00000000000E+00 0.  1.
</event>
<event>
 5    1  0.4838219E+001  0.1457860E+01  0.7818608E-02  0.3523731E+00
         11   -1    0    0    0    0  0.00000000000E+00  0.00000000000E+00  0.39999999674E+01  0.40000000000E+01  0.51100000000E-03 0.  1.
    9000002   -1    0    0    0    0 -0.00000000000E+00 -0.00000000000E+00  0.00000000000E+00  0.93800000000E+00  0.93800000000E+00 0.  1.
         11    1    1    2    0    0 -0.43007538023E+00 -0.41784298484E-02  0.10829945704E+01  0.11652724113E+01  0.51100000000E-03 0.  1.
    9000002    1    1    2    0    0  0.72774022857E-01  0.21772527582E-01  0.11510667100E+00  0.94808419830E+00  0.93800000000E+00 0.  1.
         22    1    1    2    0    0  0.35730135737E+00 -0.17594097733E-01  0.28018987260E+01  0.28246433904E+01  0.00000000000E+00 0.  1.
</event>
<event>
 5    1  0.4838219E+001  0.1558544E+01  0.7818608E-02  0.3399625E+00
         11   -1    0    0    0    0  0.00000000000E+00  0.00000000000E+00  0.39999999674E+01  0.40000000000E+01  0.51100000000E-03 0. -1.
    9000002   -1    0    0    0    0 -0.00000000000E+00 -0.00000000000E+00  0.00000000000E+00  0.93800000000E+00  0.93800000000E+00 0.  1.
         11    1    1    2    0    0  0.78266495702E-01 -0.35868041169E+00  0.18158877388E+01  0.18526267361E+01  0.51100000000E-03 0. -1.
    9000002    1    1    2    0    0  0.19528329785E+00  0.38963432178E+00  0.16476851716E+00  0.10473505313E+01  0.93800000000E+00 0.  1.
         22    1    1    2    0    0 -0.27354979355E+00 -0.30953910092E-01  0.20193437114E+01  0.20380227327E+01  0.00000000000E+00 0. -1.
</event>
<event>
 5    1  0.4838219E+001  0.1439513E+01  0.7818608E-02  0.3548374E+00
         11   -1    0    0    0    0  0.00000000000E+00  0.00000000000E+00  0.39999999674E+01  0.40000000000E+01  0.51100000000E-03 0.  1.
    9000002   -1    0    0    0    0 -0.00000000000E+00 -0.00000000000E+00  0.00000000000E+00  0.93800000000E+00  0.93800000000E+00 0.  1.
         11    1    1    2    0    0 -0.13283780451E+00 -0.62660006111E+00  0.19576223914E+01  0.20597473650E+01  0.51100000000E-03 0.  1.
    9000002    1    1    2    0    0  0.18089061102E+00  0.28195029716E+00  0.21620158728E+00  0.10192175968E+01  0.93800000000E+00 0.  1.
         22    1    1    2    0    0 -0.48052806512E-01  0.34464976395E+00  0.18261759886E+01  0.18590350383E+01  0.00000000000E+00 0.  1.
</event>
<event>
 5    1  0.5200411E+001  0.1555168E+01  0.7818608E-02  0.3403508E+00
         11   -1    0    0    0    0  0.00000000000E+00  0.00000000000E+00  0.39999999674E+01  0.40000000000E+01  0.51100000000E-03 0. -1.
    9000002   -1    0    0    0    0 -0.00000000000E+00 -0.00000000000E+00  0.00000000000E+00  0.93800000000E+00  0.93800000000E+00 0.  1.
         11    1    1    2    0    0  0.17793684151E+00  0.21302987908E-01  0.61834336050E+00  0.64378887025E+00  0.51100000000E-03 0. -1.
    9000002    1    1    2    0    0  0.39773241272E-01 -0.38292154687E-02  0.34030009062E-01  0.93946719747E+00  0.93800000000E+00 0.  1.
         22    1    1    2    0    0 -0.21771008278E+00 -0.17473772439E-01  0.33476265978E+01  0.33547439323E+01  0.00000000000E+00 0. -1.
</event>
<event>
 5    1  0.4838219E+001  0.1526990E+01  0.7818608E-02  0.3436629E+00
         11   -1    0    0    0    0  0.00000000000E+00  0.00000000000E+00  0.39999999674E+01  0.40000000000E+01  0.51100000000E-03 0. -1.
    9000002   -1    0    0    0    0 -0.00000000000E+00 -0.00000000000E+00  0.00000000000E+00  0.93800000000E+00  0.93800000000E+00 0. -1.
         11    1    1    2    0    0 -0.80300849499E-01 -0.24415915688E+00  0.75768759819E+00  0.80009541800E+00  0.51100000000E-03 0. -1.
    9000002    1    1    2    0    0  0.20319316666E+00 -0.55697319954E-01  0.86231632553E-01  0.96523030872E+00  0.93800000000E+00 0. -1.
         22    1    1    2    0    0 -0.12289231716E+00  0.29985647684E+00  0.31560807366E+01  0.31726742733E+01  0.00000000000E+00 0. -1.
</event>
<event>
 5    1  0.4838219E+001  0.1564113E+01  0.7818608E-02  0.3393259E+00
         11   -1    0    0    0    0  0.00000000000E+00  0.00000000000E+00  0.39999999674E+01  0.40000000000E+01  0.51100000000E-03 0. -1.
    9000002   -1    0    0    0    0 -0.00000000000E+00 -0.00000000000E+00  0.00000000000E+00  0.93800000000E+00  0.93800000000E+00 0.  1.
         11    1    1    2    0    0 -0.55931598810E-01 -0.78237908679E-01  0.13416634123E+00  0.16507689827E+00  0.51100000000E-03 0. -1.
    9000002    1    1    2    0    0 -0.25725832975E-01  0.32711328731E+00  0.10084983834E+00  0.99883913175E+00  0.93800000000E+00 0.  1.
         22    1    1    2    0    0  0.81657431785E-01 -0.24887537863E+00  0.37649837878E+01  0.37740839700E+01  0.00000000000E+00 0. -1.
</event>
<event>
 5    1  0.4838219E+001  0.1556641E+01  0.7818608E-02  0.3401811E+00
         11   -1    0    0    0    0  0.00000000000E+00  0.00000000000E+00  0.39999999674E+01  0.40000000000E+01  0.51100000000E-03 0.  1.
    9000002   -1    0    0    0    0 -0.00000000000E+00 -0.00000000000E+00  0.00000000000E+00  0.93800000000E+00  0.93800000000E+00 0.  1.
         11    1    1    2    0    0  0.32272942440E+00 -0.38429818066E-01  0.22710527870E+01  0.22941909587E+01  0.51100000000E-03 0.  1.
    9000002    1    1    2    0    0 -0.20545924629E+00 -0.17310522803E+00  0.81955359982E-01  0.97915249215E+00  0.93800000000E+00 0.  1.
         22    1    1    2    0    0 -0.11727017811E+00  0.21153504609E+00  0.16469918204E+01  0.16646565492E+01  0.00000000000E+00 0.  1.
</event>
<event>
 5    1  0.4838219E+001  0.1556879E+01  0.7818608E-02  0.3401538E+00
         11   -1    0    0    0    0  0.00000000000E+00  0.00000000000E+00  0.39999999674E+01  0.40000000000E+01  0.51100000000E-03 0. -1.
    9000002   -1    0    0    0    0 -0.00000000000E+00 -0.00000000000E+00  0.00000000000E+00  0.93800000000E+00  0.93800000000E+00 0. -1.
         11    1    1    2    0    0  0.18398018527E+00 -0.83948962778E-01  0.11034645920E+01  0.11218424595E+01  0.51100000000E-03 0. -1.
    9000002    1    1    2    0    0  0.97906135775E-01  0.40762487861E-01  0.39371286465E-01  0.94479695704E+00  0.93800000000E+00 0. -1.
         22    1    1    2    0    0 -0.28188632104E+00  0.43186474918E-01  0.28571640889E+01  0.28713605835E+01  0.00000000000E+00 0. -1.
</event>
<event>
 5    1  0.4838219E+001  0.1493900E+01  0.7818608E-02  0.3477235E+00
         11   -1    0    0    0    0  0.00000000000E+00  0.00000000000E+00  0.39999999674E+01  0.40000000000E+01  0.51100000000E-03 0.  1.
    9000002   -1    0    0    0    0 -0.00000000000E+00 -0.00000000000E+00  0.00000000000E+00  0.93800000000E+00  0.93800000000E+00 0. -1.
         11    1    1    2    0    0  0.14548628225E-01 -0.34161550914E+00  0.45464222343E+00  0.56886960818E+00  0.51100000000E-03 0.  1.
    9000002    1    1    2    0    0 -0.89758121948E-01  0.53481651579E+00  0.30974963609E+00  0.11268868901E+01  0.93800000000E+00 0. -1.
         22    1    1    2    0    0  0.75209493723E-01 -0.19320100666E+00  0.32356081078E+01  0.32422435017E+01  0.00000000000E+00 0.  1.
</event>
<event>
 5    1  0.4838219E+001  0.1566772E+01  0.7818608E-02  0.3390237E+00
         11   -1    0    0    0    0  0.00000000000E+00  0.00000000000E+00  0.39999999674E+01  0.40000000000E+01  0.51100000000E-03 0. -1.
    9000002   -1    0    0    0    0 -0.00000000000E+00 -0.00000000000E+00  0.00000000000E+00  0.93800000000E+00  0.93800000000E+00 0.  1.
         11    1    1    2    0    0 -0.12671699525E+00  0.16369472022E+00  0.22833115113E+01  0.22926763568E+01  0.51100000000E-03 0. -1.
    9000002    1    1    2    0    0 -0.41511625516E-01 -0.15661640270E-01  0.25542597720E-01  0.93939604338E+00  0.93800000000E+00 0.  1.
         22    1    1    2    0    0  0.16822862077E+00 -0.14803307995E+00  0.16911458584E+01  0.17059275998E+01  0.00000000000E+00 0.  1.
</event>
<event>
 5    1  0.4838219E+001  0.1552375E+01  0.7818608E-02  0.3406734E+00
         11   -1    0    0    0    0  0.00000000000E+00  0.00000000000E+00  0.39999999674E+01  0.40000000000E+01  0.51100000000E-03 0. -1.
    9000002   -1    0    0    0    0 -0.00000000000E+00 -0.00000000000E+00  0.00000000000E+00  0.93800000000E+00  0.93800000000E+00 0. -1.
         11    1    1    2    0    0 -0.20679170768E+00  0.20714931689E+00  0.20653228713E+01  0.20859608035E+01  0.51100000000E-03 0. -1.
    9000002    1    1    2    0    0  0.29442835630E-01 -0.55765319824E-01  0.37792153392E-01  0.94087666478E+00  0.93800000000E+00 0. -1.
         22    1    1    2    0    0  0.17734887205E+00 -0.15138399707E+00  0.18968849426E+01  0.19111625317E+01  0.00000000000E+00 0. -1.
</event>
<event>
 5    1  0.4838219E+001  0.1464174E+01  0.7818608E-02  0.3515406E+00
         11   -1    0    0    0    0  0.00000000000E+00  0.00000000000E+00  0.39999999674E+01  0.40000000000E+01  0.51100000000E-03 0. -1.
    9000002   -1    0    0    0    0 -0.00000000000E+00 -0.00000000000E+00  0.00000000000E+00  0.93800000000E+00  0.93800000000E+00 0. -1.
         11    1    1    2    0    0  0.34894695906E+00 -0.47065027881E+00  0.14143621367E+01  0.15309135116E+01  0.51100000000E-03 0. -1.
    9000002    1    1    2    0    0 -0.49037399800E-01  0.48964019517E+00  0.29878920569E+00  0.11005776559E+01  0.93800000000E+00 0. -1.
         22    1    1    2    0    0 -0.29990955926E+00 -0.18989916365E-01  0.22868486249E+01  0.23065088324E+01  0.00000000000E+00 0. -1.
</event>
<event>
 5    1  0.4838219E+001  0.1561439E+01  0.7818608E-02  0.3396309E+00
         11   -1    0    0    0    0  0.00000000000E+00  0.00000000000E+00  0.39999999674E+01  0.40000000000E+01  0.51100000000E-03 0.  1.
    9000002   -1    0    0    0    0 -0.00000000000E+00 -0.00000000000E+00  0.00000000000E+00  0.93800000000E+00  0.93800000000E+00 0.  1.
         11    1    1    2    0    0  0.16412942775E+00  0.88670629851E-01  0.92756917149E+00  0.94614257840E+00  0.51100000000E-03 0.  1.
    9000002    1    1    2    0    0  0.27555993957E-01  0.63338198338E-01  0.31464030583E-01  0.94106590916E+00  0.93800000000E+00 0.  1.
         22    1    1    2    0    0 -0.19168542170E+00 -0.15200882819E+00  0.30409667653E+01  0.30507915124E+01  0.00000000000E+00 0.  1.
</event>
<event>
 5    1  0.4838219E+001  0.1574470E+01  0.7818608E-02  0.3381547E+00
         11   -1    0    0    0    0  0.00000000000E+00  0.00000000000E+00  0.39999999674E+01  0.40000000000E+01  0.51100000000E-03 0. -1.
    9000002   -1    0    0    0    0 -0.00000000000E+00 -0.00000000000E+00  0.00000000000E+00  0.93800000000E+00  0.93800000000E+00 0. -1.
         11    1    1    2    0    0  0.12671461044E+00 -0.11621159680E+00  0.97349333632E+00  0.98856019782E+00  0.51100000000E-03 0. -1.
    9000002    1    1    2    0    0  0.91392843271E-01  0.18716736199E+00  0.47926647094E-01  0.96204222189E+00  0.93800000000E+00 0. -1.
         22    1    1    2    0    0 -0.21810745371E+00 -0.70955765184E-01  0.29785799839E+01  0.29873975803E+01  0.00000000000E+00 0. -1.
</event>
<event>
 5    1  0.4838219E+001  0.1430215E+01  0.7818608E-02  0.3561126E+00
         11   -1    0    0    0    0  0.00000000000E+00  0.00000000000E+00  0.39999999674E+01  0.40000000000E+01  0.51100000000E-03 0. -1.
    9000002   -1    0    0    0    0 -0.00000000000E+00 -0.00000000000E+00  0.00000000000E+00  0.93800000000E+00  0.93800000000E+00 0. -1.
         11    1    1    2    0    0 -0.40244046356E+00  0.72260147488E+00  0.32007423507E+01  0.33058831007E+01  0.51100000000E-03 0. -1.
    9000002    1    1    2    0    0  0.40066845547E+00 -0.47366173994E+00  0.46885236033E+00  0.12184240604E+01  0.93800000000E+00 0. -1.
         22    1    1    2    0    0  0.17720080925E-02 -0.24893973494E+00  0.33040525628E+00  0.41369283898E+00  0.00000000000E+00 0. -1.
</event>
<event>
 5    1  0.4838219E+001  0.1542285E+01  0.7818608E-02  0.3418490E+00
         11   -1    0    0    0    0  0.00000000000E+00  0.00000000000E+00  0.39999999674E+01  0.40000000000E+01  0.51100000000E-03 0. -1.
    9000002   -1    0    0    0    0 -0.00000000000E+00 -0.00000000000E+00  0.00000000000E+00  0.93800000000E+00  0.93800000000E+00 0. -1.
         11    1    1    2    0    0 -0.18925141527E+00 -0.30485247563E-01  0.27889241889E+01  0.27955042195E+01  0.51100000000E-03 0. -1.
    9000002    1    1    2    0    0 -0.10516209598E+00  0.30159350372E-01  0.51099301506E-01  0.94573981171E+00  0.93800000000E+00 0. -1.
         22    1    1    2    0    0  0.29441351126E+00  0.32589719117E-03  0.11599764770E+01  0.11967559688E+01  0.00000000000E+00 0. -1.
</event>
<event>
 5    1  0.4838219E+001  0.1483571E+01  0.7818608E-02  0.3490311E+00
         11   -1    0    0    0    0  0.00000000000E+00  0.00000000000E+00  0.39999999674E+01  0.40000000000E+01  0.51100000000E-03 0. -1.
    9000002   -1    0    0    0    0 -0.00000000000E+00 -0.00000000000E+00  0.00000000000E+00  0.93800000000E+00  0.93800000000E+00 0. -1.
         11    1    1    2    0    0  0.12446769516E+00  0.31280429861E+00  0.33491119490E+01  0.33659901730E+01  0.51100000000E-03 0. -1.
    9000002    1    1    2    0    0 -0.16154985238E+00 -0.26880259580E-01  0.10927874868E+00  0.95843974671E+00  0.93800000000E+00 0. -1.
         22    1    1    2    0    0  0.37082157222E-01 -0.28592403903E+00  0.54160926964E+00  0.61357008030E+00  0.00000000000E+00 0. -1.
</event>
<event>
 5    1  0.4838219E+001  0.1567586E+01  0.7818608E-02  0.3389313E+00
         11   -1    0    0    0    0  0.00000000000E+00  0.00000000000E+00  0.39999999674E+01  0.40000000000E+01  0.51100000000E-03 0. -1.
    9000002   -1    0    0    0    0 -0.00000000000E+00 -0.00000000000E+00  0.00000000000E+00  0.93800000000E+00  0.93800000000E+00 0. -1.
         11    1    1    2    0    0 -0.17127254929E+00 -0.29554189514E-01  0.24063841593E+01  0.24126526313E+01  0.51100000000E-03 0. -1.
    9000002    1    1    2    0    0 -0.29088139792E-01 -0.10547352292E+00  0.31738662486E-01  0.94489265349E+00  0.93800000000E+00 0. -1.
         22    1    1    2    0    0  0.20036068908E+00  0.13502771244E+00  0.15618771456E+01  0.15804547152E+01  0.00000000000E+00 0. -1.
</event>
<event>
 5    1  0.4838219E+001  0.1620255E+01  0.7818608E-02  0.3331668E+00
         11   -1    0    0    0    0  0.00000000000E+00  0.00000000000E+00  0.39999999674E+01  0.40000000000E+01  0.51100000000E-03 0. -1.
    9000002   -1    0    0    0    0 -0.00000000000E+00 -0.00000000000E+00  0.00000000000E+00  0.93800000000E+00  0.93800000000E+00 0. -1.
         11    1    1    2    0    0 -0.21956698503E-01 -0.47553647360E+00  0.41776892264E+00  0.63336258824E+00  0.51100000000E-03 0. -1.
    9000002    1    1    2    0    0  0.24774472469E+00  0.97207868785E-02  0.35030505679E+00  0.10315180925E+01  0.93800000000E+00 0. -1.
         22    1    1    2    0    0 -0.22578802619E+00  0.46581568672E+00  0.32319259879E+01  0.32731193193E+01  0.00000000000E+00 0. -1.
</event>
<event>
 5    1  0.4838219E+001  0.1545116E+01  0.7818608E-02  0.3415175E+00
         11   -1    0    0    0    0  0.00000000000E+00  0.00000000000E+00  0.39999999674E+01  0.40000000000E+01  0.51100000000E-03 0. -1.
    9000002   -1    0    0    0    0 -0.00000000000E+00 -0.00000000000E+00  0.00000000000E+00  0.93800000000E+00  0.93800000000E+00 0.  1.
         11    1    1    2    0    0 -0.11321324706E+00 -0.12740364408E+00  0.32419871318E+01  0.32464641923E+01  0.51100000000E-03 0. -1.
    9000002    1    1    2    0    0 -0.50243406631E-01 -0.32594671178E-01  0.43070821457E-01  0.94089633231E+00  0.93800000000E+00 0.  1.
         22    1    1    2    0    0  0.16345665369E+00  0.15999831526E+00  0.71494201409E+00  0.75063947540E+00  0.00000000000E+00 0. -1.
</event>
<event>
 5    1  0.4838219E+001  0.1490486E+01  0.7818608E-02  0.3481536E+00
         11   -1    0    0    0    0  0.00000000000E+00  0.00000000000E+00  0.39999999674E+01  0.40000000000E+01  0.51100000000E-03 0.  1.
    9000002   -1    0    0    0    0 -0.00000000000E+00 -0.00000000000E+00  0.00000000000E+00  0.93800000000E+00  0.93800000000E+00 0.  1.
         11    1    1    2    0    0  0.10748134712E+00  0.13493120777E+00  0.16072403442E+00  0.23577774953E+00  0.51100000000E-03 0.  1.
    9000002    1    1    2    0    0  0.83191563620E-01 -0.39788099503E-01  0.89904536636E-01  0.94680027188E+00  0.93800000000E+00 0.  1.
         22    1    1    2    0    0 -0.19067291074E+00 -0.95143108268E-01  0.37493713963E+01  0.37554219786E+01  0.00000000000E+00 0.  1.
</event>
<event>
 5    1  0.4838219E+001  0.1559984E+01  0.7818608E-02  0.3397975E+00
         11   -1    0    0    0    0  0.00000000000E+00  0.00000000000E+00  0.39999999674E+01  0.40000000000E+01  0.51100000000E-03 0.  1.
    9000002   -1    0    0    0    0 -0.00000000000E+00 -0.00000000000E+00  0.00000000000E+00  0.93800000000E+00  0.93800000000E+00 0.  1.
         11    1    1    2    0    0  0.23347980286E+00  0.14780656698E+00  0.22848197072E+01  0.23014693035E+01  0.51100000000E-03 0.  1.
    9000002    1    1    2    0    0 -0.11035780232E+00  0.30049859657E-01  0.38265803057E-01  0.94572200476E+00  0.93800000000E+00 0.  1.
         22    1    1    2    0    0 -0.12312200054E+00 -0.17785642663E+00  0.16769144571E+01  0.16908086917E+01  0.00000000000E+00 0.  1.
</event>
<event>
 5    1  0.4838219E+001  0.1571060E+01  0.7818608E-02  0.3385386E+00
         11   -1    0    0    0    0  0.00000000000E+00  0.00000000000E+00  0.39999999674E+01  0.40000000000E+01  0.51100000000E-03 0. -1.
    9000002   -1    0    0    0    0 -0.00000000000E+00 -0.00000000000E+00  0.00000000000E+00  0.93800000000E+00  0.93800000000E+00 0.  1.
         11    1    1    2    0    0  0.11516513265E+00  0.20464908329E+00  0.20280039481E+01  0.20415544396E+01  0.51100000000E-03 0. -1.
    9000002    1    1    2    0    0  0.11707190009E+00 -0.19735034230E+00  0.56929897052E-01  0.96733551603E+00  0.93800000000E+00 0.  1.
         22    1    1    2    0    0 -0.23223703274E+00 -0.72987409938E-02  0.19150661222E+01  0.19291100444E+01  0.00000000000E+00 0. -1.
</event>
<event>
 5    1  0.5400528E+001  0.1568843E+01  0.7818608E-02  0.3387890E+00
         11   -1    0    0    0    0  0.00000000000E+00  0.00000000000E+00  0.39999999674E+01  0.40000000000E+01  0.51100000000E-03 0. -1.
    9000002   -1    0    0    0    0 -0.00000000000E+00 -0.00000000000E+00  0.00000000000E+00  0.93800000000E+00  0.93800000000E+00 0. -1.
         11    1    1    2    0    0 -0.61266636427E-01  0.13644543599E+00  0.28538034086E+01  0.28577202652E+01  0.51100000000E-03 0. -1.
    9000002    1    1    2    0    0  0.87739167893E-02  0.64070184179E-01  0.25495274941E-01  0.94057215521E+00  0.93800000000E+00 0. -1.
         22    1    1    2    0    0  0.52492719637E-01 -0.20051562017E+00  0.11207012838E+01  0.11397075796E+01  0.00000000000E+00 0. -1.
</event>
<event>
 5    1  0.4838219E+001  0.1589715E+01  0.7818608E-02  0.3364603E+00
         11   -1    0    0    0    0  0.00000000000E+00  0.00000000000E+00  0.39999999674E+01  0.40000000000E+01  0.51100000000E-03 0. -1.
    9000002   -1    0    0    0    0 -0.00000000000E+00 -0.00000000000E+00  0.00000000000E+00  0.93800000000E+00  0.93800000000E+00 0. -1.
         11    1    1    2    0    0  0.12599700468E+00  0.27073842371E-01  0.10428781456E+01  0.10508107945E+01  0.51100000000E-03 0. -1.
    9000002    1    1    2    0    0 -0.21615784961E+00  0.20270198652E+00  0.66384247551E-01  0.98593264456E+00  0.93800000000E+00 0. -1.
         22    1    1    2    0    0  0.90160844933E-01 -0.22977582889E+00  0.28907375742E+01  0.29012565609E+01  0.00000000000E+00 0. -1.
</event>
<event>
 5    1  0.4838219E+001  0.1595286E+01  0.7818608E-02  0.3358496E+00
         11   -1    0    0    0    0  0.00000000000E+00  0.00000000000E+00  0.39999999674E+01  0.40000000000E+01  0.51100000000E-03 0. -1.
    9000002   -1    0    0    0    0 -0.00000000000E+00 -0.00000000000E+00  0.00000000000E+00  0.93800000000E+00  0.93800000000E+00 0. -1.
         11    1    1    2    0    0  0.84626834565E-01  0.36566618963E-01  0.52707606933E+00  0.53507780998E+00  0.51100000000E-03 0. -1.
    9000002    1    1    2    0    0 -0.28452486211E+00 -0.59866599067E-01  0.59777218976E-01  0.98384740827E+00  0.93800000000E+00 0. -1.
         22    1    1    2    0    0  0.19989802755E+00  0.23299980104E-01  0.34131466791E+01  0.34190747818E+01  0.00000000000E+00 0. -1.
</event>
<event>
 5    1  0.4838219E+001  0.1568899E+01  0.7818608E-02  0.3387827E+00
         11   -1    0    0    0    0  0.00000000000E+00  0.00000000000E+00  0.39999999674E+01  0.40000000000E+01  0.51100000000E-03 0. -1.
    9000002   -1    0    0    0    0 -0.00000000000E+00 -0.00000000000E+00  0.00000000000E+00  0.93800000000E+00  0.93800000000E+00 0. -1.
         11    1    1    2    0    0 -0.15147177562E+00  0.56087686161E-01  0.29134617255E+01  0.29179357455E+01  0.51100000000E-03 0. -1.
    9000002    1    1    2    0    0 -0.45650196287E-01 -0.11299665217E+00  0.32710209121E-01  0.94644922822E+00  0.93800000000E+00 0. -1.
         22    1    1    2    0    0  0.19712197191E+00  0.56908966012E-01  0.10538280327E+01  0.10736150263E+01  0.00000000000E+00 0. -1.
</event>
<event>
 5    1  0.4838219E+001  0.1577981E+01  0.7818608E-02  0.3377614E+00
         11   -1    0    0    0    0  0.00000000000E+00  0.00000000000E+00  0.39999999674E+01  0.40000000000E+01  0.51100000000E-03 0.  1.
    9000002   -1    0    0    0    0 -0.00000000000E+00 -0.00000000000E+00  0.00000000000E+00  0.93800000000E+00  0.93800000000E+00 0. -1.
         11    1    1    2    0    0 -0.10773434418E+00  0.35182626413E-01  0.52893545623E+00  0.54094129450E+00  0.51100000000E-03 0.  1.
    9000002    1    1    2    0    0 -0.82043852999E-02  0.12960859686E+00  0.27234186029E-01  0.94733911627E+00  0.93800000000E+00 0. -1.
         22    1    1    2    0    0  0.11593872948E+00 -0.16479122327E+00  0.34438303251E+01  0.34497195892E+01  0.00000000000E+00 0.  1.
</event>
<event>
 5    1  0.4838219E+001  0.1584079E+01  0.7818608E-02  0.3370827E+00
         11   -1    0    0    0    0  0.00000000000E+00  0.00000000000E+00  0.39999999674E+01  0.40000000000E+01  0.51100000000E-03 0. -1.
    9000002   -1    0    0    0    0 -0.00000000000E+00 -0.00000000000E+00  0.00000000000E+00  0.93800000000E+00  0.93800000000E+00 0.  1.
         11    1    1    2    0    0 -0.80377140044E-01  0.28379470841E-01  0.18459252698E+01  0.18478923783E+01  0.51100000000E-03 0. -1.
    9000002    1    1    2    0    0 -0.14024360207E+00  0.17052850454E-01  0.24750282183E-01  0.94890233644E+00  0.93800000000E+00 0.  1.
         22    1    1    2    0    0  0.22062074212E+00 -0.45432321295E-01  0.21293244154E+01  0.21412052852E+01  0.00000000000E+00 0. -1.
</event>
<event>
 5    1  0.4838219E+001  0.1582663E+01  0.7818608E-02  0.3372399E+00
         11   -1    0    0    0    0  0.00000000000E+00  0.00000000000E+00  0.39999999674E+01  0.40000000000E+01  0.51100000000E-03 0. -1.
    9000002   -1    0    0    0    0 -0.00000000000E+00 -0.00000000000E+00  0.00000000000E+00  0.93800000000E+00  0.93800000000E+00 0. -1.
         11    1    1    2    0    0 -0.21655791505E-02 -0.88049640013E-01  0.21392480213E+01  0.21410604350E+01  0.51100000000E-03 0. -1.
    9000002    1    1    2    0    0  0.23916504875E+00 -0.57361175591E-02  0.51045346211E-01  0.96937219424E+00  0.93800000000E+00 0. -1.
         22    1    1    2    0    0 -0.23699946960E+00  0.93785757572E-01  0.18097065999E+01  0.18275673707E+01  0.00000000000E+00 0. -1.
</event>
<event>
 5    1  0.4838219E+001  0.1487305E+01  0.7818608E-02  0.3485561E+00
         11   -1    0    0    0    0  0.00000000000E+00  0.00000000000E+00  0.39999999674E+01  0.40000000000E+01  0.51100000000E-03 0.  1.
    9000002   -1    0    0    0    0 -0.00000000000E+00 -0.00000000000E+00  0.00000000000E+00  0.93800000000E+00  0.93800000000E+00 0.  1.
         11    1    1    2    0    0 -0.10709754138E+00 -0.18305258132E+00  0.35950227399E+01  0.36012729544E+01  0.51100000000E-03 0.  1.
    9000002    1    1    2    0    0  0.22534155590E+00 -0.16154690933E-01  0.12429982089E+00  0.97279711982E+00  0.93800000000E+00 0.  1.
         22    1    1    2    0    0 -0.11824401452E+00  0.19920727226E+00  0.28067740658E+00  0.36392992575E+00  0.00000000000E+00 0. -1.
</event>
<event>
 5    1  0.4838219E+001  0.1569387E+01  0.7818608E-02  0.3387275E+00
         11   -1    0    0    0    0  0.00000000000E+00  0.00000000000E+00  0.39999999674E+01  0.40000000000E+01  0.51100000000E-03 0.  1.
    9000002   -1    0    0    0    0 -0.00000000000E+00 -0.00000000000E+00  0.00000000000E+00  0.93800000000E+00  0.93800000000E+00 0.  1.
         11    1    1    2    0    0 -0.19151146562E+00  0.12991380767E+00  0.21149814950E+01  0.21276045742E+01  0.51100000000E-03 0.  1.
    9000002    1    1    2    0    0  0.10568200629E+00  0.55191960131E-01  0.31906927752E-01  0.94608503368E+00  0.93800000000E+00 0.  1.
         22    1    1    2    0    0  0.85829459336E-01 -0.18510576780E+00  0.18531115446E+01  0.18643103921E+01  0.00000000000E+00 0.  1.
</event>
<event>
 5    1  0.4838219E+001  0.1528979E+01  0.7818608E-02  0.3434249E+00
         11   -1    0    0    0    0  0.00000000000E+00  0.00000000000E+00  0.39999999674E+01  0.40000000000E+01  0.51100000000E-03 0. -1.
    9000002   -1    0    0    0    0 -0.00000000000E+00 -0.00000000000E+00  0.00000000000E+00  0.93800000000E+00  0.93800000000E+00 0.  1.
         11    1    1    2    0    0 -0.25024457609E+00  0.23462356449E+00  0.14583636660E+01  0.14981640124E+01  0.51100000000E-03 0. -1.
    9000002    1    1    2    0    0  0.14537285861E+00  0.13213782662E-01  0.68128430434E-01  0.95173176636E+00  0.93800000000E+00 0.  1.
         22    1    1    2    0    0  0.10487171748E+00 -0.24783734715E+00  0.24735078710E+01  0.24881042212E+01  0.00000000000E+00 0. -1.
</event>
<event>
 5    1  0.4838219E+001  0.1581762E+01  0.7818608E-02  0.3373399E+00
         11   -1    0    0    0    0  0.00000000000E+00  0.00000000000E+00  0.39999999674E+01  0.40000000000E+01  0.51100000000E-03 0. -1.
    9000002   -1    0    0    0    0 -0.00000000000E+00 -0.00000000000E+00  0.00000000000E+00  0.93800000000E+00  0.93800000000E+00 0. -1.
         11    1    1    2    0    0 -0.31521585710E-01  0.55063757525E-01  0.18873299523E+01  0.18883962078E+01  0.51100000000E-03 0. -1.
    9000002    1    1    2    0    0 -0.14200668482E+00  0.15056317929E+00  0.41951122088E-01  0.96147754323E+00  0.93800000000E+00 0. -1.
         22    1    1    2    0    0  0.17352827053E+00 -0.20562693682E+00  0.20707188930E+01  0.20881262490E+01  0.00000000000E+00 0. -1.
</event>
<event>
 5    1  0.4838219E+001  0.1518485E+01  0.7818608E-02  0.3446884E+00
         11   -1    0    0    0    0  0.00000000000E+00  0.00000000000E+00  0.39999999674E+01  0.40000000000E+01  0.51100000000E-03 0.  1.
    9000002   -1    0    0    0    0 -0.00000000000E+00 -0.00000000000E+00  0.00000000000E+00  0.93800000000E+00  0.93800000000E+00 0.  1.
         11    1    1    2    0    0 -0.32641487898E+00  0.26668400122E-02  0.10623219773E+01  0.11113424449E+01  0.51100000000E-03 0.  1.
    9000002    1    1    2    0    0  0.74951827942E-01 -0.16910849471E-01  0.65457729852E-01  0.94341532092E+00  0.93800000000E+00 0.  1.
         22    1    1    2    0    0  0.25146305104E+00  0.14244009459E-01  0.28722202603E+01  0.28832422342E+01  0.00000000000E+00 0.  1.
</event>
<event>
 5    1  0.4838219E+001  0.1574150E+01  0.7818608E-02  0.3381907E+00
         11   -1    0    0    0    0  0.00000000000E+00  0.00000000000E+00  0.39999999674E+01  0.40000000000E+01  0.51100000000E-03 0.  1.
    9000002   -1    0    0    0    0 -0.00000000000E+00 -0.00000000000E+00  0.00000000000E+00  0.93800000000E+00  0.93800000000E+00 0.  1.
         11    1    1    2    0    0 -0.10148827859E+00  0.17041161704E+00  0.11314606447E+01  0.11487138206E+01  0.51100000000E-03 0.  1.
    9000002    1    1    2    0    0  0.22295835825E+00 -0.12745861745E-02  0.52505323846E-01  0.96556349512E+00  0.93800000000E+00 0.  1.
         22    1    1    2    0    0 -0.12147007966E+00 -0.16913703086E+00  0.28160339988E+01  0.28237226843E+01  0.00000000000E+00 0.  1.
</event>
<event>
 5    1  0.4838219E+001  0.1499095E+01  0.7818608E-02  0.3470734E+00
         11   -1    0    0    0    0  0.00000000000E+00  0.00000000000E+00  0.39999999674E+01  0.40000000000E+01  0.51100000000E-03 0. -1.
    9000002   -1    0    0    0    0 -0.00000000000E+00 -0.00000000000E+00  0.00000000000E+00  0.93800000000E+00  0.93800000000E+00 0. -1.
         11    1    1    2    0    0  0.25885268634E+00  0.60303252834E-01  0.49171043472E+00  0.55894597973E+00  0.51100000000E-03 0. -1.
    9000002    1    1    2    0    0 -0.12478504598E-01 -0.19012934000E+00  0.10332222233E+00  0.96271717583E+00  0.93800000000E+00 0. -1.
         22    1    1    2    0    0 -0.24637418175E+00  0.12982608717E+00  0.34049673103E+01  0.34163368444E+01  0.00000000000E+00 0. -1.
</event>
<event>
 5    1  0.4838219E+001  0.1520270E+01  0.7818608E-02  0.3444722E+00
         11   -1    0    0    0    0  0.00000000000E+00  0.00000000000E+00  0.39999999674E+01  0.40000000000E+01  0.51100000000E-03 0.  1.
    9000002   -1    0    0    0    0 -0.00000000000E+00 -0.00000000000E+00  0.00000000000E+00  0.93800000000E+00  0.93800000000E+00 0.  1.
         11    1    1    2    0    0 -0.22978438464E+00  0.34562917373E-03  0.22207524332E+01  0.22326089254E+01  0.51100000000E-03 0.  1.
    9000002    1    1    2    0    0 -0.14153477108E+00  0.22685742939E+00  0.11144440903E+00  0.98171291170E+00  0.93800000000E+00 0.  1.
         22    1    1    2    0    0  0.37131915572E+00 -0.22720305856E+00  0.16678031251E+01  0.17236781629E+01  0.00000000000E+00 0. -1.
</event>
<event>
 5    1  0.4838219E+001  0.1453952E+01  0.7818608E-02  0.3528922E+00
         11   -1    0    0    0    0  0.00000000000E+00  0.00000000000E+00  0.39999999674E+01  0.40000000000E+01  0.51100000000E-03 0.  1.
    9000002   -1    0    0    0    0 -0.00000000000E+00 -0.00000000000E+00  0.00000000000E+00  0.93800000000E+00  0.93800000000E+00 0.  1.
         11    1    1    2    0    0 -0.41460733414E-01  0.40509285308E+00  0.79302615906E+00  0.89146506500E+00  0.51100000000E-03 0.  1.
    9000002    1    1    2    0    0  0.26074506461E-01 -0.13841748919E+00  0.12929748724E+00  0.95728842122E+00  0.93800000000E+00 0.  1.
         22    1    1    2    0    0  0.15386226953E-01 -0.26667536389E+00  0.30776763211E+01  0.30892465138E+01  0.00000000000E+00 0.  1.
</event>
<event>
 5    1  0.4838219E+001  0.1552947E+01  0.7818608E-02  0.3406072E+00
         11   -1    0    0    0    0  0.00000000000E+00  0.00000000000E+00  0.39999999674E+01  0.40000000000E+01  0.51100000000E-03 0. -1.
    9000002   -1    0    0    0    0 -0.00000000000E+00 -0.00000000000E+00  0.00000000000E+00  0.93800000000E+00  0.93800000000E+00 0.  1.
         11    1    1    2    0    0  0.15919499055E+00 -0.64919640386E-01  0.31531989516E+01  0.31578824383E+01  0.51100000000E-03 0. -1.
    9000002    1    1    2    0    0 -0.13007581183E+00 -0.17087798686E+00  0.66632477948E-01  0.96457394239E+00  0.93800000000E+00 0.  1.
         22    1    1    2    0    0 -0.29119178724E-01  0.23579762725E+00  0.78016853781E+00  0.81554361930E+00  0.00000000000E+00 0.  1.
</event>
<event>
 5    1  0.4838219E+001  0.1505547E+01  0.7818608E-02  0.3462724E+00
         11   -1    0    0    0    0  0.00000000000E+00  0.00000000000E+00  0.39999999674E+01  0.40000000000E+01  0.51100000000E-03 0. -1.
    9000002   -1    0    0    0    0 -0.00000000000E+00 -0.00000000000E+00  0.00000000000E+00  0.93800000000E+00  0.93800000000E+00 0.  1.
         11    1    1    2    0    0  0.11298107411E+00  0.33982285697E+00  0.21585674583E+01  0.21880717608E+01  0.51100000000E-03 0. -1.
    9000002    1    1    2    0    0 -0.98733602367E-01  0.41488483088E-01  0.79818936638E-01  0.94746223202E+00  0.93800000000E+00 0.  1.
         22    1    1    2    0    0 -0.14247471747E-01 -0.38131134006E+00  0.17616135724E+01  0.18024660072E+01  0.00000000000E+00 0.  1.
</event>
<event>
 5    1  0.4838219E+001  0.1441002E+01  0.7818608E-02  0.3546348E+00
         11   -1    0    0    0    0  0.00000000000E+00  0.00000000000E+00  0.39999999674E+01  0.40000000000E+01  0.51100000000E-03 0.  1.
    9000002   -1    0    0    0    0 -0.00000000000E+00 -0.00000000000E+00  0.00000000000E+00  0.93800000000E+00  0.93800000000E+00 0.  1.
         11    1    1    2    0    0 -0.43445580994E+00  0.21112224762E+00  0.20995887990E+01  0.21544367803E+01  0.51100000000E-03 0.  1.
    9000002    1    1    2    0    0 -0.63336707555E-01 -0.22534137525E+00  0.16832577705E+00  0.98130924847E+00  0.93800000000E+00 0.  1.
         22    1    1    2    0    0  0.49779251750E+00  0.14219127631E-01  0.17320853913E+01  0.18022539712E+01  0.00000000000E+00 0. -1.
</event>
<event>
 5    1  0.4838219E+001  0.1582098E+01  0.7818608E-02  0.3373025E+00
         11   -1    0    0    0    0  0.00000000000E+00  0.00000000000E+00  0.39999999674E+01  0.40000000000E+01  0.51100000000E-03 0. -1.
    9000002   -1    0    0    0    0 -0.00000000000E+00 -0.00000000000E+00  0.00000000000E+00  0.93800000000E+00  0.93800000000E+00 0.  1.
         11    1    1    2    0    0 -0.55710081988E-01  0.50739887554E-01  0.24023357618E+01  0.24035173232E+01  0.51100000000E-03 0. -1.
    9000002    1    1    2    0    0 -0.15348060007E+00 -0.40777676720E-02  0.28667890894E-01  0.95091470214E+00  0.93800000000E+00 0.  1.
         22    1    1    2    0    0  0.20919068205E+00 -0.46662119882E-01  0.15689963146E+01  0.15835679746E+01  0.00000000000E+00 0. -1.
</event>
<event>
 5    1  0.4838219E+001  0.1574381E+01  0.7818608E-02  0.3381647E+00
         11   -1    0    0    0    0  0.00000000000E+00  0.00000000000E+00  0.39999999674E+01  0.40000000000E+01  0.51100000000E-03 0. -1.
    9000002   -1    0    0    0    0 -0.00000000000E+00 -0.00000000000E+00  0.00000000000E+00  0.93800000000E+00  0.93800000000E+00 0.  1.
         11    1    1    2    0    0 -0.36856823662E-01  0.78481201413E-01  0.26175731565E+01  0.26190088231E+01  0.51100000000E-03 0. -1.
    9000002    1    1    2    0    0 -0.14031371515E+00  0.74219338584E-01  0.35596104279E-01  0.95200185479E+00  0.93800000000E+00 0.  1.
         22    1    1    2    0    0  0.17717053881E+00 -0.15270054000E+00  0.13468307065E+01  0.13669893221E+01  0.00000000000E+00 0. -1.
</event>
<event>
 5    1  0.4838219E+001  0.1484037E+01  0.7818608E-02  0.3489717E+00
         11   -1    0    0    0    0  0.00000000000E+00  0.00000000000E+00  0.39999999674E+01  0.40000000000E+01  0.51100000000E-03 0.  1.
    9000002   -1    0    0    0    0 -0.00000000000E+00 -0.00000000000E+00  0.00000000000E+00  0.93800000000E+00  0.93800000000E+00 0. -1.
         11    1    1    2    0    0 -0.47367780305E+00 -0.13046782206E+00  0.21729911295E+01  0.22278427286E+01  0.51100000000E-03 0.  1.
    9000002    1    1    2    0    0  0.15732895573E+00  0.50389550603E-02  0.10735616160E+00  0.95715575368E+00  0.93800000000E+00 0. -1.
         22    1    1    2    0    0  0.31634884732E+00  0.12542886700E+00  0.17196526763E+01  0.17530015177E+01  0.00000000000E+00 0.  1.
</event>
<event>
 5    1  0.4838219E+001  0.1590157E+01  0.7818608E-02  0.3364116E+00
         11   -1    0    0    0    0  0.00000000000E+00  0.00000000000E+00  0.39999999674E+01  0.40000000000E+01  0.51100000000E-03 0. -1.
    9000002   -1    0    0    0    0 -0.00000000000E+00 -0.00000000000E+00  0.00000000000E+00  0.93800000000E+00  0.93800000000E+00 0.  1.
         11    1    1    2    0    0  0.63594678585E-01  0.79456545140E-01  0.10110425329E+01  0.10161520015E+01  0.51100000000E-03 0. -1.
    9000002    1    1    2    0    0  0.13637531849E+00 -0.20023660864E+00  0.46252589663E-01  0.96988464726E+00  0.93800000000E+00 0.  1.
         22    1    1    2    0    0 -0.19996999708E+00  0.12078006350E+00  0.29427048448E+01  0.29519633512E+01  0.00000000000E+00 0. -1.
</event>
<event>
 5    1  0.4838219E+001  0.1523889E+01  0.7818608E-02  0.3440354E+00
         11   -1    0    0    0    0  0.00000000000E+00  0.00000000000E+00  0.39999999674E+01  0.40000000000E+01  0.51100000000E-03 0. -1.
    9000002   -1    0    0    0    0 -0.00000000000E+00 -0.00000000000E+00  0.00000000000E+00  0.93800000000E+00  0.93800000000E+00 0. -1.
         11    1    1    2    0    0  0.34599248476E+00 -0.28610951907E+00  0.18148924468E+01  0.18696000404E+01  0.51100000000E-03 0. -1.
    9000002    1    1    2    0    0 -0.22635356628E+00  0.12476417264E+00  0.10498845320E+00  0.97860544197E+00  0.93800000000E+00 0. -1.
         22    1    1    2    0    0 -0.11963891848E+00  0.16134534642E+00  0.20801190674E+01  0.20897945176E+01  0.00000000000E+00 0.  1.
</event>
<event>
 5    1  0.4838219E+001  0.1471337E+01  0.7818608E-02  0.3506055E+00
         11   -1    0    0    0    0  0.00000000000E+00  0.00000000000E+00  0.39999999674E+01  0.40000000000E+01  0.51100000000E-03 0.  1.
    9000002   -1    0    0    0    0 -0.00000000000E+00 -0.00000000000E+00  0.00000000000E+00  0.93800000000E+00  0.93800000000E+00 0. -1.
         11    1    1    2    0    0 -0.49881308111E+00 -0.20609300443E+00  0.16381530079E+01  0.17247708122E+01  0.51100000000E-03 0.  1.
    9000002    1    1    2    0    0  0.17042490281E+00  0.34729234989E+00  0.21544326246E+00  0.10372639120E+01  0.93800000000E+00 0. -1.
         22    1    1    2    0    0  0.32838817829E+00 -0.14119934546E+00  0.21464036970E+01  0.21759652758E+01  0.00000000000E+00 0.  1.
</event>
<event>
 5    1  0.4838219E+001  0.1528261E+01  0.7818608E-02  0.3435107E+00
         11   -1    0    0    0    0  0.00000000000E+00  0.00000000000E+00  0.39999999674E+01  0.40000000000E+01  0.51100000000E-03 0. -1.
    9000002   -1    0    0    0    0 -0.00000000000E+00 -0.00000000000E+00  0.00000000000E+00  0.93800000000E+00  0.93800000000E+00 0.  1.
         11    1    1    2    0    0  0.32165566348E-01  0.21067460080E+00  0.19993084334E+01  0.20106349455E+01  0.51100000000E-03 0. -1.
    9000002    1    1    2    0    0  0.12180154736E+00  0.19005314962E+00  0.89917114991E-01  0.96896073408E+00  0.93800000000E+00 0.  1.
         22    1    1    2    0    0 -0.15396711371E+00 -0.40072775042E+00  0.19107744190E+01  0.19584043204E+01  0.00000000000E+00 0. -1.
</event>
<event>
 5    1  0.4838219E+001  0.1525658E+01  0.7818608E-02  0.3438227E+00
         11   -1    0    0    0    0  0.00000000000E+00  0.00000000000E+00  0.39999999674E+01  0.40000000000E+01  0.51100000000E-03 0.  1.
    9000002   -1    0    0    0    0 -0.00000000000E+00 -0.00000000000E+00  0.00000000000E+00  0.93800000000E+00  0.93800000000E+00 0.  1.
         11    1    1    2    0    0 -0.20869537306E+00 -0.25010739959E+00  0.12685656572E+01  0.13097200304E+01  0.51100000000E-03 0.  1.
    9000002    1    1    2    0    0  0.93974515561E-01  0.15117199559E-02  0.61883474604E-01  0.94472591756E+00  0.93800000000E+00 0.  1.
         22    1    1    2    0    0  0.11472085750E+00  0.24859567963E+00  0.26695508355E+01  0.26835540521E+01  0.00000000000E+00 0.  1.
</event>
<event>
 5    1  0.5371707E+001  0.1556204E+01  0.7818608E-02  0.3402314E+00
         11   -1    0    0    0    0  0.00000000000E+00  0.00000000000E+00  0.39999999674E+01  0.40000000000E+01  0.51100000000E-03 0. -1.
    9000002   -1    0    0    0    0 -0.00000000000E+00 -0.00000000000E+00  0.00000000000E+00  0.93800000000E+00  0.93800000000E+00 0.  1.
         11    1    1    2    0    0  0.25669951187E+00  0.18078447840E-01  0.17702005957E+01  0.17888073903E+01  0.51100000000E-03 0. -1.
    9000002    1    1    2    0    0 -0.18480881016E-01  0.95259321174E-02  0.32445488426E-01  0.93879124200E+00  0.93800000000E+00 0.  1.
         22    1    1    2    0    0 -0.23821863085E+00 -0.27604379958E-01  0.21973538833E+01  0.22104013677E+01  0.00000000000E+00 0. -1.
</event>
<event>
 5    1  0.4838219E+001  0.1582437E+01  0.7818608E-02  0.3372649E+00
         11   -1    0    0    0    0  0.00000000000E+00  0.00000000000E+00  0.39999999674E+01  0.40000000000E+01  0.51100000000E-03 0.  1.
    9000002   -1    0    0    0    0 -0.00000000000E+00 -0.00000000000E+00  0.00000000000E+00  0.93800000000E+00  0.93800000000E+00 0.  1.
         11    1    1    2    0    0 -0.13216183502E+00  0.92056332745E-01  0.15217211115E+01  0.15302210694E+01  0.51100000000E-03 0.  1.
    9000002    1    1    2    0    0 -0.50900557649E-01 -0.17586801052E+00  0.35128169119E-01  0.95634638712E+00  0.93800000000E+00 0.  1.
         22    1    1    2    0    0  0.18306239267E+00  0.83811677775E-01  0.24431506868E+01  0.24514325435E+01  0.00000000000E+00 0. -1.
</event>
<event>
 5    1  0.4838219E+001  0.1598345E+01  0.7818608E-02  0.3355161E+00
         11   -1    0    0    0    0  0.00000000000E+00  0.00000000000E+00  0.39999999674E+01  0.40000000000E+01  0.51100000000E-03 0. -1.
    9000002   -1    0    0    0    0 -0.00000000000E+00 -0.00000000000E+00  0.00000000000E+00  0.93800000000E+00  0.93800000000E+00 0.  1.
         11    1    1    2    0    0  0.27372531461E-01 -0.51325225191E-02  0.71287912073E+00  0.71342308637E+00  0.51100000000E-03 0. -1.
    9000002    1    1    2    0    0 -0.23479729429E+00 -0.13933038185E+00  0.50638636771E-01  0.97823872150E+00  0.93800000000E+00 0.  1.
         22    1    1    2    0    0  0.20742476283E+00  0.14446290437E+00  0.32364822099E+01  0.32463381921E+01  0.00000000000E+00 0. -1.
</event>
<event>
 5    1  0.4838219E+001  0.1539789E+01  0.7818608E-02  0.3421424E+00
         11   -1    0    0    0    0  0.00000000000E+00  0.00000000000E+00  0.39999999674E+01  0.40000000000E+01  0.51100000000E-03 0.  1.
    9000002   -1    0    0    0    0 -0.00000000000E+00 -0.00000000000E+00  0.00000000000E+00  0.93800000000E+00  0.93800000000E+00 0. -1.
         11    1    1    2    0    0 -0.34978341880E+00 -0.22924470584E+00  0.32090690025E+00  0.52714616093E+00  0.51100000000E-03 0.  1.
    9000002    1    1    2    0    0  0.51782761306E+00 -0.16906287509E+00  0.48594806183E+00  0.11885778104E+01  0.93800000000E+00 0. -1.
         22    1    1    2    0    0 -0.16804419425E+00  0.39830758093E+00  0.31931450053E+01  0.32222760287E+01  0.00000000000E+00 0.  1.
</event>
<event>
 5    1  0.4838219E+001  0.1572873E+01  0.7818608E-02  0.3383342E+00
         11   -1    0    0    0    0  0.00000000000E+00  0.00000000000E+00  0.39999999674E+01  0.40000000000E+01  0.51100000000E-03 0.  1.
    9000002   -1    0    0    0    0 -0.00000000000E+00 -0.00000000000E+00  0.00000000000E+00  0.93800000000E+00  0.93800000000E+00 0. -1.
         11    1    1    2    0    0  0.12624537894E+00  0.82303296950E-01  0.15169968782E+01  0.15244643381E+01  0.51100000000E-03 0.  1.
    9000002    1    1    2    0    0 -0.51563822767E-01  0.20063173310E+00  0.48835852443E-01  0.96184243025E+00  0.93800000000E+00 0. -1.
         22    1    1    2    0    0 -0.74681556169E-01 -0.28293503005E+00  0.24341672367E+01  0.24516932317E+01  0.00000000000E+00 0.  1.
</event>
<event>
 5    1  0.4838219E+001  0.1552259E+01  0.7818608E-02  0.3406868E+00
         11   -1    0    0    0    0  0.00000000000E+00  0.00000000000E+00  0.39999999674E+01  0.40000000000E+01  0.51100000000E-03 0. -1.
    9000002   -1    0    0    0    0 -0.00000000000E+00 -0.00000000000E+00  0.00000000000E+00  0.93800000000E+00  0.93800000000E+00 0.  1.
         11    1    1    2    0    0 -0.16623765070E+00  0.47272676325E-02  0.22341682351E+01  0.22403493628E+01  0.51100000000E-03 0. -1.
    9000002    1    1    2    0    0 -0.15888773357E+00 -0.87111499867E-01  0.57896653430E-01  0.95709442991E+00  0.93800000000E+00 0.  1.
         22    1    1    2    0    0  0.32512538427E+00  0.82384232235E-01  0.17079350788E+01  0.17405562073E+01  0.00000000000E+00 0. -1.
</event>
<event>
 5    1  0.4838219E+001  0.1468036E+01  0.7818608E-02  0.3510351E+00
         11   -1    0    0    0    0  0.00000000000E+00  0.00000000000E+00  0.39999999674E+01  0.40000000000E+01  0.51100000000E-03 0. -1.
    9000002   -1    0    0    0    0 -0.00000000000E+00 -0.00000000000E+00  0.00000000000E+00  0.93800000000E+00  0.93800000000E+00 0. -1.
         11    1    1    2    0    0 -0.12911922423E+00  0.20660681825E+00  0.18647673338E+00  0.30680936203E+00  0.51100000000E-03 0. -1.
    9000002    1    1    2    0    0  0.79015226311E-02 -0.19814391905E-01  0.13730683581E+00  0.94823636892E+00  0.93800000000E+00 0.  1.
         22    1    1    2    0    0  0.12121770160E+00 -0.18679242635E+00  0.36762163982E+01  0.36829542691E+01  0.00000000000E+00 0. -1.
</event>
<event>
 5    1  0.4838219E+001  0.1526756E+01  0.7818608E-02  0.3436909E+00
         11   -1    0    0    0    0  0.00000000000E+00  0.00000000000E+00  0.39999999674E+01  0.40000000000E+01  0.51100000000E-03 0. -1.
    9000002   -1    0    0    0    0 -0.00000000000E+00 -0.00000000000E+00  0.00000000000E+00  0.93800000000E+00  0.93800000000E+00 0.  1.
         11    1    1    2    0    0 -0.24080470931E+00 -0.38608428237E+00  0.27102730652E+01  0.27482045649E+01  0.51100000000E-03 0. -1.
    9000002    1    1    2    0    0  0.85798905050E-01  0.21275287397E+00  0.92351871990E-01  0.97005056866E+00  0.93800000000E+00 0.  1.
         22    1    1    2    0    0  0.15500580426E+00  0.17333140840E+00  0.11973750301E+01  0.12197448665E+01  0.00000000000E+00 0. -1.
</event>
<event>
 5    1  0.4838219E+001  0.1599639E+01  0.7818608E-02  0.3353755E+00
         11   -1    0    0    0    0  0.00000000000E+00  0.00000000000E+00  0.39999999674E+01  0.40000000000E+01  0.51100000000E-03 0.  1.
    9000002   -1    0    0    0    0 -0.00000000000E+00 -0.00000000000E+00  0.00000000000E+00  0.93800000000E+00  0.93800000000E+00 0. -1.
         11    1    1    2    0    0  0.49052648912E-01 -0.17222554937E+00  0.18038392299E+01  0.18127062726E+01  0.51100000000E-03 0.  1.
    9000002    1    1    2    0    0 -0.92877196683E-01  0.38113003648E+00  0.10372901667E+00  0.10220029292E+01  0.93800000000E+00 0. -1.
         22    1    1    2    0    0  0.43824547771E-01 -0.20890448711E+00  0.20924317208E+01  0.21032907982E+01  0.00000000000E+00 0.  1.
</event>
<event>
 5    1  0.4838219E+001  0.1527337E+01  0.7818608E-02  0.3436213E+00
         11   -1    0    0    0    0  0.00000000000E+00  0.00000000000E+00  0.39999999674E+01  0.40000000000E+01  0.51100000000E-03 0. -1.
    9000002   -1    0    0    0    0 -0.00000000000E+00 -0.00000000000E+00  0.00000000000E+00  0.93800000000E+00  0.93800000000E+00 0.  1.
         11    1    1    2    0    0  0.15084420418E+00  0.29238166335E+00  0.24646762423E+01  0.24865378041E+01  0.51100000000E-03 0. -1.
    9000002    1    1    2    0    0 -0.14377071856E-01 -0.20355226200E-01  0.54743285119E-01  0.93992651984E+00  0.93800000000E+00 0.  1.
         22    1    1    2    0    0 -0.13646713233E+00 -0.27202643715E+00  0.14805804400E+01  0.15115356760E+01  0.00000000000E+00 0.  1.
</event>
<event>
 5    1  0.4838219E+001  0.1517498E+01  0.7818608E-02  0.3448083E+00
         11   -1    0    0    0    0  0.00000000000E+00  0.00000000000E+00  0.39999999674E+01  0.40000000000E+01  0.51100000000E-03 0. -1.
    9000002   -1    0    0    0    0 -0.00000000000E+00 -0.00000000000E+00  0.00000000000E+00  0.93800000000E+00  0.93800000000E+00 0. -1.
         11    1    1    2    0    0 -0.23829914542E-01  0.67216078348E-02  0.34724161118E+01  0.34725044218E+01  0.51100000000E-03 0. -1.
    9000002    1    1    2    0    0  0.27413646295E+00 -0.25768998303E-02  0.11646880570E+00  0.98415772284E+00  0.93800000000E+00 0. -1.
         22    1    1    2    0    0 -0.25030654841E+00 -0.41447080045E-02  0.41111504988E+00  0.48133785538E+00  0.00000000000E+00 0.  1.
</event>
<event>
 5    1  0.4838219E+001  0.1531349E+01  0.7818608E-02  0.3431420E+00
         11   -1    0    0    0    0  0.00000000000E+00  0.00000000000E+00  0.39999999674E+01  0.40000000000E+01  0.51100000000E-03 0. -1.
    9000002   -1    0    0    0    0 -0.00000000000E+00 -0.00000000000E+00  0.00000000000E+00  0.93800000000E+00  0.93800000000E+00 0.  1.
         11    1    1    2    0    0 -0.16056372743E+00  0.21818158955E+00  0.10563264066E+01  0.10905088972E+01  0.51100000000E-03 0. -1.
    9000002    1    1    2    0    0  0.17675705220E+00  0.14060826861E+00  0.87438504268E-01  0.96876376518E+00  0.93800000000E+00 0.  1.
         22    1    1    2    0    0 -0.16193324771E-01 -0.35878985817E+00  0.28562350565E+01  0.28787273376E+01  0.00000000000E+00 0. -1.
</event>
<event>
 5    1  0.4838219E+001  0.1523526E+01  0.7818608E-02  0.3440791E+00
         11   -1    0    0    0    0  0.00000000000E+00  0.00000000000E+00  0.39999999674E+01  0.40000000000E+01  0.51100000000E-03 0. -1.
    9000002   -1    0    0    0    0 -0.00000000000E+00 -0.00000000000E+00  0.00000000000E+00  0.93800000000E+00  0.93800000000E+00 0. -1.
         11    1    1    2    0    0  0.12517968565E+00 -0.29193320121E+00  0.21267634419E+01  0.21503529818E+01  0.51100000000E-03 0. -1.
    9000002    1    1    2    0    0  0.59442798419E-01  0.11544853002E-02  0.59792630097E-01  0.94178231972E+00  0.93800000000E+00 0. -1.
         22    1    1    2    0    0 -0.18462248407E+00  0.29077871591E+00  0.18134438954E+01  0.18458646985E+01  0.00000000000E+00 0.  1.
</event>
<event>
 5    1  0.4838219E+001  0.1450718E+01  0.7818608E-02  0.3533242E+00
         11   -1    0    0    0    0  0.00000000000E+00  0.00000000000E+00  0.39999999674E+01  0.40000000000E+01  0.51100000000E-03 0. -1.
    9000002   -1    0    0    0    0 -0.00000000000E+00 -0.00000000000E+00  0.00000000000E+00  0.93800000000E+00  0.93800000000E+00 0. -1.
         11    1    1    2    0    0 -0.32331063600E+00  0.26930761143E+00  0.11650194280E+01  0.12386794927E+01  0.51100000000E-03 0. -1.
    9000002    1    1    2    0    0 -0.10190530488E+00 -0.95760488337E-01  0.13189217837E+00  0.95749376447E+00  0.93800000000E+00 0. -1.
         22    1    1    2    0    0  0.42521594088E+00 -0.17354712309E+00  0.27030883610E+01  0.27418267428E+01  0.00000000000E+00 0. -1.
</event>
<event>
 5    1  0.4838219E+001  0.1511239E+01  0.7818608E-02  0.3455720E+00
         11   -1    0    0    0    0  0.00000000000E+00  0.00000000000E+00  0.39999999674E+01  0.40000000000E+01  0.51100000000E-03 0.  1.
    9000002   -1    0    0    0    0 -0.00000000000E+00 -0.00000000000E+00  0.00000000000E+00  0.93800000000E+00  0.93800000000E+00 0.  1.
         11    1    1    2    0    0  0.20164009665E+00 -0.14666255128E+00  0.51855329618E+00  0.57538371078E+00  0.51100000000E-03 0.  1.
    9000002    1    1    2    0    0 -0.67297556720E-01 -0.59088795313E-01  0.72745362313E-01  0.94506948666E+00  0.93800000000E+00 0.  1.
         22    1    1    2    0    0 -0.13434253993E+00  0.20575134659E+00  0.34087013089E+01  0.34175468026E+01  0.00000000000E+00 0.  1.
</event>
<event>
 5    1  0.4838219E+001  0.1590782E+01  0.7818608E-02  0.3363430E+00
         11   -1    0    0    0    0  0.00000000000E+00  0.00000000000E+00  0.39999999674E+01  0.40000000000E+01  0.51100000000E-03 0. -1.
    9000002   -1    0    0    0    0 -0.00000000000E+00 -0.00000000000E+00  0.00000000000E+00  0.93800000000E+00  0.93800000000E+00 0.  1.
         11    1    1    2    0    0 -0.27167208816E-01 -0.62808606556E-01  0.14349777337E+01  0.14366086230E+01  0.51100000000E-03 0. -1.
    9000002    1    1    2    0    0 -0.15423991365E+00 -0.22388175984E-01  0.22648050375E-01  0.95112991519E+00  0.93800000000E+00 0.  1.
         22    1    1    2    0    0  0.18140712247E+00  0.85196782539E-01  0.25423741833E+01  0.25502614618E+01  0.00000000000E+00 0. -1.
</event>
<event>
 5    1  0.4838219E+001  0.1579800E+01  0.7818608E-02  0.3375583E+00
         11   -1    0    0    0    0  0.00000000000E+00  0.00000000000E+00  0.39999999674E+01  0.40000000000E+01  0.51100000000E-03 0. -1.
    9000002   -1    0    0    0    0 -0.00000000000E+00 -0.00000000000E+00  0.00000000000E+00  0.93800000000E+00  0.93800000000E+00 0. -1.
         11    1    1    2    0    0  0.29851616090E+00 -0.35914923593E-01  0.14310805451E+01  0.14623247135E+01  0.51100000000E-03 0. -1.
    9000002    1    1    2    0    0 -0.39440377681E+00  0.27271031688E+00  0.17467458771E+00  0.10678391582E+01  0.93800000000E+00 0. -1.
         22    1    1    2    0    0  0.95887615907E-01 -0.23679539329E+00  0.23942448346E+01  0.24078361283E+01  0.00000000000E+00 0. -1.
</event>
<event>
 5    1  0.6470172E+001  0.1551328E+01  0.7818608E-02  0.3407946E+00
         11   -1    0    0    0    0  0.00000000000E+00  0.00000000000E+00  0.39999999674E+01  0.40000000000E+01  0.51100000000E-03 0. -1.
    9000002   -1    0    0    0    0 -0.00000000000E+00 -0.00000000000E+00  0.00000000000E+00  0.93800000000E+00  0.93800000000E+00 0.  1.
         11    1    1    2    0    0 -0.74215350755E-01 -0.27701765833E+00  0.20574194813E+01  0.20773112151E+01  0.51100000000E-03 0. -1.
    9000002    1    1    2    0    0  0.17951899485E-01  0.39921021518E-01  0.37166505370E-01  0.93975598310E+00  0.93800000000E+00 0.  1.
         22    1    1    2    0    0  0.56263451270E-01  0.23709663681E+00  0.19054139807E+01  0.19209328018E+01  0.00000000000E+00 0.  1.
</event>
<event>
 5    1  0.4838219E+001  0.1498783E+01  0.7818608E-02  0.3471122E+00
         11   -1    0    0    0    0  0.00000000000E+00  0.00000000000E+00  0.39999999674E+01  0.40000000000E+01  0.51100000000E-03 0. -1.
    9000002   -1    0    0    0    0 -0.00000000000E+00 -0.00000000000E+00  0.00000000000E+00  0.93800000000E+00  0.93800000000E+00 0. -1.
         11    1    1    2    0    0  0.21078586829E+00 -0.28806502426E+00  0.11604480908E+01  0.12141055032E+01  0.51100000000E-03 0. -1.
    9000002    1    1    2    0    0  0.90322477316E-01  0.10197326397E+00  0.90503801498E-01  0.95215105659E+00  0.93800000000E+00 0. -1.
         22    1    1    2    0    0 -0.30110834561E+00  0.18609176030E+00  0.27490480751E+01  0.27717434402E+01  0.00000000000E+00 0. -1.
</event>
<event>
 5    1  0.4838219E+001  0.1550074E+01  0.7818608E-02  0.3409400E+00
         11   -1    0    0    0    0  0.00000000000E+00  0.00000000000E+00  0.39999999674E+01  0.40000000000E+01  0.51100000000E-03 0. -1.
    9000002   -1    0    0    0    0 -0.00000000000E+00 -0.00000000000E+00  0.00000000000E+00  0.93800000000E+00  0.93800000000E+00 0. -1.
         11    1    1    2    0    0  0.13741550423E+00  0.10063749846E+00  0.76760871411E+00  0.78627878389E+00  0.51100000000E-03 0. -1.
    9000002    1    1    2    0    0 -0.94678298753E-01  0.39044229244E+00  0.15145063830E+00  0.10315960740E+01  0.93800000000E+00 0. -1.
         22    1    1    2    0    0 -0.42737205475E-01 -0.49107979090E+00  0.30809406150E+01  0.31201251421E+01  0.00000000000E+00 0. -1.
</event>
<event>
 5    1  0.4838219E+001  0.1476042E+01  0.7818608E-02  0.3499967E+00
         11   -1    0    0    0    0  0.00000000000E+00  0.00000000000E+00  0.39999999674E+01  0.40000000000E+01  0.51100000000E-03 0. -1.
    9000002   -1    0    0    0    0 -0.00000000000E+00 -0.00000000000E+00  0.00000000000E+00  0.93800000000E+00  0.93800000000E+00 0. -1.
         11    1    1    2    0    0  0.36732310640E+00 -0.29783141005E+00  0.59444836825E+00  0.75960446085E+00  0.51100000000E-03 0. -1.
    9000002    1    1    2    0    0 -0.50764872856E+00  0.83442590892E-01  0.36992019125E+00  0.11319694543E+01  0.93800000000E+00 0. -1.
         22    1    1    2    0    0  0.14032562216E+00  0.21438881916E+00  0.30356314079E+01  0.30464260848E+01  0.00000000000E+00 0. -1.
</event>
<event>
 5    1  0.4838219E+001  0.1581988E+01  0.7818608E-02  0.3373148E+00
         11   -1    0    0    0    0  0.00000000000E+00  0.00000000000E+00  0.39999999674E+01  0.40000000000E+01  0.51100000000E-03 0.  1.
    9000002   -1    0    0    0    0 -0.00000000000E+00 -0.00000000000E+00  0.00000000000E+00  0.93800000000E+00  0.93800000000E+00 0.  1.
         11    1    1    2    0    0 -0.92787000253E-01 -0.12808918731E+00  0.24781136116E+01  0.24831559759E+01  0.51100000000E-03 0.  1.
    9000002    1    1    2    0    0  0.24319296617E+00 -0.23508546899E-01  0.53246852422E-01  0.97075985592E+00  0.93800000000E+00 0.  1.
         22    1    1    2    0    0 -0.15040596592E+00  0.15159773421E+00  0.14686395033E+01  0.14840841682E+01  0.00000000000E+00 0. -1.
</event>
<event>
 5    1  0.4838219E+001  0.1451318E+01  0.7818608E-02  0.3532440E+00
         11   -1    0    0    0    0  0.00000000000E+00  0.00000000000E+00  0.39999999674E+01  0.40000000000E+01  0.51100000000E-03 0.  1.
    9000002   -1    0    0    0    0 -0.00000000000E+00 -0.00000000000E+00  0.00000000000E+00  0.93800000000E+00  0.93800000000E+00 0. -1.
         11    1    1    2    0    0  0.19641970306E+00 -0.36781468062E+00  0.63458640971E+00  0.75932108593E+00  0.51100000000E-03 0.  1.
    9000002    1    1    2    0    0  0.58857182820E-02  0.38369116070E+00  0.23325625088E+00  0.10399548197E+01  0.93800000000E+00 0. -1.
         22    1    1    2    0    0 -0.20230542134E+00 -0.15876480078E-01  0.31321573068E+01  0.31387240944E+01  0.00000000000E+00 0.  1.
</event>
<event>
 5    1  0.4838219E+001  0.1461080E+01  0.7818608E-02  0.3519476E+00
         11   -1    0    0    0    0  0.00000000000E+00  0.00000000000E+00  0.39999999674E+01  0.40000000000E+01  0.51100000000E-03 0. -1.
    9000002   -1    0    0    0    0 -0.00000000000E+00 -0.00000000000E+00  0.00000000000E+00  0.93800000000E+00  0.93800000000E+00 0. -1.
         11    1    1    2    0    0 -0.21077700092E+00  0.14153124222E+00  0.29735497091E+00  0.39099651723E+00  0.51100000000E-03 0. -1.
    9000002    1    1    2    0    0 -0.35564089330E-01 -0.73073740506E-01  0.11300710120E+00  0.94827168097E+00  0.93800000000E+00 0. -1.
         22    1    1    2    0    0  0.24634109025E+00 -0.68457501710E-01  0.35896378953E+01  0.35987318018E+01  0.00000000000E+00 0. -1.
</event>
<event>
 5    1  0.4838219E+001  0.1517782E+01  0.7818608E-02  0.3447738E+00
         11   -1    0    0    0    0  0.00000000000E+00  0.00000000000E+00  0.39999999674E+01  0.40000000000E+01  0.51100000000E-03 0.  1.
    9000002   -1    0    0    0    0 -0.00000000000E+00 -0.00000000000E+00  0.00000000000E+00  0.93800000000E+00  0.93800000000E+00 0. -1.
         11    1    1    2    0    0  0.37165691485E+00 -0.41603023676E+00  0.32328606281E+01  0.32806398952E+01  0.51100000000E-03 0.  1.
    9000002    1    1    2    0    0 -0.18557561661E+00  0.34061406549E+00  0.17231113163E+00  0.10295588265E+01  0.93800000000E+00 0. -1.
         22    1    1    2    0    0 -0.18608129824E+00  0.75416171268E-01  0.59482820763E+00  0.62780127830E+00  0.00000000000E+00 0.  1.
</event>
<event>
 5    1  0.4838219E+001  0.1496311E+01  0.7818608E-02  0.3474211E+00
         11   -1    0    0    0    0  0.00000000000E+00  0.00000000000E+00  0.39999999674E+01  0.40000000000E+01  0.51100000000E-03 0.  1.
    9000002   -1    0    0    0    0 -0.00000000000E+00 -0.00000000000E+00  0.00000000000E+00  0.93800000000E+00  0.93800000000E+00 0. -1.
         11    1    1    2    0    0  0.51266380246E+00  0.35354481713E+00  0.95458001661E+00  0.11397549655E+01  0.51100000000E-03 0.  1.
    9000002    1    1    2    0    0 -0.45706326148E+00 -0.86940646569E+00  0.99617013171E+00  0.16843317247E+01  0.93800000000E+00 0. -1.
         22    1    1    2    0    0 -0.55600540979E-01  0.51586164856E+00  0.20492498190E+01  0.21139133098E+01  0.00000000000E+00 0.  1.
</event>
<event>
 5    1  0.4838219E+001  0.1550872E+01  0.7818608E-02  0.3408475E+00
         11   -1    0    0    0    0  0.00000000000E+00  0.00000000000E+00  0.39999999674E+01  0.40000000000E+01  0.51100000000E-03 0.  1.
    9000002   -1    0    0    0    0 -0.00000000000E+00 -0.00000000000E+00  0.00000000000E+00  0.93800000000E+00  0.93800000000E+00 0.  1.
         11    1    1    2    0    0  0.28093750296E+00 -0.25670005996E-02  0.13099760787E+01  0.13397649263E+01  0.51100000000E-03 0.  1.
    9000002    1    1    2    0    0 -0.11546254702E+00  0.20472147584E+00  0.74682449224E-01  0.96987831745E+00  0.93800000000E+00 0.  1.
         22    1    1    2    0    0 -0.16547495594E+00 -0.20215447524E+00  0.26153414395E+01  0.26283567562E+01  0.00000000000E+00 0.  1.
</event>
<event>
 5    1  0.4838219E+001  0.1567346E+01  0.7818608E-02  0.3389585E+00
         11   -1    0    0    0    0  0.00000000000E+00  0.00000000000E+00  0.39999999674E+01  0.40000000000E+01  0.51100000000E-03 0. -1.
    9000002   -1    0    0    0    0 -0.00000000000E+00 -0.00000000000E+00  0.00000000000E+00  0.93800000000E+00  0.93800000000E+00 0.  1.
         11    1    1    2    0    0  0.89128255728E-01  0.15630563011E+00  0.18159068945E+01  0.18247995524E+01  0.51100000000E-03 0. -1.
    9000002    1    1    2    0    0  0.29153622834E-01  0.72956146585E-01  0.27970954637E-01  0.94170000921E+00  0.93800000000E+00 0.  1.
         22    1    1    2    0    0 -0.11828187856E+00 -0.22926177670E+00  0.21561221183E+01  0.21715004384E+01  0.00000000000E+00 0. -1.
</event>
<event>
 5    1  0.4838219E+001  0.1558961E+01  0.7818608E-02  0.3399146E+00
         11   -1    0    0    0    0  0.00000000000E+00  0.00000000000E+00  0.39999999674E+01  0.40000000000E+01  0.51100000000E-03 0.  1.
    9000002   -1    0    0    0    0 -0.00000000000E+00 -0.00000000000E+00  0.00000000000E+00  0.93800000000E+00  0.93800000000E+00 0.  1.
         11    1    1    2    0    0  0.15864609111E+00  0.44894600999E+00  0.20965434065E+01  0.21499338637E+01  0.51100000000E-03 0.  1.
    9000002    1    1    2    0    0 -0.35327970540E+00 -0.37833087564E+00  0.22224872129E+00  0.10941568881E+01  0.93800000000E+00 0.  1.
         22    1    1    2    0    0  0.19463361429E+00 -0.70615134354E-01  0.16812078396E+01  0.16939092481E+01  0.00000000000E+00 0.  1.
</event>
<event>
 5    1  0.4838219E+001  0.1507352E+01  0.7818608E-02  0.3460497E+00
         11   -1    0    0    0    0  0.00000000000E+00  0.00000000000E+00  0.39999999674E+01  0.40000000000E+01  0.51100000000E-03 0.  1.
    9000002   -1    0    0    0    0 -0.00000000000E+00 -0.00000000000E+00  0.00000000000E+00  0.93800000000E+00  0.93800000000E+00 0.  1.
         11    1    1    2    0    0 -0.40207200018E+00 -0.54385255640E-01  0.15222279840E+01  0.15753723198E+01  0.51100000000E-03 0.  1.
    9000002    1    1    2    0    0  0.12334455043E+00  0.17496335739E-01  0.81304231669E-01  0.94972331654E+00  0.93800000000E+00 0.  1.
         22    1    1    2    0    0  0.27872744976E+00  0.36888919902E-01  0.23964677517E+01  0.24129043637E+01  0.00000000000E+00 0.  1.
</event>
<event>
 5    1  0.4838219E+001  0.1555501E+01  0.7818608E-02  0.3403124E+00
         11   -1    0    0    0    0  0.00000000000E+00  0.00000000000E+00  0.39999999674E+01  0.40000000000E+01  0.51100000000E-03 0. -1.
    9000002   -1    0    0    0    0 -0.00000000000E+00 -0.00000000000E+00  0.00000000000E+00  0.93800000000E+00  0.93800000000E+00 0. -1.
         11    1    1    2    0    0 -0.20300761451E+00 -0.43026104415E-01  0.10280068171E+01  0.10487428733E+01  0.51100000000E-03 0. -1.
    9000002    1    1    2    0    0 -0.43915260833E-01 -0.56402530604E-01  0.36194959020E-01  0.94141588613E+00  0.93800000000E+00 0. -1.
         22    1    1    2    0    0  0.24692287534E+00  0.99428635019E-01  0.29357981913E+01  0.29478412406E+01  0.00000000000E+00 0. -1.
</event>
<event>
 5    1  0.4838219E+001  0.1561991E+01  0.7818608E-02  0.3395679E+00
         11   -1    0    0    0    0  0.00000000000E+00  0.00000000000E+00  0.39999999674E+01  0.40000000000E+01  0.51100000000E-03 0.  1.
    9000002   -1    0    0    0    0 -0.00000000000E+00 -0.00000000000E+00  0.00000000000E+00  0.93800000000E+00  0.93800000000E+00 0. -1.
         11    1    1    2    0    0  0.21741231365E+00  0.80780933352E-01  0.16384939023E+01  0.16548281489E+01  0.51100000000E-03 0.  1.
    9000002    1    1    2    0    0  0.25228413665E-01 -0.11765057497E+00  0.37695474040E-01  0.94643704461E+00  0.93800000000E+00 0. -1.
         22    1    1    2    0    0 -0.24264072732E+00  0.36869641623E-01  0.23238105910E+01  0.23367348065E+01  0.00000000000E+00 0.  1.
</event>
<event>
 5    1  0.4838219E+001  0.1561453E+01  0.7818608E-02  0.3396294E+00
         11   -1    0    0    0    0  0.00000000000E+00  0.00000000000E+00  0.39999999674E+01  0.40000000000E+01  0.51100000000E-03 0.  1.
    9000002   -1    0    0    0    0 -0.00000000000E+00 -0.00000000000E+00  0.00000000000E+00  0.93800000000E+00  0.93800000000E+00 0.  1.
         11    1    1    2    0    0  0.21300480047E+00 -0.94816792834E-01  0.11906278232E+01  0.12132419972E+01  0.51100000000E-03 0.  1.
    9000002    1    1    2    0    0 -0.15974076550E+00 -0.15073185003E+00  0.61401592187E-01  0.96532448343E+00  0.93800000000E+00 0.  1.
         22    1    1    2    0    0 -0.53264034972E-01  0.24554864287E+00  0.27479705520E+01  0.27594335194E+01  0.00000000000E+00 0.  1.
</event>
<event>
 5    1  0.4838219E+001  0.1550960E+01  0.7818608E-02  0.3408372E+00
         11   -1    0    0    0    0  0.00000000000E+00  0.00000000000E+00  0.39999999674E+01  0.40000000000E+01  0.51100000000E-03 0. -1.
    9000002   -1    0    0    0    0 -0.00000000000E+00 -0.00000000000E+00  0.00000000000E+00  0.93800000000E+00  0.93800000000E+00 0. -1.
         11    1    1    2    0    0 -0.15800311879E+00  0.24481831554E+00  0.29258533067E+01  0.29403263130E+01  0.51100000000E-03 0. -1.
    9000002    1    1    2    0    0  0.16658651827E+00 -0.19496519714E-01  0.55634191187E-01  0.95450005007E+00  0.93800000000E+00 0. -1.
         22    1    1    2    0    0 -0.85833994803E-02 -0.22532179583E+00  0.10185124694E+01  0.10431736369E+01  0.00000000000E+00 0. -1.
</event>
<event>
 5    1  0.4838219E+001  0.1494667E+01  0.7818608E-02  0.3476273E+00
         11   -1    0    0    0    0  0.00000000000E+00  0.00000000000E+00  0.39999999674E+01  0.40000000000E+01  0.51100000000E-03 0.  1.
    9000002   -1    0    0    0    0 -0.00000000000E+00 -0.00000000000E+00  0.00000000000E+00  0.93800000000E+00  0.93800000000E+00 0. -1.
         11    1    1    2    0    0  0.21881677076E+00 -0.36044833593E+00  0.20895949380E+01  0.21317155176E+01  0.51100000000E-03 0.  1.
    9000002    1    1    2    0    0  0.47166328519E-01  0.10764902592E+00  0.90390719959E-01  0.94964596434E+00  0.93800000000E+00 0. -1.
         22    1    1    2    0    0 -0.26598309928E+00  0.25279931001E+00  0.18200143094E+01  0.18566385180E+01  0.00000000000E+00 0.  1.
</event>
<event>
 5    1  0.4971082E+001  0.1555838E+01  0.7818608E-02  0.3402736E+00
         11   -1    0    0    0    0  0.00000000000E+00  0.00000000000E+00  0.39999999674E+01  0.40000000000E+01  0.51100000000E-03 0.  1.
    9000002   -1    0    0    0    0 -0.00000000000E+00 -0.00000000000E+00  0.00000000000E+00  0.93800000000E+00  0.93800000000E+00 0. -1.
         11    1    1    2    0    0 -0.24289251316E-02  0.20423701518E+00  0.86700487070E+00  0.89073922390E+00  0.51100000000E-03 0.  1.
    9000002    1    1    2    0    0 -0.94223288960E-02  0.21091687201E-01  0.32792049885E-01  0.93885726183E+00  0.93800000000E+00 0. -1.
         22    1    1    2    0    0  0.11851254028E-01 -0.22532870238E+00  0.31002030468E+01  0.31084035143E+01  0.00000000000E+00 0.  1.
</event>
<event>
 5    1  0.4838219E+001  0.1569406E+01  0.7818608E-02  0.3387254E+00
         11   -1    0    0    0    0  0.00000000000E+00  0.00000000000E+00  0.39999999674E+01  0.40000000000E+01  0.51100000000E-03 0.  1.
    9000002   -1    0    0    0    0 -0.00000000000E+00 -0.00000000000E+00  0.00000000000E+00  0.93800000000E+00  0.93800000000E+00 0. -1.
         11    1    1    2    0    0  0.19866114513E-01 -0.14524585323E+00  0.29111121039E+01  0.29148010160E+01  0.51100000000E-03 0.  1.
    9000002    1    1    2    0    0 -0.24248043743E+00  0.70819044171E-01  0.65927591690E-01  0.97365422348E+00  0.93800000000E+00 0. -1.
         22    1    1    2    0    0  0.22261432292E+00  0.74426809058E-01  0.10229602718E+01  0.10495447605E+01  0.00000000000E+00 0. -1.
</event>
<event>
 5    1  0.4838219E+001  0.1527323E+01  0.7818608E-02  0.3436230E+00
         11   -1    0    0    0    0  0.00000000000E+00  0.00000000000E+00  0.39999999674E+01  0.40000000000E+01  0.51100000000E-03 0.  1.
    9000002   -1    0    0    0    0 -0.00000000000E+00 -0.00000000000E+00  0.00000000000E+00  0.93800000000E+00  0.93800000000E+00 0. -1.
         11    1    1    2    0    0 -0.27416520106E+00 -0.38733679931E-01  0.21159425086E+01  0.21339821499E+01  0.51100000000E-03 0.  1.
    9000002    1    1    2    0    0 -0.89875804332E-01  0.38794134741E-01  0.61105185877E-01  0.94507168450E+00  0.93800000000E+00 0. -1.
         22    1    1    2    0    0  0.36404100539E+00 -0.60454809588E-04  0.18229522729E+01  0.18589461656E+01  0.00000000000E+00 0.  1.
</event>
<event>
 5    1  0.4838219E+001  0.1573989E+01  0.7818608E-02  0.3382088E+00
         11   -1    0    0    0    0  0.00000000000E+00  0.00000000000E+00  0.39999999674E+01  0.40000000000E+01  0.51100000000E-03 0.  1.
    9000002   -1    0    0    0    0 -0.00000000000E+00 -0.00000000000E+00  0.00000000000E+00  0.93800000000E+00  0.93800000000E+00 0.  1.
         11    1    1    2    0    0 -0.90752332527E-01 -0.14679347941E+00  0.12796979324E+01  0.12912828391E+01  0.51100000000E-03 0.  1.
    9000002    1    1    2    0    0 -0.69947690022E-01  0.20412424493E-01  0.22412775934E-01  0.94109281101E+00  0.93800000000E+00 0.  1.
         22    1    1    2    0    0  0.16070002255E+00  0.12638105492E+00  0.26978892591E+01  0.27056243498E+01  0.00000000000E+00 0. -1.
</event>
<event>
 5    1  0.4838219E+001  0.1529102E+01  0.7818608E-02  0.3434101E+00
         11   -1    0    0    0    0  0.00000000000E+00  0.00000000000E+00  0.39999999674E+01  0.40000000000E+01  0.51100000000E-03 0. -1.
    9000002   -1    0    0    0    0 -0.00000000000E+00 -0.00000000000E+00  0.00000000000E+00  0.93800000000E+00  0.93800000000E+00 0.  1.
         11    1    1    2    0    0  0.29312170299E+00 -0.41297828995E+00  0.22853949469E+01  0.23408335535E+01  0.51100000000E-03 0. -1.
    9000002    1    1    2    0    0 -0.76579161655E-01  0.36936679753E+00  0.15598520840E+00  0.10229719372E+01  0.93800000000E+00 0.  1.
         22    1    1    2    0    0 -0.21654254133E+00  0.43611492421E-01  0.15586198120E+01  0.15741945092E+01  0.00000000000E+00 0. -1.
</event>
<event>
 5    1  0.4838219E+001  0.1508812E+01  0.7818608E-02  0.3458699E+00
         11   -1    0    0    0    0  0.00000000000E+00  0.00000000000E+00  0.39999999674E+01  0.40000000000E+01  0.51100000000E-03 0. -1.
    9000002   -1    0    0    0    0 -0.00000000000E+00 -0.00000000000E+00  0.00000000000E+00  0.93800000000E+00  0.93800000000E+00 0.  1.
         11    1    1    2    0    0  0.57562138674E-01  0.33921052834E+00  0.74128860816E+00  0.81724307525E+00  0.51100000000E-03 0. -1.
    9000002    1    1    2    0    0 -0.24070196084E+00 -0.24390382857E+00  0.15547983061E+00  0.10106653696E+01  0.93800000000E+00 0.  1.
         22    1    1    2    0    0  0.18313982216E+00 -0.95306699779E-01  0.31032315286E+01  0.31100915552E+01  0.00000000000E+00 0. -1.
</event>
<event>
 5    1  0.4838219E+001  0.1524991E+01  0.7818608E-02  0.3439028E+00
         11   -1    0    0    0    0  0.00000000000E+00  0.00000000000E+00  0.39999999674E+01  0.40000000000E+01  0.51100000000E-03 0.  1.
    9000002   -1    0    0    0    0 -0.00000000000E+00 -0.00000000000E+00  0.00000000000E+00  0.93800000000E+00  0.93800000000E+00 0. -1.
         11    1    1    2    0    0  0.23396685042E+00 -0.39762975671E+00  0.10061893728E+01  0.11069178947E+01  0.51100000000E-03 0.  1.
    9000002    1    1    2    0    0 -0.47377846980E+00  0.41097441518E+00  0.35720055173E+00  0.11835549174E+01  0.93800000000E+00 0. -1.
         22    1    1    2    0    0  0.23981161937E+00 -0.13344658464E-01  0.26366100429E+01  0.26475271879E+01  0.00000000000E+00 0.  1.
</event>
<event>
 5    1  0.4838219E+001  0.1597967E+01  0.7818608E-02  0.3355573E+00
         11   -1    0    0    0    0  0.00000000000E+00  0.00000000000E+00  0.39999999674E+01  0.40000000000E+01  0.51100000000E-03 0. -1.
    9000002   -1    0    0    0    0 -0.00000000000E+00 -0.00000000000E+00  0.00000000000E+00  0.93800000000E+00  0.93800000000E+00 0. -1.
         11    1    1    2    0    0 -0.47450221097E-02 -0.19954630179E-01  0.97584517719E+00  0.97606084516E+00  0.51100000000E-03 0. -1.
    9000002    1    1    2    0    0  0.19115465615E+00  0.11025410902E+00  0.33572499389E-01  0.96419250352E+00  0.93800000000E+00 0. -1.
         22    1    1    2    0    0 -0.18640963404E+00 -0.90299478843E-01  0.29905822908E+01  0.29977466513E+01  0.00000000000E+00 0.  1.
</event>
<event>
 5    1  0.4838219E+001  0.1579952E+01  0.7818608E-02  0.3375414E+00
         11   -1    0    0    0    0  0.00000000000E+00  0.00000000000E+00  0.39999999674E+01  0.40000000000E+01  0.51100000000E-03 0. -1.
    9000002   -1    0    0    0    0 -0.00000000000E+00 -0.00000000000E+00  0.00000000000E+00  0.93800000000E+00  0.93800000000E+00 0. -1.
         11    1    1    2    0    0  0.53149736239E-01 -0.44852621762E-01  0.21459860983E+00  0.22558696018E+00  0.51100000000E-03 0. -1.
    9000002    1    1    2    0    0  0.13179376412E+00 -0.58844640361E-01  0.28432207530E-01  0.94946546982E+00  0.93800000000E+00 0. -1.
         22    1    1    2    0    0 -0.18494350036E+00  0.10369726212E+00  0.37569691500E+01  0.37629475700E+01  0.00000000000E+00 0. -1.
</event>
<event>
 5    1  0.4838219E+001  0.1557522E+01  0.7818608E-02  0.3400799E+00
         11   -1    0    0    0    0  0.00000000000E+00  0.00000000000E+00  0.39999999674E+01  0.40000000000E+01  0.51100000000E-03 0.  1.
    9000002   -1    0    0    0    0 -0.00000000000E+00 -0.00000000000E+00  0.00000000000E+00  0.93800000000E+00  0.93800000000E+00 0.  1.
         11    1    1    2    0    0 -0.10928963311E+00  0.26248977853E+00  0.25639670521E+01  0.25796845569E+01  0.51100000000E-03 0.  1.
    9000002    1    1    2    0    0  0.75234901704E-01 -0.52895937400E-01  0.36962131947E-01  0.94322238620E+00  0.93800000000E+00 0.  1.
         22    1    1    2    0    0  0.34054731409E-01 -0.20959384113E+00  0.13990707833E+01  0.14150930569E+01  0.00000000000E+00 0.  1.
</event>
<event>
 5    1  0.4838219E+001  0.1561116E+01  0.7818608E-02  0.3396679E+00
         11   -1    0    0    0    0  0.00000000000E+00  0.00000000000E+00  0.39999999674E+01  0.40000000000E+01  0.51100000000E-03 0. -1.
    9000002   -1    0    0    0    0 -0.00000000000E+00 -0.00000000000E+00  0.00000000000E+00  0.93800000000E+00  0.93800000000E+00 0. -1.
         11    1    1    2    0    0 -0.43406053077E-01 -0.20672728338E+00  0.14761956943E+01  0.14912324581E+01  0.51100000000E-03 0. -1.
    9000002    1    1    2    0    0 -0.10737971249E-01 -0.44984980616E-01  0.29907649445E-01  0.93961557033E+00  0.93800000000E+00 0. -1.
         22    1    1    2    0    0  0.54144024327E-01  0.25171226399E+00  0.24938966237E+01  0.25071519716E+01  0.00000000000E+00 0. -1.
</event>
<event>
 5    1  0.4838219E+001  0.1493053E+01  0.7818608E-02  0.3478301E+00
         11   -1    0    0    0    0  0.00000000000E+00  0.00000000000E+00  0.39999999674E+01  0.40000000000E+01  0.51100000000E-03 0. -1.
    9000002   -1    0    0    0    0 -0.00000000000E+00 -0.00000000000E+00  0.00000000000E+00  0.93800000000E+00  0.93800000000E+00 0. -1.
         11    1    1    2    0    0 -0.41086624028E-01 -0.34978979739E+00  0.94617905169E+00  0.10096019374E+01  0.51100000000E-03 0. -1.
    9000002    1    1    2    0    0  0.86090079275E-01  0.45479301887E-01  0.88521697933E-01  0.94718528264E+00  0.93800000000E+00 0. -1.
         22    1    1    2    0    0 -0.45003455247E-01  0.30431049550E+00  0.29652992177E+01  0.29812127800E+01  0.00000000000E+00 0. -1.
</event>
<event>
 5    1  0.4838219E+001  0.1457482E+01  0.7818608E-02  0.3524231E+00
         11   -1    0    0    0    0  0.00000000000E+00  0.00000000000E+00  0.39999999674E+01  0.40000000000E+01  0.51100000000E-03 0. -1.
    9000002   -1    0    0    0    0 -0.00000000000E+00 -0.00000000000E+00  0.00000000000E+00  0.93800000000E+00  0.93800000000E+00 0. -1.
         11    1    1    2    0    0 -0.27174642803E+00 -0.15164333849E+00  0.43425211539E+00  0.53424431125E+00  0.51100000000E-03 0. -1.
    9000002    1    1    2    0    0  0.24283257163E-01  0.17403696259E+00  0.13476395550E+00  0.96378621313E+00  0.93800000000E+00 0. -1.
         22    1    1    2    0    0  0.24746317087E+00 -0.22393624100E-01  0.34309838965E+01  0.34399694756E+01  0.00000000000E+00 0. -1.
</event>
<event>
 5    1  0.4838219E+001  0.1539066E+01  0.7818608E-02  0.3422276E+00
         11   -1    0    0    0    0  0.00000000000E+00  0.00000000000E+00  0.39999999674E+01  0.40000000000E+01  0.51100000000E-03 0.  1.
    9000002   -1    0    0    0    0 -0.00000000000E+00 -0.00000000000E+00  0.00000000000E+00  0.93800000000E+00  0.93800000000E+00 0.  1.
         11    1    1    2    0    0 -0.38937081723E+00 -0.10436820268E+00  0.15683907346E+01  0.16193678126E+01  0.51100000000E-03 0.  1.
    9000002    1    1    2    0    0  0.34626106912E+00 -0.12052523301E+00  0.14137964378E+00  0.10169834136E+01  0.93800000000E+00 0.  1.
         22    1    1    2    0    0  0.43109748111E-01  0.22489343569E+00  0.22902295890E+01  0.23016487738E+01  0.00000000000E+00 0.  1.
</event>
<event>
 5    1  0.4838219E+001  0.1527911E+01  0.7818608E-02  0.3435526E+00
         11   -1    0    0    0    0  0.00000000000E+00  0.00000000000E+00  0.39999999674E+01  0.40000000000E+01  0.51100000000E-03 0.  1.
    9000002   -1    0    0    0    0 -0.00000000000E+00 -0.00000000000E+00  0.00000000000E+00  0.93800000000E+00  0.93800000000E+00 0. -1.
         11    1    1    2    0    0  0.26638709245E+00  0.84756907744E-02  0.86304886610E+00  0.90326492611E+00  0.51100000000E-03 0.  1.
    9000002    1    1    2    0    0  0.56375822717E-02  0.30481595450E-01  0.54536401530E-01  0.94009527660E+00  0.93800000000E+00 0. -1.
         22    1    1    2    0    0 -0.27202467472E+00 -0.38957286225E-01  0.30824146997E+01  0.30946397973E+01  0.00000000000E+00 0.  1.
</event>
<event>
 5    1  0.4838219E+001  0.1577177E+01  0.7818608E-02  0.3378514E+00
         11   -1    0    0    0    0  0.00000000000E+00  0.00000000000E+00  0.39999999674E+01  0.40000000000E+01  0.51100000000E-03 0.  1.
    9000002   -1    0    0    0    0 -0.00000000000E+00 -0.00000000000E+00  0.00000000000E+00  0.93800000000E+00  0.93800000000E+00 0.  1.
         11    1    1    2    0    0 -0.16721812090E+00  0.39893321028E-01  0.14495736112E+01  0.14597319249E+01  0.51100000000E-03 0.  1.
    9000002    1    1    2    0    0 -0.17931151485E-01 -0.11914914557E+00  0.26251640396E-01  0.94607145275E+00  0.93800000000E+00 0.  1.
         22    1    1    2    0    0  0.18514927239E+00  0.79255824546E-01  0.25241747157E+01  0.25321966224E+01  0.00000000000E+00 0.  1.
</event>
<event>
 5    1  0.4838219E+001  0.1585665E+01  0.7818608E-02  0.3369070E+00
         11   -1    0    0    0    0  0.00000000000E+00  0.00000000000E+00  0.39999999674E+01  0.40000000000E+01  0.51100000000E-03 0. -1.
    9000002   -1    0    0    0    0 -0.00000000000E+00 -0.00000000000E+00  0.00000000000E+00  0.93800000000E+00  0.93800000000E+00 0.  1.
         11    1    1    2    0    0 -0.14253968236E+00 -0.18656802097E+00  0.16304703929E+01  0.16472884236E+01  0.51100000000E-03 0. -1.
    9000002    1    1    2    0    0  0.41146022016E+00  0.11693143171E+00  0.13587030668E+00  0.10398448022E+01  0.93800000000E+00 0.  1.
         22    1    1    2    0    0 -0.26892053780E+00  0.69636589267E-01  0.22336592678E+01  0.22508667741E+01  0.00000000000E+00 0. -1.
</event>
<event>
 5    1  0.4838219E+001  0.1540443E+01  0.7818608E-02  0.3420655E+00
         11   -1    0    0    0    0  0.00000000000E+00  0.00000000000E+00  0.39999999674E+01  0.40000000000E+01  0.51100000000E-03 0.  1.
    9000002   -1    0    0    0    0 -0.00000000000E+00 -0.00000000000E+00  0.00000000000E+00  0.93800000000E+00  0.93800000000E+00 0. -1.
         11    1    1    2    0    0  0.22750743788E+00 -0.20637336203E+00  0.29123195916E+01  0.29284731967E+01  0.51100000000E-03 0.  1.
    9000002    1    1    2    0    0 -0.18625993584E+00 -0.47043104635E-01  0.70075743019E-01  0.96003147196E+00  0.93800000000E+00 0. -1.
         22    1    1    2    0    0 -0.41247502032E-01  0.25341646667E+00  0.10176046327E+01  0.10494953314E+01  0.00000000000E+00 0. -1.
</event>
<event>
 5    1  0.4838219E+001  0.1500097E+01  0.7818608E-02  0.3469484E+00
         11   -1    0    0    0    0  0.00000000000E+00  0.00000000000E+00  0.39999999674E+01  0.40000000000E+01  0.51100000000E-03 0. -1.
    9000002   -1    0    0    0    0 -0.00000000000E+00 -0.00000000000E+00  0.00000000000E+00  0.93800000000E+00  0.93800000000E+00 0. -1.
         11    1    1    2    0    0 -0.21587552036E+00  0.50650434954E+00  0.17096985530E+01  0.17961676702E+01  0.51100000000E-03 0. -1.
    9000002    1    1    2    0    0  0.27570577162E+00 -0.30536382838E+00  0.20321522905E+00  0.10442227586E+01  0.93800000000E+00 0. -1.
         22    1    1    2    0    0 -0.59830251256E-01 -0.20114052116E+00  0.20870861853E+01  0.20976095712E+01  0.00000000000E+00 0.  1.
</event>
<event>
 5    1  0.4838219E+001  0.1514319E+01  0.7818608E-02  0.3451953E+00
         11   -1    0    0    0    0  0.00000000000E+00  0.00000000000E+00  0.39999999674E+01  0.40000000000E+01  0.51100000000E-03 0. -1.
    9000002   -1    0    0    0    0 -0.00000000000E+00 -0.00000000000E+00  0.00000000000E+00  0.93800000000E+00  0.93800000000E+00 0. -1.
         11    1    1    2    0    0  0.17176413538E+00 -0.26655556293E+00  0.34731891244E+01  0.34876349782E+01  0.51100000000E-03 0. -1.
    9000002    1    1    2    0    0 -0.22039716369E+00  0.49003271234E-01  0.10142414089E+00  0.97010673985E+00  0.93800000000E+00 0. -1.
         22    1    1    2    0    0  0.48633028303E-01  0.21755229170E+00  0.42538670208E+00  0.48025828195E+00  0.00000000000E+00 0.  1.
</event>
<event>
 5    1  0.4838219E+001  0.1563523E+01  0.7818608E-02  0.3393931E+00
         11   -1    0    0    0    0  0.00000000000E+00  0.00000000000E+00  0.39999999674E+01  0.40000000000E+01  0.51100000000E-03 0. -1.
    9000002   -1    0    0    0    0 -0.00000000000E+00 -0.00000000000E+00  0.00000000000E+00  0.93800000000E+00  0.93800000000E+00 0. -1.
         11    1    1    2    0    0  0.96170079007E-01 -0.23010100092E+00  0.28047108009E+01  0.28157766411E+01  0.51100000000E-03 0. -1.
    9000002    1    1    2    0    0 -0.32097508258E+00  0.10297858280E+00  0.10555550165E+00  0.10023051212E+01  0.93800000000E+00 0. -1.
         22    1    1    2    0    0  0.22480500357E+00  0.12712241811E+00  0.10897336648E+01  0.11199182377E+01  0.00000000000E+00 0. -1.
</event>
<event>
 5    1  0.4838219E+001  0.1535075E+01  0.7818608E-02  0.3426993E+00
         11   -1    0    0    0    0  0.00000000000E+00  0.00000000000E+00  0.39999999674E+01  0.40000000000E+01  0.51100000000E-03 0. -1.
    9000002   -1    0    0    0    0 -0.00000000000E+00 -0.00000000000E+00  0.00000000000E+00  0.93800000000E+00  0.93800000000E+00 0. -1.
         11    1    1    2    0    0 -0.76458284295E-01  0.26443854471E+00  0.11372436356E+01  0.11700841683E+01  0.51100000000E-03 0. -1.
    9000002    1    1    2    0    0  0.93326191349E-01  0.30525046098E-01  0.55074307105E-01  0.94473209733E+00  0.93800000000E+00 0. -1.
         22    1    1    2    0    0 -0.16867907054E-01 -0.29496359081E+00  0.28076820247E+01  0.28231837343E+01  0.00000000000E+00 0. -1.
</event>
<event>
 5    1  0.4838219E+001  0.1495473E+01  0.7818608E-02  0.3475262E+00
         11   -1    0    0    0    0  0.00000000000E+00  0.00000000000E+00  0.39999999674E+01  0.40000000000E+01  0.51100000000E-03 0. -1.
    9000002   -1    0    0    0    0 -0.00000000000E+00 -0.00000000000E+00  0.00000000000E+00  0.93800000000E+00  0.93800000000E+00 0.  1.
         11    1    1    2    0    0 -0.43870998783E+00  0.25204855083E+00  0.16767555238E+01  0.17514292087E+01  0.51100000000E-03 0. -1.
    9000002    1    1    2    0    0  0.34512423633E+00  0.15168348644E-01  0.16897314249E+00  0.10137735152E+01  0.93800000000E+00 0.  1.
         22    1    1    2    0    0  0.93585751503E-01 -0.26721689948E+00  0.21542713011E+01  0.21727972761E+01  0.00000000000E+00 0.  1.
</event>
<event>
 5    1  0.4838219E+001  0.1550658E+01  0.7818608E-02  0.3408723E+00
         11   -1    0    0    0    0  0.00000000000E+00  0.00000000000E+00  0.39999999674E+01  0.40000000000E+01  0.51100000000E-03 0.  1.
    9000002   -1    0    0    0    0 -0.00000000000E+00 -0.00000000000E+00  0.00000000000E+00  0.93800000000E+00  0.93800000000E+00 0.  1.
         11    1    1    2    0    0  0.73475734343E-01 -0.29385872262E+00  0.17381518984E+01  0.17643480142E+01  0.51100000000E-03 0.  1.
    9000002    1    1    2    0    0  0.51761208377E-02  0.91816056612E-01  0.42201412776E-01  0.94344154017E+00  0.93800000000E+00 0.  1.
         22    1    1    2    0    0 -0.78651855180E-01  0.20204266601E+00  0.22196466562E+01  0.22302104456E+01  0.00000000000E+00 0.  1.
</event>
<event>
 5    1  0.4838219E+001  0.1566007E+01  0.7818608E-02  0.3391106E+00
         11   -1    0    0    0    0  0.00000000000E+00  0.00000000000E+00  0.39999999674E+01  0.40000000000E+01  0.51100000000E-03 0.  1.
    9000002   -1    0    0    0    0 -0.00000000000E+00 -0.00000000000E+00  0.00000000000E+00  0.93800000000E+00  0.93800000000E+00 0. -1.
         11    1    1    2    0    0 -0.13991879270E+00 -0.19649355837E+00  0.21080684613E+01  0.21218246595E+01  0.51100000000E-03 0.  1.
    9000002    1    1    2    0    0  0.92992195103E-01 -0.83014197940E-02  0.30712317095E-01  0.94313504247E+00  0.93800000000E+00 0. -1.
         22    1    1    2    0    0  0.46926597592E-01  0.20479497817E+00  0.18612191890E+01  0.18730402980E+01  0.00000000000E+00 0.  1.
</event>
<event>
 5    1  0.4838219E+001  0.1598059E+01  0.7818608E-02  0.3355473E+00
         11   -1    0    0    0    0  0.00000000000E+00  0.00000000000E+00  0.39999999674E+01  0.40000000000E+01  0.51100000000E-03 0.  1.
    9000002   -1    0    0    0    0 -0.00000000000E+00 -0.00000000000E+00  0.00000000000E+00  0.93800000000E+00  0.93800000000E+00 0. -1.
         11    1    1    2    0    0  0.23504098193E+00  0.52944025957E-01  0.18706405219E+01  0.18860921389E+01  0.51100000000E-03 0.  1.
    9000002    1    1    2    0    0 -0.44867782675E+00 -0.20199721019E+00  0.16697052100E+00  0.10723049100E+01  0.93800000000E+00 0. -1.
         22    1    1    2    0    0  0.21363684482E+00  0.14905318423E+00  0.19623889244E+01  0.19796029511E+01  0.00000000000E+00 0.  1.
</event>
<event>
 5    1  0.4838219E+001  0.1543679E+01  0.7818608E-02  0.3416856E+00
         11   -1    0    0    0    0  0.00000000000E+00  0.00000000000E+00  0.39999999674E+01  0.40000000000E+01  0.51100000000E-03 0.  1.
    9000002   -1    0    0    0    0 -0.00000000000E+00 -0.00000000000E+00  0.00000000000E+00  0.93800000000E+00  0.93800000000E+00 0. -1.
         11    1    1    2    0    0 -0.13999745699E+00 -0.17379923407E+00  0.75354656521E+00  0.78589957933E+00  0.51100000000E-03 0.  1.
    9000002    1    1    2    0    0 -0.33569315702E-01  0.15887902560E-01  0.42637341451E-01  0.93970275475E+00  0.93800000000E+00 0. -1.
         22    1    1    2    0    0  0.17356677269E+00  0.15791133151E+00  0.32038160607E+01  0.32123976659E+01  0.00000000000E+00 0.  1.
</event>
<event>
 5    1  0.4838219E+001  0.1581135E+01  0.7818608E-02  0.3374096E+00
         11   -1    0    0    0    0  0.00000000000E+00  0.00000000000E+00  0.39999999674E+01  0.40000000000E+01  0.51100000000E-03 0. -1.
    9000002   -1    0    0    0    0 -0.00000000000E+00 -0.00000000000E+00  0.00000000000E+00  0.93800000000E+00  0.93800000000E+00 0. -1.
         11    1    1    2    0    0  0.12756583386E+00 -0.85260418466E-02  0.13025707234E+01  0.13088301975E+01  0.51100000000E-03 0. -1.
    9000002    1    1    2    0    0  0.69138382819E-01  0.12684066958E+00  0.27568144411E-01  0.94945914816E+00  0.93800000000E+00 0. -1.
         22    1    1    2    0    0 -0.19670421668E+00 -0.11831462774E+00  0.26698610996E+01  0.26797106543E+01  0.00000000000E+00 0. -1.
</event>
<event>
 5    1  0.5087176E+001  0.1559450E+01  0.7818608E-02  0.3398586E+00
         11   -1    0    0    0    0  0.00000000000E+00  0.00000000000E+00  0.39999999674E+01  0.40000000000E+01  0.51100000000E-03 0.  1.
    9000002   -1    0    0    0    0 -0.00000000000E+00 -0.00000000000E+00  0.00000000000E+00  0.93800000000E+00  0.93800000000E+00 0.  1.
         11    1    1    2    0    0  0.18285030914E-01 -0.20640791188E+00  0.27917854315E+01  0.27994650784E+01  0.51100000000E-03 0.  1.
    9000002    1    1    2    0    0 -0.20734796013E-01 -0.20509497939E-01  0.30281448727E-01  0.93894171140E+00  0.93800000000E+00 0.  1.
         22    1    1    2    0    0  0.24497650990E-02  0.22691740982E+00  0.11779330871E+01  0.11995932102E+01  0.00000000000E+00 0.  1.
</event>
<event>
 5    1  0.4838219E+001  0.1408874E+01  0.7818608E-02  0.3592756E+00
         11   -1    0    0    0    0  0.00000000000E+00  0.00000000000E+00  0.39999999674E+01  0.40000000000E+01  0.51100000000E-03 0. -1.
    9000002   -1    0    0    0    0 -0.00000000000E+00 -0.00000000000E+00  0.00000000000E+00  0.93800000000E+00  0.93800000000E+00 0.  1.
         11    1    1    2    0    0  0.44410803699E+00  0.44625803487E+00  0.18846009531E+01  0.19869824346E+01  0.51100000000E-03 0. -1.
    9000002    1    1    2    0    0 -0.74082404887E-01 -0.22781710610E+00  0.20069636891E+00  0.98869199908E+00  0.93800000000E+00 0.  1.
         22    1    1    2    0    0 -0.37002563211E+00 -0.21844092877E+00  0.19147026454E+01  0.19623255663E+01  0.00000000000E+00 0.  1.
</event>
<event>
 5    1  0.4838219E+001  0.1594348E+01  0.7818608E-02  0.3359520E+00
         11   -1    0    0    0    0  0.00000000000E+00  0.00000000000E+00  0.39999999674E+01  0.40000000000E+01  0.51100000000E-03 0.  1.
    9000002   -1    0    0    0    0 -0.00000000000E+00 -0.00000000000E+00  0.00000000000E+00  0.93800000000E+00  0.93800000000E+00 0.  1.
         11    1    1    2    0    0  0.26145343380E-01  0.27914268606E-01  0.36525499923E+00  0.36725231239E+00  0.51100000000E-03 0.  1.
    9000002    1    1    2    0    0  0.19478057641E+00 -0.29045423108E-01  0.29669990475E-01  0.95890949411E+00  0.93800000000E+00 0.  1.
         22    1    1    2    0    0 -0.22092591979E+00  0.11311545016E-02  0.36050749777E+01  0.36118381935E+01  0.00000000000E+00 0.  1.
</event>
<event>
 5    1  0.4838219E+001  0.1448602E+01  0.7818608E-02  0.3536080E+00
         11   -1    0    0    0    0  0.00000000000E+00  0.00000000000E+00  0.39999999674E+01  0.40000000000E+01  0.51100000000E-03 0. -1.
    9000002   -1    0    0    0    0 -0.00000000000E+00 -0.00000000000E+00  0.00000000000E+00  0.93800000000E+00  0.93800000000E+00 0. -1.
         11    1    1    2    0    0  0.42907533281E+00 -0.22946268875E+00  0.27058620130E+01  0.27492632216E+01  0.51100000000E-03 0. -1.
    9000002    1    1    2    0    0 -0.22762028056E+00 -0.14660575657E+00  0.17607609898E+00  0.99204386627E+00  0.93800000000E+00 0. -1.
         22    1    1    2    0    0 -0.20145505225E+00  0.37606844532E+00  0.11180618553E+01  0.11966929122E+01  0.00000000000E+00 0. -1.
</event>
<event>
 5    1  0.4838219E+001  0.1535679E+01  0.7818608E-02  0.3426277E+00
         11   -1    0    0    0    0  0.00000000000E+00  0.00000000000E+00  0.39999999674E+01  0.40000000000E+01  0.51100000000E-03 0.  1.
    9000002   -1    0    0    0    0 -0.00000000000E+00 -0.00000000000E+00  0.00000000000E+00  0.93800000000E+00  0.93800000000E+00 0.  1.
         11    1    1    2    0    0  0.37829567979E+00 -0.12240042582E+00  0.24130058006E+01  0.24455442626E+01  0.51100000000E-03 0.  1.
    9000002    1    1    2    0    0 -0.21066607293E+00 -0.62562771274E-01  0.81980241312E-01  0.96688109641E+00  0.93800000000E+00 0.  1.
         22    1    1    2    0    0 -0.16762960686E+00  0.18496319709E+00  0.15050139255E+01  0.15255746410E+01  0.00000000000E+00 0. -1.
</event>
<event>
 5    1  0.4838219E+001  0.1566223E+01  0.7818608E-02  0.3390859E+00
         11   -1    0    0    0    0  0.00000000000E+00  0.00000000000E+00  0.39999999674E+01  0.40000000000E+01  0.51100000000E-03 0.  1.
    9000002   -1    0    0    0    0 -0.00000000000E+00 -0.00000000000E+00  0.00000000000E+00  0.93800000000E+00  0.93800000000E+00 0.  1.
         11    1    1    2    0    0  0.14802702522E+00  0.12094687899E+00  0.18200073964E+01  0.18300183966E+01  0.51100000000E-03 0.  1.
    9000002    1    1    2    0    0  0.61618398149E-01  0.20833088846E-01  0.27492995389E-01  0.94065440486E+00  0.93800000000E+00 0.  1.
         22    1    1    2    0    0 -0.20964542337E+00 -0.14177996783E+00  0.21524995755E+01  0.21673271985E+01  0.00000000000E+00 0.  1.
</event>
<event>
 5    1  0.4838219E+001  0.1581057E+01  0.7818608E-02  0.3374184E+00
         11   -1    0    0    0    0  0.00000000000E+00  0.00000000000E+00  0.39999999674E+01  0.40000000000E+01  0.51100000000E-03 0. -1.
    9000002   -1    0    0    0    0 -0.00000000000E+00 -0.00000000000E+00  0.00000000000E+00  0.93800000000E+00  0.93800000000E+00 0. -1.
         11    1    1    2    0    0 -0.99667955405E-01 -0.82629912583E-01  0.18328383987E+01  0.18374053066E+01  0.51100000000E-03 0. -1.
    9000002    1    1    2    0    0 -0.73304409447E-01 -0.26523411882E-01  0.17675821337E-01  0.94139973576E+00  0.93800000000E+00 0. -1.
         22    1    1    2    0    0  0.17297236485E+00  0.10915332447E+00  0.21494857473E+01  0.21591949576E+01  0.00000000000E+00 0. -1.
</event>
<event>
 5    1  0.4838219E+001  0.1596848E+01  0.7818608E-02  0.3356792E+00
         11   -1    0    0    0    0  0.00000000000E+00  0.00000000000E+00  0.39999999674E+01  0.40000000000E+01  0.51100000000E-03 0.  1.
    9000002   -1    0    0    0    0 -0.00000000000E+00 -0.00000000000E+00  0.00000000000E+00  0.93800000000E+00  0.93800000000E+00 0.  1.
         11    1    1    2    0    0 -0.32985960923E-01 -0.43018046911E+00  0.23059688106E+01  0.23459828913E+01  0.51100000000E-03 0.  1.
    9000002    1    1    2    0    0  0.15006719501E+00  0.67552635182E+00  0.34464056796E+00  0.12155151731E+01  0.93800000000E+00 0.  1.
         22    1    1    2    0    0 -0.11708123409E+00 -0.24534588271E+00  0.13493905888E+01  0.13765019355E+01  0.00000000000E+00 0.  1.
</event>
<event>
 5    1  0.4838219E+001  0.1478551E+01  0.7818608E-02  0.3496738E+00
         11   -1    0    0    0    0  0.00000000000E+00  0.00000000000E+00  0.39999999674E+01  0.40000000000E+01  0.51100000000E-03 0. -1.
    9000002   -1    0    0    0    0 -0.00000000000E+00 -0.00000000000E+00  0.00000000000E+00  0.93800000000E+00  0.93800000000E+00 0. -1.
         11    1    1    2    0    0 -0.34040716535E+00  0.16355433071E+00  0.24663394204E+01  0.24950866628E+01  0.51100000000E-03 0. -1.
    9000002    1    1    2    0    0 -0.94961165918E-01 -0.30302689184E+00  0.17015470971E+00  0.10048082133E+01  0.93800000000E+00 0. -1.
         22    1    1    2    0    0  0.43536833127E+00  0.13947256113E+00  0.13635058373E+01  0.14381051239E+01  0.00000000000E+00 0. -1.
</event>
<event>
 5    1  0.4838219E+001  0.1529113E+01  0.7818608E-02  0.3434088E+00
         11   -1    0    0    0    0  0.00000000000E+00  0.00000000000E+00  0.39999999674E+01  0.40000000000E+01  0.51100000000E-03 0.  1.
    9000002   -1    0    0    0    0 -0.00000000000E+00 -0.00000000000E+00  0.00000000000E+00  0.93800000000E+00  0.93800000000E+00 0. -1.
         11    1    1    2    0    0  0.33218939295E+00  0.94921992094E-02  0.16989472564E+01  0.17311446895E+01  0.51100000000E-03 0.  1.
    9000002    1    1    2    0    0 -0.47846889601E-01  0.11050917391E+00  0.63185772153E-01  0.94780696567E+00  0.93800000000E+00 0. -1.
         22    1    1    2    0    0 -0.28434250335E+00 -0.12000137312E+00  0.22378669388E+01  0.22590483449E+01  0.00000000000E+00 0.  1.
</event>
<event>
 5    1  0.6130716E+001  0.1553737E+01  0.7818608E-02  0.3405159E+00
         11   -1    0    0    0    0  0.00000000000E+00  0.00000000000E+00  0.39999999674E+01  0.40000000000E+01  0.51100000000E-03 0.  1.
    9000002   -1    0    0    0    0 -0.00000000000E+00 -0.00000000000E+00  0.00000000000E+00  0.93800000000E+00  0.93800000000E+00 0.  1.
         11    1    1    2    0    0  0.21661798737E+00  0.12203544143E+00  0.30454294039E+01  0.30555615714E+01  0.51100000000E-03 0.  1.
    9000002    1    1    2    0    0 -0.50438961301E-01  0.56998049331E-02  0.35790595840E-01  0.94005401087E+00  0.93800000000E+00 0.  1.
         22    1    1    2    0    0 -0.16617902607E+00 -0.12773524636E+00  0.91877996759E+00  0.94238441769E+00  0.00000000000E+00 0. -1.
</event>
<event>
 5    1  0.4838219E+001  0.1368698E+01  0.7818608E-02  0.3658399E+00
         11   -1    0    0    0    0  0.00000000000E+00  0.00000000000E+00  0.39999999674E+01  0.40000000000E+01  0.51100000000E-03 0.  1.
    9000002   -1    0    0    0    0 -0.00000000000E+00 -0.00000000000E+00  0.00000000000E+00  0.93800000000E+00  0.93800000000E+00 0. -1.
         11    1    1    2    0    0 -0.41209285953E+00 -0.52134005274E+00  0.15078146782E+01  0.16477625255E+01  0.51100000000E-03 0.  1.
    9000002    1    1    2    0    0  0.71903568964E-01  0.24425025512E+00  0.24734553707E+00  0.10029217941E+01  0.93800000000E+00 0. -1.
         22    1    1    2    0    0  0.34018929057E+00  0.27708979762E+00  0.22448397521E+01  0.22873156804E+01  0.00000000000E+00 0.  1.
</event>
<event>
 5    1  0.4838219E+001  0.1598061E+01  0.7818608E-02  0.3355470E+00
         11   -1    0    0    0    0  0.00000000000E+00  0.00000000000E+00  0.39999999674E+01  0.40000000000E+01  0.51100000000E-03 0.  1.
    9000002   -1    0    0    0    0 -0.00000000000E+00 -0.00000000000E+00  0.00000000000E+00  0.93800000000E+00  0.93800000000E+00 0.  1.
         11    1    1    2    0    0 -0.21585334045E-02 -0.11106654617E+00  0.92255512301E+00  0.92921937833E+00  0.51100000000E-03 0.  1.
    9000002    1    1    2    0    0  0.69137226321E-01  0.60927459154E+00  0.26471451580E+00  0.11514830693E+01  0.93800000000E+00 0.  1.
         22    1    1    2    0    0 -0.66978692916E-01 -0.49820804537E+00  0.28127303286E+01  0.28572975524E+01  0.00000000000E+00 0.  1.
</event>
<event>
 5    1  0.4838219E+001  0.1542954E+01  0.7818608E-02  0.3417706E+00
         11   -1    0    0    0    0  0.00000000000E+00  0.00000000000E+00  0.39999999674E+01  0.40000000000E+01  0.51100000000E-03 0.  1.
    9000002   -1    0    0    0    0 -0.00000000000E+00 -0.00000000000E+00  0.00000000000E+00  0.93800000000E+00  0.93800000000E+00 0. -1.
         11    1    1    2    0    0 -0.58861372190E-01  0.19795308667E+00  0.53912178154E+00  0.57732368920E+00  0.51100000000E-03 0.  1.
    9000002    1    1    2    0    0 -0.19471736939E+00 -0.12602593766E+00  0.80020149790E-01  0.96955897978E+00  0.93800000000E+00 0. -1.
         22    1    1    2    0    0  0.25357874158E+00 -0.71927149009E-01  0.33808580360E+01  0.33911173310E+01  0.00000000000E+00 0.  1.
</event>
<event>
 5    1  0.4838219E+001  0.1580112E+01  0.7818608E-02  0.3375236E+00
         11   -1    0    0    0    0  0.00000000000E+00  0.00000000000E+00  0.39999999674E+01  0.40000000000E+01  0.51100000000E-03 0.  1.
    9000002   -1    0    0    0    0 -0.00000000000E+00 -0.00000000000E+00  0.00000000000E+00  0.93800000000E+00  0.93800000000E+00 0. -1.
         11    1    1    2    0    0  0.11799399851E+00 -0.49421638094E-01  0.12849285149E+01  0.12912810041E+01  0.51100000000E-03 0.  1.
    9000002    1    1    2    0    0  0.82571323319E-01 -0.39044292985E-01  0.19898854179E-01  0.94264651097E+00  0.93800000000E+00 0. -1.
         22    1    1    2    0    0 -0.20056532183E+00  0.88465931079E-01  0.26951725983E+01  0.27040724849E+01  0.00000000000E+00 0.  1.
</event>
<event>
 5    1  0.4838219E+001  0.1462685E+01  0.7818608E-02  0.3517362E+00
         11   -1    0    0    0    0  0.00000000000E+00  0.00000000000E+00  0.39999999674E+01  0.40000000000E+01  0.51100000000E-03 0.  1.
    9000002   -1    0    0    0    0 -0.00000000000E+00 -0.00000000000E+00  0.00000000000E+00  0.93800000000E+00  0.93800000000E+00 0.  1.
         11    1    1    2    0    0  0.48834256655E-01 -0.55754253382E-01  0.37136558432E+01  0.37143954157E+01  0.51100000000E-03 0.  1.
    9000002    1    1    2    0    0  0.44507534956E-01 -0.13308834928E+00  0.12164278602E+00  0.95620834381E+00  0.93800000000E+00 0.  1.
         22    1    1    2    0    0 -0.93341791611E-01  0.18884260266E+00  0.16470133816E+00  0.26739624050E+00  0.00000000000E+00 0. -1.
</event>
<event>
 5    1  0.4838219E+001  0.1581400E+01  0.7818608E-02  0.3373802E+00
         11   -1    0    0    0    0  0.00000000000E+00  0.00000000000E+00  0.39999999674E+01  0.40000000000E+01  0.51100000000E-03 0.  1.
    9000002   -1    0    0    0    0 -0.00000000000E+00 -0.00000000000E+00  0.00000000000E+00  0.93800000000E+00  0.93800000000E+00 0. -1.
         11    1    1    2    0    0 -0.12653301126E+00  0.32812256515E-01  0.18072407065E+01  0.18119620525E+01  0.51100000000E-03 0.  1.
    9000002    1    1    2    0    0 -0.73154900227E-01 -0.13067898737E+00  0.28421293655E-01  0.95030542832E+00  0.93800000000E+00 0. -1.
         22    1    1    2    0    0  0.19968791148E+00  0.97866730851E-01  0.21643379672E+01  0.21757325192E+01  0.00000000000E+00 0.  1.
</event>
<event>
 5    1  0.4838219E+001  0.1577606E+01  0.7818608E-02  0.3378034E+00
         11   -1    0    0    0    0  0.00000000000E+00  0.00000000000E+00  0.39999999674E+01  0.40000000000E+01  0.51100000000E-03 0.  1.
    9000002   -1    0    0    0    0 -0.00000000000E+00 -0.00000000000E+00  0.00000000000E+00  0.93800000000E+00  0.93800000000E+00 0.  1.
         11    1    1    2    0    0 -0.10756241815E+00 -0.57301083981E-01  0.69364130369E+00  0.70426671605E+00  0.51100000000E-03 0.  1.
    9000002    1    1    2    0    0 -0.12234042845E+00  0.81093513353E-01  0.30679264536E-01  0.94990976183E+00  0.93800000000E+00 0.  1.
         22    1    1    2    0    0  0.22990284660E+00 -0.23792429372E-01  0.32756793991E+01  0.32838235221E+01  0.00000000000E+00 0.  1.
</event>
<event>
 5    1  0.4838219E+001  0.1578383E+01  0.7818608E-02  0.3377165E+00
         11   -1    0    0    0    0  0.00000000000E+00  0.00000000000E+00  0.39999999674E+01  0.40000000000E+01  0.51100000000E-03 0.  1.
    9000002   -1    0    0    0    0 -0.00000000000E+00 -0.00000000000E+00  0.00000000000E+00  0.93800000000E+00  0.93800000000E+00 0. -1.
         11    1    1    2    0    0  0.27702839700E+00  0.58230491495E-01  0.26183297636E+01  0.26335881483E+01  0.51100000000E-03 0.  1.
    9000002    1    1    2    0    0 -0.32070463116E+00  0.14128169638E+00  0.99704195533E-01  0.10062787411E+01  0.93800000000E+00 0. -1.
         22    1    1    2    0    0  0.43676234161E-01 -0.19951218788E+00  0.12819660083E+01  0.12981331106E+01  0.00000000000E+00 0.  1.
</event>
<event>
 5    1  0.5155786E+001  0.1546360E+01  0.7818608E-02  0.3413722E+00
         11   -1    0    0    0    0  0.00000000000E+00  0.00000000000E+00  0.39999999674E+01  0.40000000000E+01  0.51100000000E-03 0. -1.
    9000002   -1    0    0    0    0 -0.00000000000E+00 -0.00000000000E+00  0.00000000000E+00  0.93800000000E+00  0.93800000000E+00 0. -1.
         11    1    1    2    0    0 -0.22672279815E-01 -0.24470220909E+00  0.30268218707E+01  0.30367818659E+01  0.51100000000E-03 0. -1.
    9000002    1    1    2    0    0  0.51517374449E-01  0.11414849722E-01  0.41559611549E-01  0.94040179709E+00  0.93800000000E+00 0. -1.
         22    1    1    2    0    0 -0.28845094634E-01  0.23328735937E+00  0.93161848513E+00  0.96081633696E+00  0.00000000000E+00 0.  1.
</event>
<event>
 5    1  0.4838219E+001  0.1564193E+01  0.7818608E-02  0.3393169E+00
         11   -1    0    0    0    0  0.00000000000E+00  0.00000000000E+00  0.39999999674E+01  0.40000000000E+01  0.51100000000E-03 0.  1.
    9000002   -1    0    0    0    0 -0.00000000000E+00 -0.00000000000E+00  0.00000000000E+00  0.93800000000E+00  0.93800000000E+00 0.  1.
         11    1    1    2    0    0 -0.12935614155E+00  0.88218134504E-01  0.23417541049E+01  0.23469827438E+01  0.51100000000E-03 0.  1.
    9000002    1    1    2    0    0 -0.15640560631E+00 -0.17531047810E+00  0.64073453104E-01  0.96909539510E+00  0.93800000000E+00 0.  1.
         22    1    1    2    0    0  0.28576174786E+00  0.87092343592E-01  0.15941724093E+01  0.16219218611E+01  0.00000000000E+00 0. -1.
</event>
<event>
 5    1  0.4838219E+001  0.1554715E+01  0.7818608E-02  0.3404030E+00
         11   -1    0    0    0    0  0.00000000000E+00  0.00000000000E+00  0.39999999674E+01  0.40000000000E+01  0.51100000000E-03 0. -1.
    9000002   -1    0    0    0    0 -0.00000000000E+00 -0.00000000000E+00  0.00000000000E+00  0.93800000000E+00  0.93800000000E+00 0. -1.
         11    1    1    2    0    0 -0.11755538615E-01  0.27442385846E+00  0.17919198774E+01  0.18128496228E+01  0.51100000000E-03 0. -1.
    9000002    1    1    2    0    0 -0.11144091206E+00 -0.62044710908E-01  0.44493564580E-01  0.94767731867E+00  0.93800000000E+00 0. -1.
         22    1    1    2    0    0  0.12319645068E+00 -0.21237914755E+00  0.21635865254E+01  0.21774730585E+01  0.00000000000E+00 0. -1.
</event>
<event>
 5    1  0.4838219E+001  0.1450432E+01  0.7818608E-02  0.3533625E+00
         11   -1    0    0    0    0  0.00000000000E+00  0.00000000000E+00  0.39999999674E+01  0.40000000000E+01  0.51100000000E-03 0.  1.
    9000002   -1    0    0    0    0 -0.00000000000E+00 -0.00000000000E+00  0.00000000000E+00  0.93800000000E+00  0.93800000000E+00 0. -1.
         11    1    1    2    0    0  0.12179492058E+00  0.37300875526E+00  0.77108226299E+00  0.86518070459E+00  0.51100000000E-03 0.  1.
    9000002    1    1    2    0    0  0.22618254148E+00 -0.12579151048E+00  0.17431996732E+00  0.98854109535E+00  0.93800000000E+00 0. -1.
         22    1    1    2    0    0 -0.34797746206E+00 -0.24721724478E+00  0.30545977370E+01  0.30842782001E+01  0.00000000000E+00 0.  1.
</event>
<event>
 5    1  0.4838219E+001  0.1483503E+01  0.7818608E-02  0.3490398E+00
         11   -1    0    0    0    0  0.00000000000E+00  0.00000000000E+00  0.39999999674E+01  0.40000000000E+01  0.51100000000E-03 0. -1.
    9000002   -1    0    0    0    0 -0.00000000000E+00 -0.00000000000E+00  0.00000000000E+00  0.93800000000E+00  0.93800000000E+00 0.  1.
         11    1    1    2    0    0 -0.35265863237E+00  0.32109748278E+00  0.63693455932E+00  0.79571200720E+00  0.51100000000E-03 0. -1.
    9000002    1    1    2    0    0  0.38043169656E+00 -0.66727586461E+00  0.59134550036E+00  0.13488954207E+01  0.93800000000E+00 0.  1.
         22    1    1    2    0    0 -0.27773064190E-01  0.34617838183E+00  0.27717199077E+01  0.27933925721E+01  0.00000000000E+00 0. -1.
</event>
<event>
 5    1  0.4838219E+001  0.1588632E+01  0.7818608E-02  0.3365795E+00
         11   -1    0    0    0    0  0.00000000000E+00  0.00000000000E+00  0.39999999674E+01  0.40000000000E+01  0.51100000000E-03 0. -1.
    9000002   -1    0    0    0    0 -0.00000000000E+00 -0.00000000000E+00  0.00000000000E+00  0.93800000000E+00  0.93800000000E+00 0. -1.
         11    1    1    2    0    0  0.21756658356E-01  0.17334871486E+00  0.23368135946E+01  0.23433354788E+01  0.51100000000E-03 0. -1.
    9000002    1    1    2    0    0  0.17153156167E+00 -0.27770629632E+00  0.80082555560E-01  0.99639403821E+00  0.93800000000E+00 0. -1.
         22    1    1    2    0    0 -0.19328822003E+00  0.10435758146E+00  0.15831038172E+01  0.15982704830E+01  0.00000000000E+00 0.  1.
</event>
<event>
 5    1  0.4838219E+001  0.1527440E+01  0.7818608E-02  0.3436089E+00
         11   -1    0    0    0    0  0.00000000000E+00  0.00000000000E+00  0.39999999674E+01  0.40000000000E+01  0.51100000000E-03 0.  1.
    9000002   -1    0    0    0    0 -0.00000000000E+00 -0.00000000000E+00  0.00000000000E+00  0.93800000000E+00  0.93800000000E+00 0.  1.
         11    1    1    2    0    0  0.30362549901E+00 -0.46533296424E-01  0.99001318867E+00  0.10365713512E+01  0.51100000000E-03 0.  1.
    9000002    1    1    2    0    0 -0.10103648587E+00 -0.96521767198E-02  0.61522942250E-01  0.94547903648E+00  0.93800000000E+00 0.  1.
         22    1    1    2    0    0 -0.20258901314E+00  0.56185473144E-01  0.29484638364E+01  0.29559496123E+01  0.00000000000E+00 0.  1.
</event>
<event>
 5    1  0.4838219E+001  0.1488416E+01  0.7818608E-02  0.3484153E+00
         11   -1    0    0    0    0  0.00000000000E+00  0.00000000000E+00  0.39999999674E+01  0.40000000000E+01  0.51100000000E-03 0.  1.
    9000002   -1    0    0    0    0 -0.00000000000E+00 -0.00000000000E+00  0.00000000000E+00  0.93800000000E+00  0.93800000000E+00 0.  1.
         11    1    1    2    0    0  0.73411375470E+00 -0.64196300171E-01  0.28599103131E+01  0.29533254867E+01  0.51100000000E-03 0.  1.
    9000002    1    1    2    0    0 -0.52497745464E+00  0.17544047216E+00  0.32609027736E+00  0.11369078925E+01  0.93800000000E+00 0.  1.
         22    1    1    2    0    0 -0.20913630007E+00 -0.11124417199E+00  0.81399937685E+00  0.84776662079E+00  0.00000000000E+00 0. -1.
</event>
<event>
 5    1  0.4838219E+001  0.1543761E+01  0.7818608E-02  0.3416760E+00
         11   -1    0    0    0    0  0.00000000000E+00  0.00000000000E+00  0.39999999674E+01  0.40000000000E+01  0.51100000000E-03 0.  1.
    9000002   -1    0    0    0    0 -0.00000000000E+00 -0.00000000000E+00  0.00000000000E+00  0.93800000000E+00  0.93800000000E+00 0. -1.
         11    1    1    2    0    0  0.33344008029E+00 -0.70495181001E-01  0.28458817543E+01  0.28662161604E+01  0.51100000000E-03 0.  1.
    9000002    1    1    2    0    0 -0.11145751918E+00  0.49534192324E-01  0.51986643854E-01  0.94732413984E+00  0.93800000000E+00 0. -1.
         22    1    1    2    0    0 -0.22198256112E+00  0.20960988677E-01  0.11021315692E+01  0.11244596997E+01  0.00000000000E+00 0.  1.
</event>
<event>
 5    1  0.4838219E+001  0.1542693E+01  0.7818608E-02  0.3418012E+00
         11   -1    0    0    0    0  0.00000000000E+00  0.00000000000E+00  0.39999999674E+01  0.40000000000E+01  0.51100000000E-03 0. -1.
    9000002   -1    0    0    0    0 -0.00000000000E+00 -0.00000000000E+00  0.00000000000E+00  0.93800000000E+00  0.93800000000E+00 0.  1.
         11    1    1    2    0    0 -0.18745029070E+00  0.21650102758E+00  0.19801589442E+01  0.20007598586E+01  0.51100000000E-03 0. -1.
    9000002    1    1    2    0    0  0.62507835571E-01  0.49067586683E-01  0.46834855918E-01  0.94252446191E+00  0.93800000000E+00 0.  1.
         22    1    1    2    0    0  0.12494245513E+00 -0.26556861426E+00  0.19730061673E+01  0.19947156795E+01  0.00000000000E+00 0. -1.
</event>
<event>
 5    1  0.4838219E+001  0.1453323E+01  0.7818608E-02  0.3529762E+00
         11   -1    0    0    0    0  0.00000000000E+00  0.00000000000E+00  0.39999999674E+01  0.40000000000E+01  0.51100000000E-03 0.  1.
    9000002   -1    0    0    0    0 -0.00000000000E+00 -0.00000000000E+00  0.00000000000E+00  0.93800000000E+00  0.93800000000E+00 0.  1.
         11    1    1    2    0    0 -0.23718791455E+00  0.42939080122E+00  0.10146176948E+01  0.11269799886E+01  0.51100000000E-03 0.  1.
    9000002    1    1    2    0    0  0.30873348901E-01 -0.25130195963E+00  0.17469742094E+00  0.98715197790E+00  0.93800000000E+00 0.  1.
         22    1    1    2    0    0  0.20631456565E+00 -0.17808884159E+00  0.28106848517E+01  0.28238680335E+01  0.00000000000E+00 0.  1.
</event>
<event>
 5    1  0.4838219E+001  0.1503997E+01  0.7818608E-02  0.3464642E+00
         11   -1    0    0    0    0  0.00000000000E+00  0.00000000000E+00  0.39999999674E+01  0.40000000000E+01  0.51100000000E-03 0.  1.
    9000002   -1    0    0    0    0 -0.00000000000E+00 -0.00000000000E+00  0.00000000000E+00  0.93800000000E+00  0.93800000000E+00 0.  1.
         11    1    1    2    0    0  0.19848508690E+00 -0.18861575225E+00  0.70285301344E+00  0.75430421671E+00  0.51100000000E-03 0.  1.
    9000002    1    1    2    0    0  0.68611047087E-01 -0.43367195073E-01  0.77520630791E-01  0.94469129222E+00  0.93800000000E+00 0.  1.
         22    1    1    2    0    0 -0.26709613399E+00  0.23198294732E+00  0.32196263231E+01  0.32390044911E+01  0.00000000000E+00 0.  1.
</event>
<event>
 5    1  0.4838219E+001  0.1530525E+01  0.7818608E-02  0.3432402E+00
         11   -1    0    0    0    0  0.00000000000E+00  0.00000000000E+00  0.39999999674E+01  0.40000000000E+01  0.51100000000E-03 0.  1.
    9000002   -1    0    0    0    0 -0.00000000000E+00 -0.00000000000E+00  0.00000000000E+00  0.93800000000E+00  0.93800000000E+00 0.  1.
         11    1    1    2    0    0 -0.17496512711E+00 -0.30227946027E+00  0.30781713571E+01  0.30979226641E+01  0.51100000000E-03 0.  1.
    9000002    1    1    2    0    0  0.28341787243E+00  0.61149091210E-01  0.11197112280E+00  0.98815304185E+00  0.93800000000E+00 0.  1.
         22    1    1    2    0    0 -0.10845274532E+00  0.24113036906E+00  0.80985748744E+00  0.85192429406E+00  0.00000000000E+00 0.  1.
</event>
<event>
 5    1  0.4838219E+001  0.1547852E+01  0.7818608E-02  0.3411984E+00
         11   -1    0    0    0    0  0.00000000000E+00  0.00000000000E+00  0.39999999674E+01  0.40000000000E+01  0.51100000000E-03 0. -1.
    9000002   -1    0    0    0    0 -0.00000000000E+00 -0.00000000000E+00  0.00000000000E+00  0.93800000000E+00  0.93800000000E+00 0.  1.
         11    1    1    2    0    0  0.37019296736E-01  0.34175560635E+00  0.21700711814E+01  0.21971291533E+01  0.51100000000E-03 0. -1.
    9000002    1    1    2    0    0  0.46174646997E-01 -0.13895163778E+00  0.53390237020E-01  0.95085970210E+00  0.93800000000E+00 0.  1.
         22    1    1    2    0    0 -0.83193943732E-01 -0.20280396857E+00  0.17765385489E+01  0.17900111446E+01  0.00000000000E+00 0. -1.
</event>
<event>
 5    1  0.4838219E+001  0.1590426E+01  0.7818608E-02  0.3363821E+00
         11   -1    0    0    0    0  0.00000000000E+00  0.00000000000E+00  0.39999999674E+01  0.40000000000E+01  0.51100000000E-03 0. -1.
    9000002   -1    0    0    0    0 -0.00000000000E+00 -0.00000000000E+00  0.00000000000E+00  0.93800000000E+00  0.93800000000E+00 0.  1.
         11    1    1    2    0    0  0.23917818849E-01 -0.82662381184E-02  0.17021253452E+01  0.17023135271E+01  0.51100000000E-03 0. -1.
    9000002    1    1    2    0    0  0.21076278576E+00  0.36634436359E-01  0.37322701304E-01  0.96280840141E+00  0.93800000000E+00 0.  1.
         22    1    1    2    0    0 -0.23468060461E+00 -0.28368198241E-01  0.22605519209E+01  0.22728780715E+01  0.00000000000E+00 0. -1.
</event>
<event>
 5    1  0.4838219E+001  0.1572918E+01  0.7818608E-02  0.3383292E+00
         11   -1    0    0    0    0  0.00000000000E+00  0.00000000000E+00  0.39999999674E+01  0.40000000000E+01  0.51100000000E-03 0. -1.
    9000002   -1    0    0    0    0 -0.00000000000E+00 -0.00000000000E+00  0.00000000000E+00  0.93800000000E+00  0.93800000000E+00 0.  1.
         11    1    1    2    0    0 -0.21486239984E+00 -0.51715980518E+00  0.26421225735E+01  0.27008206289E+01  0.51100000000E-03 0. -1.
    9000002    1    1    2    0    0  0.49779779379E+00  0.60252134975E+00  0.48173190822E+00  0.13125335241E+01  0.93800000000E+00 0.  1.
         22    1    1    2    0    0 -0.28293539395E+00 -0.85361544567E-01  0.87614548561E+00  0.92464584701E+00  0.00000000000E+00 0. -1.
</event>
<event>
 5    1  0.4838219E+001  0.1552952E+01  0.7818608E-02  0.3406066E+00
         11   -1    0    0    0    0  0.00000000000E+00  0.00000000000E+00  0.39999999674E+01  0.40000000000E+01  0.51100000000E-03 0. -1.
    9000002   -1    0    0    0    0 -0.00000000000E+00 -0.00000000000E+00  0.00000000000E+00  0.93800000000E+00  0.93800000000E+00 0.  1.
         11    1    1    2    0    0  0.92287058256E-01  0.17959023248E+00  0.73586443593E+00  0.76306374695E+00  0.51100000000E-03 0. -1.
    9000002    1    1    2    0    0  0.20563633451E+00 -0.12348169994E+00  0.74629404098E-01  0.97105488014E+00  0.93800000000E+00 0.  1.
         22    1    1    2    0    0 -0.29792339276E+00 -0.56108532539E-01  0.31895061273E+01  0.32038813729E+01  0.00000000000E+00 0. -1.
</event>
<event>
 5    1  0.4838219E+001  0.1574375E+01  0.7818608E-02  0.3381654E+00
         11   -1    0    0    0    0  0.00000000000E+00  0.00000000000E+00  0.39999999674E+01  0.40000000000E+01  0.51100000000E-03 0. -1.
    9000002   -1    0    0    0    0 -0.00000000000E+00 -0.00000000000E+00  0.00000000000E+00  0.93800000000E+00  0.93800000000E+00 0.  1.
         11    1    1    2    0    0 -0.86020298012E-01  0.31924670271E-01  0.27740718931E+01  0.27755889114E+01  0.51100000000E-03 0. -1.
    9000002    1    1    2    0    0  0.44132098948E-01  0.19252171382E+00  0.45012865994E-01  0.95962618272E+00  0.93800000000E+00 0.  1.
         22    1    1    2    0    0  0.41888199065E-01 -0.22444638409E+00  0.11809152083E+01  0.12027849059E+01  0.00000000000E+00 0. -1.
</event>
<event>
 5    1  0.4838219E+001  0.1519032E+01  0.7818608E-02  0.3446221E+00
         11   -1    0    0    0    0  0.00000000000E+00  0.00000000000E+00  0.39999999674E+01  0.40000000000E+01  0.51100000000E-03 0.  1.
    9000002   -1    0    0    0    0 -0.00000000000E+00 -0.00000000000E+00  0.00000000000E+00  0.93800000000E+00  0.93800000000E+00 0.  1.
         11    1    1    2    0    0 -0.43823205540E-01  0.78716032683E-01  0.35396097138E+01  0.35407561161E+01  0.51100000000E-03 0.  1.
    9000002    1    1    2    0    0  0.15675324243E-01  0.14362816980E+00  0.75759627322E-01  0.95208103021E+00  0.93800000000E+00 0.  1.
         22    1    1    2    0    0  0.28147881297E-01 -0.22234420248E+00  0.38463062628E+00  0.44516285366E+00  0.00000000000E+00 0.  1.
</event>
<event>
 5    1  0.4838219E+001  0.1555951E+01  0.7818608E-02  0.3402606E+00
         11   -1    0    0    0    0  0.00000000000E+00  0.00000000000E+00  0.39999999674E+01  0.40000000000E+01  0.51100000000E-03 0. -1.
    9000002   -1    0    0    0    0 -0.00000000000E+00 -0.00000000000E+00  0.00000000000E+00  0.93800000000E+00  0.93800000000E+00 0. -1.
         11    1    1    2    0    0 -0.25704397118E+00  0.57508711102E-01  0.15257605429E+01  0.15483295354E+01  0.51100000000E-03 0. -1.
    9000002    1    1    2    0    0  0.72032098367E-01  0.75405251755E-01  0.39823129238E-01  0.94461868328E+00  0.93800000000E+00 0. -1.
         22    1    1    2    0    0  0.18501187281E+00 -0.13291396286E+00  0.24344162952E+01  0.24450517813E+01  0.00000000000E+00 0. -1.
</event>
<event>
 5    1  0.4838219E+001  0.1590940E+01  0.7818608E-02  0.3363256E+00
         11   -1    0    0    0    0  0.00000000000E+00  0.00000000000E+00  0.39999999674E+01  0.40000000000E+01  0.51100000000E-03 0. -1.
    9000002   -1    0    0    0    0 -0.00000000000E+00 -0.00000000000E+00  0.00000000000E+00  0.93800000000E+00  0.93800000000E+00 0. -1.
         11    1    1    2    0    0 -0.90921034141E-01 -0.71987675681E-01  0.10066473940E+01  0.10133055299E+01  0.51100000000E-03 0. -1.
    9000002    1    1    2    0    0  0.27024296130E+00 -0.92697294656E-01  0.61201838603E-01  0.98245290555E+00  0.93800000000E+00 0. -1.
         22    1    1    2    0    0 -0.17932192716E+00  0.16468497034E+00  0.29321507348E+01  0.29422415646E+01  0.00000000000E+00 0. -1.
</event>
<event>
 5    1  0.4838219E+001  0.1398563E+01  0.7818608E-02  0.3609179E+00
         11   -1    0    0    0    0  0.00000000000E+00  0.00000000000E+00  0.39999999674E+01  0.40000000000E+01  0.51100000000E-03 0. -1.
    9000002   -1    0    0    0    0 -0.00000000000E+00 -0.00000000000E+00  0.00000000000E+00  0.93800000000E+00  0.93800000000E+00 0. -1.
         11    1    1    2    0    0 -0.50346508070E+00  0.33694419324E+00  0.11472123888E+01  0.12973453677E+01  0.51100000000E-03 0. -1.
    9000002    1    1    2    0    0  0.24974115165E+00 -0.20683797863E+00  0.25157224783E+00  0.10238579922E+01  0.93800000000E+00 0. -1.
         22    1    1    2    0    0  0.25372392905E+00 -0.13010621461E+00  0.26012153307E+01  0.26167966402E+01  0.00000000000E+00 0. -1.
</event>
<event>
 5    1  0.4838219E+001  0.1484453E+01  0.7818608E-02  0.3489187E+00
         11   -1    0    0    0    0  0.00000000000E+00  0.00000000000E+00  0.39999999674E+01  0.40000000000E+01  0.51100000000E-03 0.  1.
    9000002   -1    0    0    0    0 -0.00000000000E+00 -0.00000000000E+00  0.00000000000E+00  0.93800000000E+00  0.93800000000E+00 0. -1.
         11    1    1    2    0    0 -0.20200729484E+00  0.81687350229E-01  0.26908024755E+00  0.34624299430E+00  0.51100000000E-03 0.  1.
    9000002    1    1    2    0    0  0.28761681758E-02  0.39030476574E-01  0.89692062672E-01  0.94309083155E+00  0.93800000000E+00 0. -1.
         22    1    1    2    0    0  0.19913112667E+00 -0.12071782680E+00  0.36412276571E+01  0.36486661742E+01  0.00000000000E+00 0.  1.
</event>
<event>
 5    1  0.4838219E+001  0.1553325E+01  0.7818608E-02  0.3405635E+00
         11   -1    0    0    0    0  0.00000000000E+00  0.00000000000E+00  0.39999999674E+01  0.40000000000E+01  0.51100000000E-03 0.  1.
    9000002   -1    0    0    0    0 -0.00000000000E+00 -0.00000000000E+00  0.00000000000E+00  0.93800000000E+00  0.93800000000E+00 0.  1.
         11    1    1    2    0    0  0.72269592094E-01  0.25171078024E+00  0.16775976606E+01  0.16979150105E+01  0.51100000000E-03 0.  1.
    9000002    1    1    2    0    0 -0.11901278476E+00  0.81543009600E-02  0.44151750458E-01  0.94658539637E+00  0.93800000000E+00 0.  1.
         22    1    1    2    0    0  0.46743192666E-01 -0.25986508120E+00  0.22782505563E+01  0.22934995931E+01  0.00000000000E+00 0.  1.
</event>
<event>
 5    1  0.4838219E+001  0.1546319E+01  0.7818608E-02  0.3413771E+00
         11   -1    0    0    0    0  0.00000000000E+00  0.00000000000E+00  0.39999999674E+01  0.40000000000E+01  0.51100000000E-03 0.  1.
    9000002   -1    0    0    0    0 -0.00000000000E+00 -0.00000000000E+00  0.00000000000E+00  0.93800000000E+00  0.93800000000E+00 0.  1.
         11    1    1    2    0    0 -0.14048688995E-01  0.30341887453E+00  0.14287048169E+01  0.14606361950E+01  0.51100000000E-03 0.  1.
    9000002    1    1    2    0    0  0.20159295266E+00 -0.11574150730E+00  0.77481410405E-01  0.96947572638E+00  0.93800000000E+00 0.  1.
         22    1    1    2    0    0 -0.18754426366E+00 -0.18767736723E+00  0.24938137401E+01  0.25078880787E+01  0.00000000000E+00 0.  1.
</event>
<event>
 5    1  0.4838219E+001  0.1562852E+01  0.7818608E-02  0.3394697E+00
         11   -1    0    0    0    0  0.00000000000E+00  0.00000000000E+00  0.39999999674E+01  0.40000000000E+01  0.51100000000E-03 0. -1.
    9000002   -1    0    0    0    0 -0.00000000000E+00 -0.00000000000E+00  0.00000000000E+00  0.93800000000E+00  0.93800000000E+00 0.  1.
         11    1    1    2    0    0  0.17682792744E+00  0.36223761879E-01  0.14372359101E+01  0.14485260092E+01  0.51100000000E-03 0. -1.
    9000002    1    1    2    0    0  0.12460156692E+00 -0.10370754970E+00  0.45144260126E-01  0.95297576599E+00  0.93800000000E+00 0.  1.
         22    1    1    2    0    0 -0.30142949435E+00  0.67483787816E-01  0.25176197971E+01  0.25364982248E+01  0.00000000000E+00 0. -1.
</event>
<event>
 5    1  0.4838219E+001  0.1559092E+01  0.7818608E-02  0.3398997E+00
         11   -1    0    0    0    0  0.00000000000E+00  0.00000000000E+00  0.39999999674E+01  0.40000000000E+01  0.51100000000E-03 0.  1.
    9000002   -1    0    0    0    0 -0.00000000000E+00 -0.00000000000E+00  0.00000000000E+00  0.93800000000E+00  0.93800000000E+00 0.  1.
         11    1    1    2    0    0  0.16927588302E+00 -0.19568745515E+00  0.21569062847E+01  0.21723703383E+01  0.51100000000E-03 0.  1.
    9000002    1    1    2    0    0 -0.66900690764E-01 -0.10890731973E-01  0.33117633441E-01  0.94102873926E+00  0.93800000000E+00 0.  1.
         22    1    1    2    0    0 -0.10237519226E+00  0.20657818712E+00  0.18099760492E+01  0.18246009224E+01  0.00000000000E+00 0.  1.
</event>
<event>
 5    1  0.4838219E+001  0.1518956E+01  0.7818608E-02  0.3446314E+00
         11   -1    0    0    0    0  0.00000000000E+00  0.00000000000E+00  0.39999999674E+01  0.40000000000E+01  0.51100000000E-03 0. -1.
    9000002   -1    0    0    0    0 -0.00000000000E+00 -0.00000000000E+00  0.00000000000E+00  0.93800000000E+00  0.93800000000E+00 0.  1.
         11    1    1    2    0    0 -0.31161992424E+00  0.11244258650E+00  0.28202456132E+01  0.28396365775E+01  0.51100000000E-03 0. -1.
    9000002    1    1    2    0    0  0.85925652093E-01  0.95501302659E-01  0.72680803729E-01  0.94954210845E+00  0.93800000000E+00 0.  1.
         22    1    1    2    0    0  0.22569427215E+00 -0.20794388916E+00  0.11070735504E+01  0.11488213140E+01  0.00000000000E+00 0.  1.
</event>
<event>
 5    1  0.4838219E+001  0.1504354E+01  0.7818608E-02  0.3464200E+00
         11   -1    0    0    0    0  0.00000000000E+00  0.00000000000E+00  0.39999999674E+01  0.40000000000E+01  0.51100000000E-03 0.  1.
    9000002   -1    0    0    0    0 -0.00000000000E+00 -0.00000000000E+00  0.00000000000E+00  0.93800000000E+00  0.93800000000E+00 0.  1.
         11    1    1    2    0    0 -0.33501955389E+00 -0.59506615790E-01  0.11079177024E+01  0.11589913870E+01  0.51100000000E-03 0.  1.
    9000002    1    1    2    0    0  0.64664487514E-03  0.11132521242E+00  0.81456915717E-01  0.94808910456E+00  0.93800000000E+00 0.  1.
         22    1    1    2    0    0  0.33437290902E+00 -0.51818596630E-01  0.28106253493E+01  0.28309195084E+01  0.00000000000E+00 0.  1.
</event>
<event>
 5    1  0.4838219E+001  0.1466476E+01  0.7818608E-02  0.3512390E+00
         11   -1    0    0    0    0  0.00000000000E+00  0.00000000000E+00  0.39999999674E+01  0.40000000000E+01  0.51100000000E-03 0.  1.
    9000002   -1    0    0    0    0 -0.00000000000E+00 -0.00000000000E+00  0.00000000000E+00  0.93800000000E+00  0.93800000000E+00 0.  1.
         11    1    1    2    0    0  0.73066986960E+00 -0.34556420389E+00  0.21508742710E+01  0.22977278925E+01  0.51100000000E-03 0.  1.
    9000002    1    1    2    0    0 -0.49365185030E+00  0.48668361806E+00  0.50992581330E+00  0.12729577481E+01  0.93800000000E+00 0.  1.
         22    1    1    2    0    0 -0.23701801929E+00 -0.14111941417E+00  0.13391998831E+01  0.13673143594E+01  0.00000000000E+00 0. -1.
</event>
<event>
 5    1  0.4838219E+001  0.1499163E+01  0.7818608E-02  0.3470648E+00
         11   -1    0    0    0    0  0.00000000000E+00  0.00000000000E+00  0.39999999674E+01  0.40000000000E+01  0.51100000000E-03 0. -1.
    9000002   -1    0    0    0    0 -0.00000000000E+00 -0.00000000000E+00  0.00000000000E+00  0.93800000000E+00  0.93800000000E+00 0.  1.
         11    1    1    2    0    0  0.71593740436E-01 -0.25240670648E+00  0.45352477641E+00  0.52394636470E+00  0.51100000000E-03 0. -1.
    9000002    1    1    2    0    0 -0.14647878214E+00  0.54652452410E-01  0.94517925015E-01  0.95562574386E+00  0.93800000000E+00 0.  1.
         22    1    1    2    0    0  0.74885041704E-01  0.19775425407E+00  0.34519572659E+01  0.34584278914E+01  0.00000000000E+00 0. -1.
</event>
<event>
 5    1  0.4838219E+001  0.1450594E+01  0.7818608E-02  0.3533408E+00
         11   -1    0    0    0    0  0.00000000000E+00  0.00000000000E+00  0.39999999674E+01  0.40000000000E+01  0.51100000000E-03 0.  1.
    9000002   -1    0    0    0    0 -0.00000000000E+00 -0.00000000000E+00  0.00000000000E+00  0.93800000000E+00  0.93800000000E+00 0.  1.
         11    1    1    2    0    0 -0.26769875539E-01 -0.70544610221E+00  0.33124141516E+01  0.33868065492E+01  0.51100000000E-03 0.  1.
    9000002    1    1    2    0    0  0.12577533099E+00  0.48208788014E+00  0.31898416379E+00  0.11089738747E+01  0.93800000000E+00 0.  1.
         22    1    1    2    0    0 -0.99005455448E-01  0.22335822207E+00  0.36860165201E+00  0.44221957605E+00  0.00000000000E+00 0.  1.
</event>
<event>
 5    1  0.4838219E+001  0.1584791E+01  0.7818608E-02  0.3370038E+00
         11   -1    0    0    0    0  0.00000000000E+00  0.00000000000E+00  0.39999999674E+01  0.40000000000E+01  0.51100000000E-03 0. -1.
    9000002   -1    0    0    0    0 -0.00000000000E+00 -0.00000000000E+00  0.00000000000E+00  0.93800000000E+00  0.93800000000E+00 0.  1.
         11    1    1    2    0    0 -0.89598621999E-01  0.58873720610E-01  0.17576876308E+01  0.17609543142E+01  0.51100000000E-03 0. -1.
    9000002    1    1    2    0    0 -0.12510340041E+00 -0.96378687300E-01  0.27565730211E-01  0.95160053680E+00  0.93800000000E+00 0.  1.
         22    1    1    2    0    0  0.21470202241E+00  0.37504966690E-01  0.22147466064E+01  0.22254451490E+01  0.00000000000E+00 0.  1.
</event>
<event>
 5    1  0.4838219E+001  0.1493141E+01  0.7818608E-02  0.3478190E+00
         11   -1    0    0    0    0  0.00000000000E+00  0.00000000000E+00  0.39999999674E+01  0.40000000000E+01  0.51100000000E-03 0.  1.
    9000002   -1    0    0    0    0 -0.00000000000E+00 -0.00000000000E+00  0.00000000000E+00  0.93800000000E+00  0.93800000000E+00 0. -1.
         11    1    1    2    0    0 -0.33031107830E+00 -0.42548352286E-01  0.32016083682E+00  0.46197293566E+00  0.51100000000E-03 0.  1.
    9000002    1    1    2    0    0  0.12551290063E+00 -0.35241801460E-01  0.17341118746E+00  0.96276212676E+00  0.93800000000E+00 0. -1.
         22    1    1    2    0    0  0.20479817767E+00  0.77790153747E-01  0.35064279431E+01  0.35132649376E+01  0.00000000000E+00 0.  1.
</event>
<event>
 5    1  0.4838219E+001  0.1594142E+01  0.7818608E-02  0.3359747E+00
         11   -1    0    0    0    0  0.00000000000E+00  0.00000000000E+00  0.39999999674E+01  0.40000000000E+01  0.51100000000E-03 0.  1.
    9000002   -1    0    0    0    0 -0.00000000000E+00 -0.00000000000E+00  0.00000000000E+00  0.93800000000E+00  0.93800000000E+00 0.  1.
         11    1    1    2    0    0  0.17202658663E+00  0.92747026550E-01  0.15135791493E+01  0.15261445737E+01  0.51100000000E-03 0.  1.
    9000002    1    1    2    0    0 -0.39223814120E+00 -0.19532669419E-01  0.10853325295E+00  0.10226708911E+01  0.93800000000E+00 0.  1.
         22    1    1    2    0    0  0.22021155457E+00 -0.73214357132E-01  0.23778875651E+01  0.23891845352E+01  0.00000000000E+00 0.  1.
</event>
<event>
 5    1  0.4838219E+001  0.1585875E+01  0.7818608E-02  0.3368839E+00
         11   -1    0    0    0    0  0.00000000000E+00  0.00000000000E+00  0.39999999674E+01  0.40000000000E+01  0.51100000000E-03 0.  1.
    9000002   -1    0    0    0    0 -0.00000000000E+00 -0.00000000000E+00  0.00000000000E+00  0.93800000000E+00  0.93800000000E+00 0. -1.
         11    1    1    2    0    0  0.10187812073E+00  0.62056234150E-01  0.18652986525E+01  0.18691092670E+01  0.51100000000E-03 0.  1.
    9000002    1    1    2    0    0  0.80133369233E-01 -0.17651500651E+00  0.35262549259E-01  0.95847084033E+00  0.93800000000E+00 0. -1.
         22    1    1    2    0    0 -0.18201148996E+00  0.11445877236E+00  0.20994387656E+01  0.21104198927E+01  0.00000000000E+00 0.  1.
</event>
<event>
 5    1  0.4838219E+001  0.1528035E+01  0.7818608E-02  0.3435378E+00
         11   -1    0    0    0    0  0.00000000000E+00  0.00000000000E+00  0.39999999674E+01  0.40000000000E+01  0.51100000000E-03 0.  1.
    9000002   -1    0    0    0    0 -0.00000000000E+00 -0.00000000000E+00  0.00000000000E+00  0.93800000000E+00  0.93800000000E+00 0. -1.
         11    1    1    2    0    0  0.30359208959E+00 -0.21882850367E+00  0.23724187541E+01  0.24017545830E+01  0.51100000000E-03 0.  1.
    9000002    1    1    2    0    0 -0.17723247385E+00 -0.45251923272E-01  0.77550094670E-01  0.95881025419E+00  0.93800000000E+00 0. -1.
         22    1    1    2    0    0 -0.12635961574E+00  0.26408042695E+00  0.15500311186E+01  0.15774351628E+01  0.00000000000E+00 0.  1.
</event>
<event>
 5    1  0.4838219E+001  0.1513112E+01  0.7818608E-02  0.3453427E+00
         11   -1    0    0    0    0  0.00000000000E+00  0.00000000000E+00  0.39999999674E+01  0.40000000000E+01  0.51100000000E-03 0. -1.
    9000002   -1    0    0    0    0 -0.00000000000E+00 -0.00000000000E+00  0.00000000000E+00  0.93800000000E+00  0.93800000000E+00 0.  1.
         11    1    1    2    0    0  0.30013364264E+00 -0.79945395720E-01  0.34337329191E+01  0.34477519474E+01  0.51100000000E-03 0. -1.
    9000002    1    1    2    0    0 -0.94540036412E-01 -0.20727337625E-01  0.72218824746E-01  0.94574150784E+00  0.93800000000E+00 0.  1.
         22    1    1    2    0    0 -0.20559360623E+00  0.10067273334E+00  0.49404822353E+00  0.54450654481E+00  0.00000000000E+00 0.  1.
</event>
<event>
 5    1  0.4838219E+001  0.1585791E+01  0.7818608E-02  0.3368931E+00
         11   -1    0    0    0    0  0.00000000000E+00  0.00000000000E+00  0.39999999674E+01  0.40000000000E+01  0.51100000000E-03 0.  1.
    9000002   -1    0    0    0    0 -0.00000000000E+00 -0.00000000000E+00  0.00000000000E+00  0.93800000000E+00  0.93800000000E+00 0. -1.
         11    1    1    2    0    0  0.36816544564E-01 -0.86795724691E-01  0.10613038550E+01  0.10654835004E+01  0.51100000000E-03 0.  1.
    9000002    1    1    2    0    0  0.11716316829E+00 -0.69506431085E-01  0.22530607144E-01  0.94810863313E+00  0.93800000000E+00 0. -1.
         22    1    1    2    0    0 -0.15397971285E+00  0.15630215578E+00  0.29161655052E+01  0.29244078665E+01  0.00000000000E+00 0.  1.
</event>
<event>
 5    1  0.4838219E+001  0.1358800E+01  0.7818608E-02  0.3675278E+00
         11   -1    0    0    0    0  0.00000000000E+00  0.00000000000E+00  0.39999999674E+01  0.40000000000E+01  0.51100000000E-03 0.  1.
    9000002   -1    0    0    0    0 -0.00000000000E+00 -0.00000000000E+00  0.00000000000E+00  0.93800000000E+00  0.93800000000E+00 0.  1.
         11    1    1    2    0    0 -0.21007186451E+00 -0.14633839454E+00  0.32889758586E+01  0.32989252149E+01  0.51100000000E-03 0.  1.
    9000002    1    1    2    0    0 -0.40540227020E-01 -0.22053644905E+00  0.24472351412E+00  0.99499418779E+00  0.93800000000E+00 0.  1.
         22    1    1    2    0    0  0.25061209153E+00  0.36687484359E+00  0.46630059469E+00  0.64408059735E+00  0.00000000000E+00 0. -1.
</event>
<event>
 5    1  0.4838219E+001  0.1589246E+01  0.7818608E-02  0.3365119E+00
         11   -1    0    0    0    0  0.00000000000E+00  0.00000000000E+00  0.39999999674E+01  0.40000000000E+01  0.51100000000E-03 0.  1.
    9000002   -1    0    0    0    0 -0.00000000000E+00 -0.00000000000E+00  0.00000000000E+00  0.93800000000E+00  0.93800000000E+00 0.  1.
         11    1    1    2    0    0  0.78399320109E-01  0.87249663680E-01  0.11859752483E+01  0.11917619342E+01  0.51100000000E-03 0.  1.
    9000002    1    1    2    0    0  0.11312360209E+00 -0.26309809966E+00  0.62799398863E-01  0.98275394880E+00  0.93800000000E+00 0.  1.
         22    1    1    2    0    0 -0.19152292220E+00  0.17584843598E+00  0.27512253202E+01  0.27634841170E+01  0.00000000000E+00 0.  1.
</event>
<event>
 5    1  0.4838219E+001  0.1529247E+01  0.7818608E-02  0.3433929E+00
         11   -1    0    0    0    0  0.00000000000E+00  0.00000000000E+00  0.39999999674E+01  0.40000000000E+01  0.51100000000E-03 0.  1.
    9000002   -1    0    0    0    0 -0.00000000000E+00 -0.00000000000E+00  0.00000000000E+00  0.93800000000E+00  0.93800000000E+00 0.  1.
         11    1    1    2    0    0  0.17710457406E+00  0.15224393067E+00  0.53216689712E+00  0.58115928289E+00  0.51100000000E-03 0.  1.
    9000002    1    1    2    0    0 -0.17959020938E+00  0.71550830861E-01  0.79373147592E-01  0.96099753447E+00  0.93800000000E+00 0.  1.
         22    1    1    2    0    0  0.24856353139E-02 -0.22379476153E+00  0.33884599226E+01  0.33958431826E+01  0.00000000000E+00 0.  1.
</event>
<event>
 5    1  0.4838219E+001  0.1534737E+01  0.7818608E-02  0.3427393E+00
         11   -1    0    0    0    0  0.00000000000E+00  0.00000000000E+00  0.39999999674E+01  0.40000000000E+01  0.51100000000E-03 0.  1.
    9000002   -1    0    0    0    0 -0.00000000000E+00 -0.00000000000E+00  0.00000000000E+00  0.93800000000E+00  0.93800000000E+00 0. -1.
         11    1    1    2    0    0  0.16020346652E+00 -0.21347304525E+00  0.11315441162E+01  0.11625954756E+01  0.51100000000E-03 0.  1.
    9000002    1    1    2    0    0  0.24154350638E-01 -0.29411396188E-01  0.49575741339E-01  0.94007989927E+00  0.93800000000E+00 0. -1.
         22    1    1    2    0    0 -0.18435781716E+00  0.24288444143E+00  0.28188801098E+01  0.28353246252E+01  0.00000000000E+00 0.  1.
</event>
<event>
 5    1  0.4838219E+001  0.1472627E+01  0.7818608E-02  0.3504381E+00
         11   -1    0    0    0    0  0.00000000000E+00  0.00000000000E+00  0.39999999674E+01  0.40000000000E+01  0.51100000000E-03 0.  1.
    9000002   -1    0    0    0    0 -0.00000000000E+00 -0.00000000000E+00  0.00000000000E+00  0.93800000000E+00  0.93800000000E+00 0.  1.
         11    1    1    2    0    0 -0.21066231294E+00 -0.54415596488E+00  0.12572640819E+01  0.13860727098E+01  0.51100000000E-03 0.  1.
    9000002    1    1    2    0    0 -0.80293494511E-01  0.58603418372E+00  0.38188156552E+00  0.11728429732E+01  0.93800000000E+00 0.  1.
         22    1    1    2    0    0  0.29095580746E+00 -0.41878218838E-01  0.23608543200E+01  0.23790843170E+01  0.00000000000E+00 0.  1.
</event>
<event>
 5    1  0.4838219E+001  0.1514117E+01  0.7818608E-02  0.3452200E+00
         11   -1    0    0    0    0  0.00000000000E+00  0.00000000000E+00  0.39999999674E+01  0.40000000000E+01  0.51100000000E-03 0. -1.
    9000002   -1    0    0    0    0 -0.00000000000E+00 -0.00000000000E+00  0.00000000000E+00  0.93800000000E+00  0.93800000000E+00 0.  1.
         11    1    1    2    0    0  0.36775266122E+00  0.46949613590E+00  0.31386627622E+01  0.31948196877E+01  0.51100000000E-03 0. -1.
    9000002    1    1    2    0    0 -0.41270767621E+00 -0.24911283614E+00  0.23888824662E+00  0.10813401063E+01  0.93800000000E+00 0.  1.
         22    1    1    2    0    0  0.44955014995E-01 -0.22038329976E+00  0.62244895857E+00  0.66184020595E+00  0.00000000000E+00 0.  1.
</event>
<event>
 5    1  0.5843871E+001  0.1568122E+01  0.7818608E-02  0.3388707E+00
         11   -1    0    0    0    0  0.00000000000E+00  0.00000000000E+00  0.39999999674E+01  0.40000000000E+01  0.51100000000E-03 0. -1.
    9000002   -1    0    0    0    0 -0.00000000000E+00 -0.00000000000E+00  0.00000000000E+00  0.93800000000E+00  0.93800000000E+00 0. -1.
         11    1    1    2    0    0 -0.60487238671E-01  0.18012818810E+00  0.12467704012E+01  0.12611667473E+01  0.51100000000E-03 0. -1.
    9000002    1    1    2    0    0  0.22281134009E-01  0.35024714996E-01  0.24365673637E-01  0.93923419105E+00  0.93800000000E+00 0. -1.
         22    1    1    2    0    0  0.38206104662E-01 -0.21515290309E+00  0.27288638926E+01  0.27375990616E+01  0.00000000000E+00 0. -1.
</event>
<event>
 5    1  0.4838219E+001  0.1580576E+01  0.7818608E-02  0.3374719E+00
         11   -1    0    0    0    0  0.00000000000E+00  0.00000000000E+00  0.39999999674E+01  0.40000000000E+01  0.51100000000E-03 0.  1.
    9000002   -1    0    0    0    0 -0.00000000000E+00 -0.00000000000E+00  0.00000000000E+00  0.93800000000E+00  0.93800000000E+00 0.  1.
         11    1    1    2    0    0  0.61622380219E-01 -0.98484729092E-02  0.22895220908E+01  0.22903724534E+01  0.51100000000E-03 0.  1.
    9000002    1    1    2    0    0  0.17244360413E+00 -0.40246533580E-01  0.35075729602E-01  0.95521248258E+00  0.93800000000E+00 0.  1.
         22    1    1    2    0    0 -0.23406598435E+00  0.50095006489E-01  0.16754021470E+01  0.16924150640E+01  0.00000000000E+00 0.  1.
</event>
<event>
 5    1  0.4838219E+001  0.1561914E+01  0.7818608E-02  0.3395768E+00
         11   -1    0    0    0    0  0.00000000000E+00  0.00000000000E+00  0.39999999674E+01  0.40000000000E+01  0.51100000000E-03 0. -1.
    9000002   -1    0    0    0    0 -0.00000000000E+00 -0.00000000000E+00  0.00000000000E+00  0.93800000000E+00  0.93800000000E+00 0.  1.
         11    1    1    2    0    0 -0.23057173832E+00  0.15710251411E+00  0.23404046923E+01  0.23569766464E+01  0.51100000000E-03 0. -1.
    9000002    1    1    2    0    0  0.13621439802E+00  0.28901708282E-01  0.41126191025E-01  0.94917070886E+00  0.93800000000E+00 0.  1.
         22    1    1    2    0    0  0.94357340305E-01 -0.18600422240E+00  0.16184690840E+01  0.16318526448E+01  0.00000000000E+00 0. -1.
</event>
<event>
 5    1  0.4838219E+001  0.1485459E+01  0.7818608E-02  0.3487906E+00
         11   -1    0    0    0    0  0.00000000000E+00  0.00000000000E+00  0.39999999674E+01  0.40000000000E+01  0.51100000000E-03 0.  1.
    9000002   -1    0    0    0    0 -0.00000000000E+00 -0.00000000000E+00  0.00000000000E+00  0.93800000000E+00  0.93800000000E+00 0.  1.
         11    1    1    2    0    0  0.21426494026E+00  0.28648458461E+00  0.77693398366E+00  0.85534177843E+00  0.51100000000E-03 0.  1.
    9000002    1    1    2    0    0 -0.16616366721E+00 -0.48332047909E-01  0.11002906450E+00  0.96015454287E+00  0.93800000000E+00 0.  1.
         22    1    1    2    0    0 -0.48101273051E-01 -0.23815253670E+00  0.31130369192E+01  0.31225036787E+01  0.00000000000E+00 0.  1.
</event>
<event>
 5    1  0.4838219E+001  0.1549598E+01  0.7818608E-02  0.3409953E+00
         11   -1    0    0    0    0  0.00000000000E+00  0.00000000000E+00  0.39999999674E+01  0.40000000000E+01  0.51100000000E-03 0.  1.
    9000002   -1    0    0    0    0 -0.00000000000E+00 -0.00000000000E+00  0.00000000000E+00  0.93800000000E+00  0.93800000000E+00 0.  1.
         11    1    1    2    0    0  0.33800071467E-01  0.21792380835E+00  0.14830806614E+01  0.14993871216E+01  0.51100000000E-03 0.  1.
    9000002    1    1    2    0    0  0.10026565553E+00  0.87565792906E-01  0.49445708806E-01  0.94868848833E+00  0.93800000000E+00 0.  1.
         22    1    1    2    0    0 -0.13406572700E+00 -0.30548960126E+00  0.24674735972E+01  0.24899243901E+01  0.00000000000E+00 0.  1.
</event>
<event>
 5    1  0.4838219E+001  0.1545462E+01  0.7818608E-02  0.3414771E+00
         11   -1    0    0    0    0  0.00000000000E+00  0.00000000000E+00  0.39999999674E+01  0.40000000000E+01  0.51100000000E-03 0. -1.
    9000002   -1    0    0    0    0 -0.00000000000E+00 -0.00000000000E+00  0.00000000000E+00  0.93800000000E+00  0.93800000000E+00 0. -1.
         11    1    1    2    0    0  0.18418925509E+00  0.99849145316E-01  0.94295421409E+00  0.96594950411E+00  0.51100000000E-03 0. -1.
    9000002    1    1    2    0    0  0.17423813769E+00 -0.84996320056E-01  0.66569996413E-01  0.96013481734E+00  0.93800000000E+00 0. -1.
         22    1    1    2    0    0 -0.35842739277E+00 -0.14852825260E-01  0.29904757569E+01  0.30119156785E+01  0.00000000000E+00 0. -1.
</event>
<event>
 5    1  0.4838219E+001  0.1562623E+01  0.7818608E-02  0.3394958E+00
         11   -1    0    0    0    0  0.00000000000E+00  0.00000000000E+00  0.39999999674E+01  0.40000000000E+01  0.51100000000E-03 0.  1.
    9000002   -1    0    0    0    0 -0.00000000000E+00 -0.00000000000E+00  0.00000000000E+00  0.93800000000E+00  0.93800000000E+00 0.  1.
         11    1    1    2    0    0 -0.18420157291E+00 -0.62924167771E-01  0.10321303050E+01  0.10503251392E+01  0.51100000000E-03 0.  1.
    9000002    1    1    2    0    0 -0.30000554263E-01 -0.16930322450E-01  0.28123368712E-01  0.93905356234E+00  0.93800000000E+00 0.  1.
         22    1    1    2    0    0  0.21420212717E+00  0.79854490221E-01  0.29397462936E+01  0.29486212985E+01  0.00000000000E+00 0.  1.
</event>
<event>
 5    1  0.4838219E+001  0.1549602E+01  0.7818608E-02  0.3409948E+00
         11   -1    0    0    0    0  0.00000000000E+00  0.00000000000E+00  0.39999999674E+01  0.40000000000E+01  0.51100000000E-03 0.  1.
    9000002   -1    0    0    0    0 -0.00000000000E+00 -0.00000000000E+00  0.00000000000E+00  0.93800000000E+00  0.93800000000E+00 0. -1.
         11    1    1    2    0    0 -0.13837531579E+00 -0.15843121778E+00  0.78608387116E+00  0.81374215351E+00  0.51100000000E-03 0.  1.
    9000002    1    1    2    0    0 -0.51953026125E-01  0.10641871399E-01  0.39101256443E-01  0.94031126474E+00  0.93800000000E+00 0. -1.
         22    1    1    2    0    0  0.19032834191E+00  0.14778934638E+00  0.31748148398E+01  0.31839465817E+01  0.00000000000E+00 0.  1.
</event>
<event>
 5    1  0.4838219E+001  0.1537665E+01  0.7818608E-02  0.3423928E+00
         11   -1    0    0    0    0  0.00000000000E+00  0.00000000000E+00  0.39999999674E+01  0.40000000000E+01  0.51100000000E-03 0.  1.
    9000002   -1    0    0    0    0 -0.00000000000E+00 -0.00000000000E+00  0.00000000000E+00  0.93800000000E+00  0.93800000000E+00 0.  1.
         11    1    1    2    0    0  0.26630063773E+00  0.87774064733E-02  0.12273171755E+01  0.12559063591E+01  0.51100000000E-03 0.  1.
    9000002    1    1    2    0    0  0.28161477733E-01 -0.15520459910E+00  0.63784817642E-01  0.95330689674E+00  0.93800000000E+00 0.  1.
         22    1    1    2    0    0 -0.29446211546E+00  0.14642719263E+00  0.27088979743E+01  0.27287867442E+01  0.00000000000E+00 0.  1.
</event>
<event>
 5    1  0.4838219E+001  0.1567726E+01  0.7818608E-02  0.3389156E+00
         11   -1    0    0    0    0  0.00000000000E+00  0.00000000000E+00  0.39999999674E+01  0.40000000000E+01  0.51100000000E-03 0.  1.
    9000002   -1    0    0    0    0 -0.00000000000E+00 -0.00000000000E+00  0.00000000000E+00  0.93800000000E+00  0.93800000000E+00 0. -1.
         11    1    1    2    0    0 -0.73076001194E-01  0.13929222672E+00  0.28552457650E+01  0.28595753297E+01  0.51100000000E-03 0.  1.
    9000002    1    1    2    0    0 -0.16021350287E+00 -0.13787385662E+00  0.54037910150E-01  0.96303772645E+00  0.93800000000E+00 0. -1.
         22    1    1    2    0    0  0.23328950406E+00 -0.14183701037E-02  0.10907162922E+01  0.11153869438E+01  0.00000000000E+00 0. -1.
</event>
<event>
 5    1  0.4838219E+001  0.1564744E+01  0.7818608E-02  0.3392541E+00
         11   -1    0    0    0    0  0.00000000000E+00  0.00000000000E+00  0.39999999674E+01  0.40000000000E+01  0.51100000000E-03 0.  1.
    9000002   -1    0    0    0    0 -0.00000000000E+00 -0.00000000000E+00  0.00000000000E+00  0.93800000000E+00  0.93800000000E+00 0. -1.
         11    1    1    2    0    0  0.11316662754E+00  0.15325586403E+00  0.12868509719E+01  0.13008765239E+01  0.51100000000E-03 0.  1.
    9000002    1    1    2    0    0  0.73582509452E-01  0.20548219032E-01  0.29699577293E-01  0.94157457479E+00  0.93800000000E+00 0. -1.
         22    1    1    2    0    0 -0.18674913699E+00 -0.17380408306E+00  0.26834494182E+01  0.26955489013E+01  0.00000000000E+00 0.  1.
</event>
<event>
 5    1  0.4838219E+001  0.1535434E+01  0.7818608E-02  0.3426568E+00
         11   -1    0    0    0    0  0.00000000000E+00  0.00000000000E+00  0.39999999674E+01  0.40000000000E+01  0.51100000000E-03 0.  1.
    9000002   -1    0    0    0    0 -0.00000000000E+00 -0.00000000000E+00  0.00000000000E+00  0.93800000000E+00  0.93800000000E+00 0.  1.
         11    1    1    2    0    0  0.40874265462E+00 -0.26240726379E-01  0.21827074168E+01  0.22208041476E+01  0.51100000000E-03 0.  1.
    9000002    1    1    2    0    0 -0.21336154971E+00 -0.11229258970E+00  0.89207436168E-01  0.97259176599E+00  0.93800000000E+00 0.  1.
         22    1    1    2    0    0 -0.19538110491E+00  0.13853331608E+00  0.17280851144E+01  0.17446040864E+01  0.00000000000E+00 0.  1.
</event>
<event>
 5    1  0.4838219E+001  0.1530704E+01  0.7818608E-02  0.3432188E+00
         11   -1    0    0    0    0  0.00000000000E+00  0.00000000000E+00  0.39999999674E+01  0.40000000000E+01  0.51100000000E-03 0.  1.
    9000002   -1    0    0    0    0 -0.00000000000E+00 -0.00000000000E+00  0.00000000000E+00  0.93800000000E+00  0.93800000000E+00 0. -1.
         11    1    1    2    0    0  0.33292061428E+00  0.15702422971E+00  0.20970391086E+01  0.21290998164E+01  0.51100000000E-03 0.  1.
    9000002    1    1    2    0    0 -0.53491224765E-01 -0.14016880067E+00  0.67612298540E-01  0.95232558861E+00  0.93800000000E+00 0. -1.
         22    1    1    2    0    0 -0.27942938952E+00 -0.16855429049E-01  0.18353485602E+01  0.18565745950E+01  0.00000000000E+00 0.  1.
</event>
<event>
 5    1  0.4838219E+001  0.1551398E+01  0.7818608E-02  0.3407864E+00
         11   -1    0    0    0    0  0.00000000000E+00  0.00000000000E+00  0.39999999674E+01  0.40000000000E+01  0.51100000000E-03 0.  1.
    9000002   -1    0    0    0    0 -0.00000000000E+00 -0.00000000000E+00  0.00000000000E+00  0.93800000000E+00  0.93800000000E+00 0. -1.
         11    1    1    2    0    0 -0.44802083729E-01  0.57936843761E+00  0.31010178614E+01  0.31549939859E+01  0.51100000000E-03 0.  1.
    9000002    1    1    2    0    0  0.26244892388E+00 -0.60526431566E+00  0.36124811230E+00  0.12023179813E+01  0.93800000000E+00 0. -1.
         22    1    1    2    0    0 -0.21764684015E+00  0.25895878054E-01  0.53773399364E+00  0.58068803281E+00  0.00000000000E+00 0.  1.
</event>
<event>
 5    1  0.4838219E+001  0.1556650E+01  0.7818608E-02  0.3401802E+00
         11   -1    0    0    0    0  0.00000000000E+00  0.00000000000E+00  0.39999999674E+01  0.40000000000E+01  0.51100000000E-03 0. -1.
    9000002   -1    0    0    0    0 -0.00000000000E+00 -0.00000000000E+00  0.00000000000E+00  0.93800000000E+00  0.93800000000E+00 0.  1.
         11    1    1    2    0    0  0.99006033367E-01  0.23569078808E+00  0.15549838640E+01  0.15758576778E+01  0.51100000000E-03 0. -1.
    9000002    1    1    2    0    0  0.28350631697E-01 -0.46230830350E-01  0.33831885421E-01  0.94017532645E+00  0.93800000000E+00 0.  1.
         22    1    1    2    0    0 -0.12735666506E+00 -0.18945995773E+00  0.24111842179E+01  0.24219669958E+01  0.00000000000E+00 0. -1.
</event>
<event>
 5    1  0.4838219E+001  0.1470017E+01  0.7818608E-02  0.3507770E+00
         11   -1    0    0    0    0  0.00000000000E+00  0.00000000000E+00  0.39999999674E+01  0.40000000000E+01  0.51100000000E-03 0. -1.
    9000002   -1    0    0    0    0 -0.00000000000E+00 -0.00000000000E+00  0.00000000000E+00  0.93800000000E+00  0.93800000000E+00 0.  1.
         11    1    1    2    0    0  0.24586233075E+00  0.67339107738E-01  0.22177878813E+00  0.33788893604E+00  0.51100000000E-03 0. -1.
    9000002    1    1    2    0    0  0.56752169253E-01 -0.17020043184E-01  0.14148469356E+00  0.95045905177E+00  0.93800000000E+00 0.  1.
         22    1    1    2    0    0 -0.30261450000E+00 -0.50319064555E-01  0.36367364857E+01  0.36496520122E+01  0.00000000000E+00 0. -1.
</event>
<event>
 5    1  0.5580364E+001  0.1572146E+01  0.7818608E-02  0.3384162E+00
         11   -1    0    0    0    0  0.00000000000E+00  0.00000000000E+00  0.39999999674E+01  0.40000000000E+01  0.51100000000E-03 0. -1.
    9000002   -1    0    0    0    0 -0.00000000000E+00 -0.00000000000E+00  0.00000000000E+00  0.93800000000E+00  0.93800000000E+00 0. -1.
         11    1    1    2    0    0 -0.13843304313E+00 -0.89659863795E-01  0.93306591746E+00  0.94753093145E+00  0.51100000000E-03 0. -1.
    9000002    1    1    2    0    0 -0.66552563542E-01  0.80506075677E-01  0.27584320691E-01  0.94420091436E+00  0.93800000000E+00 0. -1.
         22    1    1    2    0    0  0.20498560667E+00  0.91537881171E-02  0.30393497292E+01  0.30462681542E+01  0.00000000000E+00 0.  1.
</event>
<event>
 5    1  0.4838219E+001  0.1581388E+01  0.7818608E-02  0.3373815E+00
         11   -1    0    0    0    0  0.00000000000E+00  0.00000000000E+00  0.39999999674E+01  0.40000000000E+01  0.51100000000E-03 0. -1.
    9000002   -1    0    0    0    0 -0.00000000000E+00 -0.00000000000E+00  0.00000000000E+00  0.93800000000E+00  0.93800000000E+00 0. -1.
         11    1    1    2    0    0  0.47715358938E-01 -0.21585251751E+00  0.19200888207E-01  0.22189637227E+00  0.51100000000E-03 0. -1.
    9000002    1    1    2    0    0 -0.14399959247E+00 -0.14663055324E+00  0.28546241775E+00  0.10017830073E+01  0.93800000000E+00 0. -1.
         22    1    1    2    0    0  0.96284233537E-01  0.36248307076E+00  0.36953366614E+01  0.37143206204E+01  0.00000000000E+00 0. -1.
</event>
<event>
 5    1  0.4838219E+001  0.1596782E+01  0.7818608E-02  0.3356864E+00
         11   -1    0    0    0    0  0.00000000000E+00  0.00000000000E+00  0.39999999674E+01  0.40000000000E+01  0.51100000000E-03 0. -1.
    9000002   -1    0    0    0    0 -0.00000000000E+00 -0.00000000000E+00  0.00000000000E+00  0.93800000000E+00  0.93800000000E+00 0.  1.
         11    1    1    2    0    0 -0.90907182310E-01  0.31043949182E-02  0.15117657455E+01  0.15144998130E+01  0.51100000000E-03 0. -1.
    9000002    1    1    2    0    0  0.26039261341E+00 -0.17035678817E+00  0.66945092194E-01  0.99053086462E+00  0.93800000000E+00 0.  1.
         22    1    1    2    0    0 -0.16948543110E+00  0.16725239326E+00  0.24212891296E+01  0.24329693224E+01  0.00000000000E+00 0. -1.
</event>
<event>
 5    1  0.4838219E+001  0.1571739E+01  0.7818608E-02  0.3384619E+00
         11   -1    0    0    0    0  0.00000000000E+00  0.00000000000E+00  0.39999999674E+01  0.40000000000E+01  0.51100000000E-03 0.  1.
    9000002   -1    0    0    0    0 -0.00000000000E+00 -0.00000000000E+00  0.00000000000E+00  0.93800000000E+00  0.93800000000E+00 0.  1.
         11    1    1    2    0    0  0.12721143174E+00 -0.10366120209E+00  0.14709849205E+01  0.14801098914E+01  0.51100000000E-03 0.  1.
    9000002    1    1    2    0    0  0.54439190851E-01 -0.61718854647E-01  0.25084025611E-01  0.94193739222E+00  0.93800000000E+00 0.  1.
         22    1    1    2    0    0 -0.18165062259E+00  0.16538005674E+00  0.25039310213E+01  0.25159527164E+01  0.00000000000E+00 0.  1.
</event>
<event>
 5    1  0.4838219E+001  0.1517655E+01  0.7818608E-02  0.3447892E+00
         11   -1    0    0    0    0  0.00000000000E+00  0.00000000000E+00  0.39999999674E+01  0.40000000000E+01  0.51100000000E-03 0. -1.
    9000002   -1    0    0    0    0 -0.00000000000E+00 -0.00000000000E+00  0.00000000000E+00  0.93800000000E+00  0.93800000000E+00 0. -1.
         11    1    1    2    0    0 -0.12909322674E-01  0.14178992553E+00  0.15392797905E+00  0.20967860513E+00  0.51100000000E-03 0. -1.
    9000002    1    1    2    0    0  0.12608432887E+00  0.51003593569E-01  0.75155979652E-01  0.95078443709E+00  0.93800000000E+00 0. -1.
         22    1    1    2    0    0 -0.11317500620E+00 -0.19279351909E+00  0.37709160087E+01  0.37775369578E+01  0.00000000000E+00 0. -1.
</event>
<event>
 5    1  0.4838219E+001  0.1541921E+01  0.7818608E-02  0.3418917E+00
         11   -1    0    0    0    0  0.00000000000E+00  0.00000000000E+00  0.39999999674E+01  0.40000000000E+01  0.51100000000E-03 0. -1.
    9000002   -1    0    0    0    0 -0.00000000000E+00 -0.00000000000E+00  0.00000000000E+00  0.93800000000E+00  0.93800000000E+00 0. -1.
         11    1    1    2    0    0 -0.30177753651E+00  0.15822692581E+00  0.20992142487E+01  0.21266890145E+01  0.51100000000E-03 0. -1.
    9000002    1    1    2    0    0  0.66762632684E-01 -0.88230504580E-01  0.51572480196E-01  0.94590992794E+00  0.93800000000E+00 0. -1.
         22    1    1    2    0    0  0.23501490383E+00 -0.69996421230E-01  0.18492132385E+01  0.18654010575E+01  0.00000000000E+00 0. -1.
</event>
<event>
 5    1  0.4838219E+001  0.1553433E+01  0.7818608E-02  0.3405510E+00
         11   -1    0    0    0    0  0.00000000000E+00  0.00000000000E+00  0.39999999674E+01  0.40000000000E+01  0.51100000000E-03 0. -1.
    9000002   -1    0    0    0    0 -0.00000000000E+00 -0.00000000000E+00  0.00000000000E+00  0.93800000000E+00  0.93800000000E+00 0.  1.
         11    1    1    2    0    0  0.23177870842E+00 -0.71237416374E-01  0.11101185650E+01  0.11362920525E+01  0.51100000000E-03 0. -1.
    9000002    1    1    2    0    0 -0.54213211243E-01 -0.52257793727E-01  0.38154538990E-01  0.94179069762E+00  0.93800000000E+00 0.  1.
         22    1    1    2    0    0 -0.17756549718E+00  0.12349521010E+00  0.28517268634E+01  0.28599172499E+01  0.00000000000E+00 0.  1.
</event>
<event>
 5    1  0.4838219E+001  0.1536203E+01  0.7818608E-02  0.3425657E+00
         11   -1    0    0    0    0  0.00000000000E+00  0.00000000000E+00  0.39999999674E+01  0.40000000000E+01  0.51100000000E-03 0. -1.
    9000002   -1    0    0    0    0 -0.00000000000E+00 -0.00000000000E+00  0.00000000000E+00  0.93800000000E+00  0.93800000000E+00 0.  1.
         11    1    1    2    0    0  0.26754658738E+00  0.64084943457E-04  0.13517337161E+01  0.13779569953E+01  0.51100000000E-03 0. -1.
    9000002    1    1    2    0    0  0.45000141474E-01  0.15636037719E+00  0.66065727280E-01  0.95429673614E+00  0.93800000000E+00 0.  1.
         22    1    1    2    0    0 -0.31254672886E+00 -0.15642446214E+00  0.25822005240E+01  0.26057462686E+01  0.00000000000E+00 0. -1.
</event>
<event>
 5    1  0.4838219E+001  0.1452838E+01  0.7818608E-02  0.3530408E+00
         11   -1    0    0    0    0  0.00000000000E+00  0.00000000000E+00  0.39999999674E+01  0.40000000000E+01  0.51100000000E-03 0. -1.
    9000002   -1    0    0    0    0 -0.00000000000E+00 -0.00000000000E+00  0.00000000000E+00  0.93800000000E+00  0.93800000000E+00 0.  1.
         11    1    1    2    0    0 -0.39274921737E-01  0.64732735423E-01 -0.31855511905E-01  0.82145488449E-01  0.51100000000E-03 0. -1.
    9000002    1    1    2    0    0  0.42807474507E-01 -0.28567806200E+00  0.18021527380E+00  0.99788074432E+00  0.93800000000E+00 0.  1.
         22    1    1    2    0    0 -0.35325527700E-02  0.22094532658E+00  0.38516402055E+01  0.38579737672E+01  0.00000000000E+00 0. -1.
</event>
<event>
 5    1  0.4838219E+001  0.1502361E+01  0.7818608E-02  0.3466670E+00
         11   -1    0    0    0    0  0.00000000000E+00  0.00000000000E+00  0.39999999674E+01  0.40000000000E+01  0.51100000000E-03 0.  1.
    9000002   -1    0    0    0    0 -0.00000000000E+00 -0.00000000000E+00  0.00000000000E+00  0.93800000000E+00  0.93800000000E+00 0. -1.
         11    1    1    2    0    0  0.12497544885E+00  0.23596292903E+00  0.16261092092E+00  0.31263387439E+00  0.51100000000E-03 0.  1.
    9000002    1    1    2    0    0  0.98948395543E-01 -0.14690939694E+00  0.19409356507E+00  0.97410957694E+00  0.93800000000E+00 0. -1.
         22    1    1    2    0    0 -0.22392384439E+00 -0.89053532086E-01  0.36432954814E+01  0.36512565487E+01  0.00000000000E+00 0.  1.
</event>
<event>
 5    1  0.4838219E+001  0.1484053E+01  0.7818608E-02  0.3489696E+00
         11   -1    0    0    0    0  0.00000000000E+00  0.00000000000E+00  0.39999999674E+01  0.40000000000E+01  0.51100000000E-03 0. -1.
    9000002   -1    0    0    0    0 -0.00000000000E+00 -0.00000000000E+00  0.00000000000E+00  0.93800000000E+00  0.93800000000E+00 0.  1.
         11    1    1    2    0    0  0.25082551661E+00  0.11942935913E+00  0.32579829041E+01  0.32698057551E+01  0.51100000000E-03 0. -1.
    9000002    1    1    2    0    0  0.69009017786E-01 -0.12141301476E+00  0.10339883686E+00  0.95395947721E+00  0.93800000000E+00 0.  1.
         22    1    1    2    0    0 -0.31983453439E+00  0.19836556376E-02  0.63861822642E+00  0.71423476770E+00  0.00000000000E+00 0.  1.
</event>
<event>
 5    1  0.4838219E+001  0.1513002E+01  0.7818608E-02  0.3453562E+00
         11   -1    0    0    0    0  0.00000000000E+00  0.00000000000E+00  0.39999999674E+01  0.40000000000E+01  0.51100000000E-03 0.  1.
    9000002   -1    0    0    0    0 -0.00000000000E+00 -0.00000000000E+00  0.00000000000E+00  0.93800000000E+00  0.93800000000E+00 0. -1.
         11    1    1    2    0    0 -0.37586834178E+00 -0.17936159270E+00  0.15481542748E+01  0.16031935351E+01  0.51100000000E-03 0.  1.
    9000002    1    1    2    0    0  0.16177023395E+00  0.65274119038E-01  0.87543956394E-01  0.95809094741E+00  0.93800000000E+00 0. -1.
         22    1    1    2    0    0  0.21409810783E+00  0.11408747367E+00  0.23643017362E+01  0.23767155175E+01  0.00000000000E+00 0.  1.
</event>
<event>
 5    1  0.4838219E+001  0.1573477E+01  0.7818608E-02  0.3382663E+00
         11   -1    0    0    0    0  0.00000000000E+00  0.00000000000E+00  0.39999999674E+01  0.40000000000E+01  0.51100000000E-03 0. -1.
    9000002   -1    0    0    0    0 -0.00000000000E+00 -0.00000000000E+00  0.00000000000E+00  0.93800000000E+00  0.93800000000E+00 0.  1.
         11    1    1    2    0    0 -0.13478965834E+00 -0.47072426658E-01  0.10009344386E+01  0.10110658123E+01  0.51100000000E-03 0. -1.
    9000002    1    1    2    0    0 -0.13009432422E+00  0.93054559965E-01  0.36546253035E-01  0.95224120523E+00  0.93800000000E+00 0.  1.
         22    1    1    2    0    0  0.26488398256E+00 -0.45982133307E-01  0.29625192758E+01  0.29746929825E+01  0.00000000000E+00 0. -1.
</event>
<event>
 5    1  0.4838219E+001  0.1567170E+01  0.7818608E-02  0.3389785E+00
         11   -1    0    0    0    0  0.00000000000E+00  0.00000000000E+00  0.39999999674E+01  0.40000000000E+01  0.51100000000E-03 0.  1.
    9000002   -1    0    0    0    0 -0.00000000000E+00 -0.00000000000E+00  0.00000000000E+00  0.93800000000E+00  0.93800000000E+00 0.  1.
         11    1    1    2    0    0  0.21311703911E+00 -0.81163061515E-01  0.26736712451E+01  0.26833793065E+01  0.51100000000E-03 0.  1.
    9000002    1    1    2    0    0 -0.95088304390E-01 -0.85119904104E-01  0.34997647805E-01  0.94728877279E+00  0.93800000000E+00 0.  1.
         22    1    1    2    0    0 -0.11802873472E+00  0.16628296562E+00  0.12913310745E+01  0.13073319207E+01  0.00000000000E+00 0.  1.
</event>
<event>
 5    1  0.4838219E+001  0.1465337E+01  0.7818608E-02  0.3513881E+00
         11   -1    0    0    0    0  0.00000000000E+00  0.00000000000E+00  0.39999999674E+01  0.40000000000E+01  0.51100000000E-03 0. -1.
    9000002   -1    0    0    0    0 -0.00000000000E+00 -0.00000000000E+00  0.00000000000E+00  0.93800000000E+00  0.93800000000E+00 0.  1.
         11    1    1    2    0    0 -0.40099977411E+00  0.12533143456E+00  0.77250514684E+00  0.87935956829E+00  0.51100000000E-03 0. -1.
    9000002    1    1    2    0    0  0.11534514205E+00  0.10400308032E+00  0.15372411463E+00  0.96311798131E+00  0.93800000000E+00 0.  1.
         22    1    1    2    0    0  0.28565463206E+00 -0.22933451488E+00  0.30737707059E+01  0.30955224504E+01  0.00000000000E+00 0. -1.
</event>
<event>
 5    1  0.4838219E+001  0.1575979E+01  0.7818608E-02  0.3379854E+00
         11   -1    0    0    0    0  0.00000000000E+00  0.00000000000E+00  0.39999999674E+01  0.40000000000E+01  0.51100000000E-03 0. -1.
    9000002   -1    0    0    0    0 -0.00000000000E+00 -0.00000000000E+00  0.00000000000E+00  0.93800000000E+00  0.93800000000E+00 0. -1.
         11    1    1    2    0    0 -0.96345129762E-01 -0.81841192607E-01  0.17695005219E+01  0.17740103503E+01  0.51100000000E-03 0. -1.
    9000002    1    1    2    0    0 -0.18111819543E+00  0.71090757227E-01  0.42994331327E-01  0.95893180623E+00  0.93800000000E+00 0. -1.
         22    1    1    2    0    0  0.27746332519E+00  0.10750435381E-01  0.21875051141E+01  0.22050578435E+01  0.00000000000E+00 0. -1.
</event>
<event>
 5    1  0.4838219E+001  0.1570153E+01  0.7818608E-02  0.3386409E+00
         11   -1    0    0    0    0  0.00000000000E+00  0.00000000000E+00  0.39999999674E+01  0.40000000000E+01  0.51100000000E-03 0. -1.
    9000002   -1    0    0    0    0 -0.00000000000E+00 -0.00000000000E+00  0.00000000000E+00  0.93800000000E+00  0.93800000000E+00 0.  1.
         11    1    1    2    0    0  0.22191868466E+00  0.32164627371E-01  0.25609850668E+01  0.25707833903E+01  0.51100000000E-03 0. -1.
    9000002    1    1    2    0    0 -0.11145775909E+00 -0.24710530574E+00  0.72033985623E-01  0.97903869141E+00  0.93800000000E+00 0.  1.
         22    1    1    2    0    0 -0.11046092558E+00  0.21494067837E+00  0.13669809149E+01  0.13881779183E+01  0.00000000000E+00 0. -1.
</event>
<event>
 5    1  0.4838219E+001  0.1539783E+01  0.7818608E-02  0.3421432E+00
         11   -1    0    0    0    0  0.00000000000E+00  0.00000000000E+00  0.39999999674E+01  0.40000000000E+01  0.51100000000E-03 0. -1.
    9000002   -1    0    0    0    0 -0.00000000000E+00 -0.00000000000E+00  0.00000000000E+00  0.93800000000E+00  0.93800000000E+00 0.  1.
         11    1    1    2    0    0 -0.27114736764E+00  0.10514924699E+00  0.11313916140E+01  0.11681714362E+01  0.51100000000E-03 0. -1.
    9000002    1    1    2    0    0  0.34433037830E-01 -0.16492245246E+00  0.64584919731E-01  0.95519645167E+00  0.93800000000E+00 0.  1.
         22    1    1    2    0    0  0.23671432981E+00  0.59773205472E-01  0.28040234337E+01  0.28146321121E+01  0.00000000000E+00 0. -1.
</event>
<event>
 5    1  0.4838219E+001  0.1453536E+01  0.7818608E-02  0.3529477E+00
         11   -1    0    0    0    0  0.00000000000E+00  0.00000000000E+00  0.39999999674E+01  0.40000000000E+01  0.51100000000E-03 0. -1.
    9000002   -1    0    0    0    0 -0.00000000000E+00 -0.00000000000E+00  0.00000000000E+00  0.93800000000E+00  0.93800000000E+00 0. -1.
         11    1    1    2    0    0 -0.34905134705E+00  0.34413853633E+00  0.12099986558E+01  0.13055133792E+01  0.51100000000E-03 0. -1.
    9000002    1    1    2    0    0  0.15888741288E+00 -0.10783389517E+00  0.14289373287E+00  0.96805783805E+00  0.93800000000E+00 0. -1.
         22    1    1    2    0    0  0.19016393416E+00 -0.23630464116E+00  0.26471075787E+01  0.26644287828E+01  0.00000000000E+00 0. -1.
</event>
<event>
 5    1  0.4838219E+001  0.1574281E+01  0.7818608E-02  0.3381760E+00
         11   -1    0    0    0    0  0.00000000000E+00  0.00000000000E+00  0.39999999674E+01  0.40000000000E+01  0.51100000000E-03 0.  1.
    9000002   -1    0    0    0    0 -0.00000000000E+00 -0.00000000000E+00  0.00000000000E+00  0.93800000000E+00  0.93800000000E+00 0. -1.
         11    1    1    2    0    0  0.33566757058E+00 -0.10656600704E+00  0.24032764801E+01  0.24289436248E+01  0.51100000000E-03 0.  1.
    9000002    1    1    2    0    0 -0.39678549043E+00 -0.91270762395E-01  0.13347129861E+00  0.10312262919E+01  0.93800000000E+00 0. -1.
         22    1    1    2    0    0  0.61117919848E-01  0.19783676943E+00  0.14632521887E+01  0.14778300833E+01  0.00000000000E+00 0. -1.
</event>
<event>
 5    1  0.7538791E+001  0.1563240E+01  0.7818608E-02  0.3394254E+00
         11   -1    0    0    0    0  0.00000000000E+00  0.00000000000E+00  0.39999999674E+01  0.40000000000E+01  0.51100000000E-03 0.  1.
    9000002   -1    0    0    0    0 -0.00000000000E+00 -0.00000000000E+00  0.00000000000E+00  0.93800000000E+00  0.93800000000E+00 0. -1.
         11    1    1    2    0    0  0.16039434359E+00  0.68917740263E-01  0.72118166599E+00  0.74201028083E+00  0.51100000000E-03 0.  1.
    9000002    1    1    2    0    0  0.41016313868E-01 -0.56077472700E-01  0.30143857683E-01  0.94105242846E+00  0.93800000000E+00 0. -1.
         22    1    1    2    0    0 -0.20141065746E+00 -0.12840267563E-01  0.32486744437E+01  0.32549372907E+01  0.00000000000E+00 0. -1.
</event>
<event>
 5    1  0.4838219E+001  0.1312639E+01  0.7818608E-02  0.3758035E+00
         11   -1    0    0    0    0  0.00000000000E+00  0.00000000000E+00  0.39999999674E+01  0.40000000000E+01  0.51100000000E-03 0. -1.
    9000002   -1    0    0    0    0 -0.00000000000E+00 -0.00000000000E+00  0.00000000000E+00  0.93800000000E+00  0.93800000000E+00 0. -1.
         11    1    1    2    0    0  0.85092993478E+00 -0.18258974174E+00  0.29638118636E+01  0.30889483310E+01  0.51100000000E-03 0. -1.
    9000002    1    1    2    0    0 -0.51493595854E+00  0.37831092960E+00  0.68869213101E+00  0.13275613177E+01  0.93800000000E+00 0. -1.
         22    1    1    2    0    0 -0.33599397624E+00 -0.19572118786E+00  0.34749597275E+00  0.52149035133E+00  0.00000000000E+00 0.  1.
</event>
<event>
 5    1  0.4838219E+001  0.1552010E+01  0.7818608E-02  0.3407156E+00
         11   -1    0    0    0    0  0.00000000000E+00  0.00000000000E+00  0.39999999674E+01  0.40000000000E+01  0.51100000000E-03 0. -1.
    9000002   -1    0    0    0    0 -0.00000000000E+00 -0.00000000000E+00  0.00000000000E+00  0.93800000000E+00  0.93800000000E+00 0. -1.
         11    1    1    2    0    0 -0.28385646255E-01  0.26203333880E+00  0.13440922105E+01  0.13696902376E+01  0.51100000000E-03 0. -1.
    9000002    1    1    2    0    0  0.20557017592E+00 -0.47157806525E-01  0.66228557062E-01  0.96369765887E+00  0.93800000000E+00 0. -1.
         22    1    1    2    0    0 -0.17718452967E+00 -0.21487553228E+00  0.25896791998E+01  0.26046121035E+01  0.00000000000E+00 0. -1.
</event>
<event>
 5    1  0.4838219E+001  0.1490817E+01  0.7818608E-02  0.3481119E+00
         11   -1    0    0    0    0  0.00000000000E+00  0.00000000000E+00  0.39999999674E+01  0.40000000000E+01  0.51100000000E-03 0.  1.
    9000002   -1    0    0    0    0 -0.00000000000E+00 -0.00000000000E+00  0.00000000000E+00  0.93800000000E+00  0.93800000000E+00 0. -1.
         11    1    1    2    0    0 -0.27110775757E+00 -0.44069862738E+00  0.61929420955E+00  0.80699459446E+00  0.51100000000E-03 0.  1.
    9000002    1    1    2    0    0  0.76692185207E-01  0.55100621263E+00  0.43068556578E+00  0.11725287179E+01  0.93800000000E+00 0. -1.
         22    1    1    2    0    0  0.19441557237E+00 -0.11030758525E+00  0.29500201920E+01  0.29584766877E+01  0.00000000000E+00 0.  1.
</event>
<event>
 5    1  0.4838219E+001  0.1563018E+01  0.7818608E-02  0.3394507E+00
         11   -1    0    0    0    0  0.00000000000E+00  0.00000000000E+00  0.39999999674E+01  0.40000000000E+01  0.51100000000E-03 0.  1.
    9000002   -1    0    0    0    0 -0.00000000000E+00 -0.00000000000E+00  0.00000000000E+00  0.93800000000E+00  0.93800000000E+00 0.  1.
         11    1    1    2    0    0 -0.30042419651E+00 -0.10326308588E+00  0.28471470489E+01  0.28648149228E+01  0.51100000000E-03 0.  1.
    9000002    1    1    2    0    0  0.30962718417E+00 -0.11986995902E+00  0.10357472369E+00  0.10004046799E+01  0.93800000000E+00 0.  1.
         22    1    1    2    0    0 -0.92029876688E-02  0.22313304490E+00  0.10492781948E+01  0.10727803973E+01  0.00000000000E+00 0.  1.
</event>
<event>
 5    1  0.4838219E+001  0.1587741E+01  0.7818608E-02  0.3366777E+00
         11   -1    0    0    0    0  0.00000000000E+00  0.00000000000E+00  0.39999999674E+01  0.40000000000E+01  0.51100000000E-03 0. -1.
    9000002   -1    0    0    0    0 -0.00000000000E+00 -0.00000000000E+00  0.00000000000E+00  0.93800000000E+00  0.93800000000E+00 0. -1.
         11    1    1    2    0    0  0.36213290149E-01 -0.33153259005E-01  0.14806025659E+01  0.14814164709E+01  0.51100000000E-03 0. -1.
    9000002    1    1    2    0    0  0.56001755645E-01 -0.21545879896E+00  0.41930440612E-01  0.96496676240E+00  0.93800000000E+00 0. -1.
         22    1    1    2    0    0 -0.92215045794E-01  0.24861205797E+00  0.24774669609E+01  0.24916167667E+01  0.00000000000E+00 0. -1.
</event>
<event>
 5    1  0.4838219E+001  0.1537023E+01  0.7818608E-02  0.3424687E+00
         11   -1    0    0    0    0  0.00000000000E+00  0.00000000000E+00  0.39999999674E+01  0.40000000000E+01  0.51100000000E-03 0. -1.
    9000002   -1    0    0    0    0 -0.00000000000E+00 -0.00000000000E+00  0.00000000000E+00  0.93800000000E+00  0.93800000000E+00 0. -1.
         11    1    1    2    0    0  0.41325868329E-01 -0.21959691663E+00  0.21170182121E+01  0.21287782892E+01  0.51100000000E-03 0. -1.
    9000002    1    1    2    0    0  0.36379950194E+00  0.72921671003E-01  0.14555161360E+00  0.10191648149E+01  0.93800000000E+00 0. -1.
         22    1    1    2    0    0 -0.40512537027E+00  0.14667524562E+00  0.17374301416E+01  0.17900568959E+01  0.00000000000E+00 0. -1.
</event>
<event>
 5    1  0.4838219E+001  0.1538878E+01  0.7818608E-02  0.3422497E+00
         11   -1    0    0    0    0  0.00000000000E+00  0.00000000000E+00  0.39999999674E+01  0.40000000000E+01  0.51100000000E-03 0.  1.
    9000002   -1    0    0    0    0 -0.00000000000E+00 -0.00000000000E+00  0.00000000000E+00  0.93800000000E+00  0.93800000000E+00 0. -1.
         11    1    1    2    0    0 -0.61052662855E-01 -0.25540405351E+00  0.32366164269E+01  0.32472518865E+01  0.51100000000E-03 0.  1.
    9000002    1    1    2    0    0  0.59439731788E-01  0.31543628024E-01  0.48531188545E-01  0.94166201922E+00  0.93800000000E+00 0. -1.
         22    1    1    2    0    0  0.16129310676E-02  0.22386042548E+00  0.71485235188E+00  0.74908609427E+00  0.00000000000E+00 0.  1.
</event>
<event>
 5    1  0.4838219E+001  0.1539676E+01  0.7818608E-02  0.3421557E+00
         11   -1    0    0    0    0  0.00000000000E+00  0.00000000000E+00  0.39999999674E+01  0.40000000000E+01  0.51100000000E-03 0. -1.
    9000002   -1    0    0    0    0 -0.00000000000E+00 -0.00000000000E+00  0.00000000000E+00  0.93800000000E+00  0.93800000000E+00 0.  1.
         11    1    1    2    0    0  0.13681581084E+00  0.34056318709E+00  0.18049771464E+01  0.18419133016E+01  0.51100000000E-03 0. -1.
    9000002    1    1    2    0    0  0.37974506622E-01 -0.19613913160E+00  0.72813717224E-01  0.96179959426E+00  0.93800000000E+00 0.  1.
         22    1    1    2    0    0 -0.17479031747E+00 -0.14442405549E+00  0.21222091037E+01  0.21342871041E+01  0.00000000000E+00 0. -1.
</event>
<event>
 5    1  0.4838219E+001  0.1379678E+01  0.7818608E-02  0.3640010E+00
         11   -1    0    0    0    0  0.00000000000E+00  0.00000000000E+00  0.39999999674E+01  0.40000000000E+01  0.51100000000E-03 0. -1.
    9000002   -1    0    0    0    0 -0.00000000000E+00 -0.00000000000E+00  0.00000000000E+00  0.93800000000E+00  0.93800000000E+00 0. -1.
         11    1    1    2    0    0  0.11326531172E+01 -0.21892730032E-01  0.13707636584E+01  0.17783069600E+01  0.51100000000E-03 0. -1.
    9000002    1    1    2    0    0 -0.98489632970E+00 -0.12546066990E+00  0.15739304638E+01  0.20839535179E+01  0.93800000000E+00 0. -1.
         22    1    1    2    0    0 -0.14775678746E+00  0.14735339993E+00  0.10553058451E+01  0.10757395221E+01  0.00000000000E+00 0.  1.
</event>
<event>
 5    1  0.4838219E+001  0.1460900E+01  0.7818608E-02  0.3519712E+00
         11   -1    0    0    0    0  0.00000000000E+00  0.00000000000E+00  0.39999999674E+01  0.40000000000E+01  0.51100000000E-03 0. -1.
    9000002   -1    0    0    0    0 -0.00000000000E+00 -0.00000000000E+00  0.00000000000E+00  0.93800000000E+00  0.93800000000E+00 0. -1.
         11    1    1    2    0    0  0.20099794881E+00  0.22374505671E+00  0.33962073336E+00  0.45365684110E+00  0.51100000000E-03 0. -1.
    9000002    1    1    2    0    0  0.43864805824E-01 -0.12004253200E+00  0.14356650871E+00  0.95749134362E+00  0.93800000000E+00 0. -1.
         22    1    1    2    0    0 -0.24486275463E+00 -0.10370252471E+00  0.35168127253E+01  0.35268518153E+01  0.00000000000E+00 0. -1.
</event>
<event>
 5    1  0.4838219E+001  0.1551028E+01  0.7818608E-02  0.3408294E+00
         11   -1    0    0    0    0  0.00000000000E+00  0.00000000000E+00  0.39999999674E+01  0.40000000000E+01  0.51100000000E-03 0.  1.
    9000002   -1    0    0    0    0 -0.00000000000E+00 -0.00000000000E+00  0.00000000000E+00  0.93800000000E+00  0.93800000000E+00 0. -1.
         11    1    1    2    0    0  0.22170554555E+00 -0.12306954282E+00  0.19809812812E+01  0.19971446014E+01  0.51100000000E-03 0.  1.
    9000002    1    1    2    0    0  0.20380172321E-01 -0.12017274519E-01  0.36458330978E-01  0.93900637709E+00  0.93800000000E+00 0. -1.
         22    1    1    2    0    0 -0.24208571787E+00  0.13508681734E+00  0.19825603552E+01  0.20018490215E+01  0.00000000000E+00 0.  1.
</event>
<event>
 5    1  0.4838219E+001  0.1508155E+01  0.7818608E-02  0.3459508E+00
         11   -1    0    0    0    0  0.00000000000E+00  0.00000000000E+00  0.39999999674E+01  0.40000000000E+01  0.51100000000E-03 0. -1.
    9000002   -1    0    0    0    0 -0.00000000000E+00 -0.00000000000E+00  0.00000000000E+00  0.93800000000E+00  0.93800000000E+00 0. -1.
         11    1    1    2    0    0  0.55141736887E+00  0.23649663406E+00  0.23282491615E+01  0.24043161589E+01  0.51100000000E-03 0. -1.
    9000002    1    1    2    0    0 -0.46994957382E+00  0.46452986605E-02  0.23576647920E+00  0.10753157738E+01  0.93800000000E+00 0. -1.
         22    1    1    2    0    0 -0.81467795051E-01 -0.24114193272E+00  0.14359843266E+01  0.14583680673E+01  0.00000000000E+00 0.  1.
</event>
<event>
 5    1  0.4838219E+001  0.1560973E+01  0.7818608E-02  0.3396842E+00
         11   -1    0    0    0    0  0.00000000000E+00  0.00000000000E+00  0.39999999674E+01  0.40000000000E+01  0.51100000000E-03 0.  1.
    9000002   -1    0    0    0    0 -0.00000000000E+00 -0.00000000000E+00  0.00000000000E+00  0.93800000000E+00  0.93800000000E+00 0. -1.
         11    1    1    2    0    0  0.58224540595E-02 -0.21168913941E+00  0.97402403831E+00  0.99677945457E+00  0.51100000000E-03 0.  1.
    9000002    1    1    2    0    0  0.15701647868E+00  0.48844125697E-01  0.47113246881E-01  0.95346923454E+00  0.93800000000E+00 0. -1.
         22    1    1    2    0    0 -0.16283893273E+00  0.16284501372E+00  0.29788626822E+01  0.29877513109E+01  0.00000000000E+00 0.  1.
</event>
<event>
 5    1  0.4838219E+001  0.1310225E+01  0.7818608E-02  0.3762558E+00
         11   -1    0    0    0    0  0.00000000000E+00  0.00000000000E+00  0.39999999674E+01  0.40000000000E+01  0.51100000000E-03 0.  1.
    9000002   -1    0    0    0    0 -0.00000000000E+00 -0.00000000000E+00  0.00000000000E+00  0.93800000000E+00  0.93800000000E+00 0.  1.
         11    1    1    2    0    0 -0.27536196994E+00  0.77909041295E+00  0.13763525859E+01  0.16053512974E+01  0.51100000000E-03 0.  1.
    9000002    1    1    2    0    0  0.35376919302E+00 -0.37552135350E+00  0.52170209439E+00  0.11908761498E+01  0.93800000000E+00 0.  1.
         22    1    1    2    0    0 -0.78407223077E-01 -0.40356905945E+00  0.21019452870E+01  0.21417725528E+01  0.00000000000E+00 0.  1.
</event>
<event>
 5    1  0.4838219E+001  0.1575962E+01  0.7818608E-02  0.3379874E+00
         11   -1    0    0    0    0  0.00000000000E+00  0.00000000000E+00  0.39999999674E+01  0.40000000000E+01  0.51100000000E-03 0.  1.
    9000002   -1    0    0    0    0 -0.00000000000E+00 -0.00000000000E+00  0.00000000000E+00  0.93800000000E+00  0.93800000000E+00 0. -1.
         11    1    1    2    0    0 -0.13866209325E+00 -0.81891917704E-01  0.20063601726E+01  0.20128126752E+01  0.51100000000E-03 0.  1.
    9000002    1    1    2    0    0 -0.80756085840E-01  0.24903174299E+00  0.64017635747E-01  0.97595113203E+00  0.93800000000E+00 0. -1.
         22    1    1    2    0    0  0.21941817909E+00 -0.16713982529E+00  0.19296221590E+01  0.19492361927E+01  0.00000000000E+00 0.  1.
</event>
<event>
 5    1  0.4838219E+001  0.1568285E+01  0.7818608E-02  0.3388522E+00
         11   -1    0    0    0    0  0.00000000000E+00  0.00000000000E+00  0.39999999674E+01  0.40000000000E+01  0.51100000000E-03 0.  1.
    9000002   -1    0    0    0    0 -0.00000000000E+00 -0.00000000000E+00  0.00000000000E+00  0.93800000000E+00  0.93800000000E+00 0.  1.
         11    1    1    2    0    0 -0.12555072574E+00 -0.86438990817E-02  0.21772880155E+01  0.21809220677E+01  0.51100000000E-03 0.  1.
    9000002    1    1    2    0    0 -0.19807938852E-02 -0.29132781847E+00  0.81453258628E-01  0.98557316050E+00  0.93800000000E+00 0.  1.
         22    1    1    2    0    0  0.12753151962E+00  0.29997171755E+00  0.17412586932E+01  0.17715047718E+01  0.00000000000E+00 0.  1.
</event>
<event>
 5    1  0.4838219E+001  0.1221844E+01  0.7818608E-02  0.3943328E+00
         11   -1    0    0    0    0  0.00000000000E+00  0.00000000000E+00  0.39999999674E+01  0.40000000000E+01  0.51100000000E-03 0. -1.
    9000002   -1    0    0    0    0 -0.00000000000E+00 -0.00000000000E+00  0.00000000000E+00  0.93800000000E+00  0.93800000000E+00 0. -1.
         11    1    1    2    0    0  0.10572644402E+01 -0.14184368710E+00  0.12846296995E+01  0.16697908414E+01  0.51100000000E-03 0. -1.
    9000002    1    1    2    0    0 -0.70645689758E+00 -0.44244240558E-01  0.11171401275E+01  0.16213836577E+01  0.93800000000E+00 0. -1.
         22    1    1    2    0    0 -0.35080754264E+00  0.18608792766E+00  0.15982301404E+01  0.16468255009E+01  0.00000000000E+00 0. -1.
</event>
<event>
 5    1  0.4838219E+001  0.1565698E+01  0.7818608E-02  0.3391457E+00
         11   -1    0    0    0    0  0.00000000000E+00  0.00000000000E+00  0.39999999674E+01  0.40000000000E+01  0.51100000000E-03 0. -1.
    9000002   -1    0    0    0    0 -0.00000000000E+00 -0.00000000000E+00  0.00000000000E+00  0.93800000000E+00  0.93800000000E+00 0.  1.
         11    1    1    2    0    0  0.92958087795E-01 -0.20134081203E-01  0.18566725832E+00  0.20861250980E+00  0.51100000000E-03 0. -1.
    9000002    1    1    2    0    0 -0.24856994918E-01 -0.19403057588E+00  0.51196854143E-01  0.95954721220E+00  0.93800000000E+00 0.  1.
         22    1    1    2    0    0 -0.68101092877E-01  0.21416465708E+00  0.37631358549E+01  0.37698402780E+01  0.00000000000E+00 0. -1.
</event>
<event>
 5    1  0.4838219E+001  0.1554453E+01  0.7818608E-02  0.3404332E+00
         11   -1    0    0    0    0  0.00000000000E+00  0.00000000000E+00  0.39999999674E+01  0.40000000000E+01  0.51100000000E-03 0. -1.
    9000002   -1    0    0    0    0 -0.00000000000E+00 -0.00000000000E+00  0.00000000000E+00  0.93800000000E+00  0.93800000000E+00 0. -1.
         11    1    1    2    0    0 -0.14470029480E+00  0.17799142546E+00  0.11041304674E+01  0.11277071752E+01  0.51100000000E-03 0. -1.
    9000002    1    1    2    0    0  0.72771699155E-01  0.55004407665E-01  0.39205472350E-01  0.94324030561E+00  0.93800000000E+00 0. -1.
         22    1    1    2    0    0  0.71928595648E-01 -0.23299583312E+00  0.28566640276E+01  0.28670525192E+01  0.00000000000E+00 0. -1.
</event>
<event>
 5    1  0.4838219E+001  0.1537047E+01  0.7818608E-02  0.3424659E+00
         11   -1    0    0    0    0  0.00000000000E+00  0.00000000000E+00  0.39999999674E+01  0.40000000000E+01  0.51100000000E-03 0.  1.
    9000002   -1    0    0    0    0 -0.00000000000E+00 -0.00000000000E+00  0.00000000000E+00  0.93800000000E+00  0.93800000000E+00 0. -1.
         11    1    1    2    0    0  0.11614347782E+00 -0.15494520039E+00  0.35583802731E+00  0.40511515075E+00  0.51100000000E-03 0.  1.
    9000002    1    1    2    0    0  0.77703677450E-01  0.27469143457E+00  0.10465040779E+00  0.98604713557E+00  0.93800000000E+00 0. -1.
         22    1    1    2    0    0 -0.19384715526E+00 -0.11974623418E+00  0.35395115323E+01  0.35468377137E+01  0.00000000000E+00 0.  1.
</event>
<event>
 5    1  0.4838219E+001  0.1590762E+01  0.7818608E-02  0.3363451E+00
         11   -1    0    0    0    0  0.00000000000E+00  0.00000000000E+00  0.39999999674E+01  0.40000000000E+01  0.51100000000E-03 0. -1.
    9000002   -1    0    0    0    0 -0.00000000000E+00 -0.00000000000E+00  0.00000000000E+00  0.93800000000E+00  0.93800000000E+00 0. -1.
         11    1    1    2    0    0 -0.17044673012E+00 -0.39015458125E-02  0.11808814431E+01  0.11931255398E+01  0.51100000000E-03 0. -1.
    9000002    1    1    2    0    0  0.31776870498E+00  0.25666480755E+00  0.12017035503E+00  0.10301158612E+01  0.93800000000E+00 0. -1.
         22    1    1    2    0    0 -0.14732197486E+00 -0.25276326174E+00  0.26989481692E+01  0.27147585990E+01  0.00000000000E+00 0.  1.
</event>
<event>
 5    1  0.7348208E+001  0.1573734E+01  0.7818608E-02  0.3382374E+00
         11   -1    0    0    0    0  0.00000000000E+00  0.00000000000E+00  0.39999999674E+01  0.40000000000E+01  0.51100000000E-03 0.  1.
    9000002   -1    0    0    0    0 -0.00000000000E+00 -0.00000000000E+00  0.00000000000E+00  0.93800000000E+00  0.93800000000E+00 0. -1.
         11    1    1    2    0    0  0.17528982769E+00  0.29851552508E-02  0.15359621912E+01  0.15459351696E+01  0.51100000000E-03 0.  1.
    9000002    1    1    2    0    0  0.34442781539E-01  0.10000469473E-01  0.19885408120E-01  0.93889602409E+00  0.93800000000E+00 0. -1.
         22    1    1    2    0    0 -0.20973260923E+00 -0.12985624724E-01  0.24441523681E+01  0.24531688063E+01  0.00000000000E+00 0.  1.
</event>
<event>
 5    1  0.4838219E+001  0.1579238E+01  0.7818608E-02  0.3376210E+00
         11   -1    0    0    0    0  0.00000000000E+00  0.00000000000E+00  0.39999999674E+01  0.40000000000E+01  0.51100000000E-03 0.  1.
    9000002   -1    0    0    0    0 -0.00000000000E+00 -0.00000000000E+00  0.00000000000E+00  0.93800000000E+00  0.93800000000E+00 0.  1.
         11    1    1    2    0    0  0.16824664768E+00  0.63886410335E-01  0.22203155998E+01  0.22275973675E+01  0.51100000000E-03 0.  1.
    9000002    1    1    2    0    0 -0.13190512594E+00  0.14002922244E+00  0.39923676113E-01  0.95835538570E+00  0.93800000000E+00 0.  1.
         22    1    1    2    0    0 -0.36341521743E-01 -0.20391563278E+00  0.17397606914E+01  0.17520472468E+01  0.00000000000E+00 0.  1.
</event>
<event>
 5    1  0.4838219E+001  0.1519307E+01  0.7818608E-02  0.3445888E+00
         11   -1    0    0    0    0  0.00000000000E+00  0.00000000000E+00  0.39999999674E+01  0.40000000000E+01  0.51100000000E-03 0. -1.
    9000002   -1    0    0    0    0 -0.00000000000E+00 -0.00000000000E+00  0.00000000000E+00  0.93800000000E+00  0.93800000000E+00 0. -1.
         11    1    1    2    0    0 -0.25446263361E+00  0.39653798512E+00  0.27837933219E+01  0.28233843390E+01  0.51100000000E-03 0. -1.
    9000002    1    1    2    0    0  0.31236283630E+00 -0.12730187542E+00  0.14344944958E+00  0.10070740060E+01  0.93800000000E+00 0. -1.
         22    1    1    2    0    0 -0.57900202684E-01 -0.26923610970E+00  0.10727571959E+01  0.11075416550E+01  0.00000000000E+00 0. -1.
</event>
<event>
 5    1  0.4838219E+001  0.1525897E+01  0.7818608E-02  0.3437940E+00
         11   -1    0    0    0    0  0.00000000000E+00  0.00000000000E+00  0.39999999674E+01  0.40000000000E+01  0.51100000000E-03 0. -1.
    9000002   -1    0    0    0    0 -0.00000000000E+00 -0.00000000000E+00  0.00000000000E+00  0.93800000000E+00  0.93800000000E+00 0. -1.
         11    1    1    2    0    0 -0.87513145958E-01 -0.24350985448E+00  0.54686064814E+00  0.60498961111E+00  0.51100000000E-03 0. -1.
    9000002    1    1    2    0    0 -0.29019192399E+00  0.33602585214E+00  0.20019427226E+00  0.10569041928E+01  0.93800000000E+00 0. -1.
         22    1    1    2    0    0  0.37770506995E+00 -0.92515997661E-01  0.32529450470E+01  0.32761061961E+01  0.00000000000E+00 0. -1.
</event>
<event>
 5    1  0.4838219E+001  0.1545530E+01  0.7818608E-02  0.3414692E+00
         11   -1    0    0    0    0  0.00000000000E+00  0.00000000000E+00  0.39999999674E+01  0.40000000000E+01  0.51100000000E-03 0.  1.
    9000002   -1    0    0    0    0 -0.00000000000E+00 -0.00000000000E+00  0.00000000000E+00  0.93800000000E+00  0.93800000000E+00 0.  1.
         11    1    1    2    0    0 -0.15080871463E+00 -0.15100406613E+00  0.65753951526E+00  0.69130598988E+00  0.51100000000E-03 0.  1.
    9000002    1    1    2    0    0 -0.41450732932E-01  0.72048572536E-01  0.45063570051E-01  0.94275335343E+00  0.93800000000E+00 0.  1.
         22    1    1    2    0    0  0.19225944757E+00  0.78955493591E-01  0.32973968820E+01  0.33039406567E+01  0.00000000000E+00 0.  1.
</event>
<event>
 5    1  0.4838219E+001  0.1503960E+01  0.7818608E-02  0.3464688E+00
         11   -1    0    0    0    0  0.00000000000E+00  0.00000000000E+00  0.39999999674E+01  0.40000000000E+01  0.51100000000E-03 0.  1.
    9000002   -1    0    0    0    0 -0.00000000000E+00 -0.00000000000E+00  0.00000000000E+00  0.93800000000E+00  0.93800000000E+00 0. -1.
         11    1    1    2    0    0  0.43582228803E+00 -0.20704017930E+00  0.20451473970E+01  0.21012936109E+01  0.51100000000E-03 0.  1.
    9000002    1    1    2    0    0 -0.25712628024E+00 -0.23833074561E-01  0.12173079411E+00  0.98048168044E+00  0.93800000000E+00 0. -1.
         22    1    1    2    0    0 -0.17869600778E+00  0.23087325386E+00  0.18331217762E+01  0.18562247086E+01  0.00000000000E+00 0.  1.
</event>
<event>
 5    1  0.4838219E+001  0.1525065E+01  0.7818608E-02  0.3438939E+00
         11   -1    0    0    0    0  0.00000000000E+00  0.00000000000E+00  0.39999999674E+01  0.40000000000E+01  0.51100000000E-03 0. -1.
    9000002   -1    0    0    0    0 -0.00000000000E+00 -0.00000000000E+00  0.00000000000E+00  0.93800000000E+00  0.93800000000E+00 0. -1.
         11    1    1    2    0    0 -0.14990774163E+00 -0.32114879531E+00  0.13285265178E+01  0.13749879452E+01  0.51100000000E-03 0. -1.
    9000002    1    1    2    0    0 -0.16315420494E+00  0.24984199455E+00  0.12021985860E+00  0.99163356702E+00  0.93800000000E+00 0. -1.
         22    1    1    2    0    0  0.31306194657E+00  0.71306800764E-01  0.25512535909E+01  0.25713784878E+01  0.00000000000E+00 0. -1.
</event>
<event>
 5    1  0.4838219E+001  0.1525703E+01  0.7818608E-02  0.3438174E+00
         11   -1    0    0    0    0  0.00000000000E+00  0.00000000000E+00  0.39999999674E+01  0.40000000000E+01  0.51100000000E-03 0.  1.
    9000002   -1    0    0    0    0 -0.00000000000E+00 -0.00000000000E+00  0.00000000000E+00  0.93800000000E+00  0.93800000000E+00 0.  1.
         11    1    1    2    0    0  0.92539551400E-01 -0.30341213864E+00  0.10357407575E+01  0.10832274333E+01  0.51100000000E-03 0.  1.
    9000002    1    1    2    0    0 -0.13185061024E+00  0.72111074849E-01  0.71646261222E-01  0.95266036828E+00  0.93800000000E+00 0.  1.
         22    1    1    2    0    0  0.39311058843E-01  0.23130106379E+00  0.28926129486E+01  0.29021121984E+01  0.00000000000E+00 0.  1.
</event>
<event>
 5    1  0.4838219E+001  0.1569261E+01  0.7818608E-02  0.3387417E+00
         11   -1    0    0    0    0  0.00000000000E+00  0.00000000000E+00  0.39999999674E+01  0.40000000000E+01  0.51100000000E-03 0.  1.
    9000002   -1    0    0    0    0 -0.00000000000E+00 -0.00000000000E+00  0.00000000000E+00  0.93800000000E+00  0.93800000000E+00 0.  1.
         11    1    1    2    0    0 -0.10489377511E+00  0.15808370706E-01  0.21199911417E+01  0.21226434723E+01  0.51100000000E-03 0.  1.
    9000002    1    1    2    0    0 -0.18877818920E+00 -0.98714447533E-01  0.53328595346E-01  0.96336373502E+00  0.93800000000E+00 0.  1.
         22    1    1    2    0    0  0.29367196430E+00  0.82906076827E-01  0.18266802303E+01  0.18519927927E+01  0.00000000000E+00 0.  1.
</event>
<event>
 5    1  0.4838219E+001  0.1502601E+01  0.7818608E-02  0.3466371E+00
         11   -1    0    0    0    0  0.00000000000E+00  0.00000000000E+00  0.39999999674E+01  0.40000000000E+01  0.51100000000E-03 0. -1.
    9000002   -1    0    0    0    0 -0.00000000000E+00 -0.00000000000E+00  0.00000000000E+00  0.93800000000E+00  0.93800000000E+00 0.  1.
         11    1    1    2    0    0  0.11819183509E-02  0.39397700278E+00  0.11673535927E+01  0.12320446206E+01  0.51100000000E-03 0. -1.
    9000002    1    1    2    0    0 -0.46920522919E+00 -0.24396710516E+00  0.28852008872E+00  0.11147920600E+01  0.93800000000E+00 0.  1.
         22    1    1    2    0    0  0.46802331084E+00 -0.15000989762E+00  0.25441262860E+01  0.25911633194E+01  0.00000000000E+00 0. -1.
</event>
<event>
 5    1  0.4838219E+001  0.1514981E+01  0.7818608E-02  0.3451146E+00
         11   -1    0    0    0    0  0.00000000000E+00  0.00000000000E+00  0.39999999674E+01  0.40000000000E+01  0.51100000000E-03 0. -1.
    9000002   -1    0    0    0    0 -0.00000000000E+00 -0.00000000000E+00  0.00000000000E+00  0.93800000000E+00  0.93800000000E+00 0. -1.
         11    1    1    2    0    0  0.32682840712E+00  0.46952021649E+00  0.18130545469E+01  0.19011662454E+01  0.51100000000E-03 0. -1.
    9000002    1    1    2    0    0 -0.44934385182E+00 -0.27613780614E+00  0.27427230047E+00  0.11105094686E+01  0.93800000000E+00 0. -1.
         22    1    1    2    0    0  0.12251544470E+00 -0.19338241034E+00  0.19126731200E+01  0.19263242859E+01  0.00000000000E+00 0.  1.
</event>
<event>
 5    1  0.4838219E+001  0.1527116E+01  0.7818608E-02  0.3436478E+00
         11   -1    0    0    0    0  0.00000000000E+00  0.00000000000E+00  0.39999999674E+01  0.40000000000E+01  0.51100000000E-03 0. -1.
    9000002   -1    0    0    0    0 -0.00000000000E+00 -0.00000000000E+00  0.00000000000E+00  0.93800000000E+00  0.93800000000E+00 0.  1.
         11    1    1    2    0    0  0.10196410491E+00 -0.21704434553E+00  0.69678217805E+00  0.73689252363E+00  0.51100000000E-03 0. -1.
    9000002    1    1    2    0    0  0.29470987617E-01 -0.44505507664E-01  0.56493518022E-01  0.94121453288E+00  0.93800000000E+00 0.  1.
         22    1    1    2    0    0 -0.13143509253E+00  0.26154985319E+00  0.32467242713E+01  0.32598929435E+01  0.00000000000E+00 0.  1.
</event>
<event>
 5    1  0.4838219E+001  0.1450461E+01  0.7818608E-02  0.3533587E+00
         11   -1    0    0    0    0  0.00000000000E+00  0.00000000000E+00  0.39999999674E+01  0.40000000000E+01  0.51100000000E-03 0. -1.
    9000002   -1    0    0    0    0 -0.00000000000E+00 -0.00000000000E+00  0.00000000000E+00  0.93800000000E+00  0.93800000000E+00 0.  1.
         11    1    1    2    0    0  0.27591883439E+00 -0.29016301939E+00  0.11544649381E+01  0.12219309864E+01  0.51100000000E-03 0. -1.
    9000002    1    1    2    0    0  0.22907633624E+00  0.81923927298E-01  0.16813515337E+00  0.98351457919E+00  0.93800000000E+00 0.  1.
         22    1    1    2    0    0 -0.50499517063E+00  0.20823909209E+00  0.26773998759E+01  0.27325544344E+01  0.00000000000E+00 0. -1.
</event>
<event>
 5    1  0.4838219E+001  0.1553206E+01  0.7818608E-02  0.3405772E+00
         11   -1    0    0    0    0  0.00000000000E+00  0.00000000000E+00  0.39999999674E+01  0.40000000000E+01  0.51100000000E-03 0. -1.
    9000002   -1    0    0    0    0 -0.00000000000E+00 -0.00000000000E+00  0.00000000000E+00  0.93800000000E+00  0.93800000000E+00 0. -1.
         11    1    1    2    0    0  0.70069436687E-01 -0.27566018558E-01  0.80959038962E-01  0.11056327802E+00  0.51100000000E-03 0. -1.
    9000002    1    1    2    0    0  0.18852636224E+00 -0.15434901246E-01  0.59208749602E-01  0.95871273146E+00  0.93800000000E+00 0. -1.
         22    1    1    2    0    0 -0.25859579892E+00  0.43000919803E-01  0.38598321788E+01  0.38687239905E+01  0.00000000000E+00 0. -1.
</event>
<event>
 5    1  0.4838219E+001  0.1524832E+01  0.7818608E-02  0.3439220E+00
         11   -1    0    0    0    0  0.00000000000E+00  0.00000000000E+00  0.39999999674E+01  0.40000000000E+01  0.51100000000E-03 0. -1.
    9000002   -1    0    0    0    0 -0.00000000000E+00 -0.00000000000E+00  0.00000000000E+00  0.93800000000E+00  0.93800000000E+00 0.  1.
         11    1    1    2    0    0 -0.40751036676E+00 -0.21871951544E-01  0.32313846324E+01  0.32570523461E+01  0.51100000000E-03 0. -1.
    9000002    1    1    2    0    0  0.18976028015E+00  0.99177300124E-02  0.82032082287E-01  0.96056264128E+00  0.93800000000E+00 0.  1.
         22    1    1    2    0    0  0.21775008661E+00  0.11954221532E-01  0.68658325263E+00  0.72038501263E+00  0.00000000000E+00 0.  1.
</event>
<event>
 5    1  0.4838219E+001  0.1538050E+01  0.7818608E-02  0.3423474E+00
         11   -1    0    0    0    0  0.00000000000E+00  0.00000000000E+00  0.39999999674E+01  0.40000000000E+01  0.51100000000E-03 0. -1.
    9000002   -1    0    0    0    0 -0.00000000000E+00 -0.00000000000E+00  0.00000000000E+00  0.93800000000E+00  0.93800000000E+00 0.  1.
         11    1    1    2    0    0  0.52980732544E-01  0.15179963359E+00  0.23527883366E+00  0.28496750248E+00  0.51100000000E-03 0. -1.
    9000002    1    1    2    0    0 -0.27578505835E+00 -0.10857652499E+00  0.10839195896E+00  0.98966614419E+00  0.93800000000E+00 0.  1.
         22    1    1    2    0    0  0.22280432581E+00 -0.43223108593E-01  0.36563291747E+01  0.36633663533E+01  0.00000000000E+00 0. -1.
</event>
<event>
 5    1  0.4838219E+001  0.1583436E+01  0.7818608E-02  0.3371540E+00
         11   -1    0    0    0    0  0.00000000000E+00  0.00000000000E+00  0.39999999674E+01  0.40000000000E+01  0.51100000000E-03 0.  1.
    9000002   -1    0    0    0    0 -0.00000000000E+00 -0.00000000000E+00  0.00000000000E+00  0.93800000000E+00  0.93800000000E+00 0.  1.
         11    1    1    2    0    0 -0.82866474455E-01 -0.90618436880E-01  0.12722059527E+01  0.12781184612E+01  0.51100000000E-03 0.  1.
    9000002    1    1    2    0    0  0.21779491640E+00 -0.16175733330E+00  0.61613999050E-01  0.97838660322E+00  0.93800000000E+00 0.  1.
         22    1    1    2    0    0 -0.13492844195E+00  0.25237577017E+00  0.26661800156E+01  0.26814949355E+01  0.00000000000E+00 0.  1.
</event>
<event>
 5    1  0.4838219E+001  0.1584181E+01  0.7818608E-02  0.3370714E+00
         11   -1    0    0    0    0  0.00000000000E+00  0.00000000000E+00  0.39999999674E+01  0.40000000000E+01  0.51100000000E-03 0. -1.
    9000002   -1    0    0    0    0 -0.00000000000E+00 -0.00000000000E+00  0.00000000000E+00  0.93800000000E+00  0.93800000000E+00 0. -1.
         11    1    1    2    0    0  0.12040809450E-02  0.26042239686E-01  0.26671886380E+01  0.26673160930E+01  0.51100000000E-03 0. -1.
    9000002    1    1    2    0    0  0.18949649787E+00 -0.12245217807E+00  0.45571375766E-01  0.96582825021E+00  0.93800000000E+00 0. -1.
         22    1    1    2    0    0 -0.19070057882E+00  0.96409938379E-01  0.12872399536E+01  0.13048556568E+01  0.00000000000E+00 0. -1.
</event>
<event>
 5    1  0.4838219E+001  0.1592767E+01  0.7818608E-02  0.3361251E+00
         11   -1    0    0    0    0  0.00000000000E+00  0.00000000000E+00  0.39999999674E+01  0.40000000000E+01  0.51100000000E-03 0.  1.
    9000002   -1    0    0    0    0 -0.00000000000E+00 -0.00000000000E+00  0.00000000000E+00  0.93800000000E+00  0.93800000000E+00 0.  1.
         11    1    1    2    0    0  0.20662407470E+00  0.32307100044E+00  0.25562385843E+01  0.25848451289E+01  0.51100000000E-03 0.  1.
    9000002    1    1    2    0    0 -0.42486633778E+00 -0.41107854970E+00  0.25022442420E+00  0.11366412105E+01  0.93800000000E+00 0.  1.
         22    1    1    2    0    0  0.21824226308E+00  0.88007549259E-01  0.11935369588E+01  0.12165136605E+01  0.00000000000E+00 0.  1.
</event>
<event>
 5    1  0.4838219E+001  0.1550833E+01  0.7818608E-02  0.3408519E+00
         11   -1    0    0    0    0  0.00000000000E+00  0.00000000000E+00  0.39999999674E+01  0.40000000000E+01  0.51100000000E-03 0.  1.
    9000002   -1    0    0    0    0 -0.00000000000E+00 -0.00000000000E+00  0.00000000000E+00  0.93800000000E+00  0.93800000000E+00 0. -1.
         11    1    1    2    0    0  0.21487264203E+00 -0.26781201504E-01  0.28679063687E+01  0.28760693117E+01  0.51100000000E-03 0.  1.
    9000002    1    1    2    0    0 -0.13425413554E-01 -0.12959350511E+00  0.47972409816E-01  0.94821942102E+00  0.93800000000E+00 0. -1.
         22    1    1    2    0    0 -0.20144722848E+00  0.15637470661E+00  0.10841211888E+01  0.11137112672E+01  0.00000000000E+00 0.  1.
</event>
<event>
 5    1  0.4838219E+001  0.1556178E+01  0.7818608E-02  0.3402344E+00
         11   -1    0    0    0    0  0.00000000000E+00  0.00000000000E+00  0.39999999674E+01  0.40000000000E+01  0.51100000000E-03 0. -1.
    9000002   -1    0    0    0    0 -0.00000000000E+00 -0.00000000000E+00  0.00000000000E+00  0.93800000000E+00  0.93800000000E+00 0. -1.
         11    1    1    2    0    0 -0.16489869499E+00 -0.14454113827E+00  0.12865465129E+01  0.13050999621E+01  0.51100000000E-03 0. -1.
    9000002    1    1    2    0    0 -0.70512926889E-02 -0.64023484047E-01  0.35019369409E-01  0.94086082046E+00  0.93800000000E+00 0. -1.
         22    1    1    2    0    0  0.17194998768E+00  0.20856462231E+00  0.26784340851E+01  0.26920392174E+01  0.00000000000E+00 0. -1.
</event>
<event>
 5    1  0.4838219E+001  0.1584350E+01  0.7818608E-02  0.3370527E+00
         11   -1    0    0    0    0  0.00000000000E+00  0.00000000000E+00  0.39999999674E+01  0.40000000000E+01  0.51100000000E-03 0. -1.
    9000002   -1    0    0    0    0 -0.00000000000E+00 -0.00000000000E+00  0.00000000000E+00  0.93800000000E+00  0.93800000000E+00 0.  1.
         11    1    1    2    0    0 -0.53420571463E-03  0.35027257943E-01  0.27230535503E+01  0.27232789231E+01  0.51100000000E-03 0. -1.
    9000002    1    1    2    0    0  0.35834907390E-01 -0.24825302945E+00  0.53606147482E-01  0.97243576974E+00  0.93800000000E+00 0.  1.
         22    1    1    2    0    0 -0.35300701676E-01  0.21322577151E+00  0.12233402696E+01  0.12422853071E+01  0.00000000000E+00 0. -1.
</event>
<event>
 5    1  0.4838219E+001  0.1536373E+01  0.7818608E-02  0.3425456E+00
         11   -1    0    0    0    0  0.00000000000E+00  0.00000000000E+00  0.39999999674E+01  0.40000000000E+01  0.51100000000E-03 0. -1.
    9000002   -1    0    0    0    0 -0.00000000000E+00 -0.00000000000E+00  0.00000000000E+00  0.93800000000E+00  0.93800000000E+00 0.  1.
         11    1    1    2    0    0  0.98733407168E-01  0.32664929275E+00  0.13674696512E+01  0.14094046808E+01  0.51100000000E-03 0. -1.
    9000002    1    1    2    0    0 -0.27171462025E+00 -0.10478696616E+00  0.10760386476E+00  0.98804439923E+00  0.93800000000E+00 0.  1.
         22    1    1    2    0    0  0.17298121309E+00 -0.22186232660E+00  0.25249264514E+01  0.25405509199E+01  0.00000000000E+00 0. -1.
</event>
<event>
 5    1  0.4838219E+001  0.1582380E+01  0.7818608E-02  0.3372712E+00
         11   -1    0    0    0    0  0.00000000000E+00  0.00000000000E+00  0.39999999674E+01  0.40000000000E+01  0.51100000000E-03 0. -1.
    9000002   -1    0    0    0    0 -0.00000000000E+00 -0.00000000000E+00  0.00000000000E+00  0.93800000000E+00  0.93800000000E+00 0. -1.
         11    1    1    2    0    0 -0.40308172071E-01 -0.10375521546E+00  0.20417448748E+01  0.20447768309E+01  0.51100000000E-03 0. -1.
    9000002    1    1    2    0    0  0.14731489191E-02 -0.96452758432E-01  0.18860972219E-01  0.94313574900E+00  0.93800000000E+00 0. -1.
         22    1    1    2    0    0  0.38835023152E-01  0.20020797389E+00  0.19393941204E+01  0.19500874201E+01  0.00000000000E+00 0. -1.
</event>
<event>
 5    1  0.4838219E+001  0.1520161E+01  0.7818608E-02  0.3444853E+00
         11   -1    0    0    0    0  0.00000000000E+00  0.00000000000E+00  0.39999999674E+01  0.40000000000E+01  0.51100000000E-03 0.  1.
    9000002   -1    0    0    0    0 -0.00000000000E+00 -0.00000000000E+00  0.00000000000E+00  0.93800000000E+00  0.93800000000E+00 0. -1.
         11    1    1    2    0    0 -0.26150596376E+00  0.76620740557E-01  0.92105881588E+00  0.96052366467E+00  0.51100000000E-03 0.  1.
    9000002    1    1    2    0    0 -0.52130304119E-01  0.61685889013E-01  0.64574047215E-01  0.94368242809E+00  0.93800000000E+00 0. -1.
         22    1    1    2    0    0  0.31363626788E+00 -0.13830662957E+00  0.30143671043E+01  0.30337939072E+01  0.00000000000E+00 0.  1.
</event>
<event>
 5    1  0.4838219E+001  0.1566067E+01  0.7818608E-02  0.3391037E+00
         11   -1    0    0    0    0  0.00000000000E+00  0.00000000000E+00  0.39999999674E+01  0.40000000000E+01  0.51100000000E-03 0.  1.
    9000002   -1    0    0    0    0 -0.00000000000E+00 -0.00000000000E+00  0.00000000000E+00  0.93800000000E+00  0.93800000000E+00 0. -1.
         11    1    1    2    0    0 -0.13883781792E+00  0.14829286781E+00  0.83074161828E+00  0.85521845852E+00  0.51100000000E-03 0.  1.
    9000002    1    1    2    0    0 -0.74314219387E-01 -0.25554887161E+00  0.73445405345E-01  0.97778630413E+00  0.93800000000E+00 0. -1.
         22    1    1    2    0    0  0.21315203731E+00  0.10725600379E+00  0.30958129437E+01  0.31049952373E+01  0.00000000000E+00 0.  1.
</event>
<event>
 5    1  0.4838219E+001  0.1565127E+01  0.7818608E-02  0.3392105E+00
         11   -1    0    0    0    0  0.00000000000E+00  0.00000000000E+00  0.39999999674E+01  0.40000000000E+01  0.51100000000E-03 0.  1.
    9000002   -1    0    0    0    0 -0.00000000000E+00 -0.00000000000E+00  0.00000000000E+00  0.93800000000E+00  0.93800000000E+00 0. -1.
         11    1    1    2    0    0  0.35421675169E-01 -0.18351929495E+00  0.22183810042E+01  0.22262409051E+01  0.51100000000E-03 0.  1.
    9000002    1    1    2    0    0 -0.11312271170E-01 -0.65831337701E-01  0.28474139682E-01  0.94080630798E+00  0.93800000000E+00 0. -1.
         22    1    1    2    0    0 -0.24109403999E-01  0.24935063265E+00  0.17531448235E+01  0.17709527869E+01  0.00000000000E+00 0.  1.
</event>
<event>
 5    1  0.4838219E+001  0.1585049E+01  0.7818608E-02  0.3369752E+00
         11   -1    0    0    0    0  0.00000000000E+00  0.00000000000E+00  0.39999999674E+01  0.40000000000E+01  0.51100000000E-03 0. -1.
    9000002   -1    0    0    0    0 -0.00000000000E+00 -0.00000000000E+00  0.00000000000E+00  0.93800000000E+00  0.93800000000E+00 0. -1.
         11    1    1    2    0    0 -0.42477476993E-01  0.74511148362E-01  0.14968124005E+01  0.14992677782E+01  0.51100000000E-03 0. -1.
    9000002    1    1    2    0    0 -0.20524375780E+00 -0.59872760547E-03  0.38960497259E-01  0.96098245506E+00  0.93800000000E+00 0. -1.
         22    1    1    2    0    0  0.24772123479E+00 -0.73912420756E-01  0.24642270696E+01  0.24777497667E+01  0.00000000000E+00 0. -1.
</event>
<event>
 5    1  0.4838219E+001  0.1442999E+01  0.7818608E-02  0.3543638E+00
         11   -1    0    0    0    0  0.00000000000E+00  0.00000000000E+00  0.39999999674E+01  0.40000000000E+01  0.51100000000E-03 0.  1.
    9000002   -1    0    0    0    0 -0.00000000000E+00 -0.00000000000E+00  0.00000000000E+00  0.93800000000E+00  0.93800000000E+00 0. -1.
         11    1    1    2    0    0  0.20236587116E+00 -0.25884949330E+00  0.30377858681E+01  0.30555029451E+01  0.51100000000E-03 0.  1.
    9000002    1    1    2    0    0 -0.10079152526E+00 -0.14956120806E+00  0.14885853991E+00  0.96671110029E+00  0.93800000000E+00 0. -1.
         22    1    1    2    0    0 -0.10157434590E+00  0.40841070136E+00  0.81335555938E+00  0.91578595463E+00  0.00000000000E+00 0.  1.
</event>
<event>
 5    1  0.4838219E+001  0.1545778E+01  0.7818608E-02  0.3414401E+00
         11   -1    0    0    0    0  0.00000000000E+00  0.00000000000E+00  0.39999999674E+01  0.40000000000E+01  0.51100000000E-03 0.  1.
    9000002   -1    0    0    0    0 -0.00000000000E+00 -0.00000000000E+00  0.00000000000E+00  0.93800000000E+00  0.93800000000E+00 0. -1.
         11    1    1    2    0    0  0.20660226950E+00 -0.51294763359E-01  0.69064146242E+00  0.72270432491E+00  0.51100000000E-03 0.  1.
    9000002    1    1    2    0    0  0.19536233299E-01  0.71879232808E-01  0.43926081549E-01  0.94197759483E+00  0.93800000000E+00 0. -1.
         22    1    1    2    0    0 -0.22613850279E+00 -0.20584469450E-01  0.32654324234E+01  0.32733180803E+01  0.00000000000E+00 0.  1.
</event>
<event>
 5    1  0.4838219E+001  0.1587752E+01  0.7818608E-02  0.3366766E+00
         11   -1    0    0    0    0  0.00000000000E+00  0.00000000000E+00  0.39999999674E+01  0.40000000000E+01  0.51100000000E-03 0. -1.
    9000002   -1    0    0    0    0 -0.00000000000E+00 -0.00000000000E+00  0.00000000000E+00  0.93800000000E+00  0.93800000000E+00 0. -1.
         11    1    1    2    0    0  0.16039363317E-01 -0.71286472021E-01  0.15917608369E+01  0.15934371169E+01  0.51100000000E-03 0. -1.
    9000002    1    1    2    0    0  0.16755991340E+00 -0.67488170320E-01  0.30511170813E-01  0.95572271568E+00  0.93800000000E+00 0. -1.
         22    1    1    2    0    0 -0.18359927672E+00  0.13877464234E+00  0.23777279596E+01  0.23888401675E+01  0.00000000000E+00 0. -1.
</event>
<event>
 5    1  0.4838219E+001  0.1539308E+01  0.7818608E-02  0.3421991E+00
         11   -1    0    0    0    0  0.00000000000E+00  0.00000000000E+00  0.39999999674E+01  0.40000000000E+01  0.51100000000E-03 0. -1.
    9000002   -1    0    0    0    0 -0.00000000000E+00 -0.00000000000E+00  0.00000000000E+00  0.93800000000E+00  0.93800000000E+00 0. -1.
         11    1    1    2    0    0  0.22371815236E+00 -0.47778696207E-01  0.77842575608E+00  0.81134427610E+00  0.51100000000E-03 0. -1.
    9000002    1    1    2    0    0  0.19701585122E-01 -0.82284548562E-01  0.50040952023E-01  0.94313678556E+00  0.93800000000E+00 0. -1.
         22    1    1    2    0    0 -0.24341973748E+00  0.13006324477E+00  0.31715332593E+01  0.31835189383E+01  0.00000000000E+00 0. -1.
</event>
<event>
 5    1  0.4838219E+001  0.1565302E+01  0.7818608E-02  0.3391907E+00
         11   -1    0    0    0    0  0.00000000000E+00  0.00000000000E+00  0.39999999674E+01  0.40000000000E+01  0.51100000000E-03 0. -1.
    9000002   -1    0    0    0    0 -0.00000000000E+00 -0.00000000000E+00  0.00000000000E+00  0.93800000000E+00  0.93800000000E+00 0. -1.
         11    1    1    2    0    0  0.17991980294E+00  0.70381894547E-03  0.72621305419E+00  0.74816929371E+00  0.51100000000E-03 0. -1.
    9000002    1    1    2    0    0 -0.51939009166E-01 -0.18584208409E+00  0.50793559643E-01  0.95898849138E+00  0.93800000000E+00 0. -1.
         22    1    1    2    0    0 -0.12798079377E+00  0.18513826515E+00  0.32229933535E+01  0.32308422149E+01  0.00000000000E+00 0. -1.
</event>
<event>
 5    1  0.4838219E+001  0.1537624E+01  0.7818608E-02  0.3423977E+00
         11   -1    0    0    0    0  0.00000000000E+00  0.00000000000E+00  0.39999999674E+01  0.40000000000E+01  0.51100000000E-03 0.  1.
    9000002   -1    0    0    0    0 -0.00000000000E+00 -0.00000000000E+00  0.00000000000E+00  0.93800000000E+00  0.93800000000E+00 0. -1.
         11    1    1    2    0    0  0.10050971793E+00 -0.31128326131E+00  0.14826901225E+01  0.15183444052E+01  0.51100000000E-03 0.  1.
    9000002    1    1    2    0    0 -0.50091513580E-01  0.85466509448E-01  0.53209784167E-01  0.94471634108E+00  0.93800000000E+00 0. -1.
         22    1    1    2    0    0 -0.50418204349E-01  0.22581675186E+00  0.24641000607E+01  0.24749392538E+01  0.00000000000E+00 0.  1.
</event>
<event>
 5    1  0.4838219E+001  0.1543209E+01  0.7818608E-02  0.3417407E+00
         11   -1    0    0    0    0  0.00000000000E+00  0.00000000000E+00  0.39999999674E+01  0.40000000000E+01  0.51100000000E-03 0.  1.
    9000002   -1    0    0    0    0 -0.00000000000E+00 -0.00000000000E+00  0.00000000000E+00  0.93800000000E+00  0.93800000000E+00 0. -1.
         11    1    1    2    0    0  0.15732886375E+00  0.41727996918E-01  0.30892718186E+00  0.34918456711E+00  0.51100000000E-03 0.  1.
    9000002    1    1    2    0    0 -0.16122572852E-01 -0.20111686420E+00  0.70559004089E-01  0.96204495918E+00  0.93800000000E+00 0. -1.
         22    1    1    2    0    0 -0.14120629090E+00  0.15938886728E+00  0.36205137814E+01  0.36267704737E+01  0.00000000000E+00 0.  1.
</event>
<event>
 5    1  0.6500715E+001  0.1562055E+01  0.7818608E-02  0.3395606E+00
         11   -1    0    0    0    0  0.00000000000E+00  0.00000000000E+00  0.39999999674E+01  0.40000000000E+01  0.51100000000E-03 0. -1.
    9000002   -1    0    0    0    0 -0.00000000000E+00 -0.00000000000E+00  0.00000000000E+00  0.93800000000E+00  0.93800000000E+00 0.  1.
         11    1    1    2    0    0 -0.43384722711E-01  0.10768878670E+00  0.29252851217E+00  0.31472575443E+00  0.51100000000E-03 0. -1.
    9000002    1    1    2    0    0 -0.53685530139E-01  0.88720337799E-01  0.35093547656E-01  0.94436697929E+00  0.93800000000E+00 0.  1.
         22    1    1    2    0    0  0.97070252850E-01 -0.19640912450E+00  0.36723779075E+01  0.36789072663E+01  0.00000000000E+00 0. -1.
</event>
<event>
 5    1  0.4838219E+001  0.1574345E+01  0.7818608E-02  0.3381688E+00
         11   -1    0    0    0    0  0.00000000000E+00  0.00000000000E+00  0.39999999674E+01  0.40000000000E+01  0.51100000000E-03 0. -1.
    9000002   -1    0    0    0    0 -0.00000000000E+00 -0.00000000000E+00  0.00000000000E+00  0.93800000000E+00  0.93800000000E+00 0.  1.
         11    1    1    2    0    0  0.95445910510E-01 -0.71301351236E-01  0.10775278544E+01  0.10840942499E+01  0.51100000000E-03 0. -1.
    9000002    1    1    2    0    0  0.57940047025E-01 -0.21268616129E+00  0.51586973724E-01  0.96493402267E+00  0.93800000000E+00 0.  1.
         22    1    1    2    0    0 -0.15338595754E+00  0.28398751252E+00  0.28708851392E+01  0.28889717274E+01  0.00000000000E+00 0.  1.
</event>
<event>
 5    1  0.4838219E+001  0.1569257E+01  0.7818608E-02  0.3387422E+00
         11   -1    0    0    0    0  0.00000000000E+00  0.00000000000E+00  0.39999999674E+01  0.40000000000E+01  0.51100000000E-03 0. -1.
    9000002   -1    0    0    0    0 -0.00000000000E+00 -0.00000000000E+00  0.00000000000E+00  0.93800000000E+00  0.93800000000E+00 0. -1.
         11    1    1    2    0    0  0.82704356205E-02 -0.11617148719E+00  0.22906060925E+01  0.22935650736E+01  0.51100000000E-03 0. -1.
    9000002    1    1    2    0    0  0.28106359492E+00  0.10952232898E-02  0.76578445636E-01  0.98219458471E+00  0.93800000000E+00 0. -1.
         22    1    1    2    0    0 -0.28933403054E+00  0.11507626390E+00  0.16328154292E+01  0.16622403417E+01  0.00000000000E+00 0. -1.
</event>
<event>
 5    1  0.4838219E+001  0.1561474E+01  0.7818608E-02  0.3396270E+00
         11   -1    0    0    0    0  0.00000000000E+00  0.00000000000E+00  0.39999999674E+01  0.40000000000E+01  0.51100000000E-03 0.  1.
    9000002   -1    0    0    0    0 -0.00000000000E+00 -0.00000000000E+00  0.00000000000E+00  0.93800000000E+00  0.93800000000E+00 0. -1.
         11    1    1    2    0    0 -0.19221317863E+00  0.62008015115E-01  0.21207169379E+01  0.21303125338E+01  0.51100000000E-03 0.  1.
    9000002    1    1    2    0    0 -0.25721367697E-01  0.94368666482E-01  0.34721438616E-01  0.94372486047E+00  0.93800000000E+00 0. -1.
         22    1    1    2    0    0  0.21793454633E+00 -0.15637668160E+00  0.18445615908E+01  0.18639626057E+01  0.00000000000E+00 0.  1.
</event>
<event>
 5    1  0.4838219E+001  0.1572601E+01  0.7818608E-02  0.3383649E+00
         11   -1    0    0    0    0  0.00000000000E+00  0.00000000000E+00  0.39999999674E+01  0.40000000000E+01  0.51100000000E-03 0. -1.
    9000002   -1    0    0    0    0 -0.00000000000E+00 -0.00000000000E+00  0.00000000000E+00  0.93800000000E+00  0.93800000000E+00 0.  1.
         11    1    1    2    0    0 -0.10930499428E+00  0.71896472065E-01  0.67970244385E+00  0.69217942600E+00  0.51100000000E-03 0. -1.
    9000002    1    1    2    0    0 -0.16944971813E+00 -0.88066810513E-01  0.44638797945E-01  0.95828262656E+00  0.93800000000E+00 0.  1.
         22    1    1    2    0    0  0.27875471240E+00  0.16170338448E-01  0.32756587256E+01  0.32875379474E+01  0.00000000000E+00 0. -1.
</event>
<event>
 5    1  0.4838219E+001  0.1563728E+01  0.7818608E-02  0.3393698E+00
         11   -1    0    0    0    0  0.00000000000E+00  0.00000000000E+00  0.39999999674E+01  0.40000000000E+01  0.51100000000E-03 0. -1.
    9000002   -1    0    0    0    0 -0.00000000000E+00 -0.00000000000E+00  0.00000000000E+00  0.93800000000E+00  0.93800000000E+00 0.  1.
         11    1    1    2    0    0 -0.30075327357E+00 -0.12876627089E-01  0.18700761649E+01  0.18941497994E+01  0.51100000000E-03 0. -1.
    9000002    1    1    2    0    0  0.20308307593E+00 -0.18691038918E+00  0.79049400792E-01  0.98095414627E+00  0.93800000000E+00 0.  1.
         22    1    1    2    0    0  0.97670197633E-01  0.19978701627E+00  0.20508744017E+01  0.20628960543E+01  0.00000000000E+00 0. -1.
</event>
<event>
 5    1  0.4838219E+001  0.1497065E+01  0.7818608E-02  0.3473268E+00
         11   -1    0    0    0    0  0.00000000000E+00  0.00000000000E+00  0.39999999674E+01  0.40000000000E+01  0.51100000000E-03 0. -1.
    9000002   -1    0    0    0    0 -0.00000000000E+00 -0.00000000000E+00  0.00000000000E+00  0.93800000000E+00  0.93800000000E+00 0. -1.
         11    1    1    2    0    0 -0.19229656385E+00  0.28226843435E+00  0.12469055949E+01  0.12928369043E+01  0.51100000000E-03 0. -1.
    9000002    1    1    2    0    0  0.14013623077E+00  0.14501791162E+00  0.10825282755E+00  0.96552111967E+00  0.93800000000E+00 0. -1.
         22    1    1    2    0    0  0.52160333079E-01 -0.42728634597E+00  0.26448415449E+01  0.26796419760E+01  0.00000000000E+00 0. -1.
</event>
<event>
 5    1  0.4838219E+001  0.1594506E+01  0.7818608E-02  0.3359348E+00
         11   -1    0    0    0    0  0.00000000000E+00  0.00000000000E+00  0.39999999674E+01  0.40000000000E+01  0.51100000000E-03 0.  1.
    9000002   -1    0    0    0    0 -0.00000000000E+00 -0.00000000000E+00  0.00000000000E+00  0.93800000000E+00  0.93800000000E+00 0.  1.
         11    1    1    2    0    0 -0.29545135049E-01 -0.13580996696E+00  0.24092225919E+01  0.24132283399E+01  0.51100000000E-03 0.  1.
    9000002    1    1    2    0    0  0.12572793642E+00  0.33355230616E+00  0.89451256911E-01  0.10074275072E+01  0.93800000000E+00 0.  1.
         22    1    1    2    0    0 -0.96182801374E-01 -0.19774233920E+00  0.15013261186E+01  0.15173441529E+01  0.00000000000E+00 0.  1.
</event>
<event>
 5    1  0.4838219E+001  0.1586176E+01  0.7818608E-02  0.3368506E+00
         11   -1    0    0    0    0  0.00000000000E+00  0.00000000000E+00  0.39999999674E+01  0.40000000000E+01  0.51100000000E-03 0. -1.
    9000002   -1    0    0    0    0 -0.00000000000E+00 -0.00000000000E+00  0.00000000000E+00  0.93800000000E+00  0.93800000000E+00 0.  1.
         11    1    1    2    0    0  0.74772827716E-01  0.33029105555E-01  0.27388028951E+01  0.27400225285E+01  0.51100000000E-03 0. -1.
    9000002    1    1    2    0    0 -0.29061732576E+00 -0.17980026951E-01  0.67107806266E-01  0.98444358348E+00  0.93800000000E+00 0.  1.
         22    1    1    2    0    0  0.21584449805E+00 -0.15049078605E-01  0.11940892660E+01  0.12135338880E+01  0.00000000000E+00 0. -1.
</event>
<event>
 5    1  0.4838219E+001  0.1565591E+01  0.7818608E-02  0.3391578E+00
         11   -1    0    0    0    0  0.00000000000E+00  0.00000000000E+00  0.39999999674E+01  0.40000000000E+01  0.51100000000E-03 0.  1.
    9000002   -1    0    0    0    0 -0.00000000000E+00 -0.00000000000E+00  0.00000000000E+00  0.93800000000E+00  0.93800000000E+00 0.  1.
         11    1    1    2    0    0  0.26626427050E+00  0.12842103082E-01  0.12949819127E+01  0.13221346364E+01  0.51100000000E-03 0.  1.
    9000002    1    1    2    0    0 -0.20846355794E+00 -0.25492964863E+00  0.10017915831E+00  0.99916267169E+00  0.93800000000E+00 0.  1.
         22    1    1    2    0    0 -0.57800712558E-01  0.24208754555E+00  0.26048388964E+01  0.26167026920E+01  0.00000000000E+00 0. -1.
</event>
<event>
 5    1  0.4838219E+001  0.1592479E+01  0.7818608E-02  0.3361567E+00
         11   -1    0    0    0    0  0.00000000000E+00  0.00000000000E+00  0.39999999674E+01  0.40000000000E+01  0.51100000000E-03 0. -1.
    9000002   -1    0    0    0    0 -0.00000000000E+00 -0.00000000000E+00  0.00000000000E+00  0.93800000000E+00  0.93800000000E+00 0. -1.
         11    1    1    2    0    0  0.15097532344E-01  0.42938512649E-01  0.40314688878E+00  0.40570842535E+00  0.51100000000E-03 0. -1.
    9000002    1    1    2    0    0  0.12349982236E-01  0.16271101024E+00  0.22942872614E-01  0.95236430546E+00  0.93800000000E+00 0. -1.
         22    1    1    2    0    0 -0.27447514580E-01 -0.20564952289E+00  0.35739102060E+01  0.35799272692E+01  0.00000000000E+00 0. -1.
</event>
<event>
 5    1  0.4838219E+001  0.1537192E+01  0.7818608E-02  0.3424488E+00
         11   -1    0    0    0    0  0.00000000000E+00  0.00000000000E+00  0.39999999674E+01  0.40000000000E+01  0.51100000000E-03 0. -1.
    9000002   -1    0    0    0    0 -0.00000000000E+00 -0.00000000000E+00  0.00000000000E+00  0.93800000000E+00  0.93800000000E+00 0. -1.
         11    1    1    2    0    0  0.22652700256E+00  0.30042033209E-01  0.32769659416E+01  0.32849235988E+01  0.51100000000E-03 0. -1.
    9000002    1    1    2    0    0 -0.61510657739E-01  0.13729701843E+00  0.62572381798E-01  0.95204691862E+00  0.93800000000E+00 0. -1.
         22    1    1    2    0    0 -0.16501634482E+00 -0.16733905164E+00  0.66046164398E+00  0.70102948257E+00  0.00000000000E+00 0. -1.
</event>
<event>
 5    1  0.4838219E+001  0.1559845E+01  0.7818608E-02  0.3398134E+00
         11   -1    0    0    0    0  0.00000000000E+00  0.00000000000E+00  0.39999999674E+01  0.40000000000E+01  0.51100000000E-03 0.  1.
    9000002   -1    0    0    0    0 -0.00000000000E+00 -0.00000000000E+00  0.00000000000E+00  0.93800000000E+00  0.93800000000E+00 0.  1.
         11    1    1    2    0    0  0.49672861452E+00 -0.30990429852E+00  0.80695750817E+00  0.99697576291E+00  0.51100000000E-03 0.  1.
    9000002    1    1    2    0    0 -0.20995545145E+00  0.14664373418E+00  0.28348639012E+00  0.10128149929E+01  0.93800000000E+00 0.  1.
         22    1    1    2    0    0 -0.28677316307E+00  0.16326056434E+00  0.29095560691E+01  0.29282092442E+01  0.00000000000E+00 0.  1.
</event>
<event>
 5    1  0.4838219E+001  0.1552136E+01  0.7818608E-02  0.3407010E+00
         11   -1    0    0    0    0  0.00000000000E+00  0.00000000000E+00  0.39999999674E+01  0.40000000000E+01  0.51100000000E-03 0.  1.
    9000002   -1    0    0    0    0 -0.00000000000E+00 -0.00000000000E+00  0.00000000000E+00  0.93800000000E+00  0.93800000000E+00 0. -1.
         11    1    1    2    0    0 -0.13712141373E+00 -0.25475672990E+00  0.16849944893E+01  0.17096520007E+01  0.51100000000E-03 0.  1.
    9000002    1    1    2    0    0  0.72002921426E-01  0.42312559797E-01  0.40044694839E-01  0.94256159003E+00  0.93800000000E+00 0. -1.
         22    1    1    2    0    0  0.65118492304E-01  0.21244417010E+00  0.22749607832E+01  0.22857864092E+01  0.00000000000E+00 0.  1.
</event>
<event>
 5    1  0.4838219E+001  0.1535448E+01  0.7818608E-02  0.3426550E+00
         11   -1    0    0    0    0  0.00000000000E+00  0.00000000000E+00  0.39999999674E+01  0.40000000000E+01  0.51100000000E-03 0. -1.
    9000002   -1    0    0    0    0 -0.00000000000E+00 -0.00000000000E+00  0.00000000000E+00  0.93800000000E+00  0.93800000000E+00 0.  1.
         11    1    1    2    0    0  0.36235431562E+00  0.16552044273E+00  0.25643873866E+01  0.25951455829E+01  0.51100000000E-03 0. -1.
    9000002    1    1    2    0    0 -0.11184456337E+00 -0.22002017815E+00  0.91189779756E-01  0.97420616970E+00  0.93800000000E+00 0.  1.
         22    1    1    2    0    0 -0.25050975225E+00  0.54499735420E-01  0.13444228010E+01  0.13686482474E+01  0.00000000000E+00 0.  1.
</event>
<event>
 5    1  0.4838219E+001  0.1528192E+01  0.7818608E-02  0.3435190E+00
         11   -1    0    0    0    0  0.00000000000E+00  0.00000000000E+00  0.39999999674E+01  0.40000000000E+01  0.51100000000E-03 0. -1.
    9000002   -1    0    0    0    0 -0.00000000000E+00 -0.00000000000E+00  0.00000000000E+00  0.93800000000E+00  0.93800000000E+00 0. -1.
         11    1    1    2    0    0  0.35261707051E+00  0.24552704628E-01  0.13641477303E+01  0.14091986819E+01  0.51100000000E-03 0. -1.
    9000002    1    1    2    0    0 -0.13443803678E+00  0.12183447200E-01  0.66557453035E-01  0.94999785088E+00  0.93800000000E+00 0. -1.
         22    1    1    2    0    0 -0.21817903373E+00 -0.36736151828E-01  0.25692947840E+01  0.25788034672E+01  0.00000000000E+00 0. -1.
</event>
<event>
 5    1  0.4838219E+001  0.1567173E+01  0.7818608E-02  0.3389782E+00
         11   -1    0    0    0    0  0.00000000000E+00  0.00000000000E+00  0.39999999674E+01  0.40000000000E+01  0.51100000000E-03 0. -1.
    9000002   -1    0    0    0    0 -0.00000000000E+00 -0.00000000000E+00  0.00000000000E+00  0.93800000000E+00  0.93800000000E+00 0. -1.
         11    1    1    2    0    0 -0.41266917206E-01  0.12186594036E+00  0.50659840717E+00  0.52268200002E+00  0.51100000000E-03 0. -1.
    9000002    1    1    2    0    0 -0.12931518402E-01  0.13355023138E+00  0.36167095813E-01  0.94823781157E+00  0.93800000000E+00 0. -1.
         22    1    1    2    0    0  0.54198435609E-01 -0.25541617174E+00  0.34572344644E+01  0.34670801884E+01  0.00000000000E+00 0. -1.
</event>
<event>
 5    1  0.4838219E+001  0.1439048E+01  0.7818608E-02  0.3549008E+00
         11   -1    0    0    0    0  0.00000000000E+00  0.00000000000E+00  0.39999999674E+01  0.40000000000E+01  0.51100000000E-03 0. -1.
    9000002   -1    0    0    0    0 -0.00000000000E+00 -0.00000000000E+00  0.00000000000E+00  0.93800000000E+00  0.93800000000E+00 0.  1.
         11    1    1    2    0    0  0.44639663798E+00  0.60102270889E+00  0.30758719469E+01  0.31656731906E+01  0.51100000000E-03 0. -1.
    9000002    1    1    2    0    0 -0.19612655169E+00 -0.45447689732E+00  0.32926030653E+00  0.11105274530E+01  0.93800000000E+00 0.  1.
         22    1    1    2    0    0 -0.25027008629E+00 -0.14654581157E+00  0.59486771394E+00  0.66179935635E+00  0.00000000000E+00 0. -1.
</event>
<event>
 5    1  0.4838219E+001  0.1484986E+01  0.7818608E-02  0.3488508E+00
         11   -1    0    0    0    0  0.00000000000E+00  0.00000000000E+00  0.39999999674E+01  0.40000000000E+01  0.51100000000E-03 0.  1.
    9000002   -1    0    0    0    0 -0.00000000000E+00 -0.00000000000E+00  0.00000000000E+00  0.93800000000E+00  0.93800000000E+00 0. -1.
         11    1    1    2    0    0 -0.26684276621E+00  0.18837334123E+00  0.64697368867E+00  0.72475153847E+00  0.51100000000E-03 0.  1.
    9000002    1    1    2    0    0  0.80127928324E-01 -0.64397213721E-01  0.95963257750E-01  0.94848322751E+00  0.93800000000E+00 0. -1.
         22    1    1    2    0    0  0.18671483788E+00 -0.12397612751E+00  0.32570630209E+01  0.32647652340E+01  0.00000000000E+00 0.  1.
</event>
<event>
 5    1  0.4838219E+001  0.1544717E+01  0.7818608E-02  0.3415642E+00
         11   -1    0    0    0    0  0.00000000000E+00  0.00000000000E+00  0.39999999674E+01  0.40000000000E+01  0.51100000000E-03 0.  1.
    9000002   -1    0    0    0    0 -0.00000000000E+00 -0.00000000000E+00  0.00000000000E+00  0.93800000000E+00  0.93800000000E+00 0. -1.
         11    1    1    2    0    0 -0.20881904127E+00  0.13713270135E-01  0.61311171744E+00  0.64784233033E+00  0.51100000000E-03 0.  1.
    9000002    1    1    2    0    0  0.39101230972E-01  0.16069935259E+00  0.59974798857E-01  0.95435536604E+00  0.93800000000E+00 0. -1.
         22    1    1    2    0    0  0.16971781030E+00 -0.17441262273E+00  0.33269134511E+01  0.33358023036E+01  0.00000000000E+00 0.  1.
</event>
<event>
 5    1  0.4838219E+001  0.1573148E+01  0.7818608E-02  0.3383033E+00
         11   -1    0    0    0    0  0.00000000000E+00  0.00000000000E+00  0.39999999674E+01  0.40000000000E+01  0.51100000000E-03 0. -1.
    9000002   -1    0    0    0    0 -0.00000000000E+00 -0.00000000000E+00  0.00000000000E+00  0.93800000000E+00  0.93800000000E+00 0. -1.
         11    1    1    2    0    0 -0.23244176440E-01  0.17412146573E+00  0.24339694182E+01  0.24403003844E+01  0.51100000000E-03 0. -1.
    9000002    1    1    2    0    0 -0.16217685499E+00 -0.45565560984E-01  0.38698485420E-01  0.95379197177E+00  0.93800000000E+00 0. -1.
         22    1    1    2    0    0  0.18542103143E+00 -0.12855590474E+00  0.15273320638E+01  0.15439076438E+01  0.00000000000E+00 0.  1.
</event>
<event>
 5    1  0.4838219E+001  0.1536745E+01  0.7818608E-02  0.3425016E+00
         11   -1    0    0    0    0  0.00000000000E+00  0.00000000000E+00  0.39999999674E+01  0.40000000000E+01  0.51100000000E-03 0. -1.
    9000002   -1    0    0    0    0 -0.00000000000E+00 -0.00000000000E+00  0.00000000000E+00  0.93800000000E+00  0.93800000000E+00 0.  1.
         11    1    1    2    0    0 -0.16339453786E-02  0.20910620076E+00  0.51519270189E+00  0.55601425717E+00  0.51100000000E-03 0. -1.
    9000002    1    1    2    0    0 -0.11421894372E+00 -0.26024777673E-01  0.56643471129E-01  0.94698243858E+00  0.93800000000E+00 0.  1.
         22    1    1    2    0    0  0.11585288909E+00 -0.18308142309E+00  0.34281637943E+01  0.34350033043E+01  0.00000000000E+00 0. -1.
</event>
<event>
 5    1  0.4838219E+001  0.1579904E+01  0.7818608E-02  0.3375468E+00
         11   -1    0    0    0    0  0.00000000000E+00  0.00000000000E+00  0.39999999674E+01  0.40000000000E+01  0.51100000000E-03 0.  1.
    9000002   -1    0    0    0    0 -0.00000000000E+00 -0.00000000000E+00  0.00000000000E+00  0.93800000000E+00  0.93800000000E+00 0.  1.
         11    1    1    2    0    0 -0.13992319519E+00  0.20045530594E+00  0.11369249574E+01  0.11629099063E+01  0.51100000000E-03 0.  1.
    9000002    1    1    2    0    0  0.44363287456E-01 -0.38203547041E+00  0.11604414055E+00  0.10204065094E+01  0.93800000000E+00 0.  1.
         22    1    1    2    0    0  0.95559907732E-01  0.18158016447E+00  0.27470308694E+01  0.27546835843E+01  0.00000000000E+00 0.  1.
</event>
<event>
 5    1  0.4838219E+001  0.1537521E+01  0.7818608E-02  0.3424099E+00
         11   -1    0    0    0    0  0.00000000000E+00  0.00000000000E+00  0.39999999674E+01  0.40000000000E+01  0.51100000000E-03 0. -1.
    9000002   -1    0    0    0    0 -0.00000000000E+00 -0.00000000000E+00  0.00000000000E+00  0.93800000000E+00  0.93800000000E+00 0.  1.
         11    1    1    2    0    0  0.23610353216E+00 -0.83868631478E-01  0.81669466255E+00  0.85426533244E+00  0.51100000000E-03 0. -1.
    9000002    1    1    2    0    0 -0.51783374134E-01 -0.53733644277E-01  0.50310823595E-01  0.94230780605E+00  0.93800000000E+00 0.  1.
         22    1    1    2    0    0 -0.18432015802E+00  0.13760227576E+00  0.31329944812E+01  0.31414268615E+01  0.00000000000E+00 0.  1.
</event>
<event>
 5    1  0.4838219E+001  0.1562324E+01  0.7818608E-02  0.3395299E+00
         11   -1    0    0    0    0  0.00000000000E+00  0.00000000000E+00  0.39999999674E+01  0.40000000000E+01  0.51100000000E-03 0. -1.
    9000002   -1    0    0    0    0 -0.00000000000E+00 -0.00000000000E+00  0.00000000000E+00  0.93800000000E+00  0.93800000000E+00 0.  1.
         11    1    1    2    0    0 -0.80512371981E-01  0.94247467673E-01  0.22308370688E+01  0.22342782091E+01  0.51100000000E-03 0. -1.
    9000002    1    1    2    0    0 -0.22424888254E+00  0.12666787539E-01  0.62250857297E-01  0.96652324238E+00  0.93800000000E+00 0.  1.
         22    1    1    2    0    0  0.30476125452E+00 -0.10691425521E+00  0.17069120413E+01  0.17371985485E+01  0.00000000000E+00 0. -1.
</event>
<event>
 5    1  0.4838219E+001  0.1560280E+01  0.7818608E-02  0.3397635E+00
         11   -1    0    0    0    0  0.00000000000E+00  0.00000000000E+00  0.39999999674E+01  0.40000000000E+01  0.51100000000E-03 0.  1.
    9000002   -1    0    0    0    0 -0.00000000000E+00 -0.00000000000E+00  0.00000000000E+00  0.93800000000E+00  0.93800000000E+00 0.  1.
         11    1    1    2    0    0 -0.67082134236E-01  0.20211625712E-01  0.33567240155E+01  0.33574551225E+01  0.51100000000E-03 0.  1.
    9000002    1    1    2    0    0  0.24848721694E+00 -0.12634850833E+00  0.82900391472E-01  0.98205209508E+00  0.93800000000E+00 0.  1.
         22    1    1    2    0    0 -0.18140508270E+00  0.10613688262E+00  0.56037556040E+00  0.59849278239E+00  0.00000000000E+00 0.  1.
</event>
<event>
 5    1  0.4838219E+001  0.1551019E+01  0.7818608E-02  0.3408304E+00
         11   -1    0    0    0    0  0.00000000000E+00  0.00000000000E+00  0.39999999674E+01  0.40000000000E+01  0.51100000000E-03 0.  1.
    9000002   -1    0    0    0    0 -0.00000000000E+00 -0.00000000000E+00  0.00000000000E+00  0.93800000000E+00  0.93800000000E+00 0.  1.
         11    1    1    2    0    0 -0.10826760922E+00 -0.24636282930E+00  0.12714453867E+01  0.12996115386E+01  0.51100000000E-03 0.  1.
    9000002    1    1    2    0    0  0.13027961998E+00  0.21430132740E-01  0.48146877609E-01  0.94846937315E+00  0.93800000000E+00 0.  1.
         22    1    1    2    0    0 -0.22012010762E-01  0.22493269656E+00  0.26804077031E+01  0.26899190883E+01  0.00000000000E+00 0.  1.
</event>
<event>
 5    1  0.4838219E+001  0.1502448E+01  0.7818608E-02  0.3466562E+00
         11   -1    0    0    0    0  0.00000000000E+00  0.00000000000E+00  0.39999999674E+01  0.40000000000E+01  0.51100000000E-03 0.  1.
    9000002   -1    0    0    0    0 -0.00000000000E+00 -0.00000000000E+00  0.00000000000E+00  0.93800000000E+00  0.93800000000E+00 0. -1.
         11    1    1    2    0    0 -0.32720197928E+00  0.25557449309E+00  0.30494319675E+01  0.30775664156E+01  0.51100000000E-03 0.  1.
    9000002    1    1    2    0    0  0.40393355319E-01 -0.20293555861E+00  0.10532889899E+00  0.96630877108E+00  0.93800000000E+00 0. -1.
         22    1    1    2    0    0  0.28680862396E+00 -0.52638934483E-01  0.84523910088E+00  0.89412481335E+00  0.00000000000E+00 0. -1.
</event>
<event>
 5    1  0.4838219E+001  0.1564033E+01  0.7818608E-02  0.3393350E+00
         11   -1    0    0    0    0  0.00000000000E+00  0.00000000000E+00  0.39999999674E+01  0.40000000000E+01  0.51100000000E-03 0. -1.
    9000002   -1    0    0    0    0 -0.00000000000E+00 -0.00000000000E+00  0.00000000000E+00  0.93800000000E+00  0.93800000000E+00 0.  1.
         11    1    1    2    0    0  0.19947378823E-01 -0.18529340749E+00  0.31115846777E+01  0.31171607293E+01  0.51100000000E-03 0. -1.
    9000002    1    1    2    0    0  0.18717056555E+00  0.13282666129E+00  0.62451225193E-01  0.96768791358E+00  0.93800000000E+00 0.  1.
         22    1    1    2    0    0 -0.20711794437E+00  0.52466746203E-01  0.82596406450E+00  0.85315135713E+00  0.00000000000E+00 0. -1.
</event>
<event>
 5    1  0.4838219E+001  0.1514624E+01  0.7818608E-02  0.3451581E+00
         11   -1    0    0    0    0  0.00000000000E+00  0.00000000000E+00  0.39999999674E+01  0.40000000000E+01  0.51100000000E-03 0. -1.
    9000002   -1    0    0    0    0 -0.00000000000E+00 -0.00000000000E+00  0.00000000000E+00  0.93800000000E+00  0.93800000000E+00 0.  1.
         11    1    1    2    0    0 -0.32602626126E+00  0.19182913525E+00  0.11121525022E+01  0.11747233672E+01  0.51100000000E-03 0. -1.
    9000002    1    1    2    0    0  0.11927696660E+00 -0.21377621419E+00  0.10771857461E+00  0.97538431187E+00  0.93800000000E+00 0.  1.
         22    1    1    2    0    0  0.20674929465E+00  0.21947078938E-01  0.27801288905E+01  0.27878923209E+01  0.00000000000E+00 0. -1.
</event>
<event>
 5    1  0.4838219E+001  0.1586129E+01  0.7818608E-02  0.3368558E+00
         11   -1    0    0    0    0  0.00000000000E+00  0.00000000000E+00  0.39999999674E+01  0.40000000000E+01  0.51100000000E-03 0.  1.
    9000002   -1    0    0    0    0 -0.00000000000E+00 -0.00000000000E+00  0.00000000000E+00  0.93800000000E+00  0.93800000000E+00 0. -1.
         11    1    1    2    0    0 -0.97417050740E-01  0.32939778798E-02  0.58918540334E+00  0.59719396572E+00  0.51100000000E-03 0.  1.
    9000002    1    1    2    0    0  0.53557684037E-02 -0.19016744561E+00  0.34134797971E-01  0.95770638823E+00  0.93800000000E+00 0. -1.
         22    1    1    2    0    0  0.92061282336E-01  0.18687346773E+00  0.33766797660E+01  0.33830996460E+01  0.00000000000E+00 0.  1.
</event>
<event>
 5    1  0.4838219E+001  0.1566192E+01  0.7818608E-02  0.3390895E+00
         11   -1    0    0    0    0  0.00000000000E+00  0.00000000000E+00  0.39999999674E+01  0.40000000000E+01  0.51100000000E-03 0.  1.
    9000002   -1    0    0    0    0 -0.00000000000E+00 -0.00000000000E+00  0.00000000000E+00  0.93800000000E+00  0.93800000000E+00 0. -1.
         11    1    1    2    0    0  0.99377658831E-01  0.10881998601E+00  0.13814378161E+01  0.13892762178E+01  0.51100000000E-03 0.  1.
    9000002    1    1    2    0    0 -0.25626068194E+00  0.28626089522E+00  0.12746719632E+00  0.10216196569E+01  0.93800000000E+00 0. -1.
         22    1    1    2    0    0  0.15688302311E+00 -0.39508088122E+00  0.24910949550E+01  0.25271041253E+01  0.00000000000E+00 0.  1.
</event>
<event>
 5    1  0.4838219E+001  0.1540719E+01  0.7818608E-02  0.3420329E+00
         11   -1    0    0    0    0  0.00000000000E+00  0.00000000000E+00  0.39999999674E+01  0.40000000000E+01  0.51100000000E-03 0. -1.
    9000002   -1    0    0    0    0 -0.00000000000E+00 -0.00000000000E+00  0.00000000000E+00  0.93800000000E+00  0.93800000000E+00 0.  1.
         11    1    1    2    0    0  0.22712976058E+00 -0.37583183721E+00  0.21338884122E+01  0.21786044879E+01  0.51100000000E-03 0. -1.
    9000002    1    1    2    0    0 -0.33195649630E+00  0.15987218900E+00  0.14091011133E+00  0.10175725486E+01  0.93800000000E+00 0.  1.
         22    1    1    2    0    0  0.10482673572E+00  0.21595964821E+00  0.17252014438E+01  0.17418229635E+01  0.00000000000E+00 0. -1.
</event>
<event>
 5    1  0.4838219E+001  0.1577615E+01  0.7818608E-02  0.3378023E+00
         11   -1    0    0    0    0  0.00000000000E+00  0.00000000000E+00  0.39999999674E+01  0.40000000000E+01  0.51100000000E-03 0. -1.
    9000002   -1    0    0    0    0 -0.00000000000E+00 -0.00000000000E+00  0.00000000000E+00  0.93800000000E+00  0.93800000000E+00 0. -1.
         11    1    1    2    0    0 -0.93827453567E-01 -0.21048760930E+00  0.24305320367E+01  0.24414329537E+01  0.51100000000E-03 0. -1.
    9000002    1    1    2    0    0 -0.10585655608E+00  0.22781668187E+00  0.58987385467E-01  0.97284611458E+00  0.93800000000E+00 0. -1.
         22    1    1    2    0    0  0.19968400964E+00 -0.17329072562E-01  0.15104805452E+01  0.15237209317E+01  0.00000000000E+00 0. -1.
</event>
<event>
 5    1  0.4838219E+001  0.1550184E+01  0.7818608E-02  0.3409272E+00
         11   -1    0    0    0    0  0.00000000000E+00  0.00000000000E+00  0.39999999674E+01  0.40000000000E+01  0.51100000000E-03 0. -1.
    9000002   -1    0    0    0    0 -0.00000000000E+00 -0.00000000000E+00  0.00000000000E+00  0.93800000000E+00  0.93800000000E+00 0.  1.
         11    1    1    2    0    0 -0.28870980958E+00 -0.79165648657E-01  0.14611992989E+01  0.14915509399E+01  0.51100000000E-03 0. -1.
    9000002    1    1    2    0    0  0.12979394378E+00 -0.44234626845E-01  0.49744643732E-01  0.94927430158E+00  0.93800000000E+00 0.  1.
         22    1    1    2    0    0  0.15891586580E+00  0.12340027550E+00  0.24890560247E+01  0.24971747585E+01  0.00000000000E+00 0. -1.
</event>
<event>
 5    1  0.4838219E+001  0.1489200E+01  0.7818608E-02  0.3483162E+00
         11   -1    0    0    0    0  0.00000000000E+00  0.00000000000E+00  0.39999999674E+01  0.40000000000E+01  0.51100000000E-03 0.  1.
    9000002   -1    0    0    0    0 -0.00000000000E+00 -0.00000000000E+00  0.00000000000E+00  0.93800000000E+00  0.93800000000E+00 0.  1.
         11    1    1    2    0    0 -0.52464216711E+00  0.61452841700E+00  0.29018739266E+01  0.30122694311E+01  0.51100000000E-03 0.  1.
    9000002    1    1    2    0    0  0.30231066153E+00 -0.58398484757E+00  0.43448992405E+00  0.12251757149E+01  0.93800000000E+00 0.  1.
         22    1    1    2    0    0  0.22233150557E+00 -0.30543569434E-01  0.66363611674E+00  0.70055485399E+00  0.00000000000E+00 0.  1.
</event>
<event>
 5    1  0.4838219E+001  0.1521876E+01  0.7818608E-02  0.3442781E+00
         11   -1    0    0    0    0  0.00000000000E+00  0.00000000000E+00  0.39999999674E+01  0.40000000000E+01  0.51100000000E-03 0.  1.
    9000002   -1    0    0    0    0 -0.00000000000E+00 -0.00000000000E+00  0.00000000000E+00  0.93800000000E+00  0.93800000000E+00 0. -1.
         11    1    1    2    0    0 -0.42558491800E+00  0.84027851762E-01  0.12691616947E+01  0.13412512333E+01  0.51100000000E-03 0.  1.
    9000002    1    1    2    0    0  0.39943254562E+00  0.13337731293E+00  0.18890559394E+00  0.10454019273E+01  0.93800000000E+00 0. -1.
         22    1    1    2    0    0  0.26152372380E-01 -0.21740516469E+00  0.25419326787E+01  0.25513468394E+01  0.00000000000E+00 0.  1.
</event>
<event>
 5    1  0.5498752E+001  0.1567080E+01  0.7818608E-02  0.3389887E+00
         11   -1    0    0    0    0  0.00000000000E+00  0.00000000000E+00  0.39999999674E+01  0.40000000000E+01  0.51100000000E-03 0.  1.
    9000002   -1    0    0    0    0 -0.00000000000E+00 -0.00000000000E+00  0.00000000000E+00  0.93800000000E+00  0.93800000000E+00 0.  1.
         11    1    1    2    0    0  0.17464220674E+00  0.80689434208E-01  0.11519708745E+01  0.11679245875E+01  0.51100000000E-03 0.  1.
    9000002    1    1    2    0    0  0.68919909965E-02  0.24931852292E-01  0.24428462990E-01  0.93867451579E+00  0.93800000000E+00 0.  1.
         22    1    1    2    0    0 -0.18153419774E+00 -0.10562128650E+00  0.28236006299E+01  0.28314008967E+01  0.00000000000E+00 0.  1.
</event>
<event>
 5    1  0.4838219E+001  0.1572354E+01  0.7818608E-02  0.3383927E+00
         11   -1    0    0    0    0  0.00000000000E+00  0.00000000000E+00  0.39999999674E+01  0.40000000000E+01  0.51100000000E-03 0.  1.
    9000002   -1    0    0    0    0 -0.00000000000E+00 -0.00000000000E+00  0.00000000000E+00  0.93800000000E+00  0.93800000000E+00 0.  1.
         11    1    1    2    0    0 -0.12207907495E+00 -0.13350773506E+00  0.12485249362E+01  0.12615634718E+01  0.51100000000E-03 0.  1.
    9000002    1    1    2    0    0  0.81204626788E-01 -0.76482207360E-01  0.28467942785E-01  0.94503869932E+00  0.93800000000E+00 0.  1.
         22    1    1    2    0    0  0.40874448163E-01  0.20998994242E+00  0.27230070883E+01  0.27313978289E+01  0.00000000000E+00 0.  1.
</event>
<event>
 5    1  0.4838219E+001  0.1523736E+01  0.7818608E-02  0.3440538E+00
         11   -1    0    0    0    0  0.00000000000E+00  0.00000000000E+00  0.39999999674E+01  0.40000000000E+01  0.51100000000E-03 0. -1.
    9000002   -1    0    0    0    0 -0.00000000000E+00 -0.00000000000E+00  0.00000000000E+00  0.93800000000E+00  0.93800000000E+00 0. -1.
         11    1    1    2    0    0  0.26055298209E-01  0.27736224553E+00  0.64180612417E+00  0.69965995738E+00  0.51100000000E-03 0. -1.
    9000002    1    1    2    0    0 -0.24106860029E+00 -0.16323950335E+00  0.11821757560E+00  0.98923232897E+00  0.93800000000E+00 0. -1.
         22    1    1    2    0    0  0.21501330208E+00 -0.11412274218E+00  0.32399762676E+01  0.32491077137E+01  0.00000000000E+00 0. -1.
</event>
<event>
 5    1  0.4838219E+001  0.1580929E+01  0.7818608E-02  0.3374326E+00
         11   -1    0    0    0    0  0.00000000000E+00  0.00000000000E+00  0.39999999674E+01  0.40000000000E+01  0.51100000000E-03 0.  1.
    9000002   -1    0    0    0    0 -0.00000000000E+00 -0.00000000000E+00  0.00000000000E+00  0.93800000000E+00  0.93800000000E+00 0.  1.
         11    1    1    2    0    0 -0.14348316997E+00  0.68570269482E-02  0.12708413387E+01  0.12789340906E+01  0.51100000000E-03 0.  1.
    9000002    1    1    2    0    0  0.89268692417E-03  0.15335900083E+00  0.29511750575E-01  0.95091257403E+00  0.93800000000E+00 0.  1.
         22    1    1    2    0    0  0.14259048305E+00 -0.16021602777E+00  0.26996468781E+01  0.27081533354E+01  0.00000000000E+00 0.  1.
</event>
<event>
 5    1  0.4838219E+001  0.1563488E+01  0.7818608E-02  0.3393971E+00
         11   -1    0    0    0    0  0.00000000000E+00  0.00000000000E+00  0.39999999674E+01  0.40000000000E+01  0.51100000000E-03 0. -1.
    9000002   -1    0    0    0    0 -0.00000000000E+00 -0.00000000000E+00  0.00000000000E+00  0.93800000000E+00  0.93800000000E+00 0. -1.
         11    1    1    2    0    0 -0.41396129550E+00 -0.10527351106E+00  0.25690058947E+01  0.26042730300E+01  0.51100000000E-03 0. -1.
    9000002    1    1    2    0    0  0.33796645977E+00  0.31471936562E+00  0.17737254319E+00  0.10604596296E+01  0.93800000000E+00 0. -1.
         22    1    1    2    0    0  0.75994835739E-01 -0.20944585456E+00  0.12536215294E+01  0.12732673404E+01  0.00000000000E+00 0.  1.
</event>
<event>
 5    1  0.6673822E+001  0.1564968E+01  0.7818608E-02  0.3392287E+00
         11   -1    0    0    0    0  0.00000000000E+00  0.00000000000E+00  0.39999999674E+01  0.40000000000E+01  0.51100000000E-03 0. -1.
    9000002   -1    0    0    0    0 -0.00000000000E+00 -0.00000000000E+00  0.00000000000E+00  0.93800000000E+00  0.93800000000E+00 0.  1.
         11    1    1    2    0    0 -0.48985407493E-01 -0.14546830589E+00  0.59884128285E+00  0.61820040548E+00  0.51100000000E-03 0. -1.
    9000002    1    1    2    0    0  0.10975775927E-01 -0.56982570340E-01  0.27848307345E-01  0.94020583342E+00  0.93800000000E+00 0.  1.
         22    1    1    2    0    0  0.38009631567E-01  0.20245087623E+00  0.33733103772E+01  0.33795937611E+01  0.00000000000E+00 0. -1.
</event>
<event>
 5    1  0.4838219E+001  0.1491812E+01  0.7818608E-02  0.3479864E+00
         11   -1    0    0    0    0  0.00000000000E+00  0.00000000000E+00  0.39999999674E+01  0.40000000000E+01  0.51100000000E-03 0.  1.
    9000002   -1    0    0    0    0 -0.00000000000E+00 -0.00000000000E+00  0.00000000000E+00  0.93800000000E+00  0.93800000000E+00 0. -1.
         11    1    1    2    0    0  0.22026000628E-01 -0.29599933351E+00  0.63560911651E+00  0.70149836796E+00  0.51100000000E-03 0.  1.
    9000002    1    1    2    0    0  0.12457019485E+00  0.15847330226E-01  0.94182720544E-01  0.95104324621E+00  0.93800000000E+00 0. -1.
         22    1    1    2    0    0 -0.14659619548E+00  0.28015200328E+00  0.32702081303E+01  0.32854583858E+01  0.00000000000E+00 0.  1.
</event>
<event>
 5    1  0.4838219E+001  0.1562575E+01  0.7818608E-02  0.3395012E+00
         11   -1    0    0    0    0  0.00000000000E+00  0.00000000000E+00  0.39999999674E+01  0.40000000000E+01  0.51100000000E-03 0.  1.
    9000002   -1    0    0    0    0 -0.00000000000E+00 -0.00000000000E+00  0.00000000000E+00  0.93800000000E+00  0.93800000000E+00 0. -1.
         11    1    1    2    0    0  0.11888327679E+00  0.31916911421E+00  0.29377523843E+01  0.29574298791E+01  0.51100000000E-03 0.  1.
    9000002    1    1    2    0    0 -0.28708938533E+00 -0.19220438215E+00  0.11041128356E+00  0.10056825996E+01  0.93800000000E+00 0. -1.
         22    1    1    2    0    0  0.16820610854E+00 -0.12696473206E+00  0.95183629948E+00  0.97488752127E+00  0.00000000000E+00 0. -1.
</event>
<event>
 5    1  0.4838219E+001  0.1514031E+01  0.7818608E-02  0.3452304E+00
         11   -1    0    0    0    0  0.00000000000E+00  0.00000000000E+00  0.39999999674E+01  0.40000000000E+01  0.51100000000E-03 0. -1.
    9000002   -1    0    0    0    0 -0.00000000000E+00 -0.00000000000E+00  0.00000000000E+00  0.93800000000E+00  0.93800000000E+00 0. -1.
         11    1    1    2    0    0  0.43997122970E+00 -0.21292125542E+00  0.21420935488E+01  0.21971516054E+01  0.51100000000E-03 0. -1.
    9000002    1    1    2    0    0 -0.18122629095E+00  0.22975582701E+00  0.12715170243E+00  0.99077861503E+00  0.93800000000E+00 0. -1.
         22    1    1    2    0    0 -0.25874493875E+00 -0.16834571589E-01  0.17307547161E+01  0.17500697796E+01  0.00000000000E+00 0. -1.
</event>
<event>
 5    1  0.4838219E+001  0.1553806E+01  0.7818608E-02  0.3405079E+00
         11   -1    0    0    0    0  0.00000000000E+00  0.00000000000E+00  0.39999999674E+01  0.40000000000E+01  0.51100000000E-03 0.  1.
    9000002   -1    0    0    0    0 -0.00000000000E+00 -0.00000000000E+00  0.00000000000E+00  0.93800000000E+00  0.93800000000E+00 0.  1.
         11    1    1    2    0    0 -0.23532152560E-02  0.23831057757E+00  0.23573473365E+01  0.23693636688E+01  0.51100000000E-03 0.  1.
    9000002    1    1    2    0    0 -0.41137917167E-01  0.22596064011E-01  0.35480460038E-01  0.93984348345E+00  0.93800000000E+00 0.  1.
         22    1    1    2    0    0  0.43491132423E-01 -0.26090664158E+00  0.16071721708E+01  0.16287928477E+01  0.00000000000E+00 0.  1.
</event>
<event>
 5    1  0.4838219E+001  0.1539256E+01  0.7818608E-02  0.3422052E+00
         11   -1    0    0    0    0  0.00000000000E+00  0.00000000000E+00  0.39999999674E+01  0.40000000000E+01  0.51100000000E-03 0.  1.
    9000002   -1    0    0    0    0 -0.00000000000E+00 -0.00000000000E+00  0.00000000000E+00  0.93800000000E+00  0.93800000000E+00 0. -1.
         11    1    1    2    0    0  0.28342645795E+00 -0.19465186999E-01  0.13354812127E+01  0.13653643401E+01  0.51100000000E-03 0.  1.
    9000002    1    1    2    0    0 -0.16271436632E-01 -0.46969097387E-01  0.46800056278E-01  0.94048131349E+00  0.93800000000E+00 0. -1.
         22    1    1    2    0    0 -0.26715502132E+00  0.66434284387E-01  0.26177186983E+01  0.26321543464E+01  0.00000000000E+00 0.  1.
</event>
<event>
 5    1  0.4838219E+001  0.1473154E+01  0.7818608E-02  0.3503699E+00
         11   -1    0    0    0    0  0.00000000000E+00  0.00000000000E+00  0.39999999674E+01  0.40000000000E+01  0.51100000000E-03 0. -1.
    9000002   -1    0    0    0    0 -0.00000000000E+00 -0.00000000000E+00  0.00000000000E+00  0.93800000000E+00  0.93800000000E+00 0.  1.
         11    1    1    2    0    0  0.74806355218E-01  0.25580939775E+00  0.40703909968E+00  0.48653420080E+00  0.51100000000E-03 0. -1.
    9000002    1    1    2    0    0 -0.59284824913E-02  0.44680267114E-01  0.99398705021E-01  0.94432810809E+00  0.93800000000E+00 0.  1.
         22    1    1    2    0    0 -0.68877872726E-01 -0.30048966486E+00  0.34935621627E+01  0.35071376911E+01  0.00000000000E+00 0. -1.
</event>
<event>
 5    1  0.4838219E+001  0.1581241E+01  0.7818608E-02  0.3373979E+00
         11   -1    0    0    0    0  0.00000000000E+00  0.00000000000E+00  0.39999999674E+01  0.40000000000E+01  0.51100000000E-03 0.  1.
    9000002   -1    0    0    0    0 -0.00000000000E+00 -0.00000000000E+00  0.00000000000E+00  0.93800000000E+00  0.93800000000E+00 0.  1.
         11    1    1    2    0    0  0.96567107938E-01  0.26894144602E-01  0.23398238383E+01  0.23419701870E+01  0.51100000000E-03 0.  1.
    9000002    1    1    2    0    0  0.10176624707E+00  0.18885359642E-01  0.20652594317E-01  0.94391925264E+00  0.93800000000E+00 0.  1.
         22    1    1    2    0    0 -0.19833335501E+00 -0.45779504244E-01  0.16395235348E+01  0.16521105604E+01  0.00000000000E+00 0.  1.
</event>
<event>
 5    1  0.4838219E+001  0.1539408E+01  0.7818608E-02  0.3421873E+00
         11   -1    0    0    0    0  0.00000000000E+00  0.00000000000E+00  0.39999999674E+01  0.40000000000E+01  0.51100000000E-03 0.  1.
    9000002   -1    0    0    0    0 -0.00000000000E+00 -0.00000000000E+00  0.00000000000E+00  0.93800000000E+00  0.93800000000E+00 0. -1.
         11    1    1    2    0    0 -0.18254892121E+00 -0.56549870703E-01  0.21833361271E+01  0.21916840332E+01  0.51100000000E-03 0.  1.
    9000002    1    1    2    0    0 -0.19962049066E+00  0.70649960990E-01  0.76519920314E-01  0.96464452286E+00  0.93800000000E+00 0. -1.
         22    1    1    2    0    0  0.38216941186E+00 -0.14100090287E-01  0.17401439200E+01  0.17816714439E+01  0.00000000000E+00 0.  1.
</event>
<event>
 5    1  0.4838219E+001  0.1583158E+01  0.7818608E-02  0.3371849E+00
         11   -1    0    0    0    0  0.00000000000E+00  0.00000000000E+00  0.39999999674E+01  0.40000000000E+01  0.51100000000E-03 0. -1.
    9000002   -1    0    0    0    0 -0.00000000000E+00 -0.00000000000E+00  0.00000000000E+00  0.93800000000E+00  0.93800000000E+00 0.  1.
         11    1    1    2    0    0 -0.10364913892E+00 -0.15605801484E+00  0.20025242557E+01  0.20112684813E+01  0.51100000000E-03 0. -1.
    9000002    1    1    2    0    0  0.28102519385E+00  0.12799059809E-01  0.65625717831E-01  0.98147323466E+00  0.93800000000E+00 0.  1.
         22    1    1    2    0    0 -0.17737605493E+00  0.14325895503E+00  0.19318499938E+01  0.19452582841E+01  0.00000000000E+00 0. -1.
</event>
<event>
 5    1  0.4838219E+001  0.1578595E+01  0.7818608E-02  0.3376929E+00
         11   -1    0    0    0    0  0.00000000000E+00  0.00000000000E+00  0.39999999674E+01  0.40000000000E+01  0.51100000000E-03 0. -1.
    9000002   -1    0    0    0    0 -0.00000000000E+00 -0.00000000000E+00  0.00000000000E+00  0.93800000000E+00  0.93800000000E+00 0. -1.
         11    1    1    2    0    0  0.66469090960E-01  0.83507941659E-01  0.20095671429E+01  0.20123995824E+01  0.51100000000E-03 0. -1.
    9000002    1    1    2    0    0  0.21204369243E+00 -0.14373852568E+00  0.59946888450E-01  0.97419757785E+00  0.93800000000E+00 0. -1.
         22    1    1    2    0    0 -0.27851278339E+00  0.60230584022E-01  0.19304859360E+01  0.19514028397E+01  0.00000000000E+00 0. -1.
</event>
<event>
 5    1  0.4838219E+001  0.1457718E+01  0.7818608E-02  0.3523919E+00
         11   -1    0    0    0    0  0.00000000000E+00  0.00000000000E+00  0.39999999674E+01  0.40000000000E+01  0.51100000000E-03 0.  1.
    9000002   -1    0    0    0    0 -0.00000000000E+00 -0.00000000000E+00  0.00000000000E+00  0.93800000000E+00  0.93800000000E+00 0. -1.
         11    1    1    2    0    0 -0.28783219347E+00  0.14971551805E-01  0.29832260889E+00  0.41481099197E+00  0.51100000000E-03 0.  1.
    9000002    1    1    2    0    0  0.29358988692E+00  0.19284752946E+00  0.20756121535E+00  0.10228933715E+01  0.93800000000E+00 0. -1.
         22    1    1    2    0    0 -0.57576934465E-02 -0.20781908126E+00  0.34941161431E+01  0.35002956365E+01  0.00000000000E+00 0.  1.
</event>
<event>
 5    1  0.4838219E+001  0.1577567E+01  0.7818608E-02  0.3378077E+00
         11   -1    0    0    0    0  0.00000000000E+00  0.00000000000E+00  0.39999999674E+01  0.40000000000E+01  0.51100000000E-03 0.  1.
    9000002   -1    0    0    0    0 -0.00000000000E+00 -0.00000000000E+00  0.00000000000E+00  0.93800000000E+00  0.93800000000E+00 0. -1.
         11    1    1    2    0    0  0.14597175473E+00 -0.29139357382E-01  0.12609327836E+01  0.12696883874E+01  0.51100000000E-03 0.  1.
    9000002    1    1    2    0    0  0.62163680189E-01  0.39277818577E-01  0.19814717022E-01  0.94108644299E+00  0.93800000000E+00 0. -1.
         22    1    1    2    0    0 -0.20813543492E+00 -0.10138461195E-01  0.27192524667E+01  0.27272251696E+01  0.00000000000E+00 0. -1.
</event>
<event>
 5    1  0.4838219E+001  0.1562395E+01  0.7818608E-02  0.3395218E+00
         11   -1    0    0    0    0  0.00000000000E+00  0.00000000000E+00  0.39999999674E+01  0.40000000000E+01  0.51100000000E-03 0. -1.
    9000002   -1    0    0    0    0 -0.00000000000E+00 -0.00000000000E+00  0.00000000000E+00  0.93800000000E+00  0.93800000000E+00 0. -1.
         11    1    1    2    0    0  0.29226599435E-01 -0.19193021782E+00  0.11528910846E+01  0.11691233967E+01  0.51100000000E-03 0. -1.
    9000002    1    1    2    0    0  0.44676721040E-01 -0.51311034728E-01  0.30645588575E-01  0.94096332755E+00  0.93800000000E+00 0. -1.
         22    1    1    2    0    0 -0.73903320475E-01  0.24324125255E+00  0.28164632942E+01  0.28279132758E+01  0.00000000000E+00 0. -1.
</event>
<event>
 5    1  0.4838219E+001  0.1529671E+01  0.7818608E-02  0.3433421E+00
         11   -1    0    0    0    0  0.00000000000E+00  0.00000000000E+00  0.39999999674E+01  0.40000000000E+01  0.51100000000E-03 0.  1.
    9000002   -1    0    0    0    0 -0.00000000000E+00 -0.00000000000E+00  0.00000000000E+00  0.93800000000E+00  0.93800000000E+00 0.  1.
         11    1    1    2    0    0 -0.40821580591E-02 -0.13426806639E-01  0.34522127750E+01  0.34522413369E+01  0.51100000000E-03 0.  1.
    9000002    1    1    2    0    0 -0.13226392039E+00 -0.18115232787E+00  0.88301345969E-01  0.96847872369E+00  0.93800000000E+00 0.  1.
         22    1    1    2    0    0  0.13634607845E+00  0.19457913451E+00  0.45948584639E+00  0.51727993943E+00  0.00000000000E+00 0.  1.
</event>
<event>
 5    1  0.4838219E+001  0.1582447E+01  0.7818608E-02  0.3372638E+00
         11   -1    0    0    0    0  0.00000000000E+00  0.00000000000E+00  0.39999999674E+01  0.40000000000E+01  0.51100000000E-03 0.  1.
    9000002   -1    0    0    0    0 -0.00000000000E+00 -0.00000000000E+00  0.00000000000E+00  0.93800000000E+00  0.93800000000E+00 0.  1.
         11    1    1    2    0    0  0.50379836952E-01  0.49378778981E-02  0.88278517725E+00  0.88423551213E+00  0.51100000000E-03 0.  1.
    9000002    1    1    2    0    0  0.18632702402E+00  0.39306089116E+00  0.14309161352E+00  0.10438073739E+01  0.93800000000E+00 0.  1.
         22    1    1    2    0    0 -0.23670686097E+00 -0.39799876905E+00  0.29741231766E+01  0.30099571139E+01  0.00000000000E+00 0.  1.
</event>
<event>
 5    1  0.4838219E+001  0.1585369E+01  0.7818608E-02  0.3369398E+00
         11   -1    0    0    0    0  0.00000000000E+00  0.00000000000E+00  0.39999999674E+01  0.40000000000E+01  0.51100000000E-03 0.  1.
    9000002   -1    0    0    0    0 -0.00000000000E+00 -0.00000000000E+00  0.00000000000E+00  0.93800000000E+00  0.93800000000E+00 0. -1.
         11    1    1    2    0    0 -0.11562809476E+00  0.99202252838E-01  0.13895186944E+01  0.13978459881E+01  0.51100000000E-03 0.  1.
    9000002    1    1    2    0    0 -0.61944029476E-01 -0.26882411334E+00  0.61807604771E-01  0.97967731764E+00  0.93800000000E+00 0. -1.
         22    1    1    2    0    0  0.17757212423E+00  0.16962186050E+00  0.25486736682E+01  0.25604766942E+01  0.00000000000E+00 0.  1.
</event>
<event>
 5    1  0.4838219E+001  0.1565643E+01  0.7818608E-02  0.3391519E+00
         11   -1    0    0    0    0  0.00000000000E+00  0.00000000000E+00  0.39999999674E+01  0.40000000000E+01  0.51100000000E-03 0.  1.
    9000002   -1    0    0    0    0 -0.00000000000E+00 -0.00000000000E+00  0.00000000000E+00  0.93800000000E+00  0.93800000000E+00 0. -1.
         11    1    1    2    0    0 -0.18220049811E+00  0.70441518512E-01  0.21519668271E+01  0.21608147804E+01  0.51100000000E-03 0.  1.
    9000002    1    1    2    0    0 -0.62975188422E-01 -0.44365028201E-01  0.29089729911E-01  0.94160731862E+00  0.93800000000E+00 0. -1.
         22    1    1    2    0    0  0.24517568653E+00 -0.26076490312E-01  0.18189434103E+01  0.18355779010E+01  0.00000000000E+00 0.  1.
</event>
<event>
 5    1  0.4838219E+001  0.1557537E+01  0.7818608E-02  0.3400782E+00
         11   -1    0    0    0    0  0.00000000000E+00  0.00000000000E+00  0.39999999674E+01  0.40000000000E+01  0.51100000000E-03 0.  1.
    9000002   -1    0    0    0    0 -0.00000000000E+00 -0.00000000000E+00  0.00000000000E+00  0.93800000000E+00  0.93800000000E+00 0.  1.
         11    1    1    2    0    0  0.21347493715E+00 -0.86986751834E-01  0.11809811553E+01  0.12032684630E+01  0.51100000000E-03 0.  1.
    9000002    1    1    2    0    0 -0.28397731122E-01 -0.29185325770E-01  0.32279652899E-01  0.93943823127E+00  0.93800000000E+00 0.  1.
         22    1    1    2    0    0 -0.18507720603E+00  0.11617207760E+00  0.27867391592E+01  0.27952933057E+01  0.00000000000E+00 0.  1.
</event>
<event>
 5    1  0.4838219E+001  0.1462555E+01  0.7818608E-02  0.3517533E+00
         11   -1    0    0    0    0  0.00000000000E+00  0.00000000000E+00  0.39999999674E+01  0.40000000000E+01  0.51100000000E-03 0. -1.
    9000002   -1    0    0    0    0 -0.00000000000E+00 -0.00000000000E+00  0.00000000000E+00  0.93800000000E+00  0.93800000000E+00 0. -1.
         11    1    1    2    0    0  0.11485758213E+00 -0.15403390127E+00  0.15216684103E+00  0.24509939931E+00  0.51100000000E-03 0. -1.
    9000002    1    1    2    0    0  0.80418748433E-01 -0.10022599369E-01  0.11172829633E+00  0.94810064856E+00  0.93800000000E+00 0. -1.
         22    1    1    2    0    0 -0.19527633057E+00  0.16405650064E+00  0.37361048300E+01  0.37447999521E+01  0.00000000000E+00 0. -1.
</event>
<event>
 5    1  0.4838219E+001  0.1463921E+01  0.7818608E-02  0.3515738E+00
         11   -1    0    0    0    0  0.00000000000E+00  0.00000000000E+00  0.39999999674E+01  0.40000000000E+01  0.51100000000E-03 0.  1.
    9000002   -1    0    0    0    0 -0.00000000000E+00 -0.00000000000E+00  0.00000000000E+00  0.93800000000E+00  0.93800000000E+00 0.  1.
         11    1    1    2    0    0 -0.60692529654E+00  0.19159387083E-01  0.90909795262E+00  0.10932450532E+01  0.51100000000E-03 0.  1.
    9000002    1    1    2    0    0  0.60000850705E+00 -0.34710755535E+00  0.56201145235E+00  0.12946793951E+01  0.93800000000E+00 0.  1.
         22    1    1    2    0    0  0.69167894898E-02  0.32794816826E+00  0.25288905624E+01  0.25500755517E+01  0.00000000000E+00 0.  1.
</event>
<event>
 5    1  0.4838219E+001  0.1461835E+01  0.7818608E-02  0.3518480E+00
         11   -1    0    0    0    0  0.00000000000E+00  0.00000000000E+00  0.39999999674E+01  0.40000000000E+01  0.51100000000E-03 0. -1.
    9000002   -1    0    0    0    0 -0.00000000000E+00 -0.00000000000E+00  0.00000000000E+00  0.93800000000E+00  0.93800000000E+00 0. -1.
         11    1    1    2    0    0  0.35017310144E+00 -0.50506446523E+00  0.20684362537E+01  0.21578091000E+01  0.51100000000E-03 0. -1.
    9000002    1    1    2    0    0 -0.77019216005E-01  0.33658487248E+00  0.20026518187E+00  0.10193976060E+01  0.93800000000E+00 0. -1.
         22    1    1    2    0    0 -0.27315388544E+00  0.16847959275E+00  0.17312985318E+01  0.17607932940E+01  0.00000000000E+00 0.  1.
</event>
<event>
 5    1  0.4838219E+001  0.1559249E+01  0.7818608E-02  0.3398817E+00
         11   -1    0    0    0    0  0.00000000000E+00  0.00000000000E+00  0.39999999674E+01  0.40000000000E+01  0.51100000000E-03 0. -1.
    9000002   -1    0    0    0    0 -0.00000000000E+00 -0.00000000000E+00  0.00000000000E+00  0.93800000000E+00  0.93800000000E+00 0.  1.
         11    1    1    2    0    0 -0.81801934885E-01  0.19787854267E+00  0.11520136374E+01  0.11717436393E+01  0.51100000000E-03 0. -1.
    9000002    1    1    2    0    0 -0.17043666087E-01  0.14372632693E-01  0.30191422986E-01  0.93875054255E+00  0.93800000000E+00 0.  1.
         22    1    1    2    0    0  0.98845600973E-01 -0.21225117536E+00  0.28177949069E+01  0.28275058182E+01  0.00000000000E+00 0. -1.
</event>
<event>
 5    1  0.4838219E+001  0.1559861E+01  0.7818608E-02  0.3398115E+00
         11   -1    0    0    0    0  0.00000000000E+00  0.00000000000E+00  0.39999999674E+01  0.40000000000E+01  0.51100000000E-03 0. -1.
    9000002   -1    0    0    0    0 -0.00000000000E+00 -0.00000000000E+00  0.00000000000E+00  0.93800000000E+00  0.93800000000E+00 0. -1.
         11    1    1    2    0    0  0.99836370870E-01  0.21709315762E+00  0.13362916527E+01  0.13574875256E+01  0.51100000000E-03 0. -1.
    9000002    1    1    2    0    0  0.34961417920E-01 -0.56931655772E-01  0.32445747311E-01  0.94093583240E+00  0.93800000000E+00 0. -1.
         22    1    1    2    0    0 -0.13479778879E+00 -0.16016150185E+00  0.26312625673E+01  0.26395766420E+01  0.00000000000E+00 0. -1.
</event>
<event>
 5    1  0.4838219E+001  0.1585470E+01  0.7818608E-02  0.3369287E+00
         11   -1    0    0    0    0  0.00000000000E+00  0.00000000000E+00  0.39999999674E+01  0.40000000000E+01  0.51100000000E-03 0.  1.
    9000002   -1    0    0    0    0 -0.00000000000E+00 -0.00000000000E+00  0.00000000000E+00  0.93800000000E+00  0.93800000000E+00 0. -1.
         11    1    1    2    0    0 -0.14828251822E+00  0.13066169090E+00  0.23773697958E+01  0.23855707053E+01  0.51100000000E-03 0.  1.
    9000002    1    1    2    0    0  0.46902924404E-01 -0.33498261742E+00  0.88065135413E-01  0.10010058473E+01  0.93800000000E+00 0. -1.
         22    1    1    2    0    0  0.10137959382E+00  0.20432092651E+00  0.15345650361E+01  0.15514234474E+01  0.00000000000E+00 0.  1.
</event>
<event>
 5    1  0.4838219E+001  0.1525793E+01  0.7818608E-02  0.3438065E+00
         11   -1    0    0    0    0  0.00000000000E+00  0.00000000000E+00  0.39999999674E+01  0.40000000000E+01  0.51100000000E-03 0. -1.
    9000002   -1    0    0    0    0 -0.00000000000E+00 -0.00000000000E+00  0.00000000000E+00  0.93800000000E+00  0.93800000000E+00 0. -1.
         11    1    1    2    0    0 -0.48018387253E+00 -0.12955581485E+00  0.27893815508E+01  0.28333744824E+01  0.51100000000E-03 0. -1.
    9000002    1    1    2    0    0  0.26487706099E+00  0.11026072128E+00  0.11468930729E+00  0.98758033663E+00  0.93800000000E+00 0. -1.
         22    1    1    2    0    0  0.21530681154E+00  0.19295093575E-01  0.10959291092E+01  0.11170451809E+01  0.00000000000E+00 0.  1.
</event>
<event>
 5    1  0.4838219E+001  0.1547105E+01  0.7818608E-02  0.3412854E+00
         11   -1    0    0    0    0  0.00000000000E+00  0.00000000000E+00  0.39999999674E+01  0.40000000000E+01  0.51100000000E-03 0. -1.
    9000002   -1    0    0    0    0 -0.00000000000E+00 -0.00000000000E+00  0.00000000000E+00  0.93800000000E+00  0.93800000000E+00 0. -1.
         11    1    1    2    0    0 -0.22957510874E+00 -0.24193701637E+00  0.18451239760E+01  0.18750255994E+01  0.51100000000E-03 0. -1.
    9000002    1    1    2    0    0  0.21185612830E+00 -0.19896820611E-02  0.70403194257E-01  0.96420308426E+00  0.93800000000E+00 0. -1.
         22    1    1    2    0    0  0.17718980437E-01  0.24392669843E+00  0.20844727971E+01  0.20987713163E+01  0.00000000000E+00 0. -1.
</event>
<event>
 5    1  0.4838219E+001  0.1542941E+01  0.7818608E-02  0.3417721E+00
         11   -1    0    0    0    0  0.00000000000E+00  0.00000000000E+00  0.39999999674E+01  0.40000000000E+01  0.51100000000E-03 0. -1.
    9000002   -1    0    0    0    0 -0.00000000000E+00 -0.00000000000E+00  0.00000000000E+00  0.93800000000E+00  0.93800000000E+00 0. -1.
         11    1    1    2    0    0 -0.70030479301E-01 -0.27779037883E+00  0.15396603077E+01  0.15660861684E+01  0.51100000000E-03 0. -1.
    9000002    1    1    2    0    0 -0.72220671177E-01  0.40798221799E-01  0.47037819334E-01  0.94283449062E+00  0.93800000000E+00 0. -1.
         22    1    1    2    0    0  0.14225115048E+00  0.23699215704E+00  0.24133018403E+01  0.24290793410E+01  0.00000000000E+00 0. -1.
</event>
<event>
 5    1  0.4838219E+001  0.1553871E+01  0.7818608E-02  0.3405004E+00
         11   -1    0    0    0    0  0.00000000000E+00  0.00000000000E+00  0.39999999674E+01  0.40000000000E+01  0.51100000000E-03 0.  1.
    9000002   -1    0    0    0    0 -0.00000000000E+00 -0.00000000000E+00  0.00000000000E+00  0.93800000000E+00  0.93800000000E+00 0.  1.
         11    1    1    2    0    0  0.19394293975E+00 -0.13892091960E+00  0.11111666176E+01  0.11364877470E+01  0.51100000000E-03 0.  1.
    9000002    1    1    2    0    0 -0.57615414356E-01 -0.35502841536E-01  0.37069405431E-01  0.94116849105E+00  0.93800000000E+00 0.  1.
         22    1    1    2    0    0 -0.13632752539E+00  0.17442376114E+00  0.28517639443E+01  0.28603437620E+01  0.00000000000E+00 0.  1.
</event>
<event>
 5    1  0.4838219E+001  0.1531731E+01  0.7818608E-02  0.3430966E+00
         11   -1    0    0    0    0  0.00000000000E+00  0.00000000000E+00  0.39999999674E+01  0.40000000000E+01  0.51100000000E-03 0. -1.
    9000002   -1    0    0    0    0 -0.00000000000E+00 -0.00000000000E+00  0.00000000000E+00  0.93800000000E+00  0.93800000000E+00 0.  1.
         11    1    1    2    0    0 -0.13471017170E+00  0.26299967687E+00  0.10464125755E+01  0.10873339872E+01  0.51100000000E-03 0. -1.
    9000002    1    1    2    0    0  0.19692697919E-01 -0.62932467663E-01  0.53951581968E-01  0.94186149249E+00  0.93800000000E+00 0.  1.
         22    1    1    2    0    0  0.11501747378E+00 -0.20006720921E+00  0.28996358099E+01  0.29088045204E+01  0.00000000000E+00 0. -1.
</event>
<event>
 5    1  0.4838219E+001  0.1577073E+01  0.7818608E-02  0.3378630E+00
         11   -1    0    0    0    0  0.00000000000E+00  0.00000000000E+00  0.39999999674E+01  0.40000000000E+01  0.51100000000E-03 0.  1.
    9000002   -1    0    0    0    0 -0.00000000000E+00 -0.00000000000E+00  0.00000000000E+00  0.93800000000E+00  0.93800000000E+00 0. -1.
         11    1    1    2    0    0  0.10892145654E-01  0.11409920696E+00  0.60997897101E+00  0.62065439180E+00  0.51100000000E-03 0.  1.
    9000002    1    1    2    0    0 -0.39286800074E-01  0.10722162662E+00  0.25330867313E-01  0.94526482147E+00  0.93800000000E+00 0. -1.
         22    1    1    2    0    0  0.28394654420E-01 -0.22132083358E+00  0.33646901290E+01  0.33720807867E+01  0.00000000000E+00 0.  1.
</event>
<event>
 5    1  0.4838219E+001  0.1567418E+01  0.7818608E-02  0.3389504E+00
         11   -1    0    0    0    0  0.00000000000E+00  0.00000000000E+00  0.39999999674E+01  0.40000000000E+01  0.51100000000E-03 0. -1.
    9000002   -1    0    0    0    0 -0.00000000000E+00 -0.00000000000E+00  0.00000000000E+00  0.93800000000E+00  0.93800000000E+00 0. -1.
         11    1    1    2    0    0  0.75932096541E-01 -0.14645623870E+00  0.10447018300E+01  0.10576470526E+01  0.51100000000E-03 0. -1.
    9000002    1    1    2    0    0  0.14449868892E+00 -0.23514877275E-01  0.38325247431E-01  0.95012927812E+00  0.93800000000E+00 0. -1.
         22    1    1    2    0    0 -0.22043078546E+00  0.16997111597E+00  0.29169728899E+01  0.29302236693E+01  0.00000000000E+00 0. -1.
</event>
<event>
 5    1  0.6528977E+001  0.1564892E+01  0.7818608E-02  0.3392372E+00
         11   -1    0    0    0    0  0.00000000000E+00  0.00000000000E+00  0.39999999674E+01  0.40000000000E+01  0.51100000000E-03 0. -1.
    9000002   -1    0    0    0    0 -0.00000000000E+00 -0.00000000000E+00  0.00000000000E+00  0.93800000000E+00  0.93800000000E+00 0.  1.
         11    1    1    2    0    0 -0.20832163140E+00  0.98851829109E-01  0.17294635777E+01  0.17447676389E+01  0.51100000000E-03 0. -1.
    9000002    1    1    2    0    0 -0.21981563280E-03 -0.47715825670E-01  0.27161851674E-01  0.93960556327E+00  0.93800000000E+00 0.  1.
         22    1    1    2    0    0  0.20854144703E+00 -0.51136003440E-01  0.22433745380E+01  0.22536267978E+01  0.00000000000E+00 0. -1.
</event>
<event>
 5    1  0.4838219E+001  0.1558229E+01  0.7818608E-02  0.3399986E+00
         11   -1    0    0    0    0  0.00000000000E+00  0.00000000000E+00  0.39999999674E+01  0.40000000000E+01  0.51100000000E-03 0. -1.
    9000002   -1    0    0    0    0 -0.00000000000E+00 -0.00000000000E+00  0.00000000000E+00  0.93800000000E+00  0.93800000000E+00 0.  1.
         11    1    1    2    0    0 -0.10138586841E+00 -0.12776939525E+00  0.31116412363E+01  0.31159132782E+01  0.51100000000E-03 0. -1.
    9000002    1    1    2    0    0 -0.72619510729E-01  0.22483489295E-02  0.34240143233E-01  0.94143243827E+00  0.93800000000E+00 0.  1.
         22    1    1    2    0    0  0.17400537914E+00  0.12552104632E+00  0.85411858780E+00  0.88065428351E+00  0.00000000000E+00 0. -1.
</event>
<event>
 5    1  0.4838219E+001  0.1518979E+01  0.7818608E-02  0.3446286E+00
         11   -1    0    0    0    0  0.00000000000E+00  0.00000000000E+00  0.39999999674E+01  0.40000000000E+01  0.51100000000E-03 0. -1.
    9000002   -1    0    0    0    0 -0.00000000000E+00 -0.00000000000E+00  0.00000000000E+00  0.93800000000E+00  0.93800000000E+00 0.  1.
         11    1    1    2    0    0 -0.26213052091E+00 -0.41997951752E+00  0.24693047189E+01  0.25184442144E+01  0.51100000000E-03 0. -1.
    9000002    1    1    2    0    0  0.14009911067E+00  0.22057539511E+00  0.11017917088E+00  0.97993097483E+00  0.93800000000E+00 0.  1.
         22    1    1    2    0    0  0.12203141024E+00  0.19940412241E+00  0.14205160776E+01  0.14396248108E+01  0.00000000000E+00 0.  1.
</event>
<event>
 5    1  0.4838219E+001  0.1559498E+01  0.7818608E-02  0.3398532E+00
         11   -1    0    0    0    0  0.00000000000E+00  0.00000000000E+00  0.39999999674E+01  0.40000000000E+01  0.51100000000E-03 0. -1.
    9000002   -1    0    0    0    0 -0.00000000000E+00 -0.00000000000E+00  0.00000000000E+00  0.93800000000E+00  0.93800000000E+00 0.  1.
         11    1    1    2    0    0 -0.32638822369E+00 -0.14561939368E+00  0.11160573698E+01  0.11718867668E+01  0.51100000000E-03 0. -1.
    9000002    1    1    2    0    0  0.51179067272E+00  0.26502363648E-01  0.21774039196E+00  0.10908193921E+01  0.93800000000E+00 0.  1.
         22    1    1    2    0    0 -0.18540244903E+00  0.11911703003E+00  0.26662022056E+01  0.26752938411E+01  0.00000000000E+00 0. -1.
</event>
<event>
 5    1  0.4838219E+001  0.1550460E+01  0.7818608E-02  0.3408952E+00
         11   -1    0    0    0    0  0.00000000000E+00  0.00000000000E+00  0.39999999674E+01  0.40000000000E+01  0.51100000000E-03 0. -1.
    9000002   -1    0    0    0    0 -0.00000000000E+00 -0.00000000000E+00  0.00000000000E+00  0.93800000000E+00  0.93800000000E+00 0. -1.
         11    1    1    2    0    0 -0.16710659409E+00  0.11326357339E+00  0.32418412866E+01  0.32481207551E+01  0.51100000000E-03 0. -1.
    9000002    1    1    2    0    0 -0.20178726295E-01 -0.20934759292E-01  0.37087046446E-01  0.93918309938E+00  0.93800000000E+00 0. -1.
         22    1    1    2    0    0  0.18728532039E+00 -0.92328814098E-01  0.72107163431E+00  0.75069614555E+00  0.00000000000E+00 0. -1.
</event>
<event>
 5    1  0.4838219E+001  0.1589121E+01  0.7818608E-02  0.3365256E+00
         11   -1    0    0    0    0  0.00000000000E+00  0.00000000000E+00  0.39999999674E+01  0.40000000000E+01  0.51100000000E-03 0. -1.
    9000002   -1    0    0    0    0 -0.00000000000E+00 -0.00000000000E+00  0.00000000000E+00  0.93800000000E+00  0.93800000000E+00 0. -1.
         11    1    1    2    0    0  0.13852652138E-01 -0.71558671223E-01  0.15113953390E+01  0.15131518996E+01  0.51100000000E-03 0. -1.
    9000002    1    1    2    0    0  0.13258226164E+00 -0.78500713154E-01  0.23518662837E-01  0.95086147549E+00  0.93800000000E+00 0. -1.
         22    1    1    2    0    0 -0.14643491377E+00  0.15005938438E+00  0.24650859655E+01  0.24739866249E+01  0.00000000000E+00 0. -1.
</event>
<event>
 5    1  0.4838219E+001  0.1526855E+01  0.7818608E-02  0.3436791E+00
         11   -1    0    0    0    0  0.00000000000E+00  0.00000000000E+00  0.39999999674E+01  0.40000000000E+01  0.51100000000E-03 0.  1.
    9000002   -1    0    0    0    0 -0.00000000000E+00 -0.00000000000E+00  0.00000000000E+00  0.93800000000E+00  0.93800000000E+00 0. -1.
         11    1    1    2    0    0  0.21508682251E+00 -0.27888445703E+00  0.15500399576E+01  0.15895480530E+01  0.51100000000E-03 0.  1.
    9000002    1    1    2    0    0 -0.10099996750E+00  0.35160561324E-01  0.62790930545E-01  0.94616275527E+00  0.93800000000E+00 0. -1.
         22    1    1    2    0    0 -0.11408685500E+00  0.24372389571E+00  0.23871690792E+01  0.24022891917E+01  0.00000000000E+00 0. -1.
</event>
<event>
 5    1  0.4838219E+001  0.1451441E+01  0.7818608E-02  0.3532275E+00
         11   -1    0    0    0    0  0.00000000000E+00  0.00000000000E+00  0.39999999674E+01  0.40000000000E+01  0.51100000000E-03 0. -1.
    9000002   -1    0    0    0    0 -0.00000000000E+00 -0.00000000000E+00  0.00000000000E+00  0.93800000000E+00  0.93800000000E+00 0. -1.
         11    1    1    2    0    0 -0.18884336282E+00 -0.47497443186E+00  0.20636409262E+01  0.21260001552E+01  0.51100000000E-03 0. -1.
    9000002    1    1    2    0    0  0.13365613498E+00  0.52377343597E-01  0.13207926562E+00  0.95806903767E+00  0.93800000000E+00 0. -1.
         22    1    1    2    0    0  0.55187227835E-01  0.42259708826E+00  0.18042797755E+01  0.18539308071E+01  0.00000000000E+00 0. -1.
</event>
<event>
 5    1  0.4838219E+001  0.1547697E+01  0.7818608E-02  0.3412164E+00
         11   -1    0    0    0    0  0.00000000000E+00  0.00000000000E+00  0.39999999674E+01  0.40000000000E+01  0.51100000000E-03 0.  1.
    9000002   -1    0    0    0    0 -0.00000000000E+00 -0.00000000000E+00  0.00000000000E+00  0.93800000000E+00  0.93800000000E+00 0. -1.
         11    1    1    2    0    0  0.23269831934E+00 -0.57206597085E-01  0.10349420566E+01  0.10623212434E+01  0.51100000000E-03 0.  1.
    9000002    1    1    2    0    0 -0.36041478136E-01 -0.13695200754E+00  0.52544800176E-01  0.95008409972E+00  0.93800000000E+00 0. -1.
         22    1    1    2    0    0 -0.19665684120E+00  0.19415860463E+00  0.29125131106E+01  0.29255946569E+01  0.00000000000E+00 0.  1.
</event>
<event>
 5    1  0.4838219E+001  0.1557603E+01  0.7818608E-02  0.3400705E+00
         11   -1    0    0    0    0  0.00000000000E+00  0.00000000000E+00  0.39999999674E+01  0.40000000000E+01  0.51100000000E-03 0.  1.
    9000002   -1    0    0    0    0 -0.00000000000E+00 -0.00000000000E+00  0.00000000000E+00  0.93800000000E+00  0.93800000000E+00 0. -1.
         11    1    1    2    0    0 -0.10508259820E+00  0.10714607209E+00  0.48605835545E+00  0.50869993044E+00  0.51100000000E-03 0.  1.
    9000002    1    1    2    0    0 -0.25575623647E-02  0.14115708300E+00  0.44804301942E-01  0.94962270859E+00  0.93800000000E+00 0. -1.
         22    1    1    2    0    0  0.10764016056E+00 -0.24830315509E+00  0.34691373100E+01  0.34796773610E+01  0.00000000000E+00 0.  1.
</event>
<event>
 5    1  0.7178898E+001  0.1562409E+01  0.7818608E-02  0.3395202E+00
         11   -1    0    0    0    0  0.00000000000E+00  0.00000000000E+00  0.39999999674E+01  0.40000000000E+01  0.51100000000E-03 0.  1.
    9000002   -1    0    0    0    0 -0.00000000000E+00 -0.00000000000E+00  0.00000000000E+00  0.93800000000E+00  0.93800000000E+00 0. -1.
         11    1    1    2    0    0  0.17463375312E+00  0.15159261566E+00  0.24327904530E+01  0.24437567224E+01  0.51100000000E-03 0.  1.
    9000002    1    1    2    0    0  0.16602477696E-01 -0.33990018412E-01  0.28450869007E-01  0.93919349208E+00  0.93800000000E+00 0. -1.
         22    1    1    2    0    0 -0.19123623082E+00 -0.11760259725E+00  0.15387586453E+01  0.15550497855E+01  0.00000000000E+00 0.  1.
</event>
<event>
 5    1  0.4838219E+001  0.1521727E+01  0.7818608E-02  0.3442961E+00
         11   -1    0    0    0    0  0.00000000000E+00  0.00000000000E+00  0.39999999674E+01  0.40000000000E+01  0.51100000000E-03 0.  1.
    9000002   -1    0    0    0    0 -0.00000000000E+00 -0.00000000000E+00  0.00000000000E+00  0.93800000000E+00  0.93800000000E+00 0.  1.
         11    1    1    2    0    0 -0.85006957803E-01 -0.15433606011E+00  0.34438147377E+01  0.34483193024E+01  0.51100000000E-03 0.  1.
    9000002    1    1    2    0    0  0.85081332178E-01 -0.81954428329E-01  0.68645766167E-01  0.94789851916E+00  0.93800000000E+00 0.  1.
         22    1    1    2    0    0 -0.74374375404E-04  0.23629048844E+00  0.48753946350E+00  0.54178217849E+00  0.00000000000E+00 0.  1.
</event>
<event>
 5    1  0.4838219E+001  0.1487403E+01  0.7818608E-02  0.3485437E+00
         11   -1    0    0    0    0  0.00000000000E+00  0.00000000000E+00  0.39999999674E+01  0.40000000000E+01  0.51100000000E-03 0. -1.
    9000002   -1    0    0    0    0 -0.00000000000E+00 -0.00000000000E+00  0.00000000000E+00  0.93800000000E+00  0.93800000000E+00 0.  1.
         11    1    1    2    0    0  0.87711293387E-01  0.48454406312E+00  0.72694477262E+00  0.87802345280E+00  0.51100000000E-03 0. -1.
    9000002    1    1    2    0    0  0.39199076895E-01 -0.32076420005E+00  0.24113894570E+00  0.10209888495E+01  0.93800000000E+00 0.  1.
         22    1    1    2    0    0 -0.12691037028E+00 -0.16377986307E+00  0.30319162490E+01  0.30389876977E+01  0.00000000000E+00 0. -1.
</event>
<event>
 5    1  0.4838219E+001  0.1594808E+01  0.7818608E-02  0.3359018E+00
         11   -1    0    0    0    0  0.00000000000E+00  0.00000000000E+00  0.39999999674E+01  0.40000000000E+01  0.51100000000E-03 0.  1.
    9000002   -1    0    0    0    0 -0.00000000000E+00 -0.00000000000E+00  0.00000000000E+00  0.93800000000E+00  0.93800000000E+00 0.  1.
         11    1    1    2    0    0 -0.49060794070E-01 -0.70104014175E-01  0.14517194809E+01  0.14542390611E+01  0.51100000000E-03 0.  1.
    9000002    1    1    2    0    0  0.24860625923E+00  0.27607006091E-02  0.44785122711E-01  0.97142287435E+00  0.93800000000E+00 0.  1.
         22    1    1    2    0    0 -0.19954546516E+00  0.67343313566E-01  0.25034953637E+01  0.25123380646E+01  0.00000000000E+00 0.  1.
</event>
<event>
 5    1  0.4838219E+001  0.1564217E+01  0.7818608E-02  0.3393141E+00
         11   -1    0    0    0    0  0.00000000000E+00  0.00000000000E+00  0.39999999674E+01  0.40000000000E+01  0.51100000000E-03 0.  1.
    9000002   -1    0    0    0    0 -0.00000000000E+00 -0.00000000000E+00  0.00000000000E+00  0.93800000000E+00  0.93800000000E+00 0.  1.
         11    1    1    2    0    0 -0.13059277493E+00  0.96098580561E-01  0.39380611843E+00  0.42587900873E+00  0.51100000000E-03 0.  1.
    9000002    1    1    2    0    0  0.33159292815E+00  0.39326094358E-01  0.10347288372E+00  0.10010249994E+01  0.93800000000E+00 0.  1.
         22    1    1    2    0    0 -0.20100015322E+00 -0.13542467492E+00  0.35027209652E+01  0.35110959919E+01  0.00000000000E+00 0.  1.
</event>
<event>
 5    1  0.4838219E+001  0.1595042E+01  0.7818608E-02  0.3358762E+00
         11   -1    0    0    0    0  0.00000000000E+00  0.00000000000E+00  0.39999999674E+01  0.40000000000E+01  0.51100000000E-03 0. -1.
    9000002   -1    0    0    0    0 -0.00000000000E+00 -0.00000000000E+00  0.00000000000E+00  0.93800000000E+00  0.93800000000E+00 0.  1.
         11    1    1    2    0    0 -0.16668803258E+00 -0.72499424798E-02  0.12894843042E+01  0.13002336304E+01  0.51100000000E-03 0. -1.
    9000002    1    1    2    0    0  0.60221467666E+00  0.21062730374E+00  0.29122679237E+00  0.11711888927E+01  0.93800000000E+00 0. -1.
         22    1    1    2    0    0 -0.43552664409E+00 -0.20337736126E+00  0.24192888708E+01  0.24665774768E+01  0.00000000000E+00 0. -1.
</event>
<event>
 5    1  0.4838219E+001  0.1470445E+01  0.7818608E-02  0.3507214E+00
         11   -1    0    0    0    0  0.00000000000E+00  0.00000000000E+00  0.39999999674E+01  0.40000000000E+01  0.51100000000E-03 0. -1.
    9000002   -1    0    0    0    0 -0.00000000000E+00 -0.00000000000E+00  0.00000000000E+00  0.93800000000E+00  0.93800000000E+00 0. -1.
         11    1    1    2    0    0 -0.15410309184E+00 -0.20689953713E+00  0.21856218762E+00  0.33811961250E+00  0.51100000000E-03 0. -1.
    9000002    1    1    2    0    0 -0.37085106121E+00  0.23136377941E+00  0.29782143791E+00  0.10768478615E+01  0.93800000000E+00 0. -1.
         22    1    1    2    0    0  0.52495415304E+00 -0.24464242285E-01  0.34836163418E+01  0.35230325260E+01  0.00000000000E+00 0. -1.
</event>
<event>
 5    1  0.4838219E+001  0.1512701E+01  0.7818608E-02  0.3453930E+00
         11   -1    0    0    0    0  0.00000000000E+00  0.00000000000E+00  0.39999999674E+01  0.40000000000E+01  0.51100000000E-03 0.  1.
    9000002   -1    0    0    0    0 -0.00000000000E+00 -0.00000000000E+00  0.00000000000E+00  0.93800000000E+00  0.93800000000E+00 0.  1.
         11    1    1    2    0    0 -0.14653966737E+00 -0.24810371338E+00  0.11720330754E+01  0.12069345955E+01  0.51100000000E-03 0.  1.
    9000002    1    1    2    0    0 -0.75321031435E-01 -0.99442166023E-01  0.77018300341E-01  0.94938812966E+00  0.93800000000E+00 0.  1.
         22    1    1    2    0    0  0.22186069880E+00  0.34754587941E+00  0.27509485916E+01  0.27816772749E+01  0.00000000000E+00 0.  1.
</event>
<event>
 5    1  0.4838219E+001  0.1535923E+01  0.7818608E-02  0.3425988E+00
         11   -1    0    0    0    0  0.00000000000E+00  0.00000000000E+00  0.39999999674E+01  0.40000000000E+01  0.51100000000E-03 0. -1.
    9000002   -1    0    0    0    0 -0.00000000000E+00 -0.00000000000E+00  0.00000000000E+00  0.93800000000E+00  0.93800000000E+00 0. -1.
         11    1    1    2    0    0  0.44088311355E-01  0.25971592620E+00  0.61697058939E+00  0.67085699729E+00  0.51100000000E-03 0. -1.
    9000002    1    1    2    0    0  0.23266278012E+00 -0.29777771074E+00  0.15030333761E+00  0.10223691249E+01  0.93800000000E+00 0. -1.
         22    1    1    2    0    0 -0.27675109147E+00  0.38061784533E-01  0.32327260404E+01  0.32447738778E+01  0.00000000000E+00 0. -1.
</event>
<event>
 5    1  0.4838219E+001  0.1566611E+01  0.7818608E-02  0.3390420E+00
         11   -1    0    0    0    0  0.00000000000E+00  0.00000000000E+00  0.39999999674E+01  0.40000000000E+01  0.51100000000E-03 0.  1.
    9000002   -1    0    0    0    0 -0.00000000000E+00 -0.00000000000E+00  0.00000000000E+00  0.93800000000E+00  0.93800000000E+00 0. -1.
         11    1    1    2    0    0  0.17953266846E+00 -0.20957219533E-01  0.22341875034E+01  0.22414872842E+01  0.51100000000E-03 0.  1.
    9000002    1    1    2    0    0  0.66872800293E-01  0.43029512786E-01  0.28626716239E-01  0.94179987220E+00  0.93800000000E+00 0. -1.
         22    1    1    2    0    0 -0.24640546875E+00 -0.22072293253E-01  0.17371857478E+01  0.17547128436E+01  0.00000000000E+00 0.  1.
</event>
<event>
 5    1  0.4838219E+001  0.1551778E+01  0.7818608E-02  0.3407425E+00
         11   -1    0    0    0    0  0.00000000000E+00  0.00000000000E+00  0.39999999674E+01  0.40000000000E+01  0.51100000000E-03 0.  1.
    9000002   -1    0    0    0    0 -0.00000000000E+00 -0.00000000000E+00  0.00000000000E+00  0.93800000000E+00  0.93800000000E+00 0. -1.
         11    1    1    2    0    0 -0.18866265569E-01  0.27100186215E+00  0.13288870629E+01  0.13563697993E+01  0.51100000000E-03 0.  1.
    9000002    1    1    2    0    0 -0.51750860582E-01 -0.72890338702E-01  0.41021261081E-01  0.94314256447E+00  0.93800000000E+00 0. -1.
         22    1    1    2    0    0  0.70617126151E-01 -0.19811152345E+00  0.26300916434E+01  0.26384876363E+01  0.00000000000E+00 0.  1.
</event>
<event>
 5    1  0.4838219E+001  0.1562417E+01  0.7818608E-02  0.3395192E+00
         11   -1    0    0    0    0  0.00000000000E+00  0.00000000000E+00  0.39999999674E+01  0.40000000000E+01  0.51100000000E-03 0.  1.
    9000002   -1    0    0    0    0 -0.00000000000E+00 -0.00000000000E+00  0.00000000000E+00  0.93800000000E+00  0.93800000000E+00 0.  1.
         11    1    1    2    0    0 -0.12931903018E+00 -0.19951733736E+00  0.21789115544E+01  0.21918454331E+01  0.51100000000E-03 0.  1.
    9000002    1    1    2    0    0  0.91057016388E-01 -0.32017957340E-01  0.33834971831E-01  0.94355992663E+00  0.93800000000E+00 0.  1.
         22    1    1    2    0    0  0.38262013795E-01  0.23153529470E+00  0.17872534411E+01  0.18025946403E+01  0.00000000000E+00 0.  1.
</event>
<event>
 5    1  0.4838219E+001  0.1447563E+01  0.7818608E-02  0.3537477E+00
         11   -1    0    0    0    0  0.00000000000E+00  0.00000000000E+00  0.39999999674E+01  0.40000000000E+01  0.51100000000E-03 0.  1.
    9000002   -1    0    0    0    0 -0.00000000000E+00 -0.00000000000E+00  0.00000000000E+00  0.93800000000E+00  0.93800000000E+00 0. -1.
         11    1    1    2    0    0 -0.68116626032E+00  0.17038408530E-01  0.15820036544E+01  0.17225021350E+01  0.51100000000E-03 0.  1.
    9000002    1    1    2    0    0  0.50693078188E+00 -0.28325324306E+00  0.40140138289E+00  0.11739583841E+01  0.93800000000E+00 0. -1.
         22    1    1    2    0    0  0.17423547845E+00  0.26621483453E+00  0.20165949301E+01  0.20415394809E+01  0.00000000000E+00 0.  1.
</event>
<event>
 5    1  0.4838219E+001  0.1562901E+01  0.7818608E-02  0.3394640E+00
         11   -1    0    0    0    0  0.00000000000E+00  0.00000000000E+00  0.39999999674E+01  0.40000000000E+01  0.51100000000E-03 0. -1.
    9000002   -1    0    0    0    0 -0.00000000000E+00 -0.00000000000E+00  0.00000000000E+00  0.93800000000E+00  0.93800000000E+00 0. -1.
         11    1    1    2    0    0 -0.12686650984E+00 -0.10817083346E+00  0.61359429502E+00  0.63584138001E+00  0.51100000000E-03 0. -1.
    9000002    1    1    2    0    0  0.13315251077E+00 -0.14265353442E+00  0.53238369956E-01  0.95956133001E+00  0.93800000000E+00 0. -1.
         22    1    1    2    0    0 -0.62860009306E-02  0.25082436788E+00  0.33331673024E+01  0.33425972900E+01  0.00000000000E+00 0. -1.
</event>
<event>
 5    1  0.4838219E+001  0.1448263E+01  0.7818608E-02  0.3536535E+00
         11   -1    0    0    0    0  0.00000000000E+00  0.00000000000E+00  0.39999999674E+01  0.40000000000E+01  0.51100000000E-03 0.  1.
    9000002   -1    0    0    0    0 -0.00000000000E+00 -0.00000000000E+00  0.00000000000E+00  0.93800000000E+00  0.93800000000E+00 0. -1.
         11    1    1    2    0    0 -0.20014949856E+00  0.56992985376E+00  0.25850797240E+01  0.26547160489E+01  0.51100000000E-03 0.  1.
    9000002    1    1    2    0    0 -0.77996494710E-02 -0.27013873731E+00  0.17617611913E+00  0.99192630617E+00  0.93800000000E+00 0. -1.
         22    1    1    2    0    0  0.20794914803E+00 -0.29979111645E+00  0.12387441243E+01  0.12913576449E+01  0.00000000000E+00 0. -1.
</event>
<event>
 5    1  0.4838219E+001  0.1499237E+01  0.7818608E-02  0.3470556E+00
         11   -1    0    0    0    0  0.00000000000E+00  0.00000000000E+00  0.39999999674E+01  0.40000000000E+01  0.51100000000E-03 0. -1.
    9000002   -1    0    0    0    0 -0.00000000000E+00 -0.00000000000E+00  0.00000000000E+00  0.93800000000E+00  0.93800000000E+00 0.  1.
         11    1    1    2    0    0  0.21327226504E+00  0.20398922383E+00  0.76227085356E+00  0.81740673951E+00  0.51100000000E-03 0. -1.
    9000002    1    1    2    0    0  0.44905597605E-01  0.23085046346E-01  0.78415598859E-01  0.94262529046E+00  0.93800000000E+00 0.  1.
         22    1    1    2    0    0 -0.25817786264E+00 -0.22707427018E+00  0.31593135149E+01  0.31779679700E+01  0.00000000000E+00 0. -1.
</event>
<event>
 5    1  0.4838219E+001  0.1558434E+01  0.7818608E-02  0.3399751E+00
         11   -1    0    0    0    0  0.00000000000E+00  0.00000000000E+00  0.39999999674E+01  0.40000000000E+01  0.51100000000E-03 0.  1.
    9000002   -1    0    0    0    0 -0.00000000000E+00 -0.00000000000E+00  0.00000000000E+00  0.93800000000E+00  0.93800000000E+00 0.  1.
         11    1    1    2    0    0  0.28443194468E+00  0.25227063120E-01  0.23419614882E+01  0.23593053658E+01  0.51100000000E-03 0.  1.
    9000002    1    1    2    0    0 -0.97181637785E-01 -0.17516547345E+00  0.58139342839E-01  0.96091175297E+00  0.93800000000E+00 0.  1.
         22    1    1    2    0    0 -0.18725030689E+00  0.14993841033E+00  0.15998991363E+01  0.16177828812E+01  0.00000000000E+00 0. -1.
</event>
<event>
 5    1  0.4838219E+001  0.1563397E+01  0.7818608E-02  0.3394075E+00
         11   -1    0    0    0    0  0.00000000000E+00  0.00000000000E+00  0.39999999674E+01  0.40000000000E+01  0.51100000000E-03 0.  1.
    9000002   -1    0    0    0    0 -0.00000000000E+00 -0.00000000000E+00  0.00000000000E+00  0.93800000000E+00  0.93800000000E+00 0.  1.
         11    1    1    2    0    0 -0.19899843989E+00 -0.51016281631E-01  0.90046695687E+00  0.92360383369E+00  0.51100000000E-03 0.  1.
    9000002    1    1    2    0    0  0.25552317183E-01  0.24740933690E+00  0.69334319875E-01  0.97289030667E+00  0.93800000000E+00 0.  1.
         22    1    1    2    0    0  0.17344612270E+00 -0.19639305527E+00  0.30301986906E+01  0.30415058596E+01  0.00000000000E+00 0.  1.
</event>
<event>
 5    1  0.4838219E+001  0.1538966E+01  0.7818608E-02  0.3422394E+00
         11   -1    0    0    0    0  0.00000000000E+00  0.00000000000E+00  0.39999999674E+01  0.40000000000E+01  0.51100000000E-03 0.  1.
    9000002   -1    0    0    0    0 -0.00000000000E+00 -0.00000000000E+00  0.00000000000E+00  0.93800000000E+00  0.93800000000E+00 0.  1.
         11    1    1    2    0    0  0.28999571577E+00 -0.10698877968E+00  0.18051576295E+01  0.18314307092E+01  0.51100000000E-03 0.  1.
    9000002    1    1    2    0    0 -0.29376747970E-02  0.96359743562E-01  0.51802169588E-01  0.94436290423E+00  0.93800000000E+00 0.  1.
         22    1    1    2    0    0 -0.28705804097E+00  0.10629036113E-01  0.21430401683E+01  0.21622063866E+01  0.00000000000E+00 0.  1.
</event>
<event>
 5    1  0.4838219E+001  0.1567047E+01  0.7818608E-02  0.3389925E+00
         11   -1    0    0    0    0  0.00000000000E+00  0.00000000000E+00  0.39999999674E+01  0.40000000000E+01  0.51100000000E-03 0. -1.
    9000002   -1    0    0    0    0 -0.00000000000E+00 -0.00000000000E+00  0.00000000000E+00  0.93800000000E+00  0.93800000000E+00 0. -1.
         11    1    1    2    0    0 -0.79967008330E-01 -0.80083160958E-01  0.20028365057E+00  0.23004746662E+00  0.51100000000E-03 0. -1.
    9000002    1    1    2    0    0 -0.79879495242E-01  0.47418340992E+00  0.18729790213E+00  0.10705863553E+01  0.93800000000E+00 0. -1.
         22    1    1    2    0    0  0.15984650357E+00 -0.39410024896E+00  0.36124184147E+01  0.36373661781E+01  0.00000000000E+00 0. -1.
</event>
<event>
 5    1  0.4838219E+001  0.1524091E+01  0.7818608E-02  0.3440111E+00
         11   -1    0    0    0    0  0.00000000000E+00  0.00000000000E+00  0.39999999674E+01  0.40000000000E+01  0.51100000000E-03 0. -1.
    9000002   -1    0    0    0    0 -0.00000000000E+00 -0.00000000000E+00  0.00000000000E+00  0.93800000000E+00  0.93800000000E+00 0. -1.
         11    1    1    2    0    0 -0.20614902766E+00  0.18601897686E+00  0.10086097996E+01  0.10461331035E+01  0.51100000000E-03 0. -1.
    9000002    1    1    2    0    0 -0.13329783435E-01  0.54459617332E-01  0.59071561230E-01  0.94152906614E+00  0.93800000000E+00 0. -1.
         22    1    1    2    0    0  0.21947881109E+00 -0.24047859419E+00  0.29323186065E+01  0.29503378303E+01  0.00000000000E+00 0. -1.
</event>
<event>
 5    1  0.4838219E+001  0.1484185E+01  0.7818608E-02  0.3489528E+00
         11   -1    0    0    0    0  0.00000000000E+00  0.00000000000E+00  0.39999999674E+01  0.40000000000E+01  0.51100000000E-03 0. -1.
    9000002   -1    0    0    0    0 -0.00000000000E+00 -0.00000000000E+00  0.00000000000E+00  0.93800000000E+00  0.93800000000E+00 0.  1.
         11    1    1    2    0    0  0.11534343742E+00  0.75981161781E-01  0.27397108149E+01  0.27431902698E+01  0.51100000000E-03 0. -1.
    9000002    1    1    2    0    0  0.33222922298E+00  0.69120805076E-01  0.17608933005E+00  0.10129192438E+01  0.93800000000E+00 0.  1.
         22    1    1    2    0    0 -0.44757266040E+00 -0.14510196686E+00  0.10841998224E+01  0.11818904864E+01  0.00000000000E+00 0. -1.
</event>
<event>
 5    1  0.4838219E+001  0.1591497E+01  0.7818608E-02  0.3362644E+00
         11   -1    0    0    0    0  0.00000000000E+00  0.00000000000E+00  0.39999999674E+01  0.40000000000E+01  0.51100000000E-03 0. -1.
    9000002   -1    0    0    0    0 -0.00000000000E+00 -0.00000000000E+00  0.00000000000E+00  0.93800000000E+00  0.93800000000E+00 0.  1.
         11    1    1    2    0    0 -0.13719381566E+00  0.23994578925E+00  0.18530327004E+01  0.18735331795E+01  0.51100000000E-03 0. -1.
    9000002    1    1    2    0    0  0.58592429305E-01 -0.49628732198E+00  0.17835238125E+00  0.10776770159E+01  0.93800000000E+00 0.  1.
         22    1    1    2    0    0  0.78601386353E-01  0.25634153273E+00  0.19686148858E+01  0.19867898046E+01  0.00000000000E+00 0. -1.
</event>
<event>
 5    1  0.4838219E+001  0.1524693E+01  0.7818608E-02  0.3439386E+00
         11   -1    0    0    0    0  0.00000000000E+00  0.00000000000E+00  0.39999999674E+01  0.40000000000E+01  0.51100000000E-03 0. -1.
    9000002   -1    0    0    0    0 -0.00000000000E+00 -0.00000000000E+00  0.00000000000E+00  0.93800000000E+00  0.93800000000E+00 0. -1.
         11    1    1    2    0    0  0.30166578411E+00 -0.16091786106E+00  0.23478604181E+01  0.23726242027E+01  0.51100000000E-03 0. -1.
    9000002    1    1    2    0    0 -0.90471513600E-01 -0.78717040361E-01  0.66595170092E-01  0.94797699545E+00  0.93800000000E+00 0. -1.
         22    1    1    2    0    0 -0.21119427051E+00  0.23963490142E+00  0.15855443791E+01  0.16173988018E+01  0.00000000000E+00 0. -1.
</event>
<event>
 5    1  0.4838219E+001  0.1558975E+01  0.7818608E-02  0.3399131E+00
         11   -1    0    0    0    0  0.00000000000E+00  0.00000000000E+00  0.39999999674E+01  0.40000000000E+01  0.51100000000E-03 0.  1.
    9000002   -1    0    0    0    0 -0.00000000000E+00 -0.00000000000E+00  0.00000000000E+00  0.93800000000E+00  0.93800000000E+00 0. -1.
         11    1    1    2    0    0  0.41316632998E-01  0.22536498426E+00  0.11458149238E+01  0.11684984129E+01  0.51100000000E-03 0.  1.
    9000002    1    1    2    0    0  0.71653336436E-01 -0.47616153232E-01  0.35131878889E-01  0.94259203667E+00  0.93800000000E+00 0. -1.
         22    1    1    2    0    0 -0.11296996943E+00 -0.17774883103E+00  0.28190531647E+01  0.28269095504E+01  0.00000000000E+00 0.  1.
</event>
<event>
 5    1  0.4838219E+001  0.1583723E+01  0.7818608E-02  0.3371221E+00
         11   -1    0    0    0    0  0.00000000000E+00  0.00000000000E+00  0.39999999674E+01  0.40000000000E+01  0.51100000000E-03 0.  1.
    9000002   -1    0    0    0    0 -0.00000000000E+00 -0.00000000000E+00  0.00000000000E+00  0.93800000000E+00  0.93800000000E+00 0.  1.
         11    1    1    2    0    0 -0.12063613343E+00  0.86175550668E-02  0.59481181986E+00  0.60698327910E+00  0.51100000000E-03 0.  1.
    9000002    1    1    2    0    0  0.12084665238E+00  0.19138381543E+00  0.46145742639E-01  0.96602541776E+00  0.93800000000E+00 0.  1.
         22    1    1    2    0    0 -0.21051895800E-03 -0.20000137050E+00  0.33590424049E+01  0.33649913031E+01  0.00000000000E+00 0.  1.
</event>
<event>
 5    1  0.4838219E+001  0.1542877E+01  0.7818608E-02  0.3417796E+00
         11   -1    0    0    0    0  0.00000000000E+00  0.00000000000E+00  0.39999999674E+01  0.40000000000E+01  0.51100000000E-03 0. -1.
    9000002   -1    0    0    0    0 -0.00000000000E+00 -0.00000000000E+00  0.00000000000E+00  0.93800000000E+00  0.93800000000E+00 0.  1.
         11    1    1    2    0    0  0.16174959367E+00 -0.17898788395E+00  0.23781872764E+01  0.23903921386E+01  0.51100000000E-03 0. -1.
    9000002    1    1    2    0    0  0.17097774499E-01 -0.72022081630E-01  0.46110242233E-01  0.94204547054E+00  0.93800000000E+00 0.  1.
         22    1    1    2    0    0 -0.17884736817E+00  0.25100996558E+00  0.15757024487E+01  0.16055623908E+01  0.00000000000E+00 0. -1.
</event>
<event>
 5    1  0.4838219E+001  0.1574087E+01  0.7818608E-02  0.3381978E+00
         11   -1    0    0    0    0  0.00000000000E+00  0.00000000000E+00  0.39999999674E+01  0.40000000000E+01  0.51100000000E-03 0.  1.
    9000002   -1    0    0    0    0 -0.00000000000E+00 -0.00000000000E+00  0.00000000000E+00  0.93800000000E+00  0.93800000000E+00 0. -1.
         11    1    1    2    0    0 -0.24594932626E+00  0.39092554400E-01  0.15104988064E+01  0.15308906571E+01  0.51100000000E-03 0.  1.
    9000002    1    1    2    0    0  0.17338498997E+00 -0.24569289987E+00  0.80643158404E-01  0.98831911587E+00  0.93800000000E+00 0. -1.
         22    1    1    2    0    0  0.72564336283E-01  0.20660034547E+00  0.24088580026E+01  0.24187902270E+01  0.00000000000E+00 0. -1.
</event>
<event>
 5    1  0.4838219E+001  0.1558694E+01  0.7818608E-02  0.3399453E+00
         11   -1    0    0    0    0  0.00000000000E+00  0.00000000000E+00  0.39999999674E+01  0.40000000000E+01  0.51100000000E-03 0.  1.
    9000002   -1    0    0    0    0 -0.00000000000E+00 -0.00000000000E+00  0.00000000000E+00  0.93800000000E+00  0.93800000000E+00 0.  1.
         11    1    1    2    0    0  0.23299198651E+00  0.90174133841E-01  0.10893720323E+01  0.11176530437E+01  0.51100000000E-03 0.  1.
    9000002    1    1    2    0    0 -0.18255648984E+00  0.10965165712E+00  0.61563686313E-01  0.96383839173E+00  0.93800000000E+00 0.  1.
         22    1    1    2    0    0 -0.50435496669E-01 -0.19982579096E+00  0.28490642487E+01  0.28565085645E+01  0.00000000000E+00 0. -1.
</event>
<event>
 5    1  0.4838219E+001  0.1574210E+01  0.7818608E-02  0.3381839E+00
         11   -1    0    0    0    0  0.00000000000E+00  0.00000000000E+00  0.39999999674E+01  0.40000000000E+01  0.51100000000E-03 0.  1.
    9000002   -1    0    0    0    0 -0.00000000000E+00 -0.00000000000E+00  0.00000000000E+00  0.93800000000E+00  0.93800000000E+00 0. -1.
         11    1    1    2    0    0  0.78431643940E-01  0.71861983516E-01  0.44822613842E+00  0.46067624176E+00  0.51100000000E-03 0.  1.
    9000002    1    1    2    0    0  0.16647732602E+00  0.16401837898E-01  0.37621854885E-01  0.95354240825E+00  0.93800000000E+00 0. -1.
         22    1    1    2    0    0 -0.24490896996E+00 -0.88263821414E-01  0.35141519741E+01  0.35237813500E+01  0.00000000000E+00 0.  1.
</event>
<event>
 5    1  0.4838219E+001  0.1596221E+01  0.7818608E-02  0.3357476E+00
         11   -1    0    0    0    0  0.00000000000E+00  0.00000000000E+00  0.39999999674E+01  0.40000000000E+01  0.51100000000E-03 0.  1.
    9000002   -1    0    0    0    0 -0.00000000000E+00 -0.00000000000E+00  0.00000000000E+00  0.93800000000E+00  0.93800000000E+00 0.  1.
         11    1    1    2    0    0  0.18844549740E+00  0.10090702090E+00  0.16806229699E+01  0.16941628494E+01  0.51100000000E-03 0.  1.
    9000002    1    1    2    0    0 -0.44056960778E+00 -0.70846749168E-01  0.13814707134E+00  0.10478785495E+01  0.93800000000E+00 0.  1.
         22    1    1    2    0    0  0.25212411039E+00 -0.30060271735E-01  0.21812299262E+01  0.21959586011E+01  0.00000000000E+00 0.  1.
</event>
<event>
 5    1  0.4838219E+001  0.1103042E+01  0.7818608E-02  0.4245388E+00
         11   -1    0    0    0    0  0.00000000000E+00  0.00000000000E+00  0.39999999674E+01  0.40000000000E+01  0.51100000000E-03 0.  1.
    9000002   -1    0    0    0    0 -0.00000000000E+00 -0.00000000000E+00  0.00000000000E+00  0.93800000000E+00  0.93800000000E+00 0. -1.
         11    1    1    2    0    0 -0.64645417302E+00 -0.45596663508E+00  0.28347512785E+01  0.29430636490E+01  0.51100000000E-03 0.  1.
    9000002    1    1    2    0    0  0.13273209162E+00  0.23352575779E-01  0.68024223178E+00  0.11665061701E+01  0.93800000000E+00 0. -1.
         22    1    1    2    0    0  0.51372208140E+00  0.43261405931E+00  0.48500645711E+00  0.82843018092E+00  0.00000000000E+00 0. -1.
</event>
<event>
 5    1  0.4838219E+001  0.1567005E+01  0.7818608E-02  0.3389973E+00
         11   -1    0    0    0    0  0.00000000000E+00  0.00000000000E+00  0.39999999674E+01  0.40000000000E+01  0.51100000000E-03 0. -1.
    9000002   -1    0    0    0    0 -0.00000000000E+00 -0.00000000000E+00  0.00000000000E+00  0.93800000000E+00  0.93800000000E+00 0.  1.
         11    1    1    2    0    0  0.31229192917E-01  0.20568297867E+00  0.17951612835E+01  0.18071759862E+01  0.51100000000E-03 0. -1.
    9000002    1    1    2    0    0  0.15596726295E+00 -0.32291291896E-01  0.41333378272E-01  0.95232397996E+00  0.93800000000E+00 0.  1.
         22    1    1    2    0    0 -0.18719645587E+00 -0.17339168677E+00  0.21635053055E+01  0.21785000338E+01  0.00000000000E+00 0. -1.
</event>
<event>
 5    1  0.4838219E+001  0.1568519E+01  0.7818608E-02  0.3388257E+00
         11   -1    0    0    0    0  0.00000000000E+00  0.00000000000E+00  0.39999999674E+01  0.40000000000E+01  0.51100000000E-03 0.  1.
    9000002   -1    0    0    0    0 -0.00000000000E+00 -0.00000000000E+00  0.00000000000E+00  0.93800000000E+00  0.93800000000E+00 0. -1.
         11    1    1    2    0    0  0.18206562601E+00 -0.91840125489E-01  0.21864547772E+01  0.21959433632E+01  0.51100000000E-03 0.  1.
    9000002    1    1    2    0    0 -0.99570877858E-02 -0.44155402891E-01  0.24289840097E-01  0.93940557776E+00  0.93800000000E+00 0. -1.
         22    1    1    2    0    0 -0.17210853822E+00  0.13599552838E+00  0.17892553501E+01  0.18026510590E+01  0.00000000000E+00 0.  1.
</event>
<event>
 5    1  0.4838219E+001  0.1576436E+01  0.7818608E-02  0.3379343E+00
         11   -1    0    0    0    0  0.00000000000E+00  0.00000000000E+00  0.39999999674E+01  0.40000000000E+01  0.51100000000E-03 0. -1.
    9000002   -1    0    0    0    0 -0.00000000000E+00 -0.00000000000E+00  0.00000000000E+00  0.93800000000E+00  0.93800000000E+00 0. -1.
         11    1    1    2    0    0 -0.18140430492E+00 -0.25598588927E-01  0.17507538124E+01  0.17603130353E+01  0.51100000000E-03 0. -1.
    9000002    1    1    2    0    0  0.31127202903E+00  0.44320033276E+00  0.22436780131E+00  0.11061201206E+01  0.93800000000E+00 0. -1.
         22    1    1    2    0    0 -0.12986772411E+00 -0.41760174383E+00  0.20248783537E+01  0.20715668441E+01  0.00000000000E+00 0. -1.
</event>
<event>
 5    1  0.4838219E+001  0.1540571E+01  0.7818608E-02  0.3420504E+00
         11   -1    0    0    0    0  0.00000000000E+00  0.00000000000E+00  0.39999999674E+01  0.40000000000E+01  0.51100000000E-03 0.  1.
    9000002   -1    0    0    0    0 -0.00000000000E+00 -0.00000000000E+00  0.00000000000E+00  0.93800000000E+00  0.93800000000E+00 0.  1.
         11    1    1    2    0    0  0.15775204898E+00  0.43760204742E+00  0.24079528476E+01  0.24524719036E+01  0.51100000000E-03 0.  1.
    9000002    1    1    2    0    0 -0.28863373296E+00 -0.24834725687E+00  0.14780684974E+00  0.10230721659E+01  0.93800000000E+00 0.  1.
         22    1    1    2    0    0  0.13088168398E+00 -0.18925479055E+00  0.14442402700E+01  0.14624559305E+01  0.00000000000E+00 0. -1.
</event>
<event>
 5    1  0.4838219E+001  0.1507660E+01  0.7818608E-02  0.3460118E+00
         11   -1    0    0    0    0  0.00000000000E+00  0.00000000000E+00  0.39999999674E+01  0.40000000000E+01  0.51100000000E-03 0. -1.
    9000002   -1    0    0    0    0 -0.00000000000E+00 -0.00000000000E+00  0.00000000000E+00  0.93800000000E+00  0.93800000000E+00 0. -1.
         11    1    1    2    0    0 -0.31528571490E+00  0.16060062967E+00  0.33334685162E+01  0.33521948413E+01  0.51100000000E-03 0. -1.
    9000002    1    1    2    0    0  0.13681132456E+00  0.13567302697E-01  0.83513035929E-01  0.95169314246E+00  0.93800000000E+00 0. -1.
         22    1    1    2    0    0  0.17847439034E+00 -0.17416793237E+00  0.58301841523E+00  0.63411201626E+00  0.00000000000E+00 0. -1.
</event>
<event>
 5    1  0.4838219E+001  0.1516864E+01  0.7818608E-02  0.3448854E+00
         11   -1    0    0    0    0  0.00000000000E+00  0.00000000000E+00  0.39999999674E+01  0.40000000000E+01  0.51100000000E-03 0.  1.
    9000002   -1    0    0    0    0 -0.00000000000E+00 -0.00000000000E+00  0.00000000000E+00  0.93800000000E+00  0.93800000000E+00 0. -1.
         11    1    1    2    0    0  0.33117553651E+00  0.29568354009E+00  0.33916117814E+01  0.34205462617E+01  0.51100000000E-03 0.  1.
    9000002    1    1    2    0    0 -0.32982960906E+00 -0.80945936827E-01  0.14676526212E+00  0.10083272573E+01  0.93800000000E+00 0. -1.
         22    1    1    2    0    0 -0.13459274459E-02 -0.21473760327E+00  0.46162292387E+00  0.50912648097E+00  0.00000000000E+00 0. -1.
</event>
<event>
 5    1  0.4838219E+001  0.1569265E+01  0.7818608E-02  0.3387413E+00
         11   -1    0    0    0    0  0.00000000000E+00  0.00000000000E+00  0.39999999674E+01  0.40000000000E+01  0.51100000000E-03 0. -1.
    9000002   -1    0    0    0    0 -0.00000000000E+00 -0.00000000000E+00  0.00000000000E+00  0.93800000000E+00  0.93800000000E+00 0. -1.
         11    1    1    2    0    0 -0.72388816691E-01 -0.30658000663E-01  0.15860317903E+00  0.17701774856E+00  0.51100000000E-03 0. -1.
    9000002    1    1    2    0    0 -0.13047720922E+00 -0.41214371129E-01  0.35070556301E-01  0.94857623333E+00  0.93800000000E+00 0. -1.
         22    1    1    2    0    0  0.20286602591E+00  0.71872371793E-01  0.38063262320E+01  0.38124060181E+01  0.00000000000E+00 0. -1.
</event>
<event>
 5    1  0.4838219E+001  0.1509431E+01  0.7818608E-02  0.3457939E+00
         11   -1    0    0    0    0  0.00000000000E+00  0.00000000000E+00  0.39999999674E+01  0.40000000000E+01  0.51100000000E-03 0.  1.
    9000002   -1    0    0    0    0 -0.00000000000E+00 -0.00000000000E+00  0.00000000000E+00  0.93800000000E+00  0.93800000000E+00 0.  1.
         11    1    1    2    0    0  0.18433351049E+00  0.32517257068E+00  0.28752620849E+01  0.28994565632E+01  0.51100000000E-03 0.  1.
    9000002    1    1    2    0    0 -0.29216273342E-01 -0.66196783526E-01  0.72180368376E-01  0.94355159390E+00  0.93800000000E+00 0.  1.
         22    1    1    2    0    0 -0.15511723715E+00 -0.25897578715E+00  0.10525575141E+01  0.10949918429E+01  0.00000000000E+00 0. -1.
</event>
<event>
 5    1  0.4838219E+001  0.1465805E+01  0.7818608E-02  0.3513267E+00
         11   -1    0    0    0    0  0.00000000000E+00  0.00000000000E+00  0.39999999674E+01  0.40000000000E+01  0.51100000000E-03 0. -1.
    9000002   -1    0    0    0    0 -0.00000000000E+00 -0.00000000000E+00  0.00000000000E+00  0.93800000000E+00  0.93800000000E+00 0. -1.
         11    1    1    2    0    0 -0.19653669444E+00  0.57515238710E+00  0.15889373611E+01  0.17012198974E+01  0.51100000000E-03 0. -1.
    9000002    1    1    2    0    0  0.13177872652E+00 -0.37826524513E+00  0.22957155974E+00  0.10454651259E+01  0.93800000000E+00 0. -1.
         22    1    1    2    0    0  0.64757967924E-01 -0.19688714197E+00  0.21814910465E+01  0.21913149767E+01  0.00000000000E+00 0. -1.
</event>
<event>
 5    1  0.4838219E+001  0.1585516E+01  0.7818608E-02  0.3369236E+00
         11   -1    0    0    0    0  0.00000000000E+00  0.00000000000E+00  0.39999999674E+01  0.40000000000E+01  0.51100000000E-03 0.  1.
    9000002   -1    0    0    0    0 -0.00000000000E+00 -0.00000000000E+00  0.00000000000E+00  0.93800000000E+00  0.93800000000E+00 0.  1.
         11    1    1    2    0    0  0.17954752716E+00  0.24832998680E+00  0.14771277102E+01  0.15085793418E+01  0.51100000000E-03 0.  1.
    9000002    1    1    2    0    0 -0.40814150278E+00 -0.28367957062E+00  0.18187316867E+00  0.10770215571E+01  0.93800000000E+00 0.  1.
         22    1    1    2    0    0  0.22859397562E+00  0.35349583827E-01  0.23409990884E+01  0.23523991011E+01  0.00000000000E+00 0.  1.
</event>
<event>
 5    1  0.4838219E+001  0.1581454E+01  0.7818608E-02  0.3373741E+00
         11   -1    0    0    0    0  0.00000000000E+00  0.00000000000E+00  0.39999999674E+01  0.40000000000E+01  0.51100000000E-03 0.  1.
    9000002   -1    0    0    0    0 -0.00000000000E+00 -0.00000000000E+00  0.00000000000E+00  0.93800000000E+00  0.93800000000E+00 0.  1.
         11    1    1    2    0    0  0.89456196607E-01  0.51272207466E-02  0.19983022705E+01  0.20003102071E+01  0.51100000000E-03 0.  1.
    9000002    1    1    2    0    0  0.13746996721E+00  0.60239481095E-01  0.28446555962E-01  0.95035782394E+00  0.93800000000E+00 0.  1.
         22    1    1    2    0    0 -0.22692616382E+00 -0.65366701842E-01  0.19732511409E+01  0.19873319689E+01  0.00000000000E+00 0.  1.
</event>
<event>
 5    1  0.4838219E+001  0.1545354E+01  0.7818608E-02  0.3414897E+00
         11   -1    0    0    0    0  0.00000000000E+00  0.00000000000E+00  0.39999999674E+01  0.40000000000E+01  0.51100000000E-03 0.  1.
    9000002   -1    0    0    0    0 -0.00000000000E+00 -0.00000000000E+00  0.00000000000E+00  0.93800000000E+00  0.93800000000E+00 0. -1.
         11    1    1    2    0    0 -0.17066875305E+00 -0.18033899560E+00  0.23693239435E+01  0.23822985092E+01  0.51100000000E-03 0.  1.
    9000002    1    1    2    0    0  0.32459259621E-01 -0.82555593985E-01  0.45866929650E-01  0.94330101498E+00  0.93800000000E+00 0. -1.
         22    1    1    2    0    0  0.13820949343E+00  0.26289458958E+00  0.15848090942E+01  0.16124004758E+01  0.00000000000E+00 0.  1.
</event>
<event>
 5    1  0.4838219E+001  0.1473182E+01  0.7818608E-02  0.3503662E+00
         11   -1    0    0    0    0  0.00000000000E+00  0.00000000000E+00  0.39999999674E+01  0.40000000000E+01  0.51100000000E-03 0. -1.
    9000002   -1    0    0    0    0 -0.00000000000E+00 -0.00000000000E+00  0.00000000000E+00  0.93800000000E+00  0.93800000000E+00 0. -1.
         11    1    1    2    0    0 -0.29408322934E+00  0.39494654527E+00  0.97560728199E+00  0.10928300642E+01  0.51100000000E-03 0. -1.
    9000002    1    1    2    0    0  0.43689146327E+00 -0.20407960013E+00  0.28105336606E+00  0.10914933021E+01  0.93800000000E+00 0. -1.
         22    1    1    2    0    0 -0.14280823393E+00 -0.19086694514E+00  0.27433393193E+01  0.27536766338E+01  0.00000000000E+00 0. -1.
</event>
<event>
 5    1  0.4838219E+001  0.1516491E+01  0.7818608E-02  0.3449306E+00
         11   -1    0    0    0    0  0.00000000000E+00  0.00000000000E+00  0.39999999674E+01  0.40000000000E+01  0.51100000000E-03 0. -1.
    9000002   -1    0    0    0    0 -0.00000000000E+00 -0.00000000000E+00  0.00000000000E+00  0.93800000000E+00  0.93800000000E+00 0.  1.
         11    1    1    2    0    0 -0.42395826524E+00 -0.13295531651E+00  0.16248821972E+01  0.16845355867E+01  0.51100000000E-03 0. -1.
    9000002    1    1    2    0    0  0.35427739811E+00 -0.17859210233E+00  0.17875760716E+00  0.10340241274E+01  0.93800000000E+00 0.  1.
         22    1    1    2    0    0  0.69680867128E-01  0.31154741884E+00  0.21963601630E+01  0.22194402860E+01  0.00000000000E+00 0. -1.
</event>
<event>
 5    1  0.4838219E+001  0.1544573E+01  0.7818608E-02  0.3415810E+00
         11   -1    0    0    0    0  0.00000000000E+00  0.00000000000E+00  0.39999999674E+01  0.40000000000E+01  0.51100000000E-03 0.  1.
    9000002   -1    0    0    0    0 -0.00000000000E+00 -0.00000000000E+00  0.00000000000E+00  0.93800000000E+00  0.93800000000E+00 0. -1.
         11    1    1    2    0    0  0.17319646584E+00  0.13196474249E+00  0.76632741267E+00  0.79666158033E+00  0.51100000000E-03 0.  1.
    9000002    1    1    2    0    0  0.91951584851E-01 -0.72487463971E-01  0.50541691371E-01  0.94662980566E+00  0.93800000000E+00 0. -1.
         22    1    1    2    0    0 -0.26514805069E+00 -0.59477278522E-01  0.31831308633E+01  0.31947086140E+01  0.00000000000E+00 0.  1.
</event>
<event>
 5    1  0.4838219E+001  0.1570175E+01  0.7818608E-02  0.3386385E+00
         11   -1    0    0    0    0  0.00000000000E+00  0.00000000000E+00  0.39999999674E+01  0.40000000000E+01  0.51100000000E-03 0.  1.
    9000002   -1    0    0    0    0 -0.00000000000E+00 -0.00000000000E+00  0.00000000000E+00  0.93800000000E+00  0.93800000000E+00 0.  1.
         11    1    1    2    0    0 -0.84955274293E-01  0.14802466574E+00  0.95827220543E+00  0.97335223898E+00  0.51100000000E-03 0.  1.
    9000002    1    1    2    0    0  0.10500917326E+00  0.77933244013E-01  0.33276272604E-01  0.94765596464E+00  0.93800000000E+00 0.  1.
         22    1    1    2    0    0 -0.20053898968E-01 -0.22595790976E+00  0.30084514893E+01  0.30169917964E+01  0.00000000000E+00 0. -1.
</event>
<event>
 5    1  0.4838219E+001  0.1497037E+01  0.7818608E-02  0.3473303E+00
         11   -1    0    0    0    0  0.00000000000E+00  0.00000000000E+00  0.39999999674E+01  0.40000000000E+01  0.51100000000E-03 0. -1.
    9000002   -1    0    0    0    0 -0.00000000000E+00 -0.00000000000E+00  0.00000000000E+00  0.93800000000E+00  0.93800000000E+00 0.  1.
         11    1    1    2    0    0 -0.43333241531E+00 -0.40106539230E+00  0.27613759011E+01  0.28237966569E+01  0.51100000000E-03 0. -1.
    9000002    1    1    2    0    0  0.41254189923E+00  0.11661604230E+00  0.21751958128E+00  0.10540156015E+01  0.93800000000E+00 0.  1.
         22    1    1    2    0    0  0.20790516086E-01  0.28444935000E+00  0.10211044850E+01  0.10601877416E+01  0.00000000000E+00 0. -1.
</event>
<event>
 5    1  0.4838219E+001  0.1575406E+01  0.7818608E-02  0.3380497E+00
         11   -1    0    0    0    0  0.00000000000E+00  0.00000000000E+00  0.39999999674E+01  0.40000000000E+01  0.51100000000E-03 0. -1.
    9000002   -1    0    0    0    0 -0.00000000000E+00 -0.00000000000E+00  0.00000000000E+00  0.93800000000E+00  0.93800000000E+00 0.  1.
         11    1    1    2    0    0 -0.11505425253E+00  0.54465040038E-01  0.74116868592E+00  0.75202074687E+00  0.51100000000E-03 0. -1.
    9000002    1    1    2    0    0 -0.80241185935E-01  0.66467519539E-01  0.25103454329E-01  0.94410315246E+00  0.93800000000E+00 0.  1.
         22    1    1    2    0    0  0.19529543846E+00 -0.12093255958E+00  0.32337278271E+01  0.32418761007E+01  0.00000000000E+00 0. -1.
</event>
<event>
 5    1  0.4838219E+001  0.1567711E+01  0.7818608E-02  0.3389172E+00
         11   -1    0    0    0    0  0.00000000000E+00  0.00000000000E+00  0.39999999674E+01  0.40000000000E+01  0.51100000000E-03 0. -1.
    9000002   -1    0    0    0    0 -0.00000000000E+00 -0.00000000000E+00  0.00000000000E+00  0.93800000000E+00  0.93800000000E+00 0. -1.
         11    1    1    2    0    0  0.19936273841E+00  0.28686378240E+00  0.15450708011E+01  0.15840708231E+01  0.51100000000E-03 0. -1.
    9000002    1    1    2    0    0 -0.40831765883E-01 -0.44668805555E+00  0.16473846058E+00  0.10527013881E+01  0.93800000000E+00 0. -1.
         22    1    1    2    0    0 -0.15853097253E+00  0.15982427315E+00  0.22901907057E+01  0.23012277888E+01  0.00000000000E+00 0. -1.
</event>
<event>
 5    1  0.4838219E+001  0.1528776E+01  0.7818608E-02  0.3434491E+00
         11   -1    0    0    0    0  0.00000000000E+00  0.00000000000E+00  0.39999999674E+01  0.40000000000E+01  0.51100000000E-03 0. -1.
    9000002   -1    0    0    0    0 -0.00000000000E+00 -0.00000000000E+00  0.00000000000E+00  0.93800000000E+00  0.93800000000E+00 0. -1.
         11    1    1    2    0    0  0.72493681761E-01 -0.41419802440E+00  0.27237755136E+01  0.27560422070E+01  0.51100000000E-03 0. -1.
    9000002    1    1    2    0    0 -0.72185196387E-02  0.18252944946E+00  0.76889793964E-01  0.95871014773E+00  0.93800000000E+00 0. -1.
         22    1    1    2    0    0 -0.65275162123E-01  0.23166857493E+00  0.11993346598E+01  0.12232476453E+01  0.00000000000E+00 0.  1.
</event>
<event>
 5    1  0.4838219E+001  0.1326262E+01  0.7818608E-02  0.3732892E+00
         11   -1    0    0    0    0  0.00000000000E+00  0.00000000000E+00  0.39999999674E+01  0.40000000000E+01  0.51100000000E-03 0. -1.
    9000002   -1    0    0    0    0 -0.00000000000E+00 -0.00000000000E+00  0.00000000000E+00  0.93800000000E+00  0.93800000000E+00 0. -1.
         11    1    1    2    0    0 -0.84056921566E+00 -0.17631156106E+00  0.14797788885E+01  0.17109611898E+01  0.51100000000E-03 0. -1.
    9000002    1    1    2    0    0  0.60956715838E+00 -0.23197748607E+00  0.68340777555E+00  0.13312685162E+01  0.93800000000E+00 0. -1.
         22    1    1    2    0    0  0.23100205728E+00  0.40828904713E+00  0.18368133033E+01  0.18957702940E+01  0.00000000000E+00 0.  1.
</event>
<event>
 5    1  0.4838219E+001  0.1489437E+01  0.7818608E-02  0.3482862E+00
         11   -1    0    0    0    0  0.00000000000E+00  0.00000000000E+00  0.39999999674E+01  0.40000000000E+01  0.51100000000E-03 0. -1.
    9000002   -1    0    0    0    0 -0.00000000000E+00 -0.00000000000E+00  0.00000000000E+00  0.93800000000E+00  0.93800000000E+00 0.  1.
         11    1    1    2    0    0  0.21236140010E+00 -0.82128341387E+00  0.18407728654E+01  0.20268322114E+01  0.51100000000E-03 0. -1.
    9000002    1    1    2    0    0 -0.45245309502E+00  0.74364151156E+00  0.75783033356E+00  0.14872347882E+01  0.93800000000E+00 0.  1.
         22    1    1    2    0    0  0.24009169491E+00  0.77641902308E-01  0.14013967684E+01  0.14239330003E+01  0.00000000000E+00 0. -1.
</event>
<event>
 5    1  0.4838219E+001  0.1504563E+01  0.7818608E-02  0.3463940E+00
         11   -1    0    0    0    0  0.00000000000E+00  0.00000000000E+00  0.39999999674E+01  0.40000000000E+01  0.51100000000E-03 0.  1.
    9000002   -1    0    0    0    0 -0.00000000000E+00 -0.00000000000E+00  0.00000000000E+00  0.93800000000E+00  0.93800000000E+00 0. -1.
         11    1    1    2    0    0  0.48561411912E+00  0.19876571647E+00  0.20523132742E+01  0.21183292754E+01  0.51100000000E-03 0.  1.
    9000002    1    1    2    0    0 -0.27267679020E+00 -0.98106887086E-01  0.13410770316E+00  0.99086147834E+00  0.93800000000E+00 0. -1.
         22    1    1    2    0    0 -0.21293732892E+00 -0.10065882939E+00  0.18135789900E+01  0.18288092462E+01  0.00000000000E+00 0.  1.
</event>
<event>
 5    1  0.4838219E+001  0.1550761E+01  0.7818608E-02  0.3408604E+00
         11   -1    0    0    0    0  0.00000000000E+00  0.00000000000E+00  0.39999999674E+01  0.40000000000E+01  0.51100000000E-03 0.  1.
    9000002   -1    0    0    0    0 -0.00000000000E+00 -0.00000000000E+00  0.00000000000E+00  0.93800000000E+00  0.93800000000E+00 0.  1.
         11    1    1    2    0    0  0.51975993675E+00 -0.19342311834E+00  0.21012835274E+01  0.21732362085E+01  0.51100000000E-03 0.  1.
    9000002    1    1    2    0    0 -0.62308739702E+00 -0.24508323649E-01  0.32448831107E+00  0.11721668935E+01  0.93800000000E+00 0.  1.
         22    1    1    2    0    0  0.10332746028E+00  0.21793144199E+00  0.15742281289E+01  0.15925968979E+01  0.00000000000E+00 0.  1.
</event>
<event>
 5    1  0.4838219E+001  0.1539322E+01  0.7818608E-02  0.3421974E+00
         11   -1    0    0    0    0  0.00000000000E+00  0.00000000000E+00  0.39999999674E+01  0.40000000000E+01  0.51100000000E-03 0. -1.
    9000002   -1    0    0    0    0 -0.00000000000E+00 -0.00000000000E+00  0.00000000000E+00  0.93800000000E+00  0.93800000000E+00 0. -1.
         11    1    1    2    0    0 -0.16354696248E+00 -0.26481713572E+00  0.10880374335E+01  0.11316808040E+01  0.51100000000E-03 0. -1.
    9000002    1    1    2    0    0 -0.13118517828E+00  0.31413179227E+00  0.12762575253E+00  0.10059923790E+01  0.93800000000E+00 0. -1.
         22    1    1    2    0    0  0.29473214075E+00 -0.49314656556E-01  0.27843367813E+01  0.28003268170E+01  0.00000000000E+00 0. -1.
</event>
<event>
 5    1  0.4838219E+001  0.1587990E+01  0.7818608E-02  0.3366503E+00
         11   -1    0    0    0    0  0.00000000000E+00  0.00000000000E+00  0.39999999674E+01  0.40000000000E+01  0.51100000000E-03 0.  1.
    9000002   -1    0    0    0    0 -0.00000000000E+00 -0.00000000000E+00  0.00000000000E+00  0.93800000000E+00  0.93800000000E+00 0. -1.
         11    1    1    2    0    0 -0.68247094070E-01 -0.33187582976E-01  0.10883309010E+01  0.10909736444E+01  0.51100000000E-03 0.  1.
    9000002    1    1    2    0    0 -0.14195355678E+00 -0.41469307171E-01  0.23110529931E-01  0.94986768148E+00  0.93800000000E+00 0. -1.
         22    1    1    2    0    0  0.21020065085E+00  0.74656890146E-01  0.28885585364E+01  0.28971586741E+01  0.00000000000E+00 0.  1.
</event>
<event>
 5    1  0.4838219E+001  0.1522696E+01  0.7818608E-02  0.3441792E+00
         11   -1    0    0    0    0  0.00000000000E+00  0.00000000000E+00  0.39999999674E+01  0.40000000000E+01  0.51100000000E-03 0.  1.
    9000002   -1    0    0    0    0 -0.00000000000E+00 -0.00000000000E+00  0.00000000000E+00  0.93800000000E+00  0.93800000000E+00 0. -1.
         11    1    1    2    0    0 -0.20577651705E+00 -0.15571207064E+00  0.67419396786E+00  0.72189195268E+00  0.51100000000E-03 0.  1.
    9000002    1    1    2    0    0 -0.14141702142E+00  0.25943806962E+00  0.12096816644E+00  0.99085023248E+00  0.93800000000E+00 0. -1.
         22    1    1    2    0    0  0.34719353847E+00 -0.10372599898E+00  0.32048378331E+01  0.32252578148E+01  0.00000000000E+00 0.  1.
</event>
<event>
 5    1  0.4838219E+001  0.1171817E+01  0.7818608E-02  0.4060934E+00
         11   -1    0    0    0    0  0.00000000000E+00  0.00000000000E+00  0.39999999674E+01  0.40000000000E+01  0.51100000000E-03 0.  1.
    9000002   -1    0    0    0    0 -0.00000000000E+00 -0.00000000000E+00  0.00000000000E+00  0.93800000000E+00  0.93800000000E+00 0.  1.
         11    1    1    2    0    0  0.38375172921E+00  0.35311945396E+00  0.19114733948E+00  0.55542443676E+00  0.51100000000E-03 0.  1.
    9000002    1    1    2    0    0 -0.17073260123E+00 -0.36207724176E+00  0.63459977601E+00  0.12011704400E+01  0.93800000000E+00 0.  1.
         22    1    1    2    0    0 -0.21301912798E+00  0.89577877958E-02  0.31742528519E+01  0.31814051233E+01  0.00000000000E+00 0.  1.
</event>
<event>
 5    1  0.4838219E+001  0.1548757E+01  0.7818608E-02  0.3410930E+00
         11   -1    0    0    0    0  0.00000000000E+00  0.00000000000E+00  0.39999999674E+01  0.40000000000E+01  0.51100000000E-03 0. -1.
    9000002   -1    0    0    0    0 -0.00000000000E+00 -0.00000000000E+00  0.00000000000E+00  0.93800000000E+00  0.93800000000E+00 0.  1.
         11    1    1    2    0    0  0.15582600535E+00 -0.69866572985E-01  0.45711455918E+00  0.48797240014E+00  0.51100000000E-03 0. -1.
    9000002    1    1    2    0    0  0.97710658580E-01  0.13306917276E+00  0.56742621066E-01  0.95410612753E+00  0.93800000000E+00 0.  1.
         22    1    1    2    0    0 -0.25353666393E+00 -0.63202599773E-01  0.34861427871E+01  0.34959214723E+01  0.00000000000E+00 0. -1.
</event>
<event>
 5    1  0.4838219E+001  0.1335284E+01  0.7818608E-02  0.3716578E+00
         11   -1    0    0    0    0  0.00000000000E+00  0.00000000000E+00  0.39999999674E+01  0.40000000000E+01  0.51100000000E-03 0.  1.
    9000002   -1    0    0    0    0 -0.00000000000E+00 -0.00000000000E+00  0.00000000000E+00  0.93800000000E+00  0.93800000000E+00 0.  1.
         11    1    1    2    0    0 -0.36365169263E+00  0.87054149495E-01  0.36710749393E+01  0.36900694369E+01  0.51100000000E-03 0.  1.
    9000002    1    1    2    0    0  0.12993506643E+00 -0.15690815129E+00  0.26160294602E+00  0.99487858093E+00  0.93800000000E+00 0.  1.
         22    1    1    2    0    0  0.23371662620E+00  0.69854001792E-01  0.67322082064E-01  0.25305198213E+00  0.00000000000E+00 0.  1.
</event>
<event>
 5    1  0.4838219E+001  0.1592744E+01  0.7818608E-02  0.3361277E+00
         11   -1    0    0    0    0  0.00000000000E+00  0.00000000000E+00  0.39999999674E+01  0.40000000000E+01  0.51100000000E-03 0.  1.
    9000002   -1    0    0    0    0 -0.00000000000E+00 -0.00000000000E+00  0.00000000000E+00  0.93800000000E+00  0.93800000000E+00 0. -1.
         11    1    1    2    0    0 -0.79411326174E-01  0.11321468166E-01  0.97610683201E+00  0.97939733662E+00  0.51100000000E-03 0.  1.
    9000002    1    1    2    0    0  0.34244144743E+00 -0.38524188389E+00  0.18871229028E+00  0.10867997895E+01  0.93800000000E+00 0. -1.
         22    1    1    2    0    0 -0.26303012125E+00  0.37392041573E+00  0.28351808451E+01  0.28718028739E+01  0.00000000000E+00 0.  1.
</event>
<event>
 5    1  0.6242178E+001  0.1564185E+01  0.7818608E-02  0.3393177E+00
         11   -1    0    0    0    0  0.00000000000E+00  0.00000000000E+00  0.39999999674E+01  0.40000000000E+01  0.51100000000E-03 0. -1.
    9000002   -1    0    0    0    0 -0.00000000000E+00 -0.00000000000E+00  0.00000000000E+00  0.93800000000E+00  0.93800000000E+00 0. -1.
         11    1    1    2    0    0  0.16100325336E+00  0.97549171586E-01  0.28780850141E+01  0.28842349935E+01  0.51100000000E-03 0. -1.
    9000002    1    1    2    0    0  0.43482587836E-01 -0.46200903013E-01  0.28884976692E-01  0.94058683850E+00  0.93800000000E+00 0. -1.
         22    1    1    2    0    0 -0.20448584120E+00 -0.51348268573E-01  0.10930299766E+01  0.11131781680E+01  0.00000000000E+00 0. -1.
</event>
<event>
 5    1  0.4838219E+001  0.1517657E+01  0.7818608E-02  0.3447890E+00
         11   -1    0    0    0    0  0.00000000000E+00  0.00000000000E+00  0.39999999674E+01  0.40000000000E+01  0.51100000000E-03 0. -1.
    9000002   -1    0    0    0    0 -0.00000000000E+00 -0.00000000000E+00  0.00000000000E+00  0.93800000000E+00  0.93800000000E+00 0.  1.
         11    1    1    2    0    0  0.67928275345E+00  0.25307493570E+00  0.18290240057E+01  0.19674351467E+01  0.51100000000E-03 0. -1.
    9000002    1    1    2    0    0 -0.79599253358E+00 -0.27449550241E-01  0.58166071629E+00  0.13610770662E+01  0.93800000000E+00 0.  1.
         22    1    1    2    0    0  0.11670978013E+00 -0.22562538546E+00  0.15893152454E+01  0.16094877870E+01  0.00000000000E+00 0.  1.
</event>
<event>
 5    1  0.4838219E+001  0.1577186E+01  0.7818608E-02  0.3378503E+00
         11   -1    0    0    0    0  0.00000000000E+00  0.00000000000E+00  0.39999999674E+01  0.40000000000E+01  0.51100000000E-03 0.  1.
    9000002   -1    0    0    0    0 -0.00000000000E+00 -0.00000000000E+00  0.00000000000E+00  0.93800000000E+00  0.93800000000E+00 0. -1.
         11    1    1    2    0    0 -0.15870566324E+00 -0.14092301230E+00  0.22705344961E+01  0.22804328410E+01  0.51100000000E-03 0.  1.
    9000002    1    1    2    0    0 -0.28948292357E-01  0.29815086163E+00  0.77671114941E-01  0.98772908331E+00  0.93800000000E+00 0. -1.
         22    1    1    2    0    0  0.18765395560E+00 -0.15722784932E+00  0.16517943563E+01  0.16698380757E+01  0.00000000000E+00 0.  1.
</event>
<event>
 5    1  0.4838219E+001  0.1496544E+01  0.7818608E-02  0.3473919E+00
         11   -1    0    0    0    0  0.00000000000E+00  0.00000000000E+00  0.39999999674E+01  0.40000000000E+01  0.51100000000E-03 0.  1.
    9000002   -1    0    0    0    0 -0.00000000000E+00 -0.00000000000E+00  0.00000000000E+00  0.93800000000E+00  0.93800000000E+00 0. -1.
         11    1    1    2    0    0  0.52940952911E-02 -0.37142846845E+00  0.10295493757E+01  0.10945132767E+01  0.51100000000E-03 0.  1.
    9000002    1    1    2    0    0 -0.11078856365E-01  0.10725706733E+00  0.87246344319E-01  0.94819973853E+00  0.93800000000E+00 0. -1.
         22    1    1    2    0    0  0.57847610739E-02  0.26417140113E+00  0.28832042473E+01  0.28952869848E+01  0.00000000000E+00 0.  1.
</event>
<event>
 5    1  0.4838219E+001  0.1569027E+01  0.7818608E-02  0.3387682E+00
         11   -1    0    0    0    0  0.00000000000E+00  0.00000000000E+00  0.39999999674E+01  0.40000000000E+01  0.51100000000E-03 0. -1.
    9000002   -1    0    0    0    0 -0.00000000000E+00 -0.00000000000E+00  0.00000000000E+00  0.93800000000E+00  0.93800000000E+00 0. -1.
         11    1    1    2    0    0 -0.64660832489E-02  0.16652048282E+00  0.60545667803E+00  0.62797207862E+00  0.51100000000E-03 0. -1.
    9000002    1    1    2    0    0 -0.22238985918E+00 -0.12312106369E+00  0.66783081319E-01  0.97412526183E+00  0.93800000000E+00 0. -1.
         22    1    1    2    0    0  0.22885594243E+00 -0.43399419134E-01  0.33277602080E+01  0.33359026595E+01  0.00000000000E+00 0. -1.
</event>
<event>
 5    1  0.4838219E+001  0.1556202E+01  0.7818608E-02  0.3402317E+00
         11   -1    0    0    0    0  0.00000000000E+00  0.00000000000E+00  0.39999999674E+01  0.40000000000E+01  0.51100000000E-03 0.  1.
    9000002   -1    0    0    0    0 -0.00000000000E+00 -0.00000000000E+00  0.00000000000E+00  0.93800000000E+00  0.93800000000E+00 0.  1.
         11    1    1    2    0    0  0.61663294534E-01  0.26330650288E+00  0.19589495370E+01  0.19775278066E+01  0.51100000000E-03 0.  1.
    9000002    1    1    2    0    0 -0.13189614296E+00 -0.25152720169E-01  0.44567887903E-01  0.94860927072E+00  0.93800000000E+00 0.  1.
         22    1    1    2    0    0  0.70232848426E-01 -0.23815378271E+00  0.19964825424E+01  0.20118629226E+01  0.00000000000E+00 0.  1.
</event>
<event>
 5    1  0.4838219E+001  0.1484443E+01  0.7818608E-02  0.3489200E+00
         11   -1    0    0    0    0  0.00000000000E+00  0.00000000000E+00  0.39999999674E+01  0.40000000000E+01  0.51100000000E-03 0.  1.
    9000002   -1    0    0    0    0 -0.00000000000E+00 -0.00000000000E+00  0.00000000000E+00  0.93800000000E+00  0.93800000000E+00 0.  1.
         11    1    1    2    0    0 -0.11866051943E+00  0.39183747234E+00  0.95656646836E+00  0.10404982427E+01  0.51100000000E-03 0.  1.
    9000002    1    1    2    0    0 -0.26802465068E+00 -0.33221317553E+00  0.22859968218E+00  0.10556062817E+01  0.93800000000E+00 0.  1.
         22    1    1    2    0    0  0.38668517011E+00 -0.59624296811E-01  0.28148338168E+01  0.28418954755E+01  0.00000000000E+00 0.  1.
</event>
<event>
 5    1  0.4838219E+001  0.1530125E+01  0.7818608E-02  0.3432879E+00
         11   -1    0    0    0    0  0.00000000000E+00  0.00000000000E+00  0.39999999674E+01  0.40000000000E+01  0.51100000000E-03 0. -1.
    9000002   -1    0    0    0    0 -0.00000000000E+00 -0.00000000000E+00  0.00000000000E+00  0.93800000000E+00  0.93800000000E+00 0. -1.
         11    1    1    2    0    0  0.27814837308E+00  0.10010152893E+00  0.29648696335E+01  0.29795702775E+01  0.51100000000E-03 0. -1.
    9000002    1    1    2    0    0 -0.69161486780E-01  0.75016634524E-01  0.59490190712E-01  0.94540673231E+00  0.93800000000E+00 0. -1.
         22    1    1    2    0    0 -0.20898688630E+00 -0.17511816345E+00  0.97564014315E+00  0.10130229902E+01  0.00000000000E+00 0. -1.
</event>
<event>
 5    1  0.4838219E+001  0.1590196E+01  0.7818608E-02  0.3364073E+00
         11   -1    0    0    0    0  0.00000000000E+00  0.00000000000E+00  0.39999999674E+01  0.40000000000E+01  0.51100000000E-03 0.  1.
    9000002   -1    0    0    0    0 -0.00000000000E+00 -0.00000000000E+00  0.00000000000E+00  0.93800000000E+00  0.93800000000E+00 0. -1.
         11    1    1    2    0    0  0.61793350449E-02  0.69258024249E-01  0.34199959697E+00  0.34899691052E+00  0.51100000000E-03 0.  1.
    9000002    1    1    2    0    0 -0.23332823386E+00 -0.53738035574E-01  0.45301268421E-01  0.96913675305E+00  0.93800000000E+00 0. -1.
         22    1    1    2    0    0  0.22714889881E+00 -0.15519988675E-01  0.36126991020E+01  0.36198663364E+01  0.00000000000E+00 0.  1.
</event>
<event>
 5    1  0.4838219E+001  0.1550551E+01  0.7818608E-02  0.3408846E+00
         11   -1    0    0    0    0  0.00000000000E+00  0.00000000000E+00  0.39999999674E+01  0.40000000000E+01  0.51100000000E-03 0. -1.
    9000002   -1    0    0    0    0 -0.00000000000E+00 -0.00000000000E+00  0.00000000000E+00  0.93800000000E+00  0.93800000000E+00 0. -1.
         11    1    1    2    0    0 -0.25046378181E+00  0.10052805592E+00  0.80548316944E+00  0.84949478716E+00  0.51100000000E-03 0. -1.
    9000002    1    1    2    0    0  0.15806364785E+00 -0.35081369327E+00  0.14129813532E+00  0.10236520538E+01  0.93800000000E+00 0. -1.
         22    1    1    2    0    0  0.92400133965E-01  0.25028563735E+00  0.30532186626E+01  0.30648531591E+01  0.00000000000E+00 0. -1.
</event>
<event>
 5    1  0.4838219E+001  0.1570715E+01  0.7818608E-02  0.3385775E+00
         11   -1    0    0    0    0  0.00000000000E+00  0.00000000000E+00  0.39999999674E+01  0.40000000000E+01  0.51100000000E-03 0.  1.
    9000002   -1    0    0    0    0 -0.00000000000E+00 -0.00000000000E+00  0.00000000000E+00  0.93800000000E+00  0.93800000000E+00 0.  1.
         11    1    1    2    0    0 -0.19850924635E+00  0.69820920780E-01  0.22056639380E+01  0.22156792526E+01  0.51100000000E-03 0.  1.
    9000002    1    1    2    0    0  0.98758726093E-01  0.13361045220E+00  0.40027537677E-01  0.95344178778E+00  0.93800000000E+00 0.  1.
         22    1    1    2    0    0  0.99750520252E-01 -0.20343137298E+00  0.17543084917E+01  0.17688789596E+01  0.00000000000E+00 0.  1.
</event>
<event>
 5    1  0.4838219E+001  0.1526707E+01  0.7818608E-02  0.3436969E+00
         11   -1    0    0    0    0  0.00000000000E+00  0.00000000000E+00  0.39999999674E+01  0.40000000000E+01  0.51100000000E-03 0. -1.
    9000002   -1    0    0    0    0 -0.00000000000E+00 -0.00000000000E+00  0.00000000000E+00  0.93800000000E+00  0.93800000000E+00 0. -1.
         11    1    1    2    0    0  0.21565607535E+00  0.22334225139E+00  0.11932187208E+01  0.12329478825E+01  0.51100000000E-03 0. -1.
    9000002    1    1    2    0    0 -0.41734734289E-01 -0.10283005751E-01  0.56103688704E-01  0.94065889255E+00  0.93800000000E+00 0. -1.
         22    1    1    2    0    0 -0.17392134106E+00 -0.21305924563E+00  0.27506775578E+01  0.27643932250E+01  0.00000000000E+00 0. -1.
</event>
<event>
 5    1  0.4838219E+001  0.1556701E+01  0.7818608E-02  0.3401742E+00
         11   -1    0    0    0    0  0.00000000000E+00  0.00000000000E+00  0.39999999674E+01  0.40000000000E+01  0.51100000000E-03 0.  1.
    9000002   -1    0    0    0    0 -0.00000000000E+00 -0.00000000000E+00  0.00000000000E+00  0.93800000000E+00  0.93800000000E+00 0.  1.
         11    1    1    2    0    0 -0.19887192076E+00 -0.52721697955E-01  0.10267587058E+01  0.10471691933E+01  0.51100000000E-03 0.  1.
    9000002    1    1    2    0    0 -0.68966153854E-01  0.84068263384E-01  0.39904195810E-01  0.94512440881E+00  0.93800000000E+00 0.  1.
         22    1    1    2    0    0  0.26783807461E+00 -0.31346565429E-01  0.29333370657E+01  0.29457063979E+01  0.00000000000E+00 0.  1.
</event>
<event>
 5    1  0.4838219E+001  0.1571909E+01  0.7818608E-02  0.3384429E+00
         11   -1    0    0    0    0  0.00000000000E+00  0.00000000000E+00  0.39999999674E+01  0.40000000000E+01  0.51100000000E-03 0. -1.
    9000002   -1    0    0    0    0 -0.00000000000E+00 -0.00000000000E+00  0.00000000000E+00  0.93800000000E+00  0.93800000000E+00 0.  1.
         11    1    1    2    0    0  0.12232525820E+00 -0.12606831966E+00  0.98578362728E+00  0.10013122944E+01  0.51100000000E-03 0. -1.
    9000002    1    1    2    0    0  0.81990550089E-01  0.10965335137E+00  0.33084242751E-01  0.94851719799E+00  0.93800000000E+00 0.  1.
         22    1    1    2    0    0 -0.20431580829E+00  0.16414968288E-01  0.29811320973E+01  0.29881705076E+01  0.00000000000E+00 0. -1.
</event>
<event>
 5    1  0.4838219E+001  0.1570556E+01  0.7818608E-02  0.3385955E+00
         11   -1    0    0    0    0  0.00000000000E+00  0.00000000000E+00  0.39999999674E+01  0.40000000000E+01  0.51100000000E-03 0. -1.
    9000002   -1    0    0    0    0 -0.00000000000E+00 -0.00000000000E+00  0.00000000000E+00  0.93800000000E+00  0.93800000000E+00 0. -1.
         11    1    1    2    0    0 -0.35804245436E+00 -0.12677689018E+00  0.13642264802E+00  0.40358168816E+00  0.51100000000E-03 0. -1.
    9000002    1    1    2    0    0  0.58528831800E+00  0.11246343312E+00  0.60009008679E+00  0.12629974470E+01  0.93800000000E+00 0. -1.
         22    1    1    2    0    0 -0.22724586365E+00  0.14313457058E-01  0.32634872325E+01  0.32714208648E+01  0.00000000000E+00 0. -1.
</event>
<event>
 5    1  0.4838219E+001  0.1456400E+01  0.7818608E-02  0.3525666E+00
         11   -1    0    0    0    0  0.00000000000E+00  0.00000000000E+00  0.39999999674E+01  0.40000000000E+01  0.51100000000E-03 0. -1.
    9000002   -1    0    0    0    0 -0.00000000000E+00 -0.00000000000E+00  0.00000000000E+00  0.93800000000E+00  0.93800000000E+00 0.  1.
         11    1    1    2    0    0  0.29861771459E+00 -0.34038208517E+00  0.15894996321E+01  0.16527376819E+01  0.51100000000E-03 0. -1.
    9000002    1    1    2    0    0 -0.19861884436E+00 -0.20006042866E+00  0.18994020476E+00  0.99769479393E+00  0.93800000000E+00 0.  1.
         22    1    1    2    0    0 -0.99998870238E-01  0.54044251383E+00  0.22205601305E+01  0.22875675242E+01  0.00000000000E+00 0.  1.
</event>
<event>
 5    1  0.4838219E+001  0.1417560E+01  0.7818608E-02  0.3579137E+00
         11   -1    0    0    0    0  0.00000000000E+00  0.00000000000E+00  0.39999999674E+01  0.40000000000E+01  0.51100000000E-03 0.  1.
    9000002   -1    0    0    0    0 -0.00000000000E+00 -0.00000000000E+00  0.00000000000E+00  0.93800000000E+00  0.93800000000E+00 0. -1.
         11    1    1    2    0    0 -0.87864151607E-01  0.60855453088E+00  0.14211811117E+01  0.15484878881E+01  0.51100000000E-03 0.  1.
    9000002    1    1    2    0    0  0.31788594685E+00 -0.27680063939E+00  0.29435576076E+00  0.10696538613E+01  0.93800000000E+00 0. -1.
         22    1    1    2    0    0 -0.23002179525E+00 -0.33175389150E+00  0.22844630949E+01  0.23198582506E+01  0.00000000000E+00 0.  1.
</event>
<event>
 5    1  0.4838219E+001  0.1563665E+01  0.7818608E-02  0.3393770E+00
         11   -1    0    0    0    0  0.00000000000E+00  0.00000000000E+00  0.39999999674E+01  0.40000000000E+01  0.51100000000E-03 0. -1.
    9000002   -1    0    0    0    0 -0.00000000000E+00 -0.00000000000E+00  0.00000000000E+00  0.93800000000E+00  0.93800000000E+00 0. -1.
         11    1    1    2    0    0  0.73526485845E-01 -0.23939211603E+00  0.22189860238E+01  0.22330727629E+01  0.51100000000E-03 0. -1.
    9000002    1    1    2    0    0  0.48616794213E-02  0.46246612434E-01  0.28005578562E-01  0.93956942134E+00  0.93800000000E+00 0. -1.
         22    1    1    2    0    0 -0.78388165266E-01  0.19314550359E+00  0.17530083650E+01  0.17653578158E+01  0.00000000000E+00 0.  1.
</event>
<event>
 5    1  0.4838219E+001  0.1575023E+01  0.7818608E-02  0.3380927E+00
         11   -1    0    0    0    0  0.00000000000E+00  0.00000000000E+00  0.39999999674E+01  0.40000000000E+01  0.51100000000E-03 0.  1.
    9000002   -1    0    0    0    0 -0.00000000000E+00 -0.00000000000E+00  0.00000000000E+00  0.93800000000E+00  0.93800000000E+00 0.  1.
         11    1    1    2    0    0 -0.56714094949E-01 -0.30088995473E+00  0.15145043948E+01  0.15451456489E+01  0.51100000000E-03 0.  1.
    9000002    1    1    2    0    0 -0.29291157284E+00  0.59517295622E+00  0.33839229645E+00  0.11976566217E+01  0.93800000000E+00 0.  1.
         22    1    1    2    0    0  0.34962566779E+00 -0.29428300149E+00  0.21471032761E+01  0.21951977293E+01  0.00000000000E+00 0.  1.
</event>
<event>
 5    1  0.4838219E+001  0.1555608E+01  0.7818608E-02  0.3403000E+00
         11   -1    0    0    0    0  0.00000000000E+00  0.00000000000E+00  0.39999999674E+01  0.40000000000E+01  0.51100000000E-03 0.  1.
    9000002   -1    0    0    0    0 -0.00000000000E+00 -0.00000000000E+00  0.00000000000E+00  0.93800000000E+00  0.93800000000E+00 0.  1.
         11    1    1    2    0    0  0.31038524436E+00 -0.37826967308E-01  0.76603766216E+00  0.82739581842E+00  0.51100000000E-03 0.  1.
    9000002    1    1    2    0    0 -0.49772499625E+00  0.27904828674E+00  0.26959112222E+00  0.11305403537E+01  0.93800000000E+00 0.  1.
         22    1    1    2    0    0  0.18733975188E+00 -0.24122131943E+00  0.29643711830E+01  0.29800638279E+01  0.00000000000E+00 0.  1.
</event>
<event>
 5    1  0.4838219E+001  0.1531615E+01  0.7818608E-02  0.3431103E+00
         11   -1    0    0    0    0  0.00000000000E+00  0.00000000000E+00  0.39999999674E+01  0.40000000000E+01  0.51100000000E-03 0.  1.
    9000002   -1    0    0    0    0 -0.00000000000E+00 -0.00000000000E+00  0.00000000000E+00  0.93800000000E+00  0.93800000000E+00 0.  1.
         11    1    1    2    0    0  0.35943292565E-01 -0.26114625724E+00  0.31007866663E+01  0.31119716418E+01  0.51100000000E-03 0.  1.
    9000002    1    1    2    0    0  0.35157192863E-01  0.12485190091E-01  0.51957444606E-01  0.94017843212E+00  0.93800000000E+00 0.  1.
         22    1    1    2    0    0 -0.71100485428E-01  0.24866106715E+00  0.84725585643E+00  0.88584992611E+00  0.00000000000E+00 0. -1.
</event>
<event>
 5    1  0.4838219E+001  0.1516424E+01  0.7818608E-02  0.3449388E+00
         11   -1    0    0    0    0  0.00000000000E+00  0.00000000000E+00  0.39999999674E+01  0.40000000000E+01  0.51100000000E-03 0. -1.
    9000002   -1    0    0    0    0 -0.00000000000E+00 -0.00000000000E+00  0.00000000000E+00  0.93800000000E+00  0.93800000000E+00 0. -1.
         11    1    1    2    0    0  0.90340011110E-01  0.30527580247E+00  0.28952661112E+01  0.29127170733E+01  0.51100000000E-03 0. -1.
    9000002    1    1    2    0    0 -0.22405867259E+00 -0.12660933028E-01  0.99229120658E-01  0.96956330705E+00  0.93800000000E+00 0. -1.
         22    1    1    2    0    0  0.13371866148E+00 -0.29261486944E+00  0.10055047355E+01  0.10557196197E+01  0.00000000000E+00 0. -1.
</event>
<event>
 5    1  0.4838219E+001  0.1574877E+01  0.7818608E-02  0.3381091E+00
         11   -1    0    0    0    0  0.00000000000E+00  0.00000000000E+00  0.39999999674E+01  0.40000000000E+01  0.51100000000E-03 0. -1.
    9000002   -1    0    0    0    0 -0.00000000000E+00 -0.00000000000E+00  0.00000000000E+00  0.93800000000E+00  0.93800000000E+00 0.  1.
         11    1    1    2    0    0 -0.25622683110E+00  0.64631115666E-01  0.17728101544E+01  0.17923965730E+01  0.51100000000E-03 0. -1.
    9000002    1    1    2    0    0  0.25800180604E+00  0.13787836362E+00  0.76643136565E-01  0.98554225960E+00  0.93800000000E+00 0.  1.
         22    1    1    2    0    0 -0.17749749374E-02 -0.20250947929E+00  0.21505466764E+01  0.21600611674E+01  0.00000000000E+00 0. -1.
</event>
<event>
 5    1  0.4838219E+001  0.1594989E+01  0.7818608E-02  0.3358820E+00
         11   -1    0    0    0    0  0.00000000000E+00  0.00000000000E+00  0.39999999674E+01  0.40000000000E+01  0.51100000000E-03 0. -1.
    9000002   -1    0    0    0    0 -0.00000000000E+00 -0.00000000000E+00  0.00000000000E+00  0.93800000000E+00  0.93800000000E+00 0. -1.
         11    1    1    2    0    0 -0.49703222703E-01 -0.75394776626E-01  0.15790013566E+01  0.15815815906E+01  0.51100000000E-03 0. -1.
    9000002    1    1    2    0    0  0.30714889365E+00  0.10525149676E+00  0.74222872100E-01  0.99537498220E+00  0.93800000000E+00 0. -1.
         22    1    1    2    0    0 -0.25744567095E+00 -0.29856720134E-01  0.23467757387E+01  0.23610434272E+01  0.00000000000E+00 0. -1.
</event>
<event>
 5    1  0.4838219E+001  0.1522886E+01  0.7818608E-02  0.3441562E+00
         11   -1    0    0    0    0  0.00000000000E+00  0.00000000000E+00  0.39999999674E+01  0.40000000000E+01  0.51100000000E-03 0. -1.
    9000002   -1    0    0    0    0 -0.00000000000E+00 -0.00000000000E+00  0.00000000000E+00  0.93800000000E+00  0.93800000000E+00 0. -1.
         11    1    1    2    0    0  0.25022860354E+00 -0.19610246852E+00  0.20178284831E+01  0.20427194082E+01  0.51100000000E-03 0. -1.
    9000002    1    1    2    0    0 -0.81228517257E-01 -0.12452745417E+00  0.73553752586E-01  0.95255409997E+00  0.93800000000E+00 0. -1.
         22    1    1    2    0    0 -0.16900008628E+00  0.32062992269E+00  0.19086177317E+01  0.19427264918E+01  0.00000000000E+00 0. -1.
</event>
<event>
 5    1  0.4838219E+001  0.1574778E+01  0.7818608E-02  0.3381202E+00
         11   -1    0    0    0    0  0.00000000000E+00  0.00000000000E+00  0.39999999674E+01  0.40000000000E+01  0.51100000000E-03 0. -1.
    9000002   -1    0    0    0    0 -0.00000000000E+00 -0.00000000000E+00  0.00000000000E+00  0.93800000000E+00  0.93800000000E+00 0. -1.
         11    1    1    2    0    0 -0.30476077733E-01 -0.17004933842E+00  0.23064281078E+01  0.23128891989E+01  0.51100000000E-03 0. -1.
    9000002    1    1    2    0    0  0.84469395739E-01 -0.28452705975E-01  0.23604756092E-01  0.94252099170E+00  0.93800000000E+00 0. -1.
         22    1    1    2    0    0 -0.53993318006E-01  0.19850204440E+00  0.16699671035E+01  0.16825898094E+01  0.00000000000E+00 0. -1.
</event>
<event>
 5    1  0.4838219E+001  0.1455603E+01  0.7818608E-02  0.3526726E+00
         11   -1    0    0    0    0  0.00000000000E+00  0.00000000000E+00  0.39999999674E+01  0.40000000000E+01  0.51100000000E-03 0. -1.
    9000002   -1    0    0    0    0 -0.00000000000E+00 -0.00000000000E+00  0.00000000000E+00  0.93800000000E+00  0.93800000000E+00 0.  1.
         11    1    1    2    0    0 -0.15089624751E+00  0.34240057750E+00  0.63959111088E+00  0.74100262025E+00  0.51100000000E-03 0. -1.
    9000002    1    1    2    0    0  0.28857906058E+00  0.68440241933E-01  0.19605687208E+00  0.10031172603E+01  0.93800000000E+00 0.  1.
         22    1    1    2    0    0 -0.13768281307E+00 -0.41084081943E+00  0.31643519844E+01  0.31938801194E+01  0.00000000000E+00 0. -1.
</event>
<event>
 5    1  0.4838219E+001  0.1590567E+01  0.7818608E-02  0.3363666E+00
         11   -1    0    0    0    0  0.00000000000E+00  0.00000000000E+00  0.39999999674E+01  0.40000000000E+01  0.51100000000E-03 0. -1.
    9000002   -1    0    0    0    0 -0.00000000000E+00 -0.00000000000E+00  0.00000000000E+00  0.93800000000E+00  0.93800000000E+00 0. -1.
         11    1    1    2    0    0 -0.10829010100E+00  0.22646606855E-02  0.65020974826E+00  0.65916982070E+00  0.51100000000E-03 0. -1.
    9000002    1    1    2    0    0  0.20602580517E+00  0.24421746107E+00  0.75473725289E-01  0.99379529275E+00  0.93800000000E+00 0. -1.
         22    1    1    2    0    0 -0.97735704169E-01 -0.24648212176E+00  0.32743164938E+01  0.32850348865E+01  0.00000000000E+00 0. -1.
</event>
<event>
 5    1  0.4838219E+001  0.1569470E+01  0.7818608E-02  0.3387181E+00
         11   -1    0    0    0    0  0.00000000000E+00  0.00000000000E+00  0.39999999674E+01  0.40000000000E+01  0.51100000000E-03 0. -1.
    9000002   -1    0    0    0    0 -0.00000000000E+00 -0.00000000000E+00  0.00000000000E+00  0.93800000000E+00  0.93800000000E+00 0.  1.
         11    1    1    2    0    0  0.18768653219E+00 -0.70728610698E-01  0.14997495545E+01  0.15131020316E+01  0.51100000000E-03 0. -1.
    9000002    1    1    2    0    0 -0.50410819332E-02 -0.27851772907E-01  0.22733177264E-01  0.93870225903E+00  0.93800000000E+00 0.  1.
         22    1    1    2    0    0 -0.18264545026E+00  0.98580383605E-01  0.24775172356E+01  0.24861957093E+01  0.00000000000E+00 0. -1.
</event>
<event>
 5    1  0.4838219E+001  0.1545308E+01  0.7818608E-02  0.3414951E+00
         11   -1    0    0    0    0  0.00000000000E+00  0.00000000000E+00  0.39999999674E+01  0.40000000000E+01  0.51100000000E-03 0.  1.
    9000002   -1    0    0    0    0 -0.00000000000E+00 -0.00000000000E+00  0.00000000000E+00  0.93800000000E+00  0.93800000000E+00 0.  1.
         11    1    1    2    0    0 -0.11150018274E+00 -0.19964718337E+00  0.78085261554E+00  0.81364756308E+00  0.51100000000E-03 0.  1.
    9000002    1    1    2    0    0  0.44104257251E-01 -0.68258183637E-03  0.41782901414E-01  0.93996567080E+00  0.93800000000E+00 0.  1.
         22    1    1    2    0    0  0.67395925487E-01  0.20032976521E+00  0.31773644504E+01  0.31843867661E+01  0.00000000000E+00 0.  1.
</event>
<event>
 5    1  0.4838219E+001  0.1560658E+01  0.7818608E-02  0.3397203E+00
         11   -1    0    0    0    0  0.00000000000E+00  0.00000000000E+00  0.39999999674E+01  0.40000000000E+01  0.51100000000E-03 0.  1.
    9000002   -1    0    0    0    0 -0.00000000000E+00 -0.00000000000E+00  0.00000000000E+00  0.93800000000E+00  0.93800000000E+00 0. -1.
         11    1    1    2    0    0  0.34621720093E+00  0.73052688216E-01  0.12782433278E+01  0.13263141828E+01  0.51100000000E-03 0.  1.
    9000002    1    1    2    0    0 -0.44327859207E+00  0.10808117698E+00  0.17621484809E+00  0.10578625259E+01  0.93800000000E+00 0. -1.
         22    1    1    2    0    0  0.97061391134E-01 -0.18113386520E+00  0.25455417915E+01  0.25538232913E+01  0.00000000000E+00 0.  1.
</event>
<event>
 5    1  0.4838219E+001  0.1517134E+01  0.7818608E-02  0.3448525E+00
         11   -1    0    0    0    0  0.00000000000E+00  0.00000000000E+00  0.39999999674E+01  0.40000000000E+01  0.51100000000E-03 0.  1.
    9000002   -1    0    0    0    0 -0.00000000000E+00 -0.00000000000E+00  0.00000000000E+00  0.93800000000E+00  0.93800000000E+00 0. -1.
         11    1    1    2    0    0  0.96488298048E-01  0.10386866727E+00  0.35433524098E+01  0.35461874250E+01  0.51100000000E-03 0.  1.
    9000002    1    1    2    0    0  0.10287368178E+00 -0.77757870133E-02  0.69927362177E-01  0.94624378109E+00  0.93800000000E+00 0. -1.
         22    1    1    2    0    0 -0.19936197983E+00 -0.96092880256E-01  0.38672019538E+00  0.44556879396E+00  0.00000000000E+00 0. -1.
</event>
<event>
 5    1  0.4838219E+001  0.1560872E+01  0.7818608E-02  0.3396958E+00
         11   -1    0    0    0    0  0.00000000000E+00  0.00000000000E+00  0.39999999674E+01  0.40000000000E+01  0.51100000000E-03 0. -1.
    9000002   -1    0    0    0    0 -0.00000000000E+00 -0.00000000000E+00  0.00000000000E+00  0.93800000000E+00  0.93800000000E+00 0.  1.
         11    1    1    2    0    0 -0.60484427915E-01  0.24568744183E+00  0.19276063166E+01  0.19441417279E+01  0.51100000000E-03 0. -1.
    9000002    1    1    2    0    0  0.78496463448E-01 -0.20174152338E-01  0.33123180421E-01  0.94207740461E+00  0.93800000000E+00 0.  1.
         22    1    1    2    0    0 -0.18012035533E-01 -0.22551328949E+00  0.20392704703E+01  0.20517808675E+01  0.00000000000E+00 0. -1.
</event>
<event>
 5    1  0.4838219E+001  0.1535875E+01  0.7818608E-02  0.3426045E+00
         11   -1    0    0    0    0  0.00000000000E+00  0.00000000000E+00  0.39999999674E+01  0.40000000000E+01  0.51100000000E-03 0.  1.
    9000002   -1    0    0    0    0 -0.00000000000E+00 -0.00000000000E+00  0.00000000000E+00  0.93800000000E+00  0.93800000000E+00 0. -1.
         11    1    1    2    0    0  0.91130446839E-01 -0.31970442148E+00  0.22965580059E+01  0.23204944755E+01  0.51100000000E-03 0.  1.
    9000002    1    1    2    0    0  0.33016347959E-01  0.70281873730E-01  0.51911267219E-01  0.94263906172E+00  0.93800000000E+00 0. -1.
         22    1    1    2    0    0 -0.12414679480E+00  0.24942254775E+00  0.16515306943E+01  0.16748664628E+01  0.00000000000E+00 0.  1.
</event>
<event>
 5    1  0.4838219E+001  0.1574063E+01  0.7818608E-02  0.3382004E+00
         11   -1    0    0    0    0  0.00000000000E+00  0.00000000000E+00  0.39999999674E+01  0.40000000000E+01  0.51100000000E-03 0.  1.
    9000002   -1    0    0    0    0 -0.00000000000E+00 -0.00000000000E+00  0.00000000000E+00  0.93800000000E+00  0.93800000000E+00 0.  1.
         11    1    1    2    0    0 -0.23984886466E+00  0.67644680335E-01  0.24417439950E+01  0.24544280961E+01  0.51100000000E-03 0.  1.
    9000002    1    1    2    0    0  0.21057744711E+00  0.13559749958E+00  0.61512728094E-01  0.97280900430E+00  0.93800000000E+00 0.  1.
         22    1    1    2    0    0  0.29271417549E-01 -0.20324217991E+00  0.14967432442E+01  0.15107628996E+01  0.00000000000E+00 0.  1.
</event>
<event>
 5    1  0.4838219E+001  0.1563452E+01  0.7818608E-02  0.3394012E+00
         11   -1    0    0    0    0  0.00000000000E+00  0.00000000000E+00  0.39999999674E+01  0.40000000000E+01  0.51100000000E-03 0.  1.
    9000002   -1    0    0    0    0 -0.00000000000E+00 -0.00000000000E+00  0.00000000000E+00  0.93800000000E+00  0.93800000000E+00 0.  1.
         11    1    1    2    0    0  0.24922718058E+00 -0.24352929975E+00  0.28716750098E+01  0.28927388977E+01  0.51100000000E-03 0.  1.
    9000002    1    1    2    0    0 -0.79465481843E-01  0.41069843424E+00  0.14952030772E+00  0.10378768179E+01  0.93800000000E+00 0.  1.
         22    1    1    2    0    0 -0.16976169873E+00 -0.16716913449E+00  0.97880464983E+00  0.10073842844E+01  0.00000000000E+00 0. -1.
</event>
<event>
 5    1  0.4838219E+001  0.1574876E+01  0.7818608E-02  0.3381092E+00
         11   -1    0    0    0    0  0.00000000000E+00  0.00000000000E+00  0.39999999674E+01  0.40000000000E+01  0.51100000000E-03 0.  1.
    9000002   -1    0    0    0    0 -0.00000000000E+00 -0.00000000000E+00  0.00000000000E+00  0.93800000000E+00  0.93800000000E+00 0. -1.
         11    1    1    2    0    0 -0.44022510432E-01 -0.16725621245E+00  0.66868944140E+00  0.69069418138E+00  0.51100000000E-03 0.  1.
    9000002    1    1    2    0    0  0.46819682513E+00  0.15738481470E+00  0.18941819596E+00  0.10768943773E+01  0.93800000000E+00 0. -1.
         22    1    1    2    0    0 -0.42417431470E+00  0.98713977519E-02  0.31418923300E+01  0.31704114413E+01  0.00000000000E+00 0.  1.
</event>
<event>
 5    1  0.5001117E+001  0.1560445E+01  0.7818608E-02  0.3397447E+00
         11   -1    0    0    0    0  0.00000000000E+00  0.00000000000E+00  0.39999999674E+01  0.40000000000E+01  0.51100000000E-03 0. -1.
    9000002   -1    0    0    0    0 -0.00000000000E+00 -0.00000000000E+00  0.00000000000E+00  0.93800000000E+00  0.93800000000E+00 0. -1.
         11    1    1    2    0    0 -0.18983645389E+00  0.13435946205E+00  0.13135557799E+01  0.13339862789E+01  0.51100000000E-03 0. -1.
    9000002    1    1    2    0    0  0.40242308843E-01  0.13364287445E-01  0.30180438355E-01  0.93944287025E+00  0.93800000000E+00 0. -1.
         22    1    1    2    0    0  0.14959414505E+00 -0.14772374949E+00  0.26562637491E+01  0.26645708509E+01  0.00000000000E+00 0.  1.
</event>
<event>
 5    1  0.4838219E+001  0.1546653E+01  0.7818608E-02  0.3413381E+00
         11   -1    0    0    0    0  0.00000000000E+00  0.00000000000E+00  0.39999999674E+01  0.40000000000E+01  0.51100000000E-03 0.  1.
    9000002   -1    0    0    0    0 -0.00000000000E+00 -0.00000000000E+00  0.00000000000E+00  0.93800000000E+00  0.93800000000E+00 0.  1.
         11    1    1    2    0    0  0.48856892953E-01  0.21901445189E+00  0.26218500382E+01  0.26314353897E+01  0.51100000000E-03 0.  1.
    9000002    1    1    2    0    0  0.40298547445E-01  0.48943627641E-01  0.42193206789E-01  0.94108645634E+00  0.93800000000E+00 0.  1.
         22    1    1    2    0    0 -0.89155440398E-01 -0.26795807953E+00  0.13359567223E+01  0.13654781539E+01  0.00000000000E+00 0. -1.
</event>
<event>
 5    1  0.4838219E+001  0.1599177E+01  0.7818608E-02  0.3354257E+00
         11   -1    0    0    0    0  0.00000000000E+00  0.00000000000E+00  0.39999999674E+01  0.40000000000E+01  0.51100000000E-03 0. -1.
    9000002   -1    0    0    0    0 -0.00000000000E+00 -0.00000000000E+00  0.00000000000E+00  0.93800000000E+00  0.93800000000E+00 0. -1.
         11    1    1    2    0    0 -0.12253545613E+00  0.29117923766E-01  0.11953259070E+01  0.12019430422E+01  0.51100000000E-03 0. -1.
    9000002    1    1    2    0    0  0.34111757914E+00 -0.41193053544E-01  0.79505148685E-01  0.10021093449E+01  0.93800000000E+00 0. -1.
         22    1    1    2    0    0 -0.21858212300E+00  0.12075129778E-01  0.27251689116E+01  0.27339476129E+01  0.00000000000E+00 0. -1.
</event>
<event>
 5    1  0.4838219E+001  0.1221671E+01  0.7818608E-02  0.3943713E+00
         11   -1    0    0    0    0  0.00000000000E+00  0.00000000000E+00  0.39999999674E+01  0.40000000000E+01  0.51100000000E-03 0.  1.
    9000002   -1    0    0    0    0 -0.00000000000E+00 -0.00000000000E+00  0.00000000000E+00  0.93800000000E+00  0.93800000000E+00 0. -1.
         11    1    1    2    0    0 -0.53535877540E+00  0.29907598671E+00  0.43513552378E+00  0.75192994980E+00  0.51100000000E-03 0.  1.
    9000002    1    1    2    0    0  0.10470868897E+00 -0.52860974029E+00  0.71958663693E+00  0.12992463566E+01  0.93800000000E+00 0. -1.
         22    1    1    2    0    0  0.43065008643E+00  0.22953375358E+00  0.28452778067E+01  0.28868236936E+01  0.00000000000E+00 0.  1.
</event>
<event>
 5    1  0.4838219E+001  0.1515682E+01  0.7818608E-02  0.3450292E+00
         11   -1    0    0    0    0  0.00000000000E+00  0.00000000000E+00  0.39999999674E+01  0.40000000000E+01  0.51100000000E-03 0. -1.
    9000002   -1    0    0    0    0 -0.00000000000E+00 -0.00000000000E+00  0.00000000000E+00  0.93800000000E+00  0.93800000000E+00 0.  1.
         11    1    1    2    0    0  0.24816622567E+00  0.16266289475E+00  0.31704994985E+01  0.31843544125E+01  0.51100000000E-03 0. -1.
    9000002    1    1    2    0    0 -0.11035743814E-01 -0.25418494025E-01  0.63997912400E-01  0.94058897520E+00  0.93800000000E+00 0.  1.
         22    1    1    2    0    0 -0.23713048186E+00 -0.13724440072E+00  0.76550255641E+00  0.81305661232E+00  0.00000000000E+00 0. -1.
</event>
<event>
 5    1  0.4838219E+001  0.1585524E+01  0.7818608E-02  0.3369227E+00
         11   -1    0    0    0    0  0.00000000000E+00  0.00000000000E+00  0.39999999674E+01  0.40000000000E+01  0.51100000000E-03 0. -1.
    9000002   -1    0    0    0    0 -0.00000000000E+00 -0.00000000000E+00  0.00000000000E+00  0.93800000000E+00  0.93800000000E+00 0. -1.
         11    1    1    2    0    0  0.97339825473E-02 -0.68551781307E-01  0.68348099071E+00  0.68697934679E+00  0.51100000000E-03 0. -1.
    9000002    1    1    2    0    0  0.89547244931E-01 -0.21245826674E+00  0.46067752950E-01  0.96701781889E+00  0.93800000000E+00 0. -1.
         22    1    1    2    0    0 -0.99281227478E-01  0.28101004805E+00  0.32704512237E+01  0.32840028343E+01  0.00000000000E+00 0. -1.
</event>
<event>
 5    1  0.4838219E+001  0.1563812E+01  0.7818608E-02  0.3393602E+00
         11   -1    0    0    0    0  0.00000000000E+00  0.00000000000E+00  0.39999999674E+01  0.40000000000E+01  0.51100000000E-03 0.  1.
    9000002   -1    0    0    0    0 -0.00000000000E+00 -0.00000000000E+00  0.00000000000E+00  0.93800000000E+00  0.93800000000E+00 0.  1.
         11    1    1    2    0    0 -0.49660544185E-01  0.24225952782E+00  0.15416478545E+01  0.15613565310E+01  0.51100000000E-03 0.  1.
    9000002    1    1    2    0    0  0.16227735971E+00 -0.51940203765E-01  0.46298126974E-01  0.95447328030E+00  0.93800000000E+00 0.  1.
         22    1    1    2    0    0 -0.11261681552E+00 -0.19031932406E+00  0.24120539859E+01  0.24221701887E+01  0.00000000000E+00 0.  1.
</event>
<event>
 5    1  0.5117752E+001  0.1561724E+01  0.7818608E-02  0.3395984E+00
         11   -1    0    0    0    0  0.00000000000E+00  0.00000000000E+00  0.39999999674E+01  0.40000000000E+01  0.51100000000E-03 0. -1.
    9000002   -1    0    0    0    0 -0.00000000000E+00 -0.00000000000E+00  0.00000000000E+00  0.93800000000E+00  0.93800000000E+00 0.  1.
         11    1    1    2    0    0  0.15714965292E+00  0.20412041297E+00  0.24988227558E+01  0.25120661979E+01  0.51100000000E-03 0. -1.
    9000002    1    1    2    0    0 -0.11186598161E-01 -0.54911154250E-01  0.30133891755E-01  0.94015553302E+00  0.93800000000E+00 0.  1.
         22    1    1    2    0    0 -0.14596305476E+00 -0.14920925872E+00  0.14710433198E+01  0.14857782691E+01  0.00000000000E+00 0.  1.
</event>
<event>
 5    1  0.4838219E+001  0.1584409E+01  0.7818608E-02  0.3370461E+00
         11   -1    0    0    0    0  0.00000000000E+00  0.00000000000E+00  0.39999999674E+01  0.40000000000E+01  0.51100000000E-03 0. -1.
    9000002   -1    0    0    0    0 -0.00000000000E+00 -0.00000000000E+00  0.00000000000E+00  0.93800000000E+00  0.93800000000E+00 0. -1.
         11    1    1    2    0    0 -0.19090525519E-01  0.59157715259E+00  0.18820437772E+01  0.19729209351E+01  0.51100000000E-03 0. -1.
    9000002    1    1    2    0    0 -0.94942943526E-02 -0.81760113563E+00  0.51614831876E+00  0.13471506395E+01  0.93800000000E+00 0. -1.
         22    1    1    2    0    0  0.28584819871E-01  0.22602398304E+00  0.16018078714E+01  0.16179284254E+01  0.00000000000E+00 0. -1.
</event>
<event>
 5    1  0.4838219E+001  0.1488878E+01  0.7818608E-02  0.3483569E+00
         11   -1    0    0    0    0  0.00000000000E+00  0.00000000000E+00  0.39999999674E+01  0.40000000000E+01  0.51100000000E-03 0. -1.
    9000002   -1    0    0    0    0 -0.00000000000E+00 -0.00000000000E+00  0.00000000000E+00  0.93800000000E+00  0.93800000000E+00 0. -1.
         11    1    1    2    0    0 -0.55530860555E+00  0.52097037673E+00  0.20373238070E+01  0.21749635254E+01  0.51100000000E-03 0. -1.
    9000002    1    1    2    0    0  0.59538713679E+00 -0.31892964867E+00  0.45636044180E+00  0.12427030282E+01  0.93800000000E+00 0. -1.
         22    1    1    2    0    0 -0.40078531242E-01 -0.20204072806E+00  0.15063157185E+01  0.15203334464E+01  0.00000000000E+00 0. -1.
</event>
<event>
 5    1  0.4838219E+001  0.1506189E+01  0.7818608E-02  0.3461931E+00
         11   -1    0    0    0    0  0.00000000000E+00  0.00000000000E+00  0.39999999674E+01  0.40000000000E+01  0.51100000000E-03 0. -1.
    9000002   -1    0    0    0    0 -0.00000000000E+00 -0.00000000000E+00  0.00000000000E+00  0.93800000000E+00  0.93800000000E+00 0. -1.
         11    1    1    2    0    0 -0.20983879862E+00  0.26379919162E+00  0.18598846949E+01  0.18901835028E+01  0.51100000000E-03 0. -1.
    9000002    1    1    2    0    0 -0.77723986382E-01  0.17893295986E-01  0.75592187067E-01  0.94441482774E+00  0.93800000000E+00 0. -1.
         22    1    1    2    0    0  0.28756278500E+00 -0.28169248760E+00  0.20645230854E+01  0.21034016695E+01  0.00000000000E+00 0. -1.
</event>
<event>
 5    1  0.4838219E+001  0.1453315E+01  0.7818608E-02  0.3529772E+00
         11   -1    0    0    0    0  0.00000000000E+00  0.00000000000E+00  0.39999999674E+01  0.40000000000E+01  0.51100000000E-03 0.  1.
    9000002   -1    0    0    0    0 -0.00000000000E+00 -0.00000000000E+00  0.00000000000E+00  0.93800000000E+00  0.93800000000E+00 0.  1.
         11    1    1    2    0    0 -0.43049426328E-01 -0.15498311076E+00  0.53196144590E-01  0.16941991810E+00  0.51100000000E-03 0.  1.
    9000002    1    1    2    0    0  0.25188436483E+00 -0.64188852637E-02  0.17419474277E+00  0.98674958512E+00  0.93800000000E+00 0.  1.
         22    1    1    2    0    0 -0.20883493850E+00  0.16140199602E+00  0.37726090800E+01  0.37818304968E+01  0.00000000000E+00 0.  1.
</event>
<event>
 5    1  0.4838219E+001  0.1476082E+01  0.7818608E-02  0.3499914E+00
         11   -1    0    0    0    0  0.00000000000E+00  0.00000000000E+00  0.39999999674E+01  0.40000000000E+01  0.51100000000E-03 0. -1.
    9000002   -1    0    0    0    0 -0.00000000000E+00 -0.00000000000E+00  0.00000000000E+00  0.93800000000E+00  0.93800000000E+00 0. -1.
         11    1    1    2    0    0  0.20274860265E+00  0.31503407717E+00  0.90249509307E+00  0.97716483757E+00  0.51100000000E-03 0. -1.
    9000002    1    1    2    0    0 -0.18959941200E+00  0.41494915284E-01  0.12383662577E+00  0.96584122655E+00  0.93800000000E+00 0. -1.
         22    1    1    2    0    0 -0.13149190650E-01 -0.35652899246E+00  0.29736682485E+01  0.29949939359E+01  0.00000000000E+00 0. -1.
</event>
<event>
 5    1  0.4838219E+001  0.1523142E+01  0.7818608E-02  0.3441254E+00
         11   -1    0    0    0    0  0.00000000000E+00  0.00000000000E+00  0.39999999674E+01  0.40000000000E+01  0.51100000000E-03 0. -1.
    9000002   -1    0    0    0    0 -0.00000000000E+00 -0.00000000000E+00  0.00000000000E+00  0.93800000000E+00  0.93800000000E+00 0.  1.
         11    1    1    2    0    0  0.20121384221E+00 -0.22894749493E+00  0.13406583133E+01  0.13748705175E+01  0.51100000000E-03 0. -1.
    9000002    1    1    2    0    0  0.24773653087E-01 -0.21110083074E-01  0.58334390810E-01  0.94037560084E+00  0.93800000000E+00 0.  1.
         22    1    1    2    0    0 -0.22598749530E+00  0.25005757800E+00  0.26010072633E+01  0.26227538817E+01  0.00000000000E+00 0. -1.
</event>
<event>
 5    1  0.4838219E+001  0.1576257E+01  0.7818608E-02  0.3379543E+00
         11   -1    0    0    0    0  0.00000000000E+00  0.00000000000E+00  0.39999999674E+01  0.40000000000E+01  0.51100000000E-03 0. -1.
    9000002   -1    0    0    0    0 -0.00000000000E+00 -0.00000000000E+00  0.00000000000E+00  0.93800000000E+00  0.93800000000E+00 0.  1.
         11    1    1    2    0    0  0.37790957261E-01 -0.11984804011E+00  0.16933909969E+01  0.16980474194E+01  0.51100000000E-03 0. -1.
    9000002    1    1    2    0    0  0.50705713555E-01 -0.12277535986E+00  0.29056420089E-01  0.94780437535E+00  0.93800000000E+00 0.  1.
         22    1    1    2    0    0 -0.88496670816E-01  0.24262339997E+00  0.22775525504E+01  0.22921482052E+01  0.00000000000E+00 0. -1.
</event>
<event>
 5    1  0.4838219E+001  0.1594444E+01  0.7818608E-02  0.3359416E+00
         11   -1    0    0    0    0  0.00000000000E+00  0.00000000000E+00  0.39999999674E+01  0.40000000000E+01  0.51100000000E-03 0. -1.
    9000002   -1    0    0    0    0 -0.00000000000E+00 -0.00000000000E+00  0.00000000000E+00  0.93800000000E+00  0.93800000000E+00 0. -1.
         11    1    1    2    0    0 -0.35530850197E-01 -0.69654203855E-02  0.14285806866E+01  0.14290395367E+01  0.51100000000E-03 0. -1.
    9000002    1    1    2    0    0  0.97853768630E-01  0.25072452206E+00  0.52238415887E-01  0.97724664138E+00  0.93800000000E+00 0. -1.
         22    1    1    2    0    0 -0.62322918433E-01 -0.24375910167E+00  0.25191808649E+01  0.25317138219E+01  0.00000000000E+00 0. -1.
</event>
<event>
 5    1  0.4838219E+001  0.1552344E+01  0.7818608E-02  0.3406769E+00
         11   -1    0    0    0    0  0.00000000000E+00  0.00000000000E+00  0.39999999674E+01  0.40000000000E+01  0.51100000000E-03 0. -1.
    9000002   -1    0    0    0    0 -0.00000000000E+00 -0.00000000000E+00  0.00000000000E+00  0.93800000000E+00  0.93800000000E+00 0. -1.
         11    1    1    2    0    0  0.26235972919E+00 -0.10532047302E+00  0.21603073282E+01  0.21787273906E+01  0.51100000000E-03 0. -1.
    9000002    1    1    2    0    0 -0.11116943777E+00 -0.10951595748E+00  0.51927708791E-01  0.95230923327E+00  0.93800000000E+00 0. -1.
         22    1    1    2    0    0 -0.15119029142E+00  0.21483643050E+00  0.17877649304E+01  0.18069633761E+01  0.00000000000E+00 0. -1.
</event>
<event>
 5    1  0.4838219E+001  0.1556116E+01  0.7818608E-02  0.3402416E+00
         11   -1    0    0    0    0  0.00000000000E+00  0.00000000000E+00  0.39999999674E+01  0.40000000000E+01  0.51100000000E-03 0. -1.
    9000002   -1    0    0    0    0 -0.00000000000E+00 -0.00000000000E+00  0.00000000000E+00  0.93800000000E+00  0.93800000000E+00 0.  1.
         11    1    1    2    0    0  0.94053413830E-01  0.23217218145E+00  0.18651812663E+01  0.18819275714E+01  0.51100000000E-03 0. -1.
    9000002    1    1    2    0    0  0.67928529540E-01 -0.32831861985E-01  0.36128534975E-01  0.94172261698E+00  0.93800000000E+00 0.  1.
         22    1    1    2    0    0 -0.16198194337E+00 -0.19934031947E+00  0.20986901660E+01  0.21143498116E+01  0.00000000000E+00 0.  1.
</event>
<event>
 5    1  0.4838219E+001  0.1478426E+01  0.7818608E-02  0.3496898E+00
         11   -1    0    0    0    0  0.00000000000E+00  0.00000000000E+00  0.39999999674E+01  0.40000000000E+01  0.51100000000E-03 0.  1.
    9000002   -1    0    0    0    0 -0.00000000000E+00 -0.00000000000E+00  0.00000000000E+00  0.93800000000E+00  0.93800000000E+00 0.  1.
         11    1    1    2    0    0  0.34239769530E+00 -0.16798895263E+00  0.83685894818E+00  0.91966821747E+00  0.51100000000E-03 0.  1.
    9000002    1    1    2    0    0 -0.22879578108E+00 -0.11680318597E+00  0.14338942106E+00  0.98305392516E+00  0.93800000000E+00 0.  1.
         22    1    1    2    0    0 -0.11360191422E+00  0.28479213860E+00  0.30197515981E+01  0.30352778574E+01  0.00000000000E+00 0.  1.
</event>
<event>
 5    1  0.4838219E+001  0.1551698E+01  0.7818608E-02  0.3407517E+00
         11   -1    0    0    0    0  0.00000000000E+00  0.00000000000E+00  0.39999999674E+01  0.40000000000E+01  0.51100000000E-03 0. -1.
    9000002   -1    0    0    0    0 -0.00000000000E+00 -0.00000000000E+00  0.00000000000E+00  0.93800000000E+00  0.93800000000E+00 0.  1.
         11    1    1    2    0    0 -0.18472322688E-01  0.22199533493E+00  0.11631293751E+01  0.11842691248E+01  0.51100000000E-03 0. -1.
    9000002    1    1    2    0    0  0.46501013841E+00 -0.42567216251E-01  0.19176709222E+00  0.10652065595E+01  0.93800000000E+00 0.  1.
         22    1    1    2    0    0 -0.44653781572E+00 -0.17942811868E+00  0.26451035000E+01  0.26885243158E+01  0.00000000000E+00 0. -1.
</event>
<event>
 5    1  0.4838219E+001  0.1557523E+01  0.7818608E-02  0.3400797E+00
         11   -1    0    0    0    0  0.00000000000E+00  0.00000000000E+00  0.39999999674E+01  0.40000000000E+01  0.51100000000E-03 0. -1.
    9000002   -1    0    0    0    0 -0.00000000000E+00 -0.00000000000E+00  0.00000000000E+00  0.93800000000E+00  0.93800000000E+00 0. -1.
         11    1    1    2    0    0  0.87201786577E-01  0.15952950419E+00  0.30015017064E+01  0.30070029214E+01  0.51100000000E-03 0. -1.
    9000002    1    1    2    0    0 -0.43642066063E-01  0.60961894879E-01  0.35010616246E-01  0.94164256797E+00  0.93800000000E+00 0. -1.
         22    1    1    2    0    0 -0.43559720514E-01 -0.22049139907E+00  0.96348764469E+00  0.98935451067E+00  0.00000000000E+00 0. -1.
</event>
<event>
 5    1  0.4838219E+001  0.1585432E+01  0.7818608E-02  0.3369329E+00
         11   -1    0    0    0    0  0.00000000000E+00  0.00000000000E+00  0.39999999674E+01  0.40000000000E+01  0.51100000000E-03 0.  1.
    9000002   -1    0    0    0    0 -0.00000000000E+00 -0.00000000000E+00  0.00000000000E+00  0.93800000000E+00  0.93800000000E+00 0.  1.
         11    1    1    2    0    0  0.19046740840E+00 -0.12604614993E+00  0.92109973986E+00  0.94899444544E+00  0.51100000000E-03 0.  1.
    9000002    1    1    2    0    0 -0.33624759278E+00  0.28887543885E+00  0.14567900747E+00  0.10476534904E+01  0.93800000000E+00 0.  1.
         22    1    1    2    0    0  0.14578018438E+00 -0.16282928891E+00  0.29332212200E+01  0.29413520641E+01  0.00000000000E+00 0.  1.
</event>
<event>
 5    1  0.4838219E+001  0.1524196E+01  0.7818608E-02  0.3439984E+00
         11   -1    0    0    0    0  0.00000000000E+00  0.00000000000E+00  0.39999999674E+01  0.40000000000E+01  0.51100000000E-03 0. -1.
    9000002   -1    0    0    0    0 -0.00000000000E+00 -0.00000000000E+00  0.00000000000E+00  0.93800000000E+00  0.93800000000E+00 0.  1.
         11    1    1    2    0    0 -0.21793520811E+00 -0.71259197668E-01  0.59256023639E+00  0.63537510422E+00  0.51100000000E-03 0. -1.
    9000002    1    1    2    0    0 -0.71731773586E-01  0.16551687824E-01  0.60606472797E-01  0.94283431750E+00  0.93800000000E+00 0.  1.
         22    1    1    2    0    0  0.28966698169E+00  0.54707509844E-01  0.33468332582E+01  0.33597905783E+01  0.00000000000E+00 0. -1.
</event>
<event>
 5    1  0.4838219E+001  0.1563650E+01  0.7818608E-02  0.3393787E+00
         11   -1    0    0    0    0  0.00000000000E+00  0.00000000000E+00  0.39999999674E+01  0.40000000000E+01  0.51100000000E-03 0.  1.
    9000002   -1    0    0    0    0 -0.00000000000E+00 -0.00000000000E+00  0.00000000000E+00  0.93800000000E+00  0.93800000000E+00 0. -1.
         11    1    1    2    0    0 -0.20377113614E+00  0.23767262626E-01  0.26898187566E+01  0.26976309538E+01  0.51100000000E-03 0.  1.
    9000002    1    1    2    0    0 -0.14767330985E-01 -0.40441597799E-01  0.27806247596E-01  0.93939916133E+00  0.93800000000E+00 0. -1.
         22    1    1    2    0    0  0.21853846712E+00  0.16674335174E-01  0.12823749632E+01  0.13009698849E+01  0.00000000000E+00 0.  1.
</event>
<event>
 5    1  0.4838219E+001  0.1477124E+01  0.7818608E-02  0.3498573E+00
         11   -1    0    0    0    0  0.00000000000E+00  0.00000000000E+00  0.39999999674E+01  0.40000000000E+01  0.51100000000E-03 0. -1.
    9000002   -1    0    0    0    0 -0.00000000000E+00 -0.00000000000E+00  0.00000000000E+00  0.93800000000E+00  0.93800000000E+00 0. -1.
         11    1    1    2    0    0  0.44700968804E-01  0.39028000968E+00  0.83302090440E+00  0.92099986474E+00  0.51100000000E-03 0. -1.
    9000002    1    1    2    0    0 -0.12369379100E+00 -0.17679230743E+00  0.12969209935E+00  0.97119499305E+00  0.93800000000E+00 0. -1.
         22    1    1    2    0    0  0.78992822195E-01 -0.21348770225E+00  0.30372869636E+01  0.30458051422E+01  0.00000000000E+00 0. -1.
</event>
<event>
 5    1  0.4838219E+001  0.1584136E+01  0.7818608E-02  0.3370764E+00
         11   -1    0    0    0    0  0.00000000000E+00  0.00000000000E+00  0.39999999674E+01  0.40000000000E+01  0.51100000000E-03 0. -1.
    9000002   -1    0    0    0    0 -0.00000000000E+00 -0.00000000000E+00  0.00000000000E+00  0.93800000000E+00  0.93800000000E+00 0. -1.
         11    1    1    2    0    0  0.63406719920E-04  0.33598642748E-01  0.87107689824E+00  0.87172478259E+00  0.51100000000E-03 0. -1.
    9000002    1    1    2    0    0 -0.30932676161E+00  0.31382558574E+00  0.14514520412E+00  0.10464610236E+01  0.93800000000E+00 0. -1.
         22    1    1    2    0    0  0.30926335489E+00 -0.34742422849E+00  0.29837778650E+01  0.30198141938E+01  0.00000000000E+00 0. -1.
</event>
<event>
 5    1  0.4838219E+001  0.1342614E+01  0.7818608E-02  0.3703520E+00
         11   -1    0    0    0    0  0.00000000000E+00  0.00000000000E+00  0.39999999674E+01  0.40000000000E+01  0.51100000000E-03 0. -1.
    9000002   -1    0    0    0    0 -0.00000000000E+00 -0.00000000000E+00  0.00000000000E+00  0.93800000000E+00  0.93800000000E+00 0.  1.
         11    1    1    2    0    0 -0.55048441330E+00 -0.16691724559E+00  0.30557918295E+01  0.31094627225E+01  0.51100000000E-03 0. -1.
    9000002    1    1    2    0    0  0.88511850678E-01  0.26066798471E+00  0.28524540549E+00  0.10183275933E+01  0.93800000000E+00 0.  1.
         22    1    1    2    0    0  0.46197256262E+00 -0.93750739123E-01  0.65896273233E+00  0.81020968415E+00  0.00000000000E+00 0. -1.
</event>
<event>
 5    1  0.4838219E+001  0.1555177E+01  0.7818608E-02  0.3403498E+00
         11   -1    0    0    0    0  0.00000000000E+00  0.00000000000E+00  0.39999999674E+01  0.40000000000E+01  0.51100000000E-03 0. -1.
    9000002   -1    0    0    0    0 -0.00000000000E+00 -0.00000000000E+00  0.00000000000E+00  0.93800000000E+00  0.93800000000E+00 0. -1.
         11    1    1    2    0    0  0.12428950901E+00  0.12812987429E+00  0.56135078537E+00  0.58905017790E+00  0.51100000000E-03 0. -1.
    9000002    1    1    2    0    0 -0.91346273849E-01  0.81147150059E-01  0.43213088347E-01  0.94691096346E+00  0.93800000000E+00 0. -1.
         22    1    1    2    0    0 -0.32943235164E-01 -0.20927702435E+00  0.33954360936E+01  0.34020388586E+01  0.00000000000E+00 0. -1.
</event>
<event>
 5    1  0.4838219E+001  0.1577714E+01  0.7818608E-02  0.3377913E+00
         11   -1    0    0    0    0  0.00000000000E+00  0.00000000000E+00  0.39999999674E+01  0.40000000000E+01  0.51100000000E-03 0. -1.
    9000002   -1    0    0    0    0 -0.00000000000E+00 -0.00000000000E+00  0.00000000000E+00  0.93800000000E+00  0.93800000000E+00 0. -1.
         11    1    1    2    0    0  0.75443821699E-01 -0.70148906819E-01  0.32709768530E+00  0.34293701493E+00  0.51100000000E-03 0. -1.
    9000002    1    1    2    0    0 -0.18537762260E+00 -0.10673511389E+00  0.47046858899E-01  0.96323136080E+00  0.93800000000E+00 0. -1.
         22    1    1    2    0    0  0.10993380091E+00  0.17688402071E+00  0.36258554232E+01  0.36318316243E+01  0.00000000000E+00 0. -1.
</event>
<event>
 5    1  0.4838219E+001  0.1560317E+01  0.7818608E-02  0.3397593E+00
         11   -1    0    0    0    0  0.00000000000E+00  0.00000000000E+00  0.39999999674E+01  0.40000000000E+01  0.51100000000E-03 0. -1.
    9000002   -1    0    0    0    0 -0.00000000000E+00 -0.00000000000E+00  0.00000000000E+00  0.93800000000E+00  0.93800000000E+00 0.  1.
         11    1    1    2    0    0 -0.52283427850E-01  0.11642142579E+00  0.30320000718E+01  0.30346848604E+01  0.51100000000E-03 0. -1.
    9000002    1    1    2    0    0 -0.17497118582E-01  0.99561675387E-01  0.36046099942E-01  0.94411969458E+00  0.93800000000E+00 0.  1.
         22    1    1    2    0    0  0.69780546432E-01 -0.21598310118E+00  0.93195379559E+00  0.95919544503E+00  0.00000000000E+00 0. -1.
</event>
<event>
 5    1  0.4838219E+001  0.1515031E+01  0.7818608E-02  0.3451085E+00
         11   -1    0    0    0    0  0.00000000000E+00  0.00000000000E+00  0.39999999674E+01  0.40000000000E+01  0.51100000000E-03 0.  1.
    9000002   -1    0    0    0    0 -0.00000000000E+00 -0.00000000000E+00  0.00000000000E+00  0.93800000000E+00  0.93800000000E+00 0. -1.
         11    1    1    2    0    0  0.25983498749E+00  0.24309166494E+00  0.11813410465E+01  0.12337644457E+01  0.51100000000E-03 0.  1.
    9000002    1    1    2    0    0 -0.11527333756E+00 -0.38909581272E-01  0.74598518289E-01  0.94879441229E+00  0.93800000000E+00 0. -1.
         22    1    1    2    0    0 -0.14456164993E+00 -0.20418208367E+00  0.27440604026E+01  0.27554411420E+01  0.00000000000E+00 0.  1.
</event>
<event>
 5    1  0.4838219E+001  0.1525903E+01  0.7818608E-02  0.3437933E+00
         11   -1    0    0    0    0  0.00000000000E+00  0.00000000000E+00  0.39999999674E+01  0.40000000000E+01  0.51100000000E-03 0. -1.
    9000002   -1    0    0    0    0 -0.00000000000E+00 -0.00000000000E+00  0.00000000000E+00  0.93800000000E+00  0.93800000000E+00 0.  1.
         11    1    1    2    0    0 -0.17091680849E+00 -0.27185024930E+00  0.78931958482E+00  0.85213894499E+00  0.51100000000E-03 0. -1.
    9000002    1    1    2    0    0  0.36332287349E+00  0.10372459492E+00  0.15919153053E+00  0.10236934333E+01  0.93800000000E+00 0.  1.
         22    1    1    2    0    0 -0.19240606500E+00  0.16812565438E+00  0.30514888520E+01  0.30621676217E+01  0.00000000000E+00 0. -1.
</event>
<event>
 5    1  0.4838219E+001  0.1584775E+01  0.7818608E-02  0.3370055E+00
         11   -1    0    0    0    0  0.00000000000E+00  0.00000000000E+00  0.39999999674E+01  0.40000000000E+01  0.51100000000E-03 0. -1.
    9000002   -1    0    0    0    0 -0.00000000000E+00 -0.00000000000E+00  0.00000000000E+00  0.93800000000E+00  0.93800000000E+00 0. -1.
         11    1    1    2    0    0 -0.66252270280E-01 -0.24221846919E-01  0.23159394791E+01  0.23170135937E+01  0.51100000000E-03 0. -1.
    9000002    1    1    2    0    0 -0.13522132789E+00  0.40405382607E-01  0.24201339647E-01  0.94886622203E+00  0.93800000000E+00 0. -1.
         22    1    1    2    0    0  0.20147359817E+00 -0.16183535688E-01  0.16598591486E+01  0.16721201843E+01  0.00000000000E+00 0. -1.
</event>
<event>
 5    1  0.4838219E+001  0.1530204E+01  0.7818608E-02  0.3432785E+00
         11   -1    0    0    0    0  0.00000000000E+00  0.00000000000E+00  0.39999999674E+01  0.40000000000E+01  0.51100000000E-03 0.  1.
    9000002   -1    0    0    0    0 -0.00000000000E+00 -0.00000000000E+00  0.00000000000E+00  0.93800000000E+00  0.93800000000E+00 0.  1.
         11    1    1    2    0    0  0.31853736960E+00 -0.37301320232E+00  0.18481729626E+01  0.19121580651E+01  0.51100000000E-03 0.  1.
    9000002    1    1    2    0    0 -0.73512174541E-01  0.46555731612E+00  0.21520675164E+00  0.10715902203E+01  0.93800000000E+00 0.  1.
         22    1    1    2    0    0 -0.24502519505E+00 -0.92544113791E-01  0.19366202531E+01  0.19542517146E+01  0.00000000000E+00 0.  1.
</event>
<event>
 5    1  0.4838219E+001  0.1565793E+01  0.7818608E-02  0.3391348E+00
         11   -1    0    0    0    0  0.00000000000E+00  0.00000000000E+00  0.39999999674E+01  0.40000000000E+01  0.51100000000E-03 0. -1.
    9000002   -1    0    0    0    0 -0.00000000000E+00 -0.00000000000E+00  0.00000000000E+00  0.93800000000E+00  0.93800000000E+00 0. -1.
         11    1    1    2    0    0 -0.64671061406E-02  0.23860984095E+00  0.21988402795E+01  0.22117584216E+01  0.51100000000E-03 0. -1.
    9000002    1    1    2    0    0 -0.70480956883E-01 -0.41820369362E-01  0.29509786780E-01  0.94203574035E+00  0.93800000000E+00 0. -1.
         22    1    1    2    0    0  0.76948063023E-01 -0.19678947159E+00  0.17716499011E+01  0.17842058381E+01  0.00000000000E+00 0. -1.
</event>
<event>
 5    1  0.4838219E+001  0.1449044E+01  0.7818608E-02  0.3535486E+00
         11   -1    0    0    0    0  0.00000000000E+00  0.00000000000E+00  0.39999999674E+01  0.40000000000E+01  0.51100000000E-03 0. -1.
    9000002   -1    0    0    0    0 -0.00000000000E+00 -0.00000000000E+00  0.00000000000E+00  0.93800000000E+00  0.93800000000E+00 0. -1.
         11    1    1    2    0    0  0.69441329523E-01 -0.39886487856E+00  0.91345987930E+00  0.99916189970E+00  0.51100000000E-03 0. -1.
    9000002    1    1    2    0    0  0.75767601042E-01  0.18006632789E-01  0.12512945116E+00  0.94950847692E+00  0.93800000000E+00 0. -1.
         22    1    1    2    0    0 -0.14520893056E+00  0.38085824577E+00  0.29614106369E+01  0.29893296234E+01  0.00000000000E+00 0. -1.
</event>
<event>
 5    1  0.4838219E+001  0.1569704E+01  0.7818608E-02  0.3386917E+00
         11   -1    0    0    0    0  0.00000000000E+00  0.00000000000E+00  0.39999999674E+01  0.40000000000E+01  0.51100000000E-03 0. -1.
    9000002   -1    0    0    0    0 -0.00000000000E+00 -0.00000000000E+00  0.00000000000E+00  0.93800000000E+00  0.93800000000E+00 0.  1.
         11    1    1    2    0    0 -0.21507266302E+00 -0.85025097378E-01  0.19020703257E+01  0.19160786264E+01  0.51100000000E-03 0. -1.
    9000002    1    1    2    0    0  0.15220260764E-01  0.15058123521E+00  0.37591309309E-01  0.95087510813E+00  0.93800000000E+00 0.  1.
         22    1    1    2    0    0  0.19985240225E+00 -0.65556137829E-01  0.20603383323E+01  0.20710462654E+01  0.00000000000E+00 0.  1.
</event>
<event>
 5    1  0.4838219E+001  0.1459325E+01  0.7818608E-02  0.3521793E+00
         11   -1    0    0    0    0  0.00000000000E+00  0.00000000000E+00  0.39999999674E+01  0.40000000000E+01  0.51100000000E-03 0.  1.
    9000002   -1    0    0    0    0 -0.00000000000E+00 -0.00000000000E+00  0.00000000000E+00  0.93800000000E+00  0.93800000000E+00 0. -1.
         11    1    1    2    0    0 -0.22457652021E+00  0.29703450070E+00  0.30345714868E+00  0.48036508017E+00  0.51100000000E-03 0.  1.
    9000002    1    1    2    0    0  0.49870936259E+00 -0.42186346289E+00  0.50113692385E+00  0.12480633101E+01  0.93800000000E+00 0. -1.
         22    1    1    2    0    0 -0.27413284238E+00  0.12482896218E+00  0.31954058948E+01  0.32095716097E+01  0.00000000000E+00 0.  1.
</event>
<event>
 5    1  0.4838219E+001  0.1536651E+01  0.7818608E-02  0.3425127E+00
         11   -1    0    0    0    0  0.00000000000E+00  0.00000000000E+00  0.39999999674E+01  0.40000000000E+01  0.51100000000E-03 0. -1.
    9000002   -1    0    0    0    0 -0.00000000000E+00 -0.00000000000E+00  0.00000000000E+00  0.93800000000E+00  0.93800000000E+00 0.  1.
         11    1    1    2    0    0 -0.60722608010E-01  0.24356621753E+00  0.18962753221E+01  0.19128178417E+01  0.51100000000E-03 0. -1.
    9000002    1    1    2    0    0 -0.92673096897E-01  0.81902716397E-01  0.57824482494E-01  0.94788397424E+00  0.93800000000E+00 0.  1.
         22    1    1    2    0    0  0.15339570491E+00 -0.32546893393E+00  0.20459001628E+01  0.20772981840E+01  0.00000000000E+00 0.  1.
</event>
<event>
 5    1  0.4838219E+001  0.1550442E+01  0.7818608E-02  0.3408973E+00
         11   -1    0    0    0    0  0.00000000000E+00  0.00000000000E+00  0.39999999674E+01  0.40000000000E+01  0.51100000000E-03 0. -1.
    9000002   -1    0    0    0    0 -0.00000000000E+00 -0.00000000000E+00  0.00000000000E+00  0.93800000000E+00  0.93800000000E+00 0.  1.
         11    1    1    2    0    0  0.23211534771E+00  0.82622029148E-01  0.27145435230E+01  0.27257018791E+01  0.51100000000E-03 0. -1.
    9000002    1    1    2    0    0  0.84287389159E-02 -0.16187867791E-01  0.36746842337E-01  0.93889691720E+00  0.93800000000E+00 0.  1.
         22    1    1    2    0    0 -0.24054408663E+00 -0.66434161357E-01  0.12487096020E+01  0.12734012037E+01  0.00000000000E+00 0. -1.
</event>
<event>
 5    1  0.4838219E+001  0.1396205E+01  0.7818608E-02  0.3612975E+00
         11   -1    0    0    0    0  0.00000000000E+00  0.00000000000E+00  0.39999999674E+01  0.40000000000E+01  0.51100000000E-03 0.  1.
    9000002   -1    0    0    0    0 -0.00000000000E+00 -0.00000000000E+00  0.00000000000E+00  0.93800000000E+00  0.93800000000E+00 0. -1.
         11    1    1    2    0    0  0.26359087792E+00 -0.44353557134E+00  0.33467076387E+01  0.33862451527E+01  0.51100000000E-03 0.  1.
    9000002    1    1    2    0    0  0.67505805808E-01  0.45852472310E+00  0.35210867951E+00  0.11039141623E+01  0.93800000000E+00 0. -1.
         22    1    1    2    0    0 -0.33109668373E+00 -0.14989151762E-01  0.30118364912E+00  0.44784068500E+00  0.00000000000E+00 0.  1.
</event>
<event>
 5    1  0.4838219E+001  0.1495212E+01  0.7818608E-02  0.3475589E+00
         11   -1    0    0    0    0  0.00000000000E+00  0.00000000000E+00  0.39999999674E+01  0.40000000000E+01  0.51100000000E-03 0.  1.
    9000002   -1    0    0    0    0 -0.00000000000E+00 -0.00000000000E+00  0.00000000000E+00  0.93800000000E+00  0.93800000000E+00 0. -1.
         11    1    1    2    0    0 -0.19051214246E+00  0.20231155847E-01  0.34806907340E+01  0.34859593261E+01  0.51100000000E-03 0.  1.
    9000002    1    1    2    0    0 -0.66627438475E-01 -0.62444887835E-01  0.85918349668E-01  0.94634271931E+00  0.93800000000E+00 0. -1.
         22    1    1    2    0    0  0.25713958093E+00  0.42213731989E-01  0.43339088370E+00  0.50569795463E+00  0.00000000000E+00 0. -1.
</event>
<event>
 5    1  0.4838219E+001  0.1546323E+01  0.7818608E-02  0.3413766E+00
         11   -1    0    0    0    0  0.00000000000E+00  0.00000000000E+00  0.39999999674E+01  0.40000000000E+01  0.51100000000E-03 0. -1.
    9000002   -1    0    0    0    0 -0.00000000000E+00 -0.00000000000E+00  0.00000000000E+00  0.93800000000E+00  0.93800000000E+00 0. -1.
         11    1    1    2    0    0  0.26314369431E+00  0.10668557027E+00  0.25131140073E+01  0.25291043255E+01  0.51100000000E-03 0. -1.
    9000002    1    1    2    0    0 -0.29339307165E-01  0.39586854307E-02  0.40263902081E-01  0.93933042533E+00  0.93800000000E+00 0. -1.
         22    1    1    2    0    0 -0.23380438715E+00 -0.11064425570E+00  0.14466220580E+01  0.14695652491E+01  0.00000000000E+00 0. -1.
</event>
<event>
 5    1  0.4838219E+001  0.1530617E+01  0.7818608E-02  0.3432293E+00
         11   -1    0    0    0    0  0.00000000000E+00  0.00000000000E+00  0.39999999674E+01  0.40000000000E+01  0.51100000000E-03 0. -1.
    9000002   -1    0    0    0    0 -0.00000000000E+00 -0.00000000000E+00  0.00000000000E+00  0.93800000000E+00  0.93800000000E+00 0.  1.
         11    1    1    2    0    0  0.31645191350E+00 -0.11497717755E+00  0.20177110451E+01  0.20456098571E+01  0.51100000000E-03 0. -1.
    9000002    1    1    2    0    0 -0.45250764131E-02  0.15557959638E+00  0.68901784099E-01  0.95331890938E+00  0.93800000000E+00 0.  1.
         22    1    1    2    0    0 -0.31192683708E+00 -0.40602418832E-01  0.19133871382E+01  0.19390712335E+01  0.00000000000E+00 0. -1.
</event>
<event>
 5    1  0.4838219E+001  0.1456959E+01  0.7818608E-02  0.3524925E+00
         11   -1    0    0    0    0  0.00000000000E+00  0.00000000000E+00  0.39999999674E+01  0.40000000000E+01  0.51100000000E-03 0. -1.
    9000002   -1    0    0    0    0 -0.00000000000E+00 -0.00000000000E+00  0.00000000000E+00  0.93800000000E+00  0.93800000000E+00 0.  1.
         11    1    1    2    0    0 -0.23793615702E+00 -0.38735219419E+00  0.72860441917E+00  0.85878984503E+00  0.51100000000E-03 0. -1.
    9000002    1    1    2    0    0 -0.43749548639E-01  0.51808520190E+00  0.33088028351E+00  0.11223422212E+01  0.93800000000E+00 0.  1.
         22    1    1    2    0    0  0.28168570566E+00 -0.13073300771E+00  0.29405152647E+01  0.29568679338E+01  0.00000000000E+00 0. -1.
</event>
<event>
 5    1  0.4838219E+001  0.1600117E+01  0.7818608E-02  0.3353236E+00
         11   -1    0    0    0    0  0.00000000000E+00  0.00000000000E+00  0.39999999674E+01  0.40000000000E+01  0.51100000000E-03 0.  1.
    9000002   -1    0    0    0    0 -0.00000000000E+00 -0.00000000000E+00  0.00000000000E+00  0.93800000000E+00  0.93800000000E+00 0. -1.
         11    1    1    2    0    0 -0.23598840646E+00  0.27073928043E-01 -0.40766546324E-01  0.24100974666E+00  0.51100000000E-03 0.  1.
    9000002    1    1    2    0    0  0.54038925090E+00 -0.25249915879E+00  0.65522612556E+00  0.12903261771E+01  0.93800000000E+00 0. -1.
         22    1    1    2    0    0 -0.30440084444E+00  0.22542523075E+00  0.33855403881E+01  0.34066640762E+01  0.00000000000E+00 0.  1.
</event>
<event>
 5    1  0.4838219E+001  0.1560786E+01  0.7818608E-02  0.3397057E+00
         11   -1    0    0    0    0  0.00000000000E+00  0.00000000000E+00  0.39999999674E+01  0.40000000000E+01  0.51100000000E-03 0.  1.
    9000002   -1    0    0    0    0 -0.00000000000E+00 -0.00000000000E+00  0.00000000000E+00  0.93800000000E+00  0.93800000000E+00 0.  1.
         11    1    1    2    0    0  0.25366074194E+00  0.17007247174E-01  0.19952486960E+01  0.20113802819E+01  0.51100000000E-03 0.  1.
    9000002    1    1    2    0    0 -0.36909988181E-01 -0.97851625018E-01  0.36183176877E-01  0.94450543145E+00  0.93800000000E+00 0.  1.
         22    1    1    2    0    0 -0.21675075376E+00  0.80844377844E-01  0.19685680945E+01  0.19821142867E+01  0.00000000000E+00 0.  1.
</event>
<event>
 5    1  0.4838219E+001  0.1550120E+01  0.7818608E-02  0.3409347E+00
         11   -1    0    0    0    0  0.00000000000E+00  0.00000000000E+00  0.39999999674E+01  0.40000000000E+01  0.51100000000E-03 0.  1.
    9000002   -1    0    0    0    0 -0.00000000000E+00 -0.00000000000E+00  0.00000000000E+00  0.93800000000E+00  0.93800000000E+00 0.  1.
         11    1    1    2    0    0 -0.18003144590E+00 -0.45637437999E-01  0.33342166702E+01  0.33393854467E+01  0.51100000000E-03 0.  1.
    9000002    1    1    2    0    0  0.44708870425E-01 -0.10668414539E+00  0.46027491426E-01  0.94622561788E+00  0.93800000000E+00 0.  1.
         22    1    1    2    0    0  0.13532257548E+00  0.15232158339E+00  0.61975580578E+00  0.65238893537E+00  0.00000000000E+00 0. -1.
</event>
<event>
 5    1  0.4838219E+001  0.1186056E+01  0.7818608E-02  0.4026175E+00
         11   -1    0    0    0    0  0.00000000000E+00  0.00000000000E+00  0.39999999674E+01  0.40000000000E+01  0.51100000000E-03 0.  1.
    9000002   -1    0    0    0    0 -0.00000000000E+00 -0.00000000000E+00  0.00000000000E+00  0.93800000000E+00  0.93800000000E+00 0.  1.
         11    1    1    2    0    0  0.10639328122E+01  0.31054757869E+00  0.23586817834E+01  0.26061029995E+01  0.51100000000E-03 0.  1.
    9000002    1    1    2    0    0 -0.52408792390E+00 -0.20633307852E+00  0.12234310065E+01  0.16413009837E+01  0.93800000000E+00 0.  1.
         22    1    1    2    0    0 -0.53984488826E+00 -0.10421450017E+00  0.41788717745E+00  0.69059601686E+00  0.00000000000E+00 0. -1.
</event>
<event>
 5    1  0.4838219E+001  0.1477258E+01  0.7818608E-02  0.3498400E+00
         11   -1    0    0    0    0  0.00000000000E+00  0.00000000000E+00  0.39999999674E+01  0.40000000000E+01  0.51100000000E-03 0. -1.
    9000002   -1    0    0    0    0 -0.00000000000E+00 -0.00000000000E+00  0.00000000000E+00  0.93800000000E+00  0.93800000000E+00 0. -1.
         11    1    1    2    0    0 -0.31022538253E+00 -0.26336625362E+00  0.64689329226E+00  0.76424653366E+00  0.51100000000E-03 0. -1.
    9000002    1    1    2    0    0 -0.42680703087E-01  0.16429384387E+00  0.16836861348E+00  0.96799075386E+00  0.93800000000E+00 0. -1.
         22    1    1    2    0    0  0.35290608562E+00  0.99072409750E-01  0.31847380616E+01  0.32057627125E+01  0.00000000000E+00 0. -1.
</event>
<event>
 5    1  0.4838219E+001  0.1481803E+01  0.7818608E-02  0.3492569E+00
         11   -1    0    0    0    0  0.00000000000E+00  0.00000000000E+00  0.39999999674E+01  0.40000000000E+01  0.51100000000E-03 0.  1.
    9000002   -1    0    0    0    0 -0.00000000000E+00 -0.00000000000E+00  0.00000000000E+00  0.93800000000E+00  0.93800000000E+00 0.  1.
         11    1    1    2    0    0  0.15189750084E+00 -0.45187281942E+00  0.28874761778E+01  0.29265646813E+01  0.51100000000E-03 0.  1.
    9000002    1    1    2    0    0 -0.16172310085E-01  0.15832049771E+00  0.10964843694E+00  0.95770230413E+00  0.93800000000E+00 0.  1.
         22    1    1    2    0    0 -0.13572519075E+00  0.29355232171E+00  0.10028753527E+01  0.10537330145E+01  0.00000000000E+00 0. -1.
</event>
<event>
 5    1  0.4838219E+001  0.1559131E+01  0.7818608E-02  0.3398951E+00
         11   -1    0    0    0    0  0.00000000000E+00  0.00000000000E+00  0.39999999674E+01  0.40000000000E+01  0.51100000000E-03 0. -1.
    9000002   -1    0    0    0    0 -0.00000000000E+00 -0.00000000000E+00  0.00000000000E+00  0.93800000000E+00  0.93800000000E+00 0. -1.
         11    1    1    2    0    0 -0.15059229236E+00 -0.14189102793E+00  0.99284574681E+00  0.10141765332E+01  0.51100000000E-03 0. -1.
    9000002    1    1    2    0    0  0.70280541788E-01 -0.84561352789E-01  0.38233545476E-01  0.94519616003E+00  0.93800000000E+00 0. -1.
         22    1    1    2    0    0  0.80311750569E-01  0.22645238072E+00  0.29689206751E+01  0.29786273068E+01  0.00000000000E+00 0.  1.
</event>
<event>
 5    1  0.4838219E+001  0.1550890E+01  0.7818608E-02  0.3408454E+00
         11   -1    0    0    0    0  0.00000000000E+00  0.00000000000E+00  0.39999999674E+01  0.40000000000E+01  0.51100000000E-03 0. -1.
    9000002   -1    0    0    0    0 -0.00000000000E+00 -0.00000000000E+00  0.00000000000E+00  0.93800000000E+00  0.93800000000E+00 0. -1.
         11    1    1    2    0    0  0.23415342416E+00  0.13268426723E+00  0.15512125092E+01  0.15743866903E+01  0.51100000000E-03 0. -1.
    9000002    1    1    2    0    0 -0.48766394297E-01  0.32490762007E-01  0.38548665489E-01  0.94061884440E+00  0.93800000000E+00 0. -1.
         22    1    1    2    0    0 -0.18538702986E+00 -0.16517502923E+00  0.24102387926E+01  0.24229944653E+01  0.00000000000E+00 0. -1.
</event>
<event>
 5    1  0.4838219E+001  0.1480125E+01  0.7818608E-02  0.3494717E+00
         11   -1    0    0    0    0  0.00000000000E+00  0.00000000000E+00  0.39999999674E+01  0.40000000000E+01  0.51100000000E-03 0. -1.
    9000002   -1    0    0    0    0 -0.00000000000E+00 -0.00000000000E+00  0.00000000000E+00  0.93800000000E+00  0.93800000000E+00 0. -1.
         11    1    1    2    0    0 -0.16199377536E+00 -0.20279944146E+00  0.46643588331E+00  0.53379049362E+00  0.51100000000E-03 0. -1.
    9000002    1    1    2    0    0 -0.79757449781E-01 -0.11234911283E+00  0.10629941941E+00  0.95400583883E+00  0.93800000000E+00 0. -1.
         22    1    1    2    0    0  0.24175122514E+00  0.31514855429E+00  0.34272646646E+01  0.34502036676E+01  0.00000000000E+00 0. -1.
</event>
<event>
 5    1  0.5628143E+001  0.1567803E+01  0.7818608E-02  0.3389068E+00
         11   -1    0    0    0    0  0.00000000000E+00  0.00000000000E+00  0.39999999674E+01  0.40000000000E+01  0.51100000000E-03 0. -1.
    9000002   -1    0    0    0    0 -0.00000000000E+00 -0.00000000000E+00  0.00000000000E+00  0.93800000000E+00  0.93800000000E+00 0. -1.
         11    1    1    2    0    0  0.20457594855E+00  0.29143625712E-01  0.19450577922E+01  0.19560037694E+01  0.51100000000E-03 0. -1.
    9000002    1    1    2    0    0  0.14140895034E-01  0.16772284531E-01  0.23760936731E-01  0.93855732726E+00  0.93800000000E+00 0. -1.
         22    1    1    2    0    0 -0.21871684359E+00 -0.45915910243E-01  0.20311812384E+01  0.20434389033E+01  0.00000000000E+00 0. -1.
</event>
<event>
 5    1  0.4838219E+001  0.1592217E+01  0.7818608E-02  0.3361854E+00
         11   -1    0    0    0    0  0.00000000000E+00  0.00000000000E+00  0.39999999674E+01  0.40000000000E+01  0.51100000000E-03 0. -1.
    9000002   -1    0    0    0    0 -0.00000000000E+00 -0.00000000000E+00  0.00000000000E+00  0.93800000000E+00  0.93800000000E+00 0. -1.
         11    1    1    2    0    0  0.82514110605E-01  0.73069421269E-01  0.10940823508E+01  0.10996200117E+01  0.51100000000E-03 0. -1.
    9000002    1    1    2    0    0  0.37562013713E-01 -0.28194562998E+00  0.59711542142E-01  0.98199476139E+00  0.93800000000E+00 0. -1.
         22    1    1    2    0    0 -0.12007612432E+00  0.20887620871E+00  0.28462060745E+01  0.28563852269E+01  0.00000000000E+00 0. -1.
</event>
<event>
 5    1  0.4838219E+001  0.1577219E+01  0.7818608E-02  0.3378467E+00
         11   -1    0    0    0    0  0.00000000000E+00  0.00000000000E+00  0.39999999674E+01  0.40000000000E+01  0.51100000000E-03 0.  1.
    9000002   -1    0    0    0    0 -0.00000000000E+00 -0.00000000000E+00  0.00000000000E+00  0.93800000000E+00  0.93800000000E+00 0. -1.
         11    1    1    2    0    0  0.14057150551E+00  0.61012987460E-01  0.13449448113E+01  0.13536468296E+01  0.51100000000E-03 0.  1.
    9000002    1    1    2    0    0  0.62208564314E-01 -0.18665238552E-01  0.19273322802E-01  0.94044338350E+00  0.93800000000E+00 0. -1.
         22    1    1    2    0    0 -0.20278006983E+00 -0.42347748907E-01  0.26357818333E+01  0.26439097869E+01  0.00000000000E+00 0.  1.
</event>
<event>
 5    1  0.4838219E+001  0.1500833E+01  0.7818608E-02  0.3468569E+00
         11   -1    0    0    0    0  0.00000000000E+00  0.00000000000E+00  0.39999999674E+01  0.40000000000E+01  0.51100000000E-03 0.  1.
    9000002   -1    0    0    0    0 -0.00000000000E+00 -0.00000000000E+00  0.00000000000E+00  0.93800000000E+00  0.93800000000E+00 0.  1.
         11    1    1    2    0    0 -0.20400774333E+00  0.41686213516E+00  0.31335994599E+01  0.31677814059E+01  0.51100000000E-03 0.  1.
    9000002    1    1    2    0    0 -0.11698885370E-01 -0.25589497605E+00  0.12361640101E+00  0.98017555432E+00  0.93800000000E+00 0.  1.
         22    1    1    2    0    0  0.21570662870E+00 -0.16096715911E+00  0.74278410642E+00  0.79004303979E+00  0.00000000000E+00 0. -1.
</event>
<event>
 5    1  0.4838219E+001  0.1539844E+01  0.7818608E-02  0.3421360E+00
         11   -1    0    0    0    0  0.00000000000E+00  0.00000000000E+00  0.39999999674E+01  0.40000000000E+01  0.51100000000E-03 0. -1.
    9000002   -1    0    0    0    0 -0.00000000000E+00 -0.00000000000E+00  0.00000000000E+00  0.93800000000E+00  0.93800000000E+00 0.  1.
         11    1    1    2    0    0 -0.23738743431E+00  0.32757339081E+00  0.21353578386E+01  0.21733408569E+01  0.51100000000E-03 0. -1.
    9000002    1    1    2    0    0  0.16039489119E+00 -0.13874466840E+00  0.76267105138E-01  0.96469543145E+00  0.93800000000E+00 0.  1.
         22    1    1    2    0    0  0.76992543124E-01 -0.18882872240E+00  0.17883750237E+01  0.17999637117E+01  0.00000000000E+00 0. -1.
</event>
<event>
 5    1  0.4838219E+001  0.1489655E+01  0.7818608E-02  0.3482585E+00
         11   -1    0    0    0    0  0.00000000000E+00  0.00000000000E+00  0.39999999674E+01  0.40000000000E+01  0.51100000000E-03 0.  1.
    9000002   -1    0    0    0    0 -0.00000000000E+00 -0.00000000000E+00  0.00000000000E+00  0.93800000000E+00  0.93800000000E+00 0.  1.
         11    1    1    2    0    0  0.32674047056E+00  0.11680651896E+00  0.28715252880E+01  0.28924143615E+01  0.51100000000E-03 0.  1.
    9000002    1    1    2    0    0 -0.22674775566E-01  0.75596397458E-01  0.88904710774E-01  0.94550357395E+00  0.93800000000E+00 0.  1.
         22    1    1    2    0    0 -0.30406569499E+00 -0.19240291642E+00  0.10395699686E+01  0.11000820645E+01  0.00000000000E+00 0.  1.
</event>
<event>
 5    1  0.4838219E+001  0.1546492E+01  0.7818608E-02  0.3413569E+00
         11   -1    0    0    0    0  0.00000000000E+00  0.00000000000E+00  0.39999999674E+01  0.40000000000E+01  0.51100000000E-03 0. -1.
    9000002   -1    0    0    0    0 -0.00000000000E+00 -0.00000000000E+00  0.00000000000E+00  0.93800000000E+00  0.93800000000E+00 0. -1.
         11    1    1    2    0    0  0.33545889251E+00 -0.22271892555E-01  0.19970314710E+01  0.20251329989E+01  0.51100000000E-03 0. -1.
    9000002    1    1    2    0    0 -0.12349444499E+00 -0.55196170757E-01  0.52255186476E-01  0.94914282367E+00  0.93800000000E+00 0. -1.
         22    1    1    2    0    0 -0.21196444752E+00  0.77468063313E-01  0.19507133098E+01  0.19637241774E+01  0.00000000000E+00 0. -1.
</event>
<event>
 5    1  0.4838219E+001  0.1545040E+01  0.7818608E-02  0.3415264E+00
         11   -1    0    0    0    0  0.00000000000E+00  0.00000000000E+00  0.39999999674E+01  0.40000000000E+01  0.51100000000E-03 0. -1.
    9000002   -1    0    0    0    0 -0.00000000000E+00 -0.00000000000E+00  0.00000000000E+00  0.93800000000E+00  0.93800000000E+00 0. -1.
         11    1    1    2    0    0 -0.22037743956E+00 -0.12375421094E+00  0.12410145312E+01  0.12664906823E+01  0.51100000000E-03 0. -1.
    9000002    1    1    2    0    0 -0.62537152076E-01  0.64749450377E-01  0.46272298843E-01  0.94344502349E+00  0.93800000000E+00 0. -1.
         22    1    1    2    0    0  0.28291459164E+00  0.59004760567E-01  0.27127131373E+01  0.27280642942E+01  0.00000000000E+00 0. -1.
</event>
<event>
 5    1  0.4838219E+001  0.1526633E+01  0.7818608E-02  0.3437057E+00
         11   -1    0    0    0    0  0.00000000000E+00  0.00000000000E+00  0.39999999674E+01  0.40000000000E+01  0.51100000000E-03 0. -1.
    9000002   -1    0    0    0    0 -0.00000000000E+00 -0.00000000000E+00  0.00000000000E+00  0.93800000000E+00  0.93800000000E+00 0. -1.
         11    1    1    2    0    0 -0.13685550591E+00 -0.25698253292E+00  0.73786413956E+00  0.79322960188E+00  0.51100000000E-03 0. -1.
    9000002    1    1    2    0    0 -0.69958101862E-01  0.24594439902E+00  0.10167387018E+00  0.97752972298E+00  0.93800000000E+00 0. -1.
         22    1    1    2    0    0  0.20681360777E+00  0.11038133892E-01  0.31604619576E+01  0.31672406751E+01  0.00000000000E+00 0. -1.
</event>
<event>
 5    1  0.4838219E+001  0.1429626E+01  0.7818608E-02  0.3561939E+00
         11   -1    0    0    0    0  0.00000000000E+00  0.00000000000E+00  0.39999999674E+01  0.40000000000E+01  0.51100000000E-03 0. -1.
    9000002   -1    0    0    0    0 -0.00000000000E+00 -0.00000000000E+00  0.00000000000E+00  0.93800000000E+00  0.93800000000E+00 0.  1.
         11    1    1    2    0    0  0.69982887956E+00 -0.11757854226E+00  0.29511510930E+01  0.30352723452E+01  0.51100000000E-03 0. -1.
    9000002    1    1    2    0    0 -0.37291395367E+00  0.12059931875E+00  0.26073218441E+00  0.10494923937E+01  0.93800000000E+00 0.  1.
         22    1    1    2    0    0 -0.32691492590E+00 -0.30207764866E-02  0.78811668992E+00  0.85323526111E+00  0.00000000000E+00 0. -1.
</event>
<event>
 5    1  0.4838219E+001  0.1562557E+01  0.7818608E-02  0.3395033E+00
         11   -1    0    0    0    0  0.00000000000E+00  0.00000000000E+00  0.39999999674E+01  0.40000000000E+01  0.51100000000E-03 0.  1.
    9000002   -1    0    0    0    0 -0.00000000000E+00 -0.00000000000E+00  0.00000000000E+00  0.93800000000E+00  0.93800000000E+00 0. -1.
         11    1    1    2    0    0 -0.87816395987E-01  0.15719984497E+00  0.15016298840E+01  0.15123875430E+01  0.51100000000E-03 0.  1.
    9000002    1    1    2    0    0  0.18544034521E-01  0.13909769097E+00  0.40841894742E-01  0.94931770721E+00  0.93800000000E+00 0. -1.
         22    1    1    2    0    0  0.69272361466E-01 -0.29629753594E+00  0.24575281886E+01  0.24762947498E+01  0.00000000000E+00 0.  1.
</event>
<event>
 5    1  0.4838219E+001  0.1532568E+01  0.7818608E-02  0.3429969E+00
         11   -1    0    0    0    0  0.00000000000E+00  0.00000000000E+00  0.39999999674E+01  0.40000000000E+01  0.51100000000E-03 0.  1.
    9000002   -1    0    0    0    0 -0.00000000000E+00 -0.00000000000E+00  0.00000000000E+00  0.93800000000E+00  0.93800000000E+00 0.  1.
         11    1    1    2    0    0  0.12933939359E+00  0.24034929169E+00  0.97455695907E+00  0.10120563168E+01  0.51100000000E-03 0.  1.
    9000002    1    1    2    0    0  0.16644500940E+00 -0.12274777370E+00  0.80551989263E-01  0.96390019197E+00  0.93800000000E+00 0.  1.
         22    1    1    2    0    0 -0.29578440299E+00 -0.11760151799E+00  0.29448910190E+01  0.29620434912E+01  0.00000000000E+00 0.  1.
</event>
<event>
 5    1  0.4838219E+001  0.1515879E+01  0.7818608E-02  0.3450051E+00
         11   -1    0    0    0    0  0.00000000000E+00  0.00000000000E+00  0.39999999674E+01  0.40000000000E+01  0.51100000000E-03 0.  1.
    9000002   -1    0    0    0    0 -0.00000000000E+00 -0.00000000000E+00  0.00000000000E+00  0.93800000000E+00  0.93800000000E+00 0. -1.
         11    1    1    2    0    0  0.92224078124E-01 -0.31845747137E+00  0.10652545794E+01  0.11156558706E+01  0.51100000000E-03 0.  1.
    9000002    1    1    2    0    0 -0.10160310688E+00  0.50669245774E-01  0.72543529563E-01  0.94762710360E+00  0.93800000000E+00 0. -1.
         22    1    1    2    0    0  0.93790287569E-02  0.26778822559E+00  0.28622018584E+01  0.28747170258E+01  0.00000000000E+00 0.  1.
</event>
<event>
 5    1  0.4838219E+001  0.1587473E+01  0.7818608E-02  0.3367073E+00
         11   -1    0    0    0    0  0.00000000000E+00  0.00000000000E+00  0.39999999674E+01  0.40000000000E+01  0.51100000000E-03 0.  1.
    9000002   -1    0    0    0    0 -0.00000000000E+00 -0.00000000000E+00  0.00000000000E+00  0.93800000000E+00  0.93800000000E+00 0.  1.
         11    1    1    2    0    0 -0.17338581411E+00  0.33745521850E-01  0.17967519590E+01  0.18054138761E+01  0.51100000000E-03 0.  1.
    9000002    1    1    2    0    0  0.21248502254E+00  0.16299286782E+00  0.57168954784E-01  0.97715344197E+00  0.93800000000E+00 0.  1.
         22    1    1    2    0    0 -0.39099208430E-01 -0.19673838967E+00  0.21460790536E+01  0.21554326820E+01  0.00000000000E+00 0.  1.
</event>
<event>
 5    1  0.4838219E+001  0.1474807E+01  0.7818608E-02  0.3501561E+00
         11   -1    0    0    0    0  0.00000000000E+00  0.00000000000E+00  0.39999999674E+01  0.40000000000E+01  0.51100000000E-03 0. -1.
    9000002   -1    0    0    0    0 -0.00000000000E+00 -0.00000000000E+00  0.00000000000E+00  0.93800000000E+00  0.93800000000E+00 0.  1.
         11    1    1    2    0    0 -0.85025325459E-01  0.51779566492E+00  0.29965632518E+01  0.30421593054E+01  0.51100000000E-03 0. -1.
    9000002    1    1    2    0    0 -0.24295584890E-01 -0.22839033332E+00  0.13643777949E+00  0.97530081896E+00  0.93800000000E+00 0.  1.
         22    1    1    2    0    0  0.10932091035E+00 -0.28940533159E+00  0.86699893611E+00  0.92053987562E+00  0.00000000000E+00 0.  1.
</event>
<event>
 5    1  0.4838219E+001  0.1593973E+01  0.7818608E-02  0.3359931E+00
         11   -1    0    0    0    0  0.00000000000E+00  0.00000000000E+00  0.39999999674E+01  0.40000000000E+01  0.51100000000E-03 0.  1.
    9000002   -1    0    0    0    0 -0.00000000000E+00 -0.00000000000E+00  0.00000000000E+00  0.93800000000E+00  0.93800000000E+00 0.  1.
         11    1    1    2    0    0 -0.14379527938E+00  0.67165765264E-01  0.88350639453E+00  0.89764811184E+00  0.51100000000E-03 0.  1.
    9000002    1    1    2    0    0  0.31690366007E+00 -0.18251726744E+00  0.94486198692E-01  0.10111934159E+01  0.93800000000E+00 0.  1.
         22    1    1    2    0    0 -0.17310838068E+00  0.11535150218E+00  0.30220073741E+01  0.30291584722E+01  0.00000000000E+00 0. -1.
</event>
<event>
 5    1  0.4838219E+001  0.1567512E+01  0.7818608E-02  0.3389397E+00
         11   -1    0    0    0    0  0.00000000000E+00  0.00000000000E+00  0.39999999674E+01  0.40000000000E+01  0.51100000000E-03 0.  1.
    9000002   -1    0    0    0    0 -0.00000000000E+00 -0.00000000000E+00  0.00000000000E+00  0.93800000000E+00  0.93800000000E+00 0. -1.
         11    1    1    2    0    0  0.14143582933E+00 -0.15235075704E+00  0.12773509988E+01  0.12941563593E+01  0.51100000000E-03 0.  1.
    9000002    1    1    2    0    0 -0.13531799766E+00 -0.75353910019E-01  0.40001366216E-01  0.95154258000E+00  0.93800000000E+00 0. -1.
         22    1    1    2    0    0 -0.61178316611E-02  0.22770466705E+00  0.26826476023E+01  0.26923010607E+01  0.00000000000E+00 0.  1.
</event>
<event>
 5    1  0.4838219E+001  0.1512711E+01  0.7818608E-02  0.3453917E+00
         11   -1    0    0    0    0  0.00000000000E+00  0.00000000000E+00  0.39999999674E+01  0.40000000000E+01  0.51100000000E-03 0.  1.
    9000002   -1    0    0    0    0 -0.00000000000E+00 -0.00000000000E+00  0.00000000000E+00  0.93800000000E+00  0.93800000000E+00 0.  1.
         11    1    1    2    0    0 -0.29988957685E+00 -0.25995211448E+00  0.17375306605E+01  0.17822799773E+01  0.51100000000E-03 0.  1.
    9000002    1    1    2    0    0 -0.15052042437E-01  0.19138746639E+00  0.92454007299E-01  0.96189784787E+00  0.93800000000E+00 0.  1.
         22    1    1    2    0    0  0.31494161928E+00  0.68564648088E-01  0.21700152996E+01  0.21938221749E+01  0.00000000000E+00 0.  1.
</event>
<event>
 5    1  0.4838219E+001  0.1592250E+01  0.7818608E-02  0.3361818E+00
         11   -1    0    0    0    0  0.00000000000E+00  0.00000000000E+00  0.39999999674E+01  0.40000000000E+01  0.51100000000E-03 0. -1.
    9000002   -1    0    0    0    0 -0.00000000000E+00 -0.00000000000E+00  0.00000000000E+00  0.93800000000E+00  0.93800000000E+00 0.  1.
         11    1    1    2    0    0  0.86643426938E-01  0.34492935901E-01  0.15484099502E+01  0.15512158074E+01  0.51100000000E-03 0. -1.
    9000002    1    1    2    0    0 -0.99320612528E-02 -0.23715493406E+00  0.43058334610E-01  0.96852420144E+00  0.93800000000E+00 0.  1.
         22    1    1    2    0    0 -0.76711365685E-01  0.20266199816E+00  0.24085316826E+01  0.24182599912E+01  0.00000000000E+00 0. -1.
</event>
<event>
 5    1  0.4838219E+001  0.1578439E+01  0.7818608E-02  0.3377102E+00
         11   -1    0    0    0    0  0.00000000000E+00  0.00000000000E+00  0.39999999674E+01  0.40000000000E+01  0.51100000000E-03 0.  1.
    9000002   -1    0    0    0    0 -0.00000000000E+00 -0.00000000000E+00  0.00000000000E+00  0.93800000000E+00  0.93800000000E+00 0.  1.
         11    1    1    2    0    0 -0.13432163293E+00 -0.11789692151E-01  0.20660823322E+01  0.20704776652E+01  0.51100000000E-03 0.  1.
    9000002    1    1    2    0    0 -0.71201281304E-01 -0.48813045211E-01  0.20543749753E-01  0.94218808181E+00  0.93800000000E+00 0.  1.
         22    1    1    2    0    0  0.20552291423E+00  0.60602737362E-01  0.19133738855E+01  0.19253342529E+01  0.00000000000E+00 0.  1.
</event>
<event>
 5    1  0.4838219E+001  0.1535368E+01  0.7818608E-02  0.3426645E+00
         11   -1    0    0    0    0  0.00000000000E+00  0.00000000000E+00  0.39999999674E+01  0.40000000000E+01  0.51100000000E-03 0. -1.
    9000002   -1    0    0    0    0 -0.00000000000E+00 -0.00000000000E+00  0.00000000000E+00  0.93800000000E+00  0.93800000000E+00 0. -1.
         11    1    1    2    0    0  0.13067606632E-01 -0.28691907361E+00  0.11010884664E+01  0.11379320670E+01  0.51100000000E-03 0. -1.
    9000002    1    1    2    0    0 -0.15946008519E+00  0.49266284530E-01  0.67704205459E-01  0.95513483080E+00  0.93800000000E+00 0. -1.
         22    1    1    2    0    0  0.14639247856E+00  0.23765278908E+00  0.28312072955E+01  0.28449331022E+01  0.00000000000E+00 0. -1.
</event>
<event>
 5    1  0.4838219E+001  0.1522767E+01  0.7818608E-02  0.3441706E+00
         11   -1    0    0    0    0  0.00000000000E+00  0.00000000000E+00  0.39999999674E+01  0.40000000000E+01  0.51100000000E-03 0.  1.
    9000002   -1    0    0    0    0 -0.00000000000E+00 -0.00000000000E+00  0.00000000000E+00  0.93800000000E+00  0.93800000000E+00 0.  1.
         11    1    1    2    0    0 -0.30207693587E+00  0.26106704147E+00  0.15787251317E+01  0.16284286223E+01  0.51100000000E-03 0.  1.
    9000002    1    1    2    0    0  0.30814073701E-01 -0.26126339804E+00  0.10767734103E+00  0.98012574707E+00  0.93800000000E+00 0.  1.
         22    1    1    2    0    0  0.27126286217E+00  0.19635656851E-03  0.23135974947E+01  0.23294456307E+01  0.00000000000E+00 0.  1.
</event>
<event>
 5    1  0.4838219E+001  0.1549935E+01  0.7818608E-02  0.3409562E+00
         11   -1    0    0    0    0  0.00000000000E+00  0.00000000000E+00  0.39999999674E+01  0.40000000000E+01  0.51100000000E-03 0.  1.
    9000002   -1    0    0    0    0 -0.00000000000E+00 -0.00000000000E+00  0.00000000000E+00  0.93800000000E+00  0.93800000000E+00 0. -1.
         11    1    1    2    0    0 -0.15895252830E+00 -0.14667992313E+00  0.89339218474E+00  0.91920115479E+00  0.51100000000E-03 0.  1.
    9000002    1    1    2    0    0 -0.16367142198E-01 -0.38899015179E-01  0.38133915416E-01  0.93972294440E+00  0.93800000000E+00 0. -1.
         22    1    1    2    0    0  0.17531967050E+00  0.18557893831E+00  0.30684738672E+01  0.30790759008E+01  0.00000000000E+00 0.  1.
</event>
<event>
 5    1  0.4838219E+001  0.1439296E+01  0.7818608E-02  0.3548669E+00
         11   -1    0    0    0    0  0.00000000000E+00  0.00000000000E+00  0.39999999674E+01  0.40000000000E+01  0.51100000000E-03 0.  1.
    9000002   -1    0    0    0    0 -0.00000000000E+00 -0.00000000000E+00  0.00000000000E+00  0.93800000000E+00  0.93800000000E+00 0.  1.
         11    1    1    2    0    0  0.35062498701E+00 -0.31587731953E+00  0.33402678072E+01  0.33734412174E+01  0.51100000000E-03 0.  1.
    9000002    1    1    2    0    0 -0.48912837410E+00  0.36735244858E-01  0.32510872666E+00  0.11073101321E+01  0.93800000000E+00 0.  1.
         22    1    1    2    0    0  0.13850338709E+00  0.27914207467E+00  0.33462343351E+00  0.45724865045E+00  0.00000000000E+00 0. -1.
</event>
<event>
 5    1  0.4838219E+001  0.1481163E+01  0.7818608E-02  0.3493388E+00
         11   -1    0    0    0    0  0.00000000000E+00  0.00000000000E+00  0.39999999674E+01  0.40000000000E+01  0.51100000000E-03 0.  1.
    9000002   -1    0    0    0    0 -0.00000000000E+00 -0.00000000000E+00  0.00000000000E+00  0.93800000000E+00  0.93800000000E+00 0. -1.
         11    1    1    2    0    0  0.23856830027E+00 -0.10643759459E+00  0.27996897179E+01  0.28118510936E+01  0.51100000000E-03 0.  1.
    9000002    1    1    2    0    0  0.18709293968E+00  0.10564782169E+00  0.12590483885E+00  0.97049536771E+00  0.93800000000E+00 0. -1.
         22    1    1    2    0    0 -0.42566123995E+00  0.78977289236E-03  0.10744054107E+01  0.11556535386E+01  0.00000000000E+00 0.  1.
</event>
<event>
 5    1  0.6397544E+001  0.1564838E+01  0.7818608E-02  0.3392434E+00
         11   -1    0    0    0    0  0.00000000000E+00  0.00000000000E+00  0.39999999674E+01  0.40000000000E+01  0.51100000000E-03 0.  1.
    9000002   -1    0    0    0    0 -0.00000000000E+00 -0.00000000000E+00  0.00000000000E+00  0.93800000000E+00  0.93800000000E+00 0. -1.
         11    1    1    2    0    0  0.13768604309E+00 -0.19090393769E+00  0.17613569828E+01  0.17770144743E+01  0.51100000000E-03 0.  1.
    9000002    1    1    2    0    0 -0.39124618686E-01  0.66561762031E-02  0.26724646798E-01  0.93921948831E+00  0.93800000000E+00 0. -1.
         22    1    1    2    0    0 -0.98561424403E-01  0.18424776149E+00  0.22119183378E+01  0.22217660374E+01  0.00000000000E+00 0. -1.
</event>
<event>
 5    1  0.4838219E+001  0.1597798E+01  0.7818608E-02  0.3355757E+00
         11   -1    0    0    0    0  0.00000000000E+00  0.00000000000E+00  0.39999999674E+01  0.40000000000E+01  0.51100000000E-03 0. -1.
    9000002   -1    0    0    0    0 -0.00000000000E+00 -0.00000000000E+00  0.00000000000E+00  0.93800000000E+00  0.93800000000E+00 0. -1.
         11    1    1    2    0    0  0.18764899737E-01  0.68159265940E-01  0.80241393681E+00  0.80552231137E+00  0.51100000000E-03 0. -1.
    9000002    1    1    2    0    0  0.93226200618E-01 -0.24481974097E+00  0.47076497027E-01  0.97503232081E+00  0.93800000000E+00 0. -1.
         22    1    1    2    0    0 -0.11199110036E+00  0.17666047503E+00  0.31505095335E+01  0.31574453678E+01  0.00000000000E+00 0. -1.
</event>
<event>
 5    1  0.4838219E+001  0.1518189E+01  0.7818608E-02  0.3447243E+00
         11   -1    0    0    0    0  0.00000000000E+00  0.00000000000E+00  0.39999999674E+01  0.40000000000E+01  0.51100000000E-03 0. -1.
    9000002   -1    0    0    0    0 -0.00000000000E+00 -0.00000000000E+00  0.00000000000E+00  0.93800000000E+00  0.93800000000E+00 0. -1.
         11    1    1    2    0    0 -0.20442556679E+00  0.49812988232E-01  0.42767526102E+00  0.47663144688E+00  0.51100000000E-03 0. -1.
    9000002    1    1    2    0    0 -0.67945134762E-01  0.15220767020E-01  0.64936667662E-01  0.94281969851E+00  0.93800000000E+00 0. -1.
         22    1    1    2    0    0  0.27237070155E+00 -0.65033755251E-01  0.35073880387E+01  0.35185488546E+01  0.00000000000E+00 0. -1.
</event>
<event>
 5    1  0.4838219E+001  0.1581548E+01  0.7818608E-02  0.3373637E+00
         11   -1    0    0    0    0  0.00000000000E+00  0.00000000000E+00  0.39999999674E+01  0.40000000000E+01  0.51100000000E-03 0.  1.
    9000002   -1    0    0    0    0 -0.00000000000E+00 -0.00000000000E+00  0.00000000000E+00  0.93800000000E+00  0.93800000000E+00 0. -1.
         11    1    1    2    0    0 -0.92448455405E-01 -0.42571062514E-01  0.11377457479E+01  0.11422892192E+01  0.51100000000E-03 0.  1.
    9000002    1    1    2    0    0 -0.99342347741E-01 -0.14009033675E+00  0.33079658228E-01  0.95416584947E+00  0.93800000000E+00 0. -1.
         22    1    1    2    0    0  0.19179080315E+00  0.18266139927E+00  0.28291745612E+01  0.28415449313E+01  0.00000000000E+00 0. -1.
</event>
<event>
 5    1  0.4838219E+001  0.1542662E+01  0.7818608E-02  0.3418048E+00
         11   -1    0    0    0    0  0.00000000000E+00  0.00000000000E+00  0.39999999674E+01  0.40000000000E+01  0.51100000000E-03 0.  1.
    9000002   -1    0    0    0    0 -0.00000000000E+00 -0.00000000000E+00  0.00000000000E+00  0.93800000000E+00  0.93800000000E+00 0. -1.
         11    1    1    2    0    0  0.26931879854E+00 -0.13204859597E+00  0.68726724636E+00  0.74987063950E+00  0.51100000000E-03 0.  1.
    9000002    1    1    2    0    0 -0.24093615714E+00  0.51427610952E+00  0.28059102942E+00  0.11318592997E+01  0.93800000000E+00 0. -1.
         22    1    1    2    0    0 -0.28382641400E-01 -0.38222751355E+00  0.30321416916E+01  0.30562700608E+01  0.00000000000E+00 0.  1.
</event>
<event>
 5    1  0.4838219E+001  0.1538432E+01  0.7818608E-02  0.3423024E+00
         11   -1    0    0    0    0  0.00000000000E+00  0.00000000000E+00  0.39999999674E+01  0.40000000000E+01  0.51100000000E-03 0.  1.
    9000002   -1    0    0    0    0 -0.00000000000E+00 -0.00000000000E+00  0.00000000000E+00  0.93800000000E+00  0.93800000000E+00 0.  1.
         11    1    1    2    0    0  0.32470637086E-01 -0.14839571014E+00  0.21475922881E+00  0.26305401829E+00  0.51100000000E-03 0.  1.
    9000002    1    1    2    0    0 -0.25227675104E+00  0.11635858296E+00  0.10039981938E+00  0.98341598659E+00  0.93800000000E+00 0.  1.
         22    1    1    2    0    0  0.21980611395E+00  0.32037127183E-01  0.36848409192E+01  0.36915299951E+01  0.00000000000E+00 0.  1.
</event>
<event>
 5    1  0.4838219E+001  0.1579242E+01  0.7818608E-02  0.3376206E+00
         11   -1    0    0    0    0  0.00000000000E+00  0.00000000000E+00  0.39999999674E+01  0.40000000000E+01  0.51100000000E-03 0.  1.
    9000002   -1    0    0    0    0 -0.00000000000E+00 -0.00000000000E+00  0.00000000000E+00  0.93800000000E+00  0.93800000000E+00 0. -1.
         11    1    1    2    0    0  0.14114114026E+00  0.26941649546E-01  0.16900842663E+01  0.16961815240E+01  0.51100000000E-03 0.  1.
    9000002    1    1    2    0    0  0.28248007520E-01  0.11055198630E+00  0.23694901623E-01  0.94521169056E+00  0.93800000000E+00 0. -1.
         22    1    1    2    0    0 -0.16938914778E+00 -0.13749363585E+00  0.22862207994E+01  0.22966067855E+01  0.00000000000E+00 0.  1.
</event>
<event>
 5    1  0.4838219E+001  0.1560932E+01  0.7818608E-02  0.3396890E+00
         11   -1    0    0    0    0  0.00000000000E+00  0.00000000000E+00  0.39999999674E+01  0.40000000000E+01  0.51100000000E-03 0. -1.
    9000002   -1    0    0    0    0 -0.00000000000E+00 -0.00000000000E+00  0.00000000000E+00  0.93800000000E+00  0.93800000000E+00 0. -1.
         11    1    1    2    0    0  0.75177652952E-01  0.76216839761E-01  0.16233473124E+01  0.16268735182E+01  0.51100000000E-03 0. -1.
    9000002    1    1    2    0    0  0.19514698233E+00  0.23513136168E+00  0.93383280915E-01  0.99092559716E+00  0.93800000000E+00 0. -1.
         22    1    1    2    0    0 -0.27032463529E+00 -0.31134820144E+00  0.22832693740E+01  0.23202008847E+01  0.00000000000E+00 0. -1.
</event>
<event>
 5    1  0.4838219E+001  0.1565880E+01  0.7818608E-02  0.3391250E+00
         11   -1    0    0    0    0  0.00000000000E+00  0.00000000000E+00  0.39999999674E+01  0.40000000000E+01  0.51100000000E-03 0.  1.
    9000002   -1    0    0    0    0 -0.00000000000E+00 -0.00000000000E+00  0.00000000000E+00  0.93800000000E+00  0.93800000000E+00 0. -1.
         11    1    1    2    0    0 -0.77704988899E-01 -0.71553524106E-01  0.30168863023E+01  0.30187350322E+01  0.51100000000E-03 0.  1.
    9000002    1    1    2    0    0 -0.12227035351E+00 -0.14239547252E-01  0.35201702514E-01  0.94669739828E+00  0.93800000000E+00 0. -1.
         22    1    1    2    0    0  0.19997534241E+00  0.85793071358E-01  0.94791196251E+00  0.97256756954E+00  0.00000000000E+00 0.  1.
</event>
<event>
 5    1  0.4838219E+001  0.1568795E+01  0.7818608E-02  0.3387944E+00
         11   -1    0    0    0    0  0.00000000000E+00  0.00000000000E+00  0.39999999674E+01  0.40000000000E+01  0.51100000000E-03 0.  1.
    9000002   -1    0    0    0    0 -0.00000000000E+00 -0.00000000000E+00  0.00000000000E+00  0.93800000000E+00  0.93800000000E+00 0.  1.
         11    1    1    2    0    0 -0.23277698207E+00 -0.13654165656E+00  0.13541203571E+01  0.13807501404E+01  0.51100000000E-03 0.  1.
    9000002    1    1    2    0    0  0.95269406148E-01  0.31127390019E+00  0.95796305203E-01  0.99749116927E+00  0.93800000000E+00 0.  1.
         22    1    1    2    0    0  0.13750757592E+00 -0.17473224362E+00  0.25500833050E+01  0.25597586904E+01  0.00000000000E+00 0.  1.
</event>
<event>
 5    1  0.4838219E+001  0.1454646E+01  0.7818608E-02  0.3527998E+00
         11   -1    0    0    0    0  0.00000000000E+00  0.00000000000E+00  0.39999999674E+01  0.40000000000E+01  0.51100000000E-03 0.  1.
    9000002   -1    0    0    0    0 -0.00000000000E+00 -0.00000000000E+00  0.00000000000E+00  0.93800000000E+00  0.93800000000E+00 0.  1.
         11    1    1    2    0    0  0.12805214326E+00 -0.27511096113E+00  0.44856444528E+00  0.54156598399E+00  0.51100000000E-03 0.  1.
    9000002    1    1    2    0    0  0.10198496549E+00 -0.83721135840E-01  0.13887927038E+00  0.95736179865E+00  0.93800000000E+00 0.  1.
         22    1    1    2    0    0 -0.23003710875E+00  0.35883209697E+00  0.34125562517E+01  0.34390722174E+01  0.00000000000E+00 0.  1.
</event>
<event>
 5    1  0.4838219E+001  0.1518841E+01  0.7818608E-02  0.3446453E+00
         11   -1    0    0    0    0  0.00000000000E+00  0.00000000000E+00  0.39999999674E+01  0.40000000000E+01  0.51100000000E-03 0.  1.
    9000002   -1    0    0    0    0 -0.00000000000E+00 -0.00000000000E+00  0.00000000000E+00  0.93800000000E+00  0.93800000000E+00 0.  1.
         11    1    1    2    0    0 -0.17410067763E+00 -0.26866547884E+00  0.31650355505E+01  0.31811857039E+01  0.51100000000E-03 0.  1.
    9000002    1    1    2    0    0  0.83726291617E-01  0.21367891652E-01  0.66294707867E-01  0.94430168219E+00  0.93800000000E+00 0.  1.
         22    1    1    2    0    0  0.90374386009E-01  0.24729758719E+00  0.76866970897E+00  0.81251261391E+00  0.00000000000E+00 0.  1.
</event>
<event>
 5    1  0.4838219E+001  0.1464549E+01  0.7818608E-02  0.3514914E+00
         11   -1    0    0    0    0  0.00000000000E+00  0.00000000000E+00  0.39999999674E+01  0.40000000000E+01  0.51100000000E-03 0. -1.
    9000002   -1    0    0    0    0 -0.00000000000E+00 -0.00000000000E+00  0.00000000000E+00  0.93800000000E+00  0.93800000000E+00 0. -1.
         11    1    1    2    0    0 -0.28924578831E+00 -0.15842705285E+00  0.22989740714E+01  0.23225081914E+01  0.51100000000E-03 0. -1.
    9000002    1    1    2    0    0 -0.21095512892E+00  0.43047718754E+00  0.28800879948E+00  0.10920648992E+01  0.93800000000E+00 0. -1.
         22    1    1    2    0    0  0.50020091723E+00 -0.27205013469E+00  0.14130170965E+01  0.15234269094E+01  0.00000000000E+00 0. -1.
</event>
<event>
 5    1  0.4838219E+001  0.1596078E+01  0.7818608E-02  0.3357631E+00
         11   -1    0    0    0    0  0.00000000000E+00  0.00000000000E+00  0.39999999674E+01  0.40000000000E+01  0.51100000000E-03 0.  1.
    9000002   -1    0    0    0    0 -0.00000000000E+00 -0.00000000000E+00  0.00000000000E+00  0.93800000000E+00  0.93800000000E+00 0.  1.
         11    1    1    2    0    0 -0.53160754652E-02  0.16499828383E-01  0.82837521106E+00  0.82855673096E+00  0.51100000000E-03 0.  1.
    9000002    1    1    2    0    0 -0.47459527628E-01  0.19254550047E+00  0.28732169006E-01  0.95916407045E+00  0.93800000000E+00 0.  1.
         22    1    1    2    0    0  0.52775603093E-01 -0.20904532885E+00  0.31428925873E+01  0.31502791986E+01  0.00000000000E+00 0. -1.
</event>
<event>
 5    1  0.4838219E+001  0.1456172E+01  0.7818608E-02  0.3525970E+00
         11   -1    0    0    0    0  0.00000000000E+00  0.00000000000E+00  0.39999999674E+01  0.40000000000E+01  0.51100000000E-03 0. -1.
    9000002   -1    0    0    0    0 -0.00000000000E+00 -0.00000000000E+00  0.00000000000E+00  0.93800000000E+00  0.93800000000E+00 0. -1.
         11    1    1    2    0    0  0.39364136028E+00 -0.74018642467E-01  0.10527853216E+01  0.11264055550E+01  0.51100000000E-03 0. -1.
    9000002    1    1    2    0    0 -0.14441775971E-01 -0.17424759910E+00  0.13567304408E+00  0.96375410016E+00  0.93800000000E+00 0. -1.
         22    1    1    2    0    0 -0.37919958431E+00  0.24826624156E+00  0.28115416017E+01  0.28478403448E+01  0.00000000000E+00 0. -1.
</event>
<event>
 5    1  0.4838219E+001  0.1491372E+01  0.7818608E-02  0.3480418E+00
         11   -1    0    0    0    0  0.00000000000E+00  0.00000000000E+00  0.39999999674E+01  0.40000000000E+01  0.51100000000E-03 0. -1.
    9000002   -1    0    0    0    0 -0.00000000000E+00 -0.00000000000E+00  0.00000000000E+00  0.93800000000E+00  0.93800000000E+00 0.  1.
         11    1    1    2    0    0 -0.34848123513E+00 -0.12002615273E-01  0.76712333416E+00  0.84265159167E+00  0.51100000000E-03 0. -1.
    9000002    1    1    2    0    0  0.14642194924E+00 -0.43896111102E-01  0.10017410224E+00  0.95563858574E+00  0.93800000000E+00 0.  1.
         22    1    1    2    0    0  0.20205928589E+00  0.55898726374E-01  0.31327025310E+01  0.31397098226E+01  0.00000000000E+00 0. -1.
</event>
<event>
 5    1  0.4838219E+001  0.1568546E+01  0.7818608E-02  0.3388227E+00
         11   -1    0    0    0    0  0.00000000000E+00  0.00000000000E+00  0.39999999674E+01  0.40000000000E+01  0.51100000000E-03 0.  1.
    9000002   -1    0    0    0    0 -0.00000000000E+00 -0.00000000000E+00  0.00000000000E+00  0.93800000000E+00  0.93800000000E+00 0.  1.
         11    1    1    2    0    0 -0.59543965019E-01 -0.43744482527E-01  0.29023189001E+01  0.29032592586E+01  0.51100000000E-03 0.  1.
    9000002    1    1    2    0    0 -0.96645463083E-01 -0.12646778677E+00  0.40132674779E-01  0.95225473389E+00  0.93800000000E+00 0.  1.
         22    1    1    2    0    0  0.15618942810E+00  0.17021226930E+00  0.10575483925E+01  0.10824860075E+01  0.00000000000E+00 0.  1.
</event>
<event>
 5    1  0.4838219E+001  0.1488128E+01  0.7818608E-02  0.3484519E+00
         11   -1    0    0    0    0  0.00000000000E+00  0.00000000000E+00  0.39999999674E+01  0.40000000000E+01  0.51100000000E-03 0. -1.
    9000002   -1    0    0    0    0 -0.00000000000E+00 -0.00000000000E+00  0.00000000000E+00  0.93800000000E+00  0.93800000000E+00 0. -1.
         11    1    1    2    0    0 -0.17405445796E+00 -0.13591604108E+00  0.11120694069E+01  0.11337842614E+01  0.51100000000E-03 0. -1.
    9000002    1    1    2    0    0 -0.19492333451E+00 -0.49951344028E+00  0.31061701605E+00  0.11242044805E+01  0.93800000000E+00 0. -1.
         22    1    1    2    0    0  0.36897779247E+00  0.63542948137E+00  0.25773135444E+01  0.26800112581E+01  0.00000000000E+00 0. -1.
</event>
<event>
 5    1  0.4838219E+001  0.1577161E+01  0.7818608E-02  0.3378531E+00
         11   -1    0    0    0    0  0.00000000000E+00  0.00000000000E+00  0.39999999674E+01  0.40000000000E+01  0.51100000000E-03 0.  1.
    9000002   -1    0    0    0    0 -0.00000000000E+00 -0.00000000000E+00  0.00000000000E+00  0.93800000000E+00  0.93800000000E+00 0. -1.
         11    1    1    2    0    0  0.10504398653E+00  0.86777343529E-01  0.15994912168E+01  0.16052840746E+01  0.51100000000E-03 0.  1.
    9000002    1    1    2    0    0  0.10038997378E+00  0.35390665979E-01  0.24110800530E-01  0.94432832044E+00  0.93800000000E+00 0. -1.
         22    1    1    2    0    0 -0.20543396031E+00 -0.12216800951E+00  0.23763979501E+01  0.23883876050E+01  0.00000000000E+00 0. -1.
</event>
<event>
 5    1  0.4838219E+001  0.1527496E+01  0.7818608E-02  0.3436022E+00
         11   -1    0    0    0    0  0.00000000000E+00  0.00000000000E+00  0.39999999674E+01  0.40000000000E+01  0.51100000000E-03 0. -1.
    9000002   -1    0    0    0    0 -0.00000000000E+00 -0.00000000000E+00  0.00000000000E+00  0.93800000000E+00  0.93800000000E+00 0. -1.
         11    1    1    2    0    0 -0.32238889374E+00 -0.10888850153E+00  0.15905475284E+01  0.16265401950E+01  0.51100000000E-03 0. -1.
    9000002    1    1    2    0    0  0.19719237616E-01  0.15714731988E+00  0.71998944032E-01  0.95399789120E+00  0.93800000000E+00 0. -1.
         22    1    1    2    0    0  0.30266965612E+00 -0.48258818352E-01  0.23374534949E+01  0.23574619138E+01  0.00000000000E+00 0. -1.
</event>
<event>
 5    1  0.4838219E+001  0.1561470E+01  0.7818608E-02  0.3396274E+00
         11   -1    0    0    0    0  0.00000000000E+00  0.00000000000E+00  0.39999999674E+01  0.40000000000E+01  0.51100000000E-03 0. -1.
    9000002   -1    0    0    0    0 -0.00000000000E+00 -0.00000000000E+00  0.00000000000E+00  0.93800000000E+00  0.93800000000E+00 0. -1.
         11    1    1    2    0    0 -0.10565102143E+00 -0.17752034263E+00  0.11063529024E+01  0.11254743961E+01  0.51100000000E-03 0. -1.
    9000002    1    1    2    0    0  0.29244681406E-01 -0.35224694547E-01  0.29611662592E-01  0.93958335503E+00  0.93800000000E+00 0. -1.
         22    1    1    2    0    0  0.76406340021E-01  0.21274503718E+00  0.28640354023E+01  0.28729422489E+01  0.00000000000E+00 0. -1.
</event>
<event>
 5    1  0.4838219E+001  0.1565192E+01  0.7818608E-02  0.3392031E+00
         11   -1    0    0    0    0  0.00000000000E+00  0.00000000000E+00  0.39999999674E+01  0.40000000000E+01  0.51100000000E-03 0.  1.
    9000002   -1    0    0    0    0 -0.00000000000E+00 -0.00000000000E+00  0.00000000000E+00  0.93800000000E+00  0.93800000000E+00 0.  1.
         11    1    1    2    0    0  0.16457714473E+00 -0.14569387700E+00  0.20111571911E+01  0.20231326824E+01  0.51100000000E-03 0.  1.
    9000002    1    1    2    0    0 -0.28613784221E-01 -0.39127217934E-01  0.26986259626E-01  0.93963926378E+00  0.93800000000E+00 0.  1.
         22    1    1    2    0    0 -0.13596336051E+00  0.18482109494E+00  0.19618565167E+01  0.19752280538E+01  0.00000000000E+00 0. -1.
</event>
<event>
 5    1  0.4838219E+001  0.1558244E+01  0.7818608E-02  0.3399969E+00
         11   -1    0    0    0    0  0.00000000000E+00  0.00000000000E+00  0.39999999674E+01  0.40000000000E+01  0.51100000000E-03 0.  1.
    9000002   -1    0    0    0    0 -0.00000000000E+00 -0.00000000000E+00  0.00000000000E+00  0.93800000000E+00  0.93800000000E+00 0.  1.
         11    1    1    2    0    0  0.20716410890E+00 -0.59453291771E-01  0.99657459218E+00  0.10196140646E+01  0.51100000000E-03 0.  1.
    9000002    1    1    2    0    0 -0.14347268562E-01 -0.12542606715E-01  0.30857239160E-01  0.93870087371E+00  0.93800000000E+00 0.  1.
         22    1    1    2    0    0 -0.19281684033E+00  0.71995898486E-01  0.29725681360E+01  0.29796850616E+01  0.00000000000E+00 0.  1.
</event>
<event>
 5    1  0.4838219E+001  0.1523240E+01  0.7818608E-02  0.3441136E+00
         11   -1    0    0    0    0  0.00000000000E+00  0.00000000000E+00  0.39999999674E+01  0.40000000000E+01  0.51100000000E-03 0.  1.
    9000002   -1    0    0    0    0 -0.00000000000E+00 -0.00000000000E+00  0.00000000000E+00  0.93800000000E+00  0.93800000000E+00 0. -1.
         11    1    1    2    0    0  0.22105291869E+00  0.20632044419E+00  0.92958073413E+00  0.97752397461E+00  0.51100000000E-03 0.  1.
    9000002    1    1    2    0    0  0.24461127207E-01 -0.14387085940E+00  0.72692175378E-01  0.95206371808E+00  0.93800000000E+00 0. -1.
         22    1    1    2    0    0 -0.24551404589E+00 -0.62449584799E-01  0.29977270579E+01  0.30084123073E+01  0.00000000000E+00 0.  1.
</event>
<event>
 5    1  0.4838219E+001  0.1442115E+01  0.7818608E-02  0.3544838E+00
         11   -1    0    0    0    0  0.00000000000E+00  0.00000000000E+00  0.39999999674E+01  0.40000000000E+01  0.51100000000E-03 0. -1.
    9000002   -1    0    0    0    0 -0.00000000000E+00 -0.00000000000E+00  0.00000000000E+00  0.93800000000E+00  0.93800000000E+00 0. -1.
         11    1    1    2    0    0 -0.37659639132E+00 -0.19083890581E+00  0.25575266154E+01  0.25921394599E+01  0.51100000000E-03 0. -1.
    9000002    1    1    2    0    0 -0.12135840260E-02 -0.93596319634E-01  0.13098754388E+00  0.95171607136E+00  0.93800000000E+00 0. -1.
         22    1    1    2    0    0  0.37780997535E+00  0.28443522544E+00  0.13114858081E+01  0.13941444688E+01  0.00000000000E+00 0. -1.
</event>
<event>
 5    1  0.4838219E+001  0.1558339E+01  0.7818608E-02  0.3399860E+00
         11   -1    0    0    0    0  0.00000000000E+00  0.00000000000E+00  0.39999999674E+01  0.40000000000E+01  0.51100000000E-03 0.  1.
    9000002   -1    0    0    0    0 -0.00000000000E+00 -0.00000000000E+00  0.00000000000E+00  0.93800000000E+00  0.93800000000E+00 0. -1.
         11    1    1    2    0    0 -0.43171456410E+00 -0.25898299233E-01  0.20719197729E+01  0.21165774243E+01  0.51100000000E-03 0.  1.
    9000002    1    1    2    0    0  0.48549118894E+00 -0.27949625700E+00  0.25773556784E+00  0.11225379616E+01  0.93800000000E+00 0. -1.
         22    1    1    2    0    0 -0.53776624840E-01  0.30539455623E+00  0.16703446267E+01  0.16988846141E+01  0.00000000000E+00 0.  1.
</event>
<event>
 5    1  0.4838219E+001  0.1491168E+01  0.7818608E-02  0.3480676E+00
         11   -1    0    0    0    0  0.00000000000E+00  0.00000000000E+00  0.39999999674E+01  0.40000000000E+01  0.51100000000E-03 0.  1.
    9000002   -1    0    0    0    0 -0.00000000000E+00 -0.00000000000E+00  0.00000000000E+00  0.93800000000E+00  0.93800000000E+00 0.  1.
         11    1    1    2    0    0 -0.27386536716E-01  0.44954857515E+00  0.28596083384E+01  0.28948582097E+01  0.51100000000E-03 0.  1.
    9000002    1    1    2    0    0  0.10730482269E-01 -0.13425619480E+00  0.96469241412E-01  0.95251781276E+00  0.93800000000E+00 0.  1.
         22    1    1    2    0    0  0.16656054447E-01 -0.31529238036E+00  0.10439223875E+01  0.10906239776E+01  0.00000000000E+00 0. -1.
</event>
<event>
 5    1  0.4838219E+001  0.1480097E+01  0.7818608E-02  0.3494753E+00
         11   -1    0    0    0    0  0.00000000000E+00  0.00000000000E+00  0.39999999674E+01  0.40000000000E+01  0.51100000000E-03 0.  1.
    9000002   -1    0    0    0    0 -0.00000000000E+00 -0.00000000000E+00  0.00000000000E+00  0.93800000000E+00  0.93800000000E+00 0.  1.
         11    1    1    2    0    0  0.18150937561E+00  0.32390898177E+00  0.36272012612E+01  0.36461557746E+01  0.51100000000E-03 0.  1.
    9000002    1    1    2    0    0 -0.13316039578E+00 -0.12241253813E+00  0.11665312088E+00  0.96237647057E+00  0.93800000000E+00 0.  1.
         22    1    1    2    0    0 -0.48348979834E-01 -0.20149644364E+00  0.25614558527E+00  0.32946775488E+00  0.00000000000E+00 0.  1.
</event>
<event>
 5    1  0.5623003E+001  0.1570791E+01  0.7818608E-02  0.3385689E+00
         11   -1    0    0    0    0  0.00000000000E+00  0.00000000000E+00  0.39999999674E+01  0.40000000000E+01  0.51100000000E-03 0.  1.
    9000002   -1    0    0    0    0 -0.00000000000E+00 -0.00000000000E+00  0.00000000000E+00  0.93800000000E+00  0.93800000000E+00 0.  1.
         11    1    1    2    0    0  0.42659775036E-01 -0.16113468000E+00  0.26919057384E+01  0.26970615504E+01  0.51100000000E-03 0.  1.
    9000002    1    1    2    0    0 -0.43792002147E-01 -0.44173624369E-01  0.23825446229E-01  0.94036200499E+00  0.93800000000E+00 0.  1.
         22    1    1    2    0    0  0.11322271112E-02  0.20530830436E+00  0.12842687828E+01  0.13005764446E+01  0.00000000000E+00 0.  1.
</event>
<event>
 5    1  0.4838219E+001  0.1589345E+01  0.7818608E-02  0.3365010E+00
         11   -1    0    0    0    0  0.00000000000E+00  0.00000000000E+00  0.39999999674E+01  0.40000000000E+01  0.51100000000E-03 0. -1.
    9000002   -1    0    0    0    0 -0.00000000000E+00 -0.00000000000E+00  0.00000000000E+00  0.93800000000E+00  0.93800000000E+00 0. -1.
         11    1    1    2    0    0 -0.35399558169E-01 -0.31397208805E-01  0.31294364872E+00  0.31650102975E+00  0.51100000000E-03 0. -1.
    9000002    1    1    2    0    0 -0.20041531444E+00 -0.13009509982E+00  0.45793862912E-01  0.96903669236E+00  0.93800000000E+00 0. -1.
         22    1    1    2    0    0  0.23581487261E+00  0.16149230863E+00  0.36412624557E+01  0.36524622779E+01  0.00000000000E+00 0. -1.
</event>
<event>
 5    1  0.4838219E+001  0.1515877E+01  0.7818608E-02  0.3450054E+00
         11   -1    0    0    0    0  0.00000000000E+00  0.00000000000E+00  0.39999999674E+01  0.40000000000E+01  0.51100000000E-03 0. -1.
    9000002   -1    0    0    0    0 -0.00000000000E+00 -0.00000000000E+00  0.00000000000E+00  0.93800000000E+00  0.93800000000E+00 0. -1.
         11    1    1    2    0    0 -0.25641963427E+00  0.26277388122E+00  0.15107101352E+01  0.15546853428E+01  0.51100000000E-03 0. -1.
    9000002    1    1    2    0    0  0.18657979312E-01 -0.84161152062E-01  0.68622202244E-01  0.94444916557E+00  0.93800000000E+00 0. -1.
         22    1    1    2    0    0  0.23776165496E+00 -0.17861272916E+00  0.24206676299E+01  0.24388654916E+01  0.00000000000E+00 0. -1.
</event>
<event>
 5    1  0.4838219E+001  0.1505839E+01  0.7818608E-02  0.3462363E+00
         11   -1    0    0    0    0  0.00000000000E+00  0.00000000000E+00  0.39999999674E+01  0.40000000000E+01  0.51100000000E-03 0. -1.
    9000002   -1    0    0    0    0 -0.00000000000E+00 -0.00000000000E+00  0.00000000000E+00  0.93800000000E+00  0.93800000000E+00 0.  1.
         11    1    1    2    0    0 -0.26572345103E+00  0.18249252181E+00  0.19450991895E+01  0.19716296790E+01  0.51100000000E-03 0. -1.
    9000002    1    1    2    0    0 -0.15568027507E+00 -0.96205639357E-01  0.95654777408E-01  0.96046119627E+00  0.93800000000E+00 0.  1.
         22    1    1    2    0    0  0.42140372611E+00 -0.86286882455E-01  0.19592460004E+01  0.20059091247E+01  0.00000000000E+00 0. -1.
</event>
<event>
 5    1  0.4838219E+001  0.1545070E+01  0.7818608E-02  0.3415229E+00
         11   -1    0    0    0    0  0.00000000000E+00  0.00000000000E+00  0.39999999674E+01  0.40000000000E+01  0.51100000000E-03 0. -1.
    9000002   -1    0    0    0    0 -0.00000000000E+00 -0.00000000000E+00  0.00000000000E+00  0.93800000000E+00  0.93800000000E+00 0. -1.
         11    1    1    2    0    0 -0.22553427308E-01  0.14053487820E+00  0.20592563632E+01  0.20641695036E+01  0.51100000000E-03 0. -1.
    9000002    1    1    2    0    0 -0.62538765043E-01  0.25727758778E+00  0.89881234553E-01  0.97878776588E+00  0.93800000000E+00 0. -1.
         22    1    1    2    0    0  0.85092192351E-01 -0.39781246598E+00  0.18508623696E+01  0.18950427305E+01  0.00000000000E+00 0. -1.
</event>
<event>
 5    1  0.4838219E+001  0.1542922E+01  0.7818608E-02  0.3417744E+00
         11   -1    0    0    0    0  0.00000000000E+00  0.00000000000E+00  0.39999999674E+01  0.40000000000E+01  0.51100000000E-03 0. -1.
    9000002   -1    0    0    0    0 -0.00000000000E+00 -0.00000000000E+00  0.00000000000E+00  0.93800000000E+00  0.93800000000E+00 0.  1.
         11    1    1    2    0    0  0.22443164702E+00 -0.99332318790E-01  0.13904855786E+01  0.14119797730E+01  0.51100000000E-03 0. -1.
    9000002    1    1    2    0    0  0.71150223367E-01 -0.38715222570E-01  0.46830135478E-01  0.94265491264E+00  0.93800000000E+00 0.  1.
         22    1    1    2    0    0 -0.29558187039E+00  0.13804754136E+00  0.25626842532E+01  0.25833653144E+01  0.00000000000E+00 0. -1.
</event>
<event>
 5    1  0.4838219E+001  0.1548747E+01  0.7818608E-02  0.3410942E+00
         11   -1    0    0    0    0  0.00000000000E+00  0.00000000000E+00  0.39999999674E+01  0.40000000000E+01  0.51100000000E-03 0. -1.
    9000002   -1    0    0    0    0 -0.00000000000E+00 -0.00000000000E+00  0.00000000000E+00  0.93800000000E+00  0.93800000000E+00 0.  1.
         11    1    1    2    0    0 -0.66675810059E-01 -0.20219922731E+00  0.73519336941E+00  0.76540168717E+00  0.51100000000E-03 0. -1.
    9000002    1    1    2    0    0  0.75184885197E-01 -0.19554875213E-01  0.41987248440E-01  0.94214759414E+00  0.93800000000E+00 0.  1.
         22    1    1    2    0    0 -0.85090751385E-02  0.22175410252E+00  0.32228193495E+01  0.32304507187E+01  0.00000000000E+00 0. -1.
</event>
<event>
 5    1  0.4838219E+001  0.1556374E+01  0.7818608E-02  0.3402119E+00
         11   -1    0    0    0    0  0.00000000000E+00  0.00000000000E+00  0.39999999674E+01  0.40000000000E+01  0.51100000000E-03 0. -1.
    9000002   -1    0    0    0    0 -0.00000000000E+00 -0.00000000000E+00  0.00000000000E+00  0.93800000000E+00  0.93800000000E+00 0.  1.
         11    1    1    2    0    0  0.35741861224E-01 -0.19543687478E+00  0.77400286382E+00  0.79909558063E+00  0.51100000000E-03 0. -1.
    9000002    1    1    2    0    0  0.90002154369E-01  0.16785772148E-01  0.37783533092E-01  0.94321458073E+00  0.93800000000E+00 0.  1.
         22    1    1    2    0    0 -0.12574401559E+00  0.17865110264E+00  0.31882135705E+01  0.31956898386E+01  0.00000000000E+00 0. -1.
</event>
<event>
 5    1  0.4838219E+001  0.1540592E+01  0.7818608E-02  0.3420479E+00
         11   -1    0    0    0    0  0.00000000000E+00  0.00000000000E+00  0.39999999674E+01  0.40000000000E+01  0.51100000000E-03 0. -1.
    9000002   -1    0    0    0    0 -0.00000000000E+00 -0.00000000000E+00  0.00000000000E+00  0.93800000000E+00  0.93800000000E+00 0. -1.
         11    1    1    2    0    0 -0.17279598050E+00  0.19146798681E+00  0.32548018723E+01  0.32650044303E+01  0.51100000000E-03 0. -1.
    9000002    1    1    2    0    0 -0.11851836405E-02 -0.59764517245E-01  0.46540259599E-01  0.94105430127E+00  0.93800000000E+00 0. -1.
         22    1    1    2    0    0  0.17398116414E+00 -0.13170346957E+00  0.69865783547E+00  0.73194126843E+00  0.00000000000E+00 0. -1.
</event>
<event>
 5    1  0.4838219E+001  0.1514213E+01  0.7818608E-02  0.3452083E+00
         11   -1    0    0    0    0  0.00000000000E+00  0.00000000000E+00  0.39999999674E+01  0.40000000000E+01  0.51100000000E-03 0. -1.
    9000002   -1    0    0    0    0 -0.00000000000E+00 -0.00000000000E+00  0.00000000000E+00  0.93800000000E+00  0.93800000000E+00 0.  1.
         11    1    1    2    0    0  0.21782956319E+00  0.26697095445E+00  0.10640069085E+01  0.11184069794E+01  0.51100000000E-03 0. -1.
    9000002    1    1    2    0    0 -0.11059577615E+00 -0.52476834382E-01  0.75387316653E-01  0.94895336627E+00  0.93800000000E+00 0.  1.
         22    1    1    2    0    0 -0.10723378704E+00 -0.21449412007E+00  0.28606057423E+01  0.28706396544E+01  0.00000000000E+00 0. -1.
</event>
<event>
 5    1  0.4838219E+001  0.1515708E+01  0.7818608E-02  0.3450260E+00
         11   -1    0    0    0    0  0.00000000000E+00  0.00000000000E+00  0.39999999674E+01  0.40000000000E+01  0.51100000000E-03 0. -1.
    9000002   -1    0    0    0    0 -0.00000000000E+00 -0.00000000000E+00  0.00000000000E+00  0.93800000000E+00  0.93800000000E+00 0. -1.
         11    1    1    2    0    0  0.34209877198E+00 -0.18745120648E+00  0.16131675128E+01  0.16596623783E+01  0.51100000000E-03 0. -1.
    9000002    1    1    2    0    0 -0.21192917691E+00 -0.10644659948E+00  0.10411765090E+00  0.97310294409E+00  0.93800000000E+00 0. -1.
         22    1    1    2    0    0 -0.13016959507E+00  0.29389780596E+00  0.22827148037E+01  0.23052346776E+01  0.00000000000E+00 0. -1.
</event>
<event>
 5    1  0.4838219E+001  0.1562451E+01  0.7818608E-02  0.3395154E+00
         11   -1    0    0    0    0  0.00000000000E+00  0.00000000000E+00  0.39999999674E+01  0.40000000000E+01  0.51100000000E-03 0.  1.
    9000002   -1    0    0    0    0 -0.00000000000E+00 -0.00000000000E+00  0.00000000000E+00  0.93800000000E+00  0.93800000000E+00 0. -1.
         11    1    1    2    0    0  0.61518378185E-01  0.23351513797E+00  0.26640563802E+01  0.26749785959E+01  0.51100000000E-03 0.  1.
    9000002    1    1    2    0    0 -0.28069384575E+00 -0.87400135298E-01  0.87260793475E-01  0.98685676001E+00  0.93800000000E+00 0. -1.
         22    1    1    2    0    0  0.21917546757E+00 -0.14611500267E+00  0.12486827936E+01  0.12761646440E+01  0.00000000000E+00 0.  1.
</event>
<event>
 5    1  0.4838219E+001  0.1546627E+01  0.7818608E-02  0.3413411E+00
         11   -1    0    0    0    0  0.00000000000E+00  0.00000000000E+00  0.39999999674E+01  0.40000000000E+01  0.51100000000E-03 0.  1.
    9000002   -1    0    0    0    0 -0.00000000000E+00 -0.00000000000E+00  0.00000000000E+00  0.93800000000E+00  0.93800000000E+00 0. -1.
         11    1    1    2    0    0 -0.25805668958E+00 -0.98438072680E-01  0.12443544432E+01  0.12746378115E+01  0.51100000000E-03 0.  1.
    9000002    1    1    2    0    0  0.72876575435E-03  0.25039442758E+00  0.83359680156E-01  0.97441815292E+00  0.93800000000E+00 0. -1.
         22    1    1    2    0    0  0.25732792382E+00 -0.15195635490E+00  0.26722858440E+01  0.26889440356E+01  0.00000000000E+00 0.  1.
</event>
<event>
 5    1  0.4838219E+001  0.1582561E+01  0.7818608E-02  0.3372511E+00
         11   -1    0    0    0    0  0.00000000000E+00  0.00000000000E+00  0.39999999674E+01  0.40000000000E+01  0.51100000000E-03 0.  1.
    9000002   -1    0    0    0    0 -0.00000000000E+00 -0.00000000000E+00  0.00000000000E+00  0.93800000000E+00  0.93800000000E+00 0. -1.
         11    1    1    2    0    0 -0.82670559701E-01  0.74363928444E-02  0.78252760773E+00  0.78691768271E+00  0.51100000000E-03 0.  1.
    9000002    1    1    2    0    0 -0.20698421646E+00 -0.14475734521E+00  0.55599667292E-01  0.97300178718E+00  0.93800000000E+00 0. -1.
         22    1    1    2    0    0  0.28965477616E+00  0.13732095236E+00  0.31618726923E+01  0.31780805301E+01  0.00000000000E+00 0.  1.
</event>
<event>
 5    1  0.4838219E+001  0.1592768E+01  0.7818608E-02  0.3361250E+00
         11   -1    0    0    0    0  0.00000000000E+00  0.00000000000E+00  0.39999999674E+01  0.40000000000E+01  0.51100000000E-03 0. -1.
    9000002   -1    0    0    0    0 -0.00000000000E+00 -0.00000000000E+00  0.00000000000E+00  0.93800000000E+00  0.93800000000E+00 0.  1.
         11    1    1    2    0    0  0.26202702796E+00 -0.15229328632E+00  0.26785436716E+01  0.26956349660E+01  0.51100000000E-03 0. -1.
    9000002    1    1    2    0    0 -0.48544463473E+00  0.14875958077E+00  0.18299314329E+00  0.10821813142E+01  0.93800000000E+00 0.  1.
         22    1    1    2    0    0  0.22341760676E+00  0.35337055510E-02  0.11384631525E+01  0.11601837198E+01  0.00000000000E+00 0. -1.
</event>
<event>
 5    1  0.4838219E+001  0.1425694E+01  0.7818608E-02  0.3567393E+00
         11   -1    0    0    0    0  0.00000000000E+00  0.00000000000E+00  0.39999999674E+01  0.40000000000E+01  0.51100000000E-03 0.  1.
    9000002   -1    0    0    0    0 -0.00000000000E+00 -0.00000000000E+00  0.00000000000E+00  0.93800000000E+00  0.93800000000E+00 0.  1.
         11    1    1    2    0    0 -0.56787653199E+00 -0.37635071373E+00  0.77302041195E+00  0.10303807227E+01  0.51100000000E-03 0.  1.
    9000002    1    1    2    0    0  0.79316045545E+00  0.33576310014E+00  0.87631945262E+00  0.15458396264E+01  0.93800000000E+00 0.  1.
         22    1    1    2    0    0 -0.22528392346E+00  0.40587613585E-01  0.23506601028E+01  0.23617796509E+01  0.00000000000E+00 0. -1.
</event>
<event>
 5    1  0.4838219E+001  0.1568584E+01  0.7818608E-02  0.3388184E+00
         11   -1    0    0    0    0  0.00000000000E+00  0.00000000000E+00  0.39999999674E+01  0.40000000000E+01  0.51100000000E-03 0.  1.
    9000002   -1    0    0    0    0 -0.00000000000E+00 -0.00000000000E+00  0.00000000000E+00  0.93800000000E+00  0.93800000000E+00 0. -1.
         11    1    1    2    0    0 -0.21411213202E+00 -0.42221414839E-01  0.21882503619E+01  0.21991058548E+01  0.51100000000E-03 0.  1.
    9000002    1    1    2    0    0  0.62270333494E-02  0.99779208677E-01  0.29640672941E-01  0.94377817093E+00  0.93800000000E+00 0. -1.
         22    1    1    2    0    0  0.20788509867E+00 -0.57557793838E-01  0.17821089325E+01  0.17951159743E+01  0.00000000000E+00 0. -1.
</event>
<event>
 5    1  0.4838219E+001  0.1599450E+01  0.7818608E-02  0.3353961E+00
         11   -1    0    0    0    0  0.00000000000E+00  0.00000000000E+00  0.39999999674E+01  0.40000000000E+01  0.51100000000E-03 0.  1.
    9000002   -1    0    0    0    0 -0.00000000000E+00 -0.00000000000E+00  0.00000000000E+00  0.93800000000E+00  0.93800000000E+00 0.  1.
         11    1    1    2    0    0 -0.22129993198E-02  0.12257320594E-01  0.23131133184E+00  0.23164700005E+00  0.51100000000E-03 0.  1.
    9000002    1    1    2    0    0 -0.10127899608E+00 -0.25134439350E+00  0.49036976367E-01  0.97758890350E+00  0.93800000000E+00 0.  1.
         22    1    1    2    0    0  0.10349199540E+00  0.23908707290E+00  0.37196516592E+01  0.37287640965E+01  0.00000000000E+00 0.  1.
</event>
<event>
 5    1  0.8223472E+001  0.1566930E+01  0.7818608E-02  0.3390058E+00
         11   -1    0    0    0    0  0.00000000000E+00  0.00000000000E+00  0.39999999674E+01  0.40000000000E+01  0.51100000000E-03 0.  1.
    9000002   -1    0    0    0    0 -0.00000000000E+00 -0.00000000000E+00  0.00000000000E+00  0.93800000000E+00  0.93800000000E+00 0. -1.
         11    1    1    2    0    0 -0.16231649989E+00 -0.68305452583E-01  0.89002554245E+00  0.90728055657E+00  0.51100000000E-03 0.  1.
    9000002    1    1    2    0    0 -0.46660489529E-01  0.50168953843E-01  0.27277761977E-01  0.94089436257E+00  0.93800000000E+00 0. -1.
         22    1    1    2    0    0  0.20897698942E+00  0.18136498740E-01  0.30826966629E+01  0.30898250809E+01  0.00000000000E+00 0.  1.
</event>
<event>
 5    1  0.4838219E+001  0.1533446E+01  0.7818608E-02  0.3428926E+00
         11   -1    0    0    0    0  0.00000000000E+00  0.00000000000E+00  0.39999999674E+01  0.40000000000E+01  0.51100000000E-03 0. -1.
    9000002   -1    0    0    0    0 -0.00000000000E+00 -0.00000000000E+00  0.00000000000E+00  0.93800000000E+00  0.93800000000E+00 0. -1.
         11    1    1    2    0    0  0.32058678760E+00 -0.63104402374E-01  0.10256636611E+01  0.10764498413E+01  0.51100000000E-03 0. -1.
    9000002    1    1    2    0    0 -0.17501649397E+00  0.37077919031E+00  0.17130599488E+00  0.10379295376E+01  0.93800000000E+00 0. -1.
         22    1    1    2    0    0 -0.14557029363E+00 -0.30767478793E+00  0.28030303114E+01  0.28236206211E+01  0.00000000000E+00 0. -1.
</event>
<event>
 5    1  0.4838219E+001  0.1599591E+01  0.7818608E-02  0.3353808E+00
         11   -1    0    0    0    0  0.00000000000E+00  0.00000000000E+00  0.39999999674E+01  0.40000000000E+01  0.51100000000E-03 0.  1.
    9000002   -1    0    0    0    0 -0.00000000000E+00 -0.00000000000E+00  0.00000000000E+00  0.93800000000E+00  0.93800000000E+00 0.  1.
         11    1    1    2    0    0 -0.66564017798E-01 -0.60372643923E-01  0.92828029556E+00  0.93262006886E+00  0.51100000000E-03 0.  1.
    9000002    1    1    2    0    0  0.27771847921E+00  0.21475323638E+00  0.82717177852E-01  0.10049540476E+01  0.93800000000E+00 0.  1.
         22    1    1    2    0    0 -0.21115446142E+00 -0.15438059245E+00  0.29890024940E+01  0.30004258836E+01  0.00000000000E+00 0.  1.
</event>
<event>
 5    1  0.4838219E+001  0.1580734E+01  0.7818608E-02  0.3374543E+00
         11   -1    0    0    0    0  0.00000000000E+00  0.00000000000E+00  0.39999999674E+01  0.40000000000E+01  0.51100000000E-03 0. -1.
    9000002   -1    0    0    0    0 -0.00000000000E+00 -0.00000000000E+00  0.00000000000E+00  0.93800000000E+00  0.93800000000E+00 0. -1.
         11    1    1    2    0    0  0.10828707951E+00 -0.62933167380E-01  0.21914232481E+01  0.21949994963E+01  0.51100000000E-03 0. -1.
    9000002    1    1    2    0    0 -0.22629884139E-02 -0.11324064884E+00  0.22452732891E-01  0.94508025632E+00  0.93800000000E+00 0. -1.
         22    1    1    2    0    0 -0.10602409110E+00  0.17617381622E+00  0.17861239864E+01  0.17979202474E+01  0.00000000000E+00 0. -1.
</event>
<event>
 5    1  0.4838219E+001  0.1598248E+01  0.7818608E-02  0.3355267E+00
         11   -1    0    0    0    0  0.00000000000E+00  0.00000000000E+00  0.39999999674E+01  0.40000000000E+01  0.51100000000E-03 0.  1.
    9000002   -1    0    0    0    0 -0.00000000000E+00 -0.00000000000E+00  0.00000000000E+00  0.93800000000E+00  0.93800000000E+00 0.  1.
         11    1    1    2    0    0  0.10849589451E+00  0.46982943190E-01  0.16140918977E+01  0.16184164085E+01  0.51100000000E-03 0.  1.
    9000002    1    1    2    0    0 -0.35925005656E+00 -0.63617394490E-01  0.90561799737E-01  0.10105212593E+01  0.93800000000E+00 0.  1.
         22    1    1    2    0    0  0.25075416205E+00  0.16634451299E-01  0.22953462699E+01  0.23090623321E+01  0.00000000000E+00 0.  1.
</event>
<event>
 5    1  0.4838219E+001  0.1540678E+01  0.7818608E-02  0.3420378E+00
         11   -1    0    0    0    0  0.00000000000E+00  0.00000000000E+00  0.39999999674E+01  0.40000000000E+01  0.51100000000E-03 0.  1.
    9000002   -1    0    0    0    0 -0.00000000000E+00 -0.00000000000E+00  0.00000000000E+00  0.93800000000E+00  0.93800000000E+00 0. -1.
         11    1    1    2    0    0  0.19023306459E-01  0.43977060182E+00  0.11116818899E+01  0.11956575404E+01  0.51100000000E-03 0.  1.
    9000002    1    1    2    0    0 -0.23701557140E+00 -0.56484128333E+00  0.32465593678E+00  0.11663908152E+01  0.93800000000E+00 0. -1.
         22    1    1    2    0    0  0.21799226494E+00  0.12507068151E+00  0.25636621407E+01  0.25759516445E+01  0.00000000000E+00 0.  1.
</event>
<event>
 5    1  0.4838219E+001  0.1532891E+01  0.7818608E-02  0.3429585E+00
         11   -1    0    0    0    0  0.00000000000E+00  0.00000000000E+00  0.39999999674E+01  0.40000000000E+01  0.51100000000E-03 0. -1.
    9000002   -1    0    0    0    0 -0.00000000000E+00 -0.00000000000E+00  0.00000000000E+00  0.93800000000E+00  0.93800000000E+00 0.  1.
         11    1    1    2    0    0 -0.23682626987E+00 -0.19466956299E+00  0.16358569869E+01  0.16643350815E+01  0.51100000000E-03 0. -1.
    9000002    1    1    2    0    0  0.42318954764E-01 -0.46867663469E-01  0.52794174101E-01  0.94160432063E+00  0.93800000000E+00 0.  1.
         22    1    1    2    0    0  0.19450731511E+00  0.24153722646E+00  0.23113488063E+01  0.23320605978E+01  0.00000000000E+00 0. -1.
</event>
<event>
 5    1  0.4838219E+001  0.1518641E+01  0.7818608E-02  0.3446695E+00
         11   -1    0    0    0    0  0.00000000000E+00  0.00000000000E+00  0.39999999674E+01  0.40000000000E+01  0.51100000000E-03 0.  1.
    9000002   -1    0    0    0    0 -0.00000000000E+00 -0.00000000000E+00  0.00000000000E+00  0.93800000000E+00  0.93800000000E+00 0.  1.
         11    1    1    2    0    0 -0.30705899566E+00 -0.75046101293E-01  0.10648093539E+01  0.11107368569E+01  0.51100000000E-03 0.  1.
    9000002    1    1    2    0    0  0.77939646057E-01 -0.12543604070E+00  0.76745202178E-01  0.95265031087E+00  0.93800000000E+00 0.  1.
         22    1    1    2    0    0  0.22911934960E+00  0.20048214200E+00  0.28584454113E+01  0.28746128322E+01  0.00000000000E+00 0.  1.
</event>
<event>
 5    1  0.5754777E+001  0.1578928E+01  0.7818608E-02  0.3376556E+00
         11   -1    0    0    0    0  0.00000000000E+00  0.00000000000E+00  0.39999999674E+01  0.40000000000E+01  0.51100000000E-03 0. -1.
    9000002   -1    0    0    0    0 -0.00000000000E+00 -0.00000000000E+00  0.00000000000E+00  0.93800000000E+00  0.93800000000E+00 0. -1.
         11    1    1    2    0    0 -0.76529537043E-01  0.12842191432E+00  0.18071333195E+01  0.18133063872E+01  0.51100000000E-03 0. -1.
    9000002    1    1    2    0    0 -0.19566410223E-01  0.47470609393E-01  0.16941676301E-01  0.93955698260E+00  0.93800000000E+00 0. -1.
         22    1    1    2    0    0  0.96095947266E-01 -0.17589252371E+00  0.21759249715E+01  0.21851366302E+01  0.00000000000E+00 0. -1.
</event>
<event>
 5    1  0.4838219E+001  0.1549652E+01  0.7818608E-02  0.3409890E+00
         11   -1    0    0    0    0  0.00000000000E+00  0.00000000000E+00  0.39999999674E+01  0.40000000000E+01  0.51100000000E-03 0.  1.
    9000002   -1    0    0    0    0 -0.00000000000E+00 -0.00000000000E+00  0.00000000000E+00  0.93800000000E+00  0.93800000000E+00 0. -1.
         11    1    1    2    0    0  0.23780924529E+00  0.50922473204E-01  0.24142721537E+01  0.24264905993E+01  0.51100000000E-03 0.  1.
    9000002    1    1    2    0    0  0.11578680143E-01  0.72740064660E-01  0.40871800668E-01  0.94177475382E+00  0.93800000000E+00 0. -1.
         22    1    1    2    0    0 -0.24938792544E+00 -0.12366253786E+00  0.15448560130E+01  0.15697346469E+01  0.00000000000E+00 0. -1.
</event>
<event>
 5    1  0.4838219E+001  0.1502231E+01  0.7818608E-02  0.3466831E+00
         11   -1    0    0    0    0  0.00000000000E+00  0.00000000000E+00  0.39999999674E+01  0.40000000000E+01  0.51100000000E-03 0. -1.
    9000002   -1    0    0    0    0 -0.00000000000E+00 -0.00000000000E+00  0.00000000000E+00  0.93800000000E+00  0.93800000000E+00 0. -1.
         11    1    1    2    0    0  0.30445889401E+00 -0.71704449698E-01  0.51668314025E+00  0.60398549220E+00  0.51100000000E-03 0. -1.
    9000002    1    1    2    0    0 -0.38036473472E+00 -0.12432851274E+00  0.19411724941E+00  0.10381042419E+01  0.93800000000E+00 0. -1.
         22    1    1    2    0    0  0.75905840703E-01  0.19603296244E+00  0.32891995777E+01  0.32959102659E+01  0.00000000000E+00 0. -1.
</event>
<event>
 5    1  0.8105267E+001  0.1569864E+01  0.7818608E-02  0.3386736E+00
         11   -1    0    0    0    0  0.00000000000E+00  0.00000000000E+00  0.39999999674E+01  0.40000000000E+01  0.51100000000E-03 0. -1.
    9000002   -1    0    0    0    0 -0.00000000000E+00 -0.00000000000E+00  0.00000000000E+00  0.93800000000E+00  0.93800000000E+00 0. -1.
         11    1    1    2    0    0  0.20715991564E+00 -0.17569591161E-01  0.19369538968E+01  0.19480797162E+01  0.51100000000E-03 0. -1.
    9000002    1    1    2    0    0  0.66390391140E-03  0.17320289431E-01  0.22099970684E-01  0.93842039721E+00  0.93800000000E+00 0. -1.
         22    1    1    2    0    0 -0.20782381955E+00  0.24930173005E-03  0.20409460999E+01  0.20514998866E+01  0.00000000000E+00 0. -1.
</event>
<event>
 5    1  0.4838219E+001  0.1552963E+01  0.7818608E-02  0.3406053E+00
         11   -1    0    0    0    0  0.00000000000E+00  0.00000000000E+00  0.39999999674E+01  0.40000000000E+01  0.51100000000E-03 0.  1.
    9000002   -1    0    0    0    0 -0.00000000000E+00 -0.00000000000E+00  0.00000000000E+00  0.93800000000E+00  0.93800000000E+00 0. -1.
         11    1    1    2    0    0  0.15550316209E+00  0.18405323720E-01  0.45578892730E+00  0.48193754443E+00  0.51100000000E-03 0.  1.
    9000002    1    1    2    0    0  0.97066897177E-01 -0.18132217656E-01  0.41330836646E-01  0.94408844814E+00  0.93800000000E+00 0. -1.
         22    1    1    2    0    0 -0.25257005927E+00 -0.27310606360E-03  0.35028802034E+01  0.35119740074E+01  0.00000000000E+00 0.  1.
</event>
<event>
 5    1  0.4838219E+001  0.1539654E+01  0.7818608E-02  0.3421583E+00
         11   -1    0    0    0    0  0.00000000000E+00  0.00000000000E+00  0.39999999674E+01  0.40000000000E+01  0.51100000000E-03 0.  1.
    9000002   -1    0    0    0    0 -0.00000000000E+00 -0.00000000000E+00  0.00000000000E+00  0.93800000000E+00  0.93800000000E+00 0.  1.
         11    1    1    2    0    0  0.98948382571E-02 -0.18223530686E+00  0.43709587449E+00  0.47366726666E+00  0.51100000000E-03 0.  1.
    9000002    1    1    2    0    0 -0.16109129146E+00 -0.49274641126E-01  0.64681884252E-01  0.95519952920E+00  0.93800000000E+00 0.  1.
         22    1    1    2    0    0  0.15119645320E+00  0.23150994799E+00  0.34982222086E+01  0.35091332041E+01  0.00000000000E+00 0.  1.
</event>
<event>
 5    1  0.4838219E+001  0.1573958E+01  0.7818608E-02  0.3382123E+00
         11   -1    0    0    0    0  0.00000000000E+00  0.00000000000E+00  0.39999999674E+01  0.40000000000E+01  0.51100000000E-03 0. -1.
    9000002   -1    0    0    0    0 -0.00000000000E+00 -0.00000000000E+00  0.00000000000E+00  0.93800000000E+00  0.93800000000E+00 0. -1.
         11    1    1    2    0    0  0.11126581999E+00  0.77812473721E-01  0.72611284687E+00  0.73869817332E+00  0.51100000000E-03 0. -1.
    9000002    1    1    2    0    0  0.14243930324E+00 -0.10181124763E+00  0.39632670997E-01  0.95502315881E+00  0.93800000000E+00 0. -1.
         22    1    1    2    0    0 -0.25370512323E+00  0.23998773909E-01  0.32342544495E+01  0.32442786679E+01  0.00000000000E+00 0. -1.
</event>
<event>
 5    1  0.4838219E+001  0.1535452E+01  0.7818608E-02  0.3426546E+00
         11   -1    0    0    0    0  0.00000000000E+00  0.00000000000E+00  0.39999999674E+01  0.40000000000E+01  0.51100000000E-03 0.  1.
    9000002   -1    0    0    0    0 -0.00000000000E+00 -0.00000000000E+00  0.00000000000E+00  0.93800000000E+00  0.93800000000E+00 0.  1.
         11    1    1    2    0    0 -0.59567343244E-01 -0.27575377032E+00  0.65127933845E+00  0.70975590737E+00  0.51100000000E-03 0.  1.
    9000002    1    1    2    0    0  0.33483011305E+00  0.24636086187E+00  0.17298706592E+00  0.10404678774E+01  0.93800000000E+00 0.  1.
         22    1    1    2    0    0 -0.27526276981E+00  0.29392908452E-01  0.31757335630E+01  0.31877762153E+01  0.00000000000E+00 0.  1.
</event>
<event>
 5    1  0.4838219E+001  0.1531286E+01  0.7818608E-02  0.3431495E+00
         11   -1    0    0    0    0  0.00000000000E+00  0.00000000000E+00  0.39999999674E+01  0.40000000000E+01  0.51100000000E-03 0.  1.
    9000002   -1    0    0    0    0 -0.00000000000E+00 -0.00000000000E+00  0.00000000000E+00  0.93800000000E+00  0.93800000000E+00 0.  1.
         11    1    1    2    0    0 -0.20671287316E+00  0.28957721715E+00  0.15272891929E+01  0.15681829346E+01  0.51100000000E-03 0.  1.
    9000002    1    1    2    0    0  0.57978747876E-01 -0.11229345850E+00  0.62515120948E-01  0.94853755665E+00  0.93800000000E+00 0.  1.
         22    1    1    2    0    0  0.14873412528E+00 -0.17728375865E+00  0.24101956535E+01  0.24212795087E+01  0.00000000000E+00 0.  1.
</event>
<event>
 5    1  0.4871629E+001  0.1576054E+01  0.7818608E-02  0.3379771E+00
         11   -1    0    0    0    0  0.00000000000E+00  0.00000000000E+00  0.39999999674E+01  0.40000000000E+01  0.51100000000E-03 0. -1.
    9000002   -1    0    0    0    0 -0.00000000000E+00 -0.00000000000E+00  0.00000000000E+00  0.93800000000E+00  0.93800000000E+00 0. -1.
         11    1    1    2    0    0 -0.10945645676E+00  0.12324456351E+00  0.15305038733E+01  0.15393545094E+01  0.51100000000E-03 0. -1.
    9000002    1    1    2    0    0 -0.22098544152E-01  0.32882355262E-01  0.18354236708E-01  0.93901569366E+00  0.93800000000E+00 0. -1.
         22    1    1    2    0    0  0.13155500091E+00 -0.15612691877E+00  0.24511418573E+01  0.24596297969E+01  0.00000000000E+00 0. -1.
</event>
<event>
 5    1  0.4838219E+001  0.1532051E+01  0.7818608E-02  0.3430585E+00
         11   -1    0    0    0    0  0.00000000000E+00  0.00000000000E+00  0.39999999674E+01  0.40000000000E+01  0.51100000000E-03 0.  1.
    9000002   -1    0    0    0    0 -0.00000000000E+00 -0.00000000000E+00  0.00000000000E+00  0.93800000000E+00  0.93800000000E+00 0.  1.
         11    1    1    2    0    0  0.78955070163E-01 -0.11380257464E+00  0.19345087740E+00  0.23792526597E+00  0.51100000000E-03 0.  1.
    9000002    1    1    2    0    0 -0.86577175461E-01 -0.13414274290E+00  0.68661037786E-01  0.95396447570E+00  0.93800000000E+00 0.  1.
         22    1    1    2    0    0  0.76221052980E-02  0.24794531754E+00  0.37378880522E+01  0.37461102583E+01  0.00000000000E+00 0.  1.
</event>
<event>
 5    1  0.4838219E+001  0.1553669E+01  0.7818608E-02  0.3405237E+00
         11   -1    0    0    0    0  0.00000000000E+00  0.00000000000E+00  0.39999999674E+01  0.40000000000E+01  0.51100000000E-03 0.  1.
    9000002   -1    0    0    0    0 -0.00000000000E+00 -0.00000000000E+00  0.00000000000E+00  0.93800000000E+00  0.93800000000E+00 0.  1.
         11    1    1    2    0    0  0.20917339161E+00 -0.20133160353E+00  0.27249058066E+01  0.27403284180E+01  0.51100000000E-03 0.  1.
    9000002    1    1    2    0    0  0.17767766981E-01  0.16186221549E+00  0.52401421328E-01  0.95346996770E+00  0.93800000000E+00 0.  1.
         22    1    1    2    0    0 -0.22694115859E+00  0.39469388046E-01  0.12226927394E+01  0.12442016143E+01  0.00000000000E+00 0.  1.
</event>
<event>
 5    1  0.4838219E+001  0.1455268E+01  0.7818608E-02  0.3527171E+00
         11   -1    0    0    0    0  0.00000000000E+00  0.00000000000E+00  0.39999999674E+01  0.40000000000E+01  0.51100000000E-03 0.  1.
    9000002   -1    0    0    0    0 -0.00000000000E+00 -0.00000000000E+00  0.00000000000E+00  0.93800000000E+00  0.93800000000E+00 0.  1.
         11    1    1    2    0    0  0.49842599661E+00 -0.10040675167E+00  0.28934929383E+01  0.29378243030E+01  0.51100000000E-03 0.  1.
    9000002    1    1    2    0    0 -0.14181089764E+00  0.37664382681E-01  0.12946167727E+00  0.95819270624E+00  0.93800000000E+00 0.  1.
         22    1    1    2    0    0 -0.35661509897E+00  0.62742368984E-01  0.97704535178E+00  0.10419829908E+01  0.00000000000E+00 0. -1.
</event>
<event>
 5    1  0.4838219E+001  0.1594472E+01  0.7818608E-02  0.3359385E+00
         11   -1    0    0    0    0  0.00000000000E+00  0.00000000000E+00  0.39999999674E+01  0.40000000000E+01  0.51100000000E-03 0. -1.
    9000002   -1    0    0    0    0 -0.00000000000E+00 -0.00000000000E+00  0.00000000000E+00  0.93800000000E+00  0.93800000000E+00 0.  1.
         11    1    1    2    0    0 -0.67073231632E-01  0.52487075880E-01  0.16942398781E+01  0.16963793023E+01  0.51100000000E-03 0. -1.
    9000002    1    1    2    0    0  0.16552341244E-01 -0.26596328521E+00  0.51250741776E-01  0.97646356185E+00  0.93800000000E+00 0.  1.
         22    1    1    2    0    0  0.50520890388E-01  0.21347620933E+00  0.22545093474E+01  0.22651571358E+01  0.00000000000E+00 0.  1.
</event>
<event>
 5    1  0.4838219E+001  0.1554402E+01  0.7818608E-02  0.3404392E+00
         11   -1    0    0    0    0  0.00000000000E+00  0.00000000000E+00  0.39999999674E+01  0.40000000000E+01  0.51100000000E-03 0. -1.
    9000002   -1    0    0    0    0 -0.00000000000E+00 -0.00000000000E+00  0.00000000000E+00  0.93800000000E+00  0.93800000000E+00 0.  1.
         11    1    1    2    0    0  0.27511451272E+00 -0.78309967944E-01  0.17831754999E+01  0.18059721954E+01  0.51100000000E-03 0. -1.
    9000002    1    1    2    0    0 -0.65794741191E-01  0.22104542071E-01  0.36829272816E-01  0.94128526711E+00  0.93800000000E+00 0.  1.
         22    1    1    2    0    0 -0.20931977153E+00  0.56205425872E-01  0.21799951947E+01  0.21907425375E+01  0.00000000000E+00 0.  1.
</event>
<event>
 5    1  0.4838219E+001  0.1496028E+01  0.7818608E-02  0.3474566E+00
         11   -1    0    0    0    0  0.00000000000E+00  0.00000000000E+00  0.39999999674E+01  0.40000000000E+01  0.51100000000E-03 0. -1.
    9000002   -1    0    0    0    0 -0.00000000000E+00 -0.00000000000E+00  0.00000000000E+00  0.93800000000E+00  0.93800000000E+00 0.  1.
         11    1    1    2    0    0  0.26403154323E+00  0.29153983408E+00  0.88947785550E+00  0.97256323559E+00  0.51100000000E-03 0. -1.
    9000002    1    1    2    0    0 -0.31216389087E+00 -0.85432936014E-01  0.15731828226E+00  0.10046582122E+01  0.93800000000E+00 0.  1.
         22    1    1    2    0    0  0.48132347640E-01 -0.20610689806E+00  0.29532038296E+01  0.29607785523E+01  0.00000000000E+00 0. -1.
</event>
<event>
 5    1  0.4838219E+001  0.1539585E+01  0.7818608E-02  0.3421664E+00
         11   -1    0    0    0    0  0.00000000000E+00  0.00000000000E+00  0.39999999674E+01  0.40000000000E+01  0.51100000000E-03 0.  1.
    9000002   -1    0    0    0    0 -0.00000000000E+00 -0.00000000000E+00  0.00000000000E+00  0.93800000000E+00  0.93800000000E+00 0. -1.
         11    1    1    2    0    0 -0.33091701588E+00 -0.32838073323E-01  0.27190642475E+01  0.27393238315E+01  0.51100000000E-03 0.  1.
    9000002    1    1    2    0    0  0.12639832583E+00  0.22269844451E+00  0.91133541612E-01  0.97658612337E+00  0.93800000000E+00 0. -1.
         22    1    1    2    0    0  0.20451869005E+00 -0.18986037119E+00  0.11898021782E+01  0.12220900452E+01  0.00000000000E+00 0.  1.
</event>
<event>
 5    1  0.4838219E+001  0.1587002E+01  0.7818608E-02  0.3367593E+00
         11   -1    0    0    0    0  0.00000000000E+00  0.00000000000E+00  0.39999999674E+01  0.40000000000E+01  0.51100000000E-03 0.  1.
    9000002   -1    0    0    0    0 -0.00000000000E+00 -0.00000000000E+00  0.00000000000E+00  0.93800000000E+00  0.93800000000E+00 0. -1.
         11    1    1    2    0    0 -0.52580952692E-01  0.46571769559E-01  0.40664678222E+00  0.41266881748E+00  0.51100000000E-03 0.  1.
    9000002    1    1    2    0    0 -0.15250687156E+00 -0.57518774698E-02  0.24801458818E-01  0.95065795233E+00  0.93800000000E+00 0. -1.
         22    1    1    2    0    0  0.20508782425E+00 -0.40819892089E-01  0.35685517263E+01  0.35746732302E+01  0.00000000000E+00 0.  1.
</event>
<event>
 5    1  0.4838219E+001  0.1575508E+01  0.7818608E-02  0.3380383E+00
         11   -1    0    0    0    0  0.00000000000E+00  0.00000000000E+00  0.39999999674E+01  0.40000000000E+01  0.51100000000E-03 0.  1.
    9000002   -1    0    0    0    0 -0.00000000000E+00 -0.00000000000E+00  0.00000000000E+00  0.93800000000E+00  0.93800000000E+00 0. -1.
         11    1    1    2    0    0 -0.57828801390E-01 -0.12058939347E+00  0.29238649205E+01  0.29269219851E+01  0.51100000000E-03 0.  1.
    9000002    1    1    2    0    0 -0.68902566618E-01  0.32383910946E+00  0.92851914991E-01  0.99904194638E+00  0.93800000000E+00 0. -1.
         22    1    1    2    0    0  0.12673136801E+00 -0.20324971598E+00  0.98328313184E+00  0.10120360685E+01  0.00000000000E+00 0. -1.
</event>
<event>
 5    1  0.4838219E+001  0.1493837E+01  0.7818608E-02  0.3477315E+00
         11   -1    0    0    0    0  0.00000000000E+00  0.00000000000E+00  0.39999999674E+01  0.40000000000E+01  0.51100000000E-03 0. -1.
    9000002   -1    0    0    0    0 -0.00000000000E+00 -0.00000000000E+00  0.00000000000E+00  0.93800000000E+00  0.93800000000E+00 0. -1.
         11    1    1    2    0    0  0.35022259263E+00  0.47851062676E+00  0.98463959438E+00  0.11494101427E+01  0.51100000000E-03 0. -1.
    9000002    1    1    2    0    0 -0.15730737071E+00 -0.37671019661E+00  0.30221892856E+00  0.10666941745E+01  0.93800000000E+00 0. -1.
         22    1    1    2    0    0 -0.19291522191E+00 -0.10180043015E+00  0.27131414444E+01  0.27218956828E+01  0.00000000000E+00 0. -1.
</event>
<event>
 5    1  0.4838219E+001  0.1582195E+01  0.7818608E-02  0.3372918E+00
         11   -1    0    0    0    0  0.00000000000E+00  0.00000000000E+00  0.39999999674E+01  0.40000000000E+01  0.51100000000E-03 0. -1.
    9000002   -1    0    0    0    0 -0.00000000000E+00 -0.00000000000E+00  0.00000000000E+00  0.93800000000E+00  0.93800000000E+00 0.  1.
         11    1    1    2    0    0 -0.31783099043E-01 -0.15189453029E+00  0.49912691921E+00  0.52269499359E+00  0.51100000000E-03 0. -1.
    9000002    1    1    2    0    0 -0.13930752214E-01  0.38177673331E+00  0.11273383552E+00  0.10190684264E+01  0.93800000000E+00 0.  1.
         22    1    1    2    0    0  0.45713851257E-01 -0.22988220302E+00  0.33881392126E+01  0.33962365800E+01  0.00000000000E+00 0. -1.
</event>
<event>
 5    1  0.4838219E+001  0.1537006E+01  0.7818608E-02  0.3424707E+00
         11   -1    0    0    0    0  0.00000000000E+00  0.00000000000E+00  0.39999999674E+01  0.40000000000E+01  0.51100000000E-03 0.  1.
    9000002   -1    0    0    0    0 -0.00000000000E+00 -0.00000000000E+00  0.00000000000E+00  0.93800000000E+00  0.93800000000E+00 0. -1.
         11    1    1    2    0    0 -0.12879658616E+00 -0.33909599853E-01  0.32084568997E+01  0.32112200734E+01  0.51100000000E-03 0.  1.
    9000002    1    1    2    0    0 -0.52508715051E-01  0.23666542739E+00  0.88378690014E-01  0.97284247570E+00  0.93800000000E+00 0. -1.
         22    1    1    2    0    0  0.18130530121E+00 -0.20275582754E+00  0.70316437765E+00  0.75393745088E+00  0.00000000000E+00 0.  1.
</event>
<event>
 5    1  0.4838219E+001  0.1579987E+01  0.7818608E-02  0.3375375E+00
         11   -1    0    0    0    0  0.00000000000E+00  0.00000000000E+00  0.39999999674E+01  0.40000000000E+01  0.51100000000E-03 0. -1.
    9000002   -1    0    0    0    0 -0.00000000000E+00 -0.00000000000E+00  0.00000000000E+00  0.93800000000E+00  0.93800000000E+00 0.  1.
         11    1    1    2    0    0 -0.63843965080E+00  0.27311122696E+00  0.18168222435E+01  0.19450034076E+01  0.51100000000E-03 0. -1.
    9000002    1    1    2    0    0  0.84821372563E+00 -0.40978587865E+00  0.72645855436E+00  0.15149181568E+01  0.93800000000E+00 0.  1.
         22    1    1    2    0    0 -0.20977407483E+00  0.13667465169E+00  0.14567191695E+01  0.14780784355E+01  0.00000000000E+00 0. -1.
</event>
<event>
 5    1  0.4838219E+001  0.1593692E+01  0.7818608E-02  0.3360239E+00
         11   -1    0    0    0    0  0.00000000000E+00  0.00000000000E+00  0.39999999674E+01  0.40000000000E+01  0.51100000000E-03 0. -1.
    9000002   -1    0    0    0    0 -0.00000000000E+00 -0.00000000000E+00  0.00000000000E+00  0.93800000000E+00  0.93800000000E+00 0. -1.
         11    1    1    2    0    0  0.61214917549E-01 -0.23573098135E-01  0.18097269491E+01  0.18109154724E+01  0.51100000000E-03 0. -1.
    9000002    1    1    2    0    0 -0.27125176895E+00 -0.96711324523E-01  0.59933783865E-01  0.98303950119E+00  0.93800000000E+00 0. -1.
         22    1    1    2    0    0  0.21003685141E+00  0.12028442266E+00  0.21303392344E+01  0.21440450264E+01  0.00000000000E+00 0. -1.
</event>
<event>
 5    1  0.4838219E+001  0.1508100E+01  0.7818608E-02  0.3459575E+00
         11   -1    0    0    0    0  0.00000000000E+00  0.00000000000E+00  0.39999999674E+01  0.40000000000E+01  0.51100000000E-03 0.  1.
    9000002   -1    0    0    0    0 -0.00000000000E+00 -0.00000000000E+00  0.00000000000E+00  0.93800000000E+00  0.93800000000E+00 0. -1.
         11    1    1    2    0    0  0.33365645664E+00  0.33201942927E-01  0.33770863217E+01  0.33936913952E+01  0.51100000000E-03 0.  1.
    9000002    1    1    2    0    0 -0.91938660011E-01 -0.98025682680E-02  0.75642894026E-01  0.94557636126E+00  0.93800000000E+00 0. -1.
         22    1    1    2    0    0 -0.24171779663E+00 -0.23399374659E-01  0.54727075159E+00  0.59873224357E+00  0.00000000000E+00 0. -1.
</event>
<event>
 5    1  0.4838219E+001  0.1540293E+01  0.7818608E-02  0.3420831E+00
         11   -1    0    0    0    0  0.00000000000E+00  0.00000000000E+00  0.39999999674E+01  0.40000000000E+01  0.51100000000E-03 0. -1.
    9000002   -1    0    0    0    0 -0.00000000000E+00 -0.00000000000E+00  0.00000000000E+00  0.93800000000E+00  0.93800000000E+00 0. -1.
         11    1    1    2    0    0  0.18856557637E+00  0.14518849047E+00  0.89487160909E+00  0.92597631299E+00  0.51100000000E-03 0. -1.
    9000002    1    1    2    0    0  0.17599492270E-01  0.37081779351E-01  0.45451828232E-01  0.93999716445E+00  0.93800000000E+00 0. -1.
         22    1    1    2    0    0 -0.20616506864E+00 -0.18227026982E+00  0.30596765300E+01  0.30720265226E+01  0.00000000000E+00 0. -1.
</event>
<event>
 5    1  0.5197419E+001  0.1557024E+01  0.7818608E-02  0.3401371E+00
         11   -1    0    0    0    0  0.00000000000E+00  0.00000000000E+00  0.39999999674E+01  0.40000000000E+01  0.51100000000E-03 0.  1.
    9000002   -1    0    0    0    0 -0.00000000000E+00 -0.00000000000E+00  0.00000000000E+00  0.93800000000E+00  0.93800000000E+00 0.  1.
         11    1    1    2    0    0 -0.17690651740E+00 -0.61370042979E-01  0.29760798951E+01  0.29819647888E+01  0.51100000000E-03 0.  1.
    9000002    1    1    2    0    0 -0.40310194798E-01  0.78819265943E-03  0.32645215715E-01  0.93943346926E+00  0.93800000000E+00 0.  1.
         22    1    1    2    0    0  0.21721671220E+00  0.60581850320E-01  0.99127485651E+00  0.10166017420E+01  0.00000000000E+00 0.  1.
</event>
<event>
 5    1  0.4838219E+001  0.1551894E+01  0.7818608E-02  0.3407290E+00
         11   -1    0    0    0    0  0.00000000000E+00  0.00000000000E+00  0.39999999674E+01  0.40000000000E+01  0.51100000000E-03 0.  1.
    9000002   -1    0    0    0    0 -0.00000000000E+00 -0.00000000000E+00  0.00000000000E+00  0.93800000000E+00  0.93800000000E+00 0. -1.
         11    1    1    2    0    0 -0.23988518810E+00 -0.77149011760E-01  0.11525458804E+01  0.11797708002E+01  0.51100000000E-03 0.  1.
    9000002    1    1    2    0    0  0.43597922475E-01  0.48628243850E-02  0.36741341420E-01  0.93974376937E+00  0.93800000000E+00 0. -1.
         22    1    1    2    0    0  0.19628726562E+00  0.72286187375E-01  0.28107127455E+01  0.28184854304E+01  0.00000000000E+00 0.  1.
</event>
<event>
 5    1  0.4838219E+001  0.1596540E+01  0.7818608E-02  0.3357127E+00
         11   -1    0    0    0    0  0.00000000000E+00  0.00000000000E+00  0.39999999674E+01  0.40000000000E+01  0.51100000000E-03 0. -1.
    9000002   -1    0    0    0    0 -0.00000000000E+00 -0.00000000000E+00  0.00000000000E+00  0.93800000000E+00  0.93800000000E+00 0. -1.
         11    1    1    2    0    0 -0.14430783886E-01  0.40583994678E-01  0.53934423787E+00  0.54106171200E+00  0.51100000000E-03 0. -1.
    9000002    1    1    2    0    0  0.21495788867E+00  0.23381823023E-01  0.33351563224E-01  0.96317699844E+00  0.93800000000E+00 0. -1.
         22    1    1    2    0    0 -0.20052710479E+00 -0.63965817701E-01  0.34273041663E+01  0.34337612896E+01  0.00000000000E+00 0. -1.
</event>
<event>
 5    1  0.4838219E+001  0.1505743E+01  0.7818608E-02  0.3462482E+00
         11   -1    0    0    0    0  0.00000000000E+00  0.00000000000E+00  0.39999999674E+01  0.40000000000E+01  0.51100000000E-03 0. -1.
    9000002   -1    0    0    0    0 -0.00000000000E+00 -0.00000000000E+00  0.00000000000E+00  0.93800000000E+00  0.93800000000E+00 0. -1.
         11    1    1    2    0    0  0.21216281983E+00 -0.21830767345E+00  0.93483288903E+00  0.98315008719E+00  0.51100000000E-03 0. -1.
    9000002    1    1    2    0    0 -0.43028895307E-01 -0.10333824738E+00  0.80432400368E-01  0.94807365232E+00  0.93800000000E+00 0. -1.
         22    1    1    2    0    0 -0.16913392452E+00  0.32164592083E+00  0.29847346780E+01  0.30067762605E+01  0.00000000000E+00 0. -1.
</event>
<event>
 5    1  0.4838219E+001  0.1560307E+01  0.7818608E-02  0.3397604E+00
         11   -1    0    0    0    0  0.00000000000E+00  0.00000000000E+00  0.39999999674E+01  0.40000000000E+01  0.51100000000E-03 0. -1.
    9000002   -1    0    0    0    0 -0.00000000000E+00 -0.00000000000E+00  0.00000000000E+00  0.93800000000E+00  0.93800000000E+00 0.  1.
         11    1    1    2    0    0  0.10328306262E+00 -0.16449860562E+00  0.82055788223E+00  0.84323346796E+00  0.51100000000E-03 0. -1.
    9000002    1    1    2    0    0  0.50594038527E-01  0.34956444428E-01  0.31641677910E-01  0.94054606773E+00  0.93800000000E+00 0.  1.
         22    1    1    2    0    0 -0.15387710115E+00  0.12954216119E+00  0.31478004072E+01  0.31542204643E+01  0.00000000000E+00 0. -1.
</event>
<event>
 5    1  0.4838219E+001  0.1526711E+01  0.7818608E-02  0.3436964E+00
         11   -1    0    0    0    0  0.00000000000E+00  0.00000000000E+00  0.39999999674E+01  0.40000000000E+01  0.51100000000E-03 0. -1.
    9000002   -1    0    0    0    0 -0.00000000000E+00 -0.00000000000E+00  0.00000000000E+00  0.93800000000E+00  0.93800000000E+00 0. -1.
         11    1    1    2    0    0  0.26070349042E+00  0.19880828339E+00  0.27339130971E+01  0.27535017936E+01  0.51100000000E-03 0. -1.
    9000002    1    1    2    0    0  0.48999205141E-01 -0.32775830503E+00  0.13406691080E+00  0.10038149058E+01  0.93800000000E+00 0. -1.
         22    1    1    2    0    0 -0.30970269556E+00  0.12895002165E+00  0.11320199595E+01  0.11806833006E+01  0.00000000000E+00 0. -1.
</event>
<event>
 5    1  0.4838219E+001  0.1585922E+01  0.7818608E-02  0.3368787E+00
         11   -1    0    0    0    0  0.00000000000E+00  0.00000000000E+00  0.39999999674E+01  0.40000000000E+01  0.51100000000E-03 0. -1.
    9000002   -1    0    0    0    0 -0.00000000000E+00 -0.00000000000E+00  0.00000000000E+00  0.93800000000E+00  0.93800000000E+00 0. -1.
         11    1    1    2    0    0 -0.13665749227E+00  0.46677135080E+00  0.22319920063E+01  0.22843684776E+01  0.51100000000E-03 0. -1.
    9000002    1    1    2    0    0  0.23225303265E-01 -0.66320427853E+00  0.32665705039E+00  0.11945409823E+01  0.93800000000E+00 0. -1.
         22    1    1    2    0    0  0.11343218900E+00  0.19643292773E+00  0.14413509107E+01  0.14590905402E+01  0.00000000000E+00 0. -1.
</event>
<event>
 5    1  0.4838219E+001  0.1569384E+01  0.7818608E-02  0.3387278E+00
         11   -1    0    0    0    0  0.00000000000E+00  0.00000000000E+00  0.39999999674E+01  0.40000000000E+01  0.51100000000E-03 0. -1.
    9000002   -1    0    0    0    0 -0.00000000000E+00 -0.00000000000E+00  0.00000000000E+00  0.93800000000E+00  0.93800000000E+00 0. -1.
         11    1    1    2    0    0  0.19519948598E-01  0.26394915269E+00  0.15734921871E+01  0.15955964739E+01  0.51100000000E-03 0. -1.
    9000002    1    1    2    0    0  0.16801193185E+00 -0.19426018513E+00  0.67434474687E-01  0.97486226573E+00  0.93800000000E+00 0. -1.
         22    1    1    2    0    0 -0.18753188045E+00 -0.69688967564E-01  0.23590733056E+01  0.23675412603E+01  0.00000000000E+00 0. -1.
</event>
<event>
 5    1  0.4838219E+001  0.1547725E+01  0.7818608E-02  0.3412131E+00
         11   -1    0    0    0    0  0.00000000000E+00  0.00000000000E+00  0.39999999674E+01  0.40000000000E+01  0.51100000000E-03 0.  1.
    9000002   -1    0    0    0    0 -0.00000000000E+00 -0.00000000000E+00  0.00000000000E+00  0.93800000000E+00  0.93800000000E+00 0. -1.
         11    1    1    2    0    0  0.17461730673E+00  0.31637250194E+00  0.15340713241E+01  0.15760576932E+01  0.51100000000E-03 0.  1.
    9000002    1    1    2    0    0 -0.35752352559E+00 -0.12387040946E+00  0.14020815398E+00  0.10211117843E+01  0.93800000000E+00 0. -1.
         22    1    1    2    0    0  0.18290621887E+00 -0.19250209248E+00  0.23257204892E+01  0.23408305224E+01  0.00000000000E+00 0.  1.
</event>
<event>
 5    1  0.4838219E+001  0.1529249E+01  0.7818608E-02  0.3433926E+00
         11   -1    0    0    0    0  0.00000000000E+00  0.00000000000E+00  0.39999999674E+01  0.40000000000E+01  0.51100000000E-03 0. -1.
    9000002   -1    0    0    0    0 -0.00000000000E+00 -0.00000000000E+00  0.00000000000E+00  0.93800000000E+00  0.93800000000E+00 0.  1.
         11    1    1    2    0    0 -0.34584804480E+00  0.54323025460E+00  0.26497963171E+01  0.27269269816E+01  0.51100000000E-03 0. -1.
    9000002    1    1    2    0    0  0.48542679800E+00 -0.35617795197E+00  0.32699111135E+00  0.11615804305E+01  0.93800000000E+00 0.  1.
         22    1    1    2    0    0 -0.13957875320E+00 -0.18705230263E+00  0.10232125389E+01  0.10494925879E+01  0.00000000000E+00 0. -1.
</event>
<event>
 5    1  0.4838219E+001  0.1581231E+01  0.7818608E-02  0.3373989E+00
         11   -1    0    0    0    0  0.00000000000E+00  0.00000000000E+00  0.39999999674E+01  0.40000000000E+01  0.51100000000E-03 0.  1.
    9000002   -1    0    0    0    0 -0.00000000000E+00 -0.00000000000E+00  0.00000000000E+00  0.93800000000E+00  0.93800000000E+00 0.  1.
         11    1    1    2    0    0  0.77955296008E-01  0.52591111889E-01  0.11940763726E+01  0.11977735588E+01  0.51100000000E-03 0.  1.
    9000002    1    1    2    0    0 -0.53864233369E+00  0.21477615710E+00  0.25180285794E+00  0.11311556217E+01  0.93800000000E+00 0.  1.
         22    1    1    2    0    0  0.46068703768E+00 -0.26736726899E+00  0.25541207368E+01  0.26090708195E+01  0.00000000000E+00 0.  1.
</event>
<event>
 5    1  0.4838219E+001  0.1537112E+01  0.7818608E-02  0.3424582E+00
         11   -1    0    0    0    0  0.00000000000E+00  0.00000000000E+00  0.39999999674E+01  0.40000000000E+01  0.51100000000E-03 0. -1.
    9000002   -1    0    0    0    0 -0.00000000000E+00 -0.00000000000E+00  0.00000000000E+00  0.93800000000E+00  0.93800000000E+00 0.  1.
         11    1    1    2    0    0  0.42426188150E-01 -0.26087344437E+00  0.26784264200E+01  0.26914351718E+01  0.51100000000E-03 0. -1.
    9000002    1    1    2    0    0  0.69712137330E-01 -0.92695836755E-02  0.50191026232E-01  0.94197072480E+00  0.93800000000E+00 0.  1.
         22    1    1    2    0    0 -0.11213832548E+00  0.27014302804E+00  0.12713825211E+01  0.13045941034E+01  0.00000000000E+00 0. -1.
</event>
<event>
 5    1  0.4838219E+001  0.1598806E+01  0.7818608E-02  0.3354661E+00
         11   -1    0    0    0    0  0.00000000000E+00  0.00000000000E+00  0.39999999674E+01  0.40000000000E+01  0.51100000000E-03 0. -1.
    9000002   -1    0    0    0    0 -0.00000000000E+00 -0.00000000000E+00  0.00000000000E+00  0.93800000000E+00  0.93800000000E+00 0. -1.
         11    1    1    2    0    0  0.79255324683E-01  0.82473282062E-01  0.11783769273E+01  0.11839154077E+01  0.51100000000E-03 0. -1.
    9000002    1    1    2    0    0 -0.26303405039E+00 -0.16661735914E+00  0.65431543160E-01  0.99049156628E+00  0.93800000000E+00 0. -1.
         22    1    1    2    0    0  0.18377872570E+00  0.84144077076E-01  0.27561914969E+01  0.27635930260E+01  0.00000000000E+00 0. -1.
</event>
<event>
 5    1  0.4838219E+001  0.1502483E+01  0.7818608E-02  0.3466519E+00
         11   -1    0    0    0    0  0.00000000000E+00  0.00000000000E+00  0.39999999674E+01  0.40000000000E+01  0.51100000000E-03 0.  1.
    9000002   -1    0    0    0    0 -0.00000000000E+00 -0.00000000000E+00  0.00000000000E+00  0.93800000000E+00  0.93800000000E+00 0. -1.
         11    1    1    2    0    0 -0.33493140552E+00  0.93900811796E-01  0.17508193368E+01  0.17850392209E+01  0.51100000000E-03 0.  1.
    9000002    1    1    2    0    0 -0.49920089203E-01  0.29819298114E-01  0.76407141326E-01  0.94290150975E+00  0.93800000000E+00 0. -1.
         22    1    1    2    0    0  0.38485149472E+00 -0.12372010991E+00  0.21727734892E+01  0.22100592693E+01  0.00000000000E+00 0.  1.
</event>
<event>
 5    1  0.4838219E+001  0.1548543E+01  0.7818608E-02  0.3411179E+00
         11   -1    0    0    0    0  0.00000000000E+00  0.00000000000E+00  0.39999999674E+01  0.40000000000E+01  0.51100000000E-03 0.  1.
    9000002   -1    0    0    0    0 -0.00000000000E+00 -0.00000000000E+00  0.00000000000E+00  0.93800000000E+00  0.93800000000E+00 0.  1.
         11    1    1    2    0    0  0.55854832117E+00 -0.13986834049E+00  0.28081529320E+01  0.28665767965E+01  0.51100000000E-03 0.  1.
    9000002    1    1    2    0    0 -0.53447031192E+00  0.40824730559E+00  0.37860946475E+00  0.12147071679E+01  0.93800000000E+00 0.  1.
         22    1    1    2    0    0 -0.24078009249E-01 -0.26837896510E+00  0.81323757060E+00  0.85671603561E+00  0.00000000000E+00 0.  1.
</event>
<event>
 5    1  0.4838219E+001  0.1571377E+01  0.7818608E-02  0.3385028E+00
         11   -1    0    0    0    0  0.00000000000E+00  0.00000000000E+00  0.39999999674E+01  0.40000000000E+01  0.51100000000E-03 0.  1.
    9000002   -1    0    0    0    0 -0.00000000000E+00 -0.00000000000E+00  0.00000000000E+00  0.93800000000E+00  0.93800000000E+00 0. -1.
         11    1    1    2    0    0 -0.91181020540E-01 -0.16465994768E+00  0.26126183002E+01  0.26193895321E+01  0.51100000000E-03 0.  1.
    9000002    1    1    2    0    0 -0.77456317001E-01  0.53511539874E-01  0.26772703656E-01  0.94309264847E+00  0.93800000000E+00 0. -1.
         22    1    1    2    0    0  0.16863733754E+00  0.11114840781E+00  0.13606089635E+01  0.13755178195E+01  0.00000000000E+00 0.  1.
</event>
<event>
 5    1  0.9744911E+001  0.1567210E+01  0.7818608E-02  0.3389740E+00
         11   -1    0    0    0    0  0.00000000000E+00  0.00000000000E+00  0.39999999674E+01  0.40000000000E+01  0.51100000000E-03 0. -1.
    9000002   -1    0    0    0    0 -0.00000000000E+00 -0.00000000000E+00  0.00000000000E+00  0.93800000000E+00  0.93800000000E+00 0.  1.
         11    1    1    2    0    0  0.10485356972E+00 -0.19217837880E+00  0.25373459456E+01  0.25467727635E+01  0.51100000000E-03 0. -1.
    9000002    1    1    2    0    0 -0.51870940634E-03  0.18557479131E-01  0.24111215248E-01  0.93849347349E+00  0.93800000000E+00 0.  1.
         22    1    1    2    0    0 -0.10433486031E+00  0.17362089967E+00  0.14385428065E+01  0.14527337630E+01  0.00000000000E+00 0. -1.
</event>
<event>
 5    1  0.4838219E+001  0.1582611E+01  0.7818608E-02  0.3372456E+00
         11   -1    0    0    0    0  0.00000000000E+00  0.00000000000E+00  0.39999999674E+01  0.40000000000E+01  0.51100000000E-03 0.  1.
    9000002   -1    0    0    0    0 -0.00000000000E+00 -0.00000000000E+00  0.00000000000E+00  0.93800000000E+00  0.93800000000E+00 0.  1.
         11    1    1    2    0    0 -0.19851532910E-01  0.68905388922E-01  0.13512470916E+01  0.13531485504E+01  0.51100000000E-03 0.  1.
    9000002    1    1    2    0    0  0.12448415467E+00  0.22942223492E+00  0.58520325226E-01  0.97539709611E+00  0.93800000000E+00 0.  1.
         22    1    1    2    0    0 -0.10463262176E+00 -0.29832762384E+00  0.25902325506E+01  0.26094543534E+01  0.00000000000E+00 0.  1.
</event>
<event>
 5    1  0.4838219E+001  0.1507592E+01  0.7818608E-02  0.3460201E+00
         11   -1    0    0    0    0  0.00000000000E+00  0.00000000000E+00  0.39999999674E+01  0.40000000000E+01  0.51100000000E-03 0.  1.
    9000002   -1    0    0    0    0 -0.00000000000E+00 -0.00000000000E+00  0.00000000000E+00  0.93800000000E+00  0.93800000000E+00 0.  1.
         11    1    1    2    0    0  0.17425475144E+00  0.28547355398E+00  0.23179469995E+00  0.40692617570E+00  0.51100000000E-03 0.  1.
    9000002    1    1    2    0    0  0.13639749488E+00 -0.44223161809E+00  0.36152575421E+00  0.11066697572E+01  0.93800000000E+00 0.  1.
         22    1    1    2    0    0 -0.31065224633E+00  0.15675806411E+00  0.34066795132E+01  0.34244040671E+01  0.00000000000E+00 0.  1.
</event>
<event>
 5    1  0.5764379E+001  0.1565173E+01  0.7818608E-02  0.3392053E+00
         11   -1    0    0    0    0  0.00000000000E+00  0.00000000000E+00  0.39999999674E+01  0.40000000000E+01  0.51100000000E-03 0.  1.
    9000002   -1    0    0    0    0 -0.00000000000E+00 -0.00000000000E+00  0.00000000000E+00  0.93800000000E+00  0.93800000000E+00 0. -1.
         11    1    1    2    0    0 -0.14084950238E+00  0.10470107629E+00  0.27792129567E+01  0.27847487890E+01  0.51100000000E-03 0.  1.
    9000002    1    1    2    0    0 -0.54605021241E-01 -0.61256665744E-02  0.27456866382E-01  0.94000910190E+00  0.93800000000E+00 0. -1.
         22    1    1    2    0    0  0.19545452362E+00 -0.98575409718E-01  0.11933301443E+01  0.12132421091E+01  0.00000000000E+00 0.  1.
</event>
<event>
 5    1  0.4838219E+001  0.1531087E+01  0.7818608E-02  0.3431732E+00
         11   -1    0    0    0    0  0.00000000000E+00  0.00000000000E+00  0.39999999674E+01  0.40000000000E+01  0.51100000000E-03 0. -1.
    9000002   -1    0    0    0    0 -0.00000000000E+00 -0.00000000000E+00  0.00000000000E+00  0.93800000000E+00  0.93800000000E+00 0. -1.
         11    1    1    2    0    0 -0.42183790560E+00 -0.51467833490E-02  0.21842955522E+01  0.22246620032E+01  0.51100000000E-03 0. -1.
    9000002    1    1    2    0    0  0.20172985479E+00 -0.78326576044E-01  0.84653439842E-01  0.96635407160E+00  0.93800000000E+00 0. -1.
         22    1    1    2    0    0  0.22010805081E+00  0.83473359393E-01  0.17310509754E+01  0.17469839252E+01  0.00000000000E+00 0. -1.
</event>
<event>
 5    1  0.4838219E+001  0.1589386E+01  0.7818608E-02  0.3364965E+00
         11   -1    0    0    0    0  0.00000000000E+00  0.00000000000E+00  0.39999999674E+01  0.40000000000E+01  0.51100000000E-03 0. -1.
    9000002   -1    0    0    0    0 -0.00000000000E+00 -0.00000000000E+00  0.00000000000E+00  0.93800000000E+00  0.93800000000E+00 0. -1.
         11    1    1    2    0    0  0.32982679596E-02 -0.13948359332E-01  0.17099356465E+01  0.17099957929E+01  0.51100000000E-03 0. -1.
    9000002    1    1    2    0    0  0.18984840257E+00 -0.16604860514E+00  0.50179545336E-01  0.97261325407E+00  0.93800000000E+00 0. -1.
         22    1    1    2    0    0 -0.19314667053E+00  0.17999696447E+00  0.22398847755E+01  0.22553909530E+01  0.00000000000E+00 0. -1.
</event>
<event>
 5    1  0.4838219E+001  0.1518760E+01  0.7818608E-02  0.3446551E+00
         11   -1    0    0    0    0  0.00000000000E+00  0.00000000000E+00  0.39999999674E+01  0.40000000000E+01  0.51100000000E-03 0.  1.
    9000002   -1    0    0    0    0 -0.00000000000E+00 -0.00000000000E+00  0.00000000000E+00  0.93800000000E+00  0.93800000000E+00 0.  1.
         11    1    1    2    0    0 -0.47659068308E-01 -0.26945683040E+00  0.68075837549E+00  0.73369652934E+00  0.51100000000E-03 0.  1.
    9000002    1    1    2    0    0 -0.34235201623E-02  0.66737960437E-01  0.64211715514E-01  0.94256714364E+00  0.93800000000E+00 0.  1.
         22    1    1    2    0    0  0.51082588470E-01  0.20271886996E+00  0.32550298764E+01  0.32617363270E+01  0.00000000000E+00 0.  1.
</event>
<event>
 5    1  0.4838219E+001  0.1532063E+01  0.7818608E-02  0.3430570E+00
         11   -1    0    0    0    0  0.00000000000E+00  0.00000000000E+00  0.39999999674E+01  0.40000000000E+01  0.51100000000E-03 0. -1.
    9000002   -1    0    0    0    0 -0.00000000000E+00 -0.00000000000E+00  0.00000000000E+00  0.93800000000E+00  0.93800000000E+00 0. -1.
         11    1    1    2    0    0  0.31746936436E+00  0.69857870409E-02  0.34200527936E+01  0.34347630152E+01  0.51100000000E-03 0. -1.
    9000002    1    1    2    0    0 -0.13962119854E+00 -0.10218720910E+00  0.71810968823E-01  0.95652345503E+00  0.93800000000E+00 0. -1.
         22    1    1    2    0    0 -0.17784816582E+00  0.95201422058E-01  0.50813620491E+00  0.54671352972E+00  0.00000000000E+00 0. -1.
</event>
<event>
 5    1  0.4838219E+001  0.1539220E+01  0.7818608E-02  0.3422095E+00
         11   -1    0    0    0    0  0.00000000000E+00  0.00000000000E+00  0.39999999674E+01  0.40000000000E+01  0.51100000000E-03 0. -1.
    9000002   -1    0    0    0    0 -0.00000000000E+00 -0.00000000000E+00  0.00000000000E+00  0.93800000000E+00  0.93800000000E+00 0. -1.
         11    1    1    2    0    0 -0.16568776322E+00 -0.13104344606E+00  0.65465852906E+00  0.68789742726E+00  0.51100000000E-03 0. -1.
    9000002    1    1    2    0    0 -0.95689682136E-01  0.24430383407E-01  0.51927328524E-01  0.94461304583E+00  0.93800000000E+00 0. -1.
         22    1    1    2    0    0  0.26137744536E+00  0.10661306265E+00  0.32934141098E+01  0.33054895269E+01  0.00000000000E+00 0. -1.
</event>
<event>
 5    1  0.4838219E+001  0.1562440E+01  0.7818608E-02  0.3395166E+00
         11   -1    0    0    0    0  0.00000000000E+00  0.00000000000E+00  0.39999999674E+01  0.40000000000E+01  0.51100000000E-03 0.  1.
    9000002   -1    0    0    0    0 -0.00000000000E+00 -0.00000000000E+00  0.00000000000E+00  0.93800000000E+00  0.93800000000E+00 0.  1.
         11    1    1    2    0    0 -0.93569941097E-01 -0.67062668962E-01  0.21544964772E+00  0.24427760288E+00  0.51100000000E-03 0.  1.
    9000002    1    1    2    0    0 -0.93326017351E-01  0.35305586613E+00  0.12048625066E+00  0.10137648281E+01  0.93800000000E+00 0.  1.
         22    1    1    2    0    0  0.18689595845E+00 -0.28599319717E+00  0.36640640690E+01  0.36799575690E+01  0.00000000000E+00 0.  1.
</event>
<event>
 5    1  0.4838219E+001  0.1578428E+01  0.7818608E-02  0.3377115E+00
         11   -1    0    0    0    0  0.00000000000E+00  0.00000000000E+00  0.39999999674E+01  0.40000000000E+01  0.51100000000E-03 0. -1.
    9000002   -1    0    0    0    0 -0.00000000000E+00 -0.00000000000E+00  0.00000000000E+00  0.93800000000E+00  0.93800000000E+00 0.  1.
         11    1    1    2    0    0  0.91917260989E-02  0.15736848625E+00  0.69995140335E+00  0.71748279175E+00  0.51100000000E-03 0. -1.
    9000002    1    1    2    0    0 -0.22320621229E+00 -0.14670738011E+00  0.64004692291E-01  0.97738665288E+00  0.93800000000E+00 0.  1.
         22    1    1    2    0    0  0.21401448619E+00 -0.10661106134E-01  0.32360438717E+01  0.32431305554E+01  0.00000000000E+00 0. -1.
</event>
<event>
 5    1  0.4838219E+001  0.1561963E+01  0.7818608E-02  0.3395712E+00
         11   -1    0    0    0    0  0.00000000000E+00  0.00000000000E+00  0.39999999674E+01  0.40000000000E+01  0.51100000000E-03 0.  1.
    9000002   -1    0    0    0    0 -0.00000000000E+00 -0.00000000000E+00  0.00000000000E+00  0.93800000000E+00  0.93800000000E+00 0. -1.
         11    1    1    2    0    0  0.19162156627E+00 -0.40455144078E-01  0.26864957485E+01  0.26936249017E+01  0.51100000000E-03 0.  1.
    9000002    1    1    2    0    0  0.31818686450E-01 -0.14123268950E-01  0.28636757627E-01  0.93908250938E+00  0.93800000000E+00 0. -1.
         22    1    1    2    0    0 -0.22344025272E+00  0.54578413028E-01  0.12848674613E+01  0.13052925889E+01  0.00000000000E+00 0.  1.
</event>
<event>
 5    1  0.4838219E+001  0.1484835E+01  0.7818608E-02  0.3488700E+00
         11   -1    0    0    0    0  0.00000000000E+00  0.00000000000E+00  0.39999999674E+01  0.40000000000E+01  0.51100000000E-03 0.  1.
    9000002   -1    0    0    0    0 -0.00000000000E+00 -0.00000000000E+00  0.00000000000E+00  0.93800000000E+00  0.93800000000E+00 0. -1.
         11    1    1    2    0    0  0.66106164282E-01  0.20458010716E+00  0.35685247543E+01  0.35749954166E+01  0.51100000000E-03 0.  1.
    9000002    1    1    2    0    0 -0.10076114884E+00  0.36524113858E-01  0.96771901752E-01  0.94904985168E+00  0.93800000000E+00 0. -1.
         22    1    1    2    0    0  0.34654984554E-01 -0.24110422102E+00  0.33470331129E+00  0.41395473175E+00  0.00000000000E+00 0.  1.
</event>
<event>
 5    1  0.4838219E+001  0.1593210E+01  0.7818608E-02  0.3360766E+00
         11   -1    0    0    0    0  0.00000000000E+00  0.00000000000E+00  0.39999999674E+01  0.40000000000E+01  0.51100000000E-03 0. -1.
    9000002   -1    0    0    0    0 -0.00000000000E+00 -0.00000000000E+00  0.00000000000E+00  0.93800000000E+00  0.93800000000E+00 0. -1.
         11    1    1    2    0    0  0.71132188602E-01  0.52227791545E-01  0.12018610523E+01  0.12050965856E+01  0.51100000000E-03 0. -1.
    9000002    1    1    2    0    0  0.54266228400E-01 -0.22339369732E+00  0.39972630180E-01  0.96658749149E+00  0.93800000000E+00 0. -1.
         22    1    1    2    0    0 -0.12539841700E+00  0.17116590578E+00  0.27581662849E+01  0.27663159229E+01  0.00000000000E+00 0. -1.
</event>
<event>
 5    1  0.4838219E+001  0.1544016E+01  0.7818608E-02  0.3416462E+00
         11   -1    0    0    0    0  0.00000000000E+00  0.00000000000E+00  0.39999999674E+01  0.40000000000E+01  0.51100000000E-03 0. -1.
    9000002   -1    0    0    0    0 -0.00000000000E+00 -0.00000000000E+00  0.00000000000E+00  0.93800000000E+00  0.93800000000E+00 0.  1.
         11    1    1    2    0    0 -0.88904715634E-01 -0.16210244310E+00  0.50356922696E+00  0.53643590296E+00  0.51100000000E-03 0. -1.
    9000002    1    1    2    0    0 -0.90923889053E-01 -0.52380028702E-02  0.47194644730E-01  0.94359203301E+00  0.93800000000E+00 0.  1.
         22    1    1    2    0    0  0.17982860469E+00  0.16734044597E+00  0.34492360957E+01  0.34579720640E+01  0.00000000000E+00 0. -1.
</event>
<event>
 5    1  0.4838219E+001  0.1530936E+01  0.7818608E-02  0.3431912E+00
         11   -1    0    0    0    0  0.00000000000E+00  0.00000000000E+00  0.39999999674E+01  0.40000000000E+01  0.51100000000E-03 0. -1.
    9000002   -1    0    0    0    0 -0.00000000000E+00 -0.00000000000E+00  0.00000000000E+00  0.93800000000E+00  0.93800000000E+00 0.  1.
         11    1    1    2    0    0  0.29421721507E+00 -0.17154645049E+00  0.13897360720E+01  0.14308593800E+01  0.51100000000E-03 0. -1.
    9000002    1    1    2    0    0 -0.63401153479E-02  0.25612500446E+00  0.98295162949E-01  0.97731579033E+00  0.93800000000E+00 0.  1.
         22    1    1    2    0    0 -0.28787709972E+00 -0.84578553967E-01  0.25119687324E+01  0.25298248297E+01  0.00000000000E+00 0. -1.
</event>
<event>
 5    1  0.4838219E+001  0.1588591E+01  0.7818608E-02  0.3365840E+00
         11   -1    0    0    0    0  0.00000000000E+00  0.00000000000E+00  0.39999999674E+01  0.40000000000E+01  0.51100000000E-03 0. -1.
    9000002   -1    0    0    0    0 -0.00000000000E+00 -0.00000000000E+00  0.00000000000E+00  0.93800000000E+00  0.93800000000E+00 0.  1.
         11    1    1    2    0    0  0.14430044043E-01 -0.40707858728E-01  0.63333660267E+00  0.63480774203E+00  0.51100000000E-03 0. -1.
    9000002    1    1    2    0    0  0.22386686849E+00 -0.23307154853E+00  0.78668327894E-01  0.99522431007E+00  0.93800000000E+00 0.  1.
         22    1    1    2    0    0 -0.23829691254E+00  0.27377940726E+00  0.32879950368E+01  0.33079679479E+01  0.00000000000E+00 0. -1.
</event>
<event>
 5    1  0.4838219E+001  0.1579725E+01  0.7818608E-02  0.3375667E+00
         11   -1    0    0    0    0  0.00000000000E+00  0.00000000000E+00  0.39999999674E+01  0.40000000000E+01  0.51100000000E-03 0.  1.
    9000002   -1    0    0    0    0 -0.00000000000E+00 -0.00000000000E+00  0.00000000000E+00  0.93800000000E+00  0.93800000000E+00 0. -1.
         11    1    1    2    0    0 -0.26648987345E-01  0.13356894915E+00  0.15400150771E+01  0.15460263683E+01  0.51100000000E-03 0.  1.
    9000002    1    1    2    0    0 -0.36157868750E-02  0.76473881564E-01  0.18517984518E-01  0.94130135675E+00  0.93800000000E+00 0. -1.
         22    1    1    2    0    0  0.30264774220E-01 -0.21004283071E+00  0.24414669058E+01  0.24506722750E+01  0.00000000000E+00 0.  1.
</event>
<event>
 5    1  0.4838219E+001  0.1498156E+01  0.7818608E-02  0.3471904E+00
         11   -1    0    0    0    0  0.00000000000E+00  0.00000000000E+00  0.39999999674E+01  0.40000000000E+01  0.51100000000E-03 0.  1.
    9000002   -1    0    0    0    0 -0.00000000000E+00 -0.00000000000E+00  0.00000000000E+00  0.93800000000E+00  0.93800000000E+00 0.  1.
         11    1    1    2    0    0 -0.47885621723E+00  0.15452335513E+00  0.29995219920E+01  0.30414327521E+01  0.51100000000E-03 0.  1.
    9000002    1    1    2    0    0  0.21621513765E+00 -0.95720311270E-01  0.11866544982E+00  0.97459573810E+00  0.93800000000E+00 0.  1.
         22    1    1    2    0    0  0.26264107958E+00 -0.58803043864E-01  0.88181252559E+00  0.92197150983E+00  0.00000000000E+00 0.  1.
</event>
<event>
 5    1  0.4838219E+001  0.1584917E+01  0.7818608E-02  0.3369899E+00
         11   -1    0    0    0    0  0.00000000000E+00  0.00000000000E+00  0.39999999674E+01  0.40000000000E+01  0.51100000000E-03 0. -1.
    9000002   -1    0    0    0    0 -0.00000000000E+00 -0.00000000000E+00  0.00000000000E+00  0.93800000000E+00  0.93800000000E+00 0. -1.
         11    1    1    2    0    0  0.67038390209E-01  0.28537815139E+00  0.70007439527E-01  0.30139034119E+00  0.51100000000E-03 0. -1.
    9000002    1    1    2    0    0  0.29338660160E+00 -0.29967068140E+00  0.42305344072E+00  0.11111689471E+01  0.93800000000E+00 0. -1.
         22    1    1    2    0    0 -0.36042499180E+00  0.14292530015E-01  0.35069390871E+01  0.35254407117E+01  0.00000000000E+00 0. -1.
</event>
<event>
 5    1  0.4838219E+001  0.1482680E+01  0.7818608E-02  0.3491448E+00
         11   -1    0    0    0    0  0.00000000000E+00  0.00000000000E+00  0.39999999674E+01  0.40000000000E+01  0.51100000000E-03 0. -1.
    9000002   -1    0    0    0    0 -0.00000000000E+00 -0.00000000000E+00  0.00000000000E+00  0.93800000000E+00  0.93800000000E+00 0. -1.
         11    1    1    2    0    0  0.33485173555E+00  0.32112627596E+00  0.77941201035E+00  0.90704526509E+00  0.51100000000E-03 0. -1.
    9000002    1    1    2    0    0 -0.21526240688E+00 -0.55637372335E+00  0.37504015527E+00  0.11731959521E+01  0.93800000000E+00 0. -1.
         22    1    1    2    0    0 -0.11958932867E+00  0.23524744738E+00  0.28455478017E+01  0.28577587829E+01  0.00000000000E+00 0. -1.
</event>
<event>
 5    1  0.4838219E+001  0.1589713E+01  0.7818608E-02  0.3364605E+00
         11   -1    0    0    0    0  0.00000000000E+00  0.00000000000E+00  0.39999999674E+01  0.40000000000E+01  0.51100000000E-03 0. -1.
    9000002   -1    0    0    0    0 -0.00000000000E+00 -0.00000000000E+00  0.00000000000E+00  0.93800000000E+00  0.93800000000E+00 0.  1.
         11    1    1    2    0    0 -0.53528984724E-01  0.41145365281E-01  0.68876475221E+00  0.69206606498E+00  0.51100000000E-03 0. -1.
    9000002    1    1    2    0    0 -0.85809066833E-01  0.10820739012E+00  0.19955155636E-01  0.94832180375E+00  0.93800000000E+00 0.  1.
         22    1    1    2    0    0  0.13933805156E+00 -0.14935275540E+00  0.32912800595E+01  0.32976121313E+01  0.00000000000E+00 0. -1.
</event>
<event>
 5    1  0.4838219E+001  0.1572291E+01  0.7818608E-02  0.3383998E+00
         11   -1    0    0    0    0  0.00000000000E+00  0.00000000000E+00  0.39999999674E+01  0.40000000000E+01  0.51100000000E-03 0. -1.
    9000002   -1    0    0    0    0 -0.00000000000E+00 -0.00000000000E+00  0.00000000000E+00  0.93800000000E+00  0.93800000000E+00 0. -1.
         11    1    1    2    0    0  0.26860058696E-01  0.17410313085E+00  0.11288950077E+01  0.11425574657E+01  0.51100000000E-03 0. -1.
    9000002    1    1    2    0    0 -0.35071452354E+00 -0.33130605606E-01  0.10565107403E+00  0.10075239270E+01  0.93800000000E+00 0. -1.
         22    1    1    2    0    0  0.32385446485E+00 -0.14097252525E+00  0.27654538856E+01  0.27879186073E+01  0.00000000000E+00 0. -1.
</event>
<event>
 5    1  0.4838219E+001  0.1458670E+01  0.7818608E-02  0.3522658E+00
         11   -1    0    0    0    0  0.00000000000E+00  0.00000000000E+00  0.39999999674E+01  0.40000000000E+01  0.51100000000E-03 0. -1.
    9000002   -1    0    0    0    0 -0.00000000000E+00 -0.00000000000E+00  0.00000000000E+00  0.93800000000E+00  0.93800000000E+00 0.  1.
         11    1    1    2    0    0  0.10810522658E-01 -0.42387752753E+00  0.60591684905E+00  0.73954345027E+00  0.51100000000E-03 0. -1.
    9000002    1    1    2    0    0  0.21392930335E+00  0.32462989921E+00  0.25120609300E+00  0.10459917875E+01  0.93800000000E+00 0.  1.
         22    1    1    2    0    0 -0.22473982600E+00  0.99247628323E-01  0.31428770253E+01  0.31524647623E+01  0.00000000000E+00 0. -1.
</event>
<event>
 5    1  0.4838219E+001  0.1464436E+01  0.7818608E-02  0.3515061E+00
         11   -1    0    0    0    0  0.00000000000E+00  0.00000000000E+00  0.39999999674E+01  0.40000000000E+01  0.51100000000E-03 0.  1.
    9000002   -1    0    0    0    0 -0.00000000000E+00 -0.00000000000E+00  0.00000000000E+00  0.93800000000E+00  0.93800000000E+00 0.  1.
         11    1    1    2    0    0 -0.22658116327E+00  0.84316458747E-01  0.32506433357E+01  0.32596212426E+01  0.51100000000E-03 0.  1.
    9000002    1    1    2    0    0 -0.11302916751E+00  0.16181362110E-01  0.11506080084E+00  0.95190357551E+00  0.93800000000E+00 0.  1.
         22    1    1    2    0    0  0.33961033078E+00 -0.10049782086E+00  0.63429583087E+00  0.72647518184E+00  0.00000000000E+00 0.  1.
</event>
<event>
 5    1  0.4838219E+001  0.1576103E+01  0.7818608E-02  0.3379716E+00
         11   -1    0    0    0    0  0.00000000000E+00  0.00000000000E+00  0.39999999674E+01  0.40000000000E+01  0.51100000000E-03 0. -1.
    9000002   -1    0    0    0    0 -0.00000000000E+00 -0.00000000000E+00  0.00000000000E+00  0.93800000000E+00  0.93800000000E+00 0. -1.
         11    1    1    2    0    0 -0.24360475318E-01  0.10467604209E+00  0.21148165743E+01  0.21175457281E+01  0.51100000000E-03 0. -1.
    9000002    1    1    2    0    0 -0.17719929758E-01  0.14394498078E+00  0.31468234681E-01  0.94966752245E+00  0.93800000000E+00 0. -1.
         22    1    1    2    0    0  0.42080405076E-01 -0.24862102287E+00  0.18537151583E+01  0.18707867494E+01  0.00000000000E+00 0. -1.
</event>
<event>
 5    1  0.4838219E+001  0.1573258E+01  0.7818608E-02  0.3382910E+00
         11   -1    0    0    0    0  0.00000000000E+00  0.00000000000E+00  0.39999999674E+01  0.40000000000E+01  0.51100000000E-03 0.  1.
    9000002   -1    0    0    0    0 -0.00000000000E+00 -0.00000000000E+00  0.00000000000E+00  0.93800000000E+00  0.93800000000E+00 0.  1.
         11    1    1    2    0    0  0.13526552336E+00 -0.13220020881E+00  0.32526553913E+01  0.32581499371E+01  0.51100000000E-03 0.  1.
    9000002    1    1    2    0    0 -0.32213829766E+00  0.22366737390E+00  0.12583529311E+00  0.10244406757E+01  0.93800000000E+00 0.  1.
         22    1    1    2    0    0  0.18687277430E+00 -0.91467165088E-01  0.62150928296E+00  0.65540938723E+00  0.00000000000E+00 0.  1.
</event>
<event>
 5    1  0.4838219E+001  0.1565467E+01  0.7818608E-02  0.3391719E+00
         11   -1    0    0    0    0  0.00000000000E+00  0.00000000000E+00  0.39999999674E+01  0.40000000000E+01  0.51100000000E-03 0. -1.
    9000002   -1    0    0    0    0 -0.00000000000E+00 -0.00000000000E+00  0.00000000000E+00  0.93800000000E+00  0.93800000000E+00 0.  1.
         11    1    1    2    0    0  0.54216649988E-01 -0.19029865481E+00  0.15010050738E+01  0.15139912536E+01  0.51100000000E-03 0. -1.
    9000002    1    1    2    0    0  0.34278987995E-01 -0.39203608857E-01  0.27026969491E-01  0.93983319214E+00  0.93800000000E+00 0.  1.
         22    1    1    2    0    0 -0.88495637982E-01  0.22950226367E+00  0.24719679240E+01  0.24841755543E+01  0.00000000000E+00 0. -1.
</event>
<event>
 5    1  0.4838219E+001  0.1465785E+01  0.7818608E-02  0.3513294E+00
         11   -1    0    0    0    0  0.00000000000E+00  0.00000000000E+00  0.39999999674E+01  0.40000000000E+01  0.51100000000E-03 0. -1.
    9000002   -1    0    0    0    0 -0.00000000000E+00 -0.00000000000E+00  0.00000000000E+00  0.93800000000E+00  0.93800000000E+00 0. -1.
         11    1    1    2    0    0  0.10023801333E+00  0.45101423438E+00  0.18019879439E+01  0.18602747943E+01  0.51100000000E-03 0. -1.
    9000002    1    1    2    0    0 -0.10079765367E+00 -0.32403901292E-01  0.11252466845E+00  0.95063977448E+00  0.93800000000E+00 0. -1.
         22    1    1    2    0    0  0.55964034327E-03 -0.41861033309E+00  0.20854873550E+01  0.21270854313E+01  0.00000000000E+00 0. -1.
</event>
<event>
 5    1  0.4838219E+001  0.1536315E+01  0.7818608E-02  0.3425525E+00
         11   -1    0    0    0    0  0.00000000000E+00  0.00000000000E+00  0.39999999674E+01  0.40000000000E+01  0.51100000000E-03 0. -1.
    9000002   -1    0    0    0    0 -0.00000000000E+00 -0.00000000000E+00  0.00000000000E+00  0.93800000000E+00  0.93800000000E+00 0. -1.
         11    1    1    2    0    0 -0.95742153382E-01 -0.24374554704E+00  0.12926388221E+01  0.13188987213E+01  0.51100000000E-03 0. -1.
    9000002    1    1    2    0    0 -0.63317616775E-01 -0.48196913611E-01  0.51782317373E-01  0.94279237983E+00  0.93800000000E+00 0. -1.
         22    1    1    2    0    0  0.15905977016E+00  0.29194246065E+00  0.26555788279E+01  0.26763088988E+01  0.00000000000E+00 0. -1.
</event>
<event>
 5    1  0.4838219E+001  0.1597415E+01  0.7818608E-02  0.3356174E+00
         11   -1    0    0    0    0  0.00000000000E+00  0.00000000000E+00  0.39999999674E+01  0.40000000000E+01  0.51100000000E-03 0.  1.
    9000002   -1    0    0    0    0 -0.00000000000E+00 -0.00000000000E+00  0.00000000000E+00  0.93800000000E+00  0.93800000000E+00 0. -1.
         11    1    1    2    0    0 -0.51159865827E+00  0.43572708686E+00  0.24582072923E+01  0.25484062930E+01  0.51100000000E-03 0.  1.
    9000002    1    1    2    0    0  0.72491583906E+00 -0.53210212850E+00  0.62224036577E+00  0.14407160448E+01  0.93800000000E+00 0. -1.
         22    1    1    2    0    0 -0.21331718079E+00  0.96375041638E-01  0.91955230933E+00  0.94887766222E+00  0.00000000000E+00 0.  1.
</event>
<event>
 5    1  0.4838219E+001  0.1531830E+01  0.7818608E-02  0.3430847E+00
         11   -1    0    0    0    0  0.00000000000E+00  0.00000000000E+00  0.39999999674E+01  0.40000000000E+01  0.51100000000E-03 0.  1.
    9000002   -1    0    0    0    0 -0.00000000000E+00 -0.00000000000E+00  0.00000000000E+00  0.93800000000E+00  0.93800000000E+00 0. -1.
         11    1    1    2    0    0  0.11766713577E+00  0.32243587649E+00  0.19004566340E+01  0.19312032851E+01  0.51100000000E-03 0.  1.
    9000002    1    1    2    0    0  0.16922042582E+00 -0.16706498840E+00  0.91015737307E-01  0.97194347948E+00  0.93800000000E+00 0. -1.
         22    1    1    2    0    0 -0.28688756159E+00 -0.15537088809E+00  0.20085275960E+01  0.20348532355E+01  0.00000000000E+00 0. -1.
</event>
<event>
 5    1  0.4838219E+001  0.1494999E+01  0.7818608E-02  0.3475856E+00
         11   -1    0    0    0    0  0.00000000000E+00  0.00000000000E+00  0.39999999674E+01  0.40000000000E+01  0.51100000000E-03 0.  1.
    9000002   -1    0    0    0    0 -0.00000000000E+00 -0.00000000000E+00  0.00000000000E+00  0.93800000000E+00  0.93800000000E+00 0. -1.
         11    1    1    2    0    0 -0.56921861154E+00  0.20071668466E+00  0.19928179700E+01  0.20822153438E+01  0.51100000000E-03 0.  1.
    9000002    1    1    2    0    0  0.36881644813E+00 -0.17772512742E+00  0.20679919292E+00  0.10441368203E+01  0.93800000000E+00 0. -1.
         22    1    1    2    0    0  0.20040216341E+00 -0.22991557239E-01  0.18003828045E+01  0.18116478359E+01  0.00000000000E+00 0.  1.
</event>
<event>
 5    1  0.4838219E+001  0.1577595E+01  0.7818608E-02  0.3378046E+00
         11   -1    0    0    0    0  0.00000000000E+00  0.00000000000E+00  0.39999999674E+01  0.40000000000E+01  0.51100000000E-03 0.  1.
    9000002   -1    0    0    0    0 -0.00000000000E+00 -0.00000000000E+00  0.00000000000E+00  0.93800000000E+00  0.93800000000E+00 0. -1.
         11    1    1    2    0    0  0.12661747879E+00  0.48989517122E-01  0.10792958051E+01  0.10878012938E+01  0.51100000000E-03 0.  1.
    9000002    1    1    2    0    0  0.92568043159E-01 -0.48086148476E-02  0.21940168277E-01  0.94282412802E+00  0.93800000000E+00 0. -1.
         22    1    1    2    0    0 -0.21918552195E+00 -0.44180902275E-01  0.28987639939E+01  0.29073745782E+01  0.00000000000E+00 0.  1.
</event>
<event>
 5    1  0.4838219E+001  0.1579700E+01  0.7818608E-02  0.3375696E+00
         11   -1    0    0    0    0  0.00000000000E+00  0.00000000000E+00  0.39999999674E+01  0.40000000000E+01  0.51100000000E-03 0. -1.
    9000002   -1    0    0    0    0 -0.00000000000E+00 -0.00000000000E+00  0.00000000000E+00  0.93800000000E+00  0.93800000000E+00 0. -1.
         11    1    1    2    0    0 -0.55247015330E-01 -0.52621312478E-01  0.18553558934E+01  0.18569240662E+01  0.51100000000E-03 0. -1.
    9000002    1    1    2    0    0 -0.22260434769E+00 -0.11368233585E-01  0.48191160963E-01  0.96532290988E+00  0.93800000000E+00 0. -1.
         22    1    1    2    0    0  0.27785136302E+00  0.63989546063E-01  0.20964529130E+01  0.21157530240E+01  0.00000000000E+00 0.  1.
</event>
<event>
 5    1  0.4838219E+001  0.1557381E+01  0.7818608E-02  0.3400961E+00
         11   -1    0    0    0    0  0.00000000000E+00  0.00000000000E+00  0.39999999674E+01  0.40000000000E+01  0.51100000000E-03 0. -1.
    9000002   -1    0    0    0    0 -0.00000000000E+00 -0.00000000000E+00  0.00000000000E+00  0.93800000000E+00  0.93800000000E+00 0.  1.
         11    1    1    2    0    0  0.12650456850E+00 -0.27331433389E+00  0.19914626974E+01  0.20141072630E+01  0.51100000000E-03 0. -1.
    9000002    1    1    2    0    0  0.32055352112E-01  0.14105643605E+00  0.45660538702E-01  0.95018595472E+00  0.93800000000E+00 0.  1.
         22    1    1    2    0    0 -0.15855992061E+00  0.13225789784E+00  0.19628767313E+01  0.19737067822E+01  0.00000000000E+00 0. -1.
</event>
<event>
 5    1  0.4838219E+001  0.1544639E+01  0.7818608E-02  0.3415733E+00
         11   -1    0    0    0    0  0.00000000000E+00  0.00000000000E+00  0.39999999674E+01  0.40000000000E+01  0.51100000000E-03 0. -1.
    9000002   -1    0    0    0    0 -0.00000000000E+00 -0.00000000000E+00  0.00000000000E+00  0.93800000000E+00  0.93800000000E+00 0. -1.
         11    1    1    2    0    0  0.95576532426E-01  0.28659537385E+00  0.12865669696E+01  0.13215621855E+01  0.51100000000E-03 0. -1.
    9000002    1    1    2    0    0  0.88787700540E-01 -0.15915552795E+00  0.64149875917E-01  0.95769146620E+00  0.93800000000E+00 0. -1.
         22    1    1    2    0    0 -0.18436423297E+00 -0.12743984590E+00  0.26492831219E+01  0.26587463483E+01  0.00000000000E+00 0. -1.
</event>
<event>
 5    1  0.4838219E+001  0.1516747E+01  0.7818608E-02  0.3448995E+00
         11   -1    0    0    0    0  0.00000000000E+00  0.00000000000E+00  0.39999999674E+01  0.40000000000E+01  0.51100000000E-03 0.  1.
    9000002   -1    0    0    0    0 -0.00000000000E+00 -0.00000000000E+00  0.00000000000E+00  0.93800000000E+00  0.93800000000E+00 0. -1.
         11    1    1    2    0    0  0.16323775300E+00 -0.22025998903E+00  0.77099886067E+00  0.81829122630E+00  0.51100000000E-03 0.  1.
    9000002    1    1    2    0    0  0.14601360757E+00  0.99286871991E-01  0.85035760071E-01  0.95825515237E+00  0.93800000000E+00 0. -1.
         22    1    1    2    0    0 -0.30925136057E+00  0.12097311704E+00  0.31439653466E+01  0.31614536213E+01  0.00000000000E+00 0.  1.
</event>
<event>
 5    1  0.4838219E+001  0.1483612E+01  0.7818608E-02  0.3490259E+00
         11   -1    0    0    0    0  0.00000000000E+00  0.00000000000E+00  0.39999999674E+01  0.40000000000E+01  0.51100000000E-03 0. -1.
    9000002   -1    0    0    0    0 -0.00000000000E+00 -0.00000000000E+00  0.00000000000E+00  0.93800000000E+00  0.93800000000E+00 0. -1.
         11    1    1    2    0    0  0.20274419413E+00  0.30189406914E-01  0.23107039144E+00  0.30888573205E+00  0.51100000000E-03 0. -1.
    9000002    1    1    2    0    0 -0.10543480612E-03  0.20187592785E+00  0.11971486476E+00  0.96691755088E+00  0.93800000000E+00 0. -1.
         22    1    1    2    0    0 -0.20263875932E+00 -0.23206533476E+00  0.36492147112E+01  0.36621967171E+01  0.00000000000E+00 0. -1.
</event>
<event>
 5    1  0.4838219E+001  0.1500963E+01  0.7818608E-02  0.3468407E+00
         11   -1    0    0    0    0  0.00000000000E+00  0.00000000000E+00  0.39999999674E+01  0.40000000000E+01  0.51100000000E-03 0.  1.
    9000002   -1    0    0    0    0 -0.00000000000E+00 -0.00000000000E+00  0.00000000000E+00  0.93800000000E+00  0.93800000000E+00 0. -1.
         11    1    1    2    0    0  0.41509752694E-01  0.42487468870E+00  0.19325784246E+01  0.19791667916E+01  0.51100000000E-03 0.  1.
    9000002    1    1    2    0    0  0.28019152479E-01 -0.10295475002E+00  0.83470685302E-01  0.94773208702E+00  0.93800000000E+00 0. -1.
         22    1    1    2    0    0 -0.69528905173E-01 -0.32191993868E+00  0.19839508575E+01  0.20111011214E+01  0.00000000000E+00 0. -1.
</event>
<event>
 5    1  0.4838219E+001  0.1425737E+01  0.7818608E-02  0.3567333E+00
         11   -1    0    0    0    0  0.00000000000E+00  0.00000000000E+00  0.39999999674E+01  0.40000000000E+01  0.51100000000E-03 0. -1.
    9000002   -1    0    0    0    0 -0.00000000000E+00 -0.00000000000E+00  0.00000000000E+00  0.93800000000E+00  0.93800000000E+00 0. -1.
         11    1    1    2    0    0  0.62697352675E+00  0.75517080959E-01  0.14061136574E+01  0.15414131540E+01  0.51100000000E-03 0. -1.
    9000002    1    1    2    0    0 -0.37923848053E+00  0.32643184135E-01  0.25738302563E+00  0.10444986474E+01  0.93800000000E+00 0. -1.
         22    1    1    2    0    0 -0.24773504621E+00 -0.10816026509E+00  0.23365032843E+01  0.23520881986E+01  0.00000000000E+00 0. -1.
</event>
<event>
 5    1  0.4838219E+001  0.1583027E+01  0.7818608E-02  0.3371994E+00
         11   -1    0    0    0    0  0.00000000000E+00  0.00000000000E+00  0.39999999674E+01  0.40000000000E+01  0.51100000000E-03 0. -1.
    9000002   -1    0    0    0    0 -0.00000000000E+00 -0.00000000000E+00  0.00000000000E+00  0.93800000000E+00  0.93800000000E+00 0.  1.
         11    1    1    2    0    0  0.98686316194E-01  0.21056627445E-01  0.37840069127E+00  0.39162445638E+00  0.51100000000E-03 0. -1.
    9000002    1    1    2    0    0 -0.69052131925E-01 -0.21907735542E+00  0.47722409826E-01  0.96689426153E+00  0.93800000000E+00 0.  1.
         22    1    1    2    0    0 -0.29634184269E-01  0.19802072797E+00  0.35738768663E+01  0.35794812821E+01  0.00000000000E+00 0. -1.
</event>
<event>
 5    1  0.4838219E+001  0.1569028E+01  0.7818608E-02  0.3387680E+00
         11   -1    0    0    0    0  0.00000000000E+00  0.00000000000E+00  0.39999999674E+01  0.40000000000E+01  0.51100000000E-03 0. -1.
    9000002   -1    0    0    0    0 -0.00000000000E+00 -0.00000000000E+00  0.00000000000E+00  0.93800000000E+00  0.93800000000E+00 0. -1.
         11    1    1    2    0    0 -0.12851543845E+00  0.15305333149E+00  0.24731605784E+01  0.24812224906E+01  0.51100000000E-03 0. -1.
    9000002    1    1    2    0    0 -0.30118649413E-01 -0.18215340201E-01  0.23359467009E-01  0.93895079549E+00  0.93800000000E+00 0. -1.
         22    1    1    2    0    0  0.15863408787E+00 -0.13483799129E+00  0.15034799220E+01  0.15178267139E+01  0.00000000000E+00 0. -1.
</event>
<event>
 5    1  0.4838219E+001  0.1558464E+01  0.7818608E-02  0.3399717E+00
         11   -1    0    0    0    0  0.00000000000E+00  0.00000000000E+00  0.39999999674E+01  0.40000000000E+01  0.51100000000E-03 0. -1.
    9000002   -1    0    0    0    0 -0.00000000000E+00 -0.00000000000E+00  0.00000000000E+00  0.93800000000E+00  0.93800000000E+00 0. -1.
         11    1    1    2    0    0 -0.14285391164E+00  0.18505864365E+00  0.12475248694E+01  0.12692409159E+01  0.51100000000E-03 0. -1.
    9000002    1    1    2    0    0 -0.44774815086E-02 -0.30625079498E-01  0.31098862626E-01  0.93902560273E+00  0.93800000000E+00 0. -1.
         22    1    1    2    0    0  0.14733139315E+00 -0.15443356415E+00  0.27213762353E+01  0.27297334814E+01  0.00000000000E+00 0. -1.
</event>
<event>
 5    1  0.4838219E+001  0.1574852E+01  0.7818608E-02  0.3381119E+00
         11   -1    0    0    0    0  0.00000000000E+00  0.00000000000E+00  0.39999999674E+01  0.40000000000E+01  0.51100000000E-03 0.  1.
    9000002   -1    0    0    0    0 -0.00000000000E+00 -0.00000000000E+00  0.00000000000E+00  0.93800000000E+00  0.93800000000E+00 0. -1.
         11    1    1    2    0    0 -0.13034090164E+00 -0.13524353475E+00  0.22741439614E+01  0.22818875044E+01  0.51100000000E-03 0.  1.
    9000002    1    1    2    0    0 -0.95899334688E-01  0.18790753107E+00  0.48399089633E-01  0.96264863502E+00  0.93800000000E+00 0. -1.
         22    1    1    2    0    0  0.22624023633E+00 -0.52663996315E-01  0.16774569163E+01  0.16934638606E+01  0.00000000000E+00 0. -1.
</event>
<event>
 5    1  0.4838219E+001  0.1537296E+01  0.7818608E-02  0.3424364E+00
         11   -1    0    0    0    0  0.00000000000E+00  0.00000000000E+00  0.39999999674E+01  0.40000000000E+01  0.51100000000E-03 0. -1.
    9000002   -1    0    0    0    0 -0.00000000000E+00 -0.00000000000E+00  0.00000000000E+00  0.93800000000E+00  0.93800000000E+00 0. -1.
         11    1    1    2    0    0  0.39146541099E+00  0.16154953034E+00  0.17657766949E+01  0.18158499432E+01  0.51100000000E-03 0. -1.
    9000002    1    1    2    0    0 -0.33272415072E+00  0.41800391097E-01  0.12686302884E+00  0.10041866665E+01  0.93800000000E+00 0. -1.
         22    1    1    2    0    0 -0.58741260272E-01 -0.20334992143E+00  0.21073602436E+01  0.21179633903E+01  0.00000000000E+00 0. -1.
</event>
<event>
 5    1  0.4838219E+001  0.1528007E+01  0.7818608E-02  0.3435411E+00
         11   -1    0    0    0    0  0.00000000000E+00  0.00000000000E+00  0.39999999674E+01  0.40000000000E+01  0.51100000000E-03 0.  1.
    9000002   -1    0    0    0    0 -0.00000000000E+00 -0.00000000000E+00  0.00000000000E+00  0.93800000000E+00  0.93800000000E+00 0. -1.
         11    1    1    2    0    0 -0.14750033942E+00 -0.32787800591E+00  0.14116605074E+01  0.14567244030E+01  0.51100000000E-03 0.  1.
    9000002    1    1    2    0    0  0.16340202235E-02  0.15248056388E+00  0.70286201918E-01  0.95290982919E+00  0.93800000000E+00 0. -1.
         22    1    1    2    0    0  0.14586631919E+00  0.17539744202E+00  0.25180532580E+01  0.25283657679E+01  0.00000000000E+00 0.  1.
</event>
<event>
 5    1  0.4838219E+001  0.1584922E+01  0.7818608E-02  0.3369893E+00
         11   -1    0    0    0    0  0.00000000000E+00  0.00000000000E+00  0.39999999674E+01  0.40000000000E+01  0.51100000000E-03 0.  1.
    9000002   -1    0    0    0    0 -0.00000000000E+00 -0.00000000000E+00  0.00000000000E+00  0.93800000000E+00  0.93800000000E+00 0.  1.
         11    1    1    2    0    0  0.23628331664E-01  0.28953591469E-02  0.25090104465E+01  0.25091234252E+01  0.51100000000E-03 0.  1.
    9000002    1    1    2    0    0  0.79584805400E-01 -0.19431603731E+00  0.40388451467E-01  0.96206428611E+00  0.93800000000E+00 0.  1.
         22    1    1    2    0    0 -0.10321313706E+00  0.19142067816E+00  0.14506010694E+01  0.14668122887E+01  0.00000000000E+00 0. -1.
</event>
<event>
 5    1  0.4838219E+001  0.1532241E+01  0.7818608E-02  0.3430358E+00
         11   -1    0    0    0    0  0.00000000000E+00  0.00000000000E+00  0.39999999674E+01  0.40000000000E+01  0.51100000000E-03 0. -1.
    9000002   -1    0    0    0    0 -0.00000000000E+00 -0.00000000000E+00  0.00000000000E+00  0.93800000000E+00  0.93800000000E+00 0.  1.
         11    1    1    2    0    0 -0.25419036759E+00 -0.32116599571E+00  0.21213296196E+01  0.21605091890E+01  0.51100000000E-03 0. -1.
    9000002    1    1    2    0    0  0.89082516411E-01  0.16175599617E+00  0.74632657766E-01  0.95891330715E+00  0.93800000000E+00 0.  1.
         22    1    1    2    0    0  0.16510785117E+00  0.15940999953E+00  0.18040376900E+01  0.18185775038E+01  0.00000000000E+00 0. -1.
</event>
<event>
 5    1  0.4838219E+001  0.1526123E+01  0.7818608E-02  0.3437669E+00
         11   -1    0    0    0    0  0.00000000000E+00  0.00000000000E+00  0.39999999674E+01  0.40000000000E+01  0.51100000000E-03 0.  1.
    9000002   -1    0    0    0    0 -0.00000000000E+00 -0.00000000000E+00  0.00000000000E+00  0.93800000000E+00  0.93800000000E+00 0.  1.
         11    1    1    2    0    0  0.10524623056E-01  0.40644979358E+00  0.24392843807E+01  0.24729376768E+01  0.51100000000E-03 0.  1.
    9000002    1    1    2    0    0 -0.18119624307E+00 -0.17222165792E+00  0.10000360058E+00  0.97587760405E+00  0.93800000000E+00 0.  1.
         22    1    1    2    0    0  0.17067162002E+00 -0.23422813567E+00  0.14607119861E+01  0.14891847191E+01  0.00000000000E+00 0.  1.
</event>
<event>
 5    1  0.4838219E+001  0.1508616E+01  0.7818608E-02  0.3458941E+00
         11   -1    0    0    0    0  0.00000000000E+00  0.00000000000E+00  0.39999999674E+01  0.40000000000E+01  0.51100000000E-03 0. -1.
    9000002   -1    0    0    0    0 -0.00000000000E+00 -0.00000000000E+00  0.00000000000E+00  0.93800000000E+00  0.93800000000E+00 0.  1.
         11    1    1    2    0    0 -0.28430391790E+00 -0.31578437928E+00  0.21991856909E+01  0.22398585795E+01  0.51100000000E-03 0. -1.
    9000002    1    1    2    0    0  0.17432177979E+00  0.13195454290E-01  0.91228288795E-01  0.95850341867E+00  0.93800000000E+00 0.  1.
         22    1    1    2    0    0  0.10998213812E+00  0.30258892499E+00  0.17095859876E+01  0.17396380018E+01  0.00000000000E+00 0. -1.
</event>
<event>
 5    1  0.4838219E+001  0.1549346E+01  0.7818608E-02  0.3410245E+00
         11   -1    0    0    0    0  0.00000000000E+00  0.00000000000E+00  0.39999999674E+01  0.40000000000E+01  0.51100000000E-03 0.  1.
    9000002   -1    0    0    0    0 -0.00000000000E+00 -0.00000000000E+00  0.00000000000E+00  0.93800000000E+00  0.93800000000E+00 0.  1.
         11    1    1    2    0    0 -0.26681008110E+00  0.14812473602E+00  0.10672674285E+01  0.11100399011E+01  0.51100000000E-03 0.  1.
    9000002    1    1    2    0    0  0.36999644896E+00  0.11151173314E+00  0.14328066314E+00  0.10245514078E+01  0.93800000000E+00 0.  1.
         22    1    1    2    0    0 -0.10318636786E+00 -0.25963646916E+00  0.27894518757E+01  0.28034086911E+01  0.00000000000E+00 0.  1.
</event>
<event>
 5    1  0.4838219E+001  0.1467402E+01  0.7818608E-02  0.3511179E+00
         11   -1    0    0    0    0  0.00000000000E+00  0.00000000000E+00  0.39999999674E+01  0.40000000000E+01  0.51100000000E-03 0.  1.
    9000002   -1    0    0    0    0 -0.00000000000E+00 -0.00000000000E+00  0.00000000000E+00  0.93800000000E+00  0.93800000000E+00 0.  1.
         11    1    1    2    0    0 -0.40976178067E+00 -0.24519001179E+00  0.16410042690E+01  0.17090693756E+01  0.51100000000E-03 0.  1.
    9000002    1    1    2    0    0  0.11126895588E+00  0.20621517805E-01  0.11236639566E+00  0.95146005403E+00  0.93800000000E+00 0.  1.
         22    1    1    2    0    0  0.29849282478E+00  0.22456849399E+00  0.22466293027E+01  0.22774705704E+01  0.00000000000E+00 0.  1.
</event>
<event>
 5    1  0.4838219E+001  0.1539619E+01  0.7818608E-02  0.3421624E+00
         11   -1    0    0    0    0  0.00000000000E+00  0.00000000000E+00  0.39999999674E+01  0.40000000000E+01  0.51100000000E-03 0.  1.
    9000002   -1    0    0    0    0 -0.00000000000E+00 -0.00000000000E+00  0.00000000000E+00  0.93800000000E+00  0.93800000000E+00 0. -1.
         11    1    1    2    0    0  0.20041948662E+00 -0.31205878141E-01  0.34168283948E+01  0.34228436012E+01  0.51100000000E-03 0.  1.
    9000002    1    1    2    0    0 -0.20492695175E+00 -0.18988492118E+00  0.10004004956E+00  0.98382079179E+00  0.93800000000E+00 0. -1.
         22    1    1    2    0    0  0.45074651241E-02  0.22109079933E+00  0.48313152302E+00  0.53133560705E+00  0.00000000000E+00 0.  1.
</event>
<event>
 5    1  0.4838219E+001  0.1581955E+01  0.7818608E-02  0.3373185E+00
         11   -1    0    0    0    0  0.00000000000E+00  0.00000000000E+00  0.39999999674E+01  0.40000000000E+01  0.51100000000E-03 0.  1.
    9000002   -1    0    0    0    0 -0.00000000000E+00 -0.00000000000E+00  0.00000000000E+00  0.93800000000E+00  0.93800000000E+00 0.  1.
         11    1    1    2    0    0  0.97195347424E-01  0.32730949297E-01  0.98174149316E+00  0.98708402434E+00  0.51100000000E-03 0.  1.
    9000002    1    1    2    0    0  0.84156651899E-01  0.15871681883E+00  0.34650369431E-01  0.95567673339E+00  0.93800000000E+00 0.  1.
         22    1    1    2    0    0 -0.18135199932E+00 -0.19144776812E+00  0.29836081048E+01  0.29952392423E+01  0.00000000000E+00 0.  1.
</event>
<event>
 5    1  0.4838219E+001  0.1535712E+01  0.7818608E-02  0.3426238E+00
         11   -1    0    0    0    0  0.00000000000E+00  0.00000000000E+00  0.39999999674E+01  0.40000000000E+01  0.51100000000E-03 0. -1.
    9000002   -1    0    0    0    0 -0.00000000000E+00 -0.00000000000E+00  0.00000000000E+00  0.93800000000E+00  0.93800000000E+00 0.  1.
         11    1    1    2    0    0 -0.37153214069E+00  0.72736512657E-01  0.21117755463E+01  0.21454423672E+01  0.51100000000E-03 0. -1.
    9000002    1    1    2    0    0  0.12968932469E+00 -0.77060444818E-01  0.63826518595E-01  0.95219507328E+00  0.93800000000E+00 0.  1.
         22    1    1    2    0    0  0.24184281600E+00  0.43239321611E-02  0.18243979024E+01  0.18403625595E+01  0.00000000000E+00 0. -1.
</event>
<event>
 5    1  0.4838219E+001  0.1478695E+01  0.7818608E-02  0.3496553E+00
         11   -1    0    0    0    0  0.00000000000E+00  0.00000000000E+00  0.39999999674E+01  0.40000000000E+01  0.51100000000E-03 0.  1.
    9000002   -1    0    0    0    0 -0.00000000000E+00 -0.00000000000E+00  0.00000000000E+00  0.93800000000E+00  0.93800000000E+00 0. -1.
         11    1    1    2    0    0  0.20201090219E+00  0.72013051238E-01  0.18919059836E+00  0.28598536288E+00  0.51100000000E-03 0.  1.
    9000002    1    1    2    0    0 -0.30106737373E+00  0.15777575174E+00  0.18146634522E+00  0.10140556128E+01  0.93800000000E+00 0. -1.
         22    1    1    2    0    0  0.99056471541E-01 -0.22978880298E+00  0.36293430238E+01  0.36379590243E+01  0.00000000000E+00 0.  1.
</event>
<event>
 5    1  0.4838219E+001  0.1383836E+01  0.7818608E-02  0.3633136E+00
         11   -1    0    0    0    0  0.00000000000E+00  0.00000000000E+00  0.39999999674E+01  0.40000000000E+01  0.51100000000E-03 0.  1.
    9000002   -1    0    0    0    0 -0.00000000000E+00 -0.00000000000E+00  0.00000000000E+00  0.93800000000E+00  0.93800000000E+00 0.  1.
         11    1    1    2    0    0 -0.50941588800E+00  0.60668476358E+00  0.14411456185E+01  0.16445278667E+01  0.51100000000E-03 0.  1.
    9000002    1    1    2    0    0  0.35290602197E+00 -0.44187505494E+00  0.46929182596E+00  0.11915850966E+01  0.93800000000E+00 0.  1.
         22    1    1    2    0    0  0.15650986603E+00 -0.16480970864E+00  0.20895625229E+01  0.21018870367E+01  0.00000000000E+00 0.  1.
</event>
<event>
 5    1  0.4838219E+001  0.1573298E+01  0.7818608E-02  0.3382865E+00
         11   -1    0    0    0    0  0.00000000000E+00  0.00000000000E+00  0.39999999674E+01  0.40000000000E+01  0.51100000000E-03 0.  1.
    9000002   -1    0    0    0    0 -0.00000000000E+00 -0.00000000000E+00  0.00000000000E+00  0.93800000000E+00  0.93800000000E+00 0. -1.
         11    1    1    2    0    0  0.61043333440E-01  0.66960898187E-01  0.24958293360E+00  0.26552203733E+00  0.51100000000E-03 0.  1.
    9000002    1    1    2    0    0  0.19219625073E+00 -0.72775520313E-01  0.48045219879E-01  0.96145099631E+00  0.93800000000E+00 0. -1.
         22    1    1    2    0    0 -0.25323958417E+00  0.58146221262E-02  0.37023718139E+01  0.37110269664E+01  0.00000000000E+00 0.  1.
</event>
<event>
 5    1  0.4838219E+001  0.1468297E+01  0.7818608E-02  0.3510011E+00
         11   -1    0    0    0    0  0.00000000000E+00  0.00000000000E+00  0.39999999674E+01  0.40000000000E+01  0.51100000000E-03 0. -1.
    9000002   -1    0    0    0    0 -0.00000000000E+00 -0.00000000000E+00  0.00000000000E+00  0.93800000000E+00  0.93800000000E+00 0.  1.
         11    1    1    2    0    0 -0.14299208544E+00 -0.59781653703E+00  0.17773044569E+01  0.18805963794E+01  0.51100000000E-03 0. -1.
    9000002    1    1    2    0    0  0.11984336617E+00  0.35908208228E+00  0.21331085841E+00  0.10337542728E+01  0.93800000000E+00 0.  1.
         22    1    1    2    0    0  0.23148719270E-01  0.23873445475E+00  0.20093846520E+01  0.20236493478E+01  0.00000000000E+00 0. -1.
</event>
<event>
 5    1  0.5041858E+001  0.1563400E+01  0.7818608E-02  0.3394072E+00
         11   -1    0    0    0    0  0.00000000000E+00  0.00000000000E+00  0.39999999674E+01  0.40000000000E+01  0.51100000000E-03 0.  1.
    9000002   -1    0    0    0    0 -0.00000000000E+00 -0.00000000000E+00  0.00000000000E+00  0.93800000000E+00  0.93800000000E+00 0. -1.
         11    1    1    2    0    0 -0.21192774277E+00  0.70521560959E-01  0.13853059302E+01  0.14031961517E+01  0.51100000000E-03 0.  1.
    9000002    1    1    2    0    0  0.92917759620E-03 -0.44802866993E-01  0.28099490690E-01  0.93949014984E+00  0.93800000000E+00 0. -1.
         22    1    1    2    0    0  0.21099856517E+00 -0.25718693966E-01  0.25865945465E+01  0.25953136985E+01  0.00000000000E+00 0.  1.
</event>
<event>
 5    1  0.4838219E+001  0.1517486E+01  0.7818608E-02  0.3448097E+00
         11   -1    0    0    0    0  0.00000000000E+00  0.00000000000E+00  0.39999999674E+01  0.40000000000E+01  0.51100000000E-03 0. -1.
    9000002   -1    0    0    0    0 -0.00000000000E+00 -0.00000000000E+00  0.00000000000E+00  0.93800000000E+00  0.93800000000E+00 0.  1.
         11    1    1    2    0    0 -0.25145492806E+00 -0.25914206083E+00  0.17641456346E+01  0.18007204863E+01  0.51100000000E-03 0. -1.
    9000002    1    1    2    0    0  0.44883880741E-02  0.52163489428E-01  0.63985162252E-01  0.94163648838E+00  0.93800000000E+00 0.  1.
         22    1    1    2    0    0  0.24696653999E+00  0.20697857140E+00  0.21718691705E+01  0.21956430254E+01  0.00000000000E+00 0. -1.
</event>
<event>
 5    1  0.4838219E+001  0.1574060E+01  0.7818608E-02  0.3382008E+00
         11   -1    0    0    0    0  0.00000000000E+00  0.00000000000E+00  0.39999999674E+01  0.40000000000E+01  0.51100000000E-03 0. -1.
    9000002   -1    0    0    0    0 -0.00000000000E+00 -0.00000000000E+00  0.00000000000E+00  0.93800000000E+00  0.93800000000E+00 0. -1.
         11    1    1    2    0    0 -0.80650048302E-01 -0.11740285295E+00  0.11050492270E+01  0.11141911485E+01  0.51100000000E-03 0. -1.
    9000002    1    1    2    0    0 -0.15620133462E+00 -0.94684237642E-02  0.35358543693E-01  0.95162110874E+00  0.93800000000E+00 0. -1.
         22    1    1    2    0    0  0.23685138293E+00  0.12687127671E+00  0.28595921967E+01  0.28721877428E+01  0.00000000000E+00 0. -1.
</event>
<event>
 5    1  0.4838219E+001  0.1572661E+01  0.7818608E-02  0.3383581E+00
         11   -1    0    0    0    0  0.00000000000E+00  0.00000000000E+00  0.39999999674E+01  0.40000000000E+01  0.51100000000E-03 0. -1.
    9000002   -1    0    0    0    0 -0.00000000000E+00 -0.00000000000E+00  0.00000000000E+00  0.93800000000E+00  0.93800000000E+00 0. -1.
         11    1    1    2    0    0 -0.11668220198E+00  0.36776595735E-01  0.51186172137E+00  0.52627933380E+00  0.51100000000E-03 0. -1.
    9000002    1    1    2    0    0 -0.10684708816E+00 -0.81329619316E-01  0.32028863185E-01  0.94810371548E+00  0.93800000000E+00 0. -1.
         22    1    1    2    0    0  0.22352929014E+00  0.44553023581E-01  0.34561093828E+01  0.34636169507E+01  0.00000000000E+00 0. -1.
</event>
<event>
 5    1  0.4838219E+001  0.1533227E+01  0.7818608E-02  0.3429186E+00
         11   -1    0    0    0    0  0.00000000000E+00  0.00000000000E+00  0.39999999674E+01  0.40000000000E+01  0.51100000000E-03 0.  1.
    9000002   -1    0    0    0    0 -0.00000000000E+00 -0.00000000000E+00  0.00000000000E+00  0.93800000000E+00  0.93800000000E+00 0. -1.
         11    1    1    2    0    0 -0.79518698768E-01  0.26902288900E+00  0.62141167629E+00  0.68179855589E+00  0.51100000000E-03 0.  1.
    9000002    1    1    2    0    0 -0.13056548888E+00 -0.35997229828E+00  0.15552315139E+00  0.10250165135E+01  0.93800000000E+00 0. -1.
         22    1    1    2    0    0  0.21008418765E+00  0.90949409276E-01  0.32230651397E+01  0.32311849306E+01  0.00000000000E+00 0.  1.
</event>
<event>
 5    1  0.4838219E+001  0.1550531E+01  0.7818608E-02  0.3408870E+00
         11   -1    0    0    0    0  0.00000000000E+00  0.00000000000E+00  0.39999999674E+01  0.40000000000E+01  0.51100000000E-03 0.  1.
    9000002   -1    0    0    0    0 -0.00000000000E+00 -0.00000000000E+00  0.00000000000E+00  0.93800000000E+00  0.93800000000E+00 0. -1.
         11    1    1    2    0    0 -0.29006486119E+00 -0.51475300921E-01  0.19271821193E+01  0.19495688017E+01  0.51100000000E-03 0.  1.
    9000002    1    1    2    0    0  0.61618494331E-01 -0.15416711349E-01  0.39237482530E-01  0.94096657426E+00  0.93800000000E+00 0. -1.
         22    1    1    2    0    0  0.22844636686E+00  0.66892012271E-01  0.20335803655E+01  0.20474646241E+01  0.00000000000E+00 0.  1.
</event>
<event>
 5    1  0.4838219E+001  0.1507614E+01  0.7818608E-02  0.3460174E+00
         11   -1    0    0    0    0  0.00000000000E+00  0.00000000000E+00  0.39999999674E+01  0.40000000000E+01  0.51100000000E-03 0. -1.
    9000002   -1    0    0    0    0 -0.00000000000E+00 -0.00000000000E+00  0.00000000000E+00  0.93800000000E+00  0.93800000000E+00 0. -1.
         11    1    1    2    0    0  0.31554903774E+00  0.17955786497E+00  0.15389786399E+01  0.15812234938E+01  0.51100000000E-03 0. -1.
    9000002    1    1    2    0    0 -0.48320314578E-01  0.47816428497E-01  0.73189580793E-01  0.94330375721E+00  0.93800000000E+00 0. -1.
         22    1    1    2    0    0 -0.26722872316E+00 -0.22737429347E+00  0.23878317466E+01  0.24134727490E+01  0.00000000000E+00 0. -1.
</event>
<event>
 5    1  0.4838219E+001  0.1398565E+01  0.7818608E-02  0.3609177E+00
         11   -1    0    0    0    0  0.00000000000E+00  0.00000000000E+00  0.39999999674E+01  0.40000000000E+01  0.51100000000E-03 0. -1.
    9000002   -1    0    0    0    0 -0.00000000000E+00 -0.00000000000E+00  0.00000000000E+00  0.93800000000E+00  0.93800000000E+00 0.  1.
         11    1    1    2    0    0 -0.18328505449E+00  0.46830578247E+00  0.21131040856E+01  0.21721217403E+01  0.51100000000E-03 0. -1.
    9000002    1    1    2    0    0 -0.14118711871E+00  0.16956769520E-02  0.17937956083E+00  0.96537956507E+00  0.93800000000E+00 0.  1.
         22    1    1    2    0    0  0.32447217320E+00 -0.47000145942E+00  0.17075163210E+01  0.18004986946E+01  0.00000000000E+00 0.  1.
</event>
<event>
 5    1  0.4838219E+001  0.1555532E+01  0.7818608E-02  0.3403088E+00
         11   -1    0    0    0    0  0.00000000000E+00  0.00000000000E+00  0.39999999674E+01  0.40000000000E+01  0.51100000000E-03 0. -1.
    9000002   -1    0    0    0    0 -0.00000000000E+00 -0.00000000000E+00  0.00000000000E+00  0.93800000000E+00  0.93800000000E+00 0.  1.
         11    1    1    2    0    0 -0.17080624355E+00  0.21404506543E-01  0.68891296819E+00  0.71009454624E+00  0.51100000000E-03 0. -1.
    9000002    1    1    2    0    0 -0.11937683497E+00 -0.26112113626E-01  0.42943131472E-01  0.94690061978E+00  0.93800000000E+00 0.  1.
         22    1    1    2    0    0  0.29018307852E+00  0.47076070829E-02  0.32681438677E+01  0.32810048340E+01  0.00000000000E+00 0. -1.
</event>
<event>
 5    1  0.4838219E+001  0.1429179E+01  0.7818608E-02  0.3562558E+00
         11   -1    0    0    0    0  0.00000000000E+00  0.00000000000E+00  0.39999999674E+01  0.40000000000E+01  0.51100000000E-03 0.  1.
    9000002   -1    0    0    0    0 -0.00000000000E+00 -0.00000000000E+00  0.00000000000E+00  0.93800000000E+00  0.93800000000E+00 0.  1.
         11    1    1    2    0    0  0.39121184325E+00 -0.35886035508E+00  0.15444283639E+01  0.16331217631E+01  0.51100000000E-03 0.  1.
    9000002    1    1    2    0    0 -0.81924755571E-02  0.15428816034E+00  0.15440097251E+00  0.96309688681E+00  0.93800000000E+00 0.  1.
         22    1    1    2    0    0 -0.38301936770E+00  0.20457219474E+00  0.23011706309E+01  0.23417813501E+01  0.00000000000E+00 0.  1.
</event>
<event>
 5    1  0.4838219E+001  0.1536219E+01  0.7818608E-02  0.3425638E+00
         11   -1    0    0    0    0  0.00000000000E+00  0.00000000000E+00  0.39999999674E+01  0.40000000000E+01  0.51100000000E-03 0. -1.
    9000002   -1    0    0    0    0 -0.00000000000E+00 -0.00000000000E+00  0.00000000000E+00  0.93800000000E+00  0.93800000000E+00 0. -1.
         11    1    1    2    0    0 -0.27925526173E+00 -0.18377768726E+00  0.13875743353E+01  0.14272773160E+01  0.51100000000E-03 0. -1.
    9000002    1    1    2    0    0  0.11547858180E+00  0.51729360884E-01  0.58666577032E-01  0.94831271050E+00  0.93800000000E+00 0. -1.
         22    1    1    2    0    0  0.16377667992E+00  0.13204832638E+00  0.25537590550E+01  0.25624099735E+01  0.00000000000E+00 0.  1.
</event>
<event>
 5    1  0.4838219E+001  0.1562628E+01  0.7818608E-02  0.3394952E+00
         11   -1    0    0    0    0  0.00000000000E+00  0.00000000000E+00  0.39999999674E+01  0.40000000000E+01  0.51100000000E-03 0. -1.
    9000002   -1    0    0    0    0 -0.00000000000E+00 -0.00000000000E+00  0.00000000000E+00  0.93800000000E+00  0.93800000000E+00 0. -1.
         11    1    1    2    0    0  0.34613365323E-01  0.16370312144E+00  0.78832150051E+00  0.80588327090E+00  0.51100000000E-03 0. -1.
    9000002    1    1    2    0    0  0.27963183662E-01  0.86090770880E-01  0.32907083836E-01  0.94293183032E+00  0.93800000000E+00 0. -1.
         22    1    1    2    0    0 -0.62576548985E-01 -0.24979389232E+00  0.31787713830E+01  0.31891848988E+01  0.00000000000E+00 0. -1.
</event>
<event>
 5    1  0.4838219E+001  0.1586180E+01  0.7818608E-02  0.3368502E+00
         11   -1    0    0    0    0  0.00000000000E+00  0.00000000000E+00  0.39999999674E+01  0.40000000000E+01  0.51100000000E-03 0. -1.
    9000002   -1    0    0    0    0 -0.00000000000E+00 -0.00000000000E+00  0.00000000000E+00  0.93800000000E+00  0.93800000000E+00 0.  1.
         11    1    1    2    0    0 -0.60955548459E-01  0.52961463717E-01  0.17333687901E+01  0.17352487197E+01  0.51100000000E-03 0. -1.
    9000002    1    1    2    0    0 -0.15537036988E+00 -0.30368593696E-02  0.25992777262E-01  0.95114078812E+00  0.93800000000E+00 0.  1.
         22    1    1    2    0    0  0.21632591834E+00 -0.49924604348E-01  0.22406384000E+01  0.22516104922E+01  0.00000000000E+00 0. -1.
</event>
<event>
 5    1  0.4838219E+001  0.1538394E+01  0.7818608E-02  0.3423069E+00
         11   -1    0    0    0    0  0.00000000000E+00  0.00000000000E+00  0.39999999674E+01  0.40000000000E+01  0.51100000000E-03 0. -1.
    9000002   -1    0    0    0    0 -0.00000000000E+00 -0.00000000000E+00  0.00000000000E+00  0.93800000000E+00  0.93800000000E+00 0. -1.
         11    1    1    2    0    0 -0.22304548831E+00 -0.31268906904E+00  0.27932651122E+01  0.28195485440E+01  0.51100000000E-03 0. -1.
    9000002    1    1    2    0    0  0.30679678690E+00  0.61897910492E-01  0.11540580649E+00  0.99554915496E+00  0.93800000000E+00 0. -1.
         22    1    1    2    0    0 -0.83751298586E-01  0.25079115855E+00  0.10913290487E+01  0.11229023010E+01  0.00000000000E+00 0. -1.
</event>
<event>
 5    1  0.4838219E+001  0.1569520E+01  0.7818608E-02  0.3387124E+00
         11   -1    0    0    0    0  0.00000000000E+00  0.00000000000E+00  0.39999999674E+01  0.40000000000E+01  0.51100000000E-03 0. -1.
    9000002   -1    0    0    0    0 -0.00000000000E+00 -0.00000000000E+00  0.00000000000E+00  0.93800000000E+00  0.93800000000E+00 0.  1.
         11    1    1    2    0    0  0.13996767394E+00 -0.13065790650E+00  0.17695187561E+01  0.17798481192E+01  0.51100000000E-03 0. -1.
    9000002    1    1    2    0    0 -0.68569359481E-01 -0.10299197804E+00  0.32551439276E-01  0.94668511174E+00  0.93800000000E+00 0.  1.
         22    1    1    2    0    0 -0.71398314456E-01  0.23364988454E+00  0.21979297720E+01  0.22114667690E+01  0.00000000000E+00 0. -1.
</event>
<event>
 5    1  0.4838219E+001  0.1512582E+01  0.7818608E-02  0.3454075E+00
         11   -1    0    0    0    0  0.00000000000E+00  0.00000000000E+00  0.39999999674E+01  0.40000000000E+01  0.51100000000E-03 0. -1.
    9000002   -1    0    0    0    0 -0.00000000000E+00 -0.00000000000E+00  0.00000000000E+00  0.93800000000E+00  0.93800000000E+00 0. -1.
         11    1    1    2    0    0  0.61152834363E-01  0.28210968975E+00  0.68240007502E+00  0.74094241997E+00  0.51100000000E-03 0. -1.
    9000002    1    1    2    0    0 -0.10044343792E+00 -0.70882123417E-01  0.76789484066E-01  0.94913317533E+00  0.93800000000E+00 0. -1.
         22    1    1    2    0    0  0.39290603555E-01 -0.21122756633E+00  0.32408104083E+01  0.32479244047E+01  0.00000000000E+00 0. -1.
</event>
<event>
 5    1  0.4838219E+001  0.1558914E+01  0.7818608E-02  0.3399201E+00
         11   -1    0    0    0    0  0.00000000000E+00  0.00000000000E+00  0.39999999674E+01  0.40000000000E+01  0.51100000000E-03 0.  1.
    9000002   -1    0    0    0    0 -0.00000000000E+00 -0.00000000000E+00  0.00000000000E+00  0.93800000000E+00  0.93800000000E+00 0.  1.
         11    1    1    2    0    0 -0.18820819041E+00  0.44042548391E-01  0.89772330638E+00  0.91829704614E+00  0.51100000000E-03 0.  1.
    9000002    1    1    2    0    0  0.21479328960E-04  0.15226365496E+00  0.46040780552E-01  0.95139265004E+00  0.93800000000E+00 0.  1.
         22    1    1    2    0    0  0.18818671108E+00 -0.19630620335E+00  0.30562358804E+01  0.30683103038E+01  0.00000000000E+00 0.  1.
</event>
<event>
 5    1  0.4838219E+001  0.1534790E+01  0.7818608E-02  0.3427330E+00
         11   -1    0    0    0    0  0.00000000000E+00  0.00000000000E+00  0.39999999674E+01  0.40000000000E+01  0.51100000000E-03 0. -1.
    9000002   -1    0    0    0    0 -0.00000000000E+00 -0.00000000000E+00  0.00000000000E+00  0.93800000000E+00  0.93800000000E+00 0.  1.
         11    1    1    2    0    0 -0.31976447583E+00  0.25948384584E-01  0.31517716232E+01  0.31680573329E+01  0.51100000000E-03 0. -1.
    9000002    1    1    2    0    0  0.91479426947E-01 -0.27066614459E-01  0.54915892459E-01  0.94443678582E+00  0.93800000000E+00 0.  1.
         22    1    1    2    0    0  0.22828504889E+00  0.11182298751E-02  0.79331245172E+00  0.82550588128E+00  0.00000000000E+00 0.  1.
</event>
<event>
 5    1  0.4838219E+001  0.1542264E+01  0.7818608E-02  0.3418515E+00
         11   -1    0    0    0    0  0.00000000000E+00  0.00000000000E+00  0.39999999674E+01  0.40000000000E+01  0.51100000000E-03 0.  1.
    9000002   -1    0    0    0    0 -0.00000000000E+00 -0.00000000000E+00  0.00000000000E+00  0.93800000000E+00  0.93800000000E+00 0.  1.
         11    1    1    2    0    0 -0.18847106408E+00 -0.83668545678E-01  0.63520522583E+00  0.66783808484E+00  0.51100000000E-03 0.  1.
    9000002    1    1    2    0    0 -0.68103764154E-01  0.49033126824E-01  0.47673514264E-01  0.94295234990E+00  0.93800000000E+00 0.  1.
         22    1    1    2    0    0  0.25657482824E+00  0.34635418854E-01  0.33171212273E+01  0.33272095653E+01  0.00000000000E+00 0.  1.
</event>
<event>
 5    1  0.4838219E+001  0.1565216E+01  0.7818608E-02  0.3392004E+00
         11   -1    0    0    0    0  0.00000000000E+00  0.00000000000E+00  0.39999999674E+01  0.40000000000E+01  0.51100000000E-03 0.  1.
    9000002   -1    0    0    0    0 -0.00000000000E+00 -0.00000000000E+00  0.00000000000E+00  0.93800000000E+00  0.93800000000E+00 0. -1.
         11    1    1    2    0    0 -0.18282904741E+00 -0.96834445080E-01  0.30184165220E+01  0.30254986253E+01  0.51100000000E-03 0.  1.
    9000002    1    1    2    0    0  0.46084780987E+00  0.72773912127E-01  0.17902685395E+00  0.10628129471E+01  0.93800000000E+00 0. -1.
         22    1    1    2    0    0 -0.27801876246E+00  0.24060532952E-01  0.80255659141E+00  0.84968842757E+00  0.00000000000E+00 0.  1.
</event>
<event>
 5    1  0.4838219E+001  0.1568665E+01  0.7818608E-02  0.3388092E+00
         11   -1    0    0    0    0  0.00000000000E+00  0.00000000000E+00  0.39999999674E+01  0.40000000000E+01  0.51100000000E-03 0. -1.
    9000002   -1    0    0    0    0 -0.00000000000E+00 -0.00000000000E+00  0.00000000000E+00  0.93800000000E+00  0.93800000000E+00 0. -1.
         11    1    1    2    0    0 -0.13699295701E+00  0.12627898161E+00  0.13852435214E+01  0.13977171839E+01  0.51100000000E-03 0. -1.
    9000002    1    1    2    0    0 -0.26545989351E-01  0.37374377075E-01  0.24216151368E-01  0.93943171950E+00  0.93800000000E+00 0. -1.
         22    1    1    2    0    0  0.16353894636E+00 -0.16365335869E+00  0.25905402946E+01  0.26008510966E+01  0.00000000000E+00 0. -1.
</event>
<event>
 5    1  0.4838219E+001  0.1470035E+01  0.7818608E-02  0.3507747E+00
         11   -1    0    0    0    0  0.00000000000E+00  0.00000000000E+00  0.39999999674E+01  0.40000000000E+01  0.51100000000E-03 0.  1.
    9000002   -1    0    0    0    0 -0.00000000000E+00 -0.00000000000E+00  0.00000000000E+00  0.93800000000E+00  0.93800000000E+00 0.  1.
         11    1    1    2    0    0  0.23626937421E+00 -0.26658828237E-01  0.35007201549E+01  0.35087855127E+01  0.51100000000E-03 0.  1.
    9000002    1    1    2    0    0  0.75016207446E-02  0.15950679993E+00  0.11977331235E+00  0.95900382684E+00  0.93800000000E+00 0.  1.
         22    1    1    2    0    0 -0.24377099496E+00 -0.13284797169E+00  0.37950650016E+00  0.47021066048E+00  0.00000000000E+00 0.  1.
</event>
<event>
 5    1  0.4838219E+001  0.1553883E+01  0.7818608E-02  0.3404990E+00
         11   -1    0    0    0    0  0.00000000000E+00  0.00000000000E+00  0.39999999674E+01  0.40000000000E+01  0.51100000000E-03 0. -1.
    9000002   -1    0    0    0    0 -0.00000000000E+00 -0.00000000000E+00  0.00000000000E+00  0.93800000000E+00  0.93800000000E+00 0. -1.
         11    1    1    2    0    0 -0.21321001501E+00  0.33782916469E+00  0.17006536532E+01  0.17469430913E+01  0.51100000000E-03 0. -1.
    9000002    1    1    2    0    0 -0.90224021899E-01 -0.66209392089E+00  0.36759572171E+00  0.12089166013E+01  0.93800000000E+00 0. -1.
         22    1    1    2    0    0  0.30343403691E+00  0.32426475621E+00  0.19317505925E+01  0.19821403075E+01  0.00000000000E+00 0. -1.
</event>
<event>
 5    1  0.4838219E+001  0.1520900E+01  0.7818608E-02  0.3443960E+00
         11   -1    0    0    0    0  0.00000000000E+00  0.00000000000E+00  0.39999999674E+01  0.40000000000E+01  0.51100000000E-03 0. -1.
    9000002   -1    0    0    0    0 -0.00000000000E+00 -0.00000000000E+00  0.00000000000E+00  0.93800000000E+00  0.93800000000E+00 0. -1.
         11    1    1    2    0    0  0.13024130893E+00 -0.18770907470E+00  0.62156483072E+00  0.66222397660E+00  0.51100000000E-03 0. -1.
    9000002    1    1    2    0    0  0.30629260660E-01 -0.13169054281E+00  0.72401553117E-01  0.95045596193E+00  0.93800000000E+00 0. -1.
         22    1    1    2    0    0 -0.16087056959E+00  0.31939961751E+00  0.33060335835E+01  0.33253200615E+01  0.00000000000E+00 0. -1.
</event>
<event>
 5    1  0.5152756E+001  0.1553369E+01  0.7818608E-02  0.3405584E+00
         11   -1    0    0    0    0  0.00000000000E+00  0.00000000000E+00  0.39999999674E+01  0.40000000000E+01  0.51100000000E-03 0. -1.
    9000002   -1    0    0    0    0 -0.00000000000E+00 -0.00000000000E+00  0.00000000000E+00  0.93800000000E+00  0.93800000000E+00 0.  1.
         11    1    1    2    0    0 -0.26780502559E+00  0.67989177427E-01  0.24647812146E+01  0.24802194978E+01  0.51100000000E-03 0. -1.
    9000002    1    1    2    0    0  0.55663511767E-01  0.40738437049E-01  0.37574387884E-01  0.94128310376E+00  0.93800000000E+00 0.  1.
         22    1    1    2    0    0  0.21214151382E+00 -0.10872761448E+00  0.14976443648E+01  0.15164973985E+01  0.00000000000E+00 0. -1.
</event>
<event>
 5    1  0.4838219E+001  0.1589365E+01  0.7818608E-02  0.3364988E+00
         11   -1    0    0    0    0  0.00000000000E+00  0.00000000000E+00  0.39999999674E+01  0.40000000000E+01  0.51100000000E-03 0.  1.
    9000002   -1    0    0    0    0 -0.00000000000E+00 -0.00000000000E+00  0.00000000000E+00  0.93800000000E+00  0.93800000000E+00 0. -1.
         11    1    1    2    0    0  0.17684624418E+00 -0.69792455051E-01  0.13505617707E+01  0.13638779046E+01  0.51100000000E-03 0.  1.
    9000002    1    1    2    0    0 -0.45185830551E+00 -0.12939743897E+00  0.15960922563E+00  0.10612439542E+01  0.93800000000E+00 0. -1.
         22    1    1    2    0    0  0.27501206133E+00  0.19918989402E+00  0.24898289710E+01  0.25128781412E+01  0.00000000000E+00 0.  1.
</event>
<event>
 5    1  0.4838219E+001  0.1550323E+01  0.7818608E-02  0.3409111E+00
         11   -1    0    0    0    0  0.00000000000E+00  0.00000000000E+00  0.39999999674E+01  0.40000000000E+01  0.51100000000E-03 0.  1.
    9000002   -1    0    0    0    0 -0.00000000000E+00 -0.00000000000E+00  0.00000000000E+00  0.93800000000E+00  0.93800000000E+00 0. -1.
         11    1    1    2    0    0  0.27562731976E+00  0.19855555141E+00  0.25733703241E+01  0.25956944760E+01  0.51100000000E-03 0.  1.
    9000002    1    1    2    0    0 -0.10539813113E+00 -0.76734983571E-01  0.48381826072E-01  0.94825198383E+00  0.93800000000E+00 0. -1.
         22    1    1    2    0    0 -0.17022918863E+00 -0.12182056784E+00  0.13782478172E+01  0.13940535402E+01  0.00000000000E+00 0. -1.
</event>
<event>
 5    1  0.4838219E+001  0.1472947E+01  0.7818608E-02  0.3503967E+00
         11   -1    0    0    0    0  0.00000000000E+00  0.00000000000E+00  0.39999999674E+01  0.40000000000E+01  0.51100000000E-03 0.  1.
    9000002   -1    0    0    0    0 -0.00000000000E+00 -0.00000000000E+00  0.00000000000E+00  0.93800000000E+00  0.93800000000E+00 0.  1.
         11    1    1    2    0    0 -0.27220630831E+00 -0.31452220855E+00  0.62480923669E+00  0.75060464782E+00  0.51100000000E-03 0.  1.
    9000002    1    1    2    0    0  0.16882987204E+00  0.79903737470E-01  0.16931934241E+00  0.97128840859E+00  0.93800000000E+00 0.  1.
         22    1    1    2    0    0  0.10337643627E+00  0.23461847108E+00  0.32058713883E+01  0.32161069436E+01  0.00000000000E+00 0.  1.
</event>
<event>
 5    1  0.4838219E+001  0.1580419E+01  0.7818608E-02  0.3374894E+00
         11   -1    0    0    0    0  0.00000000000E+00  0.00000000000E+00  0.39999999674E+01  0.40000000000E+01  0.51100000000E-03 0. -1.
    9000002   -1    0    0    0    0 -0.00000000000E+00 -0.00000000000E+00  0.00000000000E+00  0.93800000000E+00  0.93800000000E+00 0.  1.
         11    1    1    2    0    0  0.13675929616E-01  0.13087619035E+00  0.18948218414E+01  0.18993856059E+01  0.51100000000E-03 0. -1.
    9000002    1    1    2    0    0  0.22295439312E+00 -0.32234269706E-01  0.48362670476E-01  0.96588335603E+00  0.93800000000E+00 0.  1.
         22    1    1    2    0    0 -0.23663032273E+00 -0.98641920649E-01  0.20568154555E+01  0.20727310380E+01  0.00000000000E+00 0. -1.
</event>
<event>
 5    1  0.4838219E+001  0.1533350E+01  0.7818608E-02  0.3429039E+00
         11   -1    0    0    0    0  0.00000000000E+00  0.00000000000E+00  0.39999999674E+01  0.40000000000E+01  0.51100000000E-03 0.  1.
    9000002   -1    0    0    0    0 -0.00000000000E+00 -0.00000000000E+00  0.00000000000E+00  0.93800000000E+00  0.93800000000E+00 0.  1.
         11    1    1    2    0    0 -0.11651537501E-02 -0.36721774931E+00  0.26829612417E+01  0.27079755388E+01  0.51100000000E-03 0.  1.
    9000002    1    1    2    0    0  0.68109567294E-01  0.12014697318E+00  0.63084532624E-01  0.95020938039E+00  0.93800000000E+00 0.  1.
         22    1    1    2    0    0 -0.66944413544E-01  0.24707077613E+00  0.12539541931E+01  0.12798150809E+01  0.00000000000E+00 0. -1.
</event>
<event>
 5    1  0.4838219E+001  0.1591784E+01  0.7818608E-02  0.3362329E+00
         11   -1    0    0    0    0  0.00000000000E+00  0.00000000000E+00  0.39999999674E+01  0.40000000000E+01  0.51100000000E-03 0. -1.
    9000002   -1    0    0    0    0 -0.00000000000E+00 -0.00000000000E+00  0.00000000000E+00  0.93800000000E+00  0.93800000000E+00 0. -1.
         11    1    1    2    0    0  0.91983316335E-01  0.10944843123E+00  0.15256723222E+01  0.15323564160E+01  0.51100000000E-03 0. -1.
    9000002    1    1    2    0    0  0.29410303997E-01 -0.31482973032E+00  0.73061212973E-01  0.99255461609E+00  0.93800000000E+00 0. -1.
         22    1    1    2    0    0 -0.12139362033E+00  0.20538129908E+00  0.24012664322E+01  0.24130889680E+01  0.00000000000E+00 0. -1.
</event>
<event>
 5    1  0.4838219E+001  0.1532465E+01  0.7818608E-02  0.3430092E+00
         11   -1    0    0    0    0  0.00000000000E+00  0.00000000000E+00  0.39999999674E+01  0.40000000000E+01  0.51100000000E-03 0. -1.
    9000002   -1    0    0    0    0 -0.00000000000E+00 -0.00000000000E+00  0.00000000000E+00  0.93800000000E+00  0.93800000000E+00 0. -1.
         11    1    1    2    0    0 -0.22351049749E+00 -0.35502596022E+00  0.31899573920E+01  0.32174258032E+01  0.51100000000E-03 0. -1.
    9000002    1    1    2    0    0  0.13114599246E+00  0.17402853404E+00  0.84004785719E-01  0.96663643942E+00  0.93800000000E+00 0. -1.
         22    1    1    2    0    0  0.92364505036E-01  0.18099742618E+00  0.72603778961E+00  0.75393775739E+00  0.00000000000E+00 0.  1.
</event>
<event>
 5    1  0.4838219E+001  0.1524705E+01  0.7818608E-02  0.3439372E+00
         11   -1    0    0    0    0  0.00000000000E+00  0.00000000000E+00  0.39999999674E+01  0.40000000000E+01  0.51100000000E-03 0. -1.
    9000002   -1    0    0    0    0 -0.00000000000E+00 -0.00000000000E+00  0.00000000000E+00  0.93800000000E+00  0.93800000000E+00 0. -1.
         11    1    1    2    0    0  0.33991771215E+00  0.32003855098E-01  0.15374612482E+01  0.15749144893E+01  0.51100000000E-03 0. -1.
    9000002    1    1    2    0    0 -0.47263038751E-01 -0.45203438815E-01  0.59394523943E-01  0.94215118489E+00  0.93800000000E+00 0. -1.
         22    1    1    2    0    0 -0.29265467340E+00  0.13199583717E-01  0.24031441953E+01  0.24209343258E+01  0.00000000000E+00 0. -1.
</event>
<event>
 5    1  0.4838219E+001  0.1456959E+01  0.7818608E-02  0.3524925E+00
         11   -1    0    0    0    0  0.00000000000E+00  0.00000000000E+00  0.39999999674E+01  0.40000000000E+01  0.51100000000E-03 0.  1.
    9000002   -1    0    0    0    0 -0.00000000000E+00 -0.00000000000E+00  0.00000000000E+00  0.93800000000E+00  0.93800000000E+00 0. -1.
         11    1    1    2    0    0 -0.48325512585E-01  0.55371616916E+00  0.13699620635E+01  0.14784225606E+01  0.51100000000E-03 0.  1.
    9000002    1    1    2    0    0 -0.33805060157E-01 -0.32415234145E+00  0.19451131340E+00  0.10118775487E+01  0.93800000000E+00 0. -1.
         22    1    1    2    0    0  0.82130572742E-01 -0.22956382771E+00  0.24355265904E+01  0.24476998907E+01  0.00000000000E+00 0.  1.
</event>
<event>
 5    1  0.4838219E+001  0.1548237E+01  0.7818608E-02  0.3411536E+00
         11   -1    0    0    0    0  0.00000000000E+00  0.00000000000E+00  0.39999999674E+01  0.40000000000E+01  0.51100000000E-03 0.  1.
    9000002   -1    0    0    0    0 -0.00000000000E+00 -0.00000000000E+00  0.00000000000E+00  0.93800000000E+00  0.93800000000E+00 0.  1.
         11    1    1    2    0    0  0.18169619366E+00 -0.75071199600E-01  0.15892990079E+01  0.16014121235E+01  0.51100000000E-03 0.  1.
    9000002    1    1    2    0    0  0.13159933425E+00 -0.13313374526E+00  0.62596964661E-01  0.95854335264E+00  0.93800000000E+00 0.  1.
         22    1    1    2    0    0 -0.31329552791E+00  0.20820494486E+00  0.23481039948E+01  0.23780445239E+01  0.00000000000E+00 0.  1.
</event>
<event>
 5    1  0.4838219E+001  0.1506830E+01  0.7818608E-02  0.3461141E+00
         11   -1    0    0    0    0  0.00000000000E+00  0.00000000000E+00  0.39999999674E+01  0.40000000000E+01  0.51100000000E-03 0. -1.
    9000002   -1    0    0    0    0 -0.00000000000E+00 -0.00000000000E+00  0.00000000000E+00  0.93800000000E+00  0.93800000000E+00 0.  1.
         11    1    1    2    0    0 -0.30867377292E+00 -0.15810909525E+00  0.34493517089E+01  0.34667427734E+01  0.51100000000E-03 0. -1.
    9000002    1    1    2    0    0  0.85191907931E-01  0.10936474489E+00  0.84417823277E-01  0.95193942953E+00  0.93800000000E+00 0.  1.
         22    1    1    2    0    0  0.22348186499E+00  0.48744350357E-01  0.46623043523E+00  0.51931779712E+00  0.00000000000E+00 0.  1.
</event>
<event>
 5    1  0.4838219E+001  0.1576476E+01  0.7818608E-02  0.3379299E+00
         11   -1    0    0    0    0  0.00000000000E+00  0.00000000000E+00  0.39999999674E+01  0.40000000000E+01  0.51100000000E-03 0. -1.
    9000002   -1    0    0    0    0 -0.00000000000E+00 -0.00000000000E+00  0.00000000000E+00  0.93800000000E+00  0.93800000000E+00 0.  1.
         11    1    1    2    0    0  0.63331557626E-01 -0.15996069498E+00  0.14392974149E+01  0.14495432452E+01  0.51100000000E-03 0. -1.
    9000002    1    1    2    0    0  0.94673947539E-01  0.36661688171E-01  0.23932465053E-01  0.94378175369E+00  0.93800000000E+00 0.  1.
         22    1    1    2    0    0 -0.15800550517E+00  0.12329900681E+00  0.25367700875E+01  0.25446750011E+01  0.00000000000E+00 0. -1.
</event>
<event>
 5    1  0.4838219E+001  0.1593051E+01  0.7818608E-02  0.3360941E+00
         11   -1    0    0    0    0  0.00000000000E+00  0.00000000000E+00  0.39999999674E+01  0.40000000000E+01  0.51100000000E-03 0.  1.
    9000002   -1    0    0    0    0 -0.00000000000E+00 -0.00000000000E+00  0.00000000000E+00  0.93800000000E+00  0.93800000000E+00 0. -1.
         11    1    1    2    0    0  0.68809668911E-01 -0.26279017713E-01  0.11838783247E+01  0.11861675708E+01  0.51100000000E-03 0.  1.
    9000002    1    1    2    0    0  0.47929161511E-01  0.20054618440E+00  0.33150402973E-01  0.96096770280E+00  0.93800000000E+00 0. -1.
         22    1    1    2    0    0 -0.11673883042E+00 -0.17426716668E+00  0.27829712397E+01  0.27908647264E+01  0.00000000000E+00 0.  1.
</event>
<event>
 5    1  0.4838219E+001  0.1550175E+01  0.7818608E-02  0.3409283E+00
         11   -1    0    0    0    0  0.00000000000E+00  0.00000000000E+00  0.39999999674E+01  0.40000000000E+01  0.51100000000E-03 0.  1.
    9000002   -1    0    0    0    0 -0.00000000000E+00 -0.00000000000E+00  0.00000000000E+00  0.93800000000E+00  0.93800000000E+00 0.  1.
         11    1    1    2    0    0  0.62350028795E-01 -0.17166326987E+00  0.54749700161E+00  0.57715598603E+00  0.51100000000E-03 0.  1.
    9000002    1    1    2    0    0 -0.51302973117E-01 -0.46260559247E-01  0.40019412514E-01  0.94139130428E+00  0.93800000000E+00 0.  1.
         22    1    1    2    0    0 -0.11047055678E-01  0.21792382912E+00  0.34124835532E+01  0.34194527097E+01  0.00000000000E+00 0.  1.
</event>
<event>
 5    1  0.4838219E+001  0.1503235E+01  0.7818608E-02  0.3465586E+00
         11   -1    0    0    0    0  0.00000000000E+00  0.00000000000E+00  0.39999999674E+01  0.40000000000E+01  0.51100000000E-03 0.  1.
    9000002   -1    0    0    0    0 -0.00000000000E+00 -0.00000000000E+00  0.00000000000E+00  0.93800000000E+00  0.93800000000E+00 0.  1.
         11    1    1    2    0    0  0.59300878276E-01 -0.27074609416E+00  0.90531790242E+00  0.94679501859E+00  0.51100000000E-03 0.  1.
    9000002    1    1    2    0    0  0.99439368032E-02 -0.17033804770E+00  0.94593156240E-01  0.95807400423E+00  0.93800000000E+00 0.  1.
         22    1    1    2    0    0 -0.69244815079E-01  0.44108414186E+00  0.30000889087E+01  0.30331309772E+01  0.00000000000E+00 0.  1.
</event>
<event>
 5    1  0.4838219E+001  0.1550310E+01  0.7818608E-02  0.3409127E+00
         11   -1    0    0    0    0  0.00000000000E+00  0.00000000000E+00  0.39999999674E+01  0.40000000000E+01  0.51100000000E-03 0.  1.
    9000002   -1    0    0    0    0 -0.00000000000E+00 -0.00000000000E+00  0.00000000000E+00  0.93800000000E+00  0.93800000000E+00 0.  1.
         11    1    1    2    0    0 -0.11601185448E+00  0.16551253965E+00  0.23019194550E+01  0.23107761877E+01  0.51100000000E-03 0.  1.
    9000002    1    1    2    0    0 -0.53553854524E-01  0.92283874802E-01  0.44496775040E-01  0.94509697485E+00  0.93800000000E+00 0.  1.
         22    1    1    2    0    0  0.16956570900E+00 -0.25779641445E+00  0.16535837373E+01  0.16821268374E+01  0.00000000000E+00 0.  1.
</event>
<event>
 5    1  0.4838219E+001  0.1563213E+01  0.7818608E-02  0.3394285E+00
         11   -1    0    0    0    0  0.00000000000E+00  0.00000000000E+00  0.39999999674E+01  0.40000000000E+01  0.51100000000E-03 0.  1.
    9000002   -1    0    0    0    0 -0.00000000000E+00 -0.00000000000E+00  0.00000000000E+00  0.93800000000E+00  0.93800000000E+00 0.  1.
         11    1    1    2    0    0  0.10253613697E+00  0.19193602802E+00  0.13557921227E+01  0.13731444350E+01  0.51100000000E-03 0.  1.
    9000002    1    1    2    0    0  0.38887228310E-01 -0.21057086913E-01  0.28204462132E-01  0.93946533152E+00  0.93800000000E+00 0.  1.
         22    1    1    2    0    0 -0.14142336528E+00 -0.17087894110E+00  0.26160033825E+01  0.26253902335E+01  0.00000000000E+00 0.  1.
</event>
<event>
 5    1  0.4838219E+001  0.1524375E+01  0.7818608E-02  0.3439769E+00
         11   -1    0    0    0    0  0.00000000000E+00  0.00000000000E+00  0.39999999674E+01  0.40000000000E+01  0.51100000000E-03 0. -1.
    9000002   -1    0    0    0    0 -0.00000000000E+00 -0.00000000000E+00  0.00000000000E+00  0.93800000000E+00  0.93800000000E+00 0. -1.
         11    1    1    2    0    0 -0.26581505804E+00 -0.16211382499E+00  0.22551049207E+01  0.22764966510E+01  0.51100000000E-03 0. -1.
    9000002    1    1    2    0    0  0.39730606032E-03 -0.49738720226E-01  0.58372975954E-01  0.94112990733E+00  0.93800000000E+00 0. -1.
         22    1    1    2    0    0  0.26541775198E+00  0.21185254522E+00  0.16865220707E+01  0.17203734417E+01  0.00000000000E+00 0. -1.
</event>
<event>
 5    1  0.4838219E+001  0.1586311E+01  0.7818608E-02  0.3368357E+00
         11   -1    0    0    0    0  0.00000000000E+00  0.00000000000E+00  0.39999999674E+01  0.40000000000E+01  0.51100000000E-03 0. -1.
    9000002   -1    0    0    0    0 -0.00000000000E+00 -0.00000000000E+00  0.00000000000E+00  0.93800000000E+00  0.93800000000E+00 0.  1.
         11    1    1    2    0    0  0.30485050723E-01  0.15275519925E-01  0.22221725507E+01  0.22224342029E+01  0.51100000000E-03 0. -1.
    9000002    1    1    2    0    0  0.16380053253E+00  0.88244564271E-01  0.32935924331E-01  0.95684193715E+00  0.93800000000E+00 0.  1.
         22    1    1    2    0    0 -0.19428558326E+00 -0.10352008420E+00  0.17448914923E+01  0.17587238600E+01  0.00000000000E+00 0.  1.
</event>
<event>
 5    1  0.4838219E+001  0.1577542E+01  0.7818608E-02  0.3378106E+00
         11   -1    0    0    0    0  0.00000000000E+00  0.00000000000E+00  0.39999999674E+01  0.40000000000E+01  0.51100000000E-03 0. -1.
    9000002   -1    0    0    0    0 -0.00000000000E+00 -0.00000000000E+00  0.00000000000E+00  0.93800000000E+00  0.93800000000E+00 0.  1.
         11    1    1    2    0    0  0.98291597428E-01 -0.69485063533E-01  0.14703084167E+01  0.14752276142E+01  0.51100000000E-03 0. -1.
    9000002    1    1    2    0    0 -0.20005340544E+00 -0.27248958409E+00  0.94433328770E-01  0.10015156474E+01  0.93800000000E+00 0.  1.
         22    1    1    2    0    0  0.10176180802E+00  0.34197464762E+00  0.24352582218E+01  0.24612567384E+01  0.00000000000E+00 0. -1.
</event>
<event>
 5    1  0.4838219E+001  0.1588053E+01  0.7818608E-02  0.3366434E+00
         11   -1    0    0    0    0  0.00000000000E+00  0.00000000000E+00  0.39999999674E+01  0.40000000000E+01  0.51100000000E-03 0. -1.
    9000002   -1    0    0    0    0 -0.00000000000E+00 -0.00000000000E+00  0.00000000000E+00  0.93800000000E+00  0.93800000000E+00 0.  1.
         11    1    1    2    0    0  0.11275607526E+00 -0.28603429710E+00  0.16877790376E+01  0.17155546895E+01  0.51100000000E-03 0. -1.
    9000002    1    1    2    0    0 -0.34851796092E+00  0.36978766369E+00  0.18762571782E+00  0.10831690059E+01  0.93800000000E+00 0.  1.
         22    1    1    2    0    0  0.23576188566E+00 -0.83753366595E-01  0.21245952119E+01  0.21392763046E+01  0.00000000000E+00 0. -1.
</event>
<event>
 5    1  0.4838219E+001  0.1455770E+01  0.7818608E-02  0.3526503E+00
         11   -1    0    0    0    0  0.00000000000E+00  0.00000000000E+00  0.39999999674E+01  0.40000000000E+01  0.51100000000E-03 0.  1.
    9000002   -1    0    0    0    0 -0.00000000000E+00 -0.00000000000E+00  0.00000000000E+00  0.93800000000E+00  0.93800000000E+00 0.  1.
         11    1    1    2    0    0 -0.27035229522E+00  0.40014284636E+00  0.11020070791E+01  0.12031726910E+01  0.51100000000E-03 0.  1.
    9000002    1    1    2    0    0  0.10293592534E+00 -0.20267958522E+00  0.15246420229E+00  0.97712033648E+00  0.93800000000E+00 0.  1.
         22    1    1    2    0    0  0.16741636988E+00 -0.19746326114E+00  0.27455286860E+01  0.27577069725E+01  0.00000000000E+00 0.  1.
</event>
<event>
 5    1  0.4838219E+001  0.1577233E+01  0.7818608E-02  0.3378450E+00
         11   -1    0    0    0    0  0.00000000000E+00  0.00000000000E+00  0.39999999674E+01  0.40000000000E+01  0.51100000000E-03 0.  1.
    9000002   -1    0    0    0    0 -0.00000000000E+00 -0.00000000000E+00  0.00000000000E+00  0.93800000000E+00  0.93800000000E+00 0. -1.
         11    1    1    2    0    0 -0.15812520078E+00  0.14421632832E+00  0.20346692884E+01  0.20458937662E+01  0.51100000000E-03 0.  1.
    9000002    1    1    2    0    0  0.24302913285E+00  0.63851389929E-01  0.59309679878E-01  0.97288323942E+00  0.93800000000E+00 0. -1.
         22    1    1    2    0    0 -0.84903932071E-01 -0.20806771825E+00  0.19060209991E+01  0.19192229944E+01  0.00000000000E+00 0.  1.
</event>
<event>
 5    1  0.4838219E+001  0.1534655E+01  0.7818608E-02  0.3427490E+00
         11   -1    0    0    0    0  0.00000000000E+00  0.00000000000E+00  0.39999999674E+01  0.40000000000E+01  0.51100000000E-03 0.  1.
    9000002   -1    0    0    0    0 -0.00000000000E+00 -0.00000000000E+00  0.00000000000E+00  0.93800000000E+00  0.93800000000E+00 0.  1.
         11    1    1    2    0    0  0.24956587738E+00 -0.15825177897E+00  0.14172823548E+01  0.14477625106E+01  0.51100000000E-03 0.  1.
    9000002    1    1    2    0    0  0.24494448804E-01  0.46271495066E-01  0.50547217441E-01  0.94081881915E+00  0.93800000000E+00 0.  1.
         22    1    1    2    0    0 -0.27406032619E+00  0.11198028391E+00  0.25321703951E+01  0.25494186703E+01  0.00000000000E+00 0.  1.
</event>
<event>
 5    1  0.4838219E+001  0.1507034E+01  0.7818608E-02  0.3460888E+00
         11   -1    0    0    0    0  0.00000000000E+00  0.00000000000E+00  0.39999999674E+01  0.40000000000E+01  0.51100000000E-03 0.  1.
    9000002   -1    0    0    0    0 -0.00000000000E+00 -0.00000000000E+00  0.00000000000E+00  0.93800000000E+00  0.93800000000E+00 0.  1.
         11    1    1    2    0    0  0.54664395640E+00  0.36347024351E-02  0.22580741467E+01  0.23233019475E+01  0.51100000000E-03 0.  1.
    9000002    1    1    2    0    0 -0.41362805957E+00  0.32603461806E+00  0.28197303885E+00  0.11120879185E+01  0.93800000000E+00 0.  1.
         22    1    1    2    0    0 -0.13301589683E+00 -0.32966932050E+00  0.14599527819E+01  0.15026101340E+01  0.00000000000E+00 0.  1.
</event>
<event>
 5    1  0.4838219E+001  0.1575287E+01  0.7818608E-02  0.3380630E+00
         11   -1    0    0    0    0  0.00000000000E+00  0.00000000000E+00  0.39999999674E+01  0.40000000000E+01  0.51100000000E-03 0.  1.
    9000002   -1    0    0    0    0 -0.00000000000E+00 -0.00000000000E+00  0.00000000000E+00  0.93800000000E+00  0.93800000000E+00 0. -1.
         11    1    1    2    0    0 -0.85971066828E-01 -0.11618463726E+00  0.22307941905E+01  0.22354715108E+01  0.51100000000E-03 0.  1.
    9000002    1    1    2    0    0  0.58327037322E-01 -0.11153595027E+00  0.28565655651E-01  0.94683805805E+00  0.93800000000E+00 0. -1.
         22    1    1    2    0    0  0.27644029506E-01  0.22772058753E+00  0.17406401212E+01  0.17556904312E+01  0.00000000000E+00 0.  1.
</event>
<event>
 5    1  0.4838219E+001  0.1584604E+01  0.7818608E-02  0.3370245E+00
         11   -1    0    0    0    0  0.00000000000E+00  0.00000000000E+00  0.39999999674E+01  0.40000000000E+01  0.51100000000E-03 0.  1.
    9000002   -1    0    0    0    0 -0.00000000000E+00 -0.00000000000E+00  0.00000000000E+00  0.93800000000E+00  0.93800000000E+00 0.  1.
         11    1    1    2    0    0 -0.10951377728E-01  0.40839865073E-01  0.22315994490E+01  0.22320000424E+01  0.51100000000E-03 0.  1.
    9000002    1    1    2    0    0  0.11666230794E+00  0.16922008601E+00  0.39381125101E-01  0.96106212318E+00  0.93800000000E+00 0.  1.
         22    1    1    2    0    0 -0.10571093021E+00 -0.21005995108E+00  0.17290193932E+01  0.17449378344E+01  0.00000000000E+00 0. -1.
</event>
<event>
 5    1  0.4838219E+001  0.1521184E+01  0.7818608E-02  0.3443616E+00
         11   -1    0    0    0    0  0.00000000000E+00  0.00000000000E+00  0.39999999674E+01  0.40000000000E+01  0.51100000000E-03 0.  1.
    9000002   -1    0    0    0    0 -0.00000000000E+00 -0.00000000000E+00  0.00000000000E+00  0.93800000000E+00  0.93800000000E+00 0. -1.
         11    1    1    2    0    0  0.38580513854E-01  0.36025575177E+00  0.21604495552E+01  0.21906198219E+01  0.51100000000E-03 0.  1.
    9000002    1    1    2    0    0 -0.33019384792E+00 -0.10564548829E+00  0.14656703589E+00  0.10107001743E+01  0.93800000000E+00 0. -1.
         22    1    1    2    0    0  0.29161333407E+00 -0.25461026348E+00  0.16929833763E+01  0.17366800037E+01  0.00000000000E+00 0.  1.
</event>
<event>
 5    1  0.4838219E+001  0.1561742E+01  0.7818608E-02  0.3395964E+00
         11   -1    0    0    0    0  0.00000000000E+00  0.00000000000E+00  0.39999999674E+01  0.40000000000E+01  0.51100000000E-03 0. -1.
    9000002   -1    0    0    0    0 -0.00000000000E+00 -0.00000000000E+00  0.00000000000E+00  0.93800000000E+00  0.93800000000E+00 0.  1.
         11    1    1    2    0    0 -0.14650965241E+00  0.14074357305E+00  0.22971324228E+01  0.23060987534E+01  0.51100000000E-03 0. -1.
    9000002    1    1    2    0    0 -0.59267833965E-01  0.67426628651E-02  0.30406573379E-01  0.94038646276E+00  0.93800000000E+00 0.  1.
         22    1    1    2    0    0  0.20577748638E+00 -0.14748623592E+00  0.16724609712E+01  0.16915147838E+01  0.00000000000E+00 0. -1.
</event>
<event>
 5    1  0.4838219E+001  0.1572791E+01  0.7818608E-02  0.3383435E+00
         11   -1    0    0    0    0  0.00000000000E+00  0.00000000000E+00  0.39999999674E+01  0.40000000000E+01  0.51100000000E-03 0. -1.
    9000002   -1    0    0    0    0 -0.00000000000E+00 -0.00000000000E+00  0.00000000000E+00  0.93800000000E+00  0.93800000000E+00 0. -1.
         11    1    1    2    0    0  0.16494509434E+00 -0.85073165492E-01  0.18556543274E+01  0.18649122156E+01  0.51100000000E-03 0. -1.
    9000002    1    1    2    0    0  0.44562806063E-01  0.42580820652E-01  0.22285293740E-01  0.94028697975E+00  0.93800000000E+00 0. -1.
         22    1    1    2    0    0 -0.20950790041E+00  0.42492344840E-01  0.21220603462E+01  0.21328008047E+01  0.00000000000E+00 0. -1.
</event>
<event>
 5    1  0.4838219E+001  0.1548470E+01  0.7818608E-02  0.3411264E+00
         11   -1    0    0    0    0  0.00000000000E+00  0.00000000000E+00  0.39999999674E+01  0.40000000000E+01  0.51100000000E-03 0. -1.
    9000002   -1    0    0    0    0 -0.00000000000E+00 -0.00000000000E+00  0.00000000000E+00  0.93800000000E+00  0.93800000000E+00 0.  1.
         11    1    1    2    0    0  0.17632178939E+00 -0.43107597264E-01  0.28803388327E+01  0.28860526140E+01  0.51100000000E-03 0. -1.
    9000002    1    1    2    0    0  0.91048825318E-01  0.34481645578E-01  0.44588790565E-01  0.94409270346E+00  0.93800000000E+00 0.  1.
         22    1    1    2    0    0 -0.26737061471E+00  0.86259516854E-02  0.10750723441E+01  0.11078546825E+01  0.00000000000E+00 0.  1.
</event>
<event>
 5    1  0.4838219E+001  0.1544478E+01  0.7818608E-02  0.3415921E+00
         11   -1    0    0    0    0  0.00000000000E+00  0.00000000000E+00  0.39999999674E+01  0.40000000000E+01  0.51100000000E-03 0.  1.
    9000002   -1    0    0    0    0 -0.00000000000E+00 -0.00000000000E+00  0.00000000000E+00  0.93800000000E+00  0.93800000000E+00 0. -1.
         11    1    1    2    0    0  0.37470509262E-01  0.15963644758E+00  0.30573054395E+01  0.30616996336E+01  0.51100000000E-03 0.  1.
    9000002    1    1    2    0    0  0.67320010286E-02  0.96642793495E-01  0.47598550396E-01  0.94419000809E+00  0.93800000000E+00 0. -1.
         22    1    1    2    0    0 -0.44202510291E-01 -0.25627924108E+00  0.89509597745E+00  0.93211035836E+00  0.00000000000E+00 0. -1.
</event>
<event>
 5    1  0.4838219E+001  0.1578385E+01  0.7818608E-02  0.3377163E+00
         11   -1    0    0    0    0  0.00000000000E+00  0.00000000000E+00  0.39999999674E+01  0.40000000000E+01  0.51100000000E-03 0. -1.
    9000002   -1    0    0    0    0 -0.00000000000E+00 -0.00000000000E+00  0.00000000000E+00  0.93800000000E+00  0.93800000000E+00 0.  1.
         11    1    1    2    0    0 -0.79589342317E-01 -0.97648639371E-01  0.11907618662E+01  0.11974071168E+01  0.51100000000E-03 0. -1.
    9000002    1    1    2    0    0  0.10931666960E-02 -0.14130479864E+00  0.29027299705E-01  0.94902835851E+00  0.93800000000E+00 0.  1.
         22    1    1    2    0    0  0.78496175621E-01  0.23895343801E+00  0.27802108014E+01  0.27915645247E+01  0.00000000000E+00 0. -1.
</event>
<event>
 5    1  0.4838219E+001  0.1565444E+01  0.7818608E-02  0.3391746E+00
         11   -1    0    0    0    0  0.00000000000E+00  0.00000000000E+00  0.39999999674E+01  0.40000000000E+01  0.51100000000E-03 0. -1.
    9000002   -1    0    0    0    0 -0.00000000000E+00 -0.00000000000E+00  0.00000000000E+00  0.93800000000E+00  0.93800000000E+00 0. -1.
         11    1    1    2    0    0  0.18866288389E+00 -0.46453443666E-01  0.23100479711E+01  0.23182048003E+01  0.51100000000E-03 0. -1.
    9000002    1    1    2    0    0  0.53337642665E-01  0.81301629327E-01  0.31640957493E-01  0.94355710439E+00  0.93800000000E+00 0. -1.
         22    1    1    2    0    0 -0.24200052656E+00 -0.34848185660E-01  0.16583110388E+01  0.16762380953E+01  0.00000000000E+00 0. -1.
</event>
<event>
 5    1  0.4838219E+001  0.1389240E+01  0.7818608E-02  0.3624276E+00
         11   -1    0    0    0    0  0.00000000000E+00  0.00000000000E+00  0.39999999674E+01  0.40000000000E+01  0.51100000000E-03 0. -1.
    9000002   -1    0    0    0    0 -0.00000000000E+00 -0.00000000000E+00  0.00000000000E+00  0.93800000000E+00  0.93800000000E+00 0.  1.
         11    1    1    2    0    0 -0.60364847769E+00  0.28274165868E+00  0.11595922253E+01  0.13375308296E+01  0.51100000000E-03 0. -1.
    9000002    1    1    2    0    0  0.54346451046E+00  0.94103759059E-01  0.44625709623E+00  0.11760946337E+01  0.93800000000E+00 0.  1.
         22    1    1    2    0    0  0.60183967232E-01 -0.37684541774E+00  0.23941506458E+01  0.24243745366E+01  0.00000000000E+00 0.  1.
</event>
<event>
 5    1  0.4838219E+001  0.1536930E+01  0.7818608E-02  0.3424797E+00
         11   -1    0    0    0    0  0.00000000000E+00  0.00000000000E+00  0.39999999674E+01  0.40000000000E+01  0.51100000000E-03 0. -1.
    9000002   -1    0    0    0    0 -0.00000000000E+00 -0.00000000000E+00  0.00000000000E+00  0.93800000000E+00  0.93800000000E+00 0. -1.
         11    1    1    2    0    0 -0.44737458952E+00  0.23348823372E+00  0.69060234012E+00  0.85533188408E+00  0.51100000000E-03 0. -1.
    9000002    1    1    2    0    0  0.10395176194E-01 -0.32708144020E+00  0.29641454828E+00  0.10367236433E+01  0.93800000000E+00 0. -1.
         22    1    1    2    0    0  0.43697941333E+00  0.93593206485E-01  0.30129830790E+01  0.30459444726E+01  0.00000000000E+00 0. -1.
</event>
<event>
 5    1  0.4838219E+001  0.1559156E+01  0.7818608E-02  0.3398923E+00
         11   -1    0    0    0    0  0.00000000000E+00  0.00000000000E+00  0.39999999674E+01  0.40000000000E+01  0.51100000000E-03 0.  1.
    9000002   -1    0    0    0    0 -0.00000000000E+00 -0.00000000000E+00  0.00000000000E+00  0.93800000000E+00  0.93800000000E+00 0.  1.
         11    1    1    2    0    0 -0.23171843673E+00 -0.12520916059E+00  0.21839154429E+01  0.21997403689E+01  0.51100000000E-03 0.  1.
    9000002    1    1    2    0    0  0.46720917959E-01  0.33571849192E-03  0.31416007161E-01  0.93968820488E+00  0.93800000000E+00 0.  1.
         22    1    1    2    0    0  0.18499751878E+00  0.12487344210E+00  0.17846685173E+01  0.17985714262E+01  0.00000000000E+00 0.  1.
</event>
<event>
 5    1  0.9173013E+001  0.1562018E+01  0.7818608E-02  0.3395648E+00
         11   -1    0    0    0    0  0.00000000000E+00  0.00000000000E+00  0.39999999674E+01  0.40000000000E+01  0.51100000000E-03 0.  1.
    9000002   -1    0    0    0    0 -0.00000000000E+00 -0.00000000000E+00  0.00000000000E+00  0.93800000000E+00  0.93800000000E+00 0.  1.
         11    1    1    2    0    0 -0.18115784396E+00  0.72312984473E-02  0.78053409137E+00  0.80131403646E+00  0.51100000000E-03 0.  1.
    9000002    1    1    2    0    0 -0.22328767828E-01  0.43725075605E-01  0.29413888606E-01  0.93974445088E+00  0.93800000000E+00 0.  1.
         22    1    1    2    0    0  0.20348661178E+00 -0.50956374052E-01  0.31900519874E+01  0.31969415127E+01  0.00000000000E+00 0.  1.
</event>
<event>
 5    1  0.6251387E+001  0.1571259E+01  0.7818608E-02  0.3385161E+00
         11   -1    0    0    0    0  0.00000000000E+00  0.00000000000E+00  0.39999999674E+01  0.40000000000E+01  0.51100000000E-03 0. -1.
    9000002   -1    0    0    0    0 -0.00000000000E+00 -0.00000000000E+00  0.00000000000E+00  0.93800000000E+00  0.93800000000E+00 0. -1.
         11    1    1    2    0    0  0.17330506697E+00 -0.66683256684E-01  0.13074058992E+01  0.13205270726E+01  0.51100000000E-03 0. -1.
    9000002    1    1    2    0    0  0.19234769678E-01  0.85167618623E-02  0.21156546410E-01  0.93847435290E+00  0.93800000000E+00 0. -1.
         22    1    1    2    0    0 -0.19253983664E+00  0.58166494821E-01  0.26714375217E+01  0.26789985745E+01  0.00000000000E+00 0. -1.
</event>
