<event>
 5    1  0.2799727E-003  0.1046344E+03  0.7818608E-02  0.1551083E+00
         11   -1    0    0    0    0  0.00000000000E+00  0.00000000000E+00  0.10005845095E+04  0.10005845095E+04  0.51100000000E-03 0.  1.
          2   -1    0    0  501    0 -0.00000000000E+00 -0.00000000000E+00 -0.25255546684E+04  0.25255546684E+04  0.25500000000E-02 0. -1.
         11    1    1    2    0    0  0.10682395122E+03  0.16495961560E+02  0.39233858215E+03  0.40695581621E+03  0.51100000000E-03 0.  1.
         22    1    1    2    0    0 -0.10309271656E+03  0.18024959885E+02  0.59625986105E+03  0.60537494934E+03  0.00000000000E+00 0.  1.
          2    1    1    2  501    0 -0.37312346626E+01 -0.34520921445E+02 -0.25135686021E+04  0.25138084123E+04  0.25500000000E-02 0. -1.
<mgrwt>
<rscale>  0 0.34721983E+02</rscale>
<asrwt>0</asrwt>
<pdfrwt beam="1">  1       11 0.10000000E+01 0.10463441E+03</pdfrwt>
<pdfrwt beam="2">  1        2 0.38877397E+00 0.34721983E+02</pdfrwt>
<totfact> 0.64524344E+00</totfact>
</mgrwt>
</event>
<event>
 5    1  0.2799727E-003  0.2068699E+03  0.7818608E-02  0.1144069E+00
         11   -1    0    0    0    0  0.00000000000E+00  0.00000000000E+00  0.10004211686E+04  0.10004211686E+04  0.51100000000E-03 0. -1.
          2   -1    0    0  501    0 -0.00000000000E+00 -0.00000000000E+00 -0.68155303021E+03  0.68155303021E+03  0.25500000000E-02 0. -1.
         11    1    1    2    0    0  0.19563191144E+03 -0.16062682543E+02  0.79956952607E+03  0.82331116935E+03  0.51100000000E-03 0. -1.
         22    1    1    2    0    0 -0.36856740215E+02  0.15086979761E+03  0.13680969978E+03  0.20697103441E+03  0.00000000000E+00 0.  1.
          2    1    1    2  501    0 -0.15877517122E+03 -0.13480711507E+03 -0.61751108746E+03  0.65169199505E+03  0.25500000000E-02 0. -1.
<mgrwt>
<rscale>  0 0.20686987E+03</rscale>
<asrwt>0</asrwt>
<pdfrwt beam="1">  1       11 0.10000000E+01 0.15530652E+03</pdfrwt>
<pdfrwt beam="2">  1        2 0.10489847E+00 0.20686987E+03</pdfrwt>
<totfact> 0.54479110E+01</totfact>
</mgrwt>
</event>
<event>
 5    1  0.2799727E-003  0.1282571E+03  0.7818608E-02  0.1236393E+00
         11   -1    0    0    0    0  0.00000000000E+00  0.00000000000E+00  0.10001847209E+04  0.10001847209E+04  0.51100000000E-03 0. -1.
         -2   -1    0    0    0  501 -0.00000000000E+00 -0.00000000000E+00 -0.15941862557E+02  0.15941862761E+02  0.25500000000E-02 0.  1.
         11    1    1    2    0    0  0.53314731058E+02  0.91812338056E+02  0.43359793597E+03  0.44640691756E+03  0.51100000000E-03 0. -1.
         22    1    1    2    0    0  0.17362201777E+02  0.10264858565E+02  0.50129177803E+02  0.54034691071E+02  0.00000000000E+00 0.  1.
         -2    1    1    2    0  501 -0.70676932835E+02 -0.10207719662E+03  0.50051574460E+03  0.51568497507E+03  0.25500000000E-02 0.  1.
<mgrwt>
<rscale>  0 0.12415709E+03</rscale>
<asrwt>0</asrwt>
<pdfrwt beam="1">  1       11 0.10000000E+01 0.12825710E+03</pdfrwt>
<pdfrwt beam="2">  1       -2 0.24530472E-02 0.12415709E+03</pdfrwt>
<totfact> 0.41915024E+03</totfact>
</mgrwt>
</event>
<event>
 5    1  0.2799727E-003  0.1639353E+03  0.7818608E-02  0.1189356E+00
         11   -1    0    0    0    0  0.00000000000E+00  0.00000000000E+00  0.10001926527E+04  0.10001926527E+04  0.51100000000E-03 0.  1.
          2   -1    0    0  501    0 -0.00000000000E+00 -0.00000000000E+00 -0.29058020543E+02  0.29058020655E+02  0.25500000000E-02 0.  1.
         11    1    1    2    0    0 -0.14935243357E+02  0.11014130976E+02  0.10152891218E+03  0.10321091310E+03  0.51100000000E-03 0.  1.
         22    1    1    2    0    0 -0.38894841481E+02  0.13904025787E+03  0.55336645383E+03  0.57189110347E+03  0.00000000000E+00 0.  1.
          2    1    1    2  501    0  0.53830084838E+02 -0.15005438884E+03  0.31623926619E+03  0.35414865683E+03  0.25500000000E-02 0.  1.
<mgrwt>
<rscale>  0 0.15941768E+03</rscale>
<asrwt>0</asrwt>
<pdfrwt beam="1">  1       11 0.10000000E+01 0.16393533E+03</pdfrwt>
<pdfrwt beam="2">  1        2 0.44713258E-02 0.15941768E+03</pdfrwt>
<totfact> 0.21508113E+03</totfact>
</mgrwt>
</event>
<event>
 5    1  0.2799727E-003  0.3174842E+03  0.7818608E-02  0.1091077E+00
         11   -1    0    0    0    0  0.00000000000E+00  0.00000000000E+00  0.10002412644E+04  0.10002412644E+04  0.51100000000E-03 0. -1.
          2   -1    0    0  501    0 -0.00000000000E+00 -0.00000000000E+00 -0.11655144042E+03  0.11655144045E+03  0.25500000000E-02 0. -1.
         11    1    1    2    0    0 -0.76166176143E+02 -0.16756555819E+03  0.59692709743E+03  0.62466107797E+03  0.51100000000E-03 0. -1.
         22    1    1    2    0    0 -0.40138320468E+02 -0.96573027752E+02  0.11851525752E+03  0.15806106644E+03  0.00000000000E+00 0.  1.
          2    1    1    2  501    0  0.11630449661E+03  0.26413858595E+03  0.16824746905E+03  0.33407056046E+03  0.25500000000E-02 0. -1.
<mgrwt>
<rscale>  0 0.28861034E+03</rscale>
<asrwt>0</asrwt>
<pdfrwt beam="1">  1       11 0.10000000E+01 0.31748416E+03</pdfrwt>
<pdfrwt beam="2">  1        2 0.17935316E-01 0.28861034E+03</pdfrwt>
<totfact> 0.38978165E+02</totfact>
</mgrwt>
</event>
<event>
 5    1  0.2799727E-003  0.7600121E+02  0.7818608E-02  0.1618105E+00
         11   -1    0    0    0    0  0.00000000000E+00  0.00000000000E+00  0.10000448411E+04  0.10000448411E+04  0.51100000000E-03 0. -1.
          2   -1    0    0  501    0 -0.00000000000E+00 -0.00000000000E+00 -0.15487742243E+02  0.15487742452E+02  0.25500000000E-02 0. -1.
         11    1    1    2    0    0 -0.38332069263E+02 -0.66311910824E+02  0.10190637457E+03  0.12748147406E+03  0.51100000000E-03 0. -1.
         22    1    1    2    0    0  0.96832448244E+01 -0.40895905076E+01  0.26136347888E+02  0.28170883227E+02  0.00000000000E+00 0.  1.
          2    1    1    2  501    0  0.28648824439E+02  0.70401501331E+02  0.85651437639E+03  0.85988022625E+03  0.25500000000E-02 0. -1.
<mgrwt>
<rscale>  0 0.28264472E+02</rscale>
<asrwt>0</asrwt>
<pdfrwt beam="1">  1       11 0.10000000E+01 0.76001214E+02</pdfrwt>
<pdfrwt beam="2">  1        2 0.23828364E-02 0.28264472E+02</pdfrwt>
<totfact> 0.39802749E+03</totfact>
</mgrwt>
</event>
<event>
 5    1  0.2799727E-003  0.2152096E+02  0.7818608E-02  0.1874021E+00
         11   -1    0    0    0    0  0.00000000000E+00  0.00000000000E+00  0.99964981612E+03  0.99964981612E+03  0.51100000000E-03 0. -1.
         -2   -1    0    0    0  501 -0.00000000000E+00 -0.00000000000E+00 -0.14430079353E+01  0.14430101884E+01  0.25500000000E-02 0. -1.
         11    1    1    2    0    0  0.42661465133E+01 -0.15693533985E+02  0.80930400344E+02  0.82548269001E+02  0.51100000000E-03 0. -1.
         22    1    1    2    0    0 -0.76089667533E+01 -0.67739602290E+01  0.53028202979E+02  0.53997900176E+02  0.00000000000E+00 0. -1.
         -2    1    1    2    0  501  0.33428202400E+01  0.22467494214E+02  0.86424820486E+03  0.86454665713E+03  0.25500000000E-02 0. -1.
<mgrwt>
<rscale>  0 0.14806833E+02</rscale>
<asrwt>0</asrwt>
<pdfrwt beam="1">  1       11 0.10000000E+01 0.21520960E+02</pdfrwt>
<pdfrwt beam="2">  1       -2 0.22192365E-03 0.14806833E+02</pdfrwt>
<totfact> 0.72314612E+04</totfact>
</mgrwt>
</event>
<event>
 5    1  0.2799727E-003  0.1862109E+03  0.7818608E-02  0.1165120E+00
         11   -1    0    0    0    0  0.00000000000E+00  0.00000000000E+00  0.99994376289E+03  0.99994376289E+03  0.51100000000E-03 0. -1.
          2   -1    0    0  501    0 -0.00000000000E+00 -0.00000000000E+00 -0.73697900452E+02  0.73697900496E+02  0.25500000000E-02 0. -1.
         11    1    1    2    0    0 -0.12727345074E+03  0.10232693113E+03  0.77231124121E+03  0.78938836158E+03  0.51100000000E-03 0. -1.
         22    1    1    2    0    0 -0.22338854475E+02  0.27079002093E+01  0.86551186983E+02  0.89428547517E+02  0.00000000000E+00 0.  1.
          2    1    1    2  501    0  0.14961230522E+03 -0.10503483134E+03  0.67383434245E+02  0.19482475429E+03  0.25500000000E-02 0. -1.
<mgrwt>
<rscale>  0 0.18280087E+03</rscale>
<asrwt>0</asrwt>
<pdfrwt beam="1">  1       11 0.10000000E+01 0.18621087E+03</pdfrwt>
<pdfrwt beam="2">  1        2 0.11337501E-01 0.18280087E+03</pdfrwt>
<totfact> 0.66260033E+02</totfact>
</mgrwt>
</event>
<event>
 5    1  0.2799727E-003  0.1667163E+03  0.7818608E-02  0.1181316E+00
         11   -1    0    0    0    0  0.00000000000E+00  0.00000000000E+00  0.10002122885E+04  0.10002122885E+04  0.51100000000E-03 0. -1.
          2   -1    0    0  501    0 -0.00000000000E+00 -0.00000000000E+00 -0.42132269112E+02  0.42132269189E+02  0.25500000000E-02 0. -1.
         11    1    1    2    0    0  0.15491969769E+03 -0.20277609947E+02  0.32901120742E+03  0.36422475040E+03  0.51100000000E-03 0. -1.
         22    1    1    2    0    0  0.25644915299E+02  0.56404283106E+02  0.23692534153E+03  0.24489328756E+03  0.00000000000E+00 0. -1.
          2    1    1    2  501    0 -0.18056461299E+03 -0.36126673159E+02  0.39214347045E+03  0.43322651974E+03  0.25500000000E-02 0. -1.
<mgrwt>
<rscale>  0 0.16671625E+03</rscale>
<asrwt>0</asrwt>
<pdfrwt beam="1">  1       11 0.10000000E+01 0.61960510E+02</pdfrwt>
<pdfrwt beam="2">  1        2 0.64832634E-02 0.16671625E+03</pdfrwt>
<totfact> 0.13289564E+03</totfact>
</mgrwt>
</event>
<event>
 5    1  0.2799727E-003  0.4083890E+03  0.7818608E-02  0.1040913E+00
         11   -1    0    0    0    0  0.00000000000E+00  0.00000000000E+00  0.10001319065E+04  0.10001319065E+04  0.51100000000E-03 0. -1.
          2   -1    0    0  501    0 -0.00000000000E+00 -0.00000000000E+00 -0.30325629869E+03  0.30325629870E+03  0.25500000000E-02 0. -1.
         11    1    1    2    0    0 -0.18751166887E+03  0.32301314920E+03  0.12053096643E+03  0.39246125209E+03  0.51100000000E-03 0. -1.
         22    1    1    2    0    0 -0.20333325775E+03 -0.19631316977E+02  0.22620922138E+03  0.30479569247E+03  0.00000000000E+00 0.  1.
          2    1    1    2  501    0  0.39084492662E+03 -0.30338183222E+03  0.35013542002E+03  0.60613126066E+03  0.25500000000E-02 0. -1.
<mgrwt>
<rscale>  0 0.40838896E+03</rscale>
<asrwt>0</asrwt>
<pdfrwt beam="1">  1       11 0.10000000E+01 0.20427874E+03</pdfrwt>
<pdfrwt beam="2">  1        2 0.46660968E-01 0.40838896E+03</pdfrwt>
<totfact> 0.13413103E+02</totfact>
</mgrwt>
</event>
<event>
 5    1  0.2799727E-003  0.9426856E+02  0.7818608E-02  0.1604694E+00
         11   -1    0    0    0    0  0.00000000000E+00  0.00000000000E+00  0.10001497454E+04  0.10001497454E+04  0.51100000000E-03 0.  1.
          2   -1    0    0  501    0 -0.00000000000E+00 -0.00000000000E+00 -0.88201765135E+02  0.88201765172E+02  0.25500000000E-02 0. -1.
         11    1    1    2    0    0  0.69548311365E+02 -0.81978490455E+02  0.52585478883E+03  0.53673149661E+03  0.51100000000E-03 0.  1.
         22    1    1    2    0    0 -0.40946385247E+02  0.75128141237E+02  0.46218707083E+03  0.47004013926E+03  0.00000000000E+00 0.  1.
          2    1    1    2  501    0 -0.28601926118E+02  0.68503492176E+01 -0.76093879420E+02  0.81579874686E+02  0.25500000000E-02 0. -1.
<mgrwt>
<rscale>  0 0.29410839E+02</rscale>
<asrwt>0</asrwt>
<pdfrwt beam="1">  1       11 0.10000000E+01 0.94268560E+02</pdfrwt>
<pdfrwt beam="2">  1        2 0.13571534E-01 0.29410839E+02</pdfrwt>
<totfact> 0.48139567E+02</totfact>
</mgrwt>
</event>
<event>
 5    1  0.2799727E-003  0.4012335E+02  0.7818608E-02  0.1518715E+00
         11   -1    0    0    0    0  0.00000000000E+00  0.00000000000E+00  0.10001312190E+04  0.10001312190E+04  0.51100000000E-03 0. -1.
          2   -1    0    0  501    0 -0.00000000000E+00 -0.00000000000E+00 -0.31630768928E+01  0.31630779207E+01  0.25500000000E-02 0. -1.
         11    1    1    2    0    0  0.32762154311E+01  0.18384480089E+02  0.75575338578E+02  0.77848278703E+02  0.51100000000E-03 0. -1.
         22    1    1    2    0    0  0.13515360181E+02  0.16380393504E+02  0.69342491647E+02  0.72521468545E+02  0.00000000000E+00 0. -1.
          2    1    1    2  501    0 -0.16791575612E+02 -0.34764873593E+02  0.85205031188E+03  0.85292454967E+03  0.25500000000E-02 0. -1.
<mgrwt>
<rscale>  0 0.38607686E+02</rscale>
<asrwt>0</asrwt>
<pdfrwt beam="1">  1       11 0.10000000E+01 0.40123352E+02</pdfrwt>
<pdfrwt beam="2">  1        2 0.48669113E-03 0.38607686E+02</pdfrwt>
<totfact> 0.34355093E+04</totfact>
</mgrwt>
</event>
<event>
 5    1  0.2799727E-003  0.2863873E+03  0.7818608E-02  0.1092251E+00
         11   -1    0    0    0    0  0.00000000000E+00  0.00000000000E+00  0.99941225279E+03  0.99941225279E+03  0.51100000000E-03 0.  1.
          2   -1    0    0  501    0 -0.00000000000E+00 -0.00000000000E+00 -0.14127428770E+04  0.14127428770E+04  0.25500000000E-02 0.  1.
         11    1    1    2    0    0 -0.24031891396E+03  0.17501861199E+03  0.89678995557E+03  0.94478405965E+03  0.51100000000E-03 0.  1.
         22    1    1    2    0    0  0.22023889368E+02  0.10108673666E+02  0.61553617105E+02  0.66151982320E+02  0.00000000000E+00 0.  1.
          2    1    1    2  501    0  0.21829502459E+03 -0.18512728565E+03 -0.13716741968E+04  0.14012190878E+04  0.25500000000E-02 0.  1.
<mgrwt>
<rscale>  0 0.28638733E+03</rscale>
<asrwt>0</asrwt>
<pdfrwt beam="1">  1       11 0.10000000E+01 0.24232973E+02</pdfrwt>
<pdfrwt beam="2">  1        2 0.21721731E+00 0.28638733E+03</pdfrwt>
<totfact> 0.19013385E+01</totfact>
</mgrwt>
</event>
<event>
 5    1  0.2799727E-003  0.3359706E+03  0.7818608E-02  0.1069854E+00
         11   -1    0    0    0    0  0.00000000000E+00  0.00000000000E+00  0.10002211447E+04  0.10002211447E+04  0.51100000000E-03 0. -1.
          2   -1    0    0  501    0 -0.00000000000E+00 -0.00000000000E+00 -0.15821905675E+03  0.15821905677E+03  0.25500000000E-02 0. -1.
         11    1    1    2    0    0 -0.12776278481E+03  0.29338600431E+03  0.71846236172E+03  0.78650291920E+03  0.51100000000E-03 0. -1.
         22    1    1    2    0    0 -0.10605775987E+02  0.94128915678E+01  0.17536602599E+02  0.22552548474E+02  0.00000000000E+00 0. -1.
          2    1    1    2  501    0  0.13836856080E+03 -0.30279889588E+03  0.10600312360E+03  0.34938473376E+03  0.25500000000E-02 0. -1.
<mgrwt>
<rscale>  0 0.33291595E+03</rscale>
<asrwt>0</asrwt>
<pdfrwt beam="1">  1       11 0.10000000E+01 0.33597064E+03</pdfrwt>
<pdfrwt beam="2">  1        2 0.24346776E-01 0.33291595E+03</pdfrwt>
<totfact> 0.27515468E+02</totfact>
</mgrwt>
</event>
<event>
 5    1  0.2799727E-003  0.1752422E+03  0.7818608E-02  0.1172489E+00
         11   -1    0    0    0    0  0.00000000000E+00  0.00000000000E+00  0.10004254098E+04  0.10004254098E+04  0.51100000000E-03 0.  1.
          2   -1    0    0  501    0 -0.00000000000E+00 -0.00000000000E+00 -0.66377030554E+02  0.66377030603E+02  0.25500000000E-02 0.  1.
         11    1    1    2    0    0  0.53444280312E+02 -0.86309670277E+02  0.22531275398E+03  0.24712646032E+03  0.51100000000E-03 0.  1.
         22    1    1    2    0    0  0.96704241297E+02 -0.46472160665E+02  0.55972831503E+03  0.56991855440E+03  0.00000000000E+00 0.  1.
          2    1    1    2  501    0 -0.15014852161E+03  0.13278183094E+03  0.14900731020E+03  0.24975742565E+03  0.25500000000E-02 0.  1.
<mgrwt>
<rscale>  0 0.17524216E+03</rscale>
<asrwt>0</asrwt>
<pdfrwt beam="1">  1       11 0.10000000E+01 0.10151675E+03</pdfrwt>
<pdfrwt beam="2">  1        2 0.10216195E-01 0.17524216E+03</pdfrwt>
<totfact> 0.75127793E+02</totfact>
</mgrwt>
</event>
<event>
 5    1  0.2799727E-003  0.8892702E+02  0.7818608E-02  0.1313494E+00
         11   -1    0    0    0    0  0.00000000000E+00  0.00000000000E+00  0.10000039055E+04  0.10000039055E+04  0.51100000000E-03 0.  1.
          2   -1    0    0  501    0 -0.00000000000E+00 -0.00000000000E+00 -0.79209112039E+01  0.79209116143E+01  0.25500000000E-02 0.  1.
         11    1    1    2    0    0  0.52044502519E+02  0.16802305675E+02  0.24938387697E+03  0.25531013652E+03  0.51100000000E-03 0.  1.
         22    1    1    2    0    0  0.33259897635E+02 -0.81140451065E+01  0.15839629700E+03  0.16205383495E+03  0.00000000000E+00 0.  1.
          2    1    1    2  501    0 -0.85304400154E+02 -0.86882605688E+01  0.58430282033E+03  0.59056084564E+03  0.25500000000E-02 0.  1.
<mgrwt>
<rscale>  0 0.85745709E+02</rscale>
<asrwt>0</asrwt>
<pdfrwt beam="1">  1       11 0.10000000E+01 0.88927017E+02</pdfrwt>
<pdfrwt beam="2">  1        2 0.12186065E-02 0.85745709E+02</pdfrwt>
<totfact> 0.11549573E+04</totfact>
</mgrwt>
</event>
<event>
 5    1  0.2799727E-003  0.1975514E+03  0.7818608E-02  0.1155779E+00
         11   -1    0    0    0    0  0.00000000000E+00  0.00000000000E+00  0.10002047180E+04  0.10002047180E+04  0.51100000000E-03 0. -1.
          2   -1    0    0  501    0 -0.00000000000E+00 -0.00000000000E+00 -0.39206400135E+02  0.39206400218E+02  0.25500000000E-02 0. -1.
         11    1    1    2    0    0 -0.86607039744E+02  0.11596530786E+03  0.43801279258E+03  0.46130677258E+03  0.51100000000E-03 0. -1.
         22    1    1    2    0    0 -0.46741091476E+02  0.23566510576E+02  0.13420332796E+03  0.14405083577E+03  0.00000000000E+00 0. -1.
          2    1    1    2  501    0  0.13334813122E+03 -0.13953181844E+03  0.38878219729E+03  0.43405350983E+03  0.25500000000E-02 0. -1.
<mgrwt>
<rscale>  0 0.19300480E+03</rscale>
<asrwt>0</asrwt>
<pdfrwt beam="1">  1       11 0.10000000E+01 0.19755137E+03</pdfrwt>
<pdfrwt beam="2">  1        2 0.60329885E-02 0.19300480E+03</pdfrwt>
<totfact> 0.14734531E+03</totfact>
</mgrwt>
</event>
<event>
 5    1  0.2799727E-003  0.2248623E+03  0.7818608E-02  0.1133084E+00
         11   -1    0    0    0    0  0.00000000000E+00  0.00000000000E+00  0.10004464330E+04  0.10004464330E+04  0.51100000000E-03 0.  1.
          2   -1    0    0  501    0 -0.00000000000E+00 -0.00000000000E+00 -0.15030912002E+03  0.15030912004E+03  0.25500000000E-02 0.  1.
         11    1    1    2    0    0  0.51694792618E+02  0.19885364628E+03  0.85686674243E+03  0.88115591044E+03  0.51100000000E-03 0.  1.
         22    1    1    2    0    0  0.10745612974E+02  0.13220889846E+02  0.40143899766E+02  0.43609549584E+02  0.00000000000E+00 0.  1.
          2    1    1    2  501    0 -0.62440405592E+02 -0.21207453612E+03 -0.46873329255E+02  0.22599009298E+03  0.25500000000E-02 0.  1.
<mgrwt>
<rscale>  0 0.22107558E+03</rscale>
<asrwt>0</asrwt>
<pdfrwt beam="1">  1       11 0.10000000E+01 0.22486232E+03</pdfrwt>
<pdfrwt beam="2">  1        2 0.23134803E-01 0.22107558E+03</pdfrwt>
<totfact> 0.28897186E+02</totfact>
</mgrwt>
</event>
<event>
 5    1  0.2799727E-003  0.2078152E+03  0.7818608E-02  0.1149222E+00
         11   -1    0    0    0    0  0.00000000000E+00  0.00000000000E+00  0.10003985280E+04  0.10003985280E+04  0.51100000000E-03 0. -1.
          2   -1    0    0  501    0 -0.00000000000E+00 -0.00000000000E+00 -0.42202594515E+02  0.42202594592E+02  0.25500000000E-02 0. -1.
         11    1    1    2    0    0 -0.18584980771E+03  0.23875722172E+02  0.48605208204E+03  0.52091921408E+03  0.51100000000E-03 0. -1.
         22    1    1    2    0    0 -0.14531724152E+02 -0.14226734441E+02  0.59004736282E+02  0.62410975665E+02  0.00000000000E+00 0.  1.
          2    1    1    2  501    0  0.20038153187E+03 -0.96489877306E+01  0.41313911513E+03  0.45927093282E+03  0.25500000000E-02 0. -1.
<mgrwt>
<rscale>  0 0.20061371E+03</rscale>
<asrwt>0</asrwt>
<pdfrwt beam="1">  1       11 0.10000000E+01 0.20781524E+03</pdfrwt>
<pdfrwt beam="2">  1        2 0.64952942E-02 0.20061371E+03</pdfrwt>
<totfact> 0.13423796E+03</totfact>
</mgrwt>
</event>
<event>
 5    1  0.2799727E-003  0.4985555E+03  0.7818608E-02  0.1014840E+00
         11   -1    0    0    0    0  0.00000000000E+00  0.00000000000E+00  0.10002440189E+04  0.10002440189E+04  0.51100000000E-03 0. -1.
          2   -1    0    0  501    0 -0.00000000000E+00 -0.00000000000E+00 -0.24767524409E+03  0.24767524410E+03  0.25500000000E-02 0. -1.
         11    1    1    2    0    0 -0.45743668710E+03  0.94748153864E+02  0.33694440846E+03  0.57598356727E+03  0.51100000000E-03 0. -1.
         22    1    1    2    0    0 -0.26023175068E+02  0.15877099866E+02  0.13060620074E+02  0.33164253911E+02  0.00000000000E+00 0.  1.
          2    1    1    2  501    0  0.48345986217E+03 -0.11062525373E+03  0.40256374632E+03  0.63877144187E+03  0.25500000000E-02 0. -1.
<mgrwt>
<rscale>  0 0.49595502E+03</rscale>
<asrwt>0</asrwt>
<pdfrwt beam="1">  1       11 0.10000000E+01 0.49855546E+03</pdfrwt>
<pdfrwt beam="2">  1        2 0.38113181E-01 0.49595502E+03</pdfrwt>
<totfact> 0.16760384E+02</totfact>
</mgrwt>
</event>
<event>
 5    1  0.2799727E-003  0.3873293E+03  0.7818608E-02  0.1048258E+00
         11   -1    0    0    0    0  0.00000000000E+00  0.00000000000E+00  0.10004112054E+04  0.10004112054E+04  0.51100000000E-03 0.  1.
          2   -1    0    0  501    0 -0.00000000000E+00 -0.00000000000E+00 -0.31300290706E+03  0.31300290707E+03  0.25500000000E-02 0.  1.
         11    1    1    2    0    0 -0.74281163217E+02 -0.40000727308E+03  0.76544003115E+03  0.86684597883E+03  0.51100000000E-03 0.  1.
         22    1    1    2    0    0 -0.16416833386E+02  0.26893501537E+02  0.34221076430E+02  0.46517253954E+02  0.00000000000E+00 0.  1.
          2    1    1    2  501    0  0.90697996603E+02  0.37311377155E+03 -0.11225280928E+03  0.40005087964E+03  0.25500000000E-02 0.  1.
<mgrwt>
<rscale>  0 0.38732934E+03</rscale>
<asrwt>0</asrwt>
<pdfrwt beam="1">  1       11 0.10000000E+01 0.31508298E+02</pdfrwt>
<pdfrwt beam="2">  1        2 0.48174093E-01 0.38732934E+03</pdfrwt>
<totfact> 0.12953163E+02</totfact>
</mgrwt>
</event>
<event>
 5    1  0.2799727E-003  0.5488948E+02  0.7818608E-02  0.1454073E+00
         11   -1    0    0    0    0  0.00000000000E+00  0.00000000000E+00  0.10002050502E+04  0.10002050502E+04  0.51100000000E-03 0.  1.
          2   -1    0    0  501    0 -0.00000000000E+00 -0.00000000000E+00 -0.33741040838E+01  0.33741050474E+01  0.25500000000E-02 0.  1.
         11    1    1    2    0    0 -0.24247010816E+01  0.22759931620E+02  0.12737745351E+03  0.12941757734E+03  0.51100000000E-03 0.  1.
         22    1    1    2    0    0  0.24802984004E+02  0.20174909409E+02  0.16645211294E+03  0.16949489930E+03  0.00000000000E+00 0.  1.
          2    1    1    2  501    0 -0.22378282922E+02 -0.42934841029E+02  0.70300137971E+03  0.70466667865E+03  0.25500000000E-02 0.  1.
<mgrwt>
<rscale>  0 0.48416817E+02</rscale>
<asrwt>0</asrwt>
<pdfrwt beam="1">  1       11 0.10000000E+01 0.54889476E+02</pdfrwt>
<pdfrwt beam="2">  1        2 0.51919944E-03 0.48416817E+02</pdfrwt>
<totfact> 0.33128328E+04</totfact>
</mgrwt>
</event>
<event>
 5    1  0.2799727E-003  0.1080091E+03  0.7818608E-02  0.1277721E+00
         11   -1    0    0    0    0  0.00000000000E+00  0.00000000000E+00  0.10001406365E+04  0.10001406365E+04  0.51100000000E-03 0.  1.
         -2   -1    0    0    0  501 -0.00000000000E+00 -0.00000000000E+00 -0.12866818237E+02  0.12866818490E+02  0.25500000000E-02 0.  1.
         11    1    1    2    0    0  0.49481715488E+02 -0.41690782489E+02  0.13839499993E+03  0.15277348434E+03  0.51100000000E-03 0.  1.
         22    1    1    2    0    0  0.28624860803E+02 -0.22712805159E+02  0.17313129778E+03  0.17694547309E+03  0.00000000000E+00 0.  1.
         -2    1    1    2    0  501 -0.78106576291E+02  0.64403587648E+02  0.67574752055E+03  0.68328849756E+03  0.25500000000E-02 0.  1.
<mgrwt>
<rscale>  0 0.10123467E+03</rscale>
<asrwt>0</asrwt>
<pdfrwt beam="1">  1       11 0.10000000E+01 0.10800906E+03</pdfrwt>
<pdfrwt beam="2">  1       -2 0.19797889E-02 0.10123467E+03</pdfrwt>
<totfact> 0.55747969E+03</totfact>
</mgrwt>
</event>
<event>
 5    1  0.4131855E-003  0.2085336E+03  0.7818608E-02  0.1144852E+00
         11   -1    0    0    0    0  0.00000000000E+00  0.00000000000E+00  0.10014279658E+04  0.10014279658E+04  0.51100000000E-03 0.  1.
          2   -1    0    0  501    0 -0.00000000000E+00 -0.00000000000E+00 -0.12797704820E+04  0.12797704820E+04  0.25500000000E-02 0.  1.
         11    1    1    2    0    0  0.45262363435E+01  0.16668747467E+03  0.74283971323E+03  0.76132518714E+03  0.51100000000E-03 0.  1.
         22    1    1    2    0    0 -0.10601472820E+02  0.39125841482E+02  0.23928745571E+03  0.24269674320E+03  0.00000000000E+00 0. -1.
          2    1    1    2  501    0  0.60752364769E+01 -0.20581331615E+03 -0.12604696851E+04  0.12771765174E+04  0.25500000000E-02 0.  1.
<mgrwt>
<rscale>  0 0.20590296E+03</rscale>
<asrwt>0</asrwt>
<pdfrwt beam="1">  1       11 0.10000000E+01 0.20853360E+03</pdfrwt>
<pdfrwt beam="2">  1        2 0.19716891E+00 0.20590296E+03</pdfrwt>
<totfact> 0.22907941E+01</totfact>
</mgrwt>
</event>
<event>
 5    1  0.2799727E-003  0.2159255E+02  0.7818608E-02  0.1715395E+00
         11   -1    0    0    0    0  0.00000000000E+00  0.00000000000E+00  0.10002090984E+04  0.10002090984E+04  0.51100000000E-03 0. -1.
          2   -1    0    0  501    0 -0.00000000000E+00 -0.00000000000E+00 -0.22930649944E+01  0.22930664123E+01  0.25500000000E-02 0. -1.
         11    1    1    2    0    0 -0.87519560234E+01  0.12462212158E+02  0.56391600732E+02  0.58411609287E+02  0.51100000000E-03 0. -1.
         22    1    1    2    0    0  0.10949225683E+02  0.17739843744E+02  0.10671844328E+03  0.10873552196E+03  0.00000000000E+00 0. -1.
          2    1    1    2  501    0 -0.21972696599E+01 -0.30202055902E+02  0.83480598940E+03  0.83535503358E+03  0.25500000000E-02 0. -1.
<mgrwt>
<rscale>  0 0.21592545E+02</rscale>
<asrwt>0</asrwt>
<pdfrwt beam="1">  1       11 0.10000000E+01 0.15228385E+02</pdfrwt>
<pdfrwt beam="2">  1        2 0.35285309E-03 0.21592545E+02</pdfrwt>
<totfact> 0.45273390E+04</totfact>
</mgrwt>
</event>
<event>
 5    1  0.2799727E-003  0.1739294E+03  0.7818608E-02  0.1188017E+00
         11   -1    0    0    0    0  0.00000000000E+00  0.00000000000E+00  0.10000402671E+04  0.10000402671E+04  0.51100000000E-03 0. -1.
         -2   -1    0    0    0  501 -0.00000000000E+00 -0.00000000000E+00 -0.35822715740E+02  0.35822715831E+02  0.25500000000E-02 0.  1.
         11    1    1    2    0    0  0.94097775365E+02  0.76242780917E+02  0.14737252644E+03  0.19075118484E+03  0.51100000000E-03 0. -1.
         22    1    1    2    0    0  0.48172317529E+02 -0.17255712875E+01  0.10749758790E+03  0.11781036107E+03  0.00000000000E+00 0.  1.
         -2    1    1    2    0  501 -0.14227009289E+03 -0.74517209630E+02  0.70934743706E+03  0.72730143705E+03  0.25500000000E-02 0.  1.
<mgrwt>
<rscale>  0 0.16060384E+03</rscale>
<asrwt>0</asrwt>
<pdfrwt beam="1">  1       11 0.10000000E+01 0.17392945E+03</pdfrwt>
<pdfrwt beam="2">  1       -2 0.55114088E-02 0.16060384E+03</pdfrwt>
<totfact> 0.12935625E+03</totfact>
</mgrwt>
</event>
<event>
 5    1  0.2799727E-003  0.1350184E+03  0.7818608E-02  0.1351987E+00
         11   -1    0    0    0    0  0.00000000000E+00  0.00000000000E+00  0.10007772476E+04  0.10007772476E+04  0.51100000000E-03 0. -1.
          2   -1    0    0  501    0 -0.00000000000E+00 -0.00000000000E+00 -0.17871022278E+04  0.17871022278E+04  0.25500000000E-02 0. -1.
         11    1    1    2    0    0 -0.11549131381E+03 -0.36818547825E+02  0.43591674596E+03  0.45245691335E+03  0.51100000000E-03 0. -1.
         22    1    1    2    0    0  0.12041247306E+03  0.10909127628E+03  0.54397417844E+03  0.56772174262E+03  0.00000000000E+00 0. -1.
          2    1    1    2  501    0 -0.49211592486E+01 -0.72272728450E+02 -0.17662159046E+04  0.17677008194E+04  0.25500000000E-02 0. -1.
<mgrwt>
<rscale>  0 0.72440079E+02</rscale>
<asrwt>0</asrwt>
<pdfrwt beam="1">  1       11 0.10000000E+01 0.13501838E+03</pdfrwt>
<pdfrwt beam="2">  1        2 0.27515249E+00 0.72440079E+02</pdfrwt>
<totfact> 0.13618509E+01</totfact>
</mgrwt>
</event>
<event>
 5    1  0.2799727E-003  0.8815337E+02  0.7818608E-02  0.1310143E+00
         11   -1    0    0    0    0  0.00000000000E+00  0.00000000000E+00  0.10003353757E+04  0.10003353757E+04  0.51100000000E-03 0. -1.
          2   -1    0    0  501    0 -0.00000000000E+00 -0.00000000000E+00 -0.10456745315E+02  0.10456745626E+02  0.25500000000E-02 0. -1.
         11    1    1    2    0    0 -0.75840934963E+02  0.49478590073E+00  0.21725812842E+03  0.23011559399E+03  0.51100000000E-03 0. -1.
         22    1    1    2    0    0 -0.11214117567E+02 -0.24119071002E+00  0.19147227833E+02  0.22190785012E+02  0.00000000000E+00 0. -1.
          2    1    1    2  501    0  0.87055052531E+02 -0.25359519071E+00  0.75347327412E+03  0.75848574232E+03  0.25500000000E-02 0. -1.
<mgrwt>
<rscale>  0 0.87055422E+02</rscale>
<asrwt>0</asrwt>
<pdfrwt beam="1">  1       11 0.10000000E+01 0.88153369E+02</pdfrwt>
<pdfrwt beam="2">  1        2 0.16092696E-02 0.87055422E+02</pdfrwt>
<totfact> 0.79332029E+03</totfact>
</mgrwt>
</event>
<event>
 5    1  0.2799727E-003  0.5162281E+02  0.7818608E-02  0.1565441E+00
         11   -1    0    0    0    0  0.00000000000E+00  0.00000000000E+00  0.10001883060E+04  0.10001883060E+04  0.51100000000E-03 0. -1.
          2   -1    0    0  501    0 -0.00000000000E+00 -0.00000000000E+00 -0.31423873776E+02  0.31423873879E+02  0.25500000000E-02 0. -1.
         11    1    1    2    0    0 -0.10630739050E+02  0.33933679498E+02 -0.15571862127E+02  0.38819970471E+02  0.51100000000E-03 0. -1.
         22    1    1    2    0    0 -0.19539678089E+02  0.85248994826E+01  0.28771147470E+02  0.35808544480E+02  0.00000000000E+00 0. -1.
          2    1    1    2  501    0  0.30170417139E+02 -0.42458578980E+02  0.95556514691E+03  0.95698366496E+03  0.25500000000E-02 0. -1.
<mgrwt>
<rscale>  0 0.33173990E+02</rscale>
<asrwt>0</asrwt>
<pdfrwt beam="1">  1       11 0.10000000E+01 0.51622809E+02</pdfrwt>
<pdfrwt beam="2">  1        2 0.48353523E-02 0.33173990E+02</pdfrwt>
<totfact> 0.16609401E+03</totfact>
</mgrwt>
</event>
<event>
 5    1  0.2799727E-003  0.2691866E+03  0.7818608E-02  0.1107009E+00
         11   -1    0    0    0    0  0.00000000000E+00  0.00000000000E+00  0.10004633565E+04  0.10004633565E+04  0.51100000000E-03 0. -1.
          2   -1    0    0  501    0 -0.00000000000E+00 -0.00000000000E+00 -0.61809832896E+03  0.61809832896E+03  0.25500000000E-02 0. -1.
         11    1    1    2    0    0 -0.52114857340E+02 -0.83428989085E+02  0.27719908554E+03  0.29413549191E+03  0.51100000000E-03 0. -1.
         22    1    1    2    0    0 -0.24438505189E+02 -0.16527965348E+03  0.67639101017E+03  0.69672046261E+03  0.00000000000E+00 0. -1.
          2    1    1    2  501    0  0.76553362529E+02  0.24870864256E+03 -0.57122506815E+03  0.62770573096E+03  0.25500000000E-02 0. -1.
<mgrwt>
<rscale>  0 0.26022376E+03</rscale>
<asrwt>0</asrwt>
<pdfrwt beam="1">  1       11 0.10000000E+01 0.26918665E+03</pdfrwt>
<pdfrwt beam="2">  1        2 0.95136109E-01 0.26022376E+03</pdfrwt>
<totfact> 0.60798746E+01</totfact>
</mgrwt>
</event>
<event>
 5    1  0.2799727E-003  0.2215316E+03  0.7818608E-02  0.1132746E+00
         11   -1    0    0    0    0  0.00000000000E+00  0.00000000000E+00  0.10003025967E+04  0.10003025967E+04  0.51100000000E-03 0. -1.
          2   -1    0    0  501    0 -0.00000000000E+00 -0.00000000000E+00 -0.22859185325E+03  0.22859185326E+03  0.25500000000E-02 0. -1.
         11    1    1    2    0    0 -0.20199072392E+03  0.44189068139E+02  0.84115632818E+03  0.86619679908E+03  0.51100000000E-03 0. -1.
         22    1    1    2    0    0 -0.20596040631E+02 -0.35536883095E+02  0.83113473900E+02  0.92708772474E+02  0.00000000000E+00 0. -1.
          2    1    1    2  501    0  0.22258676455E+03 -0.86521850437E+01 -0.15255905867E+03  0.26998887838E+03  0.25500000000E-02 0. -1.
<mgrwt>
<rscale>  0 0.22153160E+03</rscale>
<asrwt>0</asrwt>
<pdfrwt beam="1">  1       11 0.10000000E+01 0.41073921E+02</pdfrwt>
<pdfrwt beam="2">  1        2 0.35178618E-01 0.22153160E+03</pdfrwt>
<totfact> 0.18187561E+02</totfact>
</mgrwt>
</event>
<event>
 5    1  0.2799727E-003  0.2358309E+03  0.7818608E-02  0.1138260E+00
         11   -1    0    0    0    0  0.00000000000E+00  0.00000000000E+00  0.10000906349E+04  0.10000906349E+04  0.51100000000E-03 0. -1.
         -2   -1    0    0    0  501 -0.00000000000E+00 -0.00000000000E+00 -0.11543003085E+03  0.11543003088E+03  0.25500000000E-02 0.  1.
         11    1    1    2    0    0  0.13166617557E+03  0.48125927436E+02  0.71819538644E+03  0.73174906886E+03  0.51100000000E-03 0. -1.
         22    1    1    2    0    0  0.62223000908E+02  0.42986147686E+02  0.15112657019E+03  0.16899334588E+03  0.00000000000E+00 0. -1.
         -2    1    1    2    0  501 -0.19388917648E+03 -0.91112075122E+02  0.15338647379E+02  0.21477825099E+03  0.25500000000E-02 0.  1.
<mgrwt>
<rscale>  0 0.21422984E+03</rscale>
<asrwt>0</asrwt>
<pdfrwt beam="1">  1       11 0.10000000E+01 0.23583094E+03</pdfrwt>
<pdfrwt beam="2">  1       -2 0.17760075E-01 0.21422984E+03</pdfrwt>
<totfact> 0.20516704E+02</totfact>
</mgrwt>
</event>
<event>
 5    1  0.2799727E-003  0.1465225E+03  0.7818608E-02  0.1212403E+00
         11   -1    0    0    0    0  0.00000000000E+00  0.00000000000E+00  0.10001189085E+04  0.10001189085E+04  0.51100000000E-03 0.  1.
          2   -1    0    0  501    0 -0.00000000000E+00 -0.00000000000E+00 -0.27739819661E+02  0.27739819778E+02  0.25500000000E-02 0.  1.
         11    1    1    2    0    0 -0.11377901862E+03 -0.27345551213E+02  0.62377420738E+03  0.63465558065E+03  0.51100000000E-03 0.  1.
         22    1    1    2    0    0 -0.17465161567E+02 -0.23337687072E+02  0.13007408987E+03  0.13330021892E+03  0.00000000000E+00 0.  1.
          2    1    1    2  501    0  0.13124418019E+03  0.50683238285E+02  0.21853079157E+03  0.25990292870E+03  0.25500000000E-02 0.  1.
<mgrwt>
<rscale>  0 0.14069053E+03</rscale>
<asrwt>0</asrwt>
<pdfrwt beam="1">  1       11 0.10000000E+01 0.14652254E+03</pdfrwt>
<pdfrwt beam="2">  1        2 0.42681719E-02 0.14069053E+03</pdfrwt>
<totfact> 0.22627109E+03</totfact>
</mgrwt>
</event>
<event>
 5    1  0.2799727E-003  0.1226876E+03  0.7818608E-02  0.1238728E+00
         11   -1    0    0    0    0  0.00000000000E+00  0.00000000000E+00  0.10001738067E+04  0.10001738067E+04  0.51100000000E-03 0.  1.
          2   -1    0    0  501    0 -0.00000000000E+00 -0.00000000000E+00 -0.35921229336E+02  0.35921229426E+02  0.25500000000E-02 0.  1.
         11    1    1    2    0    0  0.11055427233E+03 -0.31527914831E+02  0.60338622770E+03  0.61424034085E+03  0.51100000000E-03 0.  1.
         22    1    1    2    0    0  0.13788150083E+02  0.60269356548E+02  0.23351826805E+03  0.24156425633E+03  0.00000000000E+00 0. -1.
          2    1    1    2  501    0 -0.12434242242E+03 -0.28741441717E+02  0.12734808165E+03  0.18029043899E+03  0.25500000000E-02 0.  1.
<mgrwt>
<rscale>  0 0.12268763E+03</rscale>
<asrwt>0</asrwt>
<pdfrwt beam="1">  1       11 0.10000000E+01 0.61826438E+02</pdfrwt>
<pdfrwt beam="2">  1        2 0.55273033E-02 0.12268763E+03</pdfrwt>
<totfact> 0.15956318E+03</totfact>
</mgrwt>
</event>
<event>
 5    1  0.2799727E-003  0.1838330E+03  0.7818608E-02  0.1178053E+00
         11   -1    0    0    0    0  0.00000000000E+00  0.00000000000E+00  0.10001270089E+04  0.10001270089E+04  0.51100000000E-03 0.  1.
          2   -1    0    0  501    0 -0.00000000000E+00 -0.00000000000E+00 -0.55326621249E+02  0.55326621308E+02  0.25500000000E-02 0.  1.
         11    1    1    2    0    0  0.29353868124E+02 -0.37569833620E+02  0.27946410953E+03  0.28350190561E+03  0.51100000000E-03 0.  1.
         22    1    1    2    0    0  0.13366188709E+03 -0.99611969931E+01  0.55142097321E+03  0.56747670895E+03  0.00000000000E+00 0. -1.
          2    1    1    2  501    0 -0.16301575522E+03  0.47531030613E+02  0.11391530490E+03  0.20447501563E+03  0.25500000000E-02 0.  1.
<mgrwt>
<rscale>  0 0.16980381E+03</rscale>
<asrwt>0</asrwt>
<pdfrwt beam="1">  1       11 0.10000000E+01 0.18383303E+03</pdfrwt>
<pdfrwt beam="2">  1        2 0.85128687E-02 0.16980381E+03</pdfrwt>
<totfact> 0.94103675E+02</totfact>
</mgrwt>
</event>
<event>
 5    1  0.2799727E-003  0.6515820E+02  0.7818608E-02  0.1399679E+00
         11   -1    0    0    0    0  0.00000000000E+00  0.00000000000E+00  0.10002983244E+04  0.10002983244E+04  0.51100000000E-03 0. -1.
         -2   -1    0    0    0  501 -0.00000000000E+00 -0.00000000000E+00 -0.54902654356E+01  0.54902660278E+01  0.25500000000E-02 0.  1.
         11    1    1    2    0    0  0.29112803582E+01 -0.23553977614E+02  0.97214596888E+02  0.10006969203E+03  0.51100000000E-03 0. -1.
         22    1    1    2    0    0 -0.27620208328E+02 -0.30640999337E+02  0.14448117219E+03  0.15025496952E+03  0.00000000000E+00 0. -1.
         -2    1    1    2    0  501  0.24708927970E+02  0.54194976951E+02  0.75311228988E+03  0.75546392887E+03  0.25500000000E-02 0.  1.
<mgrwt>
<rscale>  0 0.59561956E+02</rscale>
<asrwt>0</asrwt>
<pdfrwt beam="1">  1       11 0.10000000E+01 0.65158203E+02</pdfrwt>
<pdfrwt beam="2">  1       -2 0.84490822E-03 0.59561956E+02</pdfrwt>
<totfact> 0.17123317E+04</totfact>
</mgrwt>
</event>
<event>
 5    1  0.2799727E-003  0.2506641E+03  0.7818608E-02  0.1112886E+00
         11   -1    0    0    0    0  0.00000000000E+00  0.00000000000E+00  0.10001820743E+04  0.10001820743E+04  0.51100000000E-03 0. -1.
         -2   -1    0    0    0  501 -0.00000000000E+00 -0.00000000000E+00 -0.15965849609E+03  0.15965849611E+03  0.25500000000E-02 0.  1.
         11    1    1    2    0    0  0.11772698867E+03  0.84870937017E+02  0.53100725416E+03  0.55048290054E+03  0.51100000000E-03 0. -1.
         22    1    1    2    0    0  0.19766506581E+03 -0.55877872764E+02  0.15262501038E+03  0.25590664059E+03  0.00000000000E+00 0.  1.
         -2    1    1    2    0  501 -0.31539205448E+03 -0.28993064252E+02  0.15689131370E+03  0.35345102931E+03  0.25500000000E-02 0.  1.
<mgrwt>
<rscale>  0 0.25066406E+03</rscale>
<asrwt>0</asrwt>
<pdfrwt beam="1">  1       11 0.10000000E+01 0.14513001E+03</pdfrwt>
<pdfrwt beam="2">  1       -2 0.24567317E-01 0.25066406E+03</pdfrwt>
<totfact> 0.11780703E+02</totfact>
</mgrwt>
</event>
<event>
 5    1  0.2799727E-003  0.3989466E+03  0.7818608E-02  0.1051048E+00
         11   -1    0    0    0    0  0.00000000000E+00  0.00000000000E+00  0.99966028081E+03  0.99966028081E+03  0.51100000000E-03 0. -1.
          2   -1    0    0  501    0 -0.00000000000E+00 -0.00000000000E+00 -0.31732059139E+03  0.31732059140E+03  0.25500000000E-02 0. -1.
         11    1    1    2    0    0  0.27645846292E+03  0.15621439604E+03  0.55498615261E+03  0.63940742007E+03  0.51100000000E-03 0. -1.
         22    1    1    2    0    0  0.48123643949E+02  0.40792416148E+02  0.26598621863E+03  0.27336527728E+03  0.00000000000E+00 0. -1.
          2    1    1    2  501    0 -0.32458210687E+03 -0.19700681219E+03 -0.13863268183E+03  0.40420817486E+03  0.25500000000E-02 0. -1.
<mgrwt>
<rscale>  0 0.37969096E+03</rscale>
<asrwt>0</asrwt>
<pdfrwt beam="1">  1       11 0.10000000E+01 0.39894657E+03</pdfrwt>
<pdfrwt beam="2">  1        2 0.48801967E-01 0.37969096E+03</pdfrwt>
<totfact> 0.12771346E+02</totfact>
</mgrwt>
</event>
<event>
 5    1  0.2799727E-003  0.2435203E+03  0.7818608E-02  0.1422227E+00
         11   -1    0    0    0    0  0.00000000000E+00  0.00000000000E+00  0.99969241778E+03  0.99969241778E+03  0.51100000000E-03 0.  1.
         -2   -1    0    0    0  501 -0.00000000000E+00 -0.00000000000E+00 -0.88625684798E+02  0.88625684835E+02  0.25500000000E-02 0. -1.
         11    1    1    2    0    0 -0.19661057745E+03 -0.13896803473E+03  0.72633598101E+03  0.76520049082E+03  0.51100000000E-03 0.  1.
         22    1    1    2    0    0 -0.10933487662E+02 -0.54591252025E+01  0.74986132256E+01  0.14337796230E+02  0.00000000000E+00 0.  1.
         -2    1    1    2    0  501  0.20754406511E+03  0.14442715993E+03  0.17723213875E+03  0.30877981557E+03  0.25500000000E-02 0. -1.
<mgrwt>
<rscale>  0 0.54552411E+02</rscale>
<asrwt>0</asrwt>
<pdfrwt beam="1">  1       11 0.10000000E+01 0.24352030E+03</pdfrwt>
<pdfrwt beam="2">  1       -2 0.13630527E-01 0.54552411E+02</pdfrwt>
<totfact> 0.29594085E+02</totfact>
</mgrwt>
</event>
<event>
 5    1  0.2799727E-003  0.2581306E+03  0.7818608E-02  0.1122172E+00
         11   -1    0    0    0    0  0.00000000000E+00  0.00000000000E+00  0.99944466253E+03  0.99944466253E+03  0.51100000000E-03 0. -1.
          2   -1    0    0  501    0 -0.00000000000E+00 -0.00000000000E+00 -0.14429281462E+04  0.14429281462E+04  0.25500000000E-02 0.  1.
         11    1    1    2    0    0  0.15937678210E+03 -0.55940656319E+02  0.80794918804E+03  0.82541638350E+03  0.51100000000E-03 0. -1.
         22    1    1    2    0    0  0.73430235624E+02  0.14523346380E+02  0.16486125901E+03  0.18105844862E+03  0.00000000000E+00 0. -1.
          2    1    1    2  501    0 -0.23280701773E+03  0.41417309939E+02 -0.14162939307E+04  0.14358979766E+04  0.25500000000E-02 0.  1.
<mgrwt>
<rscale>  0 0.23646247E+03</rscale>
<asrwt>0</asrwt>
<pdfrwt beam="1">  1       11 0.10000000E+01 0.25813063E+03</pdfrwt>
<pdfrwt beam="2">  1        2 0.22186566E+00 0.23646247E+03</pdfrwt>
<totfact> 0.18559947E+01</totfact>
</mgrwt>
</event>
<event>
 5    1  0.2799727E-003  0.3650648E+02  0.7818608E-02  0.1589147E+00
         11   -1    0    0    0    0  0.00000000000E+00  0.00000000000E+00  0.10001433296E+04  0.10001433296E+04  0.51100000000E-03 0. -1.
          2   -1    0    0  501    0 -0.00000000000E+00 -0.00000000000E+00 -0.48391402031E+01  0.48391408750E+01  0.25500000000E-02 0. -1.
         11    1    1    2    0    0  0.34975571297E+02 -0.25053971870E+02  0.14246091683E+03  0.14881567430E+03  0.51100000000E-03 0. -1.
         22    1    1    2    0    0  0.16646035579E+01  0.25974002456E+02  0.14109807486E+03  0.14347852257E+03  0.00000000000E+00 0.  1.
          2    1    1    2  501    0 -0.36640174855E+02 -0.92003058599E+00  0.71174519775E+03  0.71268827365E+03  0.25500000000E-02 0. -1.
<mgrwt>
<rscale>  0 0.30824734E+02</rscale>
<asrwt>0</asrwt>
<pdfrwt beam="1">  1       11 0.10000000E+01 0.36506481E+02</pdfrwt>
<pdfrwt beam="2">  1        2 0.74458985E-03 0.30824734E+02</pdfrwt>
<totfact> 0.18522989E+04</totfact>
</mgrwt>
</event>
<event>
 5    1  0.2799727E-003  0.8189468E+02  0.7818608E-02  0.1332151E+00
         11   -1    0    0    0    0  0.00000000000E+00  0.00000000000E+00  0.10001299264E+04  0.10001299264E+04  0.51100000000E-03 0.  1.
          2   -1    0    0  501    0 -0.00000000000E+00 -0.00000000000E+00 -0.65322622042E+01  0.65322627019E+01  0.25500000000E-02 0.  1.
         11    1    1    2    0    0 -0.70317165231E+02 -0.48770836072E+00  0.38511383888E+03  0.39148104741E+03  0.51100000000E-03 0.  1.
         22    1    1    2    0    0 -0.81225128712E+01 -0.81864433634E+01  0.69464152611E+02  0.70414924329E+02  0.00000000000E+00 0.  1.
          2    1    1    2  501    0  0.78439678102E+02  0.86741517241E+01  0.53901967271E+03  0.54476621736E+03  0.25500000000E-02 0.  1.
<mgrwt>
<rscale>  0 0.78917831E+02</rscale>
<asrwt>0</asrwt>
<pdfrwt beam="1">  1       11 0.10000000E+01 0.81894678E+02</pdfrwt>
<pdfrwt beam="2">  1        2 0.10050940E-02 0.78917831E+02</pdfrwt>
<totfact> 0.14821021E+04</totfact>
</mgrwt>
</event>
<event>
 5    1  0.2799727E-003  0.7829619E+02  0.7818608E-02  0.1449883E+00
         11   -1    0    0    0    0  0.00000000000E+00  0.00000000000E+00  0.99991411650E+03  0.99991411650E+03  0.51100000000E-03 0.  1.
         -2   -1    0    0    0  501 -0.00000000000E+00 -0.00000000000E+00 -0.12870632216E+02  0.12870632469E+02  0.25500000000E-02 0.  1.
         11    1    1    2    0    0  0.75544517418E+02  0.60656932618E+02  0.47127495942E+03  0.48113025779E+03  0.51100000000E-03 0.  1.
         22    1    1    2    0    0 -0.69688796421E+02 -0.11839159233E+02  0.39475475164E+03  0.40103367437E+03  0.00000000000E+00 0.  1.
         -2    1    1    2    0  501 -0.58557209971E+01 -0.48817773386E+02  0.12101377324E+03  0.13062081682E+03  0.25500000000E-02 0.  1.
<mgrwt>
<rscale>  0 0.49167718E+02</rscale>
<asrwt>0</asrwt>
<pdfrwt beam="1">  1       11 0.10000000E+01 0.78296190E+02</pdfrwt>
<pdfrwt beam="2">  1       -2 0.19799272E-02 0.49167718E+02</pdfrwt>
<totfact> 0.50246407E+03</totfact>
</mgrwt>
</event>
<event>
 5    1  0.2799727E-003  0.3856699E+02  0.7818608E-02  0.1525493E+00
         11   -1    0    0    0    0  0.00000000000E+00  0.00000000000E+00  0.10002278927E+04  0.10002278927E+04  0.51100000000E-03 0. -1.
         -2   -1    0    0    0  501 -0.00000000000E+00 -0.00000000000E+00 -0.30398041091E+01  0.30398051786E+01  0.25500000000E-02 0. -1.
         11    1    1    2    0    0 -0.79357581601E+01  0.26446095374E+02  0.11355000723E+03  0.11685878812E+03  0.51100000000E-03 0. -1.
         22    1    1    2    0    0 -0.27802902863E+01  0.97457658134E+01  0.25485504925E+02  0.27426646289E+02  0.00000000000E+00 0. -1.
         -2    1    1    2    0  501  0.10716048446E+02 -0.36191861187E+02  0.85815257647E+03  0.85898226351E+03  0.25500000000E-02 0. -1.
<mgrwt>
<rscale>  0 0.37744993E+02</rscale>
<asrwt>0</asrwt>
<pdfrwt beam="1">  1       11 0.10000000E+01 0.38566993E+02</pdfrwt>
<pdfrwt beam="2">  1       -2 0.46776882E-03 0.37744993E+02</pdfrwt>
<totfact> 0.35127176E+04</totfact>
</mgrwt>
</event>
<event>
 5    1  0.2799727E-003  0.1737786E+03  0.7818608E-02  0.1709234E+00
         11   -1    0    0    0    0  0.00000000000E+00  0.00000000000E+00  0.99999259258E+03  0.99999259258E+03  0.51100000000E-03 0.  1.
          2   -1    0    0  501    0 -0.00000000000E+00 -0.00000000000E+00 -0.62667143416E+03  0.62667143417E+03  0.25500000000E-02 0.  1.
         11    1    1    2    0    0  0.15054847783E+03 -0.50586946957E+02  0.14898649789E+03  0.21776331173E+03  0.51100000000E-03 0.  1.
         22    1    1    2    0    0 -0.16491780116E+03  0.67171047278E+02  0.80670092682E+03  0.82612118727E+03  0.00000000000E+00 0.  1.
          2    1    1    2  501    0  0.14369323334E+02 -0.16584100321E+02 -0.58236626629E+03  0.58277952774E+03  0.25500000000E-02 0.  1.
<mgrwt>
<rscale>  0 0.21943333E+02</rscale>
<asrwt>0</asrwt>
<pdfrwt beam="1">  1       11 0.10000000E+01 0.17377860E+03</pdfrwt>
<pdfrwt beam="2">  1        2 0.96410273E-01 0.21943333E+02</pdfrwt>
<totfact> 0.63489016E+01</totfact>
</mgrwt>
</event>
<event>
 5    1  0.2799727E-003  0.7834294E+02  0.7818608E-02  0.1333821E+00
         11   -1    0    0    0    0  0.00000000000E+00  0.00000000000E+00  0.10000827879E+04  0.10000827879E+04  0.51100000000E-03 0. -1.
          2   -1    0    0  501    0 -0.00000000000E+00 -0.00000000000E+00 -0.12475666286E+02  0.12475666547E+02  0.25500000000E-02 0. -1.
         11    1    1    2    0    0 -0.36463550724E+02 -0.67317587057E+02  0.14695121574E+03  0.16569824340E+03  0.51100000000E-03 0. -1.
         22    1    1    2    0    0 -0.11182970016E+02 -0.60633313087E+01  0.61123229662E+02  0.62432940098E+02  0.00000000000E+00 0. -1.
          2    1    1    2  501    0  0.47646520740E+02  0.73380918366E+02  0.77953267620E+03  0.78442727094E+03  0.25500000000E-02 0. -1.
<mgrwt>
<rscale>  0 0.78342940E+02</rscale>
<asrwt>0</asrwt>
<pdfrwt beam="1">  1       11 0.10000000E+01 0.12720959E+02</pdfrwt>
<pdfrwt beam="2">  1        2 0.19194921E-02 0.78342940E+02</pdfrwt>
<totfact> 0.61635164E+03</totfact>
</mgrwt>
</event>
<event>
 5    1  0.2799727E-003  0.1565492E+03  0.7818608E-02  0.1196768E+00
         11   -1    0    0    0    0  0.00000000000E+00  0.00000000000E+00  0.10003727195E+04  0.10003727195E+04  0.51100000000E-03 0. -1.
          2   -1    0    0  501    0 -0.00000000000E+00 -0.00000000000E+00 -0.24374705063E+02  0.24374705196E+02  0.25500000000E-02 0. -1.
         11    1    1    2    0    0 -0.50094129605E+02 -0.36623447504E+01  0.14458838175E+03  0.15306415233E+03  0.51100000000E-03 0. -1.
         22    1    1    2    0    0 -0.10119486192E+03  0.26849346341E+02  0.41606434784E+03  0.42903476436E+03  0.00000000000E+00 0. -1.
          2    1    1    2  501    0  0.15128899152E+03 -0.23187001591E+02  0.41534528481E+03  0.44264850799E+03  0.25500000000E-02 0. -1.
<mgrwt>
<rscale>  0 0.15305553E+03</rscale>
<asrwt>0</asrwt>
<pdfrwt beam="1">  1       11 0.10000000E+01 0.15654924E+03</pdfrwt>
<pdfrwt beam="2">  1        2 0.37513522E-02 0.15305553E+03</pdfrwt>
<totfact> 0.27056998E+03</totfact>
</mgrwt>
</event>
<event>
 5    1  0.2799727E-003  0.2222462E+03  0.7818608E-02  0.1269498E+00
         11   -1    0    0    0    0  0.00000000000E+00  0.00000000000E+00  0.10000720898E+04  0.10000720898E+04  0.51100000000E-03 0.  1.
          2   -1    0    0  501    0 -0.00000000000E+00 -0.00000000000E+00 -0.98765984759E+03  0.98765984760E+03  0.25500000000E-02 0.  1.
         11    1    1    2    0    0  0.17868682004E+03 -0.64371953882E+02 -0.76235574569E+01  0.19008115828E+03  0.51100000000E-03 0.  1.
         22    1    1    2    0    0 -0.15725840217E+03  0.16748501228E+03  0.89110183662E+03  0.92024122795E+03  0.00000000000E+00 0.  1.
          2    1    1    2  501    0 -0.21428417877E+02 -0.10311305840E+03 -0.87106603691E+03  0.87740955122E+03  0.25500000000E-02 0.  1.
<mgrwt>
<rscale>  0 0.10531610E+03</rscale>
<asrwt>0</asrwt>
<pdfrwt beam="1">  1       11 0.10000000E+01 0.22224618E+03</pdfrwt>
<pdfrwt beam="2">  1        2 0.15195862E+00 0.10531610E+03</pdfrwt>
<totfact> 0.34986159E+01</totfact>
</mgrwt>
</event>
<event>
 5    1  0.2799727E-003  0.2264692E+03  0.7818608E-02  0.1129150E+00
         11   -1    0    0    0    0  0.00000000000E+00  0.00000000000E+00  0.10013543865E+04  0.10013543865E+04  0.51100000000E-03 0. -1.
          2   -1    0    0  501    0 -0.00000000000E+00 -0.00000000000E+00 -0.16727694245E+04  0.16727694245E+04  0.25500000000E-02 0. -1.
         11    1    1    2    0    0 -0.11410220278E+03  0.89822679046E+02  0.84080776744E+03  0.85325560539E+03  0.51100000000E-03 0. -1.
         22    1    1    2    0    0 -0.59082086782E+01  0.10321405917E+03  0.12824584568E+03  0.16472718620E+03  0.00000000000E+00 0. -1.
          2    1    1    2  501    0  0.12001041146E+03 -0.19303673821E+03 -0.16404686511E+04  0.16561410195E+04  0.25500000000E-02 0. -1.
<mgrwt>
<rscale>  0 0.22646922E+03</rscale>
<asrwt>0</asrwt>
<pdfrwt beam="1">  1       11 0.10000000E+01 0.10338302E+03</pdfrwt>
<pdfrwt beam="2">  1        2 0.25769769E+00 0.22646922E+03</pdfrwt>
<totfact> 0.14015246E+01</totfact>
</mgrwt>
</event>
<event>
 5    1  0.3260941E-003  0.1986952E+03  0.7818608E-02  0.1152721E+00
         11   -1    0    0    0    0  0.00000000000E+00  0.00000000000E+00  0.10001738963E+04  0.10001738963E+04  0.51100000000E-03 0.  1.
          2   -1    0    0  501    0 -0.00000000000E+00 -0.00000000000E+00 -0.29209897887E+03  0.29209897888E+03  0.25500000000E-02 0.  1.
         11    1    1    2    0    0  0.16137127172E+03 -0.95476092345E+02  0.90827282556E+03  0.92742433503E+03  0.51100000000E-03 0.  1.
         22    1    1    2    0    0  0.42579418633E+01 -0.10266631896E+02  0.47435721298E+02  0.48720441854E+02  0.00000000000E+00 0.  1.
          2    1    1    2  501    0 -0.16562921359E+03  0.10574272424E+03 -0.24763362941E+03  0.31612809832E+03  0.25500000000E-02 0.  1.
<mgrwt>
<rscale>  0 0.19650588E+03</rscale>
<asrwt>0</asrwt>
<pdfrwt beam="1">  1       11 0.10000000E+01 0.19869524E+03</pdfrwt>
<pdfrwt beam="2">  1        2 0.44946118E-01 0.19650588E+03</pdfrwt>
<totfact> 0.13953074E+02</totfact>
</mgrwt>
</event>
<event>
 5    1  0.2799727E-003  0.5991098E+03  0.7818608E-02  0.9937522E-01
         11   -1    0    0    0    0  0.00000000000E+00  0.00000000000E+00  0.10012065709E+04  0.10012065709E+04  0.51100000000E-03 0. -1.
          2   -1    0    0  501    0 -0.00000000000E+00 -0.00000000000E+00 -0.15958489437E+04  0.15958489437E+04  0.25500000000E-02 0. -1.
         11    1    1    2    0    0  0.30657557552E+03 -0.26470985528E+03  0.67858787276E+03  0.79027931267E+03  0.51100000000E-03 0. -1.
         22    1    1    2    0    0  0.15448228184E+03 -0.94983357238E+02  0.17062590154E+03  0.24899761410E+03  0.00000000000E+00 0.  1.
          2    1    1    2  501    0 -0.46105785736E+03  0.35969321252E+03 -0.14438561471E+04  0.15577785878E+04  0.25500000000E-02 0. -1.
<mgrwt>
<rscale>  0 0.58476795E+03</rscale>
<asrwt>0</asrwt>
<pdfrwt beam="1">  1       11 0.10000000E+01 0.59910975E+03</pdfrwt>
<pdfrwt beam="2">  1        2 0.24581145E+00 0.58476795E+03</pdfrwt>
<totfact> 0.14306180E+01</totfact>
</mgrwt>
</event>
<event>
 5    1  0.2799727E-003  0.1128422E+03  0.7818608E-02  0.1258940E+00
         11   -1    0    0    0    0  0.00000000000E+00  0.00000000000E+00  0.10002175480E+04  0.10002175480E+04  0.51100000000E-03 0. -1.
          2   -1    0    0  501    0 -0.00000000000E+00 -0.00000000000E+00 -0.12518078348E+02  0.12518078608E+02  0.25500000000E-02 0. -1.
         11    1    1    2    0    0  0.13773537300E+02  0.24804560557E+02  0.10468817242E+03  0.10846469471E+03  0.51100000000E-03 0. -1.
         22    1    1    2    0    0  0.14017967214E+02  0.82541321612E+02  0.40572215842E+03  0.41427049498E+03  0.00000000000E+00 0. -1.
          2    1    1    2  501    0 -0.27791504514E+02 -0.10734588217E+03  0.47728913876E+03  0.49000043686E+03  0.25500000000E-02 0. -1.
<mgrwt>
<rscale>  0 0.11088510E+03</rscale>
<asrwt>0</asrwt>
<pdfrwt beam="1">  1       11 0.10000000E+01 0.11284225E+03</pdfrwt>
<pdfrwt beam="2">  1        2 0.19262771E-02 0.11088510E+03</pdfrwt>
<totfact> 0.64184837E+03</totfact>
</mgrwt>
</event>
<event>
 5    1  0.2799727E-003  0.1326631E+03  0.7818608E-02  0.1354266E+00
         11   -1    0    0    0    0  0.00000000000E+00  0.00000000000E+00  0.10000283150E+04  0.10000283150E+04  0.51100000000E-03 0. -1.
         -2   -1    0    0    0  501 -0.00000000000E+00 -0.00000000000E+00 -0.17549763741E+03  0.17549763743E+03  0.25500000000E-02 0.  1.
         11    1    1    2    0    0 -0.45214586500E+02  0.18040306643E+03  0.25575116072E+03  0.31622504869E+03  0.51100000000E-03 0. -1.
         22    1    1    2    0    0  0.57395686934E+02 -0.10970240937E+03  0.69940058899E+03  0.71027464222E+03  0.00000000000E+00 0. -1.
         -2    1    1    2    0  501 -0.12181100434E+02 -0.70700657059E+02 -0.13062107215E+03  0.14902626149E+03  0.25500000000E-02 0.  1.
<mgrwt>
<rscale>  0 0.71742331E+02</rscale>
<asrwt>0</asrwt>
<pdfrwt beam="1">  1       11 0.10000000E+01 0.13266312E+03</pdfrwt>
<pdfrwt beam="2">  1       -2 0.27000400E-01 0.71742331E+02</pdfrwt>
<totfact> 0.96818781E+01</totfact>
</mgrwt>
</event>
<event>
 5    1  0.2799727E-003  0.8158995E+02  0.7818608E-02  0.1352266E+00
         11   -1    0    0    0    0  0.00000000000E+00  0.00000000000E+00  0.99996425337E+03  0.99996425337E+03  0.51100000000E-03 0. -1.
          2   -1    0    0  501    0 -0.00000000000E+00 -0.00000000000E+00 -0.69591429180E+01  0.69591433852E+01  0.25500000000E-02 0. -1.
         11    1    1    2    0    0  0.26386624665E+02  0.39140827698E+02  0.17542660037E+03  0.18166659152E+03  0.51100000000E-03 0. -1.
         22    1    1    2    0    0  0.34051956545E+02  0.63718762964E+00  0.15264607943E+03  0.15639938401E+03  0.00000000000E+00 0. -1.
          2    1    1    2  501    0 -0.60438581211E+02 -0.39778015328E+02  0.66493243064E+03  0.66885742123E+03  0.25500000000E-02 0. -1.
<mgrwt>
<rscale>  0 0.72354078E+02</rscale>
<asrwt>0</asrwt>
<pdfrwt beam="1">  1       11 0.10000000E+01 0.81589954E+02</pdfrwt>
<pdfrwt beam="2">  1        2 0.10705991E-02 0.72354078E+02</pdfrwt>
<totfact> 0.13408792E+04</totfact>
</mgrwt>
</event>
<event>
 5    1  0.2799727E-003  0.8679779E+02  0.7818608E-02  0.1310797E+00
         11   -1    0    0    0    0  0.00000000000E+00  0.00000000000E+00  0.99979408137E+03  0.99979408137E+03  0.51100000000E-03 0. -1.
          2   -1    0    0  501    0 -0.00000000000E+00 -0.00000000000E+00 -0.88634697575E+02  0.88634697612E+02  0.25500000000E-02 0. -1.
         11    1    1    2    0    0  0.67400795527E+02  0.72259058938E+01  0.27518176830E+03  0.28340798605E+03  0.51100000000E-03 0. -1.
         22    1    1    2    0    0 -0.87065343757E+02 -0.90990203861E+02  0.69133361261E+03  0.70271029252E+03  0.00000000000E+00 0. -1.
          2    1    1    2  501    0  0.19664548231E+02  0.83764297967E+02 -0.55355997118E+02  0.10231050041E+03  0.25500000000E-02 0. -1.
<mgrwt>
<rscale>  0 0.86797788E+02</rscale>
<asrwt>0</asrwt>
<pdfrwt beam="1">  1       11 0.10000000E+01 0.67787026E+02</pdfrwt>
<pdfrwt beam="2">  1        2 0.13633299E-01 0.86797788E+02</pdfrwt>
<totfact> 0.51217943E+02</totfact>
</mgrwt>
</event>
<event>
 5    1  0.2799727E-003  0.1493772E+03  0.7818608E-02  0.1201240E+00
         11   -1    0    0    0    0  0.00000000000E+00  0.00000000000E+00  0.99992091343E+03  0.99992091343E+03  0.51100000000E-03 0. -1.
          2   -1    0    0  501    0 -0.00000000000E+00 -0.00000000000E+00 -0.47129105686E+02  0.47129105755E+02  0.25500000000E-02 0. -1.
         11    1    1    2    0    0 -0.15464945776E+03 -0.31840708597E+02  0.78983828828E+03  0.80546558408E+03  0.51100000000E-03 0. -1.
         22    1    1    2    0    0  0.13618323015E+02 -0.12910288898E+02  0.55875350634E+02  0.58942252160E+02  0.00000000000E+00 0.  1.
          2    1    1    2  501    0  0.14103113474E+03  0.44750997495E+02  0.10707816883E+03  0.18264218294E+03  0.25500000000E-02 0. -1.
<mgrwt>
<rscale>  0 0.14937716E+03</rscale>
<asrwt>0</asrwt>
<pdfrwt beam="1">  1       11 0.10000000E+01 0.18765241E+02</pdfrwt>
<pdfrwt beam="2">  1        2 0.72500580E-02 0.14937716E+03</pdfrwt>
<totfact> 0.11433949E+03</totfact>
</mgrwt>
</event>
<event>
 5    1  0.2799727E-003  0.3319415E+02  0.7818608E-02  0.1565248E+00
         11   -1    0    0    0    0  0.00000000000E+00  0.00000000000E+00  0.10001111690E+04  0.10001111691E+04  0.51100000000E-03 0. -1.
          2   -1    0    0  501    0 -0.00000000000E+00 -0.00000000000E+00 -0.48697490655E+01  0.48697497331E+01  0.25500000000E-02 0. -1.
         11    1    1    2    0    0 -0.18517189454E+01 -0.12553183225E+02  0.10526489831E+02  0.16486911795E+02  0.51100000000E-03 0. -1.
         22    1    1    2    0    0 -0.10290416936E+02 -0.29117514197E+02  0.18160768878E+03  0.18421475223E+03  0.00000000000E+00 0. -1.
          2    1    1    2  501    0  0.12142135882E+02  0.41670697421E+02  0.80310724137E+03  0.80427925476E+03  0.25500000000E-02 0. -1.
<mgrwt>
<rscale>  0 0.33194154E+02</rscale>
<asrwt>0</asrwt>
<pdfrwt beam="1">  1       11 0.10000000E+01 0.12689028E+02</pdfrwt>
<pdfrwt beam="2">  1        2 0.74927548E-03 0.33194154E+02</pdfrwt>
<totfact> 0.18672968E+04</totfact>
</mgrwt>
</event>
<event>
 5    1  0.2799727E-003  0.1339166E+03  0.7818608E-02  0.1221757E+00
         11   -1    0    0    0    0  0.00000000000E+00  0.00000000000E+00  0.10002474064E+04  0.10002474064E+04  0.51100000000E-03 0.  1.
          2   -1    0    0  501    0 -0.00000000000E+00 -0.00000000000E+00 -0.27084299554E+02  0.27084299674E+02  0.25500000000E-02 0.  1.
         11    1    1    2    0    0 -0.11907256730E+03 -0.43963691390E+02  0.63548939534E+03  0.64804155270E+03  0.51100000000E-03 0.  1.
         22    1    1    2    0    0 -0.13599928064E+00 -0.23490857825E+02  0.11873472826E+03  0.12103625321E+03  0.00000000000E+00 0.  1.
          2    1    1    2  501    0  0.11920856658E+03  0.67454549214E+02  0.21893898328E+03  0.25825390019E+03  0.25500000000E-02 0.  1.
<mgrwt>
<rscale>  0 0.13391656E+03</rscale>
<asrwt>0</asrwt>
<pdfrwt beam="1">  1       11 0.10000000E+01 0.23491252E+02</pdfrwt>
<pdfrwt beam="2">  1        2 0.41678461E-02 0.13391656E+03</pdfrwt>
<totfact> 0.23248305E+03</totfact>
</mgrwt>
</event>
<event>
 5    1  0.2799727E-003  0.1951647E+03  0.7818608E-02  0.1155118E+00
         11   -1    0    0    0    0  0.00000000000E+00  0.00000000000E+00  0.10000151365E+04  0.10000151365E+04  0.51100000000E-03 0. -1.
          2   -1    0    0  501    0 -0.00000000000E+00 -0.00000000000E+00 -0.42428780665E+02  0.42428780742E+02  0.25500000000E-02 0. -1.
         11    1    1    2    0    0  0.15600076265E+03 -0.92168230075E+02  0.58538102400E+03  0.61278231358E+03  0.51100000000E-03 0. -1.
         22    1    1    2    0    0  0.11095955653E+02 -0.59100592054E+01  0.66857706958E+02  0.68029420189E+02  0.00000000000E+00 0.  1.
          2    1    1    2  501    0 -0.16709671830E+03  0.98078289280E+02  0.30534762489E+03  0.36163218348E+03  0.25500000000E-02 0. -1.
<mgrwt>
<rscale>  0 0.19375413E+03</rscale>
<asrwt>0</asrwt>
<pdfrwt beam="1">  1       11 0.10000000E+01 0.19516469E+03</pdfrwt>
<pdfrwt beam="2">  1        2 0.65276033E-02 0.19375413E+03</pdfrwt>
<totfact> 0.13307871E+03</totfact>
</mgrwt>
</event>
<event>
 5    1  0.2799727E-003  0.1910698E+03  0.7818608E-02  0.1618472E+00
         11   -1    0    0    0    0  0.00000000000E+00  0.00000000000E+00  0.99968420718E+03  0.99968420718E+03  0.51100000000E-03 0.  1.
          2   -1    0    0  501    0 -0.00000000000E+00 -0.00000000000E+00 -0.33980949662E+03  0.33980949662E+03  0.25500000000E-02 0.  1.
         11    1    1    2    0    0  0.16685884629E+03 -0.54986576496E+01  0.47402581126E+02  0.17354859411E+03  0.51100000000E-03 0.  1.
         22    1    1    2    0    0 -0.19502837799E+03  0.74054987621E+01  0.87774121539E+03  0.89917770814E+03  0.00000000000E+00 0.  1.
          2    1    1    2  501    0  0.28169531702E+02 -0.19068411124E+01 -0.26526908595E+03  0.26676740155E+03  0.25500000000E-02 0.  1.
<mgrwt>
<rscale>  0 0.28233997E+02</rscale>
<asrwt>0</asrwt>
<pdfrwt beam="1">  1       11 0.10000000E+01 0.19106975E+03</pdfrwt>
<pdfrwt beam="2">  1        2 0.52261873E-01 0.28233997E+02</pdfrwt>
<totfact> 0.11777402E+02</totfact>
</mgrwt>
</event>
<event>
 5    1  0.2799727E-003  0.1311475E+03  0.7818608E-02  0.1225763E+00
         11   -1    0    0    0    0  0.00000000000E+00  0.00000000000E+00  0.99977362455E+03  0.99977362455E+03  0.51100000000E-03 0. -1.
          2   -1    0    0  501    0 -0.00000000000E+00 -0.00000000000E+00 -0.14386326588E+03  0.14386326591E+03  0.25500000000E-02 0. -1.
         11    1    1    2    0    0  0.49692682128E+02 -0.87071330582E+02  0.41275294386E+03  0.42475377801E+03  0.51100000000E-03 0. -1.
         22    1    1    2    0    0 -0.14302503216E+03 -0.71286512438E+01  0.53742979065E+03  0.55618140689E+03  0.00000000000E+00 0. -1.
          2    1    1    2  501    0  0.93332350031E+02  0.94199981825E+02 -0.94272375843E+02  0.16270170556E+03  0.25500000000E-02 0. -1.
<mgrwt>
<rscale>  0 0.13114746E+03</rscale>
<asrwt>0</asrwt>
<pdfrwt beam="1">  1       11 0.10000000E+01 0.10025357E+03</pdfrwt>
<pdfrwt beam="2">  1        2 0.22127799E-01 0.13114746E+03</pdfrwt>
<totfact> 0.29958740E+02</totfact>
</mgrwt>
</event>
<event>
 5    1  0.2799727E-003  0.1240575E+03  0.7818608E-02  0.1236550E+00
         11   -1    0    0    0    0  0.00000000000E+00  0.00000000000E+00  0.10008755520E+04  0.10008755520E+04  0.51100000000E-03 0. -1.
          2   -1    0    0  501    0 -0.00000000000E+00 -0.00000000000E+00 -0.12171747872E+04  0.12171747872E+04  0.25500000000E-02 0.  1.
         11    1    1    2    0    0  0.42395578960E+02  0.79393801505E+02  0.16654260860E+03  0.18930716128E+03  0.51100000000E-03 0. -1.
         22    1    1    2    0    0 -0.15208357949E+03 -0.21443122797E+02  0.81254661141E+03  0.82693483321E+03  0.00000000000E+00 0. -1.
          2    1    1    2  501    0  0.10968800053E+03 -0.57950678708E+02 -0.11953884552E+04  0.12018083447E+04  0.25500000000E-02 0.  1.
<mgrwt>
<rscale>  0 0.12405747E+03</rscale>
<asrwt>0</asrwt>
<pdfrwt beam="1">  1       11 0.10000000E+01 0.90004227E+02</pdfrwt>
<pdfrwt beam="2">  1        2 0.18742161E+00 0.12405747E+03</pdfrwt>
<totfact> 0.25634796E+01</totfact>
</mgrwt>
</event>
<event>
 5    1  0.2799727E-003  0.1460742E+03  0.7818608E-02  0.1205382E+00
         11   -1    0    0    0    0  0.00000000000E+00  0.00000000000E+00  0.10003298319E+04  0.10003298319E+04  0.51100000000E-03 0. -1.
          2   -1    0    0  501    0 -0.00000000000E+00 -0.00000000000E+00 -0.43248606414E+02  0.43248606490E+02  0.25500000000E-02 0. -1.
         11    1    1    2    0    0 -0.87746867687E+01 -0.50477098021E+01  0.18494328519E+02  0.21083517016E+02  0.51100000000E-03 0. -1.
         22    1    1    2    0    0 -0.13900327279E+03  0.41272211170E+02  0.11526870062E+03  0.18523546800E+03  0.00000000000E+00 0. -1.
          2    1    1    2  501    0  0.14777795956E+03 -0.36224501367E+02  0.82331819633E+03  0.83725945336E+03  0.25500000000E-02 0. -1.
<mgrwt>
<rscale>  0 0.14607418E+03</rscale>
<asrwt>0</asrwt>
<pdfrwt beam="1">  1       11 0.10000000E+01 0.10122974E+02</pdfrwt>
<pdfrwt beam="2">  1        2 0.66558262E-02 0.14607418E+03</pdfrwt>
<totfact> 0.12731449E+03</totfact>
</mgrwt>
</event>
<event>
 5    1  0.2799727E-003  0.1350525E+03  0.7818608E-02  0.1229615E+00
         11   -1    0    0    0    0  0.00000000000E+00  0.00000000000E+00  0.10005382983E+04  0.10005382983E+04  0.51100000000E-03 0. -1.
         -2   -1    0    0    0  501 -0.00000000000E+00 -0.00000000000E+00 -0.18947611409E+02  0.18947611581E+02  0.25500000000E-02 0. -1.
         11    1    1    2    0    0  0.25657918636E+02  0.10520394847E+03  0.57667004893E+03  0.58674913285E+03  0.51100000000E-03 0. -1.
         22    1    1    2    0    0  0.17921367406E+02  0.15739415960E+02  0.72586100579E+02  0.76404493465E+02  0.00000000000E+00 0.  1.
         -2    1    1    2    0  501 -0.43579286042E+02 -0.12094336443E+03  0.33233453740E+03  0.35633228358E+03  0.25500000000E-02 0. -1.
<mgrwt>
<rscale>  0 0.12855525E+03</rscale>
<asrwt>0</asrwt>
<pdfrwt beam="1">  1       11 0.10000000E+01 0.13505252E+03</pdfrwt>
<pdfrwt beam="2">  1       -2 0.29165862E-02 0.12855525E+03</pdfrwt>
<totfact> 0.32676601E+03</totfact>
</mgrwt>
</event>
<event>
 5    1  0.2799727E-003  0.6320464E+02  0.7818608E-02  0.1390637E+00
         11   -1    0    0    0    0  0.00000000000E+00  0.00000000000E+00  0.10002390449E+04  0.10002390449E+04  0.51100000000E-03 0. -1.
          2   -1    0    0  501    0 -0.00000000000E+00 -0.00000000000E+00 -0.42981730322E+01  0.42981737887E+01  0.25500000000E-02 0. -1.
         11    1    1    2    0    0 -0.95975056189E+01 -0.43489838891E+02  0.25701087707E+03  0.26084108023E+03  0.51100000000E-03 0. -1.
         22    1    1    2    0    0 -0.11551476066E+02 -0.14523981683E+02  0.93824536871E+02  0.95642178783E+02  0.00000000000E+00 0.  1.
          2    1    1    2  501    0  0.21148981685E+02  0.58013820574E+02  0.64510545793E+03  0.64805395968E+03  0.25500000000E-02 0. -1.
<mgrwt>
<rscale>  0 0.61748545E+02</rscale>
<asrwt>0</asrwt>
<pdfrwt beam="1">  1       11 0.10000000E+01 0.63204638E+02</pdfrwt>
<pdfrwt beam="2">  1        2 0.66141550E-03 0.61748545E+02</pdfrwt>
<totfact> 0.25079900E+04</totfact>
</mgrwt>
</event>
<event>
 5    1  0.2799727E-003  0.4370158E+03  0.7818608E-02  0.1031666E+00
         11   -1    0    0    0    0  0.00000000000E+00  0.00000000000E+00  0.99996860348E+03  0.99996860348E+03  0.51100000000E-03 0.  1.
          2   -1    0    0  501    0 -0.00000000000E+00 -0.00000000000E+00 -0.10932492568E+04  0.10932492568E+04  0.25500000000E-02 0. -1.
         11    1    1    2    0    0 -0.25488430065E+03 -0.29211162910E+03  0.84474766884E+03  0.92945889343E+03  0.51100000000E-03 0.  1.
         22    1    1    2    0    0  0.23569879777E+02 -0.82073330740E+02  0.37779684330E+02  0.93374918471E+02  0.00000000000E+00 0. -1.
          2    1    1    2  501    0  0.23131442087E+03  0.37418495984E+03 -0.97580800648E+03  0.10703840484E+04  0.25500000000E-02 0. -1.
<mgrwt>
<rscale>  0 0.43701583E+03</rscale>
<asrwt>0</asrwt>
<pdfrwt beam="1">  1       11 0.10000000E+01 0.85390695E+02</pdfrwt>
<pdfrwt beam="2">  1        2 0.16818691E+00 0.43701583E+03</pdfrwt>
<totfact> 0.28151302E+01</totfact>
</mgrwt>
</event>
<event>
 5    1  0.2799727E-003  0.1490643E+03  0.7818608E-02  0.1308568E+00
         11   -1    0    0    0    0  0.00000000000E+00  0.00000000000E+00  0.10000296852E+04  0.10000296852E+04  0.51100000000E-03 0. -1.
          2   -1    0    0  501    0 -0.00000000000E+00 -0.00000000000E+00 -0.54375996788E+02  0.54375996848E+02  0.25500000000E-02 0. -1.
         11    1    1    2    0    0  0.83434078033E+02  0.11613956709E+03  0.89674821133E+02  0.16879341802E+03  0.51100000000E-03 0. -1.
         22    1    1    2    0    0 -0.42178426020E+02  0.29679681035E+02  0.81509486563E+02  0.96455686653E+02  0.00000000000E+00 0.  1.
          2    1    1    2  501    0 -0.41255652013E+02 -0.14581924812E+03  0.77446938076E+03  0.78915657742E+03  0.25500000000E-02 0. -1.
<mgrwt>
<rscale>  0 0.87680539E+02</rscale>
<asrwt>0</asrwt>
<pdfrwt beam="1">  1       11 0.10000000E+01 0.14906433E+03</pdfrwt>
<pdfrwt beam="2">  1        2 0.83657861E-02 0.87680539E+02</pdfrwt>
<totfact> 0.92146409E+02</totfact>
</mgrwt>
</event>
<event>
 5    1  0.2799727E-003  0.1187062E+03  0.7818608E-02  0.1245247E+00
         11   -1    0    0    0    0  0.00000000000E+00  0.00000000000E+00  0.10002725156E+04  0.10002725156E+04  0.51100000000E-03 0. -1.
          2   -1    0    0  501    0 -0.00000000000E+00 -0.00000000000E+00 -0.25424630177E+02  0.25424630305E+02  0.25500000000E-02 0. -1.
         11    1    1    2    0    0 -0.48464025664E+02 -0.36580604469E+02  0.14484775861E+03  0.15705978347E+03  0.51100000000E-03 0. -1.
         22    1    1    2    0    0 -0.48575271019E+02  0.11140603461E+03  0.54541635025E+03  0.55879321455E+03  0.00000000000E+00 0. -1.
          2    1    1    2  501    0  0.97039296683E+02 -0.74825430139E+02  0.28458377655E+03  0.30984414788E+03  0.25500000000E-02 0. -1.
<mgrwt>
<rscale>  0 0.11870623E+03</rscale>
<asrwt>0</asrwt>
<pdfrwt beam="1">  1       11 0.10000000E+01 0.60719899E+02</pdfrwt>
<pdfrwt beam="2">  1        2 0.39125474E-02 0.11870623E+03</pdfrwt>
<totfact> 0.24992198E+03</totfact>
</mgrwt>
</event>
<event>
 5    1  0.2799727E-003  0.1818835E+03  0.7818608E-02  0.1165993E+00
         11   -1    0    0    0    0  0.00000000000E+00  0.00000000000E+00  0.10003328387E+04  0.10003328387E+04  0.51100000000E-03 0.  1.
         -2   -1    0    0    0  501 -0.00000000000E+00 -0.00000000000E+00 -0.22566288353E+03  0.22566288354E+03  0.25500000000E-02 0. -1.
         11    1    1    2    0    0  0.36123664939E+01 -0.10689846175E+03  0.37390283064E+03  0.38890057479E+03  0.51100000000E-03 0.  1.
         22    1    1    2    0    0 -0.10913420886E+03 -0.48243041886E+02  0.57125283822E+03  0.58358158967E+03  0.00000000000E+00 0.  1.
         -2    1    1    2    0  501  0.10552184236E+03  0.15514150364E+03 -0.17048571372E+03  0.25351355774E+03  0.25500000000E-02 0. -1.
<mgrwt>
<rscale>  0 0.18188353E+03</rscale>
<asrwt>0</asrwt>
<pdfrwt beam="1">  1       11 0.10000000E+01 0.10695948E+03</pdfrwt>
<pdfrwt beam="2">  1       -2 0.34728921E-01 0.18188353E+03</pdfrwt>
<totfact> 0.62707192E+01</totfact>
</mgrwt>
</event>
<event>
 5    1  0.2799727E-003  0.4001807E+02  0.7818608E-02  0.1674267E+00
         11   -1    0    0    0    0  0.00000000000E+00  0.00000000000E+00  0.10001458384E+04  0.10001458384E+04  0.51100000000E-03 0. -1.
          2   -1    0    0  501    0 -0.00000000000E+00 -0.00000000000E+00 -0.46472808773E+01  0.46472815769E+01  0.25500000000E-02 0. -1.
         11    1    1    2    0    0  0.88696385712E+01  0.47064511047E+02  0.17375816214E+03  0.18023772524E+03  0.51100000000E-03 0. -1.
         22    1    1    2    0    0 -0.12001659565E+02 -0.81626496965E+01  0.56972051065E+02  0.58791864105E+02  0.00000000000E+00 0.  1.
          2    1    1    2  501    0  0.31320209939E+01 -0.38901861351E+02  0.76476834435E+03  0.76576353066E+03  0.25500000000E-02 0. -1.
<mgrwt>
<rscale>  0 0.24100606E+02</rscale>
<asrwt>0</asrwt>
<pdfrwt beam="1">  1       11 0.10000000E+01 0.40018071E+02</pdfrwt>
<pdfrwt beam="2">  1        2 0.71507059E-03 0.24100606E+02</pdfrwt>
<totfact> 0.18452033E+04</totfact>
</mgrwt>
</event>
<event>
 5    1  0.2799727E-003  0.7413025E+02  0.7818608E-02  0.1356176E+00
         11   -1    0    0    0    0  0.00000000000E+00  0.00000000000E+00  0.10002634431E+04  0.10002634431E+04  0.51100000000E-03 0. -1.
          2   -1    0    0  501    0 -0.00000000000E+00 -0.00000000000E+00 -0.61617688890E+01  0.61617694167E+01  0.25500000000E-02 0. -1.
         11    1    1    2    0    0  0.60932736231E+02  0.63069458187E+01  0.25812406621E+03  0.26529344030E+03  0.51100000000E-03 0. -1.
         22    1    1    2    0    0  0.83997093026E+01  0.97378924520E+01  0.56885399259E+02  0.58320925187E+02  0.00000000000E+00 0. -1.
          2    1    1    2  501    0 -0.69332445533E+02 -0.16044838271E+02  0.67909220871E+03  0.68281084700E+03  0.25500000000E-02 0. -1.
<mgrwt>
<rscale>  0 0.71164773E+02</rscale>
<asrwt>0</asrwt>
<pdfrwt beam="1">  1       11 0.10000000E+01 0.74130252E+02</pdfrwt>
<pdfrwt beam="2">  1        2 0.94821419E-03 0.71164773E+02</pdfrwt>
<totfact> 0.15769652E+04</totfact>
</mgrwt>
</event>
<event>
 5    1  0.2799727E-003  0.3945784E+03  0.7818608E-02  0.1048502E+00
         11   -1    0    0    0    0  0.00000000000E+00  0.00000000000E+00  0.99978326351E+03  0.99978326351E+03  0.51100000000E-03 0. -1.
          2   -1    0    0  501    0 -0.00000000000E+00 -0.00000000000E+00 -0.20187931282E+03  0.20187931283E+03  0.25500000000E-02 0. -1.
         11    1    1    2    0    0  0.29620819847E+03  0.12262351060E+03  0.56991583352E+03  0.65389592405E+03  0.51100000000E-03 0. -1.
         22    1    1    2    0    0  0.45472749997E+02  0.58357863953E+02  0.12889502462E+03  0.14861809664E+03  0.00000000000E+00 0.  1.
          2    1    1    2  501    0 -0.34168094846E+03 -0.18098137455E+03  0.99093092545E+02  0.39914855565E+03  0.25500000000E-02 0. -1.
<mgrwt>
<rscale>  0 0.38665246E+03</rscale>
<asrwt>0</asrwt>
<pdfrwt beam="1">  1       11 0.10000000E+01 0.39457843E+03</pdfrwt>
<pdfrwt beam="2">  1        2 0.31051623E-01 0.38665246E+03</pdfrwt>
<totfact> 0.20991069E+02</totfact>
</mgrwt>
</event>
<event>
 5    1  0.2799727E-003  0.7771490E+02  0.7818608E-02  0.1448034E+00
         11   -1    0    0    0    0  0.00000000000E+00  0.00000000000E+00  0.10001728229E+04  0.10001728229E+04  0.51100000000E-03 0.  1.
          2   -1    0    0  501    0 -0.00000000000E+00 -0.00000000000E+00 -0.97346574568E+01  0.97346577907E+01  0.25500000000E-02 0.  1.
         11    1    1    2    0    0  0.43269744935E+02 -0.78958986078E+02  0.41944482743E+03  0.42899971511E+03  0.51100000000E-03 0.  1.
         22    1    1    2    0    0  0.95933919141E+01  0.30039454264E+02  0.11431867295E+03  0.11858819911E+03  0.00000000000E+00 0.  1.
          2    1    1    2  501    0 -0.52863136849E+02  0.48919531814E+02  0.45667466507E+03  0.46231956648E+03  0.25500000000E-02 0.  1.
<mgrwt>
<rscale>  0 0.49504257E+02</rscale>
<asrwt>0</asrwt>
<pdfrwt beam="1">  1       11 0.10000000E+01 0.77714904E+02</pdfrwt>
<pdfrwt beam="2">  1        2 0.14978984E-02 0.49504257E+02</pdfrwt>
<totfact> 0.80177145E+03</totfact>
</mgrwt>
</event>
<event>
 5    1  0.2799727E-003  0.2275632E+03  0.7818608E-02  0.1131169E+00
         11   -1    0    0    0    0  0.00000000000E+00  0.00000000000E+00  0.10002007402E+04  0.10002007402E+04  0.51100000000E-03 0. -1.
         -2   -1    0    0    0  501 -0.00000000000E+00 -0.00000000000E+00 -0.54919334275E+02  0.54919334335E+02  0.25500000000E-02 0.  1.
         11    1    1    2    0    0  0.45864796681E+02 -0.19042594067E+03  0.52016391170E+03  0.55582021688E+03  0.51100000000E-03 0. -1.
         22    1    1    2    0    0  0.21356584001E+02 -0.22914212020E+02  0.99052579096E+02  0.10388733425E+03  0.00000000000E+00 0. -1.
         -2    1    1    2    0  501 -0.67221380682E+02  0.21334015269E+03  0.32606491508E+03  0.39541252335E+03  0.25500000000E-02 0.  1.
<mgrwt>
<rscale>  0 0.22367998E+03</rscale>
<asrwt>0</asrwt>
<pdfrwt beam="1">  1       11 0.10000000E+01 0.22756316E+03</pdfrwt>
<pdfrwt beam="2">  1       -2 0.84508242E-02 0.22367998E+03</pdfrwt>
<totfact> 0.68495944E+02</totfact>
</mgrwt>
</event>
<event>
 5    1  0.2799727E-003  0.2359744E+03  0.7818608E-02  0.1122504E+00
         11   -1    0    0    0    0  0.00000000000E+00  0.00000000000E+00  0.10002453735E+04  0.10002453735E+04  0.51100000000E-03 0. -1.
         -2   -1    0    0    0  501 -0.00000000000E+00 -0.00000000000E+00 -0.29895193270E+03  0.29895193271E+03  0.25500000000E-02 0.  1.
         11    1    1    2    0    0  0.78265722908E+02  0.18417220599E+03  0.89433647511E+03  0.91645112012E+03  0.51100000000E-03 0. -1.
         22    1    1    2    0    0  0.16608677779E+02  0.34077559647E+02  0.36124243604E+02  0.52364961807E+02  0.00000000000E+00 0.  1.
         -2    1    1    2    0  501 -0.94874400687E+02 -0.21824976564E+03 -0.22916727790E+03  0.33038122430E+03  0.25500000000E-02 0.  1.
<mgrwt>
<rscale>  0 0.23597435E+03</rscale>
<asrwt>0</asrwt>
<pdfrwt beam="1">  1       11 0.10000000E+01 0.37909474E+02</pdfrwt>
<pdfrwt beam="2">  1       -2 0.46003889E-01 0.23597435E+03</pdfrwt>
<totfact> 0.36707809E+01</totfact>
</mgrwt>
</event>
<event>
 5    1  0.2799727E-003  0.3896996E+03  0.7818608E-02  0.1047406E+00
         11   -1    0    0    0    0  0.00000000000E+00  0.00000000000E+00  0.10001512136E+04  0.10001512136E+04  0.51100000000E-03 0. -1.
          2   -1    0    0  501    0 -0.00000000000E+00 -0.00000000000E+00 -0.26626206950E+03  0.26626206952E+03  0.25500000000E-02 0. -1.
         11    1    1    2    0    0 -0.11707828928E+03  0.32964305571E+03  0.48492466082E+03  0.59793293660E+03  0.51100000000E-03 0. -1.
         22    1    1    2    0    0 -0.47531068712E+02  0.39986624214E+02  0.25636915826E+03  0.26378642481E+03  0.00000000000E+00 0. -1.
          2    1    1    2  501    0  0.16460935799E+03 -0.36962967992E+03 -0.74046750224E+01  0.40469392167E+03  0.25500000000E-02 0. -1.
<mgrwt>
<rscale>  0 0.38969958E+03</rscale>
<asrwt>0</asrwt>
<pdfrwt beam="1">  1       11 0.10000000E+01 0.62113868E+02</pdfrwt>
<pdfrwt beam="2">  1        2 0.40969588E-01 0.38969958E+03</pdfrwt>
<totfact> 0.15464037E+02</totfact>
</mgrwt>
</event>
<event>
 5    1  0.2799727E-003  0.9548410E+02  0.7818608E-02  0.1299583E+00
         11   -1    0    0    0    0  0.00000000000E+00  0.00000000000E+00  0.99980437261E+03  0.99980437261E+03  0.51100000000E-03 0. -1.
          2   -1    0    0  501    0 -0.00000000000E+00 -0.00000000000E+00 -0.91610694584E+01  0.91610698133E+01  0.25500000000E-02 0. -1.
         11    1    1    2    0    0  0.37410789791E+02  0.20559003187E+02  0.21931711293E+03  0.22343284412E+03  0.51100000000E-03 0. -1.
         22    1    1    2    0    0  0.29357900613E+02  0.41804735501E+02  0.17697032531E+03  0.18419559789E+03  0.00000000000E+00 0. -1.
          2    1    1    2  501    0 -0.66768690404E+02 -0.62363738688E+02  0.59435586491E+03  0.60133700042E+03  0.25500000000E-02 0. -1.
<mgrwt>
<rscale>  0 0.91363526E+02</rscale>
<asrwt>0</asrwt>
<pdfrwt beam="1">  1       11 0.10000000E+01 0.95484098E+02</pdfrwt>
<pdfrwt beam="2">  1        2 0.14091196E-02 0.91363526E+02</pdfrwt>
<totfact> 0.95669309E+03</totfact>
</mgrwt>
</event>
<event>
 5    1  0.2799727E-003  0.1320625E+03  0.7818608E-02  0.1224427E+00
         11   -1    0    0    0    0  0.00000000000E+00  0.00000000000E+00  0.10003464717E+04  0.10003464717E+04  0.51100000000E-03 0.  1.
          2   -1    0    0  501    0 -0.00000000000E+00 -0.00000000000E+00 -0.64952428113E+03  0.64952428113E+03  0.25500000000E-02 0.  1.
         11    1    1    2    0    0 -0.31553140862E+02  0.80001447890E+02  0.51534265071E+03  0.52246902301E+03  0.51100000000E-03 0.  1.
         22    1    1    2    0    0 -0.96629305168E+02 -0.45311435805E+02  0.46855129378E+03  0.48055245680E+03  0.00000000000E+00 0.  1.
          2    1    1    2  501    0  0.12818244603E+03 -0.34690012085E+02 -0.63307175391E+03  0.64684927303E+03  0.25500000000E-02 0.  1.
<mgrwt>
<rscale>  0 0.13206247E+03</rscale>
<asrwt>0</asrwt>
<pdfrwt beam="1">  1       11 0.10000000E+01 0.85999025E+02</pdfrwt>
<pdfrwt beam="2">  1        2 0.99961431E-01 0.13206247E+03</pdfrwt>
<totfact> 0.58384147E+01</totfact>
</mgrwt>
</event>
<event>
 5    1  0.2799727E-003  0.2210956E+03  0.7818608E-02  0.1138544E+00
         11   -1    0    0    0    0  0.00000000000E+00  0.00000000000E+00  0.10002951270E+04  0.10002951270E+04  0.51100000000E-03 0. -1.
          2   -1    0    0  501    0 -0.00000000000E+00 -0.00000000000E+00 -0.23986111584E+03  0.23986111585E+03  0.25500000000E-02 0. -1.
         11    1    1    2    0    0  0.12226632082E+03  0.59080114949E+02  0.70462830376E+03  0.71759358947E+03  0.51100000000E-03 0. -1.
         22    1    1    2    0    0  0.71036159713E+02  0.32413822045E+02  0.23242975903E+03  0.24519458544E+03  0.00000000000E+00 0.  1.
          2    1    1    2  501    0 -0.19330248053E+03 -0.91493936994E+02 -0.17662405164E+03  0.27736806793E+03  0.25500000000E-02 0. -1.
<mgrwt>
<rscale>  0 0.21386208E+03</rscale>
<asrwt>0</asrwt>
<pdfrwt beam="1">  1       11 0.10000000E+01 0.22109558E+03</pdfrwt>
<pdfrwt beam="2">  1        2 0.36912600E-01 0.21386208E+03</pdfrwt>
<totfact> 0.17256470E+02</totfact>
</mgrwt>
</event>
<event>
 5    1  0.2799727E-003  0.3780717E+03  0.7818608E-02  0.1055035E+00
         11   -1    0    0    0    0  0.00000000000E+00  0.00000000000E+00  0.10001504360E+04  0.10001504360E+04  0.51100000000E-03 0. -1.
          2   -1    0    0  501    0 -0.00000000000E+00 -0.00000000000E+00 -0.19848039045E+03  0.19848039046E+03  0.25500000000E-02 0. -1.
         11    1    1    2    0    0 -0.77730340658E+02 -0.22091537272E+03  0.37466004610E+03  0.44183227350E+03  0.51100000000E-03 0. -1.
         22    1    1    2    0    0 -0.32685892160E+02 -0.13128876239E+03  0.35610865385E+03  0.38094419542E+03  0.00000000000E+00 0. -1.
          2    1    1    2  501    0  0.11041623282E+03  0.35220413511E+03  0.70901345577E+02  0.37585435752E+03  0.25500000000E-02 0. -1.
<mgrwt>
<rscale>  0 0.36910635E+03</rscale>
<asrwt>0</asrwt>
<pdfrwt beam="1">  1       11 0.10000000E+01 0.37807172E+03</pdfrwt>
<pdfrwt beam="2">  1        2 0.30540037E-01 0.36910635E+03</pdfrwt>
<totfact> 0.21370675E+02</totfact>
</mgrwt>
</event>
<event>
 5    1  0.2799727E-003  0.9884128E+02  0.7818608E-02  0.1286771E+00
         11   -1    0    0    0    0  0.00000000000E+00  0.00000000000E+00  0.10003313760E+04  0.10003313760E+04  0.51100000000E-03 0. -1.
         -2   -1    0    0    0  501 -0.00000000000E+00 -0.00000000000E+00 -0.96297240642E+01  0.96297244018E+01  0.25500000000E-02 0.  1.
         11    1    1    2    0    0  0.48567879127E+02 -0.63397010249E+02  0.47199417327E+03  0.47870295527E+03  0.51100000000E-03 0. -1.
         22    1    1    2    0    0  0.79381346150E+01 -0.15424291176E+02  0.62972730943E+02  0.65318355627E+02  0.00000000000E+00 0.  1.
         -2    1    1    2    0  501 -0.56506013742E+02  0.78821301425E+02  0.45573474774E+03  0.46593978951E+03  0.25500000000E-02 0.  1.
<mgrwt>
<rscale>  0 0.96983128E+02</rscale>
<asrwt>0</asrwt>
<pdfrwt beam="1">  1       11 0.10000000E+01 0.98841277E+02</pdfrwt>
<pdfrwt beam="2">  1       -2 0.14819869E-02 0.96983128E+02</pdfrwt>
<totfact> 0.83959179E+03</totfact>
</mgrwt>
</event>
<event>
 5    1  0.2799727E-003  0.3864215E+03  0.7818608E-02  0.1048948E+00
         11   -1    0    0    0    0  0.00000000000E+00  0.00000000000E+00  0.10001455852E+04  0.10001455852E+04  0.51100000000E-03 0.  1.
          2   -1    0    0  501    0 -0.00000000000E+00 -0.00000000000E+00 -0.14915207107E+03  0.14915207109E+03  0.25500000000E-02 0.  1.
         11    1    1    2    0    0 -0.25174212480E+03 -0.27705189380E+03  0.44168733577E+03  0.57898147798E+03  0.51100000000E-03 0.  1.
         22    1    1    2    0    0 -0.88411251782E+01 -0.69321761160E+01  0.73094741162E+01  0.13403319439E+02  0.00000000000E+00 0.  1.
          2    1    1    2  501    0  0.26058324998E+03  0.28398406992E+03  0.40199670419E+03  0.55691285883E+03  0.25500000000E-02 0.  1.
<mgrwt>
<rscale>  0 0.38542260E+03</rscale>
<asrwt>0</asrwt>
<pdfrwt beam="1">  1       11 0.10000000E+01 0.38642155E+03</pdfrwt>
<pdfrwt beam="2">  1        2 0.22949812E-01 0.38542260E+03</pdfrwt>
<totfact> 0.29514563E+02</totfact>
</mgrwt>
</event>
<event>
 5    1  0.2799727E-003  0.1388844E+03  0.7818608E-02  0.1216268E+00
         11   -1    0    0    0    0  0.00000000000E+00  0.00000000000E+00  0.10003663838E+04  0.10003663838E+04  0.51100000000E-03 0. -1.
          2   -1    0    0  501    0 -0.00000000000E+00 -0.00000000000E+00 -0.19870872553E+02  0.19870872716E+02  0.25500000000E-02 0. -1.
         11    1    1    2    0    0  0.79756091970E+02 -0.97611357611E+02  0.52183314472E+03  0.53684154298E+03  0.51100000000E-03 0. -1.
         22    1    1    2    0    0  0.10514944281E+02 -0.65538094209E+01  0.68247690971E+02  0.69363274101E+02  0.00000000000E+00 0. -1.
          2    1    1    2  501    0 -0.90271036250E+02  0.10416516703E+03  0.39041467556E+03  0.41403243944E+03  0.25500000000E-02 0. -1.
<mgrwt>
<rscale>  0 0.13783774E+03</rscale>
<asrwt>0</asrwt>
<pdfrwt beam="1">  1       11 0.10000000E+01 0.13888444E+03</pdfrwt>
<pdfrwt beam="2">  1        2 0.30581773E-02 0.13783774E+03</pdfrwt>
<totfact> 0.35214372E+03</totfact>
</mgrwt>
</event>
<event>
 5    1  0.2799727E-003  0.5367299E+03  0.7818608E-02  0.1007791E+00
         11   -1    0    0    0    0  0.00000000000E+00  0.00000000000E+00  0.10002205255E+04  0.10002205255E+04  0.51100000000E-03 0. -1.
          2   -1    0    0  501    0 -0.00000000000E+00 -0.00000000000E+00 -0.11473398769E+04  0.11473398769E+04  0.25500000000E-02 0. -1.
         11    1    1    2    0    0  0.12149508318E+03 -0.33951759064E+03  0.66807089007E+03  0.75917847951E+03  0.51100000000E-03 0. -1.
         22    1    1    2    0    0  0.12540341729E+02 -0.16665595855E+03  0.19118518655E+03  0.25393551198E+03  0.00000000000E+00 0. -1.
          2    1    1    2  501    0 -0.13403542491E+03  0.50617354920E+03 -0.10063754280E+04  0.11344464109E+04  0.25500000000E-02 0. -1.
<mgrwt>
<rscale>  0 0.52361929E+03</rscale>
<asrwt>0</asrwt>
<pdfrwt beam="1">  1       11 0.10000000E+01 0.53672987E+03</pdfrwt>
<pdfrwt beam="2">  1        2 0.17655275E+00 0.52361929E+03</pdfrwt>
<totfact> 0.25873992E+01</totfact>
</mgrwt>
</event>
<event>
 5    1  0.2799727E-003  0.2238707E+03  0.7818608E-02  0.1131030E+00
         11   -1    0    0    0    0  0.00000000000E+00  0.00000000000E+00  0.10006974860E+04  0.10006974860E+04  0.51100000000E-03 0.  1.
          2   -1    0    0  501    0 -0.00000000000E+00 -0.00000000000E+00 -0.16980476505E+04  0.16980476505E+04  0.25500000000E-02 0.  1.
         11    1    1    2    0    0  0.19658983045E+03 -0.96831612128E+01  0.74603777054E+03  0.77156573286E+03  0.51100000000E-03 0.  1.
         22    1    1    2    0    0  0.22203321661E+02 -0.39094129838E+02  0.23227643231E+03  0.23658757256E+03  0.00000000000E+00 0.  1.
          2    1    1    2  501    0 -0.21879315211E+03  0.48777291051E+02 -0.16756643673E+04  0.16905918311E+04  0.25500000000E-02 0.  1.
<mgrwt>
<rscale>  0 0.22387067E+03</rscale>
<asrwt>0</asrwt>
<pdfrwt beam="1">  1       11 0.10000000E+01 0.44959298E+02</pdfrwt>
<pdfrwt beam="2">  1        2 0.26142030E+00 0.22387067E+03</pdfrwt>
<totfact> 0.13625503E+01</totfact>
</mgrwt>
</event>
<event>
 5    1  0.2799727E-003  0.1104300E+03  0.7818608E-02  0.1259776E+00
         11   -1    0    0    0    0  0.00000000000E+00  0.00000000000E+00  0.10002788381E+04  0.10002788381E+04  0.51100000000E-03 0.  1.
          2   -1    0    0  501    0 -0.00000000000E+00 -0.00000000000E+00 -0.16730206122E+02  0.16730206316E+02  0.25500000000E-02 0.  1.
         11    1    1    2    0    0 -0.28706276587E+02 -0.68968450947E+01  0.70798861251E+02  0.76707858414E+02  0.51100000000E-03 0.  1.
         22    1    1    2    0    0  0.69999217400E+02  0.10077047592E+03  0.53377560403E+03  0.54769606052E+03  0.00000000000E+00 0.  1.
          2    1    1    2  501    0 -0.41292940813E+02 -0.93873630822E+02  0.37897416673E+03  0.39260512552E+03  0.25500000000E-02 0.  1.
<mgrwt>
<rscale>  0 0.11042998E+03</rscale>
<asrwt>0</asrwt>
<pdfrwt beam="1">  1       11 0.10000000E+01 0.29523172E+02</pdfrwt>
<pdfrwt beam="2">  1        2 0.25745955E-02 0.11042998E+03</pdfrwt>
<totfact> 0.43343398E+03</totfact>
</mgrwt>
</event>
<event>
 5    1  0.2799727E-003  0.6685950E+02  0.7818608E-02  0.1376750E+00
         11   -1    0    0    0    0  0.00000000000E+00  0.00000000000E+00  0.10000336546E+04  0.10000336546E+04  0.51100000000E-03 0.  1.
          2   -1    0    0  501    0 -0.00000000000E+00 -0.00000000000E+00 -0.55023903102E+01  0.55023909011E+01  0.25500000000E-02 0.  1.
         11    1    1    2    0    0  0.44665606112E+02  0.33499304885E+02  0.21664145805E+03  0.22372022963E+03  0.51100000000E-03 0.  1.
         22    1    1    2    0    0  0.44294243575E+01  0.95954219664E+01  0.56943435181E+02  0.57915859081E+02  0.00000000000E+00 0.  1.
          2    1    1    2  501    0 -0.49095030470E+02 -0.43094726852E+02  0.72094637108E+03  0.72389995682E+03  0.25500000000E-02 0.  1.
<mgrwt>
<rscale>  0 0.65325933E+02</rscale>
<asrwt>0</asrwt>
<pdfrwt beam="1">  1       11 0.10000000E+01 0.66859499E+02</pdfrwt>
<pdfrwt beam="2">  1        2 0.84655010E-03 0.65325933E+02</pdfrwt>
<totfact> 0.18124218E+04</totfact>
</mgrwt>
</event>
<event>
 5    1  0.2799727E-003  0.1879744E+03  0.7818608E-02  0.1170377E+00
         11   -1    0    0    0    0  0.00000000000E+00  0.00000000000E+00  0.10000912445E+04  0.10000912445E+04  0.51100000000E-03 0. -1.
          2   -1    0    0  501    0 -0.00000000000E+00 -0.00000000000E+00 -0.78895252177E+02  0.78895252218E+02  0.25500000000E-02 0. -1.
         11    1    1    2    0    0  0.10795767259E+03  0.30305936679E+02  0.46136375669E+03  0.47479450803E+03  0.51100000000E-03 0. -1.
         22    1    1    2    0    0  0.69333709250E+02 -0.25178122156E+02  0.41465279763E+03  0.42116272823E+03  0.00000000000E+00 0. -1.
          2    1    1    2  501    0 -0.17729138184E+03 -0.51278145227E+01  0.45179438005E+02  0.18302926045E+03  0.25500000000E-02 0. -1.
<mgrwt>
<rscale>  0 0.17736552E+03</rscale>
<asrwt>0</asrwt>
<pdfrwt beam="1">  1       11 0.10000000E+01 0.18797438E+03</pdfrwt>
<pdfrwt beam="2">  1        2 0.12138838E-01 0.17736552E+03</pdfrwt>
<totfact> 0.60897119E+02</totfact>
</mgrwt>
</event>
<event>
 5    1  0.2799727E-003  0.2391699E+03  0.7818608E-02  0.1131898E+00
         11   -1    0    0    0    0  0.00000000000E+00  0.00000000000E+00  0.99984913586E+03  0.99984913586E+03  0.51100000000E-03 0. -1.
          2   -1    0    0  501    0 -0.00000000000E+00 -0.00000000000E+00 -0.90238124993E+02  0.90238125029E+02  0.25500000000E-02 0. -1.
         11    1    1    2    0    0  0.18313073419E+02 -0.70861625448E+02  0.30007191668E+03  0.30886873231E+03  0.51100000000E-03 0. -1.
         22    1    1    2    0    0 -0.81197198173E+02 -0.14275873857E+03  0.51274871651E+03  0.53840903476E+03  0.00000000000E+00 0. -1.
          2    1    1    2  501    0  0.62884124754E+02  0.21362036402E+03  0.96790377681E+02  0.24280949382E+03  0.25500000000E-02 0. -1.
<mgrwt>
<rscale>  0 0.22268380E+03</rscale>
<asrwt>0</asrwt>
<pdfrwt beam="1">  1       11 0.10000000E+01 0.23916988E+03</pdfrwt>
<pdfrwt beam="2">  1        2 0.13880694E-01 0.22268380E+03</pdfrwt>
<totfact> 0.52326415E+02</totfact>
</mgrwt>
</event>
<event>
 5    1  0.2799727E-003  0.4233404E+02  0.7818608E-02  0.1514716E+00
         11   -1    0    0    0    0  0.00000000000E+00  0.00000000000E+00  0.10001932784E+04  0.10001932784E+04  0.51100000000E-03 0. -1.
          2   -1    0    0  501    0 -0.00000000000E+00 -0.00000000000E+00 -0.28967536638E+01  0.28967547862E+01  0.25500000000E-02 0. -1.
         11    1    1    2    0    0 -0.82455059352E+01  0.99248085951E+01  0.33940137959E+02  0.36310097201E+02  0.51100000000E-03 0. -1.
         22    1    1    2    0    0 -0.25189537169E+02  0.10403142810E+02  0.14820664935E+03  0.15069156935E+03  0.00000000000E+00 0. -1.
          2    1    1    2  501    0  0.33435043105E+02 -0.20327951405E+02  0.81514973746E+03  0.81608836667E+03  0.25500000000E-02 0. -1.
<mgrwt>
<rscale>  0 0.39129627E+02</rscale>
<asrwt>0</asrwt>
<pdfrwt beam="1">  1       11 0.10000000E+01 0.42334043E+02</pdfrwt>
<pdfrwt beam="2">  1        2 0.44574062E-03 0.39129627E+02</pdfrwt>
<totfact> 0.38771900E+04</totfact>
</mgrwt>
</event>
<event>
 5    1  0.2799727E-003  0.7601294E+02  0.7818608E-02  0.1567913E+00
         11   -1    0    0    0    0  0.00000000000E+00  0.00000000000E+00  0.10001100806E+04  0.10001100806E+04  0.51100000000E-03 0. -1.
          2   -1    0    0  501    0 -0.00000000000E+00 -0.00000000000E+00 -0.92230558309E+01  0.92230561834E+01  0.25500000000E-02 0. -1.
         11    1    1    2    0    0  0.55727298019E+02  0.42547589495E+02  0.30697557577E+03  0.31488066508E+03  0.51100000000E-03 0. -1.
         22    1    1    2    0    0  0.35686820534E+00  0.14250379638E+02  0.14624499733E+02  0.20422454974E+02  0.00000000000E+00 0. -1.
          2    1    1    2  501    0 -0.56084166224E+02 -0.56797969133E+02  0.66928694922E+03  0.67403001669E+03  0.25500000000E-02 0. -1.
<mgrwt>
<rscale>  0 0.32917356E+02</rscale>
<asrwt>0</asrwt>
<pdfrwt beam="1">  1       11 0.10000000E+01 0.76012942E+02</pdfrwt>
<pdfrwt beam="2">  1        2 0.14190878E-02 0.32917356E+02</pdfrwt>
<totfact> 0.80175442E+03</totfact>
</mgrwt>
</event>
<event>
 5    1  0.2799727E-003  0.3582821E+02  0.7818608E-02  0.1549870E+00
         11   -1    0    0    0    0  0.00000000000E+00  0.00000000000E+00  0.10000039813E+04  0.10000039813E+04  0.51100000000E-03 0.  1.
          2   -1    0    0  501    0 -0.00000000000E+00 -0.00000000000E+00 -0.25903306884E+02  0.25903307009E+02  0.25500000000E-02 0.  1.
         11    1    1    2    0    0 -0.23889982931E+02 -0.40756444865E+01 -0.12819119483E+02  0.27416637048E+02  0.51100000000E-03 0.  1.
         22    1    1    2    0    0 -0.10148756141E+02 -0.34348144931E+01 -0.23871351989E+00  0.10716911213E+02  0.00000000000E+00 0.  1.
          2    1    1    2  501    0  0.34038739071E+02  0.75104589795E+01  0.98715850738E+03  0.98777374001E+03  0.25500000000E-02 0.  1.
<mgrwt>
<rscale>  0 0.34857463E+02</rscale>
<asrwt>0</asrwt>
<pdfrwt beam="1">  1       11 0.10000000E+01 0.35828208E+02</pdfrwt>
<pdfrwt beam="2">  1        2 0.39851399E-02 0.34857463E+02</pdfrwt>
<totfact> 0.21305936E+03</totfact>
</mgrwt>
</event>
<event>
 5    1  0.2799727E-003  0.9855655E+02  0.7818608E-02  0.1394465E+00
         11   -1    0    0    0    0  0.00000000000E+00  0.00000000000E+00  0.10003474395E+04  0.10003474395E+04  0.51100000000E-03 0. -1.
          2   -1    0    0  501    0 -0.00000000000E+00 -0.00000000000E+00 -0.14304300739E+02  0.14304300967E+02  0.25500000000E-02 0. -1.
         11    1    1    2    0    0  0.89140638803E+02  0.88103942456E+01  0.34206851180E+03  0.35360223882E+03  0.51100000000E-03 0. -1.
         22    1    1    2    0    0  0.11433981284E+02  0.35735160616E+02  0.12328340487E+03  0.12886634762E+03  0.00000000000E+00 0. -1.
          2    1    1    2  501    0 -0.10057462009E+03 -0.44545554862E+02  0.52069122213E+03  0.53218315407E+03  0.25500000000E-02 0. -1.
<mgrwt>
<rscale>  0 0.60809730E+02</rscale>
<asrwt>0</asrwt>
<pdfrwt beam="1">  1       11 0.10000000E+01 0.98556554E+02</pdfrwt>
<pdfrwt beam="2">  1        2 0.22014262E-02 0.60809730E+02</pdfrwt>
<totfact> 0.49573982E+03</totfact>
</mgrwt>
</event>
<event>
 5    1  0.2799727E-003  0.4230685E+02  0.7818608E-02  0.1657048E+00
         11   -1    0    0    0    0  0.00000000000E+00  0.00000000000E+00  0.10000988212E+04  0.10000988212E+04  0.51100000000E-03 0. -1.
          2   -1    0    0  501    0 -0.00000000000E+00 -0.00000000000E+00 -0.11321291447E+02  0.11321291734E+02  0.25500000000E-02 0. -1.
         11    1    1    2    0    0  0.32884818560E+02 -0.83208132774E+01  0.25460273800E+02  0.42413120229E+02  0.51100000000E-03 0. -1.
         22    1    1    2    0    0  0.98880314251E+01  0.11415835409E+02  0.21838914398E+02  0.26552450840E+02  0.00000000000E+00 0.  1.
          2    1    1    2  501    0 -0.42772849986E+02 -0.30950221315E+01  0.94147834157E+03  0.94245454188E+03  0.25500000000E-02 0. -1.
<mgrwt>
<rscale>  0 0.25277490E+02</rscale>
<asrwt>0</asrwt>
<pdfrwt beam="1">  1       11 0.10000000E+01 0.42306854E+02</pdfrwt>
<pdfrwt beam="2">  1        2 0.17419092E-02 0.25277490E+02</pdfrwt>
<totfact> 0.58427806E+03</totfact>
</mgrwt>
</event>
<event>
 5    1  0.2799727E-003  0.2658818E+03  0.7818608E-02  0.1103660E+00
         11   -1    0    0    0    0  0.00000000000E+00  0.00000000000E+00  0.10002965197E+04  0.10002965197E+04  0.51100000000E-03 0. -1.
          2   -1    0    0  501    0 -0.00000000000E+00 -0.00000000000E+00 -0.12429999195E+03  0.12429999198E+03  0.25500000000E-02 0. -1.
         11    1    1    2    0    0  0.21321500248E+02  0.50453641184E+01  0.10569936652E+03  0.10794636703E+03  0.51100000000E-03 0. -1.
         22    1    1    2    0    0  0.95215371963E+02  0.23699715414E+03  0.69079071373E+03  0.73649536883E+03  0.00000000000E+00 0. -1.
          2    1    1    2  501    0 -0.11653687221E+03 -0.24204251826E+03  0.79506447547E+02  0.28015477586E+03  0.25500000000E-02 0. -1.
<mgrwt>
<rscale>  0 0.26588176E+03</rscale>
<asrwt>0</asrwt>
<pdfrwt beam="1">  1       11 0.10000000E+01 0.21910319E+02</pdfrwt>
<pdfrwt beam="2">  1        2 0.19128746E-01 0.26588176E+03</pdfrwt>
<totfact> 0.36078637E+02</totfact>
</mgrwt>
</event>
<event>
 5    1  0.2799727E-003  0.3789655E+02  0.7818608E-02  0.1524287E+00
         11   -1    0    0    0    0  0.00000000000E+00  0.00000000000E+00  0.10002806280E+04  0.10002806280E+04  0.51100000000E-03 0. -1.
          2   -1    0    0  501    0 -0.00000000000E+00 -0.00000000000E+00 -0.65621636784E+01  0.65621641738E+01  0.25500000000E-02 0. -1.
         11    1    1    2    0    0 -0.12051944484E+02 -0.68305360393E+01  0.17594111189E+02  0.22393265443E+02  0.51100000000E-03 0. -1.
         22    1    1    2    0    0 -0.34333956748E+02  0.13871370499E+02  0.93307930528E+02  0.10038727711E+03  0.00000000000E+00 0. -1.
          2    1    1    2  501    0  0.46385901232E+02 -0.70408344595E+01  0.88281642262E+03  0.88406224964E+03  0.25500000000E-02 0. -1.
<mgrwt>
<rscale>  0 0.37896546E+02</rscale>
<asrwt>0</asrwt>
<pdfrwt beam="1">  1       11 0.10000000E+01 0.13853006E+02</pdfrwt>
<pdfrwt beam="2">  1        2 0.10098470E-02 0.37896546E+02</pdfrwt>
<totfact> 0.12911425E+04</totfact>
</mgrwt>
</event>
<event>
 5    1  0.2799727E-003  0.1133856E+03  0.7818608E-02  0.1478716E+00
         11   -1    0    0    0    0  0.00000000000E+00  0.00000000000E+00  0.10000541808E+04  0.10000541808E+04  0.51100000000E-03 0. -1.
          2   -1    0    0  501    0 -0.00000000000E+00 -0.00000000000E+00 -0.12595619112E+03  0.12595619115E+03  0.25500000000E-02 0. -1.
         11    1    1    2    0    0 -0.78401203208E+02 -0.10278650908E+03  0.52989176771E+03  0.54543294785E+03  0.51100000000E-03 0. -1.
         22    1    1    2    0    0  0.34354854185E+02  0.97989854068E+02  0.45213640944E+03  0.46390688748E+03  0.00000000000E+00 0. -1.
          2    1    1    2  501    0  0.44046349023E+02  0.47966550118E+01 -0.10793018743E+03  0.11667053667E+03  0.25500000000E-02 0. -1.
<mgrwt>
<rscale>  0 0.44306758E+02</rscale>
<asrwt>0</asrwt>
<pdfrwt beam="1">  1       11 0.10000000E+01 0.11338563E+03</pdfrwt>
<pdfrwt beam="2">  1        2 0.19378925E-01 0.44306758E+02</pdfrwt>
<totfact> 0.33261057E+02</totfact>
</mgrwt>
</event>
<event>
 5    1  0.2799727E-003  0.3481197E+03  0.7818608E-02  0.1063389E+00
         11   -1    0    0    0    0  0.00000000000E+00  0.00000000000E+00  0.10000100969E+04  0.10000100969E+04  0.51100000000E-03 0. -1.
         -2   -1    0    0    0  501 -0.00000000000E+00 -0.00000000000E+00 -0.41852167598E+03  0.41852167599E+03  0.25500000000E-02 0. -1.
         11    1    1    2    0    0  0.15489774149E+02  0.20127592878E+01 -0.25044283786E+01  0.15819496355E+02  0.51100000000E-03 0. -1.
         22    1    1    2    0    0 -0.28469029328E+03 -0.22103099468E+03  0.87722058178E+03  0.94837714692E+03  0.00000000000E+00 0. -1.
         -2    1    1    2    0  501  0.26920051913E+03  0.21901823539E+03 -0.29322773246E+03  0.45433512964E+03  0.25500000000E-02 0. -1.
<mgrwt>
<rscale>  0 0.34811975E+03</rscale>
<asrwt>0</asrwt>
<pdfrwt beam="1">  1       11 0.10000000E+01 0.15620005E+02</pdfrwt>
<pdfrwt beam="2">  1       -2 0.64388598E-01 0.34811975E+03</pdfrwt>
<totfact> 0.18423612E+01</totfact>
</mgrwt>
</event>
<event>
 5    1  0.2799727E-003  0.1889386E+03  0.7818608E-02  0.1163121E+00
         11   -1    0    0    0    0  0.00000000000E+00  0.00000000000E+00  0.10004247794E+04  0.10004247794E+04  0.51100000000E-03 0. -1.
         -2   -1    0    0    0  501 -0.00000000000E+00 -0.00000000000E+00 -0.29427105267E+03  0.29427105268E+03  0.25500000000E-02 0. -1.
         11    1    1    2    0    0  0.64501172883E+02 -0.31233939261E+02  0.43171821423E+03  0.43762606957E+03  0.51100000000E-03 0. -1.
         22    1    1    2    0    0  0.11481818306E+03 -0.13949590142E+02  0.52952073964E+03  0.54200555342E+03  0.00000000000E+00 0.  1.
         -2    1    1    2    0  501 -0.17931935594E+03  0.45183529404E+02 -0.25508522714E+03  0.31506420910E+03  0.25500000000E-02 0. -1.
<mgrwt>
<rscale>  0 0.18492426E+03</rscale>
<asrwt>0</asrwt>
<pdfrwt beam="1">  1       11 0.10000000E+01 0.18893859E+03</pdfrwt>
<pdfrwt beam="2">  1       -2 0.45291699E-01 0.18492426E+03</pdfrwt>
<totfact> 0.37853256E+01</totfact>
</mgrwt>
</event>
<event>
 5    1  0.2799727E-003  0.1683746E+03  0.7818608E-02  0.1180919E+00
         11   -1    0    0    0    0  0.00000000000E+00  0.00000000000E+00  0.10001663736E+04  0.10001663736E+04  0.51100000000E-03 0. -1.
         -2   -1    0    0    0  501 -0.00000000000E+00 -0.00000000000E+00 -0.10950618992E+03  0.10950618995E+03  0.25500000000E-02 0.  1.
         11    1    1    2    0    0 -0.29611062517E+02  0.14956067806E+03  0.83529688378E+03  0.84909722382E+03  0.51100000000E-03 0. -1.
         22    1    1    2    0    0  0.36145673478E+01  0.15492386032E+02  0.88767009803E+02  0.90181268296E+02  0.00000000000E+00 0. -1.
         -2    1    1    2    0  501  0.25996495170E+02 -0.16505306410E+03 -0.33403709930E+02  0.17039407141E+03  0.25500000000E-02 0.  1.
<mgrwt>
<rscale>  0 0.16708780E+03</rscale>
<asrwt>0</asrwt>
<pdfrwt beam="1">  1       11 0.10000000E+01 0.16837460E+03</pdfrwt>
<pdfrwt beam="2">  1       -2 0.16849909E-01 0.16708780E+03</pdfrwt>
<totfact> 0.22209189E+02</totfact>
</mgrwt>
</event>
<event>
 5    1  0.2799727E-003  0.1092492E+03  0.7818608E-02  0.1556811E+00
         11   -1    0    0    0    0  0.00000000000E+00  0.00000000000E+00  0.10002316256E+04  0.10002316256E+04  0.51100000000E-03 0.  1.
          2   -1    0    0  501    0 -0.00000000000E+00 -0.00000000000E+00 -0.13575100844E+02  0.13575101083E+02  0.25500000000E-02 0.  1.
         11    1    1    2    0    0  0.49537968135E+02 -0.95056099509E+02  0.38369322928E+03  0.39838444565E+03  0.51100000000E-03 0.  1.
         22    1    1    2    0    0 -0.74596747466E+01 -0.75855433302E+01  0.30300260693E+02  0.32113751151E+02  0.00000000000E+00 0.  1.
          2    1    1    2  501    0 -0.42078293388E+02  0.10264164284E+03  0.57266303480E+03  0.58330852990E+03  0.25500000000E-02 0.  1.
<mgrwt>
<rscale>  0 0.34092459E+02</rscale>
<asrwt>0</asrwt>
<pdfrwt beam="1">  1       11 0.10000000E+01 0.10924918E+03</pdfrwt>
<pdfrwt beam="2">  1        2 0.20889608E-02 0.34092459E+02</pdfrwt>
<totfact> 0.48666375E+03</totfact>
</mgrwt>
</event>
<event>
 5    1  0.2799727E-003  0.2094690E+03  0.7818608E-02  0.1141987E+00
         11   -1    0    0    0    0  0.00000000000E+00  0.00000000000E+00  0.10000230257E+04  0.10000230257E+04  0.51100000000E-03 0. -1.
          2   -1    0    0  501    0 -0.00000000000E+00 -0.00000000000E+00 -0.25635537774E+03  0.25635537776E+03  0.25500000000E-02 0.  1.
         11    1    1    2    0    0  0.14923172134E+03  0.75641399172E+02  0.57283530654E+03  0.59676797529E+03  0.51100000000E-03 0. -1.
         22    1    1    2    0    0  0.65204200593E+02 -0.87087142366E+02  0.35836209859E+03  0.37451188478E+03  0.00000000000E+00 0. -1.
          2    1    1    2  501    0 -0.21443592193E+03  0.11445743194E+02 -0.18752975712E+03  0.28509854343E+03  0.25500000000E-02 0.  1.
<mgrwt>
<rscale>  0 0.20946902E+03</rscale>
<asrwt>0</asrwt>
<pdfrwt beam="1">  1       11 0.10000000E+01 0.10879227E+03</pdfrwt>
<pdfrwt beam="2">  1        2 0.39440196E-01 0.20946902E+03</pdfrwt>
<totfact> 0.16061523E+02</totfact>
</mgrwt>
</event>
<event>
 5    1  0.2799727E-003  0.2812586E+03  0.7818608E-02  0.1095003E+00
         11   -1    0    0    0    0  0.00000000000E+00  0.00000000000E+00  0.10004508738E+04  0.10004508738E+04  0.51100000000E-03 0. -1.
          2   -1    0    0  501    0 -0.00000000000E+00 -0.00000000000E+00 -0.82836520624E+03  0.82836520625E+03  0.25500000000E-02 0. -1.
         11    1    1    2    0    0  0.38381623722E+02  0.13128341652E+03  0.38217551331E+03  0.40591453222E+03  0.51100000000E-03 0. -1.
         22    1    1    2    0    0 -0.16174088398E+03  0.12621051448E+03  0.56276455467E+03  0.59899344863E+03  0.00000000000E+00 0. -1.
          2    1    1    2  501    0  0.12335926025E+03 -0.25749393100E+03 -0.77285440044E+03  0.82390809917E+03  0.25500000000E-02 0. -1.
<mgrwt>
<rscale>  0 0.28125861E+03</rscale>
<asrwt>0</asrwt>
<pdfrwt beam="1">  1       11 0.10000000E+01 0.13677896E+03</pdfrwt>
<pdfrwt beam="2">  1        2 0.12749826E+00 0.28125861E+03</pdfrwt>
<totfact> 0.42292107E+01</totfact>
</mgrwt>
</event>
<event>
 5    1  0.2799727E-003  0.2229948E+03  0.7818608E-02  0.1133247E+00
         11   -1    0    0    0    0  0.00000000000E+00  0.00000000000E+00  0.10001937555E+04  0.10001937555E+04  0.51100000000E-03 0. -1.
          2   -1    0    0  501    0 -0.00000000000E+00 -0.00000000000E+00 -0.49326251724E+02  0.49326251790E+02  0.25500000000E-02 0. -1.
         11    1    1    2    0    0 -0.18384666779E+03  0.83540839437E+02  0.43449629445E+03  0.47913014829E+03  0.51100000000E-03 0. -1.
         22    1    1    2    0    0 -0.14998767051E+02  0.12571907667E+02  0.65010785060E+02  0.67892695112E+02  0.00000000000E+00 0. -1.
          2    1    1    2  501    0  0.19884543484E+03 -0.96112747104E+02  0.45136042424E+03  0.50249716386E+03  0.25500000000E-02 0. -1.
<mgrwt>
<rscale>  0 0.22085553E+03</rscale>
<asrwt>0</asrwt>
<pdfrwt beam="1">  1       11 0.10000000E+01 0.22299477E+03</pdfrwt>
<pdfrwt beam="2">  1        2 0.75901242E-02 0.22085553E+03</pdfrwt>
<totfact> 0.11052703E+03</totfact>
</mgrwt>
</event>
<event>
 5    1  0.2799727E-003  0.1069462E+03  0.7818608E-02  0.1275797E+00
         11   -1    0    0    0    0  0.00000000000E+00  0.00000000000E+00  0.10003081954E+04  0.10003081954E+04  0.51100000000E-03 0. -1.
          2   -1    0    0  501    0 -0.00000000000E+00 -0.00000000000E+00 -0.13293900888E+02  0.13293901133E+02  0.25500000000E-02 0. -1.
         11    1    1    2    0    0 -0.73766980343E+02  0.40708460112E+02  0.19480223495E+03  0.21224197713E+03  0.51100000000E-03 0. -1.
         22    1    1    2    0    0 -0.16757919949E+02  0.66623881796E+01  0.94263746033E+02  0.95973272912E+02  0.00000000000E+00 0. -1.
          2    1    1    2  501    0  0.90524900292E+02 -0.47370848291E+02  0.69794831356E+03  0.70538684653E+03  0.25500000000E-02 0. -1.
<mgrwt>
<rscale>  0 0.10217022E+03</rscale>
<asrwt>0</asrwt>
<pdfrwt beam="1">  1       11 0.10000000E+01 0.10694624E+03</pdfrwt>
<pdfrwt beam="2">  1        2 0.20458458E-02 0.10217022E+03</pdfrwt>
<totfact> 0.58550154E+03</totfact>
</mgrwt>
</event>
<event>
 5    1  0.2799727E-003  0.2104902E+03  0.7818608E-02  0.1141178E+00
         11   -1    0    0    0    0  0.00000000000E+00  0.00000000000E+00  0.10000327817E+04  0.10000327817E+04  0.51100000000E-03 0. -1.
          2   -1    0    0  501    0 -0.00000000000E+00 -0.00000000000E+00 -0.20036577785E+03  0.20036577786E+03  0.25500000000E-02 0. -1.
         11    1    1    2    0    0  0.18677531935E+03 -0.41859367288E+02  0.75923001618E+03  0.78298623488E+03  0.51100000000E-03 0. -1.
         22    1    1    2    0    0  0.24797313676E+02  0.26425771909E+02  0.16666740186E+03  0.17056157548E+03  0.00000000000E+00 0. -1.
          2    1    1    2  501    0 -0.21157263303E+03  0.15433595380E+02 -0.12623041419E+03  0.24685074921E+03  0.25500000000E-02 0. -1.
<mgrwt>
<rscale>  0 0.21049017E+03</rscale>
<asrwt>0</asrwt>
<pdfrwt beam="1">  1       11 0.10000000E+01 0.36238490E+02</pdfrwt>
<pdfrwt beam="2">  1        2 0.30826514E-01 0.21049017E+03</pdfrwt>
<totfact> 0.20990321E+02</totfact>
</mgrwt>
</event>
<event>
 5    1  0.2799727E-003  0.2920575E+03  0.7818608E-02  0.1305995E+00
         11   -1    0    0    0    0  0.00000000000E+00  0.00000000000E+00  0.10002632131E+04  0.10002632131E+04  0.51100000000E-03 0. -1.
          2   -1    0    0  501    0 -0.00000000000E+00 -0.00000000000E+00 -0.19024842909E+03  0.19024842910E+03  0.25500000000E-02 0. -1.
         11    1    1    2    0    0 -0.23903570409E+03  0.98083689916E+02  0.24471055232E+03  0.35586757716E+03  0.51100000000E-03 0. -1.
         22    1    1    2    0    0  0.25827064818E+03 -0.18468797968E+03  0.64273988802E+03  0.71688767684E+03  0.00000000000E+00 0.  1.
          2    1    1    2  501    0 -0.19234944086E+02  0.86604289766E+02 -0.77435656344E+02  0.11775638819E+03  0.25500000000E-02 0. -1.
<mgrwt>
<rscale>  0 0.88714633E+02</rscale>
<asrwt>0</asrwt>
<pdfrwt beam="1">  1       11 0.10000000E+01 0.29205749E+03</pdfrwt>
<pdfrwt beam="2">  1        2 0.29276692E-01 0.88714633E+02</pdfrwt>
<totfact> 0.21828462E+02</totfact>
</mgrwt>
</event>
<event>
 5    1  0.2799727E-003  0.3566836E+03  0.7818608E-02  0.1060770E+00
         11   -1    0    0    0    0  0.00000000000E+00  0.00000000000E+00  0.99991401439E+03  0.99991401439E+03  0.51100000000E-03 0.  1.
          2   -1    0    0  501    0 -0.00000000000E+00 -0.00000000000E+00 -0.15846019784E+03  0.15846019786E+03  0.25500000000E-02 0.  1.
         11    1    1    2    0    0 -0.15019084723E+02  0.33380541030E+03  0.62110864636E+03  0.70528545670E+03  0.51100000000E-03 0.  1.
         22    1    1    2    0    0  0.34814309630E+01  0.20539160201E+02  0.60877443620E+02  0.64343147304E+02  0.00000000000E+00 0. -1.
          2    1    1    2  501    0  0.11537653760E+02 -0.35434457050E+03  0.15946772658E+03  0.38874560824E+03  0.25500000000E-02 0.  1.
<mgrwt>
<rscale>  0 0.35453236E+03</rscale>
<asrwt>0</asrwt>
<pdfrwt beam="1">  1       11 0.10000000E+01 0.35668356E+03</pdfrwt>
<pdfrwt beam="2">  1        2 0.24376395E-01 0.35453236E+03</pdfrwt>
<totfact> 0.27509912E+02</totfact>
</mgrwt>
</event>
<event>
 5    1  0.2799727E-003  0.3075780E+03  0.7818608E-02  0.1573385E+00
         11   -1    0    0    0    0  0.00000000000E+00  0.00000000000E+00  0.10001987820E+04  0.10001987820E+04  0.51100000000E-03 0.  1.
          2   -1    0    0  501    0 -0.00000000000E+00 -0.00000000000E+00 -0.94808247552E+03  0.94808247552E+03  0.25500000000E-02 0.  1.
         11    1    1    2    0    0 -0.30401281679E+03  0.87446214408E+02  0.63791536438E+03  0.71204399113E+03  0.51100000000E-03 0.  1.
         22    1    1    2    0    0  0.27457026690E+03 -0.10087204622E+03  0.25907255167E+03  0.39074619410E+03  0.00000000000E+00 0.  1.
          2    1    1    2  501    0  0.29442549889E+02  0.13425831808E+02 -0.84487160956E+03  0.84549107231E+03  0.25500000000E-02 0.  1.
<mgrwt>
<rscale>  0 0.32359183E+02</rscale>
<asrwt>0</asrwt>
<pdfrwt beam="1">  1       11 0.10000000E+01 0.30757799E+03</pdfrwt>
<pdfrwt beam="2">  1        2 0.14588783E+00 0.32359183E+02</pdfrwt>
<totfact> 0.39139797E+01</totfact>
</mgrwt>
</event>
<event>
 5    1  0.2799727E-003  0.2045362E+03  0.7818608E-02  0.1150382E+00
         11   -1    0    0    0    0  0.00000000000E+00  0.00000000000E+00  0.10000645296E+04  0.10000645296E+04  0.51100000000E-03 0. -1.
         -2   -1    0    0    0  501 -0.00000000000E+00 -0.00000000000E+00 -0.14043174957E+03  0.14043174959E+03  0.25500000000E-02 0.  1.
         11    1    1    2    0    0  0.27944538324E+02  0.69177705625E+01  0.73104540149E+02  0.78568610541E+02  0.51100000000E-03 0. -1.
         22    1    1    2    0    0  0.16983623615E+03  0.17149501587E+02  0.83876125508E+03  0.85595496116E+03  0.00000000000E+00 0. -1.
         -2    1    1    2    0  501 -0.19778077447E+03 -0.24067272150E+02 -0.52233015216E+02  0.20597270747E+03  0.25500000000E-02 0.  1.
<mgrwt>
<rscale>  0 0.19923973E+03</rscale>
<asrwt>0</asrwt>
<pdfrwt beam="1">  1       11 0.10000000E+01 0.20453625E+03</pdfrwt>
<pdfrwt beam="2">  1       -2 0.21606278E-01 0.19923973E+03</pdfrwt>
<totfact> 0.14660902E+02</totfact>
</mgrwt>
</event>
<event>
 5    1  0.2799727E-003  0.3266254E+03  0.7818608E-02  0.1072640E+00
         11   -1    0    0    0    0  0.00000000000E+00  0.00000000000E+00  0.10000700399E+04  0.10000700399E+04  0.51100000000E-03 0. -1.
          2   -1    0    0  501    0 -0.00000000000E+00 -0.00000000000E+00 -0.66719894868E+03  0.66719894868E+03  0.25500000000E-02 0. -1.
         11    1    1    2    0    0 -0.28867055642E+03 -0.60377261890E+02  0.89954882870E+03  0.94665949481E+03  0.51100000000E-03 0. -1.
         22    1    1    2    0    0 -0.38106977904E+02  0.29994802465E+02  0.16669805012E+02  0.51280720929E+02  0.00000000000E+00 0. -1.
          2    1    1    2  501    0  0.32677753432E+03  0.30382459425E+02 -0.58334754251E+03  0.66932877283E+03  0.25500000000E-02 0. -1.
<mgrwt>
<rscale>  0 0.32662541E+03</rscale>
<asrwt>0</asrwt>
<pdfrwt beam="1">  1       11 0.10000000E+01 0.48495669E+02</pdfrwt>
<pdfrwt beam="2">  1        2 0.10265318E+00 0.32662541E+03</pdfrwt>
<totfact> 0.55199150E+01</totfact>
</mgrwt>
</event>
<event>
 5    1  0.2799727E-003  0.3699529E+03  0.7818608E-02  0.1058257E+00
         11   -1    0    0    0    0  0.00000000000E+00  0.00000000000E+00  0.10008607914E+04  0.10008607914E+04  0.51100000000E-03 0.  1.
          2   -1    0    0  501    0 -0.00000000000E+00 -0.00000000000E+00 -0.13208080936E+04  0.13208080936E+04  0.25500000000E-02 0.  1.
         11    1    1    2    0    0 -0.31106506525E+03  0.11103652381E+03  0.79996565896E+03  0.86546845117E+03  0.51100000000E-03 0.  1.
         22    1    1    2    0    0 -0.35173775585E+02 -0.94732244182E+01  0.14050554187E+03  0.14515076220E+03  0.00000000000E+00 0. -1.
          2    1    1    2  501    0  0.34623884084E+03 -0.10156329939E+03 -0.12604185030E+04  0.13110496716E+04  0.25500000000E-02 0.  1.
<mgrwt>
<rscale>  0 0.36082744E+03</rscale>
<asrwt>0</asrwt>
<pdfrwt beam="1">  1       11 0.10000000E+01 0.36995285E+03</pdfrwt>
<pdfrwt beam="2">  1        2 0.20337615E+00 0.36082744E+03</pdfrwt>
<totfact> 0.20990201E+01</totfact>
</mgrwt>
</event>
<event>
 5    1  0.2799727E-003  0.1003850E+03  0.7818608E-02  0.1482881E+00
         11   -1    0    0    0    0  0.00000000000E+00  0.00000000000E+00  0.10003320816E+04  0.10003320816E+04  0.51100000000E-03 0. -1.
          2   -1    0    0  501    0 -0.00000000000E+00 -0.00000000000E+00 -0.13945810612E+02  0.13945810845E+02  0.25500000000E-02 0. -1.
         11    1    1    2    0    0  0.95902315401E+02  0.33611152491E+02  0.33457635956E+03  0.34966884913E+03  0.51100000000E-03 0. -1.
         22    1    1    2    0    0  0.33265439549E+01 -0.18695707916E+02  0.36234489594E+02  0.40908845319E+02  0.00000000000E+00 0. -1.
          2    1    1    2  501    0 -0.99228859356E+02 -0.14915444575E+02  0.61557542184E+03  0.62370019801E+03  0.25500000000E-02 0. -1.
<mgrwt>
<rscale>  0 0.43660564E+02</rscale>
<asrwt>0</asrwt>
<pdfrwt beam="1">  1       11 0.10000000E+01 0.10038500E+03</pdfrwt>
<pdfrwt beam="2">  1        2 0.21462218E-02 0.43660564E+02</pdfrwt>
<totfact> 0.48853662E+03</totfact>
</mgrwt>
</event>
<event>
 5    1  0.2799727E-003  0.1234900E+03  0.7818608E-02  0.1399283E+00
         11   -1    0    0    0    0  0.00000000000E+00  0.00000000000E+00  0.10000469422E+04  0.10000469422E+04  0.51100000000E-03 0. -1.
          2   -1    0    0  501    0 -0.00000000000E+00 -0.00000000000E+00 -0.19291935723E+03  0.19291935725E+03  0.25500000000E-02 0. -1.
         11    1    1    2    0    0  0.34894366266E+02 -0.15198144271E+03  0.66592903602E+03  0.68394258293E+03  0.51100000000E-03 0. -1.
         22    1    1    2    0    0 -0.13959030731E+02  0.96120101688E+02  0.31270301947E+03  0.32744023405E+03  0.00000000000E+00 0. -1.
          2    1    1    2  501    0 -0.20935335535E+02  0.55861341024E+02 -0.17150447052E+03  0.18158348248E+03  0.25500000000E-02 0. -1.
<mgrwt>
<rscale>  0 0.59655492E+02</rscale>
<asrwt>0</asrwt>
<pdfrwt beam="1">  1       11 0.10000000E+01 0.12348997E+03</pdfrwt>
<pdfrwt beam="2">  1        2 0.29681294E-01 0.59655492E+02</pdfrwt>
<totfact> 0.21293194E+02</totfact>
</mgrwt>
</event>
<event>
 5    1  0.8660090E-003  0.2361723E+03  0.7818608E-02  0.1123268E+00
         11   -1    0    0    0    0  0.00000000000E+00  0.00000000000E+00  0.99964769002E+03  0.99964769002E+03  0.51100000000E-03 0. -1.
          2   -1    0    0  501    0 -0.00000000000E+00 -0.00000000000E+00 -0.20529848979E+04  0.20529848979E+04  0.25500000000E-02 0. -1.
         11    1    1    2    0    0  0.20103104605E+03  0.94498330688E+02  0.92300368586E+03  0.94935726683E+03  0.51100000000E-03 0. -1.
         22    1    1    2    0    0  0.14026558036E+02 -0.11962845985E+00  0.55836774152E+02  0.57571729078E+02  0.00000000000E+00 0.  1.
          2    1    1    2  501    0 -0.21505760409E+03 -0.94378702228E+02 -0.20321776679E+04  0.20457035920E+04  0.25500000000E-02 0. -1.
<mgrwt>
<rscale>  0 0.23485551E+03</rscale>
<asrwt>0</asrwt>
<pdfrwt beam="1">  1       11 0.10000000E+01 0.23617230E+03</pdfrwt>
<pdfrwt beam="2">  1        2 0.31573255E+00 0.23485551E+03</pdfrwt>
<totfact> 0.88693447E+00</totfact>
</mgrwt>
</event>
<event>
 5    1  0.2799727E-003  0.5561048E+02  0.7818608E-02  0.1436265E+00
         11   -1    0    0    0    0  0.00000000000E+00  0.00000000000E+00  0.10001663072E+04  0.10001663072E+04  0.51100000000E-03 0. -1.
          2   -1    0    0  501    0 -0.00000000000E+00 -0.00000000000E+00 -0.54469101681E+01  0.54469107650E+01  0.25500000000E-02 0. -1.
         11    1    1    2    0    0 -0.29828831189E+02 -0.18328508002E+02  0.81750636268E+02  0.88931771073E+02  0.51100000000E-03 0. -1.
         22    1    1    2    0    0 -0.18493354788E+02 -0.11605091378E+00  0.80059058131E+02  0.82167331878E+02  0.00000000000E+00 0. -1.
          2    1    1    2  501    0  0.48322185978E+02  0.18444558915E+02  0.83290970267E+03  0.83451411505E+03  0.25500000000E-02 0. -1.
<mgrwt>
<rscale>  0 0.51722678E+02</rscale>
<asrwt>0</asrwt>
<pdfrwt beam="1">  1       11 0.10000000E+01 0.55610483E+02</pdfrwt>
<pdfrwt beam="2">  1        2 0.83812557E-03 0.51722678E+02</pdfrwt>
<totfact> 0.17597389E+04</totfact>
</mgrwt>
</event>
<event>
 5    1  0.2799727E-003  0.2372580E+03  0.7818608E-02  0.1126813E+00
         11   -1    0    0    0    0  0.00000000000E+00  0.00000000000E+00  0.10003455273E+04  0.10003455273E+04  0.51100000000E-03 0. -1.
         -2   -1    0    0    0  501 -0.00000000000E+00 -0.00000000000E+00 -0.54944507377E+02  0.54944507436E+02  0.25500000000E-02 0.  1.
         11    1    1    2    0    0  0.61039664960E+02  0.15516222088E+03  0.35956058648E+03  0.39633946415E+03  0.51100000000E-03 0. -1.
         22    1    1    2    0    0  0.10703180953E+02  0.63103910160E+02  0.73561076516E+02  0.97508428037E+02  0.00000000000E+00 0. -1.
         -2    1    1    2    0  501 -0.71742845913E+02 -0.21826613104E+03  0.51227935692E+03  0.56144214255E+03  0.25500000000E-02 0.  1.
<mgrwt>
<rscale>  0 0.22975452E+03</rscale>
<asrwt>0</asrwt>
<pdfrwt beam="1">  1       11 0.10000000E+01 0.23725801E+03</pdfrwt>
<pdfrwt beam="2">  1       -2 0.84559216E-02 0.22975452E+03</pdfrwt>
<totfact> 0.68539931E+02</totfact>
</mgrwt>
</event>
<event>
 5    1  0.2799727E-003  0.1076002E+03  0.7818608E-02  0.1265080E+00
         11   -1    0    0    0    0  0.00000000000E+00  0.00000000000E+00  0.10000020898E+04  0.10000020898E+04  0.51100000000E-03 0. -1.
         -2   -1    0    0    0  501 -0.00000000000E+00 -0.00000000000E+00 -0.14668746501E+03  0.14668746503E+03  0.25500000000E-02 0.  1.
         11    1    1    2    0    0 -0.10918006705E+03 -0.14283357668E+03  0.51686532404E+03  0.54723987506E+03  0.51100000000E-03 0. -1.
         22    1    1    2    0    0  0.48798814406E+02  0.57289699711E+02  0.44342077638E+03  0.44976151336E+03  0.00000000000E+00 0. -1.
         -2    1    1    2    0  501  0.60381252645E+02  0.85543876965E+02 -0.10697147562E+03  0.14968816640E+03  0.25500000000E-02 0.  1.
<mgrwt>
<rscale>  0 0.10760021E+03</rscale>
<asrwt>0</asrwt>
<pdfrwt beam="1">  1       11 0.10000000E+01 0.75255790E+02</pdfrwt>
<pdfrwt beam="2">  1       -2 0.22567349E-01 0.10760021E+03</pdfrwt>
<totfact> 0.13361827E+02</totfact>
</mgrwt>
</event>
<event>
 5    1  0.2799727E-003  0.4967819E+02  0.7818608E-02  0.1447085E+00
         11   -1    0    0    0    0  0.00000000000E+00  0.00000000000E+00  0.10001123025E+04  0.10001123025E+04  0.51100000000E-03 0.  1.
          2   -1    0    0  501    0 -0.00000000000E+00 -0.00000000000E+00 -0.51458813771E+01  0.51458820089E+01  0.25500000000E-02 0.  1.
         11    1    1    2    0    0 -0.34502224003E+01  0.18680954786E+02  0.83050618545E+02  0.85195582910E+02  0.51100000000E-03 0.  1.
         22    1    1    2    0    0 -0.48932251253E+02 -0.39991223139E+01  0.19498992779E+03  0.20107568259E+03  0.00000000000E+00 0.  1.
          2    1    1    2  501    0  0.52382473654E+02 -0.14681832472E+02  0.71692587483E+03  0.71898691904E+03  0.25500000000E-02 0.  1.
<mgrwt>
<rscale>  0 0.49678190E+02</rscale>
<asrwt>0</asrwt>
<pdfrwt beam="1">  1       11 0.10000000E+01 0.18996907E+02</pdfrwt>
<pdfrwt beam="2">  1        2 0.79176299E-03 0.49678190E+02</pdfrwt>
<totfact> 0.18851826E+04</totfact>
</mgrwt>
</event>
<event>
 5    1  0.2799727E-003  0.1859152E+03  0.7818608E-02  0.1167942E+00
         11   -1    0    0    0    0  0.00000000000E+00  0.00000000000E+00  0.99980972990E+03  0.99980972990E+03  0.51100000000E-03 0.  1.
          2   -1    0    0  501    0 -0.00000000000E+00 -0.00000000000E+00 -0.74641744521E+02  0.74641744565E+02  0.25500000000E-02 0.  1.
         11    1    1    2    0    0 -0.10966251441E+02  0.17052494391E+03  0.81228599667E+03  0.83006478997E+03  0.51100000000E-03 0.  1.
         22    1    1    2    0    0  0.11187711202E+02  0.93310559236E+01  0.52780855955E+02  0.54754472346E+02  0.00000000000E+00 0.  1.
          2    1    1    2  501    0 -0.22145976142E+00 -0.17985599983E+03  0.60101132759E+02  0.18963221215E+03  0.25500000000E-02 0.  1.
<mgrwt>
<rscale>  0 0.17985614E+03</rscale>
<asrwt>0</asrwt>
<pdfrwt beam="1">  1       11 0.10000000E+01 0.18591522E+03</pdfrwt>
<pdfrwt beam="2">  1        2 0.11481160E-01 0.17985614E+03</pdfrwt>
<totfact> 0.65199595E+02</totfact>
</mgrwt>
</event>
<event>
 5    1  0.2799727E-003  0.6841908E+02  0.7818608E-02  0.1566415E+00
         11   -1    0    0    0    0  0.00000000000E+00  0.00000000000E+00  0.10001642416E+04  0.10001642416E+04  0.51100000000E-03 0.  1.
          2   -1    0    0  501    0 -0.00000000000E+00 -0.00000000000E+00 -0.13520462637E+02  0.13520462878E+02  0.25500000000E-02 0.  1.
         11    1    1    2    0    0 -0.20116561620E+02 -0.70067280047E+02  0.29733650239E+03  0.30614227973E+03  0.51100000000E-03 0.  1.
         22    1    1    2    0    0  0.44001496434E+02  0.47191503125E+02  0.11175484946E+03  0.12904385314E+03  0.00000000000E+00 0.  1.
          2    1    1    2  501    0 -0.23884934813E+02  0.22875776922E+02  0.57755242708E+03  0.57849857157E+03  0.25500000000E-02 0.  1.
<mgrwt>
<rscale>  0 0.33072516E+02</rscale>
<asrwt>0</asrwt>
<pdfrwt beam="1">  1       11 0.10000000E+01 0.68419081E+02</pdfrwt>
<pdfrwt beam="2">  1        2 0.20804128E-02 0.33072516E+02</pdfrwt>
<totfact> 0.48680848E+03</totfact>
</mgrwt>
</event>
<event>
 5    1  0.2799727E-003  0.2895726E+03  0.7818608E-02  0.1090573E+00
         11   -1    0    0    0    0  0.00000000000E+00  0.00000000000E+00  0.10001164908E+04  0.10001164908E+04  0.51100000000E-03 0. -1.
          2   -1    0    0  501    0 -0.00000000000E+00 -0.00000000000E+00 -0.35116375596E+03  0.35116375597E+03  0.25500000000E-02 0. -1.
         11    1    1    2    0    0 -0.20728742410E+03  0.13078883721E+03  0.26963605086E+03  0.36438632803E+03  0.51100000000E-03 0. -1.
         22    1    1    2    0    0  0.22664222696E+03  0.17151016218E+03  0.56438752793E+03  0.63191432683E+03  0.00000000000E+00 0. -1.
          2    1    1    2  501    0 -0.19354802864E+02 -0.30229899939E+03 -0.18507084391E+03  0.35497959195E+03  0.25500000000E-02 0. -1.
<mgrwt>
<rscale>  0 0.28957255E+03</rscale>
<asrwt>0</asrwt>
<pdfrwt beam="1">  1       11 0.10000000E+01 0.24509956E+03</pdfrwt>
<pdfrwt beam="2">  1        2 0.54031485E-01 0.28957255E+03</pdfrwt>
<totfact> 0.11437446E+02</totfact>
</mgrwt>
</event>
<event>
 5    1  0.2799727E-003  0.2196044E+03  0.7818608E-02  0.1137904E+00
         11   -1    0    0    0    0  0.00000000000E+00  0.00000000000E+00  0.10001192298E+04  0.10001192298E+04  0.51100000000E-03 0. -1.
          2   -1    0    0  501    0 -0.00000000000E+00 -0.00000000000E+00 -0.68160843774E+02  0.68160843822E+02  0.25500000000E-02 0. -1.
         11    1    1    2    0    0 -0.13210162281E+03  0.15454019555E+03  0.68211933537E+03  0.71177264522E+03  0.51100000000E-03 0. -1.
         22    1    1    2    0    0 -0.60348311422E+00  0.14224444180E+02  0.84069187339E+02  0.85266214083E+02  0.00000000000E+00 0. -1.
          2    1    1    2  501    0  0.13270510592E+03 -0.16876463973E+03  0.16576986333E+03  0.27124121434E+03  0.25500000000E-02 0. -1.
<mgrwt>
<rscale>  0 0.21469082E+03</rscale>
<asrwt>0</asrwt>
<pdfrwt beam="1">  1       11 0.10000000E+01 0.21960440E+03</pdfrwt>
<pdfrwt beam="2">  1        2 0.10487534E-01 0.21469082E+03</pdfrwt>
<totfact> 0.73483334E+02</totfact>
</mgrwt>
</event>
<event>
 5    1  0.2799727E-003  0.3388460E+02  0.7818608E-02  0.1558735E+00
         11   -1    0    0    0    0  0.00000000000E+00  0.00000000000E+00  0.10003475346E+04  0.10003475346E+04  0.51100000000E-03 0.  1.
          2   -1    0    0  501    0 -0.00000000000E+00 -0.00000000000E+00 -0.76046910106E+01  0.76046914382E+01  0.25500000000E-02 0.  1.
         11    1    1    2    0    0 -0.34648119309E+01  0.11194188668E+02  0.60280634346E+00  0.11733633598E+02  0.51100000000E-03 0.  1.
         22    1    1    2    0    0 -0.19588579738E+02  0.25257578561E+02  0.17196493888E+03  0.17491025681E+03  0.00000000000E+00 0.  1.
          2    1    1    2  501    0  0.23053391669E+02 -0.36451767229E+02  0.82017509832E+03  0.82130833559E+03  0.25500000000E-02 0.  1.
<mgrwt>
<rscale>  0 0.33884603E+02</rscale>
<asrwt>0</asrwt>
<pdfrwt beam="1">  1       11 0.10000000E+01 0.11718145E+02</pdfrwt>
<pdfrwt beam="2">  1        2 0.11703591E-02 0.33884603E+02</pdfrwt>
<totfact> 0.10390014E+04</totfact>
</mgrwt>
</event>
<event>
 5    1  0.2799727E-003  0.3128507E+02  0.7818608E-02  0.1780275E+00
         11   -1    0    0    0    0  0.00000000000E+00  0.00000000000E+00  0.10004560018E+04  0.10004560018E+04  0.51100000000E-03 0. -1.
          2   -1    0    0  501    0 -0.00000000000E+00 -0.00000000000E+00 -0.56678061506E+01  0.56678067242E+01  0.25500000000E-02 0. -1.
         11    1    1    2    0    0 -0.16729356745E+02 -0.19039438093E+02  0.29986405827E+02  0.39262655472E+02  0.51100000000E-03 0. -1.
         22    1    1    2    0    0 -0.10423448888E+02  0.26837440171E+01  0.37405177289E+02  0.38922975949E+02  0.00000000000E+00 0. -1.
          2    1    1    2  501    0  0.27152805633E+02  0.16355694076E+02  0.92739661254E+03  0.92793817711E+03  0.25500000000E-02 0. -1.
<mgrwt>
<rscale>  0 0.18350300E+02</rscale>
<asrwt>0</asrwt>
<pdfrwt beam="1">  1       11 0.10000000E+01 0.31285067E+02</pdfrwt>
<pdfrwt beam="2">  1        2 0.87236782E-03 0.18350300E+02</pdfrwt>
<totfact> 0.13324870E+04</totfact>
</mgrwt>
</event>
<event>
 5    1  0.2799727E-003  0.2591251E+03  0.7818608E-02  0.1107670E+00
         11   -1    0    0    0    0  0.00000000000E+00  0.00000000000E+00  0.99989114141E+03  0.99989114141E+03  0.51100000000E-03 0. -1.
          2   -1    0    0  501    0 -0.00000000000E+00 -0.00000000000E+00 -0.89922528200E+03  0.89922528200E+03  0.25500000000E-02 0. -1.
         11    1    1    2    0    0  0.30336938115E+03 -0.16840573502E+02  0.38048751988E+03  0.48691615204E+03  0.51100000000E-03 0. -1.
         22    1    1    2    0    0 -0.53790494207E+02  0.81051432126E+02  0.54213404085E+03  0.55079222050E+03  0.00000000000E+00 0. -1.
          2    1    1    2  501    0 -0.24957888694E+03 -0.64210858624E+02 -0.82195570132E+03  0.86140805087E+03  0.25500000000E-02 0. -1.
<mgrwt>
<rscale>  0 0.25912513E+03</rscale>
<asrwt>0</asrwt>
<pdfrwt beam="1">  1       11 0.10000000E+01 0.97276677E+02</pdfrwt>
<pdfrwt beam="2">  1        2 0.13832729E+00 0.25912513E+03</pdfrwt>
<totfact> 0.38103591E+01</totfact>
</mgrwt>
</event>
<event>
 5    1  0.2799727E-003  0.1532199E+03  0.7818608E-02  0.1199114E+00
         11   -1    0    0    0    0  0.00000000000E+00  0.00000000000E+00  0.10003221161E+04  0.10003221161E+04  0.51100000000E-03 0. -1.
         -2   -1    0    0    0  501 -0.00000000000E+00 -0.00000000000E+00 -0.23202472432E+02  0.23202472573E+02  0.25500000000E-02 0.  1.
         11    1    1    2    0    0  0.35852211838E+02 -0.13164500476E+03  0.43902868770E+03  0.45974120655E+03  0.51100000000E-03 0. -1.
         22    1    1    2    0    0  0.62718810300E+00 -0.14996864495E+02  0.27862164257E+02  0.31648056918E+02  0.00000000000E+00 0. -1.
         -2    1    1    2    0  501 -0.36479399941E+02  0.14664186925E+03  0.51022879166E+03  0.53213532516E+03  0.25500000000E-02 0.  1.
<mgrwt>
<rscale>  0 0.15111117E+03</rscale>
<asrwt>0</asrwt>
<pdfrwt beam="1">  1       11 0.10000000E+01 0.15321991E+03</pdfrwt>
<pdfrwt beam="2">  1       -2 0.35707609E-02 0.15111117E+03</pdfrwt>
<totfact> 0.24653423E+03</totfact>
</mgrwt>
</event>
<event>
 5    1  0.2799727E-003  0.2206341E+03  0.7818608E-02  0.1141287E+00
         11   -1    0    0    0    0  0.00000000000E+00  0.00000000000E+00  0.10000381742E+04  0.10000381742E+04  0.51100000000E-03 0.  1.
          2   -1    0    0  501    0 -0.00000000000E+00 -0.00000000000E+00 -0.34028354107E+03  0.34028354108E+03  0.25500000000E-02 0. -1.
         11    1    1    2    0    0 -0.68172238243E+02 -0.11683634603E+03  0.48775954996E+03  0.50616950164E+03  0.51100000000E-03 0.  1.
         22    1    1    2    0    0 -0.75639943457E+01 -0.79409560237E+02  0.46592614271E+03  0.47270525989E+03  0.00000000000E+00 0.  1.
          2    1    1    2  501    0  0.75736232588E+02  0.19624590627E+03 -0.29393105950E+03  0.36144695379E+03  0.25500000000E-02 0. -1.
<mgrwt>
<rscale>  0 0.21035311E+03</rscale>
<asrwt>0</asrwt>
<pdfrwt beam="1">  1       11 0.10000000E+01 0.22063408E+03</pdfrwt>
<pdfrwt beam="2">  1        2 0.52353311E-01 0.21035311E+03</pdfrwt>
<totfact> 0.11845444E+02</totfact>
</mgrwt>
</event>
<event>
 5    1  0.2799727E-003  0.2907846E+03  0.7818608E-02  0.1096834E+00
         11   -1    0    0    0    0  0.00000000000E+00  0.00000000000E+00  0.10004037938E+04  0.10004037938E+04  0.51100000000E-03 0. -1.
          2   -1    0    0  501    0 -0.00000000000E+00 -0.00000000000E+00 -0.11618522446E+04  0.11618522446E+04  0.25500000000E-02 0. -1.
         11    1    1    2    0    0 -0.13998099327E+03 -0.12462398107E+03  0.69041354640E+03  0.71539966466E+03  0.51100000000E-03 0. -1.
         22    1    1    2    0    0 -0.28532398157E+02 -0.96371697851E+02  0.27156368910E+03  0.28956594953E+03  0.00000000000E+00 0.  1.
          2    1    1    2  501    0  0.16851339142E+03  0.22099567892E+03 -0.11234256864E+04  0.11572904242E+04  0.25500000000E-02 0. -1.
<mgrwt>
<rscale>  0 0.27791339E+03</rscale>
<asrwt>0</asrwt>
<pdfrwt beam="1">  1       11 0.10000000E+01 0.29078460E+03</pdfrwt>
<pdfrwt beam="2">  1        2 0.17881867E+00 0.27791339E+03</pdfrwt>
<totfact> 0.26264560E+01</totfact>
</mgrwt>
</event>
<event>
 5    1  0.2799727E-003  0.2341544E+03  0.7818608E-02  0.1129777E+00
         11   -1    0    0    0    0  0.00000000000E+00  0.00000000000E+00  0.10002790104E+04  0.10002790104E+04  0.51100000000E-03 0. -1.
          2   -1    0    0  501    0 -0.00000000000E+00 -0.00000000000E+00 -0.44509738236E+03  0.44509738236E+03  0.25500000000E-02 0. -1.
         11    1    1    2    0    0 -0.58987585575E+02  0.35325586270E+02  0.22692369410E+03  0.23711135620E+03  0.51100000000E-03 0. -1.
         22    1    1    2    0    0 -0.79971499488E+02  0.14239541065E+03  0.72971267658E+03  0.74776499254E+03  0.00000000000E+00 0. -1.
          2    1    1    2  501    0  0.13895908506E+03 -0.17772099692E+03 -0.40145474269E+03  0.46050004397E+03  0.25500000000E-02 0. -1.
<mgrwt>
<rscale>  0 0.22559783E+03</rscale>
<asrwt>0</asrwt>
<pdfrwt beam="1">  1       11 0.10000000E+01 0.23415439E+03</pdfrwt>
<pdfrwt beam="2">  1        2 0.68495624E-01 0.22559783E+03</pdfrwt>
<totfact> 0.88438215E+01</totfact>
</mgrwt>
</event>
<event>
 5    1  0.2799727E-003  0.1110825E+03  0.7818608E-02  0.1600952E+00
         11   -1    0    0    0    0  0.00000000000E+00  0.00000000000E+00  0.10002373024E+04  0.10002373024E+04  0.51100000000E-03 0.  1.
         -2   -1    0    0    0  501 -0.00000000000E+00 -0.00000000000E+00 -0.15526832235E+03  0.15526832237E+03  0.25500000000E-02 0.  1.
         11    1    1    2    0    0 -0.44175443831E+02  0.98688331967E+02  0.51079774911E+03  0.52211607637E+03  0.51100000000E-03 0.  1.
         22    1    1    2    0    0  0.19416795600E+02 -0.11516953490E+03  0.47515696197E+03  0.48930069715E+03  0.00000000000E+00 0.  1.
         -2    1    1    2    0  501  0.24758648231E+02  0.16481202933E+02 -0.14098573100E+03  0.14408885128E+03  0.25500000000E-02 0.  1.
<mgrwt>
<rscale>  0 0.29742574E+02</rscale>
<asrwt>0</asrwt>
<pdfrwt beam="1">  1       11 0.10000000E+01 0.11108251E+03</pdfrwt>
<pdfrwt beam="2">  1       -2 0.23893102E-01 0.29742574E+02</pdfrwt>
<totfact> 0.11509218E+02</totfact>
</mgrwt>
</event>
<event>
 5    1  0.2799727E-003  0.1504723E+03  0.7818608E-02  0.1199894E+00
         11   -1    0    0    0    0  0.00000000000E+00  0.00000000000E+00  0.10001111501E+04  0.10001111501E+04  0.51100000000E-03 0. -1.
          2   -1    0    0  501    0 -0.00000000000E+00 -0.00000000000E+00 -0.47060071010E+02  0.47060071079E+02  0.25500000000E-02 0. -1.
         11    1    1    2    0    0 -0.13011782240E+03  0.53218868041E+02  0.24742792812E+03  0.28457595688E+03  0.51100000000E-03 0. -1.
         22    1    1    2    0    0  0.26806212293E+02  0.10009255164E+03  0.27986938494E+03  0.29843586336E+03  0.00000000000E+00 0. -1.
          2    1    1    2  501    0  0.10331161011E+03 -0.15331141968E+03  0.42575376600E+03  0.46415940092E+03  0.25500000000E-02 0. -1.
<mgrwt>
<rscale>  0 0.15047232E+03</rscale>
<asrwt>0</asrwt>
<pdfrwt beam="1">  1       11 0.10000000E+01 0.10361994E+03</pdfrwt>
<pdfrwt beam="2">  1        2 0.72408155E-02 0.15047232E+03</pdfrwt>
<totfact> 0.11458098E+03</totfact>
</mgrwt>
</event>
<event>
 5    1  0.2799727E-003  0.9520439E+02  0.7818608E-02  0.1290716E+00
         11   -1    0    0    0    0  0.00000000000E+00  0.00000000000E+00  0.10002102279E+04  0.10002102279E+04  0.51100000000E-03 0. -1.
          2   -1    0    0  501    0 -0.00000000000E+00 -0.00000000000E+00 -0.87828172617E+02  0.87828172654E+02  0.25500000000E-02 0. -1.
         11    1    1    2    0    0  0.16532021917E+03 -0.29460506244E+02  0.55423970315E+03  0.57912031984E+03  0.51100000000E-03 0. -1.
         22    1    1    2    0    0 -0.74457303704E+02  0.18881478412E+02  0.40072149127E+03  0.40801729604E+03  0.00000000000E+00 0.  1.
          2    1    1    2  501    0 -0.90862915470E+02  0.10579027832E+02 -0.42579139192E+02  0.10090078463E+03  0.25500000000E-02 0. -1.
<mgrwt>
<rscale>  0 0.95204390E+02</rscale>
<asrwt>0</asrwt>
<pdfrwt beam="1">  1       11 0.10000000E+01 0.76814063E+02</pdfrwt>
<pdfrwt beam="2">  1        2 0.13514867E-01 0.95204390E+02</pdfrwt>
<totfact> 0.51991102E+02</totfact>
</mgrwt>
</event>
<event>
 5    1  0.2799727E-003  0.1765925E+03  0.7818608E-02  0.1172455E+00
         11   -1    0    0    0    0  0.00000000000E+00  0.00000000000E+00  0.10001421004E+04  0.10001421004E+04  0.51100000000E-03 0. -1.
          2   -1    0    0  501    0 -0.00000000000E+00 -0.00000000000E+00 -0.11881202451E+03  0.11881202454E+03  0.25500000000E-02 0. -1.
         11    1    1    2    0    0  0.14310697037E+03 -0.67919765560E+02  0.84186067393E+03  0.85663416569E+03  0.51100000000E-03 0. -1.
         22    1    1    2    0    0  0.12356441219E+02 -0.13029170063E+02  0.80356530771E+02  0.82338405071E+02  0.00000000000E+00 0. -1.
          2    1    1    2  501    0 -0.15546341159E+03  0.80948935623E+02 -0.40887128845E+02  0.17998155415E+03  0.25500000000E-02 0. -1.
<mgrwt>
<rscale>  0 0.17527579E+03</rscale>
<asrwt>0</asrwt>
<pdfrwt beam="1">  1       11 0.10000000E+01 0.17659251E+03</pdfrwt>
<pdfrwt beam="2">  1        2 0.18281370E-01 0.17527579E+03</pdfrwt>
<totfact> 0.37538562E+02</totfact>
</mgrwt>
</event>
<event>
 5    1  0.2799727E-003  0.1396030E+03  0.7818608E-02  0.1218944E+00
         11   -1    0    0    0    0  0.00000000000E+00  0.00000000000E+00  0.10000849364E+04  0.10000849364E+04  0.51100000000E-03 0.  1.
          2   -1    0    0  501    0 -0.00000000000E+00 -0.00000000000E+00 -0.23629180561E+02  0.23629180698E+02  0.25500000000E-02 0.  1.
         11    1    1    2    0    0  0.75337495647E+01 -0.11374412668E+03  0.65193246950E+03  0.66182356299E+03  0.51100000000E-03 0.  1.
         22    1    1    2    0    0 -0.26120919505E+01 -0.22074692042E+02  0.68705486144E+02  0.72211902616E+02  0.00000000000E+00 0. -1.
          2    1    1    2  501    0 -0.49216576142E+01  0.13581881872E+03  0.25581780023E+03  0.28967865153E+03  0.25500000000E-02 0.  1.
<mgrwt>
<rscale>  0 0.13590796E+03</rscale>
<asrwt>0</asrwt>
<pdfrwt beam="1">  1       11 0.10000000E+01 0.13960301E+03</pdfrwt>
<pdfrwt beam="2">  1        2 0.36355672E-02 0.13590796E+03</pdfrwt>
<totfact> 0.27903488E+03</totfact>
</mgrwt>
</event>
<event>
 5    1  0.2799727E-003  0.2135751E+03  0.7818608E-02  0.1139941E+00
         11   -1    0    0    0    0  0.00000000000E+00  0.00000000000E+00  0.10003321957E+04  0.10003321957E+04  0.51100000000E-03 0.  1.
          2   -1    0    0  501    0 -0.00000000000E+00 -0.00000000000E+00 -0.45368155301E+02  0.45368155372E+02  0.25500000000E-02 0.  1.
         11    1    1    2    0    0  0.11737427441E+03  0.15569897867E+03  0.47703353779E+03  0.51534443669E+03  0.51100000000E-03 0.  1.
         22    1    1    2    0    0  0.10452369719E+02  0.13511062530E+02  0.25525076654E+02  0.30713683947E+02  0.00000000000E+00 0. -1.
          2    1    1    2  501    0 -0.12782664413E+03 -0.16921004120E+03  0.45240542595E+03  0.49964223043E+03  0.25500000000E-02 0.  1.
<mgrwt>
<rscale>  0 0.21206529E+03</rscale>
<asrwt>0</asrwt>
<pdfrwt beam="1">  1       11 0.10000000E+01 0.21357507E+03</pdfrwt>
<pdfrwt beam="2">  1        2 0.69820346E-02 0.21206529E+03</pdfrwt>
<totfact> 0.12272148E+03</totfact>
</mgrwt>
</event>
<event>
 5    1  0.2799727E-003  0.4777392E+03  0.7818608E-02  0.1023139E+00
         11   -1    0    0    0    0  0.00000000000E+00  0.00000000000E+00  0.10003949804E+04  0.10003949804E+04  0.51100000000E-03 0. -1.
          2   -1    0    0  501    0 -0.00000000000E+00 -0.00000000000E+00 -0.67979798555E+03  0.67979798556E+03  0.25500000000E-02 0. -1.
         11    1    1    2    0    0 -0.14442593465E+03 -0.64581674906E+02  0.25937885620E+03  0.30382072737E+03  0.51100000000E-03 0. -1.
         22    1    1    2    0    0 -0.20145590113E+03 -0.24726299440E+03  0.59065125320E+03  0.67126177562E+03  0.00000000000E+00 0.  1.
          2    1    1    2  501    0  0.34588183578E+03  0.31184466931E+03 -0.52943311460E+03  0.70511046293E+03  0.25500000000E-02 0. -1.
<mgrwt>
<rscale>  0 0.46570521E+03</rscale>
<asrwt>0</asrwt>
<pdfrwt beam="1">  1       11 0.10000000E+01 0.47773916E+03</pdfrwt>
<pdfrwt beam="2">  1        2 0.10462561E+00 0.46570521E+03</pdfrwt>
<totfact> 0.53394653E+01</totfact>
</mgrwt>
</event>
<event>
 5    1  0.2799727E-003  0.1541330E+03  0.7818608E-02  0.1351580E+00
         11   -1    0    0    0    0  0.00000000000E+00  0.00000000000E+00  0.10005658387E+04  0.10005658387E+04  0.51100000000E-03 0. -1.
          2   -1    0    0  501    0 -0.00000000000E+00 -0.00000000000E+00 -0.40797559256E+03  0.40797559257E+03  0.25500000000E-02 0. -1.
         11    1    1    2    0    0 -0.13664248240E+03  0.37772393016E+02  0.60596866295E+03  0.62233105511E+03  0.51100000000E-03 0. -1.
         22    1    1    2    0    0  0.19796629268E+03  0.10240389140E+01  0.35730914665E+03  0.40848687613E+03  0.00000000000E+00 0. -1.
          2    1    1    2  501    0 -0.61323810271E+02 -0.38796431930E+02 -0.37068756341E+03  0.37772350008E+03  0.25500000000E-02 0. -1.
<mgrwt>
<rscale>  0 0.72565645E+02</rscale>
<asrwt>0</asrwt>
<pdfrwt beam="1">  1       11 0.10000000E+01 0.15413305E+03</pdfrwt>
<pdfrwt beam="2">  1        2 0.62800989E-01 0.72565645E+02</pdfrwt>
<totfact> 0.97952083E+01</totfact>
</mgrwt>
</event>
<event>
 5    1  0.2799727E-003  0.2369698E+03  0.7818608E-02  0.1122625E+00
         11   -1    0    0    0    0  0.00000000000E+00  0.00000000000E+00  0.10000888102E+04  0.10000888102E+04  0.51100000000E-03 0. -1.
          2   -1    0    0  501    0 -0.00000000000E+00 -0.00000000000E+00 -0.11213297945E+03  0.11213297948E+03  0.25500000000E-02 0. -1.
         11    1    1    2    0    0  0.66196501362E+01  0.78372057687E+01  0.54690580650E+02  0.55644417279E+02  0.51100000000E-03 0. -1.
         22    1    1    2    0    0  0.18388637252E+03  0.13111461532E+03  0.78374642687E+03  0.81563699155E+03  0.00000000000E+00 0. -1.
          2    1    1    2  501    0 -0.19050602266E+03 -0.13895182109E+03  0.49518823202E+02  0.24094038082E+03  0.25500000000E-02 0. -1.
<mgrwt>
<rscale>  0 0.23579685E+03</rscale>
<asrwt>0</asrwt>
<pdfrwt beam="1">  1       11 0.10000000E+01 0.23696978E+03</pdfrwt>
<pdfrwt beam="2">  1        2 0.17252759E-01 0.23579685E+03</pdfrwt>
<totfact> 0.40537562E+02</totfact>
</mgrwt>
</event>
<event>
 5    1  0.2799727E-003  0.9048902E+02  0.7818608E-02  0.1301672E+00
         11   -1    0    0    0    0  0.00000000000E+00  0.00000000000E+00  0.99993072881E+03  0.99993072881E+03  0.51100000000E-03 0. -1.
          2   -1    0    0  501    0 -0.00000000000E+00 -0.00000000000E+00 -0.68844657282E+03  0.68844657282E+03  0.25500000000E-02 0. -1.
         11    1    1    2    0    0 -0.59962267061E+02 -0.56346244949E+01  0.18171381561E+03  0.19143440978E+03  0.51100000000E-03 0. -1.
         22    1    1    2    0    0  0.14664327526E+03 -0.19607933431E+02  0.80359309078E+03  0.81709887822E+03  0.00000000000E+00 0.  1.
          2    1    1    2  501    0 -0.86681008200E+02  0.25242557926E+02 -0.67382275040E+03  0.67984401363E+03  0.25500000000E-02 0. -1.
<mgrwt>
<rscale>  0 0.90489018E+02</rscale>
<asrwt>0</asrwt>
<pdfrwt beam="1">  1       11 0.10000000E+01 0.60226427E+02</pdfrwt>
<pdfrwt beam="2">  1        2 0.10590752E+00 0.90489018E+02</pdfrwt>
<totfact> 0.55175258E+01</totfact>
</mgrwt>
</event>
<event>
 5    1  0.2799727E-003  0.8863751E+02  0.7818608E-02  0.1315403E+00
         11   -1    0    0    0    0  0.00000000000E+00  0.00000000000E+00  0.10004550935E+04  0.10004550935E+04  0.51100000000E-03 0.  1.
         -2   -1    0    0    0  501 -0.00000000000E+00 -0.00000000000E+00 -0.77930940748E+01  0.77930944920E+01  0.25500000000E-02 0. -1.
         11    1    1    2    0    0 -0.45432961102E+02 -0.77527118527E+01  0.24599608729E+03  0.25027651400E+03  0.51100000000E-03 0.  1.
         22    1    1    2    0    0 -0.39356264446E+02  0.13892427128E+02  0.16864064826E+03  0.17372847587E+03  0.00000000000E+00 0. -1.
         -2    1    1    2    0  501  0.84789225547E+02 -0.61397152755E+01  0.57802526390E+03  0.58424319815E+03  0.25500000000E-02 0. -1.
<mgrwt>
<rscale>  0 0.85011228E+02</rscale>
<asrwt>0</asrwt>
<pdfrwt beam="1">  1       11 0.10000000E+01 0.88637514E+02</pdfrwt>
<pdfrwt beam="2">  1       -2 0.11994832E-02 0.85011228E+02</pdfrwt>
<totfact> 0.11121418E+04</totfact>
</mgrwt>
</event>
<event>
 5    1  0.2799727E-003  0.2693119E+03  0.7818608E-02  0.1107746E+00
         11   -1    0    0    0    0  0.00000000000E+00  0.00000000000E+00  0.10012271487E+04  0.10012271487E+04  0.51100000000E-03 0.  1.
          2   -1    0    0  501    0 -0.00000000000E+00 -0.00000000000E+00 -0.21816212608E+04  0.21816212608E+04  0.25500000000E-02 0.  1.
         11    1    1    2    0    0  0.38411090870E+02  0.23575221111E+03  0.90581609129E+03  0.93678028811E+03  0.51100000000E-03 0.  1.
         22    1    1    2    0    0 -0.17275807784E+02  0.22383929480E+02  0.69407841768E+02  0.74946262965E+02  0.00000000000E+00 0. -1.
          2    1    1    2  501    0 -0.21135283085E+02 -0.25813614060E+03 -0.21556180452E+04  0.21711218584E+04  0.25500000000E-02 0.  1.
<mgrwt>
<rscale>  0 0.25899994E+03</rscale>
<asrwt>0</asrwt>
<pdfrwt beam="1">  1       11 0.10000000E+01 0.26931189E+03</pdfrwt>
<pdfrwt beam="2">  1        2 0.33604590E+00 0.25899994E+03</pdfrwt>
<totfact> 0.74789458E+00</totfact>
</mgrwt>
</event>
<event>
 5    1  0.2799727E-003  0.2214117E+03  0.7818608E-02  0.1180060E+00
         11   -1    0    0    0    0  0.00000000000E+00  0.00000000000E+00  0.10001647748E+04  0.10001647748E+04  0.51100000000E-03 0. -1.
          2   -1    0    0  501    0 -0.00000000000E+00 -0.00000000000E+00 -0.36257315949E+03  0.36257315950E+03  0.25500000000E-02 0.  1.
         11    1    1    2    0    0 -0.71741419672E+02  0.16528528325E+03  0.30543412446E+03  0.35462100973E+03  0.51100000000E-03 0. -1.
         22    1    1    2    0    0 -0.34431686002E+02 -0.29534851907E+03  0.61277396769E+03  0.68110808555E+03  0.00000000000E+00 0. -1.
          2    1    1    2  501    0  0.10617310567E+03  0.13006323582E+03 -0.28061647687E+03  0.32700883899E+03  0.25500000000E-02 0.  1.
<mgrwt>
<rscale>  0 0.16789632E+03</rscale>
<asrwt>0</asrwt>
<pdfrwt beam="1">  1       11 0.10000000E+01 0.22141166E+03</pdfrwt>
<pdfrwt beam="2">  1        2 0.55789676E-01 0.16789632E+03</pdfrwt>
<totfact> 0.11069356E+02</totfact>
</mgrwt>
</event>
<event>
 5    1  0.2799727E-003  0.5214442E+02  0.7818608E-02  0.1462646E+00
         11   -1    0    0    0    0  0.00000000000E+00  0.00000000000E+00  0.99996580867E+03  0.99996580867E+03  0.51100000000E-03 0. -1.
          2   -1    0    0  501    0 -0.00000000000E+00 -0.00000000000E+00 -0.71463477182E+01  0.71463481732E+01  0.25500000000E-02 0. -1.
         11    1    1    2    0    0  0.62123973016E+02  0.15704358281E+02  0.35804808716E+03  0.36373678342E+03  0.51100000000E-03 0. -1.
         22    1    1    2    0    0 -0.23612468729E+02 -0.42522441512E+02  0.18967900352E+03  0.19581580909E+03  0.00000000000E+00 0. -1.
          2    1    1    2  501    0 -0.38511504287E+02  0.26818083231E+02  0.44509237027E+03  0.44755956434E+03  0.25500000000E-02 0. -1.
<mgrwt>
<rscale>  0 0.46929155E+02</rscale>
<asrwt>0</asrwt>
<pdfrwt beam="1">  1       11 0.10000000E+01 0.52144423E+02</pdfrwt>
<pdfrwt beam="2">  1        2 0.10994005E-02 0.46929155E+02</pdfrwt>
<totfact> 0.12004134E+04</totfact>
</mgrwt>
</event>
<event>
 5    1  0.2799727E-003  0.2022718E+03  0.7818608E-02  0.1147836E+00
         11   -1    0    0    0    0  0.00000000000E+00  0.00000000000E+00  0.10003070852E+04  0.10003070852E+04  0.51100000000E-03 0. -1.
         -2   -1    0    0    0  501 -0.00000000000E+00 -0.00000000000E+00 -0.10790570020E+03  0.10790570023E+03  0.25500000000E-02 0.  1.
         11    1    1    2    0    0 -0.57401597068E+02 -0.75461262681E+02  0.15286073176E+03  0.17987703807E+03  0.51100000000E-03 0. -1.
         22    1    1    2    0    0 -0.99845855762E+02 -0.74290038130E+02  0.69578264190E+03  0.70682507698E+03  0.00000000000E+00 0. -1.
         -2    1    1    2    0  501  0.15724745283E+03  0.14975130081E+03  0.43758011300E+02  0.22151067034E+03  0.25500000000E-02 0.  1.
<mgrwt>
<rscale>  0 0.20227180E+03</rscale>
<asrwt>0</asrwt>
<pdfrwt beam="1">  1       11 0.10000000E+01 0.94812159E+02</pdfrwt>
<pdfrwt beam="2">  1       -2 0.16605974E-01 0.20227180E+03</pdfrwt>
<totfact> 0.22916128E+02</totfact>
</mgrwt>
</event>
<event>
 5    1  0.2799727E-003  0.1824030E+03  0.7818608E-02  0.1165497E+00
         11   -1    0    0    0    0  0.00000000000E+00  0.00000000000E+00  0.10002603339E+04  0.10002603339E+04  0.51100000000E-03 0. -1.
          2   -1    0    0  501    0 -0.00000000000E+00 -0.00000000000E+00 -0.16966487616E+03  0.16966487618E+03  0.25500000000E-02 0.  1.
         11    1    1    2    0    0 -0.12442191227E+03 -0.10710847896E+03  0.74848685338E+03  0.76628037179E+03  0.51100000000E-03 0. -1.
         22    1    1    2    0    0 -0.38132708714E+02  0.20982698101E+02  0.18692020603E+03  0.19192066204E+03  0.00000000000E+00 0. -1.
          2    1    1    2  501    0  0.16255462098E+03  0.86125780855E+02 -0.10481160172E+03  0.21172417621E+03  0.25500000000E-02 0.  1.
<mgrwt>
<rscale>  0 0.18240299E+03</rscale>
<asrwt>0</asrwt>
<pdfrwt beam="1">  1       11 0.10000000E+01 0.43524442E+02</pdfrwt>
<pdfrwt beam="2">  1        2 0.26109083E-01 0.18240299E+03</pdfrwt>
<totfact> 0.25134340E+02</totfact>
</mgrwt>
</event>
<event>
 5    1  0.2799727E-003  0.3023318E+03  0.7818608E-02  0.1095004E+00
         11   -1    0    0    0    0  0.00000000000E+00  0.00000000000E+00  0.99985864407E+03  0.99985864407E+03  0.51100000000E-03 0.  1.
          2   -1    0    0  501    0 -0.00000000000E+00 -0.00000000000E+00 -0.12244758744E+03  0.12244758747E+03  0.25500000000E-02 0.  1.
         11    1    1    2    0    0  0.74535279516E+02  0.15042056199E+03  0.53099001283E+03  0.55689518501E+03  0.51100000000E-03 0.  1.
         22    1    1    2    0    0  0.10770580995E+03  0.63807736763E+02  0.22827155243E+03  0.26034567486E+03  0.00000000000E+00 0.  1.
          2    1    1    2  501    0 -0.18224108946E+03 -0.21422829876E+03  0.11814949136E+03  0.30506537167E+03  0.25500000000E-02 0.  1.
<mgrwt>
<rscale>  0 0.28125714E+03</rscale>
<asrwt>0</asrwt>
<pdfrwt beam="1">  1       11 0.10000000E+01 0.30233177E+03</pdfrwt>
<pdfrwt beam="2">  1        2 0.18835427E-01 0.28125714E+03</pdfrwt>
<totfact> 0.36789238E+02</totfact>
</mgrwt>
</event>
<event>
 5    1  0.2799727E-003  0.2804824E+03  0.7818608E-02  0.1096156E+00
         11   -1    0    0    0    0  0.00000000000E+00  0.00000000000E+00  0.10003161907E+04  0.10003161907E+04  0.51100000000E-03 0. -1.
          2   -1    0    0  501    0 -0.00000000000E+00 -0.00000000000E+00 -0.80212246615E+02  0.80212246655E+02  0.25500000000E-02 0. -1.
         11    1    1    2    0    0 -0.24801868854E+01 -0.26729890668E+03  0.51250096783E+03  0.57802430647E+03  0.51100000000E-03 0. -1.
         22    1    1    2    0    0 -0.49395517959E+01 -0.11748388418E+02  0.32665979826E+02  0.35064084764E+02  0.00000000000E+00 0. -1.
          2    1    1    2  501    0  0.74197386813E+01  0.27904729510E+03  0.37493699642E+03  0.46744004612E+03  0.25500000000E-02 0. -1.
<mgrwt>
<rscale>  0 0.27914592E+03</rscale>
<asrwt>0</asrwt>
<pdfrwt beam="1">  1       11 0.10000000E+01 0.28048240E+03</pdfrwt>
<pdfrwt beam="2">  1        2 0.12344247E-01 0.27914592E+03</pdfrwt>
<totfact> 0.60850874E+02</totfact>
</mgrwt>
</event>
<event>
 5    1  0.2799727E-003  0.1651247E+03  0.7818608E-02  0.1188175E+00
         11   -1    0    0    0    0  0.00000000000E+00  0.00000000000E+00  0.10001739970E+04  0.10001739970E+04  0.51100000000E-03 0.  1.
          2   -1    0    0  501    0 -0.00000000000E+00 -0.00000000000E+00 -0.43001332181E+02  0.43001332257E+02  0.25500000000E-02 0.  1.
         11    1    1    2    0    0  0.91315258661E+02 -0.78767732838E+02  0.59913552539E+03  0.61115154421E+03  0.51100000000E-03 0.  1.
         22    1    1    2    0    0  0.14180897860E+02 -0.42141068980E+02  0.20678652592E+03  0.21151272979E+03  0.00000000000E+00 0.  1.
          2    1    1    2  501    0 -0.10549615652E+03  0.12090880182E+03  0.15125061348E+03  0.22051105524E+03  0.25500000000E-02 0.  1.
<mgrwt>
<rscale>  0 0.16046301E+03</rscale>
<asrwt>0</asrwt>
<pdfrwt beam="1">  1       11 0.10000000E+01 0.16512466E+03</pdfrwt>
<pdfrwt beam="2">  1        2 0.66167405E-02 0.16046301E+03</pdfrwt>
<totfact> 0.12912493E+03</totfact>
</mgrwt>
</event>
<event>
 5    1  0.2799727E-003  0.1303725E+03  0.7818608E-02  0.1231835E+00
         11   -1    0    0    0    0  0.00000000000E+00  0.00000000000E+00  0.10005212290E+04  0.10005212290E+04  0.51100000000E-03 0. -1.
          2   -1    0    0  501    0 -0.00000000000E+00 -0.00000000000E+00 -0.16655679769E+02  0.16655679964E+02  0.25500000000E-02 0. -1.
         11    1    1    2    0    0 -0.45008740299E+01 -0.36002661007E+02  0.19595013451E+03  0.19928096919E+03  0.51100000000E-03 0. -1.
         22    1    1    2    0    0  0.19373537478E+02 -0.90216347960E+02  0.34007097055E+03  0.35236712163E+03  0.00000000000E+00 0. -1.
          2    1    1    2  501    0 -0.14872663448E+02  0.12621900897E+03  0.44784444417E+03  0.46552881815E+03  0.25500000000E-02 0. -1.
<mgrwt>
<rscale>  0 0.12709223E+03</rscale>
<asrwt>0</asrwt>
<pdfrwt beam="1">  1       11 0.10000000E+01 0.13037251E+03</pdfrwt>
<pdfrwt beam="2">  1        2 0.25637478E-02 0.12709223E+03</pdfrwt>
<totfact> 0.44277021E+03</totfact>
</mgrwt>
</event>
<event>
 5    1  0.2799727E-003  0.3079400E+03  0.7818608E-02  0.1084118E+00
         11   -1    0    0    0    0  0.00000000000E+00  0.00000000000E+00  0.10003537507E+04  0.10003537507E+04  0.51100000000E-03 0.  1.
          2   -1    0    0  501    0 -0.00000000000E+00 -0.00000000000E+00 -0.37190197911E+03  0.37190197912E+03  0.25500000000E-02 0.  1.
         11    1    1    2    0    0 -0.23816323472E+03  0.12630029895E+03  0.78245416168E+03  0.82759169101E+03  0.51100000000E-03 0.  1.
         22    1    1    2    0    0 -0.37936591473E+02 -0.33048453845E+01  0.12662020930E+03  0.13222248061E+03  0.00000000000E+00 0. -1.
          2    1    1    2  501    0  0.27609982619E+03 -0.12299545357E+03 -0.28062259940E+03  0.41244155819E+03  0.25500000000E-02 0.  1.
<mgrwt>
<rscale>  0 0.30225651E+03</rscale>
<asrwt>0</asrwt>
<pdfrwt beam="1">  1       11 0.10000000E+01 0.30793998E+03</pdfrwt>
<pdfrwt beam="2">  1        2 0.57235928E-01 0.30225651E+03</pdfrwt>
<totfact> 0.10738304E+02</totfact>
</mgrwt>
</event>
<event>
 5    1  0.2799727E-003  0.4214074E+03  0.7818608E-02  0.1044447E+00
         11   -1    0    0    0    0  0.00000000000E+00  0.00000000000E+00  0.10004127465E+04  0.10004127465E+04  0.51100000000E-03 0.  1.
         -2   -1    0    0    0  501 -0.00000000000E+00 -0.00000000000E+00 -0.17097762093E+03  0.17097762095E+03  0.25500000000E-02 0. -1.
         11    1    1    2    0    0 -0.93229458475E+02  0.40653802004E+02  0.22698474325E+03  0.24872984786E+03  0.51100000000E-03 0.  1.
         22    1    1    2    0    0 -0.29865060867E+03  0.29316604306E+02  0.27888781408E+03  0.40967067529E+03  0.00000000000E+00 0.  1.
         -2    1    1    2    0  501  0.39188006715E+03 -0.69970406311E+02  0.32356256821E+03  0.51298984429E+03  0.25500000000E-02 0. -1.
<mgrwt>
<rscale>  0 0.39807769E+03</rscale>
<asrwt>0</asrwt>
<pdfrwt beam="1">  1       11 0.10000000E+01 0.42140741E+03</pdfrwt>
<pdfrwt beam="2">  1       -2 0.26315106E-01 0.39807769E+03</pdfrwt>
<totfact> 0.10502978E+02</totfact>
</mgrwt>
</event>
<event>
 5    1  0.2799727E-003  0.7818615E+02  0.7818608E-02  0.1432692E+00
         11   -1    0    0    0    0  0.00000000000E+00  0.00000000000E+00  0.10000955421E+04  0.10000955421E+04  0.51100000000E-03 0. -1.
          2   -1    0    0  501    0 -0.00000000000E+00 -0.00000000000E+00 -0.11571571263E+02  0.11571571544E+02  0.25500000000E-02 0. -1.
         11    1    1    2    0    0 -0.88557185451E+01  0.79204642469E+02  0.29168357662E+03  0.30237577286E+03  0.51100000000E-03 0. -1.
         22    1    1    2    0    0  0.34966741578E+02 -0.35821568964E+01  0.81293384505E+02  0.88567032404E+02  0.00000000000E+00 0. -1.
          2    1    1    2  501    0 -0.26111023033E+02 -0.75622485572E+02  0.61554700966E+03  0.62072430833E+03  0.25500000000E-02 0. -1.
<mgrwt>
<rscale>  0 0.52423490E+02</rscale>
<asrwt>0</asrwt>
<pdfrwt beam="1">  1       11 0.10000000E+01 0.78186154E+02</pdfrwt>
<pdfrwt beam="2">  1        2 0.17804118E-02 0.52423490E+02</pdfrwt>
<totfact> 0.64301257E+03</totfact>
</mgrwt>
</event>
<event>
 5    1  0.2799727E-003  0.1645233E+03  0.7818608E-02  0.1188278E+00
         11   -1    0    0    0    0  0.00000000000E+00  0.00000000000E+00  0.10002558474E+04  0.10002558474E+04  0.51100000000E-03 0. -1.
          2   -1    0    0  501    0 -0.00000000000E+00 -0.00000000000E+00 -0.40460593458E+02  0.40460593538E+02  0.25500000000E-02 0.  1.
         11    1    1    2    0    0  0.69211689375E+02 -0.33677007347E+02  0.44645058043E+03  0.45303699577E+03  0.51100000000E-03 0. -1.
         22    1    1    2    0    0  0.62893552736E+02 -0.57247312396E+02  0.34437373588E+03  0.35471978196E+03  0.00000000000E+00 0. -1.
          2    1    1    2  501    0 -0.13210524211E+03  0.90924319743E+02  0.16897093766E+03  0.23295966324E+03  0.25500000000E-02 0.  1.
<mgrwt>
<rscale>  0 0.16037153E+03</rscale>
<asrwt>0</asrwt>
<pdfrwt beam="1">  1       11 0.10000000E+01 0.16452329E+03</pdfrwt>
<pdfrwt beam="2">  1        2 0.62262991E-02 0.16037153E+03</pdfrwt>
<totfact> 0.13962977E+03</totfact>
</mgrwt>
</event>
<event>
 5    1  0.2799727E-003  0.1673593E+03  0.7818608E-02  0.1184885E+00
         11   -1    0    0    0    0  0.00000000000E+00  0.00000000000E+00  0.10000930169E+04  0.10000930169E+04  0.51100000000E-03 0. -1.
         -2   -1    0    0    0  501 -0.00000000000E+00 -0.00000000000E+00 -0.23234484230E+03  0.23234484231E+03  0.25500000000E-02 0.  1.
         11    1    1    2    0    0 -0.35098342843E+01 -0.13561949919E+03  0.79419953012E+03  0.80570333320E+03  0.51100000000E-03 0. -1.
         22    1    1    2    0    0  0.15836057108E+02 -0.27338176688E+02  0.16902030949E+03  0.17194772935E+03  0.00000000000E+00 0. -1.
         -2    1    1    2    0  501 -0.12326222824E+02  0.16295767587E+03 -0.19547166504E+03  0.25478679662E+03  0.25500000000E-02 0.  1.
<mgrwt>
<rscale>  0 0.16342319E+03</rscale>
<asrwt>0</asrwt>
<pdfrwt beam="1">  1       11 0.10000000E+01 0.16735932E+03</pdfrwt>
<pdfrwt beam="2">  1       -2 0.35748684E-01 0.16342319E+03</pdfrwt>
<totfact> 0.59362361E+01</totfact>
</mgrwt>
</event>
<event>
 5    1  0.2799727E-003  0.1593217E+03  0.7818608E-02  0.1194895E+00
         11   -1    0    0    0    0  0.00000000000E+00  0.00000000000E+00  0.10000408532E+04  0.10000408532E+04  0.51100000000E-03 0.  1.
          2   -1    0    0  501    0 -0.00000000000E+00 -0.00000000000E+00 -0.89098057232E+02  0.89098057268E+02  0.25500000000E-02 0.  1.
         11    1    1    2    0    0 -0.13401139737E+03  0.55190492764E+02  0.85257101207E+03  0.86480192862E+03  0.51100000000E-03 0.  1.
         22    1    1    2    0    0 -0.45888695261E+01  0.13370827843E+02  0.67954716057E+02  0.69409510840E+02  0.00000000000E+00 0. -1.
          2    1    1    2  501    0  0.13860026689E+03 -0.68561320607E+02 -0.95829321957E+01  0.15492747097E+03  0.25500000000E-02 0.  1.
<mgrwt>
<rscale>  0 0.15463081E+03</rscale>
<asrwt>0</asrwt>
<pdfrwt beam="1">  1       11 0.10000000E+01 0.15932168E+03</pdfrwt>
<pdfrwt beam="2">  1        2 0.13707953E-01 0.15463081E+03</pdfrwt>
<totfact> 0.52316113E+02</totfact>
</mgrwt>
</event>
<event>
 5    1  0.2799727E-003  0.1786679E+03  0.7818608E-02  0.1181849E+00
         11   -1    0    0    0    0  0.00000000000E+00  0.00000000000E+00  0.99982029879E+03  0.99982029879E+03  0.51100000000E-03 0.  1.
          2   -1    0    0  501    0 -0.00000000000E+00 -0.00000000000E+00 -0.11203596603E+03  0.11203596605E+03  0.25500000000E-02 0. -1.
         11    1    1    2    0    0 -0.56054011505E+02 -0.65872332844E+01  0.27602731510E+03  0.28173839378E+03  0.51100000000E-03 0.  1.
         22    1    1    2    0    0 -0.73598760842E+02 -0.97427141060E+02  0.64849273183E+03  0.65988760304E+03  0.00000000000E+00 0.  1.
          2    1    1    2  501    0  0.12965277235E+03  0.10401437434E+03 -0.36735714170E+02  0.17023026802E+03  0.25500000000E-02 0. -1.
<mgrwt>
<rscale>  0 0.16621923E+03</rscale>
<asrwt>0</asrwt>
<pdfrwt beam="1">  1       11 0.10000000E+01 0.17866785E+03</pdfrwt>
<pdfrwt beam="2">  1        2 0.17233205E-01 0.16621923E+03</pdfrwt>
<totfact> 0.40115128E+02</totfact>
</mgrwt>
</event>
<event>
 5    1  0.2799727E-003  0.1976541E+03  0.7818608E-02  0.1151733E+00
         11   -1    0    0    0    0  0.00000000000E+00  0.00000000000E+00  0.10001223703E+04  0.10001223703E+04  0.51100000000E-03 0. -1.
          2   -1    0    0  501    0 -0.00000000000E+00 -0.00000000000E+00 -0.31991805386E+03  0.31991805387E+03  0.25500000000E-02 0. -1.
         11    1    1    2    0    0 -0.30137604286E+02  0.40554566298E+02  0.13352653472E+03  0.14276653500E+03  0.51100000000E-03 0. -1.
         22    1    1    2    0    0 -0.16141376153E+03  0.13934475712E+02  0.82181064158E+03  0.83762837980E+03  0.00000000000E+00 0. -1.
          2    1    1    2  501    0  0.19155136581E+03 -0.54489042009E+02 -0.27513285988E+03  0.33964550937E+03  0.25500000000E-02 0. -1.
<mgrwt>
<rscale>  0 0.19765407E+03</rscale>
<asrwt>0</asrwt>
<pdfrwt beam="1">  1       11 0.10000000E+01 0.50526706E+02</pdfrwt>
<pdfrwt beam="2">  1        2 0.49224184E-01 0.19765407E+03</pdfrwt>
<totfact> 0.12657121E+02</totfact>
</mgrwt>
</event>
<event>
 5    1  0.2799727E-003  0.1623434E+03  0.7818608E-02  0.1375774E+00
         11   -1    0    0    0    0  0.00000000000E+00  0.00000000000E+00  0.10000863024E+04  0.10000863024E+04  0.51100000000E-03 0. -1.
          2   -1    0    0  501    0 -0.00000000000E+00 -0.00000000000E+00 -0.19926082576E+03  0.19926082578E+03  0.25500000000E-02 0.  1.
         11    1    1    2    0    0  0.65796042812E+02 -0.13822060185E+03  0.72888538404E+03  0.74478718913E+03  0.51100000000E-03 0. -1.
         22    1    1    2    0    0 -0.74305289170E+02  0.20325419182E+03  0.21010044794E+03  0.30162185053E+03  0.00000000000E+00 0.  1.
          2    1    1    2  501    0  0.85092463576E+01 -0.65033589973E+02 -0.13816035539E+03  0.15293808847E+03  0.25500000000E-02 0.  1.
<mgrwt>
<rscale>  0 0.65587919E+02</rscale>
<asrwt>0</asrwt>
<pdfrwt beam="1">  1       11 0.10000000E+01 0.16234337E+03</pdfrwt>
<pdfrwt beam="2">  1        2 0.30658156E-01 0.65587919E+02</pdfrwt>
<totfact> 0.20630063E+02</totfact>
</mgrwt>
</event>
<event>
 5    1  0.2799727E-003  0.1900333E+03  0.7818608E-02  0.1159291E+00
         11   -1    0    0    0    0  0.00000000000E+00  0.00000000000E+00  0.10001637931E+04  0.10001637931E+04  0.51100000000E-03 0.  1.
          2   -1    0    0  501    0 -0.00000000000E+00 -0.00000000000E+00 -0.36857602503E+02  0.36857602591E+02  0.25500000000E-02 0.  1.
         11    1    1    2    0    0  0.12258921211E+02 -0.17372806283E+01  0.24507720764E+02  0.27457743362E+02  0.51100000000E-03 0.  1.
         22    1    1    2    0    0  0.17519051069E+03 -0.23064460069E+02  0.54073789220E+03  0.56887709781E+03  0.00000000000E+00 0.  1.
          2    1    1    2  501    0 -0.18744943190E+03  0.24801740698E+02  0.39806057765E+03  0.44068655454E+03  0.25500000000E-02 0.  1.
<mgrwt>
<rscale>  0 0.18908309E+03</rscale>
<asrwt>0</asrwt>
<pdfrwt beam="1">  1       11 0.10000000E+01 0.19003326E+03</pdfrwt>
<pdfrwt beam="2">  1        2 0.56713290E-02 0.18908309E+03</pdfrwt>
<totfact> 0.15946835E+03</totfact>
</mgrwt>
</event>
<event>
 5    1  0.2799727E-003  0.1548973E+03  0.7818608E-02  0.1196703E+00
         11   -1    0    0    0    0  0.00000000000E+00  0.00000000000E+00  0.10001023982E+04  0.10001023982E+04  0.51100000000E-03 0.  1.
          2   -1    0    0  501    0 -0.00000000000E+00 -0.00000000000E+00 -0.78662549492E+02  0.78662549533E+02  0.25500000000E-02 0.  1.
         11    1    1    2    0    0  0.13943928545E+03 -0.21806805041E+02  0.83177356190E+03  0.84366231950E+03  0.51100000000E-03 0.  1.
         22    1    1    2    0    0  0.12762158371E+02  0.51520254098E+01  0.80554533899E+02  0.81721777904E+02  0.00000000000E+00 0. -1.
          2    1    1    2  501    0 -0.15220144382E+03  0.16654779631E+02  0.91117528625E+01  0.15338085028E+03  0.25500000000E-02 0.  1.
<mgrwt>
<rscale>  0 0.15310996E+03</rscale>
<asrwt>0</asrwt>
<pdfrwt beam="1">  1       11 0.10000000E+01 0.15489730E+03</pdfrwt>
<pdfrwt beam="2">  1        2 0.12103170E-01 0.15310996E+03</pdfrwt>
<totfact> 0.60691713E+02</totfact>
</mgrwt>
</event>
<event>
 5    1  0.2799727E-003  0.8806802E+02  0.7818608E-02  0.1506376E+00
         11   -1    0    0    0    0  0.00000000000E+00  0.00000000000E+00  0.10001858360E+04  0.10001858360E+04  0.51100000000E-03 0. -1.
          2   -1    0    0  501    0 -0.00000000000E+00 -0.00000000000E+00 -0.48337576398E+02  0.48337576465E+02  0.25500000000E-02 0. -1.
         11    1    1    2    0    0  0.51050400726E+02  0.76185990160E+02  0.44615208233E+03  0.45548010832E+03  0.51100000000E-03 0. -1.
         22    1    1    2    0    0 -0.76835335643E+02 -0.45279077538E+02  0.53555304798E+03  0.54292810838E+03  0.00000000000E+00 0. -1.
          2    1    1    2  501    0  0.25784934917E+02 -0.30906912622E+02 -0.29856870677E+02  0.50115195795E+02  0.25500000000E-02 0. -1.
<mgrwt>
<rscale>  0 0.40250467E+02</rscale>
<asrwt>0</asrwt>
<pdfrwt beam="1">  1       11 0.10000000E+01 0.88068017E+02</pdfrwt>
<pdfrwt beam="2">  1        2 0.74379320E-02 0.40250467E+02</pdfrwt>
<totfact> 0.99825531E+02</totfact>
</mgrwt>
</event>
<event>
 5    1  0.2799727E-003  0.1424286E+03  0.7818608E-02  0.1212993E+00
         11   -1    0    0    0    0  0.00000000000E+00  0.00000000000E+00  0.10002443065E+04  0.10002443065E+04  0.51100000000E-03 0. -1.
          2   -1    0    0  501    0 -0.00000000000E+00 -0.00000000000E+00 -0.20051620536E+02  0.20051620698E+02  0.25500000000E-02 0. -1.
         11    1    1    2    0    0  0.86837134845E+02 -0.74457694431E+02  0.44689978320E+03  0.46130689619E+03  0.51100000000E-03 0. -1.
         22    1    1    2    0    0  0.25398675948E+02 -0.96440574594E+01  0.79129666769E+02  0.83663640532E+02  0.00000000000E+00 0.  1.
          2    1    1    2  501    0 -0.11223581079E+03  0.84101751891E+02  0.45416323599E+03  0.47532539048E+03  0.25500000000E-02 0. -1.
<mgrwt>
<rscale>  0 0.14024971E+03</rscale>
<asrwt>0</asrwt>
<pdfrwt beam="1">  1       11 0.10000000E+01 0.14242859E+03</pdfrwt>
<pdfrwt beam="2">  1        2 0.30856183E-02 0.14024971E+03</pdfrwt>
<totfact> 0.34854481E+03</totfact>
</mgrwt>
</event>
<event>
 5    1  0.2799727E-003  0.1267257E+03  0.7818608E-02  0.1332113E+00
         11   -1    0    0    0    0  0.00000000000E+00  0.00000000000E+00  0.10001735163E+04  0.10001735163E+04  0.51100000000E-03 0. -1.
         -2   -1    0    0    0  501 -0.00000000000E+00 -0.00000000000E+00 -0.64551993507E+02  0.64551993557E+02  0.25500000000E-02 0.  1.
         11    1    1    2    0    0 -0.20006799401E+02 -0.10528455150E+03  0.38073158651E+03  0.39552705315E+03  0.51100000000E-03 0. -1.
         22    1    1    2    0    0 -0.36160039082E+02  0.16074042860E+03  0.56599765226E+03  0.58948992882E+03  0.00000000000E+00 0. -1.
         -2    1    1    2    0  501  0.56166838482E+02 -0.55455877093E+02 -0.11107716023E+02  0.79708527844E+02  0.25500000000E-02 0.  1.
<mgrwt>
<rscale>  0 0.78930780E+02</rscale>
<asrwt>0</asrwt>
<pdfrwt beam="1">  1       11 0.10000000E+01 0.12672571E+03</pdfrwt>
<pdfrwt beam="2">  1       -2 0.99327988E-02 0.78930780E+02</pdfrwt>
<totfact> 0.49771786E+02</totfact>
</mgrwt>
</event>
<event>
 5    1  0.2799727E-003  0.8383994E+02  0.7818608E-02  0.1575895E+00
         11   -1    0    0    0    0  0.00000000000E+00  0.00000000000E+00  0.10001883974E+04  0.10001883974E+04  0.51100000000E-03 0.  1.
          2   -1    0    0  501    0 -0.00000000000E+00 -0.00000000000E+00 -0.11961875586E+02  0.11961875858E+02  0.25500000000E-02 0.  1.
         11    1    1    2    0    0 -0.22098787102E+02  0.95188648312E+02  0.57342485347E+03  0.58169175491E+03  0.51100000000E-03 0.  1.
         22    1    1    2    0    0  0.32727155952E+02 -0.64891131173E+02  0.35714487744E+03  0.36446452382E+03  0.00000000000E+00 0.  1.
          2    1    1    2  501    0 -0.10628368850E+02 -0.30297517140E+02  0.57656790901E+02  0.65993994520E+02  0.25500000000E-02 0.  1.
<mgrwt>
<rscale>  0 0.32107659E+02</rscale>
<asrwt>0</asrwt>
<pdfrwt beam="1">  1       11 0.10000000E+01 0.83839945E+02</pdfrwt>
<pdfrwt beam="2">  1        2 0.18406352E-02 0.32107659E+02</pdfrwt>
<totfact> 0.56800667E+03</totfact>
</mgrwt>
</event>
<event>
 5    1  0.2799727E-003  0.1793628E+03  0.7818608E-02  0.1171337E+00
         11   -1    0    0    0    0  0.00000000000E+00  0.00000000000E+00  0.10001902223E+04  0.10001902223E+04  0.51100000000E-03 0. -1.
         -2   -1    0    0    0  501 -0.00000000000E+00 -0.00000000000E+00 -0.30483394760E+03  0.30483394761E+03  0.25500000000E-02 0. -1.
         11    1    1    2    0    0  0.49767081024E+01 -0.36895942742E+02  0.16758234110E+03  0.17166804963E+03  0.51100000000E-03 0. -1.
         22    1    1    2    0    0  0.70892508821E+02 -0.12235114819E+03  0.79812094179E+03  0.81055079360E+03  0.00000000000E+00 0. -1.
         -2    1    1    2    0  501 -0.75869216923E+02  0.15924709094E+03 -0.27034700823E+03  0.32280532665E+03  0.25500000000E-02 0. -1.
<mgrwt>
<rscale>  0 0.17639664E+03</rscale>
<asrwt>0</asrwt>
<pdfrwt beam="1">  1       11 0.10000000E+01 0.17936283E+03</pdfrwt>
<pdfrwt beam="2">  1       -2 0.46906450E-01 0.17639664E+03</pdfrwt>
<totfact> 0.35346464E+01</totfact>
</mgrwt>
</event>
<event>
 5    1  0.2799727E-003  0.1842074E+03  0.7818608E-02  0.1170666E+00
         11   -1    0    0    0    0  0.00000000000E+00  0.00000000000E+00  0.10001880119E+04  0.10001880119E+04  0.51100000000E-03 0.  1.
          2   -1    0    0  501    0 -0.00000000000E+00 -0.00000000000E+00 -0.10773282258E+03  0.10773282261E+03  0.25500000000E-02 0.  1.
         11    1    1    2    0    0  0.20494148938E+02  0.13913767779E+03  0.79654160882E+03  0.80886206371E+03  0.51100000000E-03 0.  1.
         22    1    1    2    0    0 -0.65521747797E+01  0.37386076456E+02  0.11486539464E+03  0.12097399966E+03  0.00000000000E+00 0.  1.
          2    1    1    2  501    0 -0.13941974159E+02 -0.17652375425E+03 -0.18951814119E+02  0.17808477117E+03  0.25500000000E-02 0.  1.
<mgrwt>
<rscale>  0 0.17707347E+03</rscale>
<asrwt>0</asrwt>
<pdfrwt beam="1">  1       11 0.10000000E+01 0.18420743E+03</pdfrwt>
<pdfrwt beam="2">  1        2 0.16577396E-01 0.17707347E+03</pdfrwt>
<totfact> 0.42059195E+02</totfact>
</mgrwt>
</event>
<event>
 5    1  0.2799727E-003  0.2548331E+03  0.7818608E-02  0.1116867E+00
         11   -1    0    0    0    0  0.00000000000E+00  0.00000000000E+00  0.10004008099E+04  0.10004008099E+04  0.51100000000E-03 0. -1.
          2   -1    0    0  501    0 -0.00000000000E+00 -0.00000000000E+00 -0.50083197113E+03  0.50083197114E+03  0.25500000000E-02 0. -1.
         11    1    1    2    0    0 -0.23491575785E+02  0.48559203683E+02  0.19042857690E+03  0.19792143213E+03  0.51100000000E-03 0. -1.
         22    1    1    2    0    0  0.50107254640E+02  0.19443223944E+03  0.76236851288E+03  0.78836563987E+03  0.00000000000E+00 0. -1.
          2    1    1    2  501    0 -0.26615678855E+02 -0.24299144312E+03 -0.45322825098E+03  0.51494570907E+03  0.25500000000E-02 0. -1.
<mgrwt>
<rscale>  0 0.24444475E+03</rscale>
<asrwt>0</asrwt>
<pdfrwt beam="1">  1       11 0.10000000E+01 0.25483307E+03</pdfrwt>
<pdfrwt beam="2">  1        2 0.77081953E-01 0.24444475E+03</pdfrwt>
<totfact> 0.77484321E+01</totfact>
</mgrwt>
</event>
<event>
 5    1  0.2799727E-003  0.9597490E+02  0.7818608E-02  0.1296618E+00
         11   -1    0    0    0    0  0.00000000000E+00  0.00000000000E+00  0.99996133343E+03  0.99996133343E+03  0.51100000000E-03 0. -1.
         -2   -1    0    0    0  501 -0.00000000000E+00 -0.00000000000E+00 -0.11292875435E+02  0.11292875723E+02  0.25500000000E-02 0. -1.
         11    1    1    2    0    0 -0.46690520883E+02  0.63895946802E+02  0.19584670297E+03  0.21123121886E+03  0.51100000000E-03 0. -1.
         22    1    1    2    0    0 -0.62641763599E+01  0.12098168151E+02  0.72331716627E+02  0.73603551601E+02  0.00000000000E+00 0. -1.
         -2    1    1    2    0  501  0.52954697242E+02 -0.75994114953E+02  0.72049003840E+03  0.72641943869E+03  0.25500000000E-02 0. -1.
<mgrwt>
<rscale>  0 0.92624540E+02</rscale>
<asrwt>0</asrwt>
<pdfrwt beam="1">  1       11 0.10000000E+01 0.95974902E+02</pdfrwt>
<pdfrwt beam="2">  1       -2 0.17372982E-02 0.92624540E+02</pdfrwt>
<totfact> 0.66453694E+03</totfact>
</mgrwt>
</event>
<event>
 5    1  0.2799727E-003  0.1292218E+03  0.7818608E-02  0.1232167E+00
         11   -1    0    0    0    0  0.00000000000E+00  0.00000000000E+00  0.10000108400E+04  0.10000108400E+04  0.51100000000E-03 0.  1.
          2   -1    0    0  501    0 -0.00000000000E+00 -0.00000000000E+00 -0.18218120462E+02  0.18218120640E+02  0.25500000000E-02 0.  1.
         11    1    1    2    0    0  0.51673314991E+02 -0.10148672024E+03  0.28189140436E+03  0.30402705425E+03  0.51100000000E-03 0.  1.
         22    1    1    2    0    0 -0.34095004200E+00 -0.14540814785E+02  0.52061086859E+02  0.54054678858E+02  0.00000000000E+00 0.  1.
          2    1    1    2  501    0 -0.51332364949E+02  0.11602753503E+03  0.64784022836E+03  0.66014722756E+03  0.25500000000E-02 0.  1.
<mgrwt>
<rscale>  0 0.12687553E+03</rscale>
<asrwt>0</asrwt>
<pdfrwt beam="1">  1       11 0.10000000E+01 0.12922175E+03</pdfrwt>
<pdfrwt beam="2">  1        2 0.28028181E-02 0.12687553E+03</pdfrwt>
<totfact> 0.39256200E+03</totfact>
</mgrwt>
</event>
<event>
 5    1  0.2799727E-003  0.1747725E+03  0.7818608E-02  0.1174673E+00
         11   -1    0    0    0    0  0.00000000000E+00  0.00000000000E+00  0.10002460860E+04  0.10002460860E+04  0.51100000000E-03 0. -1.
          2   -1    0    0  501    0 -0.00000000000E+00 -0.00000000000E+00 -0.30294021024E+02  0.30294021131E+02  0.25500000000E-02 0. -1.
         11    1    1    2    0    0 -0.14409570523E+03 -0.54017247110E+02  0.39698888741E+03  0.42577178392E+03  0.51100000000E-03 0. -1.
         22    1    1    2    0    0 -0.20245243667E+02 -0.28699881774E+00  0.69197213162E+02  0.72098589229E+02  0.00000000000E+00 0. -1.
          2    1    1    2  501    0  0.16434094889E+03  0.54304245927E+02  0.50376596442E+03  0.53266973400E+03  0.25500000000E-02 0. -1.
<mgrwt>
<rscale>  0 0.17308061E+03</rscale>
<asrwt>0</asrwt>
<pdfrwt beam="1">  1       11 0.10000000E+01 0.17477250E+03</pdfrwt>
<pdfrwt beam="2">  1        2 0.46617654E-02 0.17308061E+03</pdfrwt>
<totfact> 0.20491018E+03</totfact>
</mgrwt>
</event>
<event>
 5    1  0.2799727E-003  0.4718356E+02  0.7818608E-02  0.1593383E+00
         11   -1    0    0    0    0  0.00000000000E+00  0.00000000000E+00  0.10004180445E+04  0.10004180445E+04  0.51100000000E-03 0.  1.
          2   -1    0    0  501    0 -0.00000000000E+00 -0.00000000000E+00 -0.12889994298E+02  0.12889994550E+02  0.25500000000E-02 0.  1.
         11    1    1    2    0    0  0.27066736746E+02  0.13832545743E+02  0.10447699028E+02  0.32141903725E+02  0.51100000000E-03 0.  1.
         22    1    1    2    0    0  0.19561486909E+02 -0.15805361499E+01  0.67139277973E+02  0.69948784917E+02  0.00000000000E+00 0. -1.
          2    1    1    2  501    0 -0.46628223655E+02 -0.12252009593E+02  0.90994107319E+03  0.91121735040E+03  0.25500000000E-02 0.  1.
<mgrwt>
<rscale>  0 0.30430052E+02</rscale>
<asrwt>0</asrwt>
<pdfrwt beam="1">  1       11 0.10000000E+01 0.47183563E+02</pdfrwt>
<pdfrwt beam="2">  1        2 0.19839050E-02 0.30430052E+02</pdfrwt>
<totfact> 0.51054335E+03</totfact>
</mgrwt>
</event>
<event>
 5    1  0.2799727E-003  0.1939149E+03  0.7818608E-02  0.1155828E+00
         11   -1    0    0    0    0  0.00000000000E+00  0.00000000000E+00  0.10002732165E+04  0.10002732165E+04  0.51100000000E-03 0.  1.
          2   -1    0    0  501    0 -0.00000000000E+00 -0.00000000000E+00 -0.82237012920E+02  0.82237012960E+02  0.25500000000E-02 0.  1.
         11    1    1    2    0    0 -0.17551295875E+03  0.43361619499E+02  0.79393157724E+03  0.81425572032E+03  0.51100000000E-03 0.  1.
         22    1    1    2    0    0 -0.12901964001E+02 -0.17802700514E+01  0.65238606630E+02  0.66525978621E+02  0.00000000000E+00 0.  1.
          2    1    1    2  501    0  0.18841492275E+03 -0.41581349447E+02  0.58866019684E+02  0.20172853049E+03  0.25500000000E-02 0.  1.
<mgrwt>
<rscale>  0 0.19294868E+03</rscale>
<asrwt>0</asrwt>
<pdfrwt beam="1">  1       11 0.10000000E+01 0.19391492E+03</pdfrwt>
<pdfrwt beam="2">  1        2 0.12655304E-01 0.19294868E+03</pdfrwt>
<totfact> 0.58130070E+02</totfact>
</mgrwt>
</event>
<event>
 5    1  0.2799727E-003  0.1534078E+03  0.7818608E-02  0.1657383E+00
         11   -1    0    0    0    0  0.00000000000E+00  0.00000000000E+00  0.99983525705E+03  0.99983525705E+03  0.51100000000E-03 0.  1.
          2   -1    0    0  501    0 -0.00000000000E+00 -0.00000000000E+00 -0.48014338364E+03  0.48014338364E+03  0.25500000000E-02 0.  1.
         11    1    1    2    0    0 -0.37762312596E+02  0.16043188856E+03  0.25920215491E+03  0.30716467933E+03  0.51100000000E-03 0.  1.
         22    1    1    2    0    0  0.15122163439E+02 -0.14924357926E+03  0.70844248650E+03  0.72414990331E+03  0.00000000000E+00 0.  1.
          2    1    1    2  501    0  0.22640149156E+02 -0.11188309307E+02 -0.44795276800E+03  0.44866405805E+03  0.25500000000E-02 0.  1.
<mgrwt>
<rscale>  0 0.25253804E+02</rscale>
<asrwt>0</asrwt>
<pdfrwt beam="1">  1       11 0.10000000E+01 0.15340775E+03</pdfrwt>
<pdfrwt beam="2">  1        2 0.73856041E-01 0.25253804E+02</pdfrwt>
<totfact> 0.83337177E+01</totfact>
</mgrwt>
</event>
<event>
 5    1  0.2799727E-003  0.3273843E+03  0.7818608E-02  0.1073359E+00
         11   -1    0    0    0    0  0.00000000000E+00  0.00000000000E+00  0.10001777597E+04  0.10001777597E+04  0.51100000000E-03 0. -1.
          2   -1    0    0  501    0 -0.00000000000E+00 -0.00000000000E+00 -0.11022608867E+03  0.11022608870E+03  0.25500000000E-02 0. -1.
         11    1    1    2    0    0  0.15441030514E+03  0.26744676915E+03  0.33443910844E+03  0.45521405285E+03  0.51100000000E-03 0. -1.
         22    1    1    2    0    0  0.12324626535E+02  0.11554207475E+02  0.85283924431E+01  0.18924312597E+02  0.00000000000E+00 0.  1.
          2    1    1    2  501    0 -0.16673493167E+03 -0.27900097662E+03  0.54698417015E+03  0.63626548296E+03  0.25500000000E-02 0. -1.
<mgrwt>
<rscale>  0 0.32502628E+03</rscale>
<asrwt>0</asrwt>
<pdfrwt beam="1">  1       11 0.10000000E+01 0.32738430E+03</pdfrwt>
<pdfrwt beam="2">  1        2 0.16960874E-01 0.32502628E+03</pdfrwt>
<totfact> 0.41767201E+02</totfact>
</mgrwt>
</event>
<event>
 5    1  0.2799727E-003  0.9872382E+02  0.7818608E-02  0.1289869E+00
         11   -1    0    0    0    0  0.00000000000E+00  0.00000000000E+00  0.10003717190E+04  0.10003717190E+04  0.51100000000E-03 0.  1.
         -2   -1    0    0    0  501 -0.00000000000E+00 -0.00000000000E+00 -0.11012386086E+02  0.11012386382E+02  0.25500000000E-02 0. -1.
         11    1    1    2    0    0  0.13075121618E+02  0.79652961763E+02  0.28559523329E+03  0.29678306960E+03  0.51100000000E-03 0.  1.
         22    1    1    2    0    0  0.24979709257E+01  0.14652493777E+02  0.24584419902E+02  0.28728542158E+02  0.00000000000E+00 0. -1.
         -2    1    1    2    0  501 -0.15573092544E+02 -0.94305455540E+02  0.67917967968E+03  0.68587249358E+03  0.25500000000E-02 0. -1.
<mgrwt>
<rscale>  0 0.95582635E+02</rscale>
<asrwt>0</asrwt>
<pdfrwt beam="1">  1       11 0.10000000E+01 0.98723817E+02</pdfrwt>
<pdfrwt beam="2">  1       -2 0.16948430E-02 0.95582635E+02</pdfrwt>
<totfact> 0.69150612E+03</totfact>
</mgrwt>
</event>
<event>
 5    1  0.2799727E-003  0.2753119E+03  0.7818608E-02  0.1112593E+00
         11   -1    0    0    0    0  0.00000000000E+00  0.00000000000E+00  0.10001135390E+04  0.10001135390E+04  0.51100000000E-03 0. -1.
          2   -1    0    0  501    0 -0.00000000000E+00 -0.00000000000E+00 -0.22959555552E+03  0.22959555553E+03  0.25500000000E-02 0.  1.
         11    1    1    2    0    0  0.91575247967E+02 -0.12668601226E+03  0.66597732259E+03  0.68407687137E+03  0.51100000000E-03 0. -1.
         22    1    1    2    0    0  0.10130361436E+03 -0.34137264146E+02  0.23824340116E+03  0.26112773365E+03  0.00000000000E+00 0. -1.
          2    1    1    2  501    0 -0.19287886232E+03  0.16082327640E+03 -0.13370274030E+03  0.28450448948E+03  0.25500000000E-02 0.  1.
<mgrwt>
<rscale>  0 0.25113021E+03</rscale>
<asrwt>0</asrwt>
<pdfrwt beam="1">  1       11 0.10000000E+01 0.27531187E+03</pdfrwt>
<pdfrwt beam="2">  1        2 0.35326403E-01 0.25113021E+03</pdfrwt>
<totfact> 0.18128414E+02</totfact>
</mgrwt>
</event>
<event>
 5    1  0.2799727E-003  0.1443620E+03  0.7818608E-02  0.1207577E+00
         11   -1    0    0    0    0  0.00000000000E+00  0.00000000000E+00  0.99985010757E+03  0.99985010757E+03  0.51100000000E-03 0.  1.
          2   -1    0    0  501    0 -0.00000000000E+00 -0.00000000000E+00 -0.45109934753E+02  0.45109934825E+02  0.25500000000E-02 0.  1.
         11    1    1    2    0    0  0.49487568104E+02  0.12467585844E+03  0.54800115571E+03  0.56417936486E+03  0.51100000000E-03 0.  1.
         22    1    1    2    0    0  0.46143112302E+02 -0.10659598415E+02  0.28388772975E+03  0.28781080062E+03  0.00000000000E+00 0. -1.
          2    1    1    2  501    0 -0.95630680406E+02 -0.11401626002E+03  0.12285128735E+03  0.19296987691E+03  0.25500000000E-02 0.  1.
<mgrwt>
<rscale>  0 0.14436196E+03</rscale>
<asrwt>0</asrwt>
<pdfrwt beam="1">  1       11 0.10000000E+01 0.47358356E+02</pdfrwt>
<pdfrwt beam="2">  1        2 0.69389495E-02 0.14436196E+03</pdfrwt>
<totfact> 0.12062142E+03</totfact>
</mgrwt>
</event>
<event>
 5    1  0.2799727E-003  0.2122859E+03  0.7818608E-02  0.1141171E+00
         11   -1    0    0    0    0  0.00000000000E+00  0.00000000000E+00  0.10003322332E+04  0.10003322332E+04  0.51100000000E-03 0. -1.
          2   -1    0    0  501    0 -0.00000000000E+00 -0.00000000000E+00 -0.13924251818E+03  0.13924251820E+03  0.25500000000E-02 0. -1.
         11    1    1    2    0    0  0.70260172035E+02 -0.18122287694E+03  0.80561992995E+03  0.82873499651E+03  0.51100000000E-03 0. -1.
         22    1    1    2    0    0  0.11892354161E+02 -0.12584127890E+02  0.95081618255E+02  0.96645240401E+02  0.00000000000E+00 0. -1.
          2    1    1    2  501    0 -0.82152526196E+02  0.19380700483E+03 -0.39611833221E+02  0.21419451445E+03  0.25500000000E-02 0. -1.
<mgrwt>
<rscale>  0 0.21049986E+03</rscale>
<asrwt>0</asrwt>
<pdfrwt beam="1">  1       11 0.10000000E+01 0.21228590E+03</pdfrwt>
<pdfrwt beam="2">  1        2 0.21429042E-01 0.21049986E+03</pdfrwt>
<totfact> 0.31474591E+02</totfact>
</mgrwt>
</event>
<event>
 5    1  0.2799727E-003  0.6192231E+02  0.7818608E-02  0.1389937E+00
         11   -1    0    0    0    0  0.00000000000E+00  0.00000000000E+00  0.10003050607E+04  0.10003050607E+04  0.51100000000E-03 0.  1.
          2   -1    0    0  501    0 -0.00000000000E+00 -0.00000000000E+00 -0.93897455262E+01  0.93897458724E+01  0.25500000000E-02 0.  1.
         11    1    1    2    0    0  0.29006543088E+02  0.32365006868E+02  0.16110798117E+03  0.16686717715E+03  0.51100000000E-03 0.  1.
         22    1    1    2    0    0  0.38836199833E+02 -0.49444572110E+02  0.21358433589E+03  0.22264609735E+03  0.00000000000E+00 0.  1.
          2    1    1    2  501    0 -0.67842742921E+02  0.17079565242E+02  0.61622299807E+03  0.62018153204E+03  0.25500000000E-02 0.  1.
<mgrwt>
<rscale>  0 0.61922312E+02</rscale>
<asrwt>0</asrwt>
<pdfrwt beam="1">  1       11 0.10000000E+01 0.43461191E+02</pdfrwt>
<pdfrwt beam="2">  1        2 0.14450169E-02 0.61922312E+02</pdfrwt>
<totfact> 0.87213995E+03</totfact>
</mgrwt>
</event>
<event>
 5    1  0.2799727E-003  0.3603408E+03  0.7818608E-02  0.1059198E+00
         11   -1    0    0    0    0  0.00000000000E+00  0.00000000000E+00  0.10001666555E+04  0.10001666555E+04  0.51100000000E-03 0. -1.
          2   -1    0    0  501    0 -0.00000000000E+00 -0.00000000000E+00 -0.23065941925E+03  0.23065941927E+03  0.25500000000E-02 0. -1.
         11    1    1    2    0    0  0.33560195407E+03 -0.97829124264E+02  0.76862770771E+03  0.84438602676E+03  0.51100000000E-03 0. -1.
         22    1    1    2    0    0  0.67583936663E+01 -0.83703027437E+01  0.24958810857E+02  0.27178669805E+02  0.00000000000E+00 0. -1.
          2    1    1    2  501    0 -0.34236034774E+03  0.10619942701E+03 -0.24079282352E+02  0.35926137817E+03  0.25500000000E-02 0. -1.
<mgrwt>
<rscale>  0 0.35845352E+03</rscale>
<asrwt>0</asrwt>
<pdfrwt beam="1">  1       11 0.10000000E+01 0.36034075E+03</pdfrwt>
<pdfrwt beam="2">  1        2 0.35491977E-01 0.35845352E+03</pdfrwt>
<totfact> 0.18093676E+02</totfact>
</mgrwt>
</event>
<event>
 5    1  0.2799727E-003  0.1064771E+03  0.7818608E-02  0.1688944E+00
         11   -1    0    0    0    0  0.00000000000E+00  0.00000000000E+00  0.10007075218E+04  0.10007075218E+04  0.51100000000E-03 0.  1.
         -2   -1    0    0    0  501 -0.00000000000E+00 -0.00000000000E+00 -0.32269249873E+02  0.32269249974E+02  0.25500000000E-02 0.  1.
         11    1    1    2    0    0  0.89119703120E+02  0.62003388381E+02  0.44261825523E+03  0.45573858901E+03  0.51100000000E-03 0.  1.
         22    1    1    2    0    0 -0.72047202126E+02 -0.77651838935E+02  0.53986107541E+03  0.55015505830E+03  0.00000000000E+00 0. -1.
         -2    1    1    2    0  501 -0.17072500994E+02  0.15648450553E+02 -0.14041058707E+02  0.27083124470E+02  0.25500000000E-02 0.  1.
<mgrwt>
<rscale>  0 0.23159108E+02</rscale>
<asrwt>0</asrwt>
<pdfrwt beam="1">  1       11 0.10000000E+01 0.10647710E+03</pdfrwt>
<pdfrwt beam="2">  1       -2 0.49680123E-02 0.23159108E+02</pdfrwt>
<totfact> 0.12224787E+03</totfact>
</mgrwt>
</event>
<event>
 5    1  0.2799727E-003  0.1769107E+03  0.7818608E-02  0.1176651E+00
         11   -1    0    0    0    0  0.00000000000E+00  0.00000000000E+00  0.10000616831E+04  0.10000616831E+04  0.51100000000E-03 0. -1.
          2   -1    0    0  501    0 -0.00000000000E+00 -0.00000000000E+00 -0.16190791442E+03  0.16190791444E+03  0.25500000000E-02 0. -1.
         11    1    1    2    0    0  0.28343930642E+01  0.13589747103E+02  0.32960461293E+02  0.35764605677E+02  0.51100000000E-03 0. -1.
         22    1    1    2    0    0  0.87220255009E+02  0.13195504096E+03  0.91123705294E+03  0.92486348851E+03  0.00000000000E+00 0. -1.
          2    1    1    2  501    0 -0.90054648073E+02 -0.14554478807E+03 -0.10604374559E+03  0.20134150332E+03  0.25500000000E-02 0. -1.
<mgrwt>
<rscale>  0 0.17115234E+03</rscale>
<asrwt>0</asrwt>
<pdfrwt beam="1">  1       11 0.10000000E+01 0.17691068E+03</pdfrwt>
<pdfrwt beam="2">  1        2 0.24910446E-01 0.17115234E+03</pdfrwt>
<totfact> 0.26441666E+02</totfact>
</mgrwt>
</event>
<event>
 5    1  0.2799727E-003  0.1908046E+03  0.7818608E-02  0.1172904E+00
         11   -1    0    0    0    0  0.00000000000E+00  0.00000000000E+00  0.10001130872E+04  0.10001130872E+04  0.51100000000E-03 0. -1.
         -2   -1    0    0    0  501 -0.00000000000E+00 -0.00000000000E+00 -0.43960040220E+03  0.43960040221E+03  0.25500000000E-02 0. -1.
         11    1    1    2    0    0 -0.36146944389E+02 -0.91858992137E+02  0.52911380549E+03  0.53824352777E+03  0.51100000000E-03 0. -1.
         22    1    1    2    0    0 -0.85395871921E+02 -0.33809247862E+02  0.44397761430E+03  0.45337803451E+03  0.00000000000E+00 0. -1.
         -2    1    1    2    0  501  0.12154281631E+03  0.12566824000E+03 -0.41257873480E+03  0.44809192712E+03  0.25500000000E-02 0. -1.
<mgrwt>
<rscale>  0 0.17482895E+03</rscale>
<asrwt>0</asrwt>
<pdfrwt beam="1">  1       11 0.10000000E+01 0.19080464E+03</pdfrwt>
<pdfrwt beam="2">  1       -2 0.67638477E-01 0.17482895E+03</pdfrwt>
<totfact> 0.16768747E+01</totfact>
</mgrwt>
</event>
<event>
 5    1  0.2799727E-003  0.1486488E+03  0.7818608E-02  0.1202143E+00
         11   -1    0    0    0    0  0.00000000000E+00  0.00000000000E+00  0.10002722732E+04  0.10002722732E+04  0.51100000000E-03 0.  1.
          2   -1    0    0  501    0 -0.00000000000E+00 -0.00000000000E+00 -0.13306598136E+03  0.13306598139E+03  0.25500000000E-02 0.  1.
         11    1    1    2    0    0  0.12763555097E+03 -0.53031691542E+02  0.82812539139E+03  0.83958016773E+03  0.51100000000E-03 0.  1.
         22    1    1    2    0    0  0.20012925651E+02  0.30144575138E+02  0.11895498375E+03  0.12433624075E+03  0.00000000000E+00 0.  1.
          2    1    1    2  501    0 -0.14764847662E+03  0.22887116404E+02 -0.79874083313E+02  0.16942184611E+03  0.25500000000E-02 0.  1.
<mgrwt>
<rscale>  0 0.14864876E+03</rscale>
<asrwt>0</asrwt>
<pdfrwt beam="1">  1       11 0.10000000E+01 0.36183043E+02</pdfrwt>
<pdfrwt beam="2">  1        2 0.20477263E-01 0.14864876E+03</pdfrwt>
<totfact> 0.32808448E+02</totfact>
</mgrwt>
</event>
<event>
 5    1  0.2799727E-003  0.6543696E+03  0.7818608E-02  0.9848140E-01
         11   -1    0    0    0    0  0.00000000000E+00  0.00000000000E+00  0.10004838179E+04  0.10004838179E+04  0.51100000000E-03 0. -1.
          2   -1    0    0  501    0 -0.00000000000E+00 -0.00000000000E+00 -0.64572773631E+03  0.64572773631E+03  0.25500000000E-02 0. -1.
         11    1    1    2    0    0 -0.66899343899E+02  0.39699514074E+03  0.34812060784E+03  0.53222985785E+03  0.51100000000E-03 0. -1.
         22    1    1    2    0    0  0.77206776793E+02  0.23133863536E+03  0.32754421731E+03  0.40836707126E+03  0.00000000000E+00 0. -1.
          2    1    1    2  501    0 -0.10307432894E+02 -0.62833377610E+03 -0.32090874361E+03  0.70561462506E+03  0.25500000000E-02 0. -1.
<mgrwt>
<rscale>  0 0.62841831E+03</rscale>
<asrwt>0</asrwt>
<pdfrwt beam="1">  1       11 0.10000000E+01 0.65436964E+03</pdfrwt>
<pdfrwt beam="2">  1        2 0.99390790E-01 0.62841831E+03</pdfrwt>
<totfact> 0.56404190E+01</totfact>
</mgrwt>
</event>
<event>
 5    1  0.2799727E-003  0.2898775E+03  0.7818608E-02  0.1090413E+00
         11   -1    0    0    0    0  0.00000000000E+00  0.00000000000E+00  0.10007696188E+04  0.10007696188E+04  0.51100000000E-03 0. -1.
         -2   -1    0    0    0  501 -0.00000000000E+00 -0.00000000000E+00 -0.15790418733E+04  0.15790418733E+04  0.25500000000E-02 0.  1.
         11    1    1    2    0    0  0.15494356787E+03  0.21917708607E+02  0.19874706146E+03  0.25295906707E+03  0.51100000000E-03 0. -1.
         22    1    1    2    0    0  0.90787834787E+02  0.13658373742E+03  0.75222798338E+03  0.76989901107E+03  0.00000000000E+00 0. -1.
         -2    1    1    2    0  501 -0.24573140266E+03 -0.15850144603E+03 -0.15292472994E+04  0.15569534140E+04  0.25500000000E-02 0.  1.
<mgrwt>
<rscale>  0 0.28987754E+03</rscale>
<asrwt>0</asrwt>
<pdfrwt beam="1">  1       11 0.10000000E+01 0.15648609E+03</pdfrwt>
<pdfrwt beam="2">  1       -2 0.24311648E+00 0.28987754E+03</pdfrwt>
<totfact> 0.63618326E-01</totfact>
</mgrwt>
</event>
<event>
 5    1  0.3649379E-003  0.3768261E+03  0.7818608E-02  0.1054221E+00
         11   -1    0    0    0    0  0.00000000000E+00  0.00000000000E+00  0.10003125816E+04  0.10003125816E+04  0.51100000000E-03 0. -1.
          2   -1    0    0  501    0 -0.00000000000E+00 -0.00000000000E+00 -0.55602481265E+03  0.55602481265E+03  0.25500000000E-02 0. -1.
         11    1    1    2    0    0  0.77330620141E+01 -0.35942629206E+03  0.82595785554E+03  0.90080710410E+03  0.51100000000E-03 0. -1.
         22    1    1    2    0    0  0.57326552060E+01 -0.11565103216E+02  0.69826205956E+02  0.71009252822E+02  0.00000000000E+00 0.  1.
          2    1    1    2  501    0 -0.13465717220E+02  0.37099139528E+03 -0.45149629254E+03  0.58452103734E+03  0.25500000000E-02 0. -1.
<mgrwt>
<rscale>  0 0.37123569E+03</rscale>
<asrwt>0</asrwt>
<pdfrwt beam="1">  1       11 0.10000000E+01 0.37682615E+03</pdfrwt>
<pdfrwt beam="2">  1        2 0.85569015E-01 0.37123569E+03</pdfrwt>
<totfact> 0.68258511E+01</totfact>
</mgrwt>
</event>
<event>
 5    1  0.2799727E-003  0.6579072E+02  0.7818608E-02  0.1643001E+00
         11   -1    0    0    0    0  0.00000000000E+00  0.00000000000E+00  0.99995282750E+03  0.99995282750E+03  0.51100000000E-03 0.  1.
          2   -1    0    0  501    0 -0.00000000000E+00 -0.00000000000E+00 -0.84028788941E+01  0.84028792810E+01  0.25500000000E-02 0.  1.
         11    1    1    2    0    0  0.60033105724E+02  0.34227426979E+02  0.18456405212E+03  0.19707709119E+03  0.51100000000E-03 0.  1.
         22    1    1    2    0    0  0.68535642191E+00 -0.10491213630E+02  0.35002527745E+02  0.36547396972E+02  0.00000000000E+00 0.  1.
          2    1    1    2  501    0 -0.60718462146E+02 -0.23736213349E+02  0.77198336874E+03  0.77473121861E+03  0.25500000000E-02 0.  1.
<mgrwt>
<rscale>  0 0.26300102E+02</rscale>
<asrwt>0</asrwt>
<pdfrwt beam="1">  1       11 0.10000000E+01 0.65790717E+02</pdfrwt>
<pdfrwt beam="2">  1        2 0.12926896E-02 0.26300102E+02</pdfrwt>
<totfact> 0.86713770E+03</totfact>
</mgrwt>
</event>
<event>
 5    1  0.2799727E-003  0.2916783E+03  0.7818608E-02  0.1089476E+00
         11   -1    0    0    0    0  0.00000000000E+00  0.00000000000E+00  0.99988362247E+03  0.99988362247E+03  0.51100000000E-03 0. -1.
          2   -1    0    0  501    0 -0.00000000000E+00 -0.00000000000E+00 -0.60089824891E+03  0.60089824891E+03  0.25500000000E-02 0. -1.
         11    1    1    2    0    0  0.23586028412E+03  0.15487368386E+03  0.60425999218E+03  0.66689284726E+03  0.51100000000E-03 0. -1.
         22    1    1    2    0    0  0.56193610094E+02 -0.12108414851E+03  0.31174536602E+03  0.33912278908E+03  0.00000000000E+00 0. -1.
          2    1    1    2  501    0 -0.29205389421E+03 -0.33789535355E+02 -0.51701998464E+03  0.59476623505E+03  0.25500000000E-02 0. -1.
<mgrwt>
<rscale>  0 0.29167827E+03</rscale>
<asrwt>0</asrwt>
<pdfrwt beam="1">  1       11 0.10000000E+01 0.13348817E+03</pdfrwt>
<pdfrwt beam="2">  1        2 0.92435123E-01 0.29167827E+03</pdfrwt>
<totfact> 0.62716705E+01</totfact>
</mgrwt>
</event>
<event>
 5    1  0.2799727E-003  0.1133904E+03  0.7818608E-02  0.1261143E+00
         11   -1    0    0    0    0  0.00000000000E+00  0.00000000000E+00  0.10001050894E+04  0.10001050894E+04  0.51100000000E-03 0. -1.
          2   -1    0    0  501    0 -0.00000000000E+00 -0.00000000000E+00 -0.18375506678E+02  0.18375506855E+02  0.25500000000E-02 0. -1.
         11    1    1    2    0    0  0.48004074752E+01 -0.98787888883E+02  0.19389060584E+03  0.21765949999E+03  0.51100000000E-03 0. -1.
         22    1    1    2    0    0 -0.68365309954E+01 -0.10884529293E+02  0.13090422842E+02  0.18345852505E+02  0.00000000000E+00 0.  1.
          2    1    1    2  501    0  0.20361235202E+01  0.10967241818E+03  0.77474855407E+03  0.78247524379E+03  0.25500000000E-02 0. -1.
<mgrwt>
<rscale>  0 0.10969132E+03</rscale>
<asrwt>0</asrwt>
<pdfrwt beam="1">  1       11 0.10000000E+01 0.11339039E+03</pdfrwt>
<pdfrwt beam="2">  1        2 0.28272980E-02 0.10969132E+03</pdfrwt>
<totfact> 0.38197831E+03</totfact>
</mgrwt>
</event>
<event>
 5    1  0.2799727E-003  0.1057928E+03  0.7818608E-02  0.1426319E+00
         11   -1    0    0    0    0  0.00000000000E+00  0.00000000000E+00  0.10004403662E+04  0.10004403662E+04  0.51100000000E-03 0. -1.
         -2   -1    0    0    0  501 -0.00000000000E+00 -0.00000000000E+00 -0.11046807066E+03  0.11046807069E+03  0.25500000000E-02 0.  1.
         11    1    1    2    0    0  0.85846792691E+02 -0.24870086506E+02  0.31833312489E+03  0.33064205936E+03  0.51100000000E-03 0. -1.
         22    1    1    2    0    0 -0.98506870259E+02  0.77062745426E+02  0.66278084981E+03  0.67447811314E+03  0.00000000000E+00 0. -1.
         -2    1    1    2    0  501  0.12660077567E+02 -0.52192658921E+02 -0.91141679129E+02  0.10578826443E+03  0.25500000000E-02 0.  1.
<mgrwt>
<rscale>  0 0.53706156E+02</rscale>
<asrwt>0</asrwt>
<pdfrwt beam="1">  1       11 0.10000000E+01 0.10579283E+03</pdfrwt>
<pdfrwt beam="2">  1       -2 0.17002571E-01 0.53706156E+02</pdfrwt>
<totfact> 0.20767481E+02</totfact>
</mgrwt>
</event>
<event>
 5    1  0.2799727E-003  0.2015595E+03  0.7818608E-02  0.1152505E+00
         11   -1    0    0    0    0  0.00000000000E+00  0.00000000000E+00  0.10005943656E+04  0.10005943656E+04  0.51100000000E-03 0.  1.
          2   -1    0    0  501    0 -0.00000000000E+00 -0.00000000000E+00 -0.92331268684E+02  0.92331268719E+02  0.25500000000E-02 0.  1.
         11    1    1    2    0    0  0.13432983331E+03 -0.22315309426E+02  0.50399793597E+03  0.52206934081E+03  0.51100000000E-03 0.  1.
         22    1    1    2    0    0  0.59710487444E+02 -0.10264573232E+02  0.36528552560E+03  0.37027586876E+03  0.00000000000E+00 0.  1.
          2    1    1    2  501    0 -0.19404032075E+03  0.32579882658E+02  0.38979635399E+02  0.20058042480E+03  0.25500000000E-02 0.  1.
<mgrwt>
<rscale>  0 0.19675644E+03</rscale>
<asrwt>0</asrwt>
<pdfrwt beam="1">  1       11 0.10000000E+01 0.20155951E+03</pdfrwt>
<pdfrwt beam="2">  1        2 0.14213253E-01 0.19675644E+03</pdfrwt>
<totfact> 0.50620274E+02</totfact>
</mgrwt>
</event>
<event>
 5    1  0.2799727E-003  0.2347024E+03  0.7818608E-02  0.1124599E+00
         11   -1    0    0    0    0  0.00000000000E+00  0.00000000000E+00  0.99975829471E+03  0.99975829471E+03  0.51100000000E-03 0. -1.
          2   -1    0    0  501    0 -0.00000000000E+00 -0.00000000000E+00 -0.76100637514E+02  0.76100637557E+02  0.25500000000E-02 0. -1.
         11    1    1    2    0    0 -0.16955635404E+03 -0.14610075601E+03  0.17115543456E+03  0.28176048496E+03  0.51100000000E-03 0. -1.
         22    1    1    2    0    0 -0.29767584966E+01 -0.10378038471E+02  0.65529387125E+01  0.12629559748E+02  0.00000000000E+00 0. -1.
          2    1    1    2  501    0  0.17253311254E+03  0.15647879448E+03  0.74594928392E+03  0.78146888756E+03  0.25500000000E-02 0. -1.
<mgrwt>
<rscale>  0 0.23292335E+03</rscale>
<asrwt>0</asrwt>
<pdfrwt beam="1">  1       11 0.10000000E+01 0.23470243E+03</pdfrwt>
<pdfrwt beam="2">  1        2 0.11704960E-01 0.23292335E+03</pdfrwt>
<totfact> 0.64444981E+02</totfact>
</mgrwt>
</event>
<event>
 5    1  0.2995815E-003  0.2505836E+03  0.7818608E-02  0.1118383E+00
         11   -1    0    0    0    0  0.00000000000E+00  0.00000000000E+00  0.10006447937E+04  0.10006447937E+04  0.51100000000E-03 0. -1.
          2   -1    0    0  501    0 -0.00000000000E+00 -0.00000000000E+00 -0.13249563370E+04  0.13249563370E+04  0.25500000000E-02 0. -1.
         11    1    1    2    0    0  0.16733118959E+03 -0.16102315470E+03  0.90096989912E+03  0.93041654246E+03  0.51100000000E-03 0. -1.
         22    1    1    2    0    0  0.17702668310E+02  0.48544187045E+01  0.72613480379E+02  0.74897712776E+02  0.00000000000E+00 0. -1.
          2    1    1    2  501    0 -0.18503385790E+03  0.15616873600E+03 -0.12978949229E+04  0.13202868755E+04  0.25500000000E-02 0. -1.
<mgrwt>
<rscale>  0 0.24212848E+03</rscale>
<asrwt>0</asrwt>
<pdfrwt beam="1">  1       11 0.10000000E+01 0.25058363E+03</pdfrwt>
<pdfrwt beam="2">  1        2 0.20397087E+00 0.24212848E+03</pdfrwt>
<totfact> 0.21432508E+01</totfact>
</mgrwt>
</event>
<event>
 5    1  0.2799727E-003  0.1785649E+03  0.7818608E-02  0.1169199E+00
         11   -1    0    0    0    0  0.00000000000E+00  0.00000000000E+00  0.10001087050E+04  0.10001087050E+04  0.51100000000E-03 0.  1.
         -2   -1    0    0    0  501 -0.00000000000E+00 -0.00000000000E+00 -0.54327298369E+03  0.54327298370E+03  0.25500000000E-02 0. -1.
         11    1    1    2    0    0 -0.97235553563E+02 -0.78444166385E+02  0.11644737681E+03  0.17078709460E+03  0.51100000000E-03 0.  1.
         22    1    1    2    0    0  0.13399816880E+03 -0.97360628195E+02  0.83245522578E+03  0.84877341151E+03  0.00000000000E+00 0.  1.
         -2    1    1    2    0  501 -0.36762615235E+02  0.17580479458E+03 -0.49206688128E+03  0.52382118259E+03  0.25500000000E-02 0. -1.
<mgrwt>
<rscale>  0 0.17856492E+03</rscale>
<asrwt>0</asrwt>
<pdfrwt beam="1">  1       11 0.10000000E+01 0.12493294E+03</pdfrwt>
<pdfrwt beam="2">  1       -2 0.83589542E-01 0.17856492E+03</pdfrwt>
<totfact> 0.10591330E+01</totfact>
</mgrwt>
</event>
<event>
 5    1  0.2799727E-003  0.8798840E+02  0.7818608E-02  0.1314532E+00
         11   -1    0    0    0    0  0.00000000000E+00  0.00000000000E+00  0.10003213093E+04  0.10003213093E+04  0.51100000000E-03 0. -1.
          2   -1    0    0  501    0 -0.00000000000E+00 -0.00000000000E+00 -0.76040481180E+01  0.76040485456E+01  0.25500000000E-02 0. -1.
         11    1    1    2    0    0 -0.76578549873E+02 -0.66837252925E+01  0.40183514783E+03  0.40912153758E+03  0.51100000000E-03 0. -1.
         22    1    1    2    0    0 -0.87662939686E+01  0.64646333453E+01  0.45575792240E+02  0.46859281178E+02  0.00000000000E+00 0. -1.
          2    1    1    2  501    0  0.85344843841E+02  0.21909194719E+00  0.54530632112E+03  0.55194453909E+03  0.25500000000E-02 0. -1.
<mgrwt>
<rscale>  0 0.85345125E+02</rscale>
<asrwt>0</asrwt>
<pdfrwt beam="1">  1       11 0.10000000E+01 0.87988396E+02</pdfrwt>
<pdfrwt beam="2">  1        2 0.11702294E-02 0.85345125E+02</pdfrwt>
<totfact> 0.12196209E+04</totfact>
</mgrwt>
</event>
<event>
 5    1  0.2799727E-003  0.2079769E+03  0.7818608E-02  0.1143178E+00
         11   -1    0    0    0    0  0.00000000000E+00  0.00000000000E+00  0.10000866378E+04  0.10000866378E+04  0.51100000000E-03 0.  1.
          2   -1    0    0  501    0 -0.00000000000E+00 -0.00000000000E+00 -0.68107718352E+02  0.68107718400E+02  0.25500000000E-02 0.  1.
         11    1    1    2    0    0 -0.11063717331E+03 -0.17159177356E+03  0.49573967127E+03  0.53613630966E+03  0.51100000000E-03 0.  1.
         22    1    1    2    0    0  0.45558478360E+02 -0.30317637965E+02  0.22916490810E+03  0.23560833862E+03  0.00000000000E+00 0.  1.
          2    1    1    2  501    0  0.65078694948E+02  0.20190941153E+03  0.20707434010E+03  0.29644970793E+03  0.25500000000E-02 0.  1.
<mgrwt>
<rscale>  0 0.20797691E+03</rscale>
<asrwt>0</asrwt>
<pdfrwt beam="1">  1       11 0.10000000E+01 0.54724164E+02</pdfrwt>
<pdfrwt beam="2">  1        2 0.10479018E-01 0.20797691E+03</pdfrwt>
<totfact> 0.73443225E+02</totfact>
</mgrwt>
</event>
<event>
 5    1  0.2799727E-003  0.7545353E+02  0.7818608E-02  0.1347135E+00
         11   -1    0    0    0    0  0.00000000000E+00  0.00000000000E+00  0.10003958566E+04  0.10003958566E+04  0.51100000000E-03 0.  1.
         -2   -1    0    0    0  501 -0.00000000000E+00 -0.00000000000E+00 -0.57172702594E+01  0.57172708281E+01  0.25500000000E-02 0.  1.
         11    1    1    2    0    0 -0.36983747273E+02  0.37491032134E+02  0.29610057788E+03  0.30074728141E+03  0.51100000000E-03 0.  1.
         22    1    1    2    0    0 -0.76737024568E+01  0.21459877665E+02  0.12775987878E+03  0.12977672628E+03  0.00000000000E+00 0.  1.
         -2    1    1    2    0  501  0.44657449730E+02 -0.58950909798E+02  0.57081812968E+03  0.57558911973E+03  0.25500000000E-02 0.  1.
<mgrwt>
<rscale>  0 0.73956052E+02</rscale>
<asrwt>0</asrwt>
<pdfrwt beam="1">  1       11 0.10000000E+01 0.75453525E+02</pdfrwt>
<pdfrwt beam="2">  1       -2 0.87992825E-03 0.73956052E+02</pdfrwt>
<totfact> 0.16824042E+04</totfact>
</mgrwt>
</event>
<event>
 5    1  0.2799727E-003  0.6125759E+02  0.7818608E-02  0.1392629E+00
         11   -1    0    0    0    0  0.00000000000E+00  0.00000000000E+00  0.10001844451E+04  0.10001844451E+04  0.51100000000E-03 0. -1.
          2   -1    0    0  501    0 -0.00000000000E+00 -0.00000000000E+00 -0.74559088151E+01  0.74559092512E+01  0.25500000000E-02 0. -1.
         11    1    1    2    0    0 -0.13101689573E+01  0.11700001366E+02  0.46449801073E+02  0.47918582978E+02  0.51100000000E-03 0. -1.
         22    1    1    2    0    0  0.61186467151E+02 -0.82171911651E+01  0.16544778425E+03  0.17659069994E+03  0.00000000000E+00 0. -1.
          2    1    1    2  501    0 -0.59876298194E+02 -0.34828102005E+01  0.78083095093E+03  0.78313107140E+03  0.25500000000E-02 0. -1.
<mgrwt>
<rscale>  0 0.61257589E+02</rscale>
<asrwt>0</asrwt>
<pdfrwt beam="1">  1       11 0.10000000E+01 0.11773135E+02</pdfrwt>
<pdfrwt beam="2">  1        2 0.11472745E-02 0.61257589E+02</pdfrwt>
<totfact> 0.11877331E+04</totfact>
</mgrwt>
</event>
<event>
 5    1  0.2799727E-003  0.8331759E+02  0.7818608E-02  0.1331236E+00
         11   -1    0    0    0    0  0.00000000000E+00  0.00000000000E+00  0.10000731647E+04  0.10000731647E+04  0.51100000000E-03 0.  1.
          2   -1    0    0  501    0 -0.00000000000E+00 -0.00000000000E+00 -0.12612565368E+02  0.12612565626E+02  0.25500000000E-02 0.  1.
         11    1    1    2    0    0  0.31809620694E+02  0.64670628967E+02  0.13450629311E+03  0.15259778867E+03  0.51100000000E-03 0.  1.
         22    1    1    2    0    0 -0.49631772108E+01  0.98780697398E+01  0.16330666977E+02  0.19720549529E+02  0.00000000000E+00 0.  1.
          2    1    1    2  501    0 -0.26846443484E+02 -0.74548698707E+02  0.83662363927E+03  0.84036739216E+03  0.25500000000E-02 0.  1.
<mgrwt>
<rscale>  0 0.79235346E+02</rscale>
<asrwt>0</asrwt>
<pdfrwt beam="1">  1       11 0.10000000E+01 0.83317592E+02</pdfrwt>
<pdfrwt beam="2">  1        2 0.19405366E-02 0.79235346E+02</pdfrwt>
<totfact> 0.60831516E+03</totfact>
</mgrwt>
</event>
<event>
 5    1  0.2799727E-003  0.9237645E+02  0.7818608E-02  0.1300597E+00
         11   -1    0    0    0    0  0.00000000000E+00  0.00000000000E+00  0.99998243673E+03  0.99998243673E+03  0.51100000000E-03 0. -1.
         -2   -1    0    0    0  501 -0.00000000000E+00 -0.00000000000E+00 -0.11400625529E+02  0.11400625814E+02  0.25500000000E-02 0. -1.
         11    1    1    2    0    0  0.69872947618E+02  0.22907096836E+02  0.20727102041E+03  0.21992780588E+03  0.51100000000E-03 0. -1.
         22    1    1    2    0    0  0.15936530642E+02  0.71987865850E+01  0.30500452849E+02  0.35157832146E+02  0.00000000000E+00 0. -1.
         -2    1    1    2    0  501 -0.85809478259E+02 -0.30105883421E+02  0.75081033794E+03  0.75629742452E+03  0.25500000000E-02 0. -1.
<mgrwt>
<rscale>  0 0.90937510E+02</rscale>
<asrwt>0</asrwt>
<pdfrwt beam="1">  1       11 0.10000000E+01 0.92376454E+02</pdfrwt>
<pdfrwt beam="2">  1       -2 0.17539116E-02 0.90937510E+02</pdfrwt>
<totfact> 0.65387949E+03</totfact>
</mgrwt>
</event>
<event>
 5    1  0.2799727E-003  0.1804274E+03  0.7818608E-02  0.1170365E+00
         11   -1    0    0    0    0  0.00000000000E+00  0.00000000000E+00  0.10000966159E+04  0.10000966159E+04  0.51100000000E-03 0. -1.
         -2   -1    0    0    0  501 -0.00000000000E+00 -0.00000000000E+00 -0.12950545074E+03  0.12950545076E+03  0.25500000000E-02 0.  1.
         11    1    1    2    0    0 -0.10756250956E+03 -0.70534751378E+02  0.72584304588E+03  0.73715193268E+03  0.51100000000E-03 0. -1.
         22    1    1    2    0    0 -0.33802193223E+02 -0.36605217484E+02  0.20043594098E+03  0.20653594518E+03  0.00000000000E+00 0.  1.
         -2    1    1    2    0  501  0.14136470278E+03  0.10713996886E+03 -0.55687821664E+02  0.18591418883E+03  0.25500000000E-02 0.  1.
<mgrwt>
<rscale>  0 0.17737799E+03</rscale>
<asrwt>0</asrwt>
<pdfrwt beam="1">  1       11 0.10000000E+01 0.18042741E+03</pdfrwt>
<pdfrwt beam="2">  1       -2 0.19925840E-01 0.17737799E+03</pdfrwt>
<totfact> 0.16785523E+02</totfact>
</mgrwt>
</event>
<event>
 5    1  0.2799727E-003  0.8718587E+02  0.7818608E-02  0.1309813E+00
         11   -1    0    0    0    0  0.00000000000E+00  0.00000000000E+00  0.10001511898E+04  0.10001511898E+04  0.51100000000E-03 0. -1.
          2   -1    0    0  501    0 -0.00000000000E+00 -0.00000000000E+00 -0.11394496396E+02  0.11394496681E+02  0.25500000000E-02 0. -1.
         11    1    1    2    0    0 -0.14101072169E+02  0.31515209480E+02  0.14869759917E+03  0.15265328252E+03  0.51100000000E-03 0. -1.
         22    1    1    2    0    0  0.52745770995E+02  0.57188067423E+02  0.46989927324E+03  0.47629604072E+03  0.00000000000E+00 0. -1.
          2    1    1    2  501    0 -0.38644698826E+02 -0.88703276903E+02  0.37015982097E+03  0.38259636322E+03  0.25500000000E-02 0. -1.
<mgrwt>
<rscale>  0 0.87185870E+02</rscale>
<asrwt>0</asrwt>
<pdfrwt beam="1">  1       11 0.10000000E+01 0.34526075E+02</pdfrwt>
<pdfrwt beam="2">  1        2 0.17532645E-02 0.87185870E+02</pdfrwt>
<totfact> 0.70659500E+03</totfact>
</mgrwt>
</event>
<event>
 5    1  0.2799727E-003  0.5945165E+02  0.7818608E-02  0.1544084E+00
         11   -1    0    0    0    0  0.00000000000E+00  0.00000000000E+00  0.10002417205E+04  0.10002417205E+04  0.51100000000E-03 0.  1.
          2   -1    0    0  501    0 -0.00000000000E+00 -0.00000000000E+00 -0.17062111596E+02  0.17062111787E+02  0.25500000000E-02 0.  1.
         11    1    1    2    0    0 -0.25787088374E+02 -0.38115974198E+02  0.25781252278E+02  0.52749164782E+02  0.51100000000E-03 0.  1.
         22    1    1    2    0    0 -0.21214131693E+02 -0.11448614829E+00  0.41069456250E+02  0.46225022739E+02  0.00000000000E+00 0. -1.
          2    1    1    2  501    0  0.47001220067E+02  0.38230460346E+02  0.91632890038E+03  0.91832964477E+03  0.25500000000E-02 0.  1.
<mgrwt>
<rscale>  0 0.35513841E+02</rscale>
<asrwt>0</asrwt>
<pdfrwt beam="1">  1       11 0.10000000E+01 0.59451651E+02</pdfrwt>
<pdfrwt beam="2">  1        2 0.26255747E-02 0.35513841E+02</pdfrwt>
<totfact> 0.36420180E+03</totfact>
</mgrwt>
</event>
<event>
 5    1  0.2799727E-003  0.9382977E+02  0.7818608E-02  0.1293834E+00
         11   -1    0    0    0    0  0.00000000000E+00  0.00000000000E+00  0.10004869265E+04  0.10004869265E+04  0.51100000000E-03 0. -1.
          2   -1    0    0  501    0 -0.00000000000E+00 -0.00000000000E+00 -0.16054824577E+02  0.16054824780E+02  0.25500000000E-02 0. -1.
         11    1    1    2    0    0  0.50184141109E+02  0.57635568378E+01  0.16645803157E+03  0.17395385273E+03  0.51100000000E-03 0. -1.
         22    1    1    2    0    0 -0.13356328500E+02  0.88208929898E+02  0.52957994028E+03  0.53704200950E+03  0.00000000000E+00 0. -1.
          2    1    1    2  501    0 -0.36827812609E+02 -0.93972486736E+02  0.28839413009E+03  0.30554588906E+03  0.25500000000E-02 0. -1.
<mgrwt>
<rscale>  0 0.93829775E+02</rscale>
<asrwt>0</asrwt>
<pdfrwt beam="1">  1       11 0.10000000E+01 0.50514049E+02</pdfrwt>
<pdfrwt beam="2">  1        2 0.24711757E-02 0.93829775E+02</pdfrwt>
<totfact> 0.44934374E+03</totfact>
</mgrwt>
</event>
<event>
 5    1  0.2799727E-003  0.5559115E+03  0.7818608E-02  0.1000135E+00
         11   -1    0    0    0    0  0.00000000000E+00  0.00000000000E+00  0.10007023500E+04  0.10007023500E+04  0.51100000000E-03 0. -1.
          2   -1    0    0  501    0 -0.00000000000E+00 -0.00000000000E+00 -0.15522005341E+04  0.15522005341E+04  0.25500000000E-02 0. -1.
         11    1    1    2    0    0  0.37407917893E+03  0.35816772153E+03  0.69514670527E+03  0.86686117152E+03  0.51100000000E-03 0. -1.
         22    1    1    2    0    0  0.58115276392E+02 -0.42567168113E+01  0.16120721354E+03  0.17141549138E+03  0.00000000000E+00 0. -1.
          2    1    1    2  501    0 -0.43219445532E+03 -0.35391100471E+03 -0.14078521028E+04  0.15146262212E+04  0.25500000000E-02 0. -1.
<mgrwt>
<rscale>  0 0.55591149E+03</rscale>
<asrwt>0</asrwt>
<pdfrwt beam="1">  1       11 0.10000000E+01 0.58270962E+02</pdfrwt>
<pdfrwt beam="2">  1        2 0.23896780E+00 0.55591149E+03</pdfrwt>
<totfact> 0.15187404E+01</totfact>
</mgrwt>
</event>
<event>
 5    1  0.2799727E-003  0.4705637E+03  0.7818608E-02  0.1022102E+00
         11   -1    0    0    0    0  0.00000000000E+00  0.00000000000E+00  0.10004168425E+04  0.10004168425E+04  0.51100000000E-03 0.  1.
          2   -1    0    0  501    0 -0.00000000000E+00 -0.00000000000E+00 -0.22278278665E+03  0.22278278666E+03  0.25500000000E-02 0.  1.
         11    1    1    2    0    0 -0.17838899123E+03 -0.41814714247E+03  0.32524147174E+03  0.55897377388E+03  0.51100000000E-03 0.  1.
         22    1    1    2    0    0 -0.97290141929E+01 -0.11862618445E+02  0.59526106297E+01  0.16456275607E+02  0.00000000000E+00 0.  1.
          2    1    1    2  501    0  0.18811800542E+03  0.43000976091E+03  0.44643997351E+03  0.64776957971E+03  0.25500000000E-02 0.  1.
<mgrwt>
<rscale>  0 0.46935784E+03</rscale>
<asrwt>0</asrwt>
<pdfrwt beam="1">  1       11 0.10000000E+01 0.47056373E+03</pdfrwt>
<pdfrwt beam="2">  1        2 0.34288561E-01 0.46935784E+03</pdfrwt>
<totfact> 0.18836629E+02</totfact>
</mgrwt>
</event>
<event>
 5    1  0.2799727E-003  0.1467926E+03  0.7818608E-02  0.1204471E+00
         11   -1    0    0    0    0  0.00000000000E+00  0.00000000000E+00  0.10010409563E+04  0.10010409563E+04  0.51100000000E-03 0. -1.
          2   -1    0    0  501    0 -0.00000000000E+00 -0.00000000000E+00 -0.17606961501E+04  0.17606961501E+04  0.25500000000E-02 0. -1.
         11    1    1    2    0    0  0.11935561593E+02 -0.29228269572E+02  0.62584366381E+02  0.70096735219E+02  0.51100000000E-03 0. -1.
         22    1    1    2    0    0 -0.12325865845E+02  0.17592395143E+03  0.92327772325E+03  0.93996963670E+03  0.00000000000E+00 0. -1.
          2    1    1    2  501    0  0.39030425236E+00 -0.14669568185E+03 -0.17455172834E+04  0.17516707345E+04  0.25500000000E-02 0. -1.
<mgrwt>
<rscale>  0 0.14679256E+03</rscale>
<asrwt>0</asrwt>
<pdfrwt beam="1">  1       11 0.10000000E+01 0.31571338E+02</pdfrwt>
<pdfrwt beam="2">  1        2 0.27115829E+00 0.14679256E+03</pdfrwt>
<totfact> 0.13114575E+01</totfact>
</mgrwt>
</event>
<event>
 5    1  0.2799727E-003  0.2768382E+03  0.7818608E-02  0.1100833E+00
         11   -1    0    0    0    0  0.00000000000E+00  0.00000000000E+00  0.10003097108E+04  0.10003097108E+04  0.51100000000E-03 0.  1.
         -2   -1    0    0    0  501 -0.00000000000E+00 -0.00000000000E+00 -0.14614139483E+03  0.14614139485E+03  0.25500000000E-02 0. -1.
         11    1    1    2    0    0  0.21069699926E+03 -0.28178893387E+02  0.69319157903E+03  0.72505299169E+03  0.51100000000E-03 0.  1.
         22    1    1    2    0    0  0.54019916429E+02 -0.28813517824E+02  0.13639057197E+03  0.14950170000E+03  0.00000000000E+00 0.  1.
         -2    1    1    2    0  501 -0.26471691569E+03  0.56992411211E+02  0.24586164933E+02  0.27189641392E+03  0.25500000000E-02 0. -1.
<mgrwt>
<rscale>  0 0.27078253E+03</rscale>
<asrwt>0</asrwt>
<pdfrwt beam="1">  1       11 0.10000000E+01 0.27683815E+03</pdfrwt>
<pdfrwt beam="2">  1       -2 0.22490254E-01 0.27078253E+03</pdfrwt>
<totfact> 0.13777804E+02</totfact>
</mgrwt>
</event>
<event>
 5    1  0.2799727E-003  0.3372800E+03  0.7818608E-02  0.1069061E+00
         11   -1    0    0    0    0  0.00000000000E+00  0.00000000000E+00  0.10003125401E+04  0.10003125401E+04  0.51100000000E-03 0. -1.
          2   -1    0    0  501    0 -0.00000000000E+00 -0.00000000000E+00 -0.22413335331E+03  0.22413335332E+03  0.25500000000E-02 0. -1.
         11    1    1    2    0    0 -0.24274404119E+03 -0.21731424807E+03  0.78239772427E+03  0.84752365801E+03  0.51100000000E-03 0. -1.
         22    1    1    2    0    0 -0.10728048523E+02 -0.13154216188E+01  0.37791927278E+02  0.39307138366E+02  0.00000000000E+00 0.  1.
          2    1    1    2  501    0  0.25347208972E+03  0.21862966969E+03 -0.44010464754E+02  0.33761509704E+03  0.25500000000E-02 0. -1.
<mgrwt>
<rscale>  0 0.33473427E+03</rscale>
<asrwt>0</asrwt>
<pdfrwt beam="1">  1       11 0.10000000E+01 0.33728000E+03</pdfrwt>
<pdfrwt beam="2">  1        2 0.34492830E-01 0.33473427E+03</pdfrwt>
<totfact> 0.18660380E+02</totfact>
</mgrwt>
</event>
<event>
 5    1  0.2799727E-003  0.1899329E+03  0.7818608E-02  0.1169258E+00
         11   -1    0    0    0    0  0.00000000000E+00  0.00000000000E+00  0.10002505417E+04  0.10002505417E+04  0.51100000000E-03 0.  1.
         -2   -1    0    0    0  501 -0.00000000000E+00 -0.00000000000E+00 -0.36781778972E+02  0.36781779061E+02  0.25500000000E-02 0. -1.
         11    1    1    2    0    0  0.97099378036E+02 -0.31676754506E+02  0.31400493261E+03  0.33019812794E+03  0.51100000000E-03 0.  1.
         22    1    1    2    0    0  0.47720556901E+02 -0.72683360236E+02  0.32587778041E+03  0.33727800132E+03  0.00000000000E+00 0. -1.
         -2    1    1    2    0  501 -0.14481993494E+03  0.10436011474E+03  0.32358604966E+03  0.36955619145E+03  0.25500000000E-02 0. -1.
<mgrwt>
<rscale>  0 0.17850447E+03</rscale>
<asrwt>0</asrwt>
<pdfrwt beam="1">  1       11 0.10000000E+01 0.18993287E+03</pdfrwt>
<pdfrwt beam="2">  1       -2 0.56601528E-02 0.17850447E+03</pdfrwt>
<totfact> 0.12525871E+03</totfact>
</mgrwt>
</event>
<event>
 5    1  0.2799727E-003  0.2547028E+03  0.7818608E-02  0.1111005E+00
         11   -1    0    0    0    0  0.00000000000E+00  0.00000000000E+00  0.10001930360E+04  0.10001930360E+04  0.51100000000E-03 0.  1.
         -2   -1    0    0    0  501 -0.00000000000E+00 -0.00000000000E+00 -0.76454158819E+02  0.76454158861E+02  0.25500000000E-02 0. -1.
         11    1    1    2    0    0  0.10159440297E+03 -0.22161927700E+03  0.23469836664E+03  0.33840781604E+03  0.51100000000E-03 0.  1.
         22    1    1    2    0    0  0.64987995647E+01 -0.78710928062E+01  0.15981115774E+02  0.18962714973E+02  0.00000000000E+00 0. -1.
         -2    1    1    2    0  501 -0.10809320253E+03  0.22949036981E+03  0.67305939479E+03  0.71927666388E+03  0.25500000000E-02 0. -1.
<mgrwt>
<rscale>  0 0.25367296E+03</rscale>
<asrwt>0</asrwt>
<pdfrwt beam="1">  1       11 0.10000000E+01 0.25470276E+03</pdfrwt>
<pdfrwt beam="2">  1       -2 0.11764448E-01 0.25367296E+03</pdfrwt>
<totfact> 0.40717711E+02</totfact>
</mgrwt>
</event>
<event>
 5    1  0.2799727E-003  0.8661734E+02  0.7818608E-02  0.1580841E+00
         11   -1    0    0    0    0  0.00000000000E+00  0.00000000000E+00  0.10000182842E+04  0.10000182842E+04  0.51100000000E-03 0. -1.
          2   -1    0    0  501    0 -0.00000000000E+00 -0.00000000000E+00 -0.13840606984E+02  0.13840607219E+02  0.25500000000E-02 0. -1.
         11    1    1    2    0    0  0.79787694510E+02 -0.42143414356E+02  0.19689852897E+03  0.21658987576E+03  0.51100000000E-03 0. -1.
         22    1    1    2    0    0  0.44105158740E+00  0.11534671360E+02  0.19095340439E+02  0.22313117137E+02  0.00000000000E+00 0. -1.
          2    1    1    2  501    0 -0.80228746097E+02  0.30608742996E+02  0.77018380779E+03  0.77495589851E+03  0.25500000000E-02 0. -1.
<mgrwt>
<rscale>  0 0.31620122E+02</rscale>
<asrwt>0</asrwt>
<pdfrwt beam="1">  1       11 0.10000000E+01 0.86617338E+02</pdfrwt>
<pdfrwt beam="2">  1        2 0.21293630E-02 0.31620122E+02</pdfrwt>
<totfact> 0.46882686E+03</totfact>
</mgrwt>
</event>
<event>
 5    1  0.2799727E-003  0.2054887E+03  0.7818608E-02  0.1286380E+00
         11   -1    0    0    0    0  0.00000000000E+00  0.00000000000E+00  0.10002842643E+04  0.10002842643E+04  0.51100000000E-03 0.  1.
          2   -1    0    0  501    0 -0.00000000000E+00 -0.00000000000E+00 -0.15614021460E+03  0.15614021462E+03  0.25500000000E-02 0.  1.
         11    1    1    2    0    0 -0.27239363882E+03  0.82939130852E+02  0.25346508345E+03  0.38121088970E+03  0.51100000000E-03 0.  1.
         22    1    1    2    0    0  0.17669528043E+03 -0.66139302137E+02  0.63930501232E+03  0.66656322145E+03  0.00000000000E+00 0.  1.
          2    1    1    2  501    0  0.95698358394E+02 -0.16799828715E+02 -0.48626046105E+02  0.10865036774E+03  0.25500000000E-02 0.  1.
<mgrwt>
<rscale>  0 0.97161773E+02</rscale>
<asrwt>0</asrwt>
<pdfrwt beam="1">  1       11 0.10000000E+01 0.20548865E+03</pdfrwt>
<pdfrwt beam="2">  1        2 0.24028399E-01 0.97161773E+02</pdfrwt>
<totfact> 0.27103337E+02</totfact>
</mgrwt>
</event>
<event>
 5    1  0.2799727E-003  0.2687499E+03  0.7818608E-02  0.1119468E+00
         11   -1    0    0    0    0  0.00000000000E+00  0.00000000000E+00  0.10002037326E+04  0.10002037326E+04  0.51100000000E-03 0. -1.
          2   -1    0    0  501    0 -0.00000000000E+00 -0.00000000000E+00 -0.60164451432E+03  0.60164451433E+03  0.25500000000E-02 0.  1.
         11    1    1    2    0    0  0.88969760503E+02 -0.19009166599E+02  0.28267448052E+03  0.29695425344E+03  0.51100000000E-03 0. -1.
         22    1    1    2    0    0  0.68462577016E+02 -0.16278548636E+03  0.67422276895E+03  0.69696670020E+03  0.00000000000E+00 0. -1.
          2    1    1    2  501    0 -0.15743233752E+03  0.18179465296E+03 -0.55833803124E+03  0.60792729325E+03  0.25500000000E-02 0.  1.
<mgrwt>
<rscale>  0 0.24048750E+03</rscale>
<asrwt>0</asrwt>
<pdfrwt beam="1">  1       11 0.10000000E+01 0.26874991E+03</pdfrwt>
<pdfrwt beam="2">  1        2 0.92579549E-01 0.24048750E+03</pdfrwt>
<totfact> 0.62885354E+01</totfact>
</mgrwt>
</event>
<event>
 5    1  0.2799727E-003  0.8958576E+02  0.7818608E-02  0.1311373E+00
         11   -1    0    0    0    0  0.00000000000E+00  0.00000000000E+00  0.10002457285E+04  0.10002457285E+04  0.51100000000E-03 0.  1.
         -2   -1    0    0    0  501 -0.00000000000E+00 -0.00000000000E+00 -0.77783885698E+01  0.77783889878E+01  0.25500000000E-02 0.  1.
         11    1    1    2    0    0 -0.35266695060E+02  0.30654024590E+02  0.23838884598E+03  0.24292519608E+03  0.51100000000E-03 0.  1.
         22    1    1    2    0    0 -0.41893104478E+02  0.86021039747E+01  0.23925423725E+03  0.24304653554E+03  0.00000000000E+00 0.  1.
         -2    1    1    2    0  501  0.77159799538E+02 -0.39256128565E+02  0.51482425672E+03  0.52205238588E+03  0.25500000000E-02 0.  1.
<mgrwt>
<rscale>  0 0.86571810E+02</rscale>
<asrwt>0</asrwt>
<pdfrwt beam="1">  1       11 0.10000000E+01 0.89585763E+02</pdfrwt>
<pdfrwt beam="2">  1       -2 0.11969692E-02 0.86571810E+02</pdfrwt>
<totfact> 0.11186512E+04</totfact>
</mgrwt>
</event>
<event>
 5    1  0.2799727E-003  0.8772377E+02  0.7818608E-02  0.1315312E+00
         11   -1    0    0    0    0  0.00000000000E+00  0.00000000000E+00  0.10003173384E+04  0.10003173384E+04  0.51100000000E-03 0.  1.
          2   -1    0    0  501    0 -0.00000000000E+00 -0.00000000000E+00 -0.16905383223E+02  0.16905383415E+02  0.25500000000E-02 0.  1.
         11    1    1    2    0    0 -0.51425222057E+02 -0.35548403389E+02  0.71968888332E+02  0.95329761015E+02  0.51100000000E-03 0.  1.
         22    1    1    2    0    0 -0.23702784147E+02 -0.43088391679E+01  0.42944995213E+02  0.49240843668E+02  0.00000000000E+00 0.  1.
          2    1    1    2  501    0  0.75128006204E+02  0.39857242557E+02  0.86849807166E+03  0.87265211716E+03  0.25500000000E-02 0.  1.
<mgrwt>
<rscale>  0 0.85045971E+02</rscale>
<asrwt>0</asrwt>
<pdfrwt beam="1">  1       11 0.10000000E+01 0.87723766E+02</pdfrwt>
<pdfrwt beam="2">  1        2 0.26016535E-02 0.85045971E+02</pdfrwt>
<totfact> 0.41455540E+03</totfact>
</mgrwt>
</event>
<event>
 5    1  0.2799727E-003  0.2513748E+02  0.7818608E-02  0.1671695E+00
         11   -1    0    0    0    0  0.00000000000E+00  0.00000000000E+00  0.10000203050E+04  0.10000203050E+04  0.51100000000E-03 0. -1.
          2   -1    0    0  501    0 -0.00000000000E+00 -0.00000000000E+00 -0.16984776005E+01  0.16984795147E+01  0.25500000000E-02 0. -1.
         11    1    1    2    0    0  0.10646125684E+02 -0.62300164211E+01  0.43607238666E+02  0.45318256376E+02  0.51100000000E-03 0. -1.
         22    1    1    2    0    0  0.68837718392E+01 -0.10556823931E+02  0.57819232589E+02  0.59176824040E+02  0.00000000000E+00 0.  1.
          2    1    1    2  501    0 -0.17529897523E+02  0.16786840352E+02  0.89689535619E+03  0.89722370414E+03  0.25500000000E-02 0. -1.
<mgrwt>
<rscale>  0 0.24271286E+02</rscale>
<asrwt>0</asrwt>
<pdfrwt beam="1">  1       11 0.10000000E+01 0.25137477E+02</pdfrwt>
<pdfrwt beam="2">  1        2 0.26130969E-03 0.24271286E+02</pdfrwt>
<totfact> 0.69520213E+04</totfact>
</mgrwt>
</event>
<event>
 5    1  0.2799727E-003  0.1820397E+03  0.7818608E-02  0.1165843E+00
         11   -1    0    0    0    0  0.00000000000E+00  0.00000000000E+00  0.10002868358E+04  0.10002868358E+04  0.51100000000E-03 0.  1.
          2   -1    0    0  501    0 -0.00000000000E+00 -0.00000000000E+00 -0.23683006463E+03  0.23683006464E+03  0.25500000000E-02 0.  1.
         11    1    1    2    0    0 -0.12123697424E+02 -0.15393393309E+03  0.89663318260E+03  0.90983168989E+03  0.51100000000E-03 0.  1.
         22    1    1    2    0    0 -0.52773237937E+02 -0.17686911919E+02  0.44964662775E+02  0.71551816148E+02  0.00000000000E+00 0. -1.
          2    1    1    2  501    0  0.64896935361E+02  0.17162084500E+03 -0.17814107423E+03  0.25573339437E+03  0.25500000000E-02 0.  1.
<mgrwt>
<rscale>  0 0.18203974E+03</rscale>
<asrwt>0</asrwt>
<pdfrwt beam="1">  1       11 0.10000000E+01 0.55658256E+02</pdfrwt>
<pdfrwt beam="2">  1        2 0.36445844E-01 0.18203974E+03</pdfrwt>
<totfact> 0.17466574E+02</totfact>
</mgrwt>
</event>
<event>
 5    1  0.2799727E-003  0.5724432E+02  0.7818608E-02  0.1654053E+00
         11   -1    0    0    0    0  0.00000000000E+00  0.00000000000E+00  0.10001990567E+04  0.10001990567E+04  0.51100000000E-03 0. -1.
          2   -1    0    0  501    0 -0.00000000000E+00 -0.00000000000E+00 -0.56215610306E+01  0.56215616089E+01  0.25500000000E-02 0. -1.
         11    1    1    2    0    0 -0.36912938918E+02  0.46481994269E+02  0.23033405680E+03  0.23785903088E+03  0.51100000000E-03 0. -1.
         22    1    1    2    0    0 -0.62550939911E+01 -0.94718514259E+01  0.42759781939E+02  0.44240717917E+02  0.00000000000E+00 0. -1.
          2    1    1    2  501    0  0.43168032909E+02 -0.37010142844E+02  0.72148365692E+03  0.72372086950E+03  0.25500000000E-02 0. -1.
<mgrwt>
<rscale>  0 0.25490632E+02</rscale>
<asrwt>0</asrwt>
<pdfrwt beam="1">  1       11 0.10000000E+01 0.57244319E+02</pdfrwt>
<pdfrwt beam="2">  1        2 0.86502772E-03 0.25490632E+02</pdfrwt>
<totfact> 0.14565332E+04</totfact>
</mgrwt>
</event>
<event>
 5    1  0.2799727E-003  0.4737332E+02  0.7818608E-02  0.1567567E+00
         11   -1    0    0    0    0  0.00000000000E+00  0.00000000000E+00  0.10001267933E+04  0.10001267933E+04  0.51100000000E-03 0. -1.
          2   -1    0    0  501    0 -0.00000000000E+00 -0.00000000000E+00 -0.11656882079E+02  0.11656882358E+02  0.25500000000E-02 0. -1.
         11    1    1    2    0    0  0.28828111247E+01 -0.47268747814E+02  0.11773012281E+03  0.12689770265E+03  0.51100000000E-03 0. -1.
         22    1    1    2    0    0  0.22075595510E+02  0.61723912129E+01  0.14129168792E+02  0.26927007653E+02  0.00000000000E+00 0. -1.
          2    1    1    2  501    0 -0.24958406634E+02  0.41096356601E+02  0.85661061966E+03  0.85795896539E+03  0.25500000000E-02 0. -1.
<mgrwt>
<rscale>  0 0.32953048E+02</rscale>
<asrwt>0</asrwt>
<pdfrwt beam="1">  1       11 0.10000000E+01 0.47373320E+02</pdfrwt>
<pdfrwt beam="2">  1        2 0.17935938E-02 0.32953048E+02</pdfrwt>
<totfact> 0.59016541E+03</totfact>
</mgrwt>
</event>
<event>
 5    1  0.2799727E-003  0.3099613E+03  0.7818608E-02  0.1084166E+00
         11   -1    0    0    0    0  0.00000000000E+00  0.00000000000E+00  0.10003447689E+04  0.10003447689E+04  0.51100000000E-03 0. -1.
          2   -1    0    0  501    0 -0.00000000000E+00 -0.00000000000E+00 -0.97643908664E+02  0.97643908697E+02  0.25500000000E-02 0. -1.
         11    1    1    2    0    0  0.11226183953E+02 -0.28572028769E+03  0.49118789396E+03  0.56835522095E+03  0.51100000000E-03 0. -1.
         22    1    1    2    0    0  0.65002915684E+01 -0.15918407586E+02  0.76832939452E+02  0.78733411430E+02  0.00000000000E+00 0.  1.
          2    1    1    2  501    0 -0.17726475522E+02  0.30163869528E+03  0.33468002686E+03  0.45090004525E+03  0.25500000000E-02 0. -1.
<mgrwt>
<rscale>  0 0.30215911E+03</rscale>
<asrwt>0</asrwt>
<pdfrwt beam="1">  1       11 0.10000000E+01 0.30996134E+03</pdfrwt>
<pdfrwt beam="2">  1        2 0.15027319E-01 0.30215911E+03</pdfrwt>
<totfact> 0.48116094E+02</totfact>
</mgrwt>
</event>
<event>
 5    1  0.2799727E-003  0.8709475E+02  0.7818608E-02  0.1314634E+00
         11   -1    0    0    0    0  0.00000000000E+00  0.00000000000E+00  0.10001519776E+04  0.10001519776E+04  0.51100000000E-03 0. -1.
          2   -1    0    0  501    0 -0.00000000000E+00 -0.00000000000E+00 -0.79342462082E+01  0.79342466179E+01  0.25500000000E-02 0. -1.
         11    1    1    2    0    0  0.35382777366E+02  0.52218094712E+02  0.24055749131E+03  0.24868972028E+03  0.51100000000E-03 0. -1.
         22    1    1    2    0    0  0.15534129075E+02  0.16226153614E+02  0.13323259551E+03  0.13511299617E+03  0.00000000000E+00 0. -1.
          2    1    1    2  501    0 -0.50916906441E+02 -0.68444248326E+02  0.61842764454E+03  0.62428350773E+03  0.25500000000E-02 0. -1.
<mgrwt>
<rscale>  0 0.85306193E+02</rscale>
<asrwt>0</asrwt>
<pdfrwt beam="1">  1       11 0.10000000E+01 0.87094754E+02</pdfrwt>
<pdfrwt beam="2">  1        2 0.12208388E-02 0.85306193E+02</pdfrwt>
<totfact> 0.11511777E+04</totfact>
</mgrwt>
</event>
<event>
 5    1  0.2799727E-003  0.2080272E+03  0.7818608E-02  0.1144172E+00
         11   -1    0    0    0    0  0.00000000000E+00  0.00000000000E+00  0.99999902629E+03  0.99999902629E+03  0.51100000000E-03 0.  1.
          2   -1    0    0  501    0 -0.00000000000E+00 -0.00000000000E+00 -0.11238966786E+03  0.11238966789E+03  0.25500000000E-02 0.  1.
         11    1    1    2    0    0  0.93189113007E+01  0.10878346937E+02  0.40034743409E+02  0.42520127234E+02  0.51100000000E-03 0.  1.
         22    1    1    2    0    0  0.11347161767E+03  0.15544854372E+03  0.84129867686E+03  0.86303158774E+03  0.00000000000E+00 0.  1.
          2    1    1    2  501    0 -0.12279052897E+03 -0.16632689066E+03  0.62759381577E+01  0.20683697921E+03  0.25500000000E-02 0.  1.
<mgrwt>
<rscale>  0 0.20674174E+03</rscale>
<asrwt>0</asrwt>
<pdfrwt beam="1">  1       11 0.10000000E+01 0.20802719E+03</pdfrwt>
<pdfrwt beam="2">  1        2 0.17290701E-01 0.20674174E+03</pdfrwt>
<totfact> 0.40260093E+02</totfact>
</mgrwt>
</event>
<event>
 5    1  0.2799727E-003  0.5406219E+02  0.7818608E-02  0.1434807E+00
         11   -1    0    0    0    0  0.00000000000E+00  0.00000000000E+00  0.10004617852E+04  0.10004617852E+04  0.51100000000E-03 0. -1.
          2   -1    0    0  501    0 -0.00000000000E+00 -0.00000000000E+00 -0.27321522122E+02  0.27321522241E+02  0.25500000000E-02 0. -1.
         11    1    1    2    0    0  0.29492079717E+02 -0.11993246883E+02  0.64942838246E+00  0.31844033888E+02  0.51100000000E-03 0. -1.
         22    1    1    2    0    0  0.12953978303E+02 -0.18057870912E+02  0.16573326675E+00  0.22224304787E+02  0.00000000000E+00 0. -1.
          2    1    1    2  501    0 -0.42446058020E+02  0.30051117795E+02  0.97232510141E+03  0.97371496875E+03  0.25500000000E-02 0. -1.
<mgrwt>
<rscale>  0 0.52007091E+02</rscale>
<asrwt>0</asrwt>
<pdfrwt beam="1">  1       11 0.10000000E+01 0.54062193E+02</pdfrwt>
<pdfrwt beam="2">  1        2 0.42052520E-02 0.52007091E+02</pdfrwt>
<totfact> 0.20889150E+03</totfact>
</mgrwt>
</event>
<event>
 5    1  0.2799727E-003  0.4493049E+02  0.7818608E-02  0.1484466E+00
         11   -1    0    0    0    0  0.00000000000E+00  0.00000000000E+00  0.10004160454E+04  0.10004160454E+04  0.51100000000E-03 0. -1.
          2   -1    0    0  501    0 -0.00000000000E+00 -0.00000000000E+00 -0.72221254064E+01  0.72221258566E+01  0.25500000000E-02 0. -1.
         11    1    1    2    0    0  0.26804787102E+02  0.68522655447E+01  0.33182855770E+02  0.43203611793E+02  0.51100000000E-03 0. -1.
         22    1    1    2    0    0  0.14591155494E+02  0.62436230731E+01  0.35287643999E+02  0.38692408387E+02  0.00000000000E+00 0. -1.
          2    1    1    2  501    0 -0.41395942597E+02 -0.13095888618E+02  0.92472342026E+03  0.92574215111E+03  0.25500000000E-02 0. -1.
<mgrwt>
<rscale>  0 0.43418042E+02</rscale>
<asrwt>0</asrwt>
<pdfrwt beam="1">  1       11 0.10000000E+01 0.44930488E+02</pdfrwt>
<pdfrwt beam="2">  1        2 0.11115585E-02 0.43418042E+02</pdfrwt>
<totfact> 0.11662052E+04</totfact>
</mgrwt>
</event>
<event>
 5    1  0.2799727E-003  0.1312661E+03  0.7818608E-02  0.1504217E+00
         11   -1    0    0    0    0  0.00000000000E+00  0.00000000000E+00  0.10002963891E+04  0.10002963891E+04  0.51100000000E-03 0.  1.
          2   -1    0    0  501    0 -0.00000000000E+00 -0.00000000000E+00 -0.11550626586E+03  0.11550626589E+03  0.25500000000E-02 0. -1.
         11    1    1    2    0    0 -0.39986928825E+02 -0.11926026722E+03  0.42136674451E+03  0.43974071814E+03  0.51100000000E-03 0.  1.
         22    1    1    2    0    0  0.45523989303E+01  0.13897147734E+03  0.55699204768E+03  0.57408530466E+03  0.00000000000E+00 0.  1.
          2    1    1    2  501    0  0.35434529894E+02 -0.19711210123E+02 -0.93568668909E+02  0.10197663223E+03  0.25500000000E-02 0. -1.
<mgrwt>
<rscale>  0 0.40547968E+02</rscale>
<asrwt>0</asrwt>
<pdfrwt beam="1">  1       11 0.10000000E+01 0.13126610E+03</pdfrwt>
<pdfrwt beam="2">  1        2 0.17775461E-01 0.40547968E+02</pdfrwt>
<totfact> 0.36397973E+02</totfact>
</mgrwt>
</event>
<event>
 5    1  0.2799727E-003  0.1652822E+03  0.7818608E-02  0.1182859E+00
         11   -1    0    0    0    0  0.00000000000E+00  0.00000000000E+00  0.10002388580E+04  0.10002388580E+04  0.51100000000E-03 0.  1.
          2   -1    0    0  501    0 -0.00000000000E+00 -0.00000000000E+00 -0.25509976505E+03  0.25509976507E+03  0.25500000000E-02 0.  1.
         11    1    1    2    0    0 -0.88825769620E+02 -0.12726300540E+02  0.31449483827E+02  0.95084415691E+02  0.51100000000E-03 0.  1.
         22    1    1    2    0    0  0.18562388866E+01  0.15467372926E+03  0.89838668600E+03  0.91160629974E+03  0.00000000000E+00 0.  1.
          2    1    1    2  501    0  0.86969530734E+02 -0.14194742872E+03 -0.18469707683E+03  0.24864790768E+03  0.25500000000E-02 0.  1.
<mgrwt>
<rscale>  0 0.16528218E+03</rscale>
<asrwt>0</asrwt>
<pdfrwt beam="1">  1       11 0.10000000E+01 0.89732849E+02</pdfrwt>
<pdfrwt beam="2">  1        2 0.39255491E-01 0.16528218E+03</pdfrwt>
<totfact> 0.16111072E+02</totfact>
</mgrwt>
</event>
<event>
 5    1  0.2799727E-003  0.1076074E+03  0.7818608E-02  0.1513232E+00
         11   -1    0    0    0    0  0.00000000000E+00  0.00000000000E+00  0.10007093869E+04  0.10007093869E+04  0.51100000000E-03 0. -1.
          2   -1    0    0  501    0 -0.00000000000E+00 -0.00000000000E+00 -0.69578734996E+02  0.69578735042E+02  0.25500000000E-02 0.  1.
         11    1    1    2    0    0 -0.37965906458E+02  0.90474621257E+02  0.38773257752E+03  0.39995452093E+03  0.51100000000E-03 0. -1.
         22    1    1    2    0    0  0.10717285167E+02 -0.11883010520E+03  0.59421625408E+03  0.60607624167E+03  0.00000000000E+00 0. -1.
          2    1    1    2  501    0  0.27248621291E+02  0.28355483946E+02 -0.50818179709E+02  0.64257359326E+02  0.25500000000E-02 0.  1.
<mgrwt>
<rscale>  0 0.39325829E+02</rscale>
<asrwt>0</asrwt>
<pdfrwt beam="1">  1       11 0.10000000E+01 0.10760739E+03</pdfrwt>
<pdfrwt beam="2">  1        2 0.10712014E-01 0.39325829E+02</pdfrwt>
<totfact> 0.64523596E+02</totfact>
</mgrwt>
</event>
<event>
 5    1  0.2799727E-003  0.2145745E+03  0.7818608E-02  0.1140966E+00
         11   -1    0    0    0    0  0.00000000000E+00  0.00000000000E+00  0.99984938735E+03  0.99984938735E+03  0.51100000000E-03 0.  1.
          2   -1    0    0  501    0 -0.00000000000E+00 -0.00000000000E+00 -0.49467067616E+02  0.49467067682E+02  0.25500000000E-02 0.  1.
         11    1    1    2    0    0  0.93312312381E+02 -0.11818847562E+03  0.25046592371E+03  0.29224798092E+03  0.51100000000E-03 0.  1.
         22    1    1    2    0    0  0.21225547716E+02 -0.58731705706E+02  0.75152459015E+02  0.97712994156E+02  0.00000000000E+00 0.  1.
          2    1    1    2  501    0 -0.11453786010E+03  0.17692018132E+03  0.62476393701E+03  0.65935547996E+03  0.25500000000E-02 0.  1.
<mgrwt>
<rscale>  0 0.21075975E+03</rscale>
<asrwt>0</asrwt>
<pdfrwt beam="1">  1       11 0.10000000E+01 0.21457453E+03</pdfrwt>
<pdfrwt beam="2">  1        2 0.76091717E-02 0.21075975E+03</pdfrwt>
<totfact> 0.10986804E+03</totfact>
</mgrwt>
</event>
<event>
 5    1  0.2799727E-003  0.2545302E+03  0.7818608E-02  0.1113749E+00
         11   -1    0    0    0    0  0.00000000000E+00  0.00000000000E+00  0.99995330257E+03  0.99995330257E+03  0.51100000000E-03 0. -1.
          2   -1    0    0  501    0 -0.00000000000E+00 -0.00000000000E+00 -0.21474051399E+03  0.21474051401E+03  0.25500000000E-02 0. -1.
         11    1    1    2    0    0  0.18795973784E+03 -0.57372450985E+02  0.64120614019E+03  0.67064578982E+03  0.51100000000E-03 0. -1.
         22    1    1    2    0    0  0.44649559515E+02 -0.32307547342E+02  0.26235730868E+03  0.26808341649E+03  0.00000000000E+00 0. -1.
          2    1    1    2  501    0 -0.23260929736E+03  0.89679998327E+02 -0.11835066030E+03  0.27596461026E+03  0.25500000000E-02 0. -1.
<mgrwt>
<rscale>  0 0.24929819E+03</rscale>
<asrwt>0</asrwt>
<pdfrwt beam="1">  1       11 0.10000000E+01 0.25453019E+03</pdfrwt>
<pdfrwt beam="2">  1        2 0.33035458E-01 0.24929819E+03</pdfrwt>
<totfact> 0.19504220E+02</totfact>
</mgrwt>
</event>
<event>
 5    1  0.2799727E-003  0.4846711E+03  0.7818608E-02  0.1027544E+00
         11   -1    0    0    0    0  0.00000000000E+00  0.00000000000E+00  0.10002571745E+04  0.10002571745E+04  0.51100000000E-03 0. -1.
          2   -1    0    0  501    0 -0.00000000000E+00 -0.00000000000E+00 -0.21869870659E+03  0.21869870660E+03  0.25500000000E-02 0. -1.
         11    1    1    2    0    0  0.13304004687E+03 -0.12323552643E+03  0.17074438516E+03  0.24907889134E+03  0.51100000000E-03 0. -1.
         22    1    1    2    0    0  0.17564046517E+02 -0.30144794220E+03  0.22311439531E+03  0.37544558991E+03  0.00000000000E+00 0. -1.
          2    1    1    2  501    0 -0.15060409339E+03  0.42468346863E+03  0.38769968744E+03  0.59443139984E+03  0.25500000000E-02 0. -1.
<mgrwt>
<rscale>  0 0.45059698E+03</rscale>
<asrwt>0</asrwt>
<pdfrwt beam="1">  1       11 0.10000000E+01 0.48467111E+03</pdfrwt>
<pdfrwt beam="2">  1        2 0.33654607E-01 0.45059698E+03</pdfrwt>
<totfact> 0.19224493E+02</totfact>
</mgrwt>
</event>
<event>
 5    1  0.2799727E-003  0.1632833E+03  0.7818608E-02  0.1185039E+00
         11   -1    0    0    0    0  0.00000000000E+00  0.00000000000E+00  0.10005667193E+04  0.10005667193E+04  0.51100000000E-03 0. -1.
         -2   -1    0    0    0  501 -0.00000000000E+00 -0.00000000000E+00 -0.94514733962E+02  0.94514733996E+02  0.25500000000E-02 0.  1.
         11    1    1    2    0    0 -0.31716963971E+02  0.53239351901E+01  0.10521406537E+03  0.11001958754E+03  0.51100000000E-03 0. -1.
         22    1    1    2    0    0  0.18808020120E+03  0.31463781477E+02  0.80206726737E+03  0.82442466789E+03  0.00000000000E+00 0. -1.
         -2    1    1    2    0  501 -0.15636323723E+03 -0.36787716667E+02 -0.12293473566E+01  0.16063719792E+03  0.25500000000E-02 0.  1.
<mgrwt>
<rscale>  0 0.16328327E+03</rscale>
<asrwt>0</asrwt>
<pdfrwt beam="1">  1       11 0.10000000E+01 0.32160692E+02</pdfrwt>
<pdfrwt beam="2">  1       -2 0.14548968E-01 0.16328327E+03</pdfrwt>
<totfact> 0.28268219E+02</totfact>
</mgrwt>
</event>
<event>
 5    1  0.2799727E-003  0.1270289E+03  0.7818608E-02  0.1242530E+00
         11   -1    0    0    0    0  0.00000000000E+00  0.00000000000E+00  0.10001753689E+04  0.10001753689E+04  0.51100000000E-03 0. -1.
          2   -1    0    0  501    0 -0.00000000000E+00 -0.00000000000E+00 -0.58640093406E+02  0.58640093461E+02  0.25500000000E-02 0. -1.
         11    1    1    2    0    0 -0.68617245872E+02 -0.65232018507E+02  0.34576782604E+01  0.94739106017E+02  0.51100000000E-03 0. -1.
         22    1    1    2    0    0 -0.57980983361E+01 -0.29347028842E+02  0.15516435886E+02  0.33699047891E+02  0.00000000000E+00 0.  1.
          2    1    1    2  501    0  0.74415344208E+02  0.94579047349E+02  0.92256116136E+03  0.93037730846E+03  0.25500000000E-02 0. -1.
<mgrwt>
<rscale>  0 0.12034467E+03</rscale>
<asrwt>0</asrwt>
<pdfrwt beam="1">  1       11 0.10000000E+01 0.12702890E+03</pdfrwt>
<pdfrwt beam="2">  1        2 0.90231347E-02 0.12034467E+03</pdfrwt>
<totfact> 0.85714955E+02</totfact>
</mgrwt>
</event>
<event>
 5    1  0.2799727E-003  0.9324713E+02  0.7818608E-02  0.1306296E+00
         11   -1    0    0    0    0  0.00000000000E+00  0.00000000000E+00  0.10003197542E+04  0.10003197542E+04  0.51100000000E-03 0. -1.
          2   -1    0    0  501    0 -0.00000000000E+00 -0.00000000000E+00 -0.10331270484E+02  0.10331270799E+02  0.25500000000E-02 0. -1.
         11    1    1    2    0    0  0.19847397476E+02 -0.43734725258E+02  0.11787211187E+03  0.12728110675E+03  0.51100000000E-03 0. -1.
         22    1    1    2    0    0  0.34874848205E+02 -0.25936852508E+02  0.16126012635E+03  0.16701438173E+03  0.00000000000E+00 0. -1.
          2    1    1    2  501    0 -0.54722245681E+02  0.69671577766E+02  0.71085624549E+03  0.71635553651E+03  0.25500000000E-02 0. -1.
<mgrwt>
<rscale>  0 0.88592623E+02</rscale>
<asrwt>0</asrwt>
<pdfrwt beam="1">  1       11 0.10000000E+01 0.93247135E+02</pdfrwt>
<pdfrwt beam="2">  1        2 0.15899344E-02 0.88592623E+02</pdfrwt>
<totfact> 0.80841412E+03</totfact>
</mgrwt>
</event>
<event>
 5    1  0.2799727E-003  0.2673224E+02  0.7818608E-02  0.1637299E+00
         11   -1    0    0    0    0  0.00000000000E+00  0.00000000000E+00  0.10000889165E+04  0.10000889165E+04  0.51100000000E-03 0. -1.
          2   -1    0    0  501    0 -0.00000000000E+00 -0.00000000000E+00 -0.72719564842E+01  0.72719569313E+01  0.25500000000E-02 0. -1.
         11    1    1    2    0    0 -0.45325397175E+01 -0.14111188022E+02  0.46221033028E+01  0.15525249850E+02  0.51100000000E-03 0. -1.
         22    1    1    2    0    0  0.27253812018E+02  0.12698212532E+01  0.11283176090E+03  0.11608354312E+03  0.00000000000E+00 0.  1.
          2    1    1    2  501    0 -0.22721272300E+02  0.12841366769E+02  0.87536309583E+03  0.87575208048E+03  0.25500000000E-02 0. -1.
<mgrwt>
<rscale>  0 0.26732242E+02</rscale>
<asrwt>0</asrwt>
<pdfrwt beam="1">  1       11 0.10000000E+01 0.14821261E+02</pdfrwt>
<pdfrwt beam="2">  1        2 0.11188620E-02 0.26732242E+02</pdfrwt>
<totfact> 0.10506449E+04</totfact>
</mgrwt>
</event>
<event>
 5    1  0.2799727E-003  0.1339380E+03  0.7818608E-02  0.1230561E+00
         11   -1    0    0    0    0  0.00000000000E+00  0.00000000000E+00  0.10003519999E+04  0.10003519999E+04  0.51100000000E-03 0. -1.
          2   -1    0    0  501    0 -0.00000000000E+00 -0.00000000000E+00 -0.17140214855E+02  0.17140215045E+02  0.25500000000E-02 0. -1.
         11    1    1    2    0    0  0.30943641835E+02  0.10493127835E+03  0.43205569802E+03  0.44569070928E+03  0.51100000000E-03 0. -1.
         22    1    1    2    0    0  0.20923384883E+02  0.12012314066E+02  0.77067368820E+02  0.80755576037E+02  0.00000000000E+00 0. -1.
          2    1    1    2  501    0 -0.51867026718E+02 -0.11694359242E+03  0.47408871818E+03  0.49104592961E+03  0.25500000000E-02 0. -1.
<mgrwt>
<rscale>  0 0.12792964E+03</rscale>
<asrwt>0</asrwt>
<pdfrwt beam="1">  1       11 0.10000000E+01 0.13393802E+03</pdfrwt>
<pdfrwt beam="2">  1        2 0.26378843E-02 0.12792964E+03</pdfrwt>
<totfact> 0.42636481E+03</totfact>
</mgrwt>
</event>
<event>
 5    1  0.2799727E-003  0.9235642E+02  0.7818608E-02  0.1579339E+00
         11   -1    0    0    0    0  0.00000000000E+00  0.00000000000E+00  0.10000291823E+04  0.10000291823E+04  0.51100000000E-03 0.  1.
          2   -1    0    0  501    0 -0.00000000000E+00 -0.00000000000E+00 -0.10907588889E+02  0.10907589187E+02  0.25500000000E-02 0.  1.
         11    1    1    2    0    0  0.51271943145E+02  0.72043891686E+02  0.44346469792E+03  0.45219472883E+03  0.51100000000E-03 0.  1.
         22    1    1    2    0    0  0.10793061867E+02  0.17034331461E+01  0.11141167020E+02  0.15605046347E+02  0.00000000000E+00 0. -1.
          2    1    1    2  501    0 -0.62065005012E+02 -0.73747324832E+02  0.53451572844E+03  0.54313699628E+03  0.25500000000E-02 0.  1.
<mgrwt>
<rscale>  0 0.31767067E+02</rscale>
<asrwt>0</asrwt>
<pdfrwt beam="1">  1       11 0.10000000E+01 0.92356416E+02</pdfrwt>
<pdfrwt beam="2">  1        2 0.16781395E-02 0.31767067E+02</pdfrwt>
<totfact> 0.63955710E+03</totfact>
</mgrwt>
</event>
<event>
 5    1  0.6725532E-003  0.3570108E+03  0.7818608E-02  0.1060884E+00
         11   -1    0    0    0    0  0.00000000000E+00  0.00000000000E+00  0.10004510387E+04  0.10004510387E+04  0.51100000000E-03 0. -1.
          2   -1    0    0  501    0 -0.00000000000E+00 -0.00000000000E+00 -0.87450847356E+03  0.87450847356E+03  0.25500000000E-02 0. -1.
         11    1    1    2    0    0  0.25917892411E+03  0.22630024647E+03  0.87477509535E+03  0.94000903384E+03  0.51100000000E-03 0. -1.
         22    1    1    2    0    0  0.73002823429E+01  0.71151465736E+01  0.55307063660E+02  0.56238694186E+02  0.00000000000E+00 0. -1.
          2    1    1    2  501    0 -0.26647920645E+03 -0.23341539305E+03 -0.80413959391E+03  0.87871178419E+03  0.25500000000E-02 0. -1.
<mgrwt>
<rscale>  0 0.35425120E+03</rscale>
<asrwt>0</asrwt>
<pdfrwt beam="1">  1       11 0.10000000E+01 0.35701080E+03</pdfrwt>
<pdfrwt beam="2">  1        2 0.13460044E+00 0.35425120E+03</pdfrwt>
<totfact> 0.39019755E+01</totfact>
</mgrwt>
</event>
<event>
 5    1  0.2799727E-003  0.1510001E+03  0.7818608E-02  0.1409856E+00
         11   -1    0    0    0    0  0.00000000000E+00  0.00000000000E+00  0.10002317136E+04  0.10002317136E+04  0.51100000000E-03 0. -1.
          2   -1    0    0  501    0 -0.00000000000E+00 -0.00000000000E+00 -0.21943059730E+03  0.21943059731E+03  0.25500000000E-02 0. -1.
         11    1    1    2    0    0 -0.16657383987E+02 -0.14226010117E+03  0.33339336016E+03  0.36285883953E+03  0.51100000000E-03 0. -1.
         22    1    1    2    0    0  0.73883241978E+02  0.14210552410E+03  0.63800443671E+03  0.65780116653E+03  0.00000000000E+00 0. -1.
          2    1    1    2  501    0 -0.57225857991E+02  0.15457706317E+00 -0.19059668053E+03  0.19900230489E+03  0.25500000000E-02 0. -1.
<mgrwt>
<rscale>  0 0.57226067E+02</rscale>
<asrwt>0</asrwt>
<pdfrwt beam="1">  1       11 0.10000000E+01 0.15100015E+03</pdfrwt>
<pdfrwt beam="2">  1        2 0.33766375E-01 0.57226067E+02</pdfrwt>
<totfact> 0.18581759E+02</totfact>
</mgrwt>
</event>
<event>
 5    1  0.2799727E-003  0.1622021E+03  0.7818608E-02  0.1193915E+00
         11   -1    0    0    0    0  0.00000000000E+00  0.00000000000E+00  0.10003616849E+04  0.10003616849E+04  0.51100000000E-03 0. -1.
         -2   -1    0    0    0  501 -0.00000000000E+00 -0.00000000000E+00 -0.27757890757E+02  0.27757890874E+02  0.25500000000E-02 0.  1.
         11    1    1    2    0    0  0.32803901018E+02 -0.13100013098E+03  0.52393476747E+03  0.54105893468E+03  0.51100000000E-03 0. -1.
         22    1    1    2    0    0  0.22588144529E+02 -0.14260762465E+02  0.12718210514E+03  0.12995722945E+03  0.00000000000E+00 0.  1.
         -2    1    1    2    0  501 -0.55392045546E+02  0.14526089345E+03  0.32148692150E+03  0.35710341160E+03  0.25500000000E-02 0.  1.
<mgrwt>
<rscale>  0 0.15546384E+03</rscale>
<asrwt>0</asrwt>
<pdfrwt beam="1">  1       11 0.10000000E+01 0.16220207E+03</pdfrwt>
<pdfrwt beam="2">  1       -2 0.42719892E-02 0.15546384E+03</pdfrwt>
<totfact> 0.18927306E+03</totfact>
</mgrwt>
</event>
<event>
 5    1  0.2799727E-003  0.1371099E+03  0.7818608E-02  0.1234145E+00
         11   -1    0    0    0    0  0.00000000000E+00  0.00000000000E+00  0.99995197785E+03  0.99995197785E+03  0.51100000000E-03 0. -1.
         -2   -1    0    0    0  501 -0.00000000000E+00 -0.00000000000E+00 -0.18035625850E+02  0.18035626030E+02  0.25500000000E-02 0.  1.
         11    1    1    2    0    0 -0.80747656466E+02 -0.55646441278E+02  0.41391705523E+03  0.42537517447E+03  0.51100000000E-03 0. -1.
         22    1    1    2    0    0 -0.26478679782E+01 -0.38262312258E+02  0.20349053337E+03  0.20707344811E+03  0.00000000000E+00 0.  1.
         -2    1    1    2    0  501  0.83395524444E+02  0.93908753535E+02  0.36450876341E+03  0.38553898129E+03  0.25500000000E-02 0.  1.
<mgrwt>
<rscale>  0 0.12559326E+03</rscale>
<asrwt>0</asrwt>
<pdfrwt beam="1">  1       11 0.10000000E+01 0.13710992E+03</pdfrwt>
<pdfrwt beam="2">  1       -2 0.27745784E-02 0.12559326E+03</pdfrwt>
<totfact> 0.35063713E+03</totfact>
</mgrwt>
</event>
<event>
 5    1  0.2799727E-003  0.1197631E+03  0.7818608E-02  0.1362975E+00
         11   -1    0    0    0    0  0.00000000000E+00  0.00000000000E+00  0.10000675465E+04  0.10000675465E+04  0.51100000000E-03 0. -1.
          2   -1    0    0  501    0 -0.00000000000E+00 -0.00000000000E+00 -0.29506674191E+02  0.29506674301E+02  0.25500000000E-02 0. -1.
         11    1    1    2    0    0 -0.62891719483E+02  0.84103977923E+02  0.11892144609E+03  0.15865420833E+03  0.51100000000E-03 0. -1.
         22    1    1    2    0    0  0.21856124628E+02  0.33426327514E+02  0.81223387778E+02  0.90511039531E+02  0.00000000000E+00 0. -1.
          2    1    1    2  501    0  0.41035594855E+02 -0.11753030544E+03  0.77041603841E+03  0.78040897290E+03  0.25500000000E-02 0. -1.
<mgrwt>
<rscale>  0 0.69159565E+02</rscale>
<asrwt>0</asrwt>
<pdfrwt beam="1">  1       11 0.10000000E+01 0.11976311E+03</pdfrwt>
<pdfrwt beam="2">  1        2 0.45397948E-02 0.69159565E+02</pdfrwt>
<totfact> 0.19523898E+03</totfact>
</mgrwt>
</event>
<event>
 5    1  0.2799727E-003  0.1574521E+03  0.7818608E-02  0.1603067E+00
         11   -1    0    0    0    0  0.00000000000E+00  0.00000000000E+00  0.10001894339E+04  0.10001894339E+04  0.51100000000E-03 0. -1.
          2   -1    0    0  501    0 -0.00000000000E+00 -0.00000000000E+00 -0.64096395355E+03  0.64096395356E+03  0.25500000000E-02 0. -1.
         11    1    1    2    0    0  0.50658354726E+02 -0.15140655172E+03  0.42354834901E+03  0.45264049395E+03  0.51100000000E-03 0. -1.
         22    1    1    2    0    0 -0.76500717648E+02  0.13706652723E+03  0.55077446463E+03  0.57270594861E+03  0.00000000000E+00 0. -1.
          2    1    1    2  501    0  0.25842362922E+02  0.14340024494E+02 -0.61509733327E+03  0.61580694493E+03  0.25500000000E-02 0. -1.
<mgrwt>
<rscale>  0 0.29554425E+02</rscale>
<asrwt>0</asrwt>
<pdfrwt beam="1">  1       11 0.10000000E+01 0.15745205E+03</pdfrwt>
<pdfrwt beam="2">  1        2 0.98628516E-01 0.29554425E+02</pdfrwt>
<totfact> 0.61562599E+01</totfact>
</mgrwt>
</event>
<event>
 5    1  0.2799727E-003  0.1364665E+03  0.7818608E-02  0.1225288E+00
         11   -1    0    0    0    0  0.00000000000E+00  0.00000000000E+00  0.10002196759E+04  0.10002196759E+04  0.51100000000E-03 0.  1.
         -2   -1    0    0    0  501 -0.00000000000E+00 -0.00000000000E+00 -0.21791134840E+02  0.21791134989E+02  0.25500000000E-02 0. -1.
         11    1    1    2    0    0 -0.11629442632E+03 -0.31928457042E+02  0.68726691167E+03  0.69776760303E+03  0.51100000000E-03 0.  1.
         22    1    1    2    0    0 -0.97198264747E+01 -0.55578738818E+01  0.24143224739E+02  0.26613160082E+02  0.00000000000E+00 0.  1.
         -2    1    1    2    0  501  0.12601425279E+03  0.37486330924E+02  0.26701840469E+03  0.29763004781E+03  0.25500000000E-02 0. -1.
<mgrwt>
<rscale>  0 0.13147173E+03</rscale>
<asrwt>0</asrwt>
<pdfrwt beam="1">  1       11 0.10000000E+01 0.13646651E+03</pdfrwt>
<pdfrwt beam="2">  1       -2 0.33532187E-02 0.13147173E+03</pdfrwt>
<totfact> 0.26680824E+03</totfact>
</mgrwt>
</event>
<event>
 5    1  0.2799727E-003  0.6596832E+02  0.7818608E-02  0.1374366E+00
         11   -1    0    0    0    0  0.00000000000E+00  0.00000000000E+00  0.10001198376E+04  0.10001198376E+04  0.51100000000E-03 0. -1.
          2   -1    0    0  501    0 -0.00000000000E+00 -0.00000000000E+00 -0.84274154168E+01  0.84274158026E+01  0.25500000000E-02 0. -1.
         11    1    1    2    0    0 -0.41643274543E+01  0.76077880887E+02  0.24319378717E+03  0.25484976693E+03  0.51100000000E-03 0. -1.
         22    1    1    2    0    0 -0.16228789330E+02 -0.33546224836E+02  0.22362891128E+03  0.22671262154E+03  0.00000000000E+00 0. -1.
          2    1    1    2  501    0  0.20393116784E+02 -0.42531656051E+02  0.52486972373E+03  0.52698486494E+03  0.25500000000E-02 0. -1.
<mgrwt>
<rscale>  0 0.65968323E+02</rscale>
<asrwt>0</asrwt>
<pdfrwt beam="1">  1       11 0.10000000E+01 0.37265571E+02</pdfrwt>
<pdfrwt beam="2">  1        2 0.12966808E-02 0.65968323E+02</pdfrwt>
<totfact> 0.10191809E+04</totfact>
</mgrwt>
</event>
<event>
 5    1  0.2799727E-003  0.4412641E+03  0.7818608E-02  0.1032596E+00
         11   -1    0    0    0    0  0.00000000000E+00  0.00000000000E+00  0.99998198236E+03  0.99998198236E+03  0.51100000000E-03 0. -1.
          2   -1    0    0  501    0 -0.00000000000E+00 -0.00000000000E+00 -0.64751166410E+03  0.64751166410E+03  0.25500000000E-02 0. -1.
         11    1    1    2    0    0 -0.29754974812E+03 -0.29685169661E+03  0.83505389162E+03  0.93486458072E+03  0.51100000000E-03 0. -1.
         22    1    1    2    0    0  0.15113981771E+01 -0.20543307403E+02  0.32863988218E+02  0.38785996508E+02  0.00000000000E+00 0.  1.
          2    1    1    2  501    0  0.29603834995E+03  0.31739500401E+03 -0.51544756157E+03  0.67384306923E+03  0.25500000000E-02 0. -1.
<mgrwt>
<rscale>  0 0.43402568E+03</rscale>
<asrwt>0</asrwt>
<pdfrwt beam="1">  1       11 0.10000000E+01 0.44126409E+03</pdfrwt>
<pdfrwt beam="2">  1        2 0.99615381E-01 0.43402568E+03</pdfrwt>
<totfact> 0.56803327E+01</totfact>
</mgrwt>
</event>
<event>
 5    1  0.2799727E-003  0.1143944E+03  0.7818608E-02  0.1270708E+00
         11   -1    0    0    0    0  0.00000000000E+00  0.00000000000E+00  0.10003043799E+04  0.10003043799E+04  0.51100000000E-03 0.  1.
          2   -1    0    0  501    0 -0.00000000000E+00 -0.00000000000E+00 -0.12002699539E+02  0.12002699810E+02  0.25500000000E-02 0.  1.
         11    1    1    2    0    0 -0.38025023308E+02 -0.39208010504E+02  0.19944752156E+03  0.20679091939E+03  0.51100000000E-03 0.  1.
         22    1    1    2    0    0 -0.57903715418E+02 -0.27460376735E+01  0.30566098260E+03  0.31110933330E+03  0.00000000000E+00 0.  1.
          2    1    1    2  501    0  0.95928738725E+02  0.41954048178E+02  0.48319317622E+03  0.49440682704E+03  0.25500000000E-02 0.  1.
<mgrwt>
<rscale>  0 0.10470179E+03</rscale>
<asrwt>0</asrwt>
<pdfrwt beam="1">  1       11 0.10000000E+01 0.11439437E+03</pdfrwt>
<pdfrwt beam="2">  1        2 0.18471312E-02 0.10470179E+03</pdfrwt>
<totfact> 0.67453165E+03</totfact>
</mgrwt>
</event>
<event>
 5    1  0.2799727E-003  0.1419483E+03  0.7818608E-02  0.1349343E+00
         11   -1    0    0    0    0  0.00000000000E+00  0.00000000000E+00  0.10003232872E+04  0.10003232872E+04  0.51100000000E-03 0. -1.
          2   -1    0    0  501    0 -0.00000000000E+00 -0.00000000000E+00 -0.64754843427E+02  0.64754843478E+02  0.25500000000E-02 0. -1.
         11    1    1    2    0    0  0.74762117289E+02  0.10100741537E+03  0.42004373084E+03  0.43843883035E+03  0.51100000000E-03 0. -1.
         22    1    1    2    0    0 -0.43895011689E+02 -0.16744800303E+03  0.52496835221E+03  0.55277244558E+03  0.00000000000E+00 0.  1.
          2    1    1    2  501    0 -0.30867105600E+02  0.66440587668E+02 -0.94436392960E+01  0.73866854728E+02  0.25500000000E-02 0. -1.
<mgrwt>
<rscale>  0 0.73260698E+02</rscale>
<asrwt>0</asrwt>
<pdfrwt beam="1">  1       11 0.10000000E+01 0.14194826E+03</pdfrwt>
<pdfrwt beam="2">  1        2 0.99655040E-02 0.73260698E+02</pdfrwt>
<totfact> 0.73533475E+02</totfact>
</mgrwt>
</event>
<event>
 5    1  0.2799727E-003  0.1651344E+03  0.7818608E-02  0.1205713E+00
         11   -1    0    0    0    0  0.00000000000E+00  0.00000000000E+00  0.10005631864E+04  0.10005631864E+04  0.51100000000E-03 0. -1.
          2   -1    0    0  501    0 -0.00000000000E+00 -0.00000000000E+00 -0.13969928577E+04  0.13969928577E+04  0.25500000000E-02 0. -1.
         11    1    1    2    0    0 -0.15298718624E+03 -0.46414497227E+02 -0.15771986843E+03  0.22457725086E+03  0.51100000000E-03 0. -1.
         22    1    1    2    0    0  0.58233074004E+02  0.15724464061E+03  0.95539800197E+03  0.97000119076E+03  0.00000000000E+00 0. -1.
          2    1    1    2  501    0  0.94754112231E+02 -0.11083014338E+03 -0.11941078049E+04  0.12029776025E+04  0.25500000000E-02 0. -1.
<mgrwt>
<rscale>  0 0.14581379E+03</rscale>
<asrwt>0</asrwt>
<pdfrwt beam="1">  1       11 0.10000000E+01 0.16513439E+03</pdfrwt>
<pdfrwt beam="2">  1        2 0.21504301E+00 0.14581379E+03</pdfrwt>
<totfact> 0.20295925E+01</totfact>
</mgrwt>
</event>
<event>
 5    1  0.2799727E-003  0.3297238E+03  0.7818608E-02  0.1076966E+00
         11   -1    0    0    0    0  0.00000000000E+00  0.00000000000E+00  0.10005997548E+04  0.10005997548E+04  0.51100000000E-03 0. -1.
          2   -1    0    0  501    0 -0.00000000000E+00 -0.00000000000E+00 -0.16455577681E+04  0.16455577681E+04  0.25500000000E-02 0. -1.
         11    1    1    2    0    0 -0.61277343449E+02  0.50025067322E+02  0.13791851169E+03  0.15899350945E+03  0.51100000000E-03 0. -1.
         22    1    1    2    0    0 -0.15710408741E+03  0.17996867782E+03  0.81954721342E+03  0.85365570010E+03  0.00000000000E+00 0. -1.
          2    1    1    2  501    0  0.21838143086E+03 -0.22999374514E+03 -0.16024237385E+04  0.16335083134E+04  0.25500000000E-02 0. -1.
<mgrwt>
<rscale>  0 0.31715544E+03</rscale>
<asrwt>0</asrwt>
<pdfrwt beam="1">  1       11 0.10000000E+01 0.32972383E+03</pdfrwt>
<pdfrwt beam="2">  1        2 0.25331456E+00 0.31715544E+03</pdfrwt>
<totfact> 0.14115177E+01</totfact>
</mgrwt>
</event>
<event>
 5    1  0.2799727E-003  0.2847850E+03  0.7818608E-02  0.1098616E+00
         11   -1    0    0    0    0  0.00000000000E+00  0.00000000000E+00  0.99994895706E+03  0.99994895706E+03  0.51100000000E-03 0.  1.
          2   -1    0    0  501    0 -0.00000000000E+00 -0.00000000000E+00 -0.78262297525E+02  0.78262297566E+02  0.25500000000E-02 0.  1.
         11    1    1    2    0    0 -0.24430838829E+03  0.15427231252E+02  0.35823371203E+03  0.43388475485E+03  0.51100000000E-03 0.  1.
         22    1    1    2    0    0 -0.29283048400E+02  0.93011778319E+01  0.10947174371E+03  0.11370167766E+03  0.00000000000E+00 0.  1.
          2    1    1    2  501    0  0.27359143669E+03 -0.24728409084E+02  0.45398120380E+03  0.53062482212E+03  0.25500000000E-02 0.  1.
<mgrwt>
<rscale>  0 0.27470670E+03</rscale>
<asrwt>0</asrwt>
<pdfrwt beam="1">  1       11 0.10000000E+01 0.28478502E+03</pdfrwt>
<pdfrwt beam="2">  1        2 0.12039739E-01 0.27470670E+03</pdfrwt>
<totfact> 0.62696924E+02</totfact>
</mgrwt>
</event>
<event>
 5    1  0.2799727E-003  0.1641205E+03  0.7818608E-02  0.1196126E+00
         11   -1    0    0    0    0  0.00000000000E+00  0.00000000000E+00  0.10003762267E+04  0.10003762267E+04  0.51100000000E-03 0. -1.
          2   -1    0    0  501    0 -0.00000000000E+00 -0.00000000000E+00 -0.28659855606E+02  0.28659855720E+02  0.25500000000E-02 0. -1.
         11    1    1    2    0    0  0.78707923242E+01  0.12295678042E+03  0.47267144227E+03  0.48846556845E+03  0.51100000000E-03 0. -1.
         22    1    1    2    0    0  0.29975368728E+02  0.25900978839E+02  0.20536481509E+03  0.20915088026E+03  0.00000000000E+00 0. -1.
          2    1    1    2  501    0 -0.37846161052E+02 -0.14885775926E+03  0.29368011370E+03  0.33141963368E+03  0.25500000000E-02 0. -1.
<mgrwt>
<rscale>  0 0.15359350E+03</rscale>
<asrwt>0</asrwt>
<pdfrwt beam="1">  1       11 0.10000000E+01 0.16412051E+03</pdfrwt>
<pdfrwt beam="2">  1        2 0.44108673E-02 0.15359350E+03</pdfrwt>
<totfact> 0.21829528E+03</totfact>
</mgrwt>
</event>
<event>
 5    1  0.2799727E-003  0.1540339E+03  0.7818608E-02  0.1195602E+00
         11   -1    0    0    0    0  0.00000000000E+00  0.00000000000E+00  0.10001125678E+04  0.10001125678E+04  0.51100000000E-03 0. -1.
          2   -1    0    0  501    0 -0.00000000000E+00 -0.00000000000E+00 -0.26853318321E+02  0.26853318442E+02  0.25500000000E-02 0. -1.
         11    1    1    2    0    0  0.94728763005E+02 -0.11983204073E+03  0.41539785730E+03  0.44259308216E+03  0.51100000000E-03 0. -1.
         22    1    1    2    0    0  0.13963280832E+02  0.80437531511E+01  0.83600762708E+02  0.85139665854E+02  0.00000000000E+00 0.  1.
          2    1    1    2  501    0 -0.10869204384E+03  0.11178828758E+03  0.47426062947E+03  0.49923313823E+03  0.25500000000E-02 0. -1.
<mgrwt>
<rscale>  0 0.15403390E+03</rscale>
<asrwt>0</asrwt>
<pdfrwt beam="1">  1       11 0.10000000E+01 0.16114440E+02</pdfrwt>
<pdfrwt beam="2">  1        2 0.41317447E-02 0.15403390E+03</pdfrwt>
<totfact> 0.23808707E+03</totfact>
</mgrwt>
</event>
<event>
 5    1  0.2799727E-003  0.1603707E+03  0.7818608E-02  0.1188279E+00
         11   -1    0    0    0    0  0.00000000000E+00  0.00000000000E+00  0.10002098154E+04  0.10002098154E+04  0.51100000000E-03 0.  1.
          2   -1    0    0  501    0 -0.00000000000E+00 -0.00000000000E+00 -0.52545773185E+02  0.52545773247E+02  0.25500000000E-02 0.  1.
         11    1    1    2    0    0  0.10451613077E+02 -0.11542118094E+03  0.20484890862E+03  0.23536006583E+03  0.51100000000E-03 0.  1.
         22    1    1    2    0    0 -0.12455588239E+03 -0.48231282814E+02  0.38788423901E+03  0.41023725739E+03  0.00000000000E+00 0. -1.
          2    1    1    2  501    0  0.11410426932E+03  0.16365246375E+03  0.35493089462E+03  0.40715826545E+03  0.25500000000E-02 0.  1.
<mgrwt>
<rscale>  0 0.16037065E+03</rscale>
<asrwt>0</asrwt>
<pdfrwt beam="1">  1       11 0.10000000E+01 0.11589348E+03</pdfrwt>
<pdfrwt beam="2">  1        2 0.80856610E-02 0.16037065E+03</pdfrwt>
<totfact> 0.10005856E+03</totfact>
</mgrwt>
</event>
<event>
 5    1  0.2799727E-003  0.2785994E+03  0.7818608E-02  0.1102041E+00
         11   -1    0    0    0    0  0.00000000000E+00  0.00000000000E+00  0.10004139603E+04  0.10004139603E+04  0.51100000000E-03 0.  1.
         -2   -1    0    0    0  501 -0.00000000000E+00 -0.00000000000E+00 -0.14045591286E+03  0.14045591288E+03  0.25500000000E-02 0. -1.
         11    1    1    2    0    0 -0.19852082271E+03 -0.12573927226E+03  0.64070288035E+03  0.68243758874E+03  0.51100000000E-03 0.  1.
         22    1    1    2    0    0 -0.16599657513E+02 -0.35221835823E+02  0.18326910686E+03  0.18735979258E+03  0.00000000000E+00 0.  1.
         -2    1    1    2    0  501  0.21512048023E+03  0.16096110809E+03  0.35986060288E+02  0.27107249191E+03  0.25500000000E-02 0. -1.
<mgrwt>
<rscale>  0 0.26867322E+03</rscale>
<asrwt>0</asrwt>
<pdfrwt beam="1">  1       11 0.10000000E+01 0.27859944E+03</pdfrwt>
<pdfrwt beam="2">  1       -2 0.21617546E-01 0.26867322E+03</pdfrwt>
<totfact> 0.14757332E+02</totfact>
</mgrwt>
</event>
<event>
 5    1  0.2799727E-003  0.1482085E+03  0.7818608E-02  0.1205328E+00
         11   -1    0    0    0    0  0.00000000000E+00  0.00000000000E+00  0.10001916590E+04  0.10001916590E+04  0.51100000000E-03 0.  1.
          2   -1    0    0  501    0 -0.00000000000E+00 -0.00000000000E+00 -0.22186625026E+02  0.22186625173E+02  0.25500000000E-02 0.  1.
         11    1    1    2    0    0  0.12873717650E+03 -0.14404442011E+02  0.49635524258E+03  0.51298077488E+03  0.51100000000E-03 0.  1.
         22    1    1    2    0    0  0.17201688600E+02  0.71965855487E+01  0.75338496627E+02  0.77611713087E+02  0.00000000000E+00 0.  1.
          2    1    1    2  501    0 -0.14593886510E+03  0.72078564619E+01  0.40631129475E+03  0.43178579619E+03  0.25500000000E-02 0.  1.
<mgrwt>
<rscale>  0 0.14611675E+03</rscale>
<asrwt>0</asrwt>
<pdfrwt beam="1">  1       11 0.10000000E+01 0.14820849E+03</pdfrwt>
<pdfrwt beam="2">  1        2 0.34139810E-02 0.14611675E+03</pdfrwt>
<totfact> 0.30555315E+03</totfact>
</mgrwt>
</event>
<event>
 5    1  0.2799727E-003  0.5952786E+02  0.7818608E-02  0.1406664E+00
         11   -1    0    0    0    0  0.00000000000E+00  0.00000000000E+00  0.10001166186E+04  0.10001166186E+04  0.51100000000E-03 0.  1.
         -2   -1    0    0    0  501 -0.00000000000E+00 -0.00000000000E+00 -0.42093724920E+01  0.42093732644E+01  0.25500000000E-02 0.  1.
         11    1    1    2    0    0  0.19680786692E+02 -0.21759004890E+02  0.11751353434E+03  0.12112067706E+03  0.51100000000E-03 0.  1.
         22    1    1    2    0    0  0.13265327958E+02 -0.25908340672E+02  0.17260690630E+03  0.17504386634E+03  0.00000000000E+00 0. -1.
         -2    1    1    2    0  501 -0.32946114650E+02  0.47667345562E+02  0.70578680544E+03  0.70816144843E+03  0.25500000000E-02 0.  1.
<mgrwt>
<rscale>  0 0.57944994E+02</rscale>
<asrwt>0</asrwt>
<pdfrwt beam="1">  1       11 0.10000000E+01 0.59527865E+02</pdfrwt>
<pdfrwt beam="2">  1       -2 0.64767133E-03 0.57944994E+02</pdfrwt>
<totfact> 0.24653230E+04</totfact>
</mgrwt>
</event>
<event>
 5    1  0.2799727E-003  0.1380991E+03  0.7818608E-02  0.1215910E+00
         11   -1    0    0    0    0  0.00000000000E+00  0.00000000000E+00  0.10000998876E+04  0.10000998876E+04  0.51100000000E-03 0. -1.
          2   -1    0    0  501    0 -0.00000000000E+00 -0.00000000000E+00 -0.76428193044E+02  0.76428193086E+02  0.25500000000E-02 0. -1.
         11    1    1    2    0    0  0.29640970485E+01  0.74026908942E+02  0.31814978170E+03  0.32666198541E+03  0.51100000000E-03 0. -1.
         22    1    1    2    0    0 -0.11904588194E+03  0.86303368509E+01  0.59513352131E+03  0.60698460681E+03  0.00000000000E+00 0. -1.
          2    1    1    2  501    0  0.11608178489E+03 -0.82657245792E+02  0.10388391571E+02  0.14288148848E+03  0.25500000000E-02 0. -1.
<mgrwt>
<rscale>  0 0.13809906E+03</rscale>
<asrwt>0</asrwt>
<pdfrwt beam="1">  1       11 0.10000000E+01 0.74086228E+02</pdfrwt>
<pdfrwt beam="2">  1        2 0.11759358E-01 0.13809906E+03</pdfrwt>
<totfact> 0.62517450E+02</totfact>
</mgrwt>
</event>
<event>
 5    1  0.2799727E-003  0.5179387E+02  0.7818608E-02  0.1669505E+00
         11   -1    0    0    0    0  0.00000000000E+00  0.00000000000E+00  0.10002708353E+04  0.10002708353E+04  0.51100000000E-03 0. -1.
          2   -1    0    0  501    0 -0.00000000000E+00 -0.00000000000E+00 -0.39408157419E+01  0.39408165669E+01  0.25500000000E-02 0. -1.
         11    1    1    2    0    0 -0.32648226871E+02  0.43432702941E+02  0.31279657308E+03  0.31748071206E+03  0.51100000000E-03 0. -1.
         22    1    1    2    0    0 -0.58328807030E+01 -0.99246327938E+01  0.58740171636E+02  0.59857569255E+02  0.00000000000E+00 0. -1.
          2    1    1    2  501    0  0.38481107574E+02 -0.33508070148E+02  0.62479327485E+03  0.62687337056E+03  0.25500000000E-02 0. -1.
<mgrwt>
<rscale>  0 0.24418002E+02</rscale>
<asrwt>0</asrwt>
<pdfrwt beam="1">  1       11 0.10000000E+01 0.51793871E+02</pdfrwt>
<pdfrwt beam="2">  1        2 0.60644359E-03 0.24418002E+02</pdfrwt>
<totfact> 0.22981403E+04</totfact>
</mgrwt>
</event>
<event>
 5    1  0.2799727E-003  0.1665852E+03  0.7818608E-02  0.1185381E+00
         11   -1    0    0    0    0  0.00000000000E+00  0.00000000000E+00  0.99998970418E+03  0.99998970418E+03  0.51100000000E-03 0. -1.
          2   -1    0    0  501    0 -0.00000000000E+00 -0.00000000000E+00 -0.78255726036E+02  0.78255726077E+02  0.25500000000E-02 0. -1.
         11    1    1    2    0    0 -0.82224712620E+01  0.15136905323E+03  0.81403617600E+03  0.82803085399E+03  0.51100000000E-03 0. -1.
         22    1    1    2    0    0 -0.10679083824E+02  0.10503529873E+02  0.84241494990E+02  0.85562821653E+02  0.00000000000E+00 0. -1.
          2    1    1    2  501    0  0.18901555086E+02 -0.16187258311E+03  0.23456307148E+02  0.16465175462E+03  0.25500000000E-02 0. -1.
<mgrwt>
<rscale>  0 0.16297240E+03</rscale>
<asrwt>0</asrwt>
<pdfrwt beam="1">  1       11 0.10000000E+01 0.16658520E+03</pdfrwt>
<pdfrwt beam="2">  1        2 0.12039218E-01 0.16297240E+03</pdfrwt>
<totfact> 0.61264924E+02</totfact>
</mgrwt>
</event>
<event>
 5    1  0.2799727E-003  0.2143073E+03  0.7818608E-02  0.1147144E+00
         11   -1    0    0    0    0  0.00000000000E+00  0.00000000000E+00  0.10001592674E+04  0.10001592674E+04  0.51100000000E-03 0. -1.
          2   -1    0    0  501    0 -0.00000000000E+00 -0.00000000000E+00 -0.12223302659E+03  0.12223302662E+03  0.25500000000E-02 0. -1.
         11    1    1    2    0    0 -0.14084727707E+03 -0.82780318617E+02  0.74226020280E+03  0.76002680563E+03  0.51100000000E-03 0. -1.
         22    1    1    2    0    0 -0.16606501259E+02 -0.45518749515E+02  0.15109460632E+03  0.15867360367E+03  0.00000000000E+00 0. -1.
          2    1    1    2  501    0  0.15745377833E+03  0.12829906813E+03 -0.15428568279E+02  0.20369188476E+03  0.25500000000E-02 0. -1.
<mgrwt>
<rscale>  0 0.20310673E+03</rscale>
<asrwt>0</asrwt>
<pdfrwt beam="1">  1       11 0.10000000E+01 0.21430732E+03</pdfrwt>
<pdfrwt beam="2">  1        2 0.18808076E-01 0.20310673E+03</pdfrwt>
<totfact> 0.36501558E+02</totfact>
</mgrwt>
</event>
<event>
 5    1  0.2799727E-003  0.9571925E+02  0.7818608E-02  0.1289564E+00
         11   -1    0    0    0    0  0.00000000000E+00  0.00000000000E+00  0.10001018123E+04  0.10001018123E+04  0.51100000000E-03 0. -1.
         -2   -1    0    0    0  501 -0.00000000000E+00 -0.00000000000E+00 -0.14046045170E+03  0.14046045172E+03  0.25500000000E-02 0. -1.
         11    1    1    2    0    0 -0.15790401875E+02  0.14413744528E+03  0.73972554095E+03  0.75380290252E+03  0.51100000000E-03 0. -1.
         22    1    1    2    0    0  0.26251905316E+02 -0.50057075799E+02  0.23272809922E+03  0.23949371920E+03  0.00000000000E+00 0. -1.
         -2    1    1    2    0  501 -0.10461503442E+02 -0.94080369486E+02 -0.11281227956E+03  0.14726564230E+03  0.25500000000E-02 0. -1.
<mgrwt>
<rscale>  0 0.95719253E+02</rscale>
<asrwt>0</asrwt>
<pdfrwt beam="1">  1       11 0.10000000E+01 0.56523211E+02</pdfrwt>
<pdfrwt beam="2">  1       -2 0.21611500E-01 0.95719253E+02</pdfrwt>
<totfact> 0.14327140E+02</totfact>
</mgrwt>
</event>
<event>
 5    1  0.2799727E-003  0.1093350E+03  0.7818608E-02  0.1264568E+00
         11   -1    0    0    0    0  0.00000000000E+00  0.00000000000E+00  0.10003322689E+04  0.10003322689E+04  0.51100000000E-03 0. -1.
          2   -1    0    0  501    0 -0.00000000000E+00 -0.00000000000E+00 -0.12311286715E+02  0.12311286979E+02  0.25500000000E-02 0. -1.
         11    1    1    2    0    0 -0.89192618601E+02  0.27688831813E+02  0.32001428584E+03  0.33336337195E+03  0.51100000000E-03 0. -1.
         22    1    1    2    0    0 -0.12187608192E+02  0.91591953172E+01  0.73052362327E+02  0.74626244002E+02  0.00000000000E+00 0. -1.
          2    1    1    2  501    0  0.10138022679E+03 -0.36848027130E+02  0.59495433403E+03  0.60465393993E+03  0.25500000000E-02 0. -1.
<mgrwt>
<rscale>  0 0.10786903E+03</rscale>
<asrwt>0</asrwt>
<pdfrwt beam="1">  1       11 0.10000000E+01 0.10933498E+03</pdfrwt>
<pdfrwt beam="2">  1        2 0.18946734E-02 0.10786903E+03</pdfrwt>
<totfact> 0.65415253E+03</totfact>
</mgrwt>
</event>
<event>
 5    1  0.2799727E-003  0.2826854E+03  0.7818608E-02  0.1094231E+00
         11   -1    0    0    0    0  0.00000000000E+00  0.00000000000E+00  0.10003984417E+04  0.10003984417E+04  0.51100000000E-03 0.  1.
          2   -1    0    0  501    0 -0.00000000000E+00 -0.00000000000E+00 -0.13988728314E+03  0.13988728316E+03  0.25500000000E-02 0.  1.
         11    1    1    2    0    0  0.24084281236E+03  0.65393006588E+02  0.19281765887E+03  0.31537304125E+03  0.51100000000E-03 0.  1.
         22    1    1    2    0    0  0.67901498298E+02  0.10524142633E+03  0.23821285606E+03  0.26913144758E+03  0.00000000000E+00 0.  1.
          2    1    1    2  501    0 -0.30874431066E+03 -0.17063443292E+03  0.42948064366E+03  0.55578123605E+03  0.25500000000E-02 0.  1.
<mgrwt>
<rscale>  0 0.28268540E+03</rscale>
<asrwt>0</asrwt>
<pdfrwt beam="1">  1       11 0.10000000E+01 0.12524524E+03</pdfrwt>
<pdfrwt beam="2">  1        2 0.21529695E-01 0.28268540E+03</pdfrwt>
<totfact> 0.31540054E+02</totfact>
</mgrwt>
</event>
<event>
 5    1  0.2799727E-003  0.6591088E+02  0.7818608E-02  0.1381505E+00
         11   -1    0    0    0    0  0.00000000000E+00  0.00000000000E+00  0.10002667440E+04  0.10002667440E+04  0.51100000000E-03 0.  1.
          2   -1    0    0  501    0 -0.00000000000E+00 -0.00000000000E+00 -0.58166906432E+01  0.58166912022E+01  0.25500000000E-02 0.  1.
         11    1    1    2    0    0  0.34575907092E+02  0.16861390720E+02  0.11873722029E+03  0.12481316970E+03  0.51100000000E-03 0.  1.
         22    1    1    2    0    0  0.26017628604E+02  0.39557176684E+01  0.12027754546E+03  0.12312291681E+03  0.00000000000E+00 0.  1.
          2    1    1    2  501    0 -0.60593535696E+02 -0.20817108389E+02  0.75543528762E+03  0.75814734871E+03  0.25500000000E-02 0.  1.
<mgrwt>
<rscale>  0 0.64069717E+02</rscale>
<asrwt>0</asrwt>
<pdfrwt beam="1">  1       11 0.10000000E+01 0.65910885E+02</pdfrwt>
<pdfrwt beam="2">  1        2 0.89511420E-03 0.64069717E+02</pdfrwt>
<totfact> 0.16745171E+04</totfact>
</mgrwt>
</event>
<event>
 5    1  0.2799727E-003  0.2707536E+02  0.7818608E-02  0.1632866E+00
         11   -1    0    0    0    0  0.00000000000E+00  0.00000000000E+00  0.99999166363E+03  0.99999166363E+03  0.51100000000E-03 0. -1.
          2   -1    0    0  501    0 -0.00000000000E+00 -0.00000000000E+00 -0.46603248813E+01  0.46603255789E+01  0.25500000000E-02 0. -1.
         11    1    1    2    0    0 -0.16237747968E+02 -0.85551670391E+01  0.27453545372E+02  0.33023514288E+02  0.51100000000E-03 0. -1.
         22    1    1    2    0    0 -0.15889892767E+01 -0.25815706922E+02  0.11501939097E+03  0.11789162782E+03  0.00000000000E+00 0. -1.
          2    1    1    2  501    0  0.17826737245E+02  0.34370873962E+02  0.85285840240E+03  0.85373684710E+03  0.25500000000E-02 0. -1.
<mgrwt>
<rscale>  0 0.27075357E+02</rscale>
<asrwt>0</asrwt>
<pdfrwt beam="1">  1       11 0.10000000E+01 0.18353629E+02</pdfrwt>
<pdfrwt beam="2">  1        2 0.71696712E-03 0.27075357E+02</pdfrwt>
<totfact> 0.18902437E+04</totfact>
</mgrwt>
</event>
<event>
 5    1  0.2799727E-003  0.1578957E+03  0.7818608E-02  0.1196705E+00
         11   -1    0    0    0    0  0.00000000000E+00  0.00000000000E+00  0.10004010236E+04  0.10004010236E+04  0.51100000000E-03 0. -1.
          2   -1    0    0  501    0 -0.00000000000E+00 -0.00000000000E+00 -0.24308419843E+02  0.24308419976E+02  0.25500000000E-02 0. -1.
         11    1    1    2    0    0 -0.76555418422E+02  0.95346260601E+02  0.45827384038E+03  0.47430639283E+03  0.51100000000E-03 0. -1.
         22    1    1    2    0    0 -0.28887381656E+02  0.15666319098E+02  0.75749204527E+02  0.82570311611E+02  0.00000000000E+00 0.  1.
          2    1    1    2  501    0  0.10544280008E+03 -0.11101257970E+03  0.44206955884E+03  0.46783273913E+03  0.25500000000E-02 0. -1.
<mgrwt>
<rscale>  0 0.15310773E+03</rscale>
<asrwt>0</asrwt>
<pdfrwt beam="1">  1       11 0.10000000E+01 0.15789570E+03</pdfrwt>
<pdfrwt beam="2">  1        2 0.37412565E-02 0.15310773E+03</pdfrwt>
<totfact> 0.27155268E+03</totfact>
</mgrwt>
</event>
<event>
 5    1  0.2799727E-003  0.9649120E+02  0.7818608E-02  0.1311558E+00
         11   -1    0    0    0    0  0.00000000000E+00  0.00000000000E+00  0.99984973591E+03  0.99984973591E+03  0.51100000000E-03 0.  1.
          2   -1    0    0  501    0 -0.00000000000E+00 -0.00000000000E+00 -0.16667194869E+03  0.16667194871E+03  0.25500000000E-02 0.  1.
         11    1    1    2    0    0  0.35154248580E+02  0.10965873598E+02 -0.10410015936E+03  0.11042153212E+03  0.51100000000E-03 0.  1.
         22    1    1    2    0    0  0.50087319173E+02  0.37314360123E+01 -0.46547947165E+02  0.68479008039E+02  0.00000000000E+00 0. -1.
          2    1    1    2  501    0 -0.85241567754E+02 -0.14697309610E+02  0.98382589375E+03  0.98762114447E+03  0.25500000000E-02 0.  1.
<mgrwt>
<rscale>  0 0.86499340E+02</rscale>
<asrwt>0</asrwt>
<pdfrwt beam="1">  1       11 0.10000000E+01 0.96491198E+02</pdfrwt>
<pdfrwt beam="2">  1        2 0.25637984E-01 0.86499340E+02</pdfrwt>
<totfact> 0.25166670E+02</totfact>
</mgrwt>
</event>
<event>
 5    1  0.4736170E-003  0.2043504E+03  0.7818608E-02  0.1148895E+00
         11   -1    0    0    0    0  0.00000000000E+00  0.00000000000E+00  0.99960227898E+03  0.99960227898E+03  0.51100000000E-03 0.  1.
          2   -1    0    0  501    0 -0.00000000000E+00 -0.00000000000E+00 -0.26151211137E+04  0.26151211137E+04  0.25500000000E-02 0.  1.
         11    1    1    2    0    0 -0.16985535885E+03  0.42556615482E+02  0.82006203991E+03  0.83854854228E+03  0.51100000000E-03 0.  1.
         22    1    1    2    0    0 -0.21444084149E+02  0.19143795014E+02  0.16517771080E+03  0.16766040015E+03  0.00000000000E+00 0. -1.
          2    1    1    2  501    0  0.19129944300E+03 -0.61700410497E+02 -0.26007585854E+04  0.26085144503E+04  0.25500000000E-02 0.  1.
<mgrwt>
<rscale>  0 0.20100353E+03</rscale>
<asrwt>0</asrwt>
<pdfrwt beam="1">  1       11 0.10000000E+01 0.20435036E+03</pdfrwt>
<pdfrwt beam="2">  1        2 0.40216630E+00 0.20100353E+03</pdfrwt>
<totfact> 0.45199016E+00</totfact>
</mgrwt>
</event>
<event>
 5    1  0.2799727E-003  0.1729359E+03  0.7818608E-02  0.1180154E+00
         11   -1    0    0    0    0  0.00000000000E+00  0.00000000000E+00  0.10003427273E+04  0.10003427273E+04  0.51100000000E-03 0. -1.
          2   -1    0    0  501    0 -0.00000000000E+00 -0.00000000000E+00 -0.97499291142E+02  0.97499291176E+02  0.25500000000E-02 0. -1.
         11    1    1    2    0    0  0.31333142903E+02 -0.14347140722E+03  0.75909156472E+03  0.77316609740E+03  0.51100000000E-03 0. -1.
         22    1    1    2    0    0  0.20115782166E+02 -0.16254159852E+02  0.15438121963E+03  0.15653243555E+03  0.00000000000E+00 0. -1.
          2    1    1    2  501    0 -0.51448925069E+02  0.15972556707E+03 -0.10629348222E+02  0.16814348550E+03  0.25500000000E-02 0. -1.
<mgrwt>
<rscale>  0 0.16780718E+03</rscale>
<asrwt>0</asrwt>
<pdfrwt beam="1">  1       11 0.10000000E+01 0.17293593E+03</pdfrwt>
<pdfrwt beam="2">  1        2 0.15005031E-01 0.16780718E+03</pdfrwt>
<totfact> 0.47171920E+02</totfact>
</mgrwt>
</event>
<event>
 5    1  0.2799727E-003  0.2692884E+02  0.7818608E-02  0.1642822E+00
         11   -1    0    0    0    0  0.00000000000E+00  0.00000000000E+00  0.10001999879E+04  0.10001999879E+04  0.51100000000E-03 0. -1.
          2   -1    0    0  501    0 -0.00000000000E+00 -0.00000000000E+00 -0.15621022714E+01  0.15621043527E+01  0.25500000000E-02 0. -1.
         11    1    1    2    0    0 -0.92539358442E+01  0.84185459763E+01  0.48518336092E+02  0.50105251046E+02  0.51100000000E-03 0. -1.
         22    1    1    2    0    0 -0.99188210581E+01  0.96038560168E+01  0.83178376718E+02  0.84316424350E+02  0.00000000000E+00 0. -1.
          2    1    1    2  501    0  0.19172756902E+02 -0.18022401993E+02  0.86694117286E+03  0.86734041690E+03  0.25500000000E-02 0. -1.
<mgrwt>
<rscale>  0 0.26313525E+02</rscale>
<asrwt>0</asrwt>
<pdfrwt beam="1">  1       11 0.10000000E+01 0.26928844E+02</pdfrwt>
<pdfrwt beam="2">  1        2 0.24037164E-03 0.26313525E+02</pdfrwt>
<totfact> 0.79491076E+04</totfact>
</mgrwt>
</event>
<event>
 5    1  0.2799727E-003  0.1397659E+03  0.7818608E-02  0.1213644E+00
         11   -1    0    0    0    0  0.00000000000E+00  0.00000000000E+00  0.10001779166E+04  0.10001779166E+04  0.51100000000E-03 0.  1.
          2   -1    0    0  501    0 -0.00000000000E+00 -0.00000000000E+00 -0.99252152258E+02  0.99252152290E+02  0.25500000000E-02 0.  1.
         11    1    1    2    0    0 -0.47002625811E+02  0.10780148799E+03  0.53207418510E+03  0.54491590737E+03  0.51100000000E-03 0.  1.
         22    1    1    2    0    0 -0.67672156769E+02 -0.21322333406E+02  0.40108622408E+03  0.40731354244E+03  0.00000000000E+00 0.  1.
          2    1    1    2  501    0  0.11467478258E+03 -0.86479154588E+02 -0.32234644808E+02  0.14720061912E+03  0.25500000000E-02 0.  1.
<mgrwt>
<rscale>  0 0.13976588E+03</rscale>
<asrwt>0</asrwt>
<pdfrwt beam="1">  1       11 0.10000000E+01 0.70951834E+02</pdfrwt>
<pdfrwt beam="2">  1        2 0.15272278E-01 0.13976588E+03</pdfrwt>
<totfact> 0.45862244E+02</totfact>
</mgrwt>
</event>
<event>
 5    1  0.2799727E-003  0.7789405E+02  0.7818608E-02  0.1342278E+00
         11   -1    0    0    0    0  0.00000000000E+00  0.00000000000E+00  0.10003348264E+04  0.10003348264E+04  0.51100000000E-03 0.  1.
          2   -1    0    0  501    0 -0.00000000000E+00 -0.00000000000E+00 -0.66267777090E+01  0.66267781996E+01  0.25500000000E-02 0.  1.
         11    1    1    2    0    0  0.48734209494E+02  0.43010972481E+02  0.27259393299E+03  0.28023636315E+03  0.51100000000E-03 0.  1.
         22    1    1    2    0    0  0.24112257316E+01  0.12549370374E+02  0.62295110359E+02  0.63592306775E+02  0.00000000000E+00 0.  1.
          2    1    1    2  501    0 -0.51145435226E+02 -0.55560342856E+02  0.65881900535E+03  0.66313293468E+03  0.25500000000E-02 0.  1.
<mgrwt>
<rscale>  0 0.75516934E+02</rscale>
<asrwt>0</asrwt>
<pdfrwt beam="1">  1       11 0.10000000E+01 0.77894049E+02</pdfrwt>
<pdfrwt beam="2">  1        2 0.10198456E-02 0.75516934E+02</pdfrwt>
<totfact> 0.14425708E+04</totfact>
</mgrwt>
</event>
<event>
 5    1  0.2799727E-003  0.3880284E+03  0.7818608E-02  0.1050961E+00
         11   -1    0    0    0    0  0.00000000000E+00  0.00000000000E+00  0.99996459532E+03  0.99996459532E+03  0.51100000000E-03 0. -1.
          2   -1    0    0  501    0 -0.00000000000E+00 -0.00000000000E+00 -0.31757669560E+03  0.31757669561E+03  0.25500000000E-02 0.  1.
         11    1    1    2    0    0  0.75562775051E+02  0.32670138434E+03  0.70507968295E+03  0.78075661176E+03  0.51100000000E-03 0. -1.
         22    1    1    2    0    0  0.38642853821E+02  0.35652477668E+02  0.11994806695E+03  0.13096529342E+03  0.00000000000E+00 0.  1.
          2    1    1    2  501    0 -0.11420562887E+03 -0.36235386201E+03 -0.14263985018E+03  0.40581938574E+03  0.25500000000E-02 0.  1.
<mgrwt>
<rscale>  0 0.37992532E+03</rscale>
<asrwt>0</asrwt>
<pdfrwt beam="1">  1       11 0.10000000E+01 0.38802841E+03</pdfrwt>
<pdfrwt beam="2">  1        2 0.48856222E-01 0.37992532E+03</pdfrwt>
<totfact> 0.12755825E+02</totfact>
</mgrwt>
</event>
<event>
 5    1  0.2799727E-003  0.2118709E+03  0.7818608E-02  0.1140093E+00
         11   -1    0    0    0    0  0.00000000000E+00  0.00000000000E+00  0.10001247005E+04  0.10001247005E+04  0.51100000000E-03 0. -1.
          2   -1    0    0  501    0 -0.00000000000E+00 -0.00000000000E+00 -0.71114693306E+02  0.71114693352E+02  0.25500000000E-02 0. -1.
         11    1    1    2    0    0  0.56485055018E+02 -0.18538715509E+03  0.25253281481E+03  0.31832653246E+03  0.51100000000E-03 0. -1.
         22    1    1    2    0    0 -0.47914890238E+02 -0.64093630315E+02  0.18881477216E+03  0.20507278791E+03  0.00000000000E+00 0. -1.
          2    1    1    2  501    0 -0.85701647802E+01  0.24948078540E+03  0.48766242020E+03  0.54784007346E+03  0.25500000000E-02 0. -1.
<mgrwt>
<rscale>  0 0.21187092E+03</rscale>
<asrwt>0</asrwt>
<pdfrwt beam="1">  1       11 0.10000000E+01 0.80023935E+02</pdfrwt>
<pdfrwt beam="2">  1        2 0.10942086E-01 0.21187092E+03</pdfrwt>
<totfact> 0.69693809E+02</totfact>
</mgrwt>
</event>
<event>
 5    1  0.2799727E-003  0.1954124E+03  0.7818608E-02  0.1153668E+00
         11   -1    0    0    0    0  0.00000000000E+00  0.00000000000E+00  0.10001409464E+04  0.10001409464E+04  0.51100000000E-03 0.  1.
          2   -1    0    0  501    0 -0.00000000000E+00 -0.00000000000E+00 -0.10816100122E+03  0.10816100126E+03  0.25500000000E-02 0.  1.
         11    1    1    2    0    0  0.46761751740E+02  0.17629492654E+03  0.82066522095E+03  0.84068898376E+03  0.51100000000E-03 0.  1.
         22    1    1    2    0    0 -0.26684673839E+02  0.19969093333E+02  0.61656753445E+02  0.70088456623E+02  0.00000000000E+00 0. -1.
          2    1    1    2  501    0 -0.20077077901E+02 -0.19626401987E+03  0.96579707498E+01  0.19752450724E+03  0.25500000000E-02 0.  1.
<mgrwt>
<rscale>  0 0.19541238E+03</rscale>
<asrwt>0</asrwt>
<pdfrwt beam="1">  1       11 0.10000000E+01 0.33329214E+02</pdfrwt>
<pdfrwt beam="2">  1        2 0.16642499E-01 0.19541238E+03</pdfrwt>
<totfact> 0.42015303E+02</totfact>
</mgrwt>
</event>
<event>
 5    1  0.2799727E-003  0.1156529E+03  0.7818608E-02  0.1268613E+00
         11   -1    0    0    0    0  0.00000000000E+00  0.00000000000E+00  0.10004722258E+04  0.10004722258E+04  0.51100000000E-03 0. -1.
          2   -1    0    0  501    0 -0.00000000000E+00 -0.00000000000E+00 -0.12291360334E+02  0.12291360598E+02  0.25500000000E-02 0. -1.
         11    1    1    2    0    0 -0.12899157166E+02 -0.55943564232E+02  0.22302164749E+03  0.23029269611E+03  0.51100000000E-03 0. -1.
         22    1    1    2    0    0  0.27919337113E+02 -0.48752821696E+02  0.32202249472E+03  0.32688654624E+03  0.00000000000E+00 0.  1.
          2    1    1    2  501    0 -0.15020179947E+02  0.10469638593E+03  0.44313672329E+03  0.45558434408E+03  0.25500000000E-02 0. -1.
<mgrwt>
<rscale>  0 0.10576833E+03</rscale>
<asrwt>0</asrwt>
<pdfrwt beam="1">  1       11 0.10000000E+01 0.11565289E+03</pdfrwt>
<pdfrwt beam="2">  1        2 0.18918714E-02 0.10576833E+03</pdfrwt>
<totfact> 0.65382469E+03</totfact>
</mgrwt>
</event>
<event>
 5    1  0.2799727E-003  0.1176408E+03  0.7818608E-02  0.1513000E+00
         11   -1    0    0    0    0  0.00000000000E+00  0.00000000000E+00  0.10004613696E+04  0.10004613696E+04  0.51100000000E-03 0. -1.
          2   -1    0    0  501    0 -0.00000000000E+00 -0.00000000000E+00 -0.41116709654E+02  0.41116709733E+02  0.25500000000E-02 0. -1.
         11    1    1    2    0    0  0.55033596430E+02  0.92618032013E+02  0.59758111529E+03  0.60721494213E+03  0.51100000000E-03 0. -1.
         22    1    1    2    0    0 -0.70415783398E+02 -0.12884421699E+03  0.36640847179E+03  0.39473330617E+03  0.00000000000E+00 0. -1.
          2    1    1    2  501    0  0.15382186968E+02  0.36226184975E+02 -0.46449271282E+01  0.39629831041E+02  0.25500000000E-02 0. -1.
<mgrwt>
<rscale>  0 0.39356679E+02</rscale>
<asrwt>0</asrwt>
<pdfrwt beam="1">  1       11 0.10000000E+01 0.11764083E+03</pdfrwt>
<pdfrwt beam="2">  1        2 0.63285659E-02 0.39356679E+02</pdfrwt>
<totfact> 0.12132496E+03</totfact>
</mgrwt>
</event>
<event>
 5    1  0.2799727E-003  0.5391374E+02  0.7818608E-02  0.1435713E+00
         11   -1    0    0    0    0  0.00000000000E+00  0.00000000000E+00  0.10000932252E+04  0.10000932252E+04  0.51100000000E-03 0. -1.
          2   -1    0    0  501    0 -0.00000000000E+00 -0.00000000000E+00 -0.34511146848E+01  0.34511156269E+01  0.25500000000E-02 0. -1.
         11    1    1    2    0    0 -0.75450583135E+01 -0.34840645587E+02  0.20464724427E+03  0.20772889322E+03  0.51100000000E-03 0. -1.
         22    1    1    2    0    0  0.59761676121E+01 -0.16965786275E+02  0.82906852327E+02  0.84835715628E+02  0.00000000000E+00 0. -1.
          2    1    1    2  501    0  0.15688907014E+01  0.51806431862E+02  0.70908801395E+03  0.71097973201E+03  0.25500000000E-02 0. -1.
<mgrwt>
<rscale>  0 0.51830182E+02</rscale>
<asrwt>0</asrwt>
<pdfrwt beam="1">  1       11 0.10000000E+01 0.53913745E+02</pdfrwt>
<pdfrwt beam="2">  1        2 0.53099028E-03 0.51830182E+02</pdfrwt>
<totfact> 0.32609438E+04</totfact>
</mgrwt>
</event>
<event>
 5    1  0.2799727E-003  0.7515375E+02  0.7818608E-02  0.1346686E+00
         11   -1    0    0    0    0  0.00000000000E+00  0.00000000000E+00  0.10003096076E+04  0.10003096076E+04  0.51100000000E-03 0. -1.
          2   -1    0    0  501    0 -0.00000000000E+00 -0.00000000000E+00 -0.67905748993E+01  0.67905753781E+01  0.25500000000E-02 0. -1.
         11    1    1    2    0    0  0.32396451582E+02  0.48968014263E+02  0.22749021922E+03  0.23494509218E+03  0.51100000000E-03 0. -1.
         22    1    1    2    0    0  0.13649458754E+02  0.90865823326E+01  0.58432454388E+02  0.60689582538E+02  0.00000000000E+00 0.  1.
          2    1    1    2  501    0 -0.46045910336E+02 -0.58054596596E+02  0.70759635907E+03  0.71146550825E+03  0.25500000000E-02 0. -1.
<mgrwt>
<rscale>  0 0.74098327E+02</rscale>
<asrwt>0</asrwt>
<pdfrwt beam="1">  1       11 0.10000000E+01 0.75153746E+02</pdfrwt>
<pdfrwt beam="2">  1        2 0.10450273E-02 0.74098327E+02</pdfrwt>
<totfact> 0.13911213E+04</totfact>
</mgrwt>
</event>
<event>
 5    1  0.2799727E-003  0.2297036E+03  0.7818608E-02  0.1128103E+00
         11   -1    0    0    0    0  0.00000000000E+00  0.00000000000E+00  0.10000223982E+04  0.10000223982E+04  0.51100000000E-03 0. -1.
          2   -1    0    0  501    0 -0.00000000000E+00 -0.00000000000E+00 -0.79281168074E+02  0.79281168115E+02  0.25500000000E-02 0. -1.
         11    1    1    2    0    0 -0.20515984898E+03 -0.54186813570E+02  0.69140998196E+03  0.72323892149E+03  0.51100000000E-03 0. -1.
         22    1    1    2    0    0 -0.15052634010E+02 -0.46344793539E+01  0.84622174643E+02  0.86075389229E+02  0.00000000000E+00 0. -1.
          2    1    1    2  501    0  0.22021248299E+03  0.58821292923E+02  0.14470907349E+03  0.26998925557E+03  0.25500000000E-02 0. -1.
<mgrwt>
<rscale>  0 0.22793307E+03</rscale>
<asrwt>0</asrwt>
<pdfrwt beam="1">  1       11 0.10000000E+01 0.22970360E+03</pdfrwt>
<pdfrwt beam="2">  1        2 0.12197376E-01 0.22793307E+03</pdfrwt>
<totfact> 0.61225485E+02</totfact>
</mgrwt>
</event>
<event>
 5    1  0.2799727E-003  0.3658348E+02  0.7818608E-02  0.1608742E+00
         11   -1    0    0    0    0  0.00000000000E+00  0.00000000000E+00  0.10000546069E+04  0.10000546069E+04  0.51100000000E-03 0. -1.
         -2   -1    0    0    0  501 -0.00000000000E+00 -0.00000000000E+00 -0.32953675139E+01  0.32953685005E+01  0.25500000000E-02 0. -1.
         11    1    1    2    0    0  0.18521246213E+02 -0.16165866782E+02  0.84679465720E+02  0.88175868155E+02  0.51100000000E-03 0. -1.
         22    1    1    2    0    0 -0.47457331831E+01 -0.22587305719E+02  0.13139732104E+03  0.13340901147E+03  0.00000000000E+00 0. -1.
         -2    1    1    2    0  501 -0.13775513030E+02  0.38753172500E+02  0.78068245261E+03  0.78176509576E+03  0.25500000000E-02 0. -1.
<mgrwt>
<rscale>  0 0.29057939E+02</rscale>
<asrwt>0</asrwt>
<pdfrwt beam="1">  1       11 0.10000000E+01 0.36583485E+02</pdfrwt>
<pdfrwt beam="2">  1       -2 0.50700736E-03 0.29057939E+02</pdfrwt>
<totfact> 0.29539598E+04</totfact>
</mgrwt>
</event>
<event>
 5    1  0.2799727E-003  0.7631125E+02  0.7818608E-02  0.1429067E+00
         11   -1    0    0    0    0  0.00000000000E+00  0.00000000000E+00  0.10000910572E+04  0.10000910572E+04  0.51100000000E-03 0. -1.
          2   -1    0    0  501    0 -0.00000000000E+00 -0.00000000000E+00 -0.12351544404E+02  0.12351544667E+02  0.25500000000E-02 0. -1.
         11    1    1    2    0    0  0.71247960193E+02 -0.69032277644E+02  0.44220292584E+03  0.45319438965E+03  0.51100000000E-03 0. -1.
         22    1    1    2    0    0 -0.56638683177E+02  0.17931783086E+02  0.17248270478E+03  0.18242744510E+03  0.00000000000E+00 0. -1.
          2    1    1    2  501    0 -0.14609277016E+02  0.51100494558E+02  0.37305388218E+03  0.37682076712E+03  0.25500000000E-02 0. -1.
<mgrwt>
<rscale>  0 0.53147827E+02</rscale>
<asrwt>0</asrwt>
<pdfrwt beam="1">  1       11 0.10000000E+01 0.76311255E+02</pdfrwt>
<pdfrwt beam="2">  1        2 0.19004106E-02 0.53147827E+02</pdfrwt>
<totfact> 0.59090465E+03</totfact>
</mgrwt>
</event>
<event>
 5    1  0.2799727E-003  0.1188438E+03  0.7818608E-02  0.1251325E+00
         11   -1    0    0    0    0  0.00000000000E+00  0.00000000000E+00  0.10000215079E+04  0.10000215079E+04  0.51100000000E-03 0.  1.
          2   -1    0    0  501    0 -0.00000000000E+00 -0.00000000000E+00 -0.16601681049E+02  0.16601681245E+02  0.25500000000E-02 0.  1.
         11    1    1    2    0    0  0.17167857911E+02  0.43182364494E+01  0.41757214920E+02  0.45354685639E+02  0.51100000000E-03 0.  1.
         22    1    1    2    0    0  0.58331745343E+02  0.82622172931E+02  0.24341721860E+03  0.26359240938E+03  0.00000000000E+00 0.  1.
          2    1    1    2  501    0 -0.75499603254E+02 -0.86940409381E+02  0.69824539337E+03  0.70767609416E+03  0.25500000000E-02 0.  1.
<mgrwt>
<rscale>  0 0.11514697E+03</rscale>
<asrwt>0</asrwt>
<pdfrwt beam="1">  1       11 0.10000000E+01 0.11884381E+03</pdfrwt>
<pdfrwt beam="2">  1        2 0.25541597E-02 0.11514697E+03</pdfrwt>
<totfact> 0.44016126E+03</totfact>
</mgrwt>
</event>
<event>
 5    1  0.2799727E-003  0.2054778E+03  0.7818608E-02  0.1150893E+00
         11   -1    0    0    0    0  0.00000000000E+00  0.00000000000E+00  0.10002693239E+04  0.10002693239E+04  0.51100000000E-03 0. -1.
          2   -1    0    0  501    0 -0.00000000000E+00 -0.00000000000E+00 -0.54311620229E+02  0.54311620288E+02  0.25500000000E-02 0. -1.
         11    1    1    2    0    0 -0.17346111083E+03 -0.58635162231E+02  0.63256339031E+03  0.65853115491E+03  0.51100000000E-03 0. -1.
         22    1    1    2    0    0 -0.18836431764E+02  0.88482671726E+01  0.10924445073E+03  0.11120905093E+03  0.00000000000E+00 0.  1.
          2    1    1    2  501    0  0.19229754259E+03  0.49786895058E+02  0.20414986262E+03  0.28484073834E+03  0.25500000000E-02 0. -1.
<mgrwt>
<rscale>  0 0.19863806E+03</rscale>
<asrwt>0</asrwt>
<pdfrwt beam="1">  1       11 0.10000000E+01 0.20547776E+03</pdfrwt>
<pdfrwt beam="2">  1        2 0.83578840E-02 0.19863806E+03</pdfrwt>
<totfact> 0.97188903E+02</totfact>
</mgrwt>
</event>
<event>
 5    1  0.2799727E-003  0.1256750E+03  0.7818608E-02  0.1386219E+00
         11   -1    0    0    0    0  0.00000000000E+00  0.00000000000E+00  0.10006487206E+04  0.10006487206E+04  0.51100000000E-03 0. -1.
          2   -1    0    0  501    0 -0.00000000000E+00 -0.00000000000E+00 -0.32506097576E+02  0.32506097676E+02  0.25500000000E-02 0. -1.
         11    1    1    2    0    0 -0.95546664731E+02 -0.47265641764E+02  0.12831619015E+03  0.16681801668E+03  0.51100000000E-03 0. -1.
         22    1    1    2    0    0  0.13516287756E+03 -0.15355317197E+01  0.70141994832E+03  0.71432576968E+03  0.00000000000E+00 0. -1.
          2    1    1    2  501    0 -0.39616212826E+02  0.48801173484E+02  0.13840648453E+03  0.15201103189E+03  0.25500000000E-02 0. -1.
<mgrwt>
<rscale>  0 0.62856971E+02</rscale>
<asrwt>0</asrwt>
<pdfrwt beam="1">  1       11 0.10000000E+01 0.12567497E+03</pdfrwt>
<pdfrwt beam="2">  1        2 0.50041822E-02 0.62856971E+02</pdfrwt>
<totfact> 0.17070843E+03</totfact>
</mgrwt>
</event>
<event>
 5    1  0.2799727E-003  0.4877853E+02  0.7818608E-02  0.1452043E+00
         11   -1    0    0    0    0  0.00000000000E+00  0.00000000000E+00  0.10001542248E+04  0.10001542248E+04  0.51100000000E-03 0.  1.
          2   -1    0    0  501    0 -0.00000000000E+00 -0.00000000000E+00 -0.63714857369E+01  0.63714862472E+01  0.25500000000E-02 0.  1.
         11    1    1    2    0    0  0.96224817308E+01  0.45913771282E+02  0.26733493798E+03  0.27141966696E+03  0.51100000000E-03 0.  1.
         22    1    1    2    0    0 -0.48224981799E+02  0.30840231697E+01  0.25374856976E+03  0.25830891723E+03  0.00000000000E+00 0.  1.
          2    1    1    2  501    0  0.38602500069E+02 -0.48997794452E+02  0.47269923129E+03  0.47679712681E+03  0.25500000000E-02 0.  1.
<mgrwt>
<rscale>  0 0.48778533E+02</rscale>
<asrwt>0</asrwt>
<pdfrwt beam="1">  1       11 0.10000000E+01 0.46911286E+02</pdfrwt>
<pdfrwt beam="2">  1        2 0.98037976E-03 0.48778533E+02</pdfrwt>
<totfact> 0.14095808E+04</totfact>
</mgrwt>
</event>
<event>
 5    1  0.2799727E-003  0.4340066E+02  0.7818608E-02  0.1703547E+00
         11   -1    0    0    0    0  0.00000000000E+00  0.00000000000E+00  0.10006335145E+04  0.10006335145E+04  0.51100000000E-03 0. -1.
          2   -1    0    0  501    0 -0.00000000000E+00 -0.00000000000E+00 -0.48618242748E+01  0.48618249435E+01  0.25500000000E-02 0. -1.
         11    1    1    2    0    0 -0.12430139124E+02 -0.49162466133E+02  0.19883492523E+03  0.20519937604E+03  0.51100000000E-03 0. -1.
         22    1    1    2    0    0 -0.44699991449E+01  0.10521817747E+02  0.28565653502E+02  0.30768264512E+02  0.00000000000E+00 0. -1.
          2    1    1    2  501    0  0.16900138268E+02  0.38640648386E+02  0.76837111152E+03  0.76952769892E+03  0.25500000000E-02 0. -1.
<mgrwt>
<rscale>  0 0.22274516E+02</rscale>
<asrwt>0</asrwt>
<pdfrwt beam="1">  1       11 0.10000000E+01 0.43400662E+02</pdfrwt>
<pdfrwt beam="2">  1        2 0.74844685E-03 0.22274516E+02</pdfrwt>
<totfact> 0.17053292E+04</totfact>
</mgrwt>
</event>
<event>
 5    1  0.2799727E-003  0.4339196E+03  0.7818608E-02  0.1034959E+00
         11   -1    0    0    0    0  0.00000000000E+00  0.00000000000E+00  0.10009886376E+04  0.10009886376E+04  0.51100000000E-03 0.  1.
          2   -1    0    0  501    0 -0.00000000000E+00 -0.00000000000E+00 -0.10913524327E+04  0.10913524327E+04  0.25500000000E-02 0.  1.
         11    1    1    2    0    0 -0.26640116889E+03 -0.12817147232E+03  0.53806093499E+03  0.61392758439E+03  0.51100000000E-03 0.  1.
         22    1    1    2    0    0 -0.11862298401E+03 -0.55382803063E+02  0.37011597175E+03  0.39258693274E+03  0.00000000000E+00 0.  1.
          2    1    1    2  501    0  0.38502415290E+03  0.18355427538E+03 -0.99854070186E+03  0.10858265532E+04  0.25500000000E-02 0.  1.
<mgrwt>
<rscale>  0 0.42653930E+03</rscale>
<asrwt>0</asrwt>
<pdfrwt beam="1">  1       11 0.10000000E+01 0.43391955E+03</pdfrwt>
<pdfrwt beam="2">  1        2 0.16806636E+00 0.42653930E+03</pdfrwt>
<totfact> 0.28216918E+01</totfact>
</mgrwt>
</event>
<event>
 5    1  0.2799727E-003  0.2398840E+02  0.7818608E-02  0.1712861E+00
         11   -1    0    0    0    0  0.00000000000E+00  0.00000000000E+00  0.10001019020E+04  0.10001019020E+04  0.51100000000E-03 0. -1.
          2   -1    0    0  501    0 -0.00000000000E+00 -0.00000000000E+00 -0.12369382504E+01  0.12369408789E+01  0.25500000000E-02 0. -1.
         11    1    1    2    0    0 -0.79044422081E+01 -0.70910105956E+01  0.50638316238E+02  0.51739749802E+02  0.51100000000E-03 0. -1.
         22    1    1    2    0    0  0.17819949325E+00 -0.13225278217E+02  0.78913318182E+02  0.80014070797E+02  0.00000000000E+00 0. -1.
          2    1    1    2  501    0  0.77262427149E+01  0.20316288813E+02  0.86931332935E+03  0.86958502230E+03  0.25500000000E-02 0. -1.
<mgrwt>
<rscale>  0 0.21735833E+02</rscale>
<asrwt>0</asrwt>
<pdfrwt beam="1">  1       11 0.10000000E+01 0.23988398E+02</pdfrwt>
<pdfrwt beam="2">  1        2 0.19031778E-03 0.21735833E+02</pdfrwt>
<totfact> 0.10191829E+05</totfact>
</mgrwt>
</event>
<event>
 5    1  0.2799727E-003  0.1010068E+03  0.7818608E-02  0.1320956E+00
         11   -1    0    0    0    0  0.00000000000E+00  0.00000000000E+00  0.10003826853E+04  0.10003826853E+04  0.51100000000E-03 0. -1.
          2   -1    0    0  501    0 -0.00000000000E+00 -0.00000000000E+00 -0.41289807243E+02  0.41289807322E+02  0.25500000000E-02 0. -1.
         11    1    1    2    0    0 -0.14515233819E+03  0.23739397361E+02  0.29653345496E+03  0.33100581593E+03  0.51100000000E-03 0. -1.
         22    1    1    2    0    0  0.53708383320E+02 -0.41830269642E+02  0.35613752092E+02  0.76829039010E+02  0.00000000000E+00 0. -1.
          2    1    1    2  501    0  0.91443954872E+02  0.18090872281E+02  0.62694567100E+03  0.63383763768E+03  0.25500000000E-02 0. -1.
<mgrwt>
<rscale>  0 0.82922560E+02</rscale>
<asrwt>0</asrwt>
<pdfrwt beam="1">  1       11 0.10000000E+01 0.10100681E+03</pdfrwt>
<pdfrwt beam="2">  1        2 0.63547088E-02 0.82922560E+02</pdfrwt>
<totfact> 0.12931100E+03</totfact>
</mgrwt>
</event>
<event>
 5    1  0.2799727E-003  0.9367548E+02  0.7818608E-02  0.1294187E+00
         11   -1    0    0    0    0  0.00000000000E+00  0.00000000000E+00  0.99972493288E+03  0.99972493288E+03  0.51100000000E-03 0. -1.
          2   -1    0    0  501    0 -0.00000000000E+00 -0.00000000000E+00 -0.26459256013E+02  0.26459256136E+02  0.25500000000E-02 0. -1.
         11    1    1    2    0    0 -0.76267060160E+01  0.41583499118E+02  0.32522522184E+02  0.53339183468E+02  0.51100000000E-03 0. -1.
         22    1    1    2    0    0 -0.72699629677E+02  0.49897124932E+02  0.16018644319E+03  0.18285145833E+03  0.00000000000E+00 0. -1.
          2    1    1    2  501    0  0.80326335693E+02 -0.91480624050E+02  0.78055671149E+03  0.78999354722E+03  0.25500000000E-02 0. -1.
<mgrwt>
<rscale>  0 0.93675482E+02</rscale>
<asrwt>0</asrwt>
<pdfrwt beam="1">  1       11 0.10000000E+01 0.42277131E+02</pdfrwt>
<pdfrwt beam="2">  1        2 0.40695350E-02 0.93675482E+02</pdfrwt>
<totfact> 0.23196232E+03</totfact>
</mgrwt>
</event>
<event>
 5    1  0.2799727E-003  0.4751469E+03  0.7818608E-02  0.1020478E+00
         11   -1    0    0    0    0  0.00000000000E+00  0.00000000000E+00  0.10001723483E+04  0.10001723483E+04  0.51100000000E-03 0.  1.
          2   -1    0    0  501    0 -0.00000000000E+00 -0.00000000000E+00 -0.14948109607E+04  0.14948109607E+04  0.25500000000E-02 0.  1.
         11    1    1    2    0    0  0.39560844312E+03 -0.20473235821E+03  0.43221013499E+03  0.62066656069E+03  0.51100000000E-03 0.  1.
         22    1    1    2    0    0 -0.66711184807E+02 -0.14395169153E+03  0.41773530556E+03  0.44685037449E+03  0.00000000000E+00 0.  1.
          2    1    1    2  501    0 -0.32889725831E+03  0.34868404974E+03 -0.13445840529E+04  0.14274663738E+04  0.25500000000E-02 0.  1.
<mgrwt>
<rscale>  0 0.47514688E+03</rscale>
<asrwt>0</asrwt>
<pdfrwt beam="1">  1       11 0.10000000E+01 0.15865835E+03</pdfrwt>
<pdfrwt beam="2">  1        2 0.23001055E+00 0.47514688E+03</pdfrwt>
<totfact> 0.16529433E+01</totfact>
</mgrwt>
</event>
<event>
 5    1  0.2799727E-003  0.2350815E+02  0.7818608E-02  0.1683403E+00
         11   -1    0    0    0    0  0.00000000000E+00  0.00000000000E+00  0.99992677845E+03  0.99992677845E+03  0.51100000000E-03 0. -1.
          2   -1    0    0  501    0 -0.00000000000E+00 -0.00000000000E+00 -0.21545233196E+01  0.21545248286E+01  0.25500000000E-02 0. -1.
         11    1    1    2    0    0  0.12009331680E+02 -0.66982842797E+00  0.45211546118E+02  0.46784149241E+02  0.51100000000E-03 0. -1.
         22    1    1    2    0    0 -0.83347518506E+01 -0.22407275539E+02  0.11739483273E+03  0.11980442745E+03  0.00000000000E+00 0. -1.
          2    1    1    2  501    0 -0.36745798299E+01  0.23077103967E+02  0.83516587628E+03  0.83549272658E+03  0.25500000000E-02 0. -1.
<mgrwt>
<rscale>  0 0.23508155E+02</rscale>
<asrwt>0</asrwt>
<pdfrwt beam="1">  1       11 0.10000000E+01 0.12028003E+02</pdfrwt>
<pdfrwt beam="2">  1        2 0.33144096E-03 0.23508155E+02</pdfrwt>
<totfact> 0.50365769E+04</totfact>
</mgrwt>
</event>
<event>
 5    1  0.2799727E-003  0.9788888E+02  0.7818608E-02  0.1572644E+00
         11   -1    0    0    0    0  0.00000000000E+00  0.00000000000E+00  0.10002387332E+04  0.10002387332E+04  0.51100000000E-03 0.  1.
          2   -1    0    0  501    0 -0.00000000000E+00 -0.00000000000E+00 -0.10589683469E+04  0.10589683469E+04  0.25500000000E-02 0.  1.
         11    1    1    2    0    0 -0.37166264388E+02  0.95383012151E+02  0.43021316754E+03  0.44222462588E+03  0.51100000000E-03 0.  1.
         22    1    1    2    0    0  0.61979070661E+02 -0.74495541217E+02  0.55960470416E+03  0.56793346070E+03  0.00000000000E+00 0. -1.
          2    1    1    2  501    0 -0.24812806273E+02 -0.20887470935E+02 -0.10485474854E+04  0.10490489936E+04  0.25500000000E-02 0.  1.
<mgrwt>
<rscale>  0 0.32433961E+02</rscale>
<asrwt>0</asrwt>
<pdfrwt beam="1">  1       11 0.10000000E+01 0.97888884E+02</pdfrwt>
<pdfrwt beam="2">  1        2 0.16295710E+00 0.32433961E+02</pdfrwt>
<totfact> 0.33974540E+01</totfact>
</mgrwt>
</event>
<event>
 5    1  0.2799727E-003  0.3995090E+03  0.7818608E-02  0.1043950E+00
         11   -1    0    0    0    0  0.00000000000E+00  0.00000000000E+00  0.10005855046E+04  0.10005855046E+04  0.51100000000E-03 0.  1.
          2   -1    0    0  501    0 -0.00000000000E+00 -0.00000000000E+00 -0.37621139426E+03  0.37621139427E+03  0.25500000000E-02 0.  1.
         11    1    1    2    0    0 -0.72047596007E+02 -0.41047831895E+03  0.76891121870E+03  0.87459005749E+03  0.51100000000E-03 0.  1.
         22    1    1    2    0    0 -0.38883015222E+02  0.29096777350E+02  0.41247351390E+02  0.63716993977E+02  0.00000000000E+00 0. -1.
          2    1    1    2  501    0  0.11093061123E+03  0.38138154160E+03 -0.18578445975E+03  0.43848984740E+03  0.25500000000E-02 0.  1.
<mgrwt>
<rscale>  0 0.39950904E+03</rscale>
<asrwt>0</asrwt>
<pdfrwt beam="1">  1       11 0.10000000E+01 0.48564507E+02</pdfrwt>
<pdfrwt beam="2">  1        2 0.57912563E-01 0.39950904E+03</pdfrwt>
<totfact> 0.10581691E+02</totfact>
</mgrwt>
</event>
<event>
 5    1  0.2799727E-003  0.3946629E+03  0.7818608E-02  0.1051925E+00
         11   -1    0    0    0    0  0.00000000000E+00  0.00000000000E+00  0.10005658456E+04  0.10005658456E+04  0.51100000000E-03 0.  1.
          2   -1    0    0  501    0 -0.00000000000E+00 -0.00000000000E+00 -0.16813311612E+03  0.16813311614E+03  0.25500000000E-02 0.  1.
         11    1    1    2    0    0  0.21259999552E+03  0.70196588110E+02  0.13164615227E+03  0.25972490925E+03  0.51100000000E-03 0.  1.
         22    1    1    2    0    0  0.16403806674E+03 -0.47372007336E+02  0.95297352147E+02  0.19553562270E+03  0.00000000000E+00 0.  1.
          2    1    1    2  501    0 -0.37663806225E+03 -0.22824580774E+02  0.60548922506E+03  0.71343842979E+03  0.25500000000E-02 0.  1.
<mgrwt>
<rscale>  0 0.37732902E+03</rscale>
<asrwt>0</asrwt>
<pdfrwt beam="1">  1       11 0.10000000E+01 0.39466289E+03</pdfrwt>
<pdfrwt beam="2">  1        2 0.25881269E-01 0.37732902E+03</pdfrwt>
<totfact> 0.25733389E+02</totfact>
</mgrwt>
</event>
<event>
 5    1  0.2799727E-003  0.1754149E+03  0.7818608E-02  0.1176228E+00
         11   -1    0    0    0    0  0.00000000000E+00  0.00000000000E+00  0.99968263985E+03  0.99968263985E+03  0.51100000000E-03 0. -1.
          2   -1    0    0  501    0 -0.00000000000E+00 -0.00000000000E+00 -0.98288125094E+03  0.98288125095E+03  0.25500000000E-02 0. -1.
         11    1    1    2    0    0  0.48083797865E+01  0.16834170433E+02  0.96130450207E+02  0.97711684396E+02  0.51100000000E-03 0. -1.
         22    1    1    2    0    0  0.13183722865E+03  0.86903953680E+02  0.88825253148E+03  0.90217842564E+03  0.00000000000E+00 0. -1.
          2    1    1    2  501    0 -0.13664560844E+03 -0.10373812411E+03 -0.96758159278E+03  0.98267378076E+03  0.25500000000E-02 0. -1.
<mgrwt>
<rscale>  0 0.17156229E+03</rscale>
<asrwt>0</asrwt>
<pdfrwt beam="1">  1       11 0.10000000E+01 0.17541487E+03</pdfrwt>
<pdfrwt beam="2">  1        2 0.15116451E+00 0.17156229E+03</pdfrwt>
<totfact> 0.34406983E+01</totfact>
</mgrwt>
</event>
<event>
 5    1  0.2799727E-003  0.2041003E+03  0.7818608E-02  0.1149769E+00
         11   -1    0    0    0    0  0.00000000000E+00  0.00000000000E+00  0.10001004025E+04  0.10001004025E+04  0.51100000000E-03 0. -1.
          2   -1    0    0  501    0 -0.00000000000E+00 -0.00000000000E+00 -0.10596129082E+03  0.10596129085E+03  0.25500000000E-02 0. -1.
         11    1    1    2    0    0 -0.48353378969E+02  0.11429905362E+03  0.53941183616E+03  0.55350469908E+03  0.51100000000E-03 0. -1.
         22    1    1    2    0    0 -0.58115177852E+02  0.54964039472E+02  0.34305011242E+03  0.35225246509E+03  0.00000000000E+00 0. -1.
          2    1    1    2  501    0  0.10646855682E+03 -0.16926309309E+03  0.11677163127E+02  0.20030452920E+03  0.25500000000E-02 0. -1.
<mgrwt>
<rscale>  0 0.19996387E+03</rscale>
<asrwt>0</asrwt>
<pdfrwt beam="1">  1       11 0.10000000E+01 0.20410034E+03</pdfrwt>
<pdfrwt beam="2">  1        2 0.16303373E-01 0.19996387E+03</pdfrwt>
<totfact> 0.43073713E+02</totfact>
</mgrwt>
</event>
<event>
 5    1  0.2799727E-003  0.1314731E+03  0.7818608E-02  0.1225286E+00
         11   -1    0    0    0    0  0.00000000000E+00  0.00000000000E+00  0.99980253001E+03  0.99980253001E+03  0.51100000000E-03 0. -1.
          2   -1    0    0  501    0 -0.00000000000E+00 -0.00000000000E+00 -0.28234123825E+02  0.28234123940E+02  0.25500000000E-02 0. -1.
         11    1    1    2    0    0 -0.10554495307E+02 -0.69935158202E-01 -0.68535088809E+01  0.12584627382E+02  0.51100000000E-03 0. -1.
         22    1    1    2    0    0 -0.34266654492E+02 -0.12491896808E+03  0.61599357879E+03  0.62946567921E+03  0.00000000000E+00 0. -1.
          2    1    1    2  501    0  0.44821149799E+02  0.12498890324E+03  0.36242833628E+03  0.38598634736E+03  0.25500000000E-02 0. -1.
<mgrwt>
<rscale>  0 0.13147307E+03</rscale>
<asrwt>0</asrwt>
<pdfrwt beam="1">  1       11 0.10000000E+01 0.10554732E+02</pdfrwt>
<pdfrwt beam="2">  1        2 0.43428535E-02 0.13147307E+03</pdfrwt>
<totfact> 0.21985093E+03</totfact>
</mgrwt>
</event>
<event>
 5    1  0.2799727E-003  0.1116382E+03  0.7818608E-02  0.1257566E+00
         11   -1    0    0    0    0  0.00000000000E+00  0.00000000000E+00  0.10003314334E+04  0.10003314334E+04  0.51100000000E-03 0. -1.
         -2   -1    0    0    0  501 -0.00000000000E+00 -0.00000000000E+00 -0.50838741194E+02  0.50838741258E+02  0.25500000000E-02 0.  1.
         11    1    1    2    0    0  0.12760237568E+03 -0.76613184010E+01  0.72469022555E+03  0.73587837656E+03  0.51100000000E-03 0. -1.
         22    1    1    2    0    0 -0.27918557342E+02  0.57752113426E+02  0.18668508459E+03  0.19739826052E+03  0.00000000000E+00 0.  1.
         -2    1    1    2    0  501 -0.99683818333E+02 -0.50090795025E+02  0.38117382086E+02  0.11789353760E+03  0.25500000000E-02 0.  1.
<mgrwt>
<rscale>  0 0.11163815E+03</rscale>
<asrwt>0</asrwt>
<pdfrwt beam="1">  1       11 0.10000000E+01 0.64146336E+02</pdfrwt>
<pdfrwt beam="2">  1       -2 0.78239368E-02 0.11163815E+03</pdfrwt>
<totfact> 0.73734866E+02</totfact>
</mgrwt>
</event>
<event>
 5    1  0.2799727E-003  0.1826175E+03  0.7818608E-02  0.1167318E+00
         11   -1    0    0    0    0  0.00000000000E+00  0.00000000000E+00  0.10003696889E+04  0.10003696889E+04  0.51100000000E-03 0. -1.
          2   -1    0    0  501    0 -0.00000000000E+00 -0.00000000000E+00 -0.38260977592E+02  0.38260977677E+02  0.25500000000E-02 0. -1.
         11    1    1    2    0    0 -0.10454808567E+03  0.11086593343E+03  0.52961635777E+03  0.55110347833E+03  0.51100000000E-03 0. -1.
         22    1    1    2    0    0 -0.16060480085E+02  0.23426311643E+02  0.14730047002E+03  0.15001386458E+03  0.00000000000E+00 0. -1.
          2    1    1    2  501    0  0.12060856575E+03 -0.13429224507E+03  0.28519188348E+03  0.33751332363E+03  0.25500000000E-02 0. -1.
<mgrwt>
<rscale>  0 0.18050162E+03</rscale>
<asrwt>0</asrwt>
<pdfrwt beam="1">  1       11 0.10000000E+01 0.18261746E+03</pdfrwt>
<pdfrwt beam="2">  1        2 0.58884802E-02 0.18050162E+03</pdfrwt>
<totfact> 0.15134556E+03</totfact>
</mgrwt>
</event>
<event>
 5    1  0.2799727E-003  0.6683862E+02  0.7818608E-02  0.1492729E+00
         11   -1    0    0    0    0  0.00000000000E+00  0.00000000000E+00  0.10002443703E+04  0.10002443703E+04  0.51100000000E-03 0. -1.
          2   -1    0    0  501    0 -0.00000000000E+00 -0.00000000000E+00 -0.86261884499E+01  0.86261888268E+01  0.25500000000E-02 0. -1.
         11    1    1    2    0    0 -0.68658818133E+02 -0.45177117540E+02  0.35987674043E+03  0.36914261954E+03  0.51100000000E-03 0. -1.
         22    1    1    2    0    0  0.26623434302E+02 -0.74981353566E-01  0.75277107213E+02  0.79846451058E+02  0.00000000000E+00 0. -1.
          2    1    1    2  501    0  0.42035383832E+02  0.45252098894E+02  0.55646433417E+03  0.55988148849E+03  0.25500000000E-02 0. -1.
<mgrwt>
<rscale>  0 0.42183882E+02</rscale>
<asrwt>0</asrwt>
<pdfrwt beam="1">  1       11 0.10000000E+01 0.66838624E+02</pdfrwt>
<pdfrwt beam="2">  1        2 0.13274302E-02 0.42183882E+02</pdfrwt>
<totfact> 0.91609192E+03</totfact>
</mgrwt>
</event>
<event>
 5    1  0.2799727E-003  0.1494174E+03  0.7818608E-02  0.1201191E+00
         11   -1    0    0    0    0  0.00000000000E+00  0.00000000000E+00  0.10003138676E+04  0.10003138676E+04  0.51100000000E-03 0. -1.
          2   -1    0    0  501    0 -0.00000000000E+00 -0.00000000000E+00 -0.40734523458E+02  0.40734523538E+02  0.25500000000E-02 0. -1.
         11    1    1    2    0    0  0.63034753664E+02  0.14217966291E+03  0.33666002556E+03  0.37084822977E+03  0.51100000000E-03 0. -1.
         22    1    1    2    0    0  0.69319245786E+02 -0.58226255655E+02  0.22707017985E+03  0.24445106107E+03  0.00000000000E+00 0. -1.
          2    1    1    2  501    0 -0.13235399945E+03 -0.83953407251E+02  0.39584913875E+03  0.42574910031E+03  0.25500000000E-02 0. -1.
<mgrwt>
<rscale>  0 0.14941741E+03</rscale>
<asrwt>0</asrwt>
<pdfrwt beam="1">  1       11 0.10000000E+01 0.90528751E+02</pdfrwt>
<pdfrwt beam="2">  1        2 0.62688166E-02 0.14941741E+03</pdfrwt>
<totfact> 0.13770662E+03</totfact>
</mgrwt>
</event>
<event>
 5    1  0.2799727E-003  0.1324382E+03  0.7818608E-02  0.1223882E+00
         11   -1    0    0    0    0  0.00000000000E+00  0.00000000000E+00  0.99983123810E+03  0.99983123810E+03  0.51100000000E-03 0. -1.
          2   -1    0    0  501    0 -0.00000000000E+00 -0.00000000000E+00 -0.12087234433E+03  0.12087234436E+03  0.25500000000E-02 0. -1.
         11    1    1    2    0    0 -0.65672144424E+02  0.42172443702E+02 -0.42120957923E+02  0.88687770621E+02  0.51100000000E-03 0. -1.
         22    1    1    2    0    0  0.16579794803E+03 -0.11750381302E+03  0.87535524129E+03  0.89863390995E+03  0.00000000000E+00 0. -1.
          2    1    1    2  501    0 -0.10012580361E+03  0.75331369315E+02  0.45724610398E+02  0.13338190190E+03  0.25500000000E-02 0. -1.
<mgrwt>
<rscale>  0 0.13243825E+03</rscale>
<asrwt>0</asrwt>
<pdfrwt beam="1">  1       11 0.10000000E+01 0.78047112E+02</pdfrwt>
<pdfrwt beam="2">  1        2 0.18592606E-01 0.13243825E+03</pdfrwt>
<totfact> 0.36469201E+02</totfact>
</mgrwt>
</event>
<event>
 5    1  0.2799727E-003  0.4227333E+02  0.7818608E-02  0.1501190E+00
         11   -1    0    0    0    0  0.00000000000E+00  0.00000000000E+00  0.10001804792E+04  0.10001804792E+04  0.51100000000E-03 0. -1.
         -2   -1    0    0    0  501 -0.00000000000E+00 -0.00000000000E+00 -0.25002066607E+01  0.25002079611E+01  0.25500000000E-02 0.  1.
         11    1    1    2    0    0 -0.30724026861E+02 -0.83879262195E+01  0.17213533948E+03  0.17505684285E+03  0.51100000000E-03 0. -1.
         22    1    1    2    0    0 -0.99163426898E+01  0.31990969409E+01  0.54252072248E+02  0.55243600686E+02  0.00000000000E+00 0. -1.
         -2    1    1    2    0  501  0.40640369551E+02  0.51888292787E+01  0.77129286081E+03  0.77238024362E+03  0.25500000000E-02 0.  1.
<mgrwt>
<rscale>  0 0.40970277E+02</rscale>
<asrwt>0</asrwt>
<pdfrwt beam="1">  1       11 0.10000000E+01 0.42273326E+02</pdfrwt>
<pdfrwt beam="2">  1       -2 0.38471669E-03 0.40970277E+02</pdfrwt>
<totfact> 0.46764559E+04</totfact>
</mgrwt>
</event>
<event>
 5    1  0.2799727E-003  0.4798484E+03  0.7818608E-02  0.1020493E+00
         11   -1    0    0    0    0  0.00000000000E+00  0.00000000000E+00  0.99970592087E+03  0.99970592087E+03  0.51100000000E-03 0. -1.
          2   -1    0    0  501    0 -0.00000000000E+00 -0.00000000000E+00 -0.49953799322E+03  0.49953799323E+03  0.25500000000E-02 0. -1.
         11    1    1    2    0    0  0.25699662954E+03 -0.36240123076E+03  0.76462381917E+03  0.88432545168E+03  0.51100000000E-03 0. -1.
         22    1    1    2    0    0  0.59390770761E+01 -0.33296351181E+02  0.38659884051E+02  0.51366392450E+02  0.00000000000E+00 0. -1.
          2    1    1    2  501    0 -0.26293570661E+03  0.39569758194E+03 -0.30311577557E+03  0.56355206997E+03  0.25500000000E-02 0. -1.
<mgrwt>
<rscale>  0 0.47509132E+03</rscale>
<asrwt>0</asrwt>
<pdfrwt beam="1">  1       11 0.10000000E+01 0.47984843E+03</pdfrwt>
<pdfrwt beam="2">  1        2 0.76829396E-01 0.47509132E+03</pdfrwt>
<totfact> 0.76929358E+01</totfact>
</mgrwt>
</event>
<event>
 5    1  0.2799727E-003  0.9289214E+02  0.7818608E-02  0.1419079E+00
         11   -1    0    0    0    0  0.00000000000E+00  0.00000000000E+00  0.10000817806E+04  0.10000817806E+04  0.51100000000E-03 0.  1.
          2   -1    0    0  501    0 -0.00000000000E+00 -0.00000000000E+00 -0.16737239489E+04  0.16737239489E+04  0.25500000000E-02 0. -1.
         11    1    1    2    0    0  0.39333325126E+02 -0.68349312939E+02  0.37657199253E+03  0.38474043796E+03  0.51100000000E-03 0.  1.
         22    1    1    2    0    0 -0.11691068516E+02  0.11614834367E+03  0.61346357212E+03  0.62447151508E+03  0.00000000000E+00 0.  1.
          2    1    1    2  501    0 -0.27642256611E+02 -0.47799030728E+02 -0.16636777329E+04  0.16645937765E+04  0.25500000000E-02 0. -1.
<mgrwt>
<rscale>  0 0.55216317E+02</rscale>
<asrwt>0</asrwt>
<pdfrwt beam="1">  1       11 0.10000000E+01 0.92892142E+02</pdfrwt>
<pdfrwt beam="2">  1        2 0.25751704E+00 0.55216317E+02</pdfrwt>
<totfact> 0.15933910E+01</totfact>
</mgrwt>
</event>
<event>
 5    1  0.2799727E-003  0.5891434E+03  0.7818608E-02  0.1077340E+00
         11   -1    0    0    0    0  0.00000000000E+00  0.00000000000E+00  0.10003259147E+04  0.10003259147E+04  0.51100000000E-03 0.  1.
          2   -1    0    0  501    0 -0.00000000000E+00 -0.00000000000E+00 -0.55168686585E+03  0.55168686586E+03  0.25500000000E-02 0.  1.
         11    1    1    2    0    0 -0.33821269279E+03  0.47642026091E+03  0.39655644133E+02  0.58560794110E+03  0.51100000000E-03 0.  1.
         22    1    1    2    0    0  0.14343382968E+03  0.91015276489E+02 -0.84366987506E+02  0.18967032618E+03  0.00000000000E+00 0.  1.
          2    1    1    2  501    0  0.19477886311E+03 -0.56743553740E+03  0.49335039224E+03  0.77673451329E+03  0.25500000000E-02 0.  1.
<mgrwt>
<rscale>  0 0.31635401E+03</rscale>
<asrwt>0</asrwt>
<pdfrwt beam="1">  1       11 0.10000000E+01 0.58914337E+03</pdfrwt>
<pdfrwt beam="2">  1        2 0.84902562E-01 0.31635401E+03</pdfrwt>
<totfact> 0.69102043E+01</totfact>
</mgrwt>
</event>
<event>
 5    1  0.2799727E-003  0.1519284E+03  0.7818608E-02  0.1200363E+00
         11   -1    0    0    0    0  0.00000000000E+00  0.00000000000E+00  0.10004350323E+04  0.10004350323E+04  0.51100000000E-03 0. -1.
          2   -1    0    0  501    0 -0.00000000000E+00 -0.00000000000E+00 -0.35402301038E+02  0.35402301130E+02  0.25500000000E-02 0. -1.
         11    1    1    2    0    0 -0.33124898093E+02 -0.13782599391E+03  0.74441038435E+03  0.75778630483E+03  0.51100000000E-03 0. -1.
         22    1    1    2    0    0  0.38615284692E+01 -0.93833339627E+01  0.49078058884E+02  0.50116007644E+02  0.00000000000E+00 0. -1.
          2    1    1    2  501    0  0.29263369624E+02  0.14720932787E+03  0.17154428804E+03  0.22793502096E+03  0.25500000000E-02 0. -1.
<mgrwt>
<rscale>  0 0.15008974E+03</rscale>
<asrwt>0</asrwt>
<pdfrwt beam="1">  1       11 0.10000000E+01 0.15192839E+03</pdfrwt>
<pdfrwt beam="2">  1        2 0.54488771E-02 0.15008974E+03</pdfrwt>
<totfact> 0.16514745E+03</totfact>
</mgrwt>
</event>
<event>
 5    1  0.2799727E-003  0.5410039E+02  0.7818608E-02  0.1424402E+00
         11   -1    0    0    0    0  0.00000000000E+00  0.00000000000E+00  0.10003381111E+04  0.10003381111E+04  0.51100000000E-03 0. -1.
          2   -1    0    0  501    0 -0.00000000000E+00 -0.00000000000E+00 -0.99833251627E+01  0.99833254884E+01  0.25500000000E-02 0. -1.
         11    1    1    2    0    0  0.17385864313E+02 -0.50326737233E+02  0.77171849475E+02  0.93757896254E+02  0.51100000000E-03 0. -1.
         22    1    1    2    0    0 -0.42576208801E+01 -0.11264914442E+02  0.69677280306E+02  0.70710317662E+02  0.00000000000E+00 0. -1.
          2    1    1    2  501    0 -0.13128243433E+02  0.61591651675E+02  0.84350565620E+03  0.84585322272E+03  0.25500000000E-02 0. -1.
<mgrwt>
<rscale>  0 0.54100394E+02</rscale>
<asrwt>0</asrwt>
<pdfrwt beam="1">  1       11 0.10000000E+01 0.12042659E+02</pdfrwt>
<pdfrwt beam="2">  1        2 0.15364155E-02 0.54100394E+02</pdfrwt>
<totfact> 0.78632803E+03</totfact>
</mgrwt>
</event>
<event>
 5    1  0.2799727E-003  0.1137944E+03  0.7818608E-02  0.1256530E+00
         11   -1    0    0    0    0  0.00000000000E+00  0.00000000000E+00  0.10000846441E+04  0.10000846441E+04  0.51100000000E-03 0.  1.
          2   -1    0    0  501    0 -0.00000000000E+00 -0.00000000000E+00 -0.12776367222E+02  0.12776367477E+02  0.25500000000E-02 0.  1.
         11    1    1    2    0    0 -0.44655057065E+02  0.90460050647E+02  0.44973099239E+03  0.46090678060E+03  0.51100000000E-03 0.  1.
         22    1    1    2    0    0 -0.10769929696E+02  0.71067565317E+01  0.59963485943E+02  0.61336098836E+02  0.00000000000E+00 0. -1.
          2    1    1    2  501    0  0.55424986761E+02 -0.97566807178E+02  0.47761379856E+03  0.49061813215E+03  0.25500000000E-02 0.  1.
<mgrwt>
<rscale>  0 0.11221057E+03</rscale>
<asrwt>0</asrwt>
<pdfrwt beam="1">  1       11 0.10000000E+01 0.11379439E+03</pdfrwt>
<pdfrwt beam="2">  1        2 0.19657613E-02 0.11221057E+03</pdfrwt>
<totfact> 0.62531985E+03</totfact>
</mgrwt>
</event>
<event>
 5    1  0.2799727E-003  0.1917405E+03  0.7818608E-02  0.1160956E+00
         11   -1    0    0    0    0  0.00000000000E+00  0.00000000000E+00  0.10002321007E+04  0.10002321007E+04  0.51100000000E-03 0. -1.
         -2   -1    0    0    0  501 -0.00000000000E+00 -0.00000000000E+00 -0.10411739081E+03  0.10411739084E+03  0.25500000000E-02 0.  1.
         11    1    1    2    0    0  0.63690302124E+02 -0.12892041306E+03  0.63410356817E+03  0.65020324719E+03  0.51100000000E-03 0. -1.
         22    1    1    2    0    0  0.36989235129E+02 -0.28972089514E+02  0.26271624459E+03  0.26688463923E+03  0.00000000000E+00 0. -1.
         -2    1    1    2    0  501 -0.10067953725E+03  0.15789250258E+03 -0.70510282121E+00  0.18726160516E+03  0.25500000000E-02 0.  1.
<mgrwt>
<rscale>  0 0.18726028E+03</rscale>
<asrwt>0</asrwt>
<pdfrwt beam="1">  1       11 0.10000000E+01 0.19174049E+03</pdfrwt>
<pdfrwt beam="2">  1       -2 0.16021777E-01 0.18726028E+03</pdfrwt>
<totfact> 0.24253095E+02</totfact>
</mgrwt>
</event>
<event>
 5    1  0.2799727E-003  0.3697121E+03  0.7818608E-02  0.1058067E+00
         11   -1    0    0    0    0  0.00000000000E+00  0.00000000000E+00  0.10004626796E+04  0.10004626796E+04  0.51100000000E-03 0.  1.
          2   -1    0    0  501    0 -0.00000000000E+00 -0.00000000000E+00 -0.16483595637E+04  0.16483595637E+04  0.25500000000E-02 0.  1.
         11    1    1    2    0    0  0.16124109461E+03  0.22508266319E+02  0.32136533282E+03  0.36025128699E+03  0.51100000000E-03 0.  1.
         22    1    1    2    0    0  0.19537260097E+03  0.35549039056E+02  0.62400975155E+03  0.65484529273E+03  0.00000000000E+00 0.  1.
          2    1    1    2  501    0 -0.35661369558E+03 -0.58057305375E+02 -0.15932719684E+04  0.16337256636E+04  0.25500000000E-02 0.  1.
<mgrwt>
<rscale>  0 0.36130870E+03</rscale>
<asrwt>0</asrwt>
<pdfrwt beam="1">  1       11 0.10000000E+01 0.36971207E+03</pdfrwt>
<pdfrwt beam="2">  1        2 0.25371110E+00 0.36130870E+03</pdfrwt>
<totfact> 0.13925134E+01</totfact>
</mgrwt>
</event>
<event>
 5    1  0.2799727E-003  0.1080877E+04  0.7818608E-02  0.9269315E-01
         11   -1    0    0    0    0  0.00000000000E+00  0.00000000000E+00  0.10001632846E+04  0.10001632846E+04  0.51100000000E-03 0. -1.
          2   -1    0    0  501    0 -0.00000000000E+00 -0.00000000000E+00 -0.12647355363E+04  0.12647355363E+04  0.25500000000E-02 0. -1.
         11    1    1    2    0    0 -0.63643927402E+03 -0.13612910888E+03  0.41807802393E+02  0.65217633823E+03  0.51100000000E-03 0. -1.
         22    1    1    2    0    0 -0.32928595343E+03 -0.24051774437E+03  0.20552294281E+03  0.45663738842E+03  0.00000000000E+00 0. -1.
          2    1    1    2  501    0  0.96572522746E+03  0.37664685325E+03 -0.51190299685E+03  0.11560850943E+04  0.25500000000E-02 0. -1.
<mgrwt>
<rscale>  0 0.10365752E+04</rscale>
<asrwt>0</asrwt>
<pdfrwt beam="1">  1       11 0.10000000E+01 0.10808771E+04</pdfrwt>
<pdfrwt beam="2">  1        2 0.19460646E+00 0.10365752E+04</pdfrwt>
<totfact> 0.21240977E+01</totfact>
</mgrwt>
</event>
<event>
 5    1  0.2799727E-003  0.2104336E+03  0.7818608E-02  0.1148394E+00
         11   -1    0    0    0    0  0.00000000000E+00  0.00000000000E+00  0.99993617098E+03  0.99993617098E+03  0.51100000000E-03 0. -1.
          2   -1    0    0  501    0 -0.00000000000E+00 -0.00000000000E+00 -0.94060170292E+02  0.94060170327E+02  0.25500000000E-02 0. -1.
         11    1    1    2    0    0  0.98658377389E+01 -0.16640075298E+03  0.78409582175E+03  0.80161886395E+03  0.51100000000E-03 0. -1.
         22    1    1    2    0    0  0.10624730131E+02 -0.34158199041E+02  0.78377926047E+02  0.86155480055E+02  0.00000000000E+00 0. -1.
          2    1    1    2  501    0 -0.20490567870E+02  0.20055895202E+03  0.43402252885E+02  0.20622199730E+03  0.25500000000E-02 0. -1.
<mgrwt>
<rscale>  0 0.20160297E+03</rscale>
<asrwt>0</asrwt>
<pdfrwt beam="1">  1       11 0.10000000E+01 0.21043365E+03</pdfrwt>
<pdfrwt beam="2">  1        2 0.14469871E-01 0.20160297E+03</pdfrwt>
<totfact> 0.49600994E+02</totfact>
</mgrwt>
</event>
<event>
 5    1  0.2799727E-003  0.2020300E+03  0.7818608E-02  0.1151604E+00
         11   -1    0    0    0    0  0.00000000000E+00  0.00000000000E+00  0.10001533038E+04  0.10001533038E+04  0.51100000000E-03 0.  1.
          2   -1    0    0  501    0 -0.00000000000E+00 -0.00000000000E+00 -0.40000780837E+02  0.40000780918E+02  0.25500000000E-02 0.  1.
         11    1    1    2    0    0  0.34281882521E+02 -0.15624112951E+03  0.34140507611E+03  0.37701984565E+03  0.51100000000E-03 0.  1.
         22    1    1    2    0    0  0.21309511453E+02 -0.33592329923E+02  0.12734665779E+03  0.13341555815E+03  0.00000000000E+00 0.  1.
          2    1    1    2  501    0 -0.55591393974E+02  0.18983345944E+03  0.49140078904E+03  0.52971868089E+03  0.25500000000E-02 0.  1.
<mgrwt>
<rscale>  0 0.19780583E+03</rscale>
<asrwt>0</asrwt>
<pdfrwt beam="1">  1       11 0.10000000E+01 0.20202998E+03</pdfrwt>
<pdfrwt beam="2">  1        2 0.61549095E-02 0.19780583E+03</pdfrwt>
<totfact> 0.14380248E+03</totfact>
</mgrwt>
</event>
<event>
 5    1  0.2799727E-003  0.1511434E+03  0.7818608E-02  0.1202869E+00
         11   -1    0    0    0    0  0.00000000000E+00  0.00000000000E+00  0.10002505744E+04  0.10002505744E+04  0.51100000000E-03 0.  1.
          2   -1    0    0  501    0 -0.00000000000E+00 -0.00000000000E+00 -0.29868004692E+02  0.29868004801E+02  0.25500000000E-02 0.  1.
         11    1    1    2    0    0 -0.30005705126E+02  0.54483482846E+01  0.49127753104E+02  0.57823550258E+02  0.51100000000E-03 0.  1.
         22    1    1    2    0    0 -0.11437875154E+03 -0.38263555346E+02  0.18185180989E+03  0.21821246351E+03  0.00000000000E+00 0.  1.
          2    1    1    2  501    0  0.14438445667E+03  0.32815207061E+02  0.73940300670E+03  0.75408256541E+03  0.25500000000E-02 0.  1.
<mgrwt>
<rscale>  0 0.14806657E+03</rscale>
<asrwt>0</asrwt>
<pdfrwt beam="1">  1       11 0.10000000E+01 0.15114338E+03</pdfrwt>
<pdfrwt beam="2">  1        2 0.45962289E-02 0.14806657E+03</pdfrwt>
<totfact> 0.20612208E+03</totfact>
</mgrwt>
</event>
<event>
 5    1  0.2799727E-003  0.1446945E+03  0.7818608E-02  0.1212034E+00
         11   -1    0    0    0    0  0.00000000000E+00  0.00000000000E+00  0.10002355987E+04  0.10002355987E+04  0.51100000000E-03 0. -1.
          2   -1    0    0  501    0 -0.00000000000E+00 -0.00000000000E+00 -0.29597536216E+02  0.29597536326E+02  0.25500000000E-02 0. -1.
         11    1    1    2    0    0 -0.27486219304E+02 -0.11113865957E+03  0.15487230016E+03  0.19259471244E+03  0.51100000000E-03 0. -1.
         22    1    1    2    0    0 -0.21301176079E+02 -0.21116153488E+02  0.47720019390E+02  0.56363394956E+02  0.00000000000E+00 0. -1.
          2    1    1    2  501    0  0.48787395382E+02  0.13225481306E+03  0.76804574292E+03  0.78087502762E+03  0.25500000000E-02 0. -1.
<mgrwt>
<rscale>  0 0.14096647E+03</rscale>
<asrwt>0</asrwt>
<pdfrwt beam="1">  1       11 0.10000000E+01 0.14469448E+03</pdfrwt>
<pdfrwt beam="2">  1        2 0.45545398E-02 0.14096647E+03</pdfrwt>
<totfact> 0.20774680E+03</totfact>
</mgrwt>
</event>
<event>
 5    1  0.2799727E-003  0.7108977E+02  0.7818608E-02  0.1421895E+00
         11   -1    0    0    0    0  0.00000000000E+00  0.00000000000E+00  0.10000186049E+04  0.10000186049E+04  0.51100000000E-03 0.  1.
          2   -1    0    0  501    0 -0.00000000000E+00 -0.00000000000E+00 -0.91775192270E+01  0.91775195812E+01  0.25500000000E-02 0.  1.
         11    1    1    2    0    0  0.14342638663E+02  0.58394375607E+02  0.28537622269E+03  0.29164225150E+03  0.51100000000E-03 0.  1.
         22    1    1    2    0    0  0.40911990037E+02  0.93589909311E+01  0.17712361555E+03  0.18202790123E+03  0.00000000000E+00 0.  1.
          2    1    1    2  501    0 -0.55254628700E+02 -0.67753366538E+02  0.52834124740E+03  0.53552597171E+03  0.25500000000E-02 0.  1.
<mgrwt>
<rscale>  0 0.54621915E+02</rscale>
<asrwt>0</asrwt>
<pdfrwt beam="1">  1       11 0.10000000E+01 0.71089771E+02</pdfrwt>
<pdfrwt beam="2">  1        2 0.14119523E-02 0.54621915E+02</pdfrwt>
<totfact> 0.88168987E+03</totfact>
</mgrwt>
</event>
<event>
 5    1  0.2799727E-003  0.2928427E+03  0.7818608E-02  0.1090410E+00
         11   -1    0    0    0    0  0.00000000000E+00  0.00000000000E+00  0.99987520966E+03  0.99987520966E+03  0.51100000000E-03 0. -1.
          2   -1    0    0  501    0 -0.00000000000E+00 -0.00000000000E+00 -0.70500183196E+03  0.70500183196E+03  0.25500000000E-02 0. -1.
         11    1    1    2    0    0 -0.23777554906E+03  0.74401741070E+02  0.81460827417E+03  0.85185648506E+03  0.51100000000E-03 0. -1.
         22    1    1    2    0    0 -0.33409903277E+02  0.28022058247E+02  0.13238046554E+03  0.13937734766E+03  0.00000000000E+00 0.  1.
          2    1    1    2  501    0  0.27118545233E+03 -0.10242379932E+03 -0.65211536201E+03  0.71364320889E+03  0.25500000000E-02 0. -1.
<mgrwt>
<rscale>  0 0.28988305E+03</rscale>
<asrwt>0</asrwt>
<pdfrwt beam="1">  1       11 0.10000000E+01 0.29284268E+03</pdfrwt>
<pdfrwt beam="2">  1        2 0.10844828E+00 0.28988305E+03</pdfrwt>
<totfact> 0.51807723E+01</totfact>
</mgrwt>
</event>
<event>
 5    1  0.3729208E-003  0.1933996E+03  0.7818608E-02  0.1157354E+00
         11   -1    0    0    0    0  0.00000000000E+00  0.00000000000E+00  0.10005026277E+04  0.10005026277E+04  0.51100000000E-03 0. -1.
          2   -1    0    0  501    0 -0.00000000000E+00 -0.00000000000E+00 -0.42653926819E+03  0.42653926820E+03  0.25500000000E-02 0. -1.
         11    1    1    2    0    0  0.16132033367E+03 -0.73971664013E+02  0.88712583608E+03  0.90470343548E+03  0.51100000000E-03 0. -1.
         22    1    1    2    0    0  0.15809474106E+02  0.18946823687E+01  0.81895879928E+02  0.83429397948E+02  0.00000000000E+00 0.  1.
          2    1    1    2  501    0 -0.17712980777E+03  0.72076981644E+02 -0.39505835649E+03  0.43890906248E+03  0.25500000000E-02 0. -1.
<mgrwt>
<rscale>  0 0.19123300E+03</rscale>
<asrwt>0</asrwt>
<pdfrwt beam="1">  1       11 0.10000000E+01 0.19339961E+03</pdfrwt>
<pdfrwt beam="2">  1        2 0.65654407E-01 0.19123300E+03</pdfrwt>
<totfact> 0.92793055E+01</totfact>
</mgrwt>
</event>
<event>
 5    1  0.2799727E-003  0.3188375E+03  0.7818608E-02  0.1076186E+00
         11   -1    0    0    0    0  0.00000000000E+00  0.00000000000E+00  0.10000465165E+04  0.10000465165E+04  0.51100000000E-03 0. -1.
          2   -1    0    0  501    0 -0.00000000000E+00 -0.00000000000E+00 -0.96156637068E+03  0.96156637069E+03  0.25500000000E-02 0. -1.
         11    1    1    2    0    0  0.69484165069E+02  0.55240336298E+02  0.12418048223E+03  0.15264447621E+03  0.51100000000E-03 0. -1.
         22    1    1    2    0    0  0.12329229907E+03 -0.30910213461E+03  0.80064262750E+03  0.86704886691E+03  0.00000000000E+00 0. -1.
          2    1    1    2  501    0 -0.19277646414E+03  0.25386179831E+03 -0.88634296393E+03  0.94191954406E+03  0.25500000000E-02 0. -1.
<mgrwt>
<rscale>  0 0.31883752E+03</rscale>
<asrwt>0</asrwt>
<pdfrwt beam="1">  1       11 0.10000000E+01 0.88766795E+02</pdfrwt>
<pdfrwt beam="2">  1        2 0.14794016E+00 0.31883752E+03</pdfrwt>
<totfact> 0.34442735E+01</totfact>
</mgrwt>
</event>
<event>
 5    1  0.2799727E-003  0.1186086E+03  0.7818608E-02  0.1245410E+00
         11   -1    0    0    0    0  0.00000000000E+00  0.00000000000E+00  0.10002972478E+04  0.10002972478E+04  0.51100000000E-03 0. -1.
          2   -1    0    0  501    0 -0.00000000000E+00 -0.00000000000E+00 -0.31184565595E+03  0.31184565596E+03  0.25500000000E-02 0. -1.
         11    1    1    2    0    0 -0.12873436356E+03 -0.45521772042E+02  0.81763827438E+03  0.82896146824E+03  0.51100000000E-03 0. -1.
         22    1    1    2    0    0  0.10585980004E+02  0.37414838272E+02  0.16317560647E+03  0.16774448320E+03  0.00000000000E+00 0. -1.
          2    1    1    2  501    0  0.11814838356E+03  0.81069337694E+01 -0.29236228895E+03  0.31543695237E+03  0.25500000000E-02 0. -1.
<mgrwt>
<rscale>  0 0.11860862E+03</rscale>
<asrwt>0</asrwt>
<pdfrwt beam="1">  1       11 0.10000000E+01 0.38883584E+02</pdfrwt>
<pdfrwt beam="2">  1        2 0.47990514E-01 0.11860862E+03</pdfrwt>
<totfact> 0.12988311E+02</totfact>
</mgrwt>
</event>
<event>
 5    1  0.2799727E-003  0.1421726E+03  0.7818608E-02  0.1218088E+00
         11   -1    0    0    0    0  0.00000000000E+00  0.00000000000E+00  0.10003302546E+04  0.10003302546E+04  0.51100000000E-03 0.  1.
          2   -1    0    0  501    0 -0.00000000000E+00 -0.00000000000E+00 -0.20950507709E+02  0.20950507864E+02  0.25500000000E-02 0.  1.
         11    1    1    2    0    0 -0.77070398169E+02 -0.18422246694E+02  0.15834111741E+03  0.17706251695E+03  0.51100000000E-03 0.  1.
         22    1    1    2    0    0 -0.51169734459E+02 -0.28401511267E+02  0.20215840059E+03  0.21045903757E+03  0.00000000000E+00 0.  1.
          2    1    1    2  501    0  0.12824013263E+03  0.46823757962E+02  0.61888022890E+03  0.63375920794E+03  0.25500000000E-02 0.  1.
<mgrwt>
<rscale>  0 0.13652105E+03</rscale>
<asrwt>0</asrwt>
<pdfrwt beam="1">  1       11 0.10000000E+01 0.14217262E+03</pdfrwt>
<pdfrwt beam="2">  1        2 0.32242194E-02 0.13652105E+03</pdfrwt>
<totfact> 0.32771686E+03</totfact>
</mgrwt>
</event>
<event>
 5    1  0.2799727E-003  0.1865721E+03  0.7818608E-02  0.1171065E+00
         11   -1    0    0    0    0  0.00000000000E+00  0.00000000000E+00  0.10009047729E+04  0.10009047729E+04  0.51100000000E-03 0. -1.
          2   -1    0    0  501    0 -0.00000000000E+00 -0.00000000000E+00 -0.39153696754E+03  0.39153696755E+03  0.25500000000E-02 0. -1.
         11    1    1    2    0    0 -0.17775592488E+02  0.10846880103E+03  0.51773456806E+03  0.52927359224E+03  0.51100000000E-03 0. -1.
         22    1    1    2    0    0  0.33479895873E+02  0.67501691198E+02  0.45390343191E+03  0.46011488483E+03  0.00000000000E+00 0.  1.
          2    1    1    2  501    0 -0.15704303385E+02 -0.17597049223E+03 -0.36227019456E+03  0.40305326342E+03  0.25500000000E-02 0. -1.
<mgrwt>
<rscale>  0 0.17666986E+03</rscale>
<asrwt>0</asrwt>
<pdfrwt beam="1">  1       11 0.10000000E+01 0.18657212E+03</pdfrwt>
<pdfrwt beam="2">  1        2 0.60290955E-01 0.17666986E+03</pdfrwt>
<totfact> 0.10182040E+02</totfact>
</mgrwt>
</event>
<event>
 5    1  0.2799727E-003  0.2204298E+03  0.7818608E-02  0.1152344E+00
         11   -1    0    0    0    0  0.00000000000E+00  0.00000000000E+00  0.10002045052E+04  0.10002045052E+04  0.51100000000E-03 0. -1.
          2   -1    0    0  501    0 -0.00000000000E+00 -0.00000000000E+00 -0.99254790763E+02  0.99254790796E+02  0.25500000000E-02 0. -1.
         11    1    1    2    0    0 -0.10729573514E+03  0.10648425926E+03  0.53271875337E+03  0.55375133628E+03  0.51100000000E-03 0. -1.
         22    1    1    2    0    0  0.10844824127E+02  0.65224097484E+02  0.34045480266E+03  0.34681589606E+03  0.00000000000E+00 0.  1.
          2    1    1    2  501    0  0.96450911009E+02 -0.17170835675E+03  0.27776158436E+02  0.19889206368E+03  0.25500000000E-02 0. -1.
<mgrwt>
<rscale>  0 0.19694298E+03</rscale>
<asrwt>0</asrwt>
<pdfrwt beam="1">  1       11 0.10000000E+01 0.22042976E+03</pdfrwt>
<pdfrwt beam="2">  1        2 0.15273090E-01 0.19694298E+03</pdfrwt>
<totfact> 0.46485343E+02</totfact>
</mgrwt>
</event>
<event>
 5    1  0.2799727E-003  0.2134179E+03  0.7818608E-02  0.1147504E+00
         11   -1    0    0    0    0  0.00000000000E+00  0.00000000000E+00  0.10002822970E+04  0.10002822970E+04  0.51100000000E-03 0. -1.
          2   -1    0    0  501    0 -0.00000000000E+00 -0.00000000000E+00 -0.21809570281E+03  0.21809570283E+03  0.25500000000E-02 0. -1.
         11    1    1    2    0    0  0.13635035683E+03 -0.10709049267E+03  0.87176244001E+03  0.88883606207E+03  0.51100000000E-03 0. -1.
         22    1    1    2    0    0  0.15848244552E+02 -0.26743830985E+02  0.66717906368E+02  0.73604880146E+02  0.00000000000E+00 0.  1.
          2    1    1    2  501    0 -0.15219860138E+03  0.13383432365E+03 -0.15629375222E+03  0.25593705757E+03  0.25500000000E-02 0. -1.
<mgrwt>
<rscale>  0 0.20267225E+03</rscale>
<asrwt>0</asrwt>
<pdfrwt beam="1">  1       11 0.10000000E+01 0.21341792E+03</pdfrwt>
<pdfrwt beam="2">  1        2 0.33562656E-01 0.20267225E+03</pdfrwt>
<totfact> 0.19120953E+02</totfact>
</mgrwt>
</event>
<event>
 5    1  0.3181265E-003  0.1751452E+03  0.7818608E-02  0.1172586E+00
         11   -1    0    0    0    0  0.00000000000E+00  0.00000000000E+00  0.10003541097E+04  0.10003541097E+04  0.51100000000E-03 0. -1.
         -2   -1    0    0    0  501 -0.00000000000E+00 -0.00000000000E+00 -0.66037869125E+03  0.66037869126E+03  0.25500000000E-02 0.  1.
         11    1    1    2    0    0  0.14102066640E+03  0.81929361037E+02  0.95464140125E+03  0.96847274280E+03  0.51100000000E-03 0. -1.
         22    1    1    2    0    0  0.10690826634E+02  0.58842077876E+01  0.25638493882E+02  0.28394542503E+02  0.00000000000E+00 0.  1.
         -2    1    1    2    0  501 -0.15171149303E+03 -0.87813568824E+02 -0.64030447670E+03  0.66386551565E+03  0.25500000000E-02 0.  1.
<mgrwt>
<rscale>  0 0.17514523E+03</rscale>
<asrwt>0</asrwt>
<pdfrwt beam="1">  1       11 0.10000000E+01 0.12203183E+02</pdfrwt>
<pdfrwt beam="2">  1       -2 0.10163270E+00 0.17514523E+03</pdfrwt>
<totfact> 0.68016454E+00</totfact>
</mgrwt>
</event>
<event>
 5    1  0.2799727E-003  0.5292598E+02  0.7818608E-02  0.1430170E+00
         11   -1    0    0    0    0  0.00000000000E+00  0.00000000000E+00  0.10000814329E+04  0.10000814329E+04  0.51100000000E-03 0.  1.
          2   -1    0    0  501    0 -0.00000000000E+00 -0.00000000000E+00 -0.50024764239E+01  0.50024770738E+01  0.25500000000E-02 0.  1.
         11    1    1    2    0    0 -0.42736071550E+01  0.19223329636E+02  0.63068482673E+02  0.66071428222E+02  0.51100000000E-03 0.  1.
         22    1    1    2    0    0 -0.34802527050E+02 -0.44907561335E+02  0.30399910855E+03  0.30926261163E+03  0.00000000000E+00 0.  1.
          2    1    1    2  501    0  0.39076134205E+02  0.25684231699E+02  0.62801136529E+03  0.62974987015E+03  0.25500000000E-02 0.  1.
<mgrwt>
<rscale>  0 0.52925985E+02</rscale>
<asrwt>0</asrwt>
<pdfrwt beam="1">  1       11 0.10000000E+01 0.19692651E+02</pdfrwt>
<pdfrwt beam="2">  1        2 0.76967446E-03 0.52925985E+02</pdfrwt>
<totfact> 0.19827018E+04</totfact>
</mgrwt>
</event>
<event>
 5    1  0.2799727E-003  0.2882861E+02  0.7818608E-02  0.1611410E+00
         11   -1    0    0    0    0  0.00000000000E+00  0.00000000000E+00  0.10003740197E+04  0.10003740197E+04  0.51100000000E-03 0. -1.
          2   -1    0    0  501    0 -0.00000000000E+00 -0.00000000000E+00 -0.25352430227E+01  0.25352443051E+01  0.25500000000E-02 0. -1.
         11    1    1    2    0    0 -0.10628178500E+02 -0.12866543619E+02  0.74926076240E+02  0.76762119720E+02  0.51100000000E-03 0. -1.
         22    1    1    2    0    0  0.14747487034E+02 -0.23519904322E+02  0.16257755480E+03  0.16493069938E+03  0.00000000000E+00 0. -1.
          2    1    1    2  501    0 -0.41193085342E+01  0.36386447941E+02  0.76033514565E+03  0.76121644492E+03  0.25500000000E-02 0. -1.
<mgrwt>
<rscale>  0 0.28828612E+02</rscale>
<asrwt>0</asrwt>
<pdfrwt beam="1">  1       11 0.10000000E+01 0.16688511E+02</pdfrwt>
<pdfrwt beam="2">  1        2 0.39018336E-03 0.28828612E+02</pdfrwt>
<totfact> 0.42925823E+04</totfact>
</mgrwt>
</event>
<event>
 5    1  0.2799727E-003  0.2130626E+03  0.7818608E-02  0.1141828E+00
         11   -1    0    0    0    0  0.00000000000E+00  0.00000000000E+00  0.10003810956E+04  0.10003810956E+04  0.51100000000E-03 0. -1.
          2   -1    0    0  501    0 -0.00000000000E+00 -0.00000000000E+00 -0.37981502037E+03  0.37981502038E+03  0.25500000000E-02 0.  1.
         11    1    1    2    0    0 -0.89257241467E+02  0.14854612473E+03  0.78574523503E+03  0.80462934368E+03  0.51100000000E-03 0. -1.
         22    1    1    2    0    0 -0.33432884637E+02  0.21479300643E+02  0.17308697261E+03  0.17759002849E+03  0.00000000000E+00 0. -1.
          2    1    1    2  501    0  0.12269012610E+03 -0.17002542537E+03 -0.33826613238E+03  0.39797674384E+03  0.25500000000E-02 0.  1.
<mgrwt>
<rscale>  0 0.20967001E+03</rscale>
<asrwt>0</asrwt>
<pdfrwt beam="1">  1       11 0.10000000E+01 0.21306265E+03</pdfrwt>
<pdfrwt beam="2">  1        2 0.58455347E-01 0.20967001E+03</pdfrwt>
<totfact> 0.10517061E+02</totfact>
</mgrwt>
</event>
<event>
 5    1  0.2799727E-003  0.1584810E+03  0.7818608E-02  0.1197651E+00
         11   -1    0    0    0    0  0.00000000000E+00  0.00000000000E+00  0.10000919521E+04  0.10000919521E+04  0.51100000000E-03 0.  1.
          2   -1    0    0  501    0 -0.00000000000E+00 -0.00000000000E+00 -0.24147437861E+02  0.24147437996E+02  0.25500000000E-02 0.  1.
         11    1    1    2    0    0 -0.11200048765E+03  0.37115867011E+02  0.35402074256E+03  0.37316535609E+03  0.51100000000E-03 0.  1.
         22    1    1    2    0    0 -0.38255951368E+02 -0.12130647231E+02  0.14154236264E+03  0.14712209500E+03  0.00000000000E+00 0.  1.
          2    1    1    2  501    0  0.15025643902E+03 -0.24985219780E+02  0.48038140908E+03  0.50395193904E+03  0.25500000000E-02 0.  1.
<mgrwt>
<rscale>  0 0.15231959E+03</rscale>
<asrwt>0</asrwt>
<pdfrwt beam="1">  1       11 0.10000000E+01 0.15848104E+03</pdfrwt>
<pdfrwt beam="2">  1        2 0.37153319E-02 0.15231959E+03</pdfrwt>
<totfact> 0.27395396E+03</totfact>
</mgrwt>
</event>
<event>
 5    1  0.2799727E-003  0.3342183E+02  0.7818608E-02  0.1594437E+00
         11   -1    0    0    0    0  0.00000000000E+00  0.00000000000E+00  0.10001980112E+04  0.10001980112E+04  0.51100000000E-03 0.  1.
          2   -1    0    0  501    0 -0.00000000000E+00 -0.00000000000E+00 -0.35844721243E+01  0.35844730313E+01  0.25500000000E-02 0.  1.
         11    1    1    2    0    0 -0.24008401895E+02  0.15227324597E+02  0.12604502281E+03  0.12921154186E+03  0.51100000000E-03 0.  1.
         22    1    1    2    0    0 -0.11826668081E+02 -0.24859801585E+02  0.12132674708E+03  0.12441084908E+03  0.00000000000E+00 0.  1.
          2    1    1    2  501    0  0.35835069976E+02  0.96324769885E+01  0.74924176917E+03  0.75016009326E+03  0.25500000000E-02 0.  1.
<mgrwt>
<rscale>  0 0.30332979E+02</rscale>
<asrwt>0</asrwt>
<pdfrwt beam="1">  1       11 0.10000000E+01 0.33421826E+02</pdfrwt>
<pdfrwt beam="2">  1        2 0.55156650E-03 0.30332979E+02</pdfrwt>
<totfact> 0.27467838E+04</totfact>
</mgrwt>
</event>
<event>
 5    1  0.2799727E-003  0.5305131E+03  0.7818608E-02  0.1006108E+00
         11   -1    0    0    0    0  0.00000000000E+00  0.00000000000E+00  0.10012705580E+04  0.10012705580E+04  0.51100000000E-03 0. -1.
          2   -1    0    0  501    0 -0.00000000000E+00 -0.00000000000E+00 -0.13875049033E+04  0.13875049033E+04  0.25500000000E-02 0. -1.
         11    1    1    2    0    0  0.22307663964E+03 -0.43096013178E+03  0.68542786040E+03  0.83982210864E+03  0.51100000000E-03 0. -1.
         22    1    1    2    0    0 -0.77543129741E+02 -0.83304412787E+02  0.16574492035E+03  0.20105705852E+03  0.00000000000E+00 0. -1.
          2    1    1    2  501    0 -0.14553350990E+03  0.51426454457E+03 -0.12374071260E+04  0.13478962941E+04  0.25500000000E-02 0. -1.
<mgrwt>
<rscale>  0 0.53051313E+03</rscale>
<asrwt>0</asrwt>
<pdfrwt beam="1">  1       11 0.10000000E+01 0.11380932E+03</pdfrwt>
<pdfrwt beam="2">  1        2 0.21373350E+00 0.53051313E+03</pdfrwt>
<totfact> 0.18775786E+01</totfact>
</mgrwt>
</event>
<event>
 5    1  0.2799727E-003  0.5709938E+02  0.7818608E-02  0.1414835E+00
         11   -1    0    0    0    0  0.00000000000E+00  0.00000000000E+00  0.10004258598E+04  0.10004258598E+04  0.51100000000E-03 0.  1.
         -2   -1    0    0    0  501 -0.00000000000E+00 -0.00000000000E+00 -0.37695326403E+01  0.37695335028E+01  0.25500000000E-02 0.  1.
         11    1    1    2    0    0 -0.14905358413E+02  0.30657904520E+01  0.91618329570E+02  0.92873500494E+02  0.51100000000E-03 0.  1.
         22    1    1    2    0    0 -0.41025245968E+02 -0.77787062465E+01  0.21583117056E+03  0.21983328516E+03  0.00000000000E+00 0.  1.
         -2    1    1    2    0  501  0.55930604381E+02  0.47129157945E+01  0.68920682704E+03  0.69148860766E+03  0.25500000000E-02 0.  1.
<mgrwt>
<rscale>  0 0.56128817E+02</rscale>
<asrwt>0</asrwt>
<pdfrwt beam="1">  1       11 0.10000000E+01 0.57099375E+02</pdfrwt>
<pdfrwt beam="2">  1       -2 0.58017512E-03 0.56128817E+02</pdfrwt>
<totfact> 0.28531177E+04</totfact>
</mgrwt>
</event>
<event>
 5    1  0.2799727E-003  0.9037026E+03  0.7818608E-02  0.9441578E-01
         11   -1    0    0    0    0  0.00000000000E+00  0.00000000000E+00  0.10004036122E+04  0.10004036122E+04  0.51100000000E-03 0. -1.
          2   -1    0    0  501    0 -0.00000000000E+00 -0.00000000000E+00 -0.15137686237E+04  0.15137686237E+04  0.25500000000E-02 0. -1.
         11    1    1    2    0    0  0.16532133826E+03 -0.19075963062E+03  0.12643654460E+03  0.28232354023E+03  0.51100000000E-03 0. -1.
         22    1    1    2    0    0  0.21552793912E+03 -0.61066566366E+03  0.47784745527E+03  0.80479999740E+03  0.00000000000E+00 0. -1.
          2    1    1    2  501    0 -0.38084927738E+03  0.80142529428E+03 -0.11176490114E+04  0.14270486982E+04  0.25500000000E-02 0. -1.
<mgrwt>
<rscale>  0 0.88731543E+03</rscale>
<asrwt>0</asrwt>
<pdfrwt beam="1">  1       11 0.10000000E+01 0.90370262E+03</pdfrwt>
<pdfrwt beam="2">  1        2 0.23298147E+00 0.88731543E+03</pdfrwt>
<totfact> 0.15443492E+01</totfact>
</mgrwt>
</event>
<event>
 5    1  0.2799727E-003  0.1477740E+03  0.7818608E-02  0.1560394E+00
         11   -1    0    0    0    0  0.00000000000E+00  0.00000000000E+00  0.10002719151E+04  0.10002719151E+04  0.51100000000E-03 0. -1.
          2   -1    0    0  501    0 -0.00000000000E+00 -0.00000000000E+00 -0.88451717777E+03  0.88451717777E+03  0.25500000000E-02 0. -1.
         11    1    1    2    0    0 -0.11493994642E+03  0.71070889202E+02  0.48381624161E+03  0.50233496615E+03  0.51100000000E-03 0. -1.
         22    1    1    2    0    0  0.13461423617E+03 -0.98439948004E+02  0.49314930319E+03  0.52058395209E+03  0.00000000000E+00 0.  1.
          2    1    1    2  501    0 -0.19674289750E+02  0.27369058802E+02 -0.86121080745E+03  0.86187017464E+03  0.25500000000E-02 0. -1.
<mgrwt>
<rscale>  0 0.33706721E+02</rscale>
<asrwt>0</asrwt>
<pdfrwt beam="1">  1       11 0.10000000E+01 0.14777398E+03</pdfrwt>
<pdfrwt beam="2">  1        2 0.13611656E+00 0.33706721E+02</pdfrwt>
<totfact> 0.42525184E+01</totfact>
</mgrwt>
</event>
<event>
 5    1  0.2799727E-003  0.1048942E+03  0.7818608E-02  0.1274477E+00
         11   -1    0    0    0    0  0.00000000000E+00  0.00000000000E+00  0.10001122901E+04  0.10001122901E+04  0.51100000000E-03 0.  1.
         -2   -1    0    0    0  501 -0.00000000000E+00 -0.00000000000E+00 -0.11238810022E+02  0.11238810311E+02  0.25500000000E-02 0. -1.
         11    1    1    2    0    0 -0.32482061872E+02  0.33446727548E+01  0.93314910691E+02  0.98863257770E+02  0.51100000000E-03 0.  1.
         22    1    1    2    0    0 -0.70329618672E+02 -0.45908435497E+01  0.30425443985E+03  0.31231089523E+03  0.00000000000E+00 0.  1.
         -2    1    1    2    0  501  0.10281168054E+03  0.12461707950E+01  0.59130412950E+03  0.60017694738E+03  0.25500000000E-02 0. -1.
<mgrwt>
<rscale>  0 0.10281923E+03</rscale>
<asrwt>0</asrwt>
<pdfrwt beam="1">  1       11 0.10000000E+01 0.10489421E+03</pdfrwt>
<pdfrwt beam="2">  1       -2 0.17292418E-02 0.10281923E+03</pdfrwt>
<totfact> 0.67863231E+03</totfact>
</mgrwt>
</event>
<event>
 5    1  0.2799727E-003  0.1340028E+03  0.7818608E-02  0.1221634E+00
         11   -1    0    0    0    0  0.00000000000E+00  0.00000000000E+00  0.10001873595E+04  0.10001873595E+04  0.51100000000E-03 0.  1.
          2   -1    0    0  501    0 -0.00000000000E+00 -0.00000000000E+00 -0.17660997933E+02  0.17660998117E+02  0.25500000000E-02 0.  1.
         11    1    1    2    0    0 -0.32720836532E+02 -0.12733429562E+03  0.51233198908E+03  0.52893169976E+03  0.51100000000E-03 0.  1.
         22    1    1    2    0    0  0.29415638242E+02  0.98745240628E+02  0.32660271645E+03  0.34246932229E+03  0.00000000000E+00 0.  1.
          2    1    1    2  501    0  0.33051982898E+01  0.28589054994E+02  0.14359165607E+03  0.14644733558E+03  0.25500000000E-02 0.  1.
<mgrwt>
<rscale>  0 0.13400280E+03</rscale>
<asrwt>0</asrwt>
<pdfrwt beam="1">  1       11 0.10000000E+01 0.13147120E+03</pdfrwt>
<pdfrwt beam="2">  1        2 0.27175856E-02 0.13400280E+03</pdfrwt>
<totfact> 0.41163270E+03</totfact>
</mgrwt>
</event>
<event>
 5    1  0.2799727E-003  0.1614512E+03  0.7818608E-02  0.1187068E+00
         11   -1    0    0    0    0  0.00000000000E+00  0.00000000000E+00  0.10004448109E+04  0.10004448109E+04  0.51100000000E-03 0.  1.
          2   -1    0    0  501    0 -0.00000000000E+00 -0.00000000000E+00 -0.93391209501E+02  0.93391209536E+02  0.25500000000E-02 0. -1.
         11    1    1    2    0    0  0.93079478824E+02  0.13681910302E+03  0.88412124309E+03  0.89947408457E+03  0.51100000000E-03 0.  1.
         22    1    1    2    0    0 -0.10749396972E+02  0.16893299023E+01  0.31176957414E+02  0.33021296830E+02  0.00000000000E+00 0.  1.
          2    1    1    2  501    0 -0.82330081852E+02 -0.13850843292E+03 -0.82445991497E+01  0.16134063899E+03  0.25500000000E-02 0. -1.
<mgrwt>
<rscale>  0 0.16145121E+03</rscale>
<asrwt>0</asrwt>
<pdfrwt beam="1">  1       11 0.10000000E+01 0.10881331E+02</pdfrwt>
<pdfrwt beam="2">  1        2 0.14374269E-01 0.16145121E+03</pdfrwt>
<totfact> 0.49547185E+02</totfact>
</mgrwt>
</event>
<event>
 5    1  0.2799727E-003  0.1376745E+03  0.7818608E-02  0.1216493E+00
         11   -1    0    0    0    0  0.00000000000E+00  0.00000000000E+00  0.10002780644E+04  0.10002780644E+04  0.51100000000E-03 0. -1.
          2   -1    0    0  501    0 -0.00000000000E+00 -0.00000000000E+00 -0.17539889868E+03  0.17539889870E+03  0.25500000000E-02 0.  1.
         11    1    1    2    0    0 -0.83362139001E+02 -0.17183163816E+02  0.18939179935E+03  0.20763853448E+03  0.51100000000E-03 0. -1.
         22    1    1    2    0    0  0.90768258873E+02 -0.12073154205E+03  0.76435784592E+03  0.77913920366E+03  0.00000000000E+00 0. -1.
          2    1    1    2  501    0 -0.74061198719E+01  0.13791470587E+03 -0.12887047952E+03  0.18889922500E+03  0.25500000000E-02 0.  1.
<mgrwt>
<rscale>  0 0.13767452E+03</rscale>
<asrwt>0</asrwt>
<pdfrwt beam="1">  1       11 0.10000000E+01 0.85114672E+02</pdfrwt>
<pdfrwt beam="2">  1        2 0.26991949E-01 0.13767452E+03</pdfrwt>
<totfact> 0.24080468E+02</totfact>
</mgrwt>
</event>
<event>
 5    1  0.2799727E-003  0.5757029E+02  0.7818608E-02  0.1413539E+00
         11   -1    0    0    0    0  0.00000000000E+00  0.00000000000E+00  0.10000966067E+04  0.10000966067E+04  0.51100000000E-03 0. -1.
         -2   -1    0    0    0  501 -0.00000000000E+00 -0.00000000000E+00 -0.55948174853E+01  0.55948180664E+01  0.25500000000E-02 0. -1.
         11    1    1    2    0    0 -0.24430141125E+02  0.22900523550E+02  0.89105228260E+02  0.95189324390E+02  0.51100000000E-03 0. -1.
         22    1    1    2    0    0 -0.11986342381E+02  0.20181980447E+02  0.85392773750E+02  0.88560208600E+02  0.00000000000E+00 0. -1.
         -2    1    1    2    0  501  0.36416483507E+02 -0.43082503997E+02  0.82000378724E+03  0.82194189181E+03  0.25500000000E-02 0. -1.
<mgrwt>
<rscale>  0 0.56411545E+02</rscale>
<asrwt>0</asrwt>
<pdfrwt beam="1">  1       11 0.10000000E+01 0.57570289E+02</pdfrwt>
<pdfrwt beam="2">  1       -2 0.86082433E-03 0.56411545E+02</pdfrwt>
<totfact> 0.16514314E+04</totfact>
</mgrwt>
</event>
<event>
 5    1  0.2799727E-003  0.1452108E+03  0.7818608E-02  0.1206485E+00
         11   -1    0    0    0    0  0.00000000000E+00  0.00000000000E+00  0.10000780057E+04  0.10000780057E+04  0.51100000000E-03 0. -1.
          2   -1    0    0  501    0 -0.00000000000E+00 -0.00000000000E+00 -0.28526034543E+03  0.28526034545E+03  0.25500000000E-02 0. -1.
         11    1    1    2    0    0 -0.38353159539E+02  0.64947597628E+02  0.36559353440E+03  0.37329316587E+03  0.51100000000E-03 0. -1.
         22    1    1    2    0    0  0.61264947795E+02  0.80256662051E+02  0.60697841560E+03  0.61531887882E+03  0.00000000000E+00 0. -1.
          2    1    1    2  501    0 -0.22911788256E+02 -0.14520425968E+03 -0.25775428973E+03  0.29672630647E+03  0.25500000000E-02 0. -1.
<mgrwt>
<rscale>  0 0.14521080E+03</rscale>
<asrwt>0</asrwt>
<pdfrwt beam="1">  1       11 0.10000000E+01 0.75426489E+02</pdfrwt>
<pdfrwt beam="2">  1        2 0.43889629E-01 0.14521080E+03</pdfrwt>
<totfact> 0.14290514E+02</totfact>
</mgrwt>
</event>
<event>
 5    1  0.2799727E-003  0.1091673E+03  0.7818608E-02  0.1338542E+00
         11   -1    0    0    0    0  0.00000000000E+00  0.00000000000E+00  0.99996807303E+03  0.99996807303E+03  0.51100000000E-03 0. -1.
         -2   -1    0    0    0  501 -0.00000000000E+00 -0.00000000000E+00 -0.27724312401E+02  0.27724312518E+02  0.25500000000E-02 0.  1.
         11    1    1    2    0    0  0.92574175445E+02 -0.24666537741E+02  0.43948256071E+03  0.44980366519E+03  0.51100000000E-03 0. -1.
         22    1    1    2    0    0  0.23141771137E+02 -0.48741693020E+02  0.42063101797E+02  0.68414901466E+02  0.00000000000E+00 0.  1.
         -2    1    1    2    0  501 -0.11571594658E+03  0.73408230762E+02  0.49069809812E+03  0.50947381890E+03  0.25500000000E-02 0.  1.
<mgrwt>
<rscale>  0 0.76748138E+02</rscale>
<asrwt>0</asrwt>
<pdfrwt beam="1">  1       11 0.10000000E+01 0.10916732E+03</pdfrwt>
<pdfrwt beam="2">  1       -2 0.42651425E-02 0.76748138E+02</pdfrwt>
<totfact> 0.17694471E+03</totfact>
</mgrwt>
</event>
<event>
 5    1  0.2799727E-003  0.2984692E+03  0.7818608E-02  0.1090468E+00
         11   -1    0    0    0    0  0.00000000000E+00  0.00000000000E+00  0.99964071612E+03  0.99964071612E+03  0.51100000000E-03 0.  1.
          2   -1    0    0  501    0 -0.00000000000E+00 -0.00000000000E+00 -0.49934778917E+03  0.49934778918E+03  0.25500000000E-02 0.  1.
         11    1    1    2    0    0 -0.90882135867E+02  0.22396304189E+03  0.67111250994E+03  0.71330989601E+03  0.51100000000E-03 0.  1.
         22    1    1    2    0    0 -0.22024941413E+02  0.42908077308E+02  0.26112390696E+03  0.26554076133E+03  0.00000000000E+00 0.  1.
          2    1    1    2  501    0  0.11290707728E+03 -0.26687111920E+03 -0.43194348995E+03  0.52013784796E+03  0.25500000000E-02 0.  1.
<mgrwt>
<rscale>  0 0.28977267E+03</rscale>
<asrwt>0</asrwt>
<pdfrwt beam="1">  1       11 0.10000000E+01 0.29846922E+03</pdfrwt>
<pdfrwt beam="2">  1        2 0.76795133E-01 0.28977267E+03</pdfrwt>
<totfact> 0.77597863E+01</totfact>
</mgrwt>
</event>
<event>
 5    1  0.2799727E-003  0.1337326E+03  0.7818608E-02  0.1228075E+00
         11   -1    0    0    0    0  0.00000000000E+00  0.00000000000E+00  0.99994323172E+03  0.99994323172E+03  0.51100000000E-03 0. -1.
          2   -1    0    0  501    0 -0.00000000000E+00 -0.00000000000E+00 -0.18731012920E+02  0.18731013093E+02  0.25500000000E-02 0. -1.
         11    1    1    2    0    0 -0.96568606097E+02  0.27834533928E+02  0.54837951152E+03  0.55751264166E+03  0.51100000000E-03 0. -1.
         22    1    1    2    0    0 -0.29198435341E+02  0.33844641353E+01  0.88420303061E+02  0.93178072620E+02  0.00000000000E+00 0.  1.
          2    1    1    2  501    0  0.12576704144E+03 -0.31218998064E+02  0.34441240422E+03  0.36798353053E+03  0.25500000000E-02 0. -1.
<mgrwt>
<rscale>  0 0.12958385E+03</rscale>
<asrwt>0</asrwt>
<pdfrwt beam="1">  1       11 0.10000000E+01 0.13373258E+03</pdfrwt>
<pdfrwt beam="2">  1        2 0.28815306E-02 0.12958385E+03</pdfrwt>
<totfact> 0.37905756E+03</totfact>
</mgrwt>
</event>
<event>
 5    1  0.2799727E-003  0.3034717E+03  0.7818608E-02  0.1091816E+00
         11   -1    0    0    0    0  0.00000000000E+00  0.00000000000E+00  0.99987618673E+03  0.99987618673E+03  0.51100000000E-03 0. -1.
          2   -1    0    0  501    0 -0.00000000000E+00 -0.00000000000E+00 -0.45285334192E+03  0.45285334192E+03  0.25500000000E-02 0. -1.
         11    1    1    2    0    0  0.17362578595E+03 -0.13140796056E+03  0.70080357570E+03  0.73385258557E+03  0.51100000000E-03 0. -1.
         22    1    1    2    0    0  0.84597317607E+02  0.56725246859E+01  0.22677401653E+03  0.24210604754E+03  0.00000000000E+00 0. -1.
          2    1    1    2  501    0 -0.25822310356E+03  0.12573543588E+03 -0.38055474742E+03  0.47677089554E+03  0.25500000000E-02 0. -1.
<mgrwt>
<rscale>  0 0.28720824E+03</rscale>
<asrwt>0</asrwt>
<pdfrwt beam="1">  1       11 0.10000000E+01 0.30347169E+03</pdfrwt>
<pdfrwt beam="2">  1        2 0.69661117E-01 0.28720824E+03</pdfrwt>
<totfact> 0.86553742E+01</totfact>
</mgrwt>
</event>
<event>
 5    1  0.2799727E-003  0.1671726E+03  0.7818608E-02  0.1183288E+00
         11   -1    0    0    0    0  0.00000000000E+00  0.00000000000E+00  0.10002801543E+04  0.10002801543E+04  0.51100000000E-03 0.  1.
          2   -1    0    0  501    0 -0.00000000000E+00 -0.00000000000E+00 -0.31038977204E+02  0.31038977309E+02  0.25500000000E-02 0.  1.
         11    1    1    2    0    0  0.13779528570E+03  0.64332772530E+02  0.62949857805E+03  0.64760690712E+03  0.51100000000E-03 0.  1.
         22    1    1    2    0    0  0.10117099138E+02  0.85335694871E+01  0.30765328065E+02  0.33491534962E+02  0.00000000000E+00 0. -1.
          2    1    1    2  501    0 -0.14791238484E+03 -0.72866342017E+02  0.30897727103E+03  0.35022068957E+03  0.25500000000E-02 0.  1.
<mgrwt>
<rscale>  0 0.16488656E+03</rscale>
<asrwt>0</asrwt>
<pdfrwt beam="1">  1       11 0.10000000E+01 0.16717255E+03</pdfrwt>
<pdfrwt beam="2">  1        2 0.47765649E-02 0.16488656E+03</pdfrwt>
<totfact> 0.19767622E+03</totfact>
</mgrwt>
</event>
<event>
 5    1  0.2799727E-003  0.2009371E+03  0.7818608E-02  0.1149688E+00
         11   -1    0    0    0    0  0.00000000000E+00  0.00000000000E+00  0.10002470603E+04  0.10002470603E+04  0.51100000000E-03 0. -1.
          2   -1    0    0  501    0 -0.00000000000E+00 -0.00000000000E+00 -0.44266192950E+02  0.44266193024E+02  0.25500000000E-02 0. -1.
         11    1    1    2    0    0  0.41133182065E+02  0.18512237231E+03  0.60577588252E+03  0.63476503625E+03  0.51100000000E-03 0. -1.
         22    1    1    2    0    0 -0.19268884199E+01  0.11058851990E+02  0.31646247131E+02  0.33578208168E+02  0.00000000000E+00 0. -1.
          2    1    1    2  501    0 -0.39206293645E+02 -0.19618122430E+03  0.31855873765E+03  0.37617000886E+03  0.25500000000E-02 0. -1.
<mgrwt>
<rscale>  0 0.20006051E+03</rscale>
<asrwt>0</asrwt>
<pdfrwt beam="1">  1       11 0.10000000E+01 0.20093711E+03</pdfrwt>
<pdfrwt beam="2">  1        2 0.68118659E-02 0.20006051E+03</pdfrwt>
<totfact> 0.12621949E+03</totfact>
</mgrwt>
</event>
<event>
 5    1  0.2799727E-003  0.3622414E+03  0.7818608E-02  0.1071060E+00
         11   -1    0    0    0    0  0.00000000000E+00  0.00000000000E+00  0.10000277856E+04  0.10000277856E+04  0.51100000000E-03 0. -1.
          2   -1    0    0  501    0 -0.00000000000E+00 -0.00000000000E+00 -0.44162460002E+03  0.44162460003E+03  0.25500000000E-02 0. -1.
         11    1    1    2    0    0  0.12679396690E+03  0.57673571417E+02  0.21309164106E+03  0.25458004315E+03  0.51100000000E-03 0. -1.
         22    1    1    2    0    0  0.20036331050E+03 -0.13151795533E+02  0.68472444351E+03  0.71355867976E+03  0.00000000000E+00 0. -1.
          2    1    1    2  501    0 -0.32715727740E+03 -0.44521775884E+02 -0.33941289904E+03  0.47351366266E+03  0.25500000000E-02 0. -1.
<mgrwt>
<rscale>  0 0.33017279E+03</rscale>
<asrwt>0</asrwt>
<pdfrwt beam="1">  1       11 0.10000000E+01 0.36224145E+03</pdfrwt>
<pdfrwt beam="2">  1        2 0.67944132E-01 0.33017279E+03</pdfrwt>
<totfact> 0.88836742E+01</totfact>
</mgrwt>
</event>
<event>
 5    1  0.2799727E-003  0.1497819E+03  0.7818608E-02  0.1200741E+00
         11   -1    0    0    0    0  0.00000000000E+00  0.00000000000E+00  0.10004546301E+04  0.10004546301E+04  0.51100000000E-03 0. -1.
          2   -1    0    0  501    0 -0.00000000000E+00 -0.00000000000E+00 -0.42393702268E+02  0.42393702345E+02  0.25500000000E-02 0. -1.
         11    1    1    2    0    0 -0.58580497261E+02 -0.46437973333E+02  0.10273019611E+03  0.12704980606E+03  0.51100000000E-03 0. -1.
         22    1    1    2    0    0  0.17574934020E+03  0.92820878945E+02  0.57691614950E+03  0.61019323964E+03  0.00000000000E+00 0. -1.
          2    1    1    2  501    0 -0.11716884294E+03 -0.46382905612E+02  0.27841458225E+03  0.30560528678E+03  0.25500000000E-02 0. -1.
<mgrwt>
<rscale>  0 0.14978193E+03</rscale>
<asrwt>0</asrwt>
<pdfrwt beam="1">  1       11 0.10000000E+01 0.74754034E+02</pdfrwt>
<pdfrwt beam="2">  1        2 0.65250730E-02 0.14978193E+03</pdfrwt>
<totfact> 0.13082207E+03</totfact>
</mgrwt>
</event>
<event>
 5    1  0.2799727E-003  0.1073213E+03  0.7818608E-02  0.1265612E+00
         11   -1    0    0    0    0  0.00000000000E+00  0.00000000000E+00  0.10001962075E+04  0.10001962075E+04  0.51100000000E-03 0. -1.
          2   -1    0    0  501    0 -0.00000000000E+00 -0.00000000000E+00 -0.29135993128E+02  0.29135993240E+02  0.25500000000E-02 0. -1.
         11    1    1    2    0    0 -0.31645111965E+02 -0.96609105244E+02  0.61390596637E+03  0.62226623553E+03  0.51100000000E-03 0. -1.
         22    1    1    2    0    0  0.39442102025E+02 -0.12955630007E+02  0.25066080977E+03  0.25407551892E+03  0.00000000000E+00 0. -1.
          2    1    1    2  501    0 -0.77969900606E+01  0.10956473525E+03  0.10649343823E+03  0.15299044630E+03  0.25500000000E-02 0. -1.
<mgrwt>
<rscale>  0 0.10732128E+03</rscale>
<asrwt>0</asrwt>
<pdfrwt beam="1">  1       11 0.10000000E+01 0.41515392E+02</pdfrwt>
<pdfrwt beam="2">  1        2 0.44833399E-02 0.10732128E+03</pdfrwt>
<totfact> 0.20704624E+03</totfact>
</mgrwt>
</event>
<event>
 5    1  0.2799727E-003  0.2729832E+03  0.7818608E-02  0.1107883E+00
         11   -1    0    0    0    0  0.00000000000E+00  0.00000000000E+00  0.10004088445E+04  0.10004088445E+04  0.51100000000E-03 0.  1.
          2   -1    0    0  501    0 -0.00000000000E+00 -0.00000000000E+00 -0.86056674792E+03  0.86056674793E+03  0.25500000000E-02 0.  1.
         11    1    1    2    0    0 -0.13123536126E+03 -0.14668803590E+03  0.71414890623E+03  0.74077578267E+03  0.51100000000E-03 0.  1.
         22    1    1    2    0    0 -0.79938866727E+00 -0.75865255718E+02  0.24736738753E+03  0.25874079783E+03  0.00000000000E+00 0.  1.
          2    1    1    2  501    0  0.13203474993E+03  0.22255329162E+03 -0.82167419722E+03  0.86145901190E+03  0.25500000000E-02 0.  1.
<mgrwt>
<rscale>  0 0.25877238E+03</rscale>
<asrwt>0</asrwt>
<pdfrwt beam="1">  1       11 0.10000000E+01 0.27298317E+03</pdfrwt>
<pdfrwt beam="2">  1        2 0.13244901E+00 0.25877238E+03</pdfrwt>
<totfact> 0.40368568E+01</totfact>
</mgrwt>
</event>
<event>
 5    1  0.2799727E-003  0.6406666E+02  0.7818608E-02  0.1458854E+00
         11   -1    0    0    0    0  0.00000000000E+00  0.00000000000E+00  0.99999852288E+03  0.99999852288E+03  0.51100000000E-03 0.  1.
          2   -1    0    0  501    0 -0.00000000000E+00 -0.00000000000E+00 -0.79504566340E+01  0.79504570430E+01  0.25500000000E-02 0.  1.
         11    1    1    2    0    0 -0.34044165430E+02  0.42636601659E+02  0.17109247055E+03  0.17958150929E+03  0.51100000000E-03 0.  1.
         22    1    1    2    0    0  0.22570165342E+02  0.27186926772E+02  0.17384277114E+03  0.17739743636E+03  0.00000000000E+00 0.  1.
          2    1    1    2  501    0  0.11474000088E+02 -0.69823528431E+02  0.64711282456E+03  0.65097003427E+03  0.25500000000E-02 0.  1.
<mgrwt>
<rscale>  0 0.47579150E+02</rscale>
<asrwt>0</asrwt>
<pdfrwt beam="1">  1       11 0.10000000E+01 0.64066665E+02</pdfrwt>
<pdfrwt beam="2">  1        2 0.12231454E-02 0.47579150E+02</pdfrwt>
<totfact> 0.10434809E+04</totfact>
</mgrwt>
</event>
<event>
 5    1  0.2799727E-003  0.4824149E+02  0.7818608E-02  0.1461061E+00
         11   -1    0    0    0    0  0.00000000000E+00  0.00000000000E+00  0.10001288612E+04  0.10001288612E+04  0.51100000000E-03 0. -1.
          2   -1    0    0  501    0 -0.00000000000E+00 -0.00000000000E+00 -0.68975040386E+01  0.68975045100E+01  0.25500000000E-02 0. -1.
         11    1    1    2    0    0 -0.76764166249E+01  0.28883192668E+02  0.48965526755E+02  0.57365398993E+02  0.51100000000E-03 0. -1.
         22    1    1    2    0    0 -0.10831116935E+02  0.14536164388E+02  0.37339259919E+02  0.41507029531E+02  0.00000000000E+00 0.  1.
          2    1    1    2  501    0  0.18507533560E+02 -0.43419357056E+02  0.90692657044E+03  0.90815393714E+03  0.25500000000E-02 0. -1.
<mgrwt>
<rscale>  0 0.47199252E+02</rscale>
<asrwt>0</asrwt>
<pdfrwt beam="1">  1       11 0.10000000E+01 0.48241485E+02</pdfrwt>
<pdfrwt beam="2">  1        2 0.10612912E-02 0.47199252E+02</pdfrwt>
<totfact> 0.12597616E+04</totfact>
</mgrwt>
</event>
<event>
 5    1  0.2799727E-003  0.6202207E+02  0.7818608E-02  0.1540245E+00
         11   -1    0    0    0    0  0.00000000000E+00  0.00000000000E+00  0.99998210819E+03  0.99998210819E+03  0.51100000000E-03 0.  1.
          2   -1    0    0  501    0 -0.00000000000E+00 -0.00000000000E+00 -0.10354458293E+02  0.10354458607E+02  0.25500000000E-02 0.  1.
         11    1    1    2    0    0  0.88585945221E+01  0.48595158776E+02  0.22185805006E+03  0.22729047171E+03  0.51100000000E-03 0.  1.
         22    1    1    2    0    0  0.98808152697E+01  0.18358137781E+02  0.11939650413E+02  0.24025132365E+02  0.00000000000E+00 0. -1.
          2    1    1    2  501    0 -0.18739409792E+02 -0.66953296557E+02  0.75582994943E+03  0.75902096273E+03  0.25500000000E-02 0.  1.
<mgrwt>
<rscale>  0 0.35959062E+02</rscale>
<asrwt>0</asrwt>
<pdfrwt beam="1">  1       11 0.10000000E+01 0.62022066E+02</pdfrwt>
<pdfrwt beam="2">  1        2 0.15929651E-02 0.35959062E+02</pdfrwt>
<totfact> 0.69997632E+03</totfact>
</mgrwt>
</event>
<event>
 5    1  0.2799727E-003  0.1714503E+03  0.7818608E-02  0.1176344E+00
         11   -1    0    0    0    0  0.00000000000E+00  0.00000000000E+00  0.10002590367E+04  0.10002590367E+04  0.51100000000E-03 0. -1.
         -2   -1    0    0    0  501 -0.00000000000E+00 -0.00000000000E+00 -0.78441892471E+02  0.78441892513E+02  0.25500000000E-02 0.  1.
         11    1    1    2    0    0 -0.28524279775E+02  0.18921608969E+03  0.55950002447E+03  0.59131771537E+03  0.51100000000E-03 0. -1.
         22    1    1    2    0    0 -0.38782102746E+02 -0.34782781793E+02  0.30502928460E+03  0.30944588843E+03  0.00000000000E+00 0.  1.
         -2    1    1    2    0  501  0.67306382521E+02 -0.15443330790E+03  0.57287835186E+02  0.17793732543E+03  0.25500000000E-02 0.  1.
<mgrwt>
<rscale>  0 0.17145032E+03</rscale>
<asrwt>0</asrwt>
<pdfrwt beam="1">  1       11 0.10000000E+01 0.52095042E+02</pdfrwt>
<pdfrwt beam="2">  1       -2 0.12071109E-01 0.17145032E+03</pdfrwt>
<totfact> 0.38343290E+02</totfact>
</mgrwt>
</event>
<event>
 5    1  0.2799727E-003  0.2654174E+03  0.7818608E-02  0.1111847E+00
         11   -1    0    0    0    0  0.00000000000E+00  0.00000000000E+00  0.10002144703E+04  0.10002144703E+04  0.51100000000E-03 0. -1.
         -2   -1    0    0    0  501 -0.00000000000E+00 -0.00000000000E+00 -0.10323823877E+03  0.10323823880E+03  0.25500000000E-02 0.  1.
         11    1    1    2    0    0  0.13616100478E+03 -0.17993606989E+03  0.61349098232E+03  0.65367269627E+03  0.51100000000E-03 0. -1.
         22    1    1    2    0    0  0.34586996021E+02 -0.58341178449E+01  0.16917710423E+03  0.17277496873E+03  0.00000000000E+00 0. -1.
         -2    1    1    2    0  501 -0.17074800080E+03  0.18577018774E+03  0.11430814496E+03  0.27700504407E+03  0.25500000000E-02 0.  1.
<mgrwt>
<rscale>  0 0.25232012E+03</rscale>
<asrwt>0</asrwt>
<pdfrwt beam="1">  1       11 0.10000000E+01 0.26541742E+03</pdfrwt>
<pdfrwt beam="2">  1       -2 0.15886212E-01 0.25232012E+03</pdfrwt>
<totfact> 0.24866890E+02</totfact>
</mgrwt>
</event>
<event>
 5    1  0.2799727E-003  0.9405739E+02  0.7818608E-02  0.1445622E+00
         11   -1    0    0    0    0  0.00000000000E+00  0.00000000000E+00  0.10001016475E+04  0.10001016475E+04  0.51100000000E-03 0. -1.
          2   -1    0    0  501    0 -0.00000000000E+00 -0.00000000000E+00 -0.41932456687E+02  0.41932456765E+02  0.25500000000E-02 0. -1.
         11    1    1    2    0    0  0.81299881736E+01 -0.11300570713E+03  0.63875850214E+03  0.64872861090E+03  0.51100000000E-03 0. -1.
         22    1    1    2    0    0  0.24808558821E+02  0.75457559127E+02  0.33234874699E+03  0.34170893674E+03  0.00000000000E+00 0. -1.
          2    1    1    2  501    0 -0.32938546994E+02  0.37548148006E+02 -0.12938058309E+02  0.51596556630E+02  0.25500000000E-02 0. -1.
<mgrwt>
<rscale>  0 0.49948086E+02</rscale>
<asrwt>0</asrwt>
<pdfrwt beam="1">  1       11 0.10000000E+01 0.94057389E+02</pdfrwt>
<pdfrwt beam="2">  1        2 0.64518027E-02 0.49948086E+02</pdfrwt>
<totfact> 0.12129535E+03</totfact>
</mgrwt>
</event>
<event>
 5    1  0.2799727E-003  0.1486162E+03  0.7818608E-02  0.1209609E+00
         11   -1    0    0    0    0  0.00000000000E+00  0.00000000000E+00  0.10000927178E+04  0.10000927178E+04  0.51100000000E-03 0.  1.
         -2   -1    0    0    0  501 -0.00000000000E+00 -0.00000000000E+00 -0.23016490266E+02  0.23016490407E+02  0.25500000000E-02 0.  1.
         11    1    1    2    0    0  0.28086308640E+02  0.54603537777E+01  0.15477762460E+03  0.15740002946E+03  0.51100000000E-03 0.  1.
         22    1    1    2    0    0  0.10631157299E+03 -0.53722787650E+02  0.48528554194E+03  0.49969024973E+03  0.00000000000E+00 0.  1.
         -2    1    1    2    0  501 -0.13439788163E+03  0.48262433872E+02  0.33701306100E+03  0.36601892902E+03  0.25500000000E-02 0.  1.
<mgrwt>
<rscale>  0 0.14280075E+03</rscale>
<asrwt>0</asrwt>
<pdfrwt beam="1">  1       11 0.10000000E+01 0.14861621E+03</pdfrwt>
<pdfrwt beam="2">  1       -2 0.35413267E-02 0.14280075E+03</pdfrwt>
<totfact> 0.24819121E+03</totfact>
</mgrwt>
</event>
<event>
 5    1  0.2799727E-003  0.1015698E+03  0.7818608E-02  0.1286347E+00
         11   -1    0    0    0    0  0.00000000000E+00  0.00000000000E+00  0.10002303218E+04  0.10002303218E+04  0.51100000000E-03 0. -1.
          2   -1    0    0  501    0 -0.00000000000E+00 -0.00000000000E+00 -0.99354002476E+01  0.99354005748E+01  0.25500000000E-02 0. -1.
         11    1    1    2    0    0 -0.34565097697E+02 -0.83613012617E+02  0.41273214987E+03  0.42253249507E+03  0.51100000000E-03 0. -1.
         22    1    1    2    0    0 -0.10839360221E+02 -0.23042698977E+01  0.53203045123E+02  0.54344874644E+02  0.00000000000E+00 0.  1.
          2    1    1    2  501    0  0.45404457918E+02  0.85917282515E+02  0.52435972654E+03  0.53328835263E+03  0.25500000000E-02 0. -1.
<mgrwt>
<rscale>  0 0.97176871E+02</rscale>
<asrwt>0</asrwt>
<pdfrwt beam="1">  1       11 0.10000000E+01 0.10156978E+03</pdfrwt>
<pdfrwt beam="2">  1        2 0.15288751E-02 0.97176871E+02</pdfrwt>
<totfact> 0.86360989E+03</totfact>
</mgrwt>
</event>
<event>
 5    1  0.2799727E-003  0.2227563E+03  0.7818608E-02  0.1131845E+00
         11   -1    0    0    0    0  0.00000000000E+00  0.00000000000E+00  0.10000714416E+04  0.10000714416E+04  0.51100000000E-03 0. -1.
          2   -1    0    0  501    0 -0.00000000000E+00 -0.00000000000E+00 -0.15841046438E+03  0.15841046440E+03  0.25500000000E-02 0. -1.
         11    1    1    2    0    0 -0.50110897238E+02 -0.58195543845E+02  0.18136746408E+03  0.19695679824E+03  0.51100000000E-03 0. -1.
         22    1    1    2    0    0  0.58765651212E+02 -0.17086006128E+03  0.70517374047E+03  0.72795368435E+03  0.00000000000E+00 0. -1.
          2    1    1    2  501    0 -0.86547539743E+01  0.22905560512E+03 -0.44880227365E+02  0.23357142338E+03  0.25500000000E-02 0. -1.
<mgrwt>
<rscale>  0 0.22275632E+03</rscale>
<asrwt>0</asrwt>
<pdfrwt beam="1">  1       11 0.10000000E+01 0.76797287E+02</pdfrwt>
<pdfrwt beam="2">  1        2 0.24372581E-01 0.22275632E+03</pdfrwt>
<totfact> 0.27256797E+02</totfact>
</mgrwt>
</event>
<event>
 5    1  0.3050172E-003  0.3724225E+03  0.7818608E-02  0.1055885E+00
         11   -1    0    0    0    0  0.00000000000E+00  0.00000000000E+00  0.10004397649E+04  0.10004397649E+04  0.51100000000E-03 0.  1.
          2   -1    0    0  501    0 -0.00000000000E+00 -0.00000000000E+00 -0.70902037394E+03  0.70902037395E+03  0.25500000000E-02 0.  1.
         11    1    1    2    0    0  0.32866515156E+03  0.14481060818E+03  0.86963349442E+03  0.94087900854E+03  0.51100000000E-03 0.  1.
         22    1    1    2    0    0  0.29821832774E+01  0.12110778191E+02  0.44282224298E+02  0.46005214425E+02  0.00000000000E+00 0. -1.
          2    1    1    2  501    0 -0.33164733484E+03 -0.15692138637E+03 -0.62249632773E+03  0.72257591591E+03  0.25500000000E-02 0.  1.
<mgrwt>
<rscale>  0 0.36689818E+03</rscale>
<asrwt>0</asrwt>
<pdfrwt beam="1">  1       11 0.10000000E+01 0.37242251E+03</pdfrwt>
<pdfrwt beam="2">  1        2 0.10912802E+00 0.36689818E+03</pdfrwt>
<totfact> 0.51044541E+01</totfact>
</mgrwt>
</event>
<event>
 5    1  0.2799727E-003  0.1382451E+03  0.7818608E-02  0.1217977E+00
         11   -1    0    0    0    0  0.00000000000E+00  0.00000000000E+00  0.99975178192E+03  0.99975178192E+03  0.51100000000E-03 0.  1.
          2   -1    0    0  501    0 -0.00000000000E+00 -0.00000000000E+00 -0.31462102362E+02  0.31462102465E+02  0.25500000000E-02 0.  1.
         11    1    1    2    0    0 -0.10474056075E+02 -0.20610679855E+02  0.16382020973E+02  0.28335076957E+02  0.51100000000E-03 0.  1.
         22    1    1    2    0    0 -0.62581522504E+02 -0.94813139206E+02  0.14356887010E+03  0.18307921451E+03  0.00000000000E+00 0.  1.
          2    1    1    2  501    0  0.73055578579E+02  0.11542381906E+03  0.80833878848E+03  0.81979959291E+03  0.25500000000E-02 0.  1.
<mgrwt>
<rscale>  0 0.13660079E+03</rscale>
<asrwt>0</asrwt>
<pdfrwt beam="1">  1       11 0.10000000E+01 0.13824513E+03</pdfrwt>
<pdfrwt beam="2">  1        2 0.48391219E-02 0.13660079E+03</pdfrwt>
<totfact> 0.19136423E+03</totfact>
</mgrwt>
</event>
<event>
 5    1  0.2799727E-003  0.7543267E+02  0.7818608E-02  0.1352187E+00
         11   -1    0    0    0    0  0.00000000000E+00  0.00000000000E+00  0.10002459516E+04  0.10002459516E+04  0.51100000000E-03 0. -1.
          2   -1    0    0  501    0 -0.00000000000E+00 -0.00000000000E+00 -0.71428636720E+01  0.71428641271E+01  0.25500000000E-02 0. -1.
         11    1    1    2    0    0  0.53010456736E+02 -0.26451159438E+00  0.15392451457E+03  0.16279721950E+03  0.51100000000E-03 0. -1.
         22    1    1    2    0    0  0.19147014887E+02 -0.53872941887E+01  0.10607409247E+03  0.10792286232E+03  0.00000000000E+00 0. -1.
          2    1    1    2  501    0 -0.72157471623E+02  0.56518057831E+01  0.73310448089E+03  0.73666873391E+03  0.25500000000E-02 0. -1.
<mgrwt>
<rscale>  0 0.72378475E+02</rscale>
<asrwt>0</asrwt>
<pdfrwt beam="1">  1       11 0.10000000E+01 0.75432666E+02</pdfrwt>
<pdfrwt beam="2">  1        2 0.10991724E-02 0.72378475E+02</pdfrwt>
<totfact> 0.12938476E+04</totfact>
</mgrwt>
</event>
<event>
 5    1  0.2799727E-003  0.1765944E+03  0.7818608E-02  0.1305625E+00
         11   -1    0    0    0    0  0.00000000000E+00  0.00000000000E+00  0.10001550215E+04  0.10001550215E+04  0.51100000000E-03 0.  1.
          2   -1    0    0  501    0 -0.00000000000E+00 -0.00000000000E+00 -0.50663948295E+02  0.50663948359E+02  0.25500000000E-02 0.  1.
         11    1    1    2    0    0  0.14288211516E+03 -0.99862312322E+02  0.64450052321E+03  0.66765912311E+03  0.51100000000E-03 0.  1.
         22    1    1    2    0    0 -0.19394798801E+02 -0.40292912386E+02  0.68336134962E+02  0.81667033439E+02  0.00000000000E+00 0.  1.
          2    1    1    2  501    0 -0.12348731636E+03  0.14015522471E+03  0.23665441503E+03  0.30149281330E+03  0.25500000000E-02 0.  1.
<mgrwt>
<rscale>  0 0.88864518E+02</rscale>
<asrwt>0</asrwt>
<pdfrwt beam="1">  1       11 0.10000000E+01 0.17659437E+03</pdfrwt>
<pdfrwt beam="2">  1        2 0.77956617E-02 0.88864518E+02</pdfrwt>
<totfact> 0.10065695E+03</totfact>
</mgrwt>
</event>
<event>
 5    1  0.2799727E-003  0.3941109E+03  0.7818608E-02  0.1046363E+00
         11   -1    0    0    0    0  0.00000000000E+00  0.00000000000E+00  0.10004346819E+04  0.10004346819E+04  0.51100000000E-03 0. -1.
         -2   -1    0    0    0  501 -0.00000000000E+00 -0.00000000000E+00 -0.45250614885E+03  0.45250614886E+03  0.25500000000E-02 0.  1.
         11    1    1    2    0    0  0.20427864334E+03  0.32238772611E+03  0.84210026890E+03  0.92455203907E+03  0.51100000000E-03 0. -1.
         22    1    1    2    0    0  0.10435688558E+02  0.63288964959E+01  0.21416448391E+02  0.24650005846E+02  0.00000000000E+00 0. -1.
         -2    1    1    2    0  501 -0.21471433189E+03 -0.32871662260E+03 -0.31558818426E+03  0.50373878583E+03  0.25500000000E-02 0.  1.
<mgrwt>
<rscale>  0 0.39262815E+03</rscale>
<asrwt>0</asrwt>
<pdfrwt beam="1">  1       11 0.10000000E+01 0.39411090E+03</pdfrwt>
<pdfrwt beam="2">  1       -2 0.69646590E-01 0.39262815E+03</pdfrwt>
<totfact> 0.15543767E+01</totfact>
</mgrwt>
</event>
<event>
 5    1  0.2799727E-003  0.2974070E+03  0.7818608E-02  0.1526210E+00
         11   -1    0    0    0    0  0.00000000000E+00  0.00000000000E+00  0.99992528899E+03  0.99992528899E+03  0.51100000000E-03 0.  1.
         -2   -1    0    0    0  501 -0.00000000000E+00 -0.00000000000E+00 -0.23438784024E+03  0.23438784025E+03  0.25500000000E-02 0.  1.
         11    1    1    2    0    0 -0.22489310166E+03 -0.17785499041E+03  0.32152585428E+03  0.43079946583E+03  0.51100000000E-03 0.  1.
         22    1    1    2    0    0  0.25902195233E+03  0.16194433153E+03  0.58371832579E+03  0.65882123689E+03  0.00000000000E+00 0.  1.
         -2    1    1    2    0  501 -0.34128850677E+02  0.15910658875E+02 -0.13970673132E+03  0.14469242653E+03  0.25500000000E-02 0.  1.
<mgrwt>
<rscale>  0 0.37655378E+02</rscale>
<asrwt>0</asrwt>
<pdfrwt beam="1">  1       11 0.10000000E+01 0.29740703E+03</pdfrwt>
<pdfrwt beam="2">  1       -2 0.36056973E-01 0.37655378E+02</pdfrwt>
<totfact> 0.56960834E+01</totfact>
</mgrwt>
</event>
<event>
 5    1  0.2799727E-003  0.3067773E+03  0.7818608E-02  0.1086501E+00
         11   -1    0    0    0    0  0.00000000000E+00  0.00000000000E+00  0.99995205542E+03  0.99995205542E+03  0.51100000000E-03 0. -1.
          2   -1    0    0  501    0 -0.00000000000E+00 -0.00000000000E+00 -0.88814573060E+03  0.88814573060E+03  0.25500000000E-02 0. -1.
         11    1    1    2    0    0 -0.89783186087E+02 -0.21430413274E+03  0.66595638022E+03  0.70532629482E+03  0.51100000000E-03 0. -1.
         22    1    1    2    0    0 -0.55849651799E+02 -0.45103549020E+02  0.28424000794E+03  0.29316530466E+03  0.00000000000E+00 0.  1.
          2    1    1    2  501    0  0.14563283789E+03  0.25940768176E+03 -0.83839006334E+03  0.88960618655E+03  0.25500000000E-02 0. -1.
<mgrwt>
<rscale>  0 0.29749163E+03</rscale>
<asrwt>0</asrwt>
<pdfrwt beam="1">  1       11 0.10000000E+01 0.30677728E+03</pdfrwt>
<pdfrwt beam="2">  1        2 0.13663125E+00 0.29749163E+03</pdfrwt>
<totfact> 0.38516953E+01</totfact>
</mgrwt>
</event>
<event>
 5    1  0.2799727E-003  0.2123818E+03  0.7818608E-02  0.1147794E+00
         11   -1    0    0    0    0  0.00000000000E+00  0.00000000000E+00  0.10001397165E+04  0.10001397165E+04  0.51100000000E-03 0. -1.
          2   -1    0    0  501    0 -0.00000000000E+00 -0.00000000000E+00 -0.43586772095E+03  0.43586772096E+03  0.25500000000E-02 0. -1.
         11    1    1    2    0    0  0.17394962489E+03  0.20386272521E+02  0.79878207005E+03  0.81775721797E+03  0.51100000000E-03 0. -1.
         22    1    1    2    0    0  0.21986966316E+02  0.30047549820E+02  0.16568593644E+03  0.16981787736E+03  0.00000000000E+00 0. -1.
          2    1    1    2  501    0 -0.19593659121E+03 -0.50433822340E+02 -0.40019601098E+03  0.44843234208E+03  0.25500000000E-02 0. -1.
<mgrwt>
<rscale>  0 0.20232330E+03</rscale>
<asrwt>0</asrwt>
<pdfrwt beam="1">  1       11 0.10000000E+01 0.21238181E+03</pdfrwt>
<pdfrwt beam="2">  1        2 0.67065939E-01 0.20232330E+03</pdfrwt>
<totfact> 0.90614177E+01</totfact>
</mgrwt>
</event>
<event>
 5    1  0.2799727E-003  0.2884231E+03  0.7818608E-02  0.1091175E+00
         11   -1    0    0    0    0  0.00000000000E+00  0.00000000000E+00  0.10001183793E+04  0.10001183793E+04  0.51100000000E-03 0.  1.
          2   -1    0    0  501    0 -0.00000000000E+00 -0.00000000000E+00 -0.15221840004E+03  0.15221840006E+03  0.25500000000E-02 0.  1.
         11    1    1    2    0    0  0.75857190801E+02  0.27832722244E+03  0.76643886333E+03  0.81893155231E+03  0.51100000000E-03 0.  1.
         22    1    1    2    0    0 -0.20021987978E+02  0.47589067184E+01  0.35773255535E+02  0.41270485911E+02  0.00000000000E+00 0. -1.
          2    1    1    2  501    0 -0.55835202822E+02 -0.28308612916E+03  0.45687860407E+02  0.29213474116E+03  0.25500000000E-02 0.  1.
<mgrwt>
<rscale>  0 0.28842305E+03</rscale>
<asrwt>0</asrwt>
<pdfrwt beam="1">  1       11 0.10000000E+01 0.20579776E+02</pdfrwt>
<pdfrwt beam="2">  1        2 0.23420987E-01 0.28842305E+03</pdfrwt>
<totfact> 0.28668782E+02</totfact>
</mgrwt>
</event>
<event>
 5    1  0.2799727E-003  0.1244122E+03  0.7818608E-02  0.1239528E+00
         11   -1    0    0    0    0  0.00000000000E+00  0.00000000000E+00  0.10001231945E+04  0.10001231945E+04  0.51100000000E-03 0. -1.
          2   -1    0    0  501    0 -0.00000000000E+00 -0.00000000000E+00 -0.26563841782E+02  0.26563841905E+02  0.25500000000E-02 0. -1.
         11    1    1    2    0    0 -0.40328220015E+02 -0.99440044802E+02  0.12035038216E+03  0.16124175119E+03  0.51100000000E-03 0. -1.
         22    1    1    2    0    0 -0.55491979394E+01 -0.13809705080E+02  0.33208762106E+02  0.36391254895E+02  0.00000000000E+00 0. -1.
          2    1    1    2  501    0  0.45877417954E+02  0.11324974988E+03  0.82000020845E+03  0.82905403032E+03  0.25500000000E-02 0. -1.
<mgrwt>
<rscale>  0 0.12218937E+03</rscale>
<asrwt>0</asrwt>
<pdfrwt beam="1">  1       11 0.10000000E+01 0.12441220E+03</pdfrwt>
<pdfrwt beam="2">  1        2 0.40872482E-02 0.12218937E+03</pdfrwt>
<totfact> 0.23656146E+03</totfact>
</mgrwt>
</event>
<event>
 5    1  0.2799727E-003  0.4284018E+03  0.7818608E-02  0.1246112E+00
         11   -1    0    0    0    0  0.00000000000E+00  0.00000000000E+00  0.10008439121E+04  0.10008439121E+04  0.51100000000E-03 0. -1.
         -2   -1    0    0    0  501 -0.00000000000E+00 -0.00000000000E+00 -0.11665274086E+04  0.11665274086E+04  0.25500000000E-02 0. -1.
         11    1    1    2    0    0 -0.24892914405E+03  0.38649799897E+03 -0.17200870001E+03  0.49084968661E+03  0.51100000000E-03 0. -1.
         22    1    1    2    0    0  0.31350873695E+03 -0.28751068746E+03  0.78290186103E+03  0.89100249581E+03  0.00000000000E+00 0. -1.
         -2    1    1    2    0  501 -0.64579592901E+02 -0.98987311510E+02 -0.77657665754E+03  0.78551913834E+03  0.25500000000E-02 0. -1.
<mgrwt>
<rscale>  0 0.11819057E+03</rscale>
<asrwt>0</asrwt>
<pdfrwt beam="1">  1       11 0.10000000E+01 0.42840183E+03</pdfrwt>
<pdfrwt beam="2">  1       -2 0.17961720E+00 0.11819057E+03</pdfrwt>
<totfact> 0.16722549E+00</totfact>
</mgrwt>
</event>
<event>
 5    1  0.2799727E-003  0.9391799E+02  0.7818608E-02  0.1295509E+00
         11   -1    0    0    0    0  0.00000000000E+00  0.00000000000E+00  0.10001695466E+04  0.10001695466E+04  0.51100000000E-03 0.  1.
          2   -1    0    0  501    0 -0.00000000000E+00 -0.00000000000E+00 -0.92351361241E+01  0.92351364762E+01  0.25500000000E-02 0.  1.
         11    1    1    2    0    0  0.67285157662E+02 -0.48370391108E+02  0.32633050269E+03  0.33668766560E+03  0.51100000000E-03 0.  1.
         22    1    1    2    0    0  0.62094671913E+01 -0.87828957775E+01  0.54632020892E+02  0.55680826573E+02  0.00000000000E+00 0. -1.
          2    1    1    2  501    0 -0.73494624853E+02  0.57153286885E+02  0.60997188687E+03  0.61703619089E+03  0.25500000000E-02 0.  1.
<mgrwt>
<rscale>  0 0.93101869E+02</rscale>
<asrwt>0</asrwt>
<pdfrwt beam="1">  1       11 0.10000000E+01 0.93917992E+02</pdfrwt>
<pdfrwt beam="2">  1        2 0.14210310E-02 0.93101869E+02</pdfrwt>
<totfact> 0.94833318E+03</totfact>
</mgrwt>
</event>
<event>
 5    1  0.2799727E-003  0.9933908E+02  0.7818608E-02  0.1583843E+00
         11   -1    0    0    0    0  0.00000000000E+00  0.00000000000E+00  0.99997005163E+03  0.99997005163E+03  0.51100000000E-03 0.  1.
          2   -1    0    0  501    0 -0.00000000000E+00 -0.00000000000E+00 -0.46442378081E+03  0.46442378082E+03  0.25500000000E-02 0.  1.
         11    1    1    2    0    0 -0.55757701662E+02 -0.64720182412E+02  0.36040334932E+03  0.37038925134E+03  0.51100000000E-03 0.  1.
         22    1    1    2    0    0  0.62675959511E+02  0.95276150926E+02  0.62890541523E+03  0.63916182782E+03  0.00000000000E+00 0.  1.
          2    1    1    2  501    0 -0.69182578491E+01 -0.30555968514E+02 -0.45376249373E+03  0.45484275330E+03  0.25500000000E-02 0.  1.
<mgrwt>
<rscale>  0 0.31329371E+02</rscale>
<asrwt>0</asrwt>
<pdfrwt beam="1">  1       11 0.10000000E+01 0.99339077E+02</pdfrwt>
<pdfrwt beam="2">  1        2 0.71447671E-01 0.31329371E+02</pdfrwt>
<totfact> 0.86083999E+01</totfact>
</mgrwt>
</event>
<event>
 5    1  0.2799727E-003  0.2304449E+03  0.7818608E-02  0.1127861E+00
         11   -1    0    0    0    0  0.00000000000E+00  0.00000000000E+00  0.10000807695E+04  0.10000807695E+04  0.51100000000E-03 0. -1.
         -2   -1    0    0    0  501 -0.00000000000E+00 -0.00000000000E+00 -0.56852068063E+02  0.56852068121E+02  0.25500000000E-02 0. -1.
         11    1    1    2    0    0  0.21153577734E+03 -0.14776373127E+01  0.29053942912E+03  0.35939216516E+03  0.51100000000E-03 0. -1.
         22    1    1    2    0    0  0.16629275421E+02 -0.55694392699E+01  0.38641160397E+02  0.42434546441E+02  0.00000000000E+00 0.  1.
         -2    1    1    2    0  501 -0.22816505276E+03  0.70470765826E+01  0.61404811196E+03  0.65510612606E+03  0.25500000000E-02 0. -1.
<mgrwt>
<rscale>  0 0.22827385E+03</rscale>
<asrwt>0</asrwt>
<pdfrwt beam="1">  1       11 0.10000000E+01 0.23044489E+03</pdfrwt>
<pdfrwt beam="2">  1       -2 0.87471782E-02 0.22827385E+03</pdfrwt>
<totfact> 0.64963093E+02</totfact>
</mgrwt>
</event>
<event>
 5    1  0.2799727E-003  0.9202108E+02  0.7818608E-02  0.1298030E+00
         11   -1    0    0    0    0  0.00000000000E+00  0.00000000000E+00  0.10002059469E+04  0.10002059469E+04  0.51100000000E-03 0. -1.
          2   -1    0    0  501    0 -0.00000000000E+00 -0.00000000000E+00 -0.15662337471E+02  0.15662337679E+02  0.25500000000E-02 0. -1.
         11    1    1    2    0    0 -0.12438711696E+02 -0.27372069327E+02  0.76515848360E+02  0.82210867763E+02  0.51100000000E-03 0. -1.
         22    1    1    2    0    0 -0.88544858683E+02  0.15972000717E+02  0.21276880491E+03  0.23101052173E+03  0.00000000000E+00 0. -1.
          2    1    1    2  501    0  0.10098357038E+03  0.11400068611E+02  0.69525895619E+03  0.70264689512E+03  0.25500000000E-02 0. -1.
<mgrwt>
<rscale>  0 0.92021075E+02</rscale>
<asrwt>0</asrwt>
<pdfrwt beam="1">  1       11 0.10000000E+01 0.30065805E+02</pdfrwt>
<pdfrwt beam="2">  1        2 0.24100866E-02 0.92021075E+02</pdfrwt>
<totfact> 0.46359622E+03</totfact>
</mgrwt>
</event>
<event>
 5    1  0.2799727E-003  0.9722663E+02  0.7818608E-02  0.1286238E+00
         11   -1    0    0    0    0  0.00000000000E+00  0.00000000000E+00  0.99994605881E+03  0.99994605881E+03  0.51100000000E-03 0. -1.
          2   -1    0    0  501    0 -0.00000000000E+00 -0.00000000000E+00 -0.70709243542E+02  0.70709243588E+02  0.25500000000E-02 0. -1.
         11    1    1    2    0    0  0.97202216652E+02  0.24592428257E+02  0.44683567303E+03  0.45794669683E+03  0.51100000000E-03 0. -1.
         22    1    1    2    0    0 -0.46525602392E+02 -0.10756772102E+03  0.50030370441E+03  0.51384748995E+03  0.00000000000E+00 0. -1.
          2    1    1    2  501    0 -0.50676614260E+02  0.82975292766E+02 -0.17902562165E+02  0.98861115617E+02  0.25500000000E-02 0. -1.
<mgrwt>
<rscale>  0 0.97226634E+02</rscale>
<asrwt>0</asrwt>
<pdfrwt beam="1">  1       11 0.10000000E+01 0.96810850E+02</pdfrwt>
<pdfrwt beam="2">  1        2 0.10877758E-01 0.97226634E+02</pdfrwt>
<totfact> 0.67365017E+02</totfact>
</mgrwt>
</event>
<event>
 5    1  0.2799727E-003  0.3525653E+03  0.7818608E-02  0.1063405E+00
         11   -1    0    0    0    0  0.00000000000E+00  0.00000000000E+00  0.10002377490E+04  0.10002377490E+04  0.51100000000E-03 0. -1.
         -2   -1    0    0    0  501 -0.00000000000E+00 -0.00000000000E+00 -0.18944926121E+03  0.18944926122E+03  0.25500000000E-02 0.  1.
         11    1    1    2    0    0  0.17308407152E+03 -0.22393491725E+03  0.56530486524E+03  0.63219817592E+03  0.51100000000E-03 0. -1.
         22    1    1    2    0    0  0.49631478326E+02 -0.43570438180E+02  0.19485609546E+03  0.20574392983E+03  0.00000000000E+00 0. -1.
         -2    1    1    2    0  501 -0.22271554984E+03  0.26750535543E+03  0.50627527107E+02  0.35174490449E+03  0.25500000000E-02 0.  1.
<mgrwt>
<rscale>  0 0.34808236E+03</rscale>
<asrwt>0</asrwt>
<pdfrwt beam="1">  1       11 0.10000000E+01 0.35256529E+03</pdfrwt>
<pdfrwt beam="2">  1       -2 0.29152969E-01 0.34808236E+03</pdfrwt>
<totfact> 0.87109100E+01</totfact>
</mgrwt>
</event>
<event>
 5    1  0.2799727E-003  0.1644356E+03  0.7818608E-02  0.1190795E+00
         11   -1    0    0    0    0  0.00000000000E+00  0.00000000000E+00  0.99996995855E+03  0.99996995855E+03  0.51100000000E-03 0. -1.
         -2   -1    0    0    0  501 -0.00000000000E+00 -0.00000000000E+00 -0.33288272899E+02  0.33288272997E+02  0.25500000000E-02 0. -1.
         11    1    1    2    0    0  0.78715633999E+01 -0.62680006906E+02  0.38024928431E+03  0.38546110439E+03  0.51100000000E-03 0. -1.
         22    1    1    2    0    0 -0.16255273805E+02 -0.95253571966E+02  0.35186399954E+03  0.36489142367E+03  0.00000000000E+00 0. -1.
         -2    1    1    2    0  501  0.83837104051E+01  0.15793357887E+03  0.23456840180E+03  0.28290570349E+03  0.25500000000E-02 0. -1.
<mgrwt>
<rscale>  0 0.15815594E+03</rscale>
<asrwt>0</asrwt>
<pdfrwt beam="1">  1       11 0.10000000E+01 0.16443557E+03</pdfrwt>
<pdfrwt beam="2">  1       -2 0.51211188E-02 0.15815594E+03</pdfrwt>
<totfact> 0.14436866E+03</totfact>
</mgrwt>
</event>
<event>
 5    1  0.2799727E-003  0.9548897E+02  0.7818608E-02  0.1292074E+00
         11   -1    0    0    0    0  0.00000000000E+00  0.00000000000E+00  0.10001731104E+04  0.10001731104E+04  0.51100000000E-03 0.  1.
          2   -1    0    0  501    0 -0.00000000000E+00 -0.00000000000E+00 -0.96799613391E+01  0.96799616749E+01  0.25500000000E-02 0.  1.
         11    1    1    2    0    0  0.54050883816E+02  0.63840511944E+02  0.30992623318E+03  0.32101616629E+03  0.51100000000E-03 0.  1.
         22    1    1    2    0    0  0.44052441136E+01  0.10540067930E+02  0.56851006339E+02  0.57987379052E+02  0.00000000000E+00 0.  1.
          2    1    1    2  501    0 -0.58456127929E+02 -0.74380579875E+02  0.62371590955E+03  0.63084952674E+03  0.25500000000E-02 0.  1.
<mgrwt>
<rscale>  0 0.94602270E+02</rscale>
<asrwt>0</asrwt>
<pdfrwt beam="1">  1       11 0.10000000E+01 0.95488973E+02</pdfrwt>
<pdfrwt beam="2">  1        2 0.14894826E-02 0.94602270E+02</pdfrwt>
<totfact> 0.89151136E+03</totfact>
</mgrwt>
</event>
<event>
 5    1  0.2799727E-003  0.1021207E+03  0.7818608E-02  0.1416169E+00
         11   -1    0    0    0    0  0.00000000000E+00  0.00000000000E+00  0.10007965422E+04  0.10007965422E+04  0.51100000000E-03 0.  1.
          2   -1    0    0  501    0 -0.00000000000E+00 -0.00000000000E+00 -0.13702250886E+04  0.13702250886E+04  0.25500000000E-02 0.  1.
         11    1    1    2    0    0  0.28432523526E+02  0.11618815395E+03  0.57792683565E+03  0.59017584064E+03  0.51100000000E-03 0.  1.
         22    1    1    2    0    0  0.21017257049E+02 -0.90249985769E+02  0.41101338350E+03  0.42132978347E+03  0.00000000000E+00 0. -1.
          2    1    1    2  501    0 -0.49449780574E+02 -0.25938168181E+02 -0.13583687655E+04  0.13595160067E+04  0.25500000000E-02 0.  1.
<mgrwt>
<rscale>  0 0.55839676E+02</rscale>
<asrwt>0</asrwt>
<pdfrwt beam="1">  1       11 0.10000000E+01 0.10212072E+03</pdfrwt>
<pdfrwt beam="2">  1        2 0.21097177E+00 0.55839676E+02</pdfrwt>
<totfact> 0.22513227E+01</totfact>
</mgrwt>
</event>
<event>
 5    1  0.2799727E-003  0.4326588E+02  0.7818608E-02  0.1500284E+00
         11   -1    0    0    0    0  0.00000000000E+00  0.00000000000E+00  0.10004832696E+04  0.10004832696E+04  0.51100000000E-03 0.  1.
          2   -1    0    0  501    0 -0.00000000000E+00 -0.00000000000E+00 -0.28247078512E+01  0.28247090022E+01  0.25500000000E-02 0.  1.
         11    1    1    2    0    0 -0.24568150005E+02 -0.76257148433E+01  0.11781779781E+03  0.12059344510E+03  0.51100000000E-03 0.  1.
         22    1    1    2    0    0 -0.10232711700E+02 -0.14236183947E+02  0.83839231022E+02  0.85652752323E+02  0.00000000000E+00 0.  1.
          2    1    1    2  501    0  0.34800861706E+02  0.21861898791E+02  0.79600153293E+03  0.79706178119E+03  0.25500000000E-02 0.  1.
<mgrwt>
<rscale>  0 0.41097963E+02</rscale>
<asrwt>0</asrwt>
<pdfrwt beam="1">  1       11 0.10000000E+01 0.43265884E+02</pdfrwt>
<pdfrwt beam="2">  1        2 0.43478053E-03 0.41097963E+02</pdfrwt>
<totfact> 0.40553081E+04</totfact>
</mgrwt>
</event>
<event>
 5    1  0.2799727E-003  0.2177311E+03  0.7818608E-02  0.1139272E+00
         11   -1    0    0    0    0  0.00000000000E+00  0.00000000000E+00  0.99990548040E+03  0.99990548040E+03  0.51100000000E-03 0. -1.
          2   -1    0    0  501    0 -0.00000000000E+00 -0.00000000000E+00 -0.32533782789E+03  0.32533782790E+03  0.25500000000E-02 0.  1.
         11    1    1    2    0    0 -0.18584752307E+03  0.28519063366E+02  0.79469543697E+03  0.81663546111E+03  0.51100000000E-03 0. -1.
         22    1    1    2    0    0 -0.21645487124E+02  0.19262136715E+02  0.15670531397E+03  0.15936157771E+03  0.00000000000E+00 0. -1.
          2    1    1    2  501    0  0.20749301019E+03 -0.47781200081E+02 -0.27683309842E+03  0.34924626948E+03  0.25500000000E-02 0.  1.
<mgrwt>
<rscale>  0 0.21292344E+03</rscale>
<asrwt>0</asrwt>
<pdfrwt beam="1">  1       11 0.10000000E+01 0.21773110E+03</pdfrwt>
<pdfrwt beam="2">  1        2 0.50047241E-01 0.21292344E+03</pdfrwt>
<totfact> 0.12433707E+02</totfact>
</mgrwt>
</event>
<event>
 5    1  0.2799727E-003  0.1531242E+03  0.7818608E-02  0.1212698E+00
         11   -1    0    0    0    0  0.00000000000E+00  0.00000000000E+00  0.10004056507E+04  0.10004056507E+04  0.51100000000E-03 0. -1.
          2   -1    0    0  501    0 -0.00000000000E+00 -0.00000000000E+00 -0.77001895135E+02  0.77001895177E+02  0.25500000000E-02 0. -1.
         11    1    1    2    0    0 -0.33125989429E+02 -0.10786810273E+03  0.14705756299E+02  0.11379419155E+03  0.51100000000E-03 0. -1.
         22    1    1    2    0    0  0.22705609902E+02 -0.32215081362E+02 -0.45055229871E+01  0.39669332306E+02  0.00000000000E+00 0.  1.
          2    1    1    2  501    0  0.10420379526E+02  0.14008318409E+03  0.91320352227E+03  0.92394402204E+03  0.25500000000E-02 0. -1.
<mgrwt>
<rscale>  0 0.14047022E+03</rscale>
<asrwt>0</asrwt>
<pdfrwt beam="1">  1       11 0.10000000E+01 0.15312416E+03</pdfrwt>
<pdfrwt beam="2">  1        2 0.11851251E-01 0.14047022E+03</pdfrwt>
<totfact> 0.61986245E+02</totfact>
</mgrwt>
</event>
<event>
 5    1  0.2997598E-003  0.4294158E+03  0.7818608E-02  0.1035027E+00
         11   -1    0    0    0    0  0.00000000000E+00  0.00000000000E+00  0.10005920017E+04  0.10005920017E+04  0.51100000000E-03 0.  1.
          2   -1    0    0  501    0 -0.00000000000E+00 -0.00000000000E+00 -0.10716672639E+04  0.10716672639E+04  0.25500000000E-02 0.  1.
         11    1    1    2    0    0 -0.14207859356E+03  0.37650763483E+03  0.83371661044E+03  0.92575791240E+03  0.51100000000E-03 0.  1.
         22    1    1    2    0    0 -0.17957641097E+02  0.18641874244E+02  0.74266685226E+02  0.78648184236E+02  0.00000000000E+00 0.  1.
          2    1    1    2  501    0  0.16003623465E+03 -0.39514950908E+03 -0.97905855779E+03  0.10678531690E+04  0.25500000000E-02 0.  1.
<mgrwt>
<rscale>  0 0.42632702E+03</rscale>
<asrwt>0</asrwt>
<pdfrwt beam="1">  1       11 0.10000000E+01 0.42941581E+03</pdfrwt>
<pdfrwt beam="2">  1        2 0.16496949E+00 0.42632702E+03</pdfrwt>
<totfact> 0.29018525E+01</totfact>
</mgrwt>
</event>
<event>
 5    1  0.2799727E-003  0.1259734E+03  0.7818608E-02  0.1233556E+00
         11   -1    0    0    0    0  0.00000000000E+00  0.00000000000E+00  0.10001096330E+04  0.10001096330E+04  0.51100000000E-03 0. -1.
          2   -1    0    0  501    0 -0.00000000000E+00 -0.00000000000E+00 -0.41802294209E+02  0.41802294287E+02  0.25500000000E-02 0. -1.
         11    1    1    2    0    0 -0.41272277705E+02 -0.10424383509E+03  0.15073532093E+03  0.18785982816E+03  0.51100000000E-03 0. -1.
         22    1    1    2    0    0 -0.89536975804E+02 -0.49438213634E+01  0.43809359067E+03  0.44717704054E+03  0.00000000000E+00 0. -1.
          2    1    1    2  501    0  0.13080925351E+03  0.10918765646E+03  0.36947842721E+03  0.40687505859E+03  0.25500000000E-02 0. -1.
<mgrwt>
<rscale>  0 0.12597339E+03</rscale>
<asrwt>0</asrwt>
<pdfrwt beam="1">  1       11 0.10000000E+01 0.89673360E+02</pdfrwt>
<pdfrwt beam="2">  1        2 0.64318271E-02 0.12597339E+03</pdfrwt>
<totfact> 0.13159907E+03</totfact>
</mgrwt>
</event>
<event>
 5    1  0.2799727E-003  0.5476214E+02  0.7818608E-02  0.1593991E+00
         11   -1    0    0    0    0  0.00000000000E+00  0.00000000000E+00  0.10000488376E+04  0.10000488376E+04  0.51100000000E-03 0.  1.
          2   -1    0    0  501    0 -0.00000000000E+00 -0.00000000000E+00 -0.50732059434E+01  0.50732065843E+01  0.25500000000E-02 0.  1.
         11    1    1    2    0    0  0.38039694037E+02  0.38368878752E+02  0.27804128056E+03  0.28324219826E+03  0.51100000000E-03 0.  1.
         22    1    1    2    0    0  0.11432314760E+02 -0.12374306938E+02  0.53359791670E+02  0.55956131568E+02  0.00000000000E+00 0.  1.
          2    1    1    2  501    0 -0.49472008798E+02 -0.25994571814E+02  0.66357455940E+03  0.66592371433E+03  0.25500000000E-02 0.  1.
<mgrwt>
<rscale>  0 0.30373955E+02</rscale>
<asrwt>0</asrwt>
<pdfrwt beam="1">  1       11 0.10000000E+01 0.54762143E+02</pdfrwt>
<pdfrwt beam="2">  1        2 0.78053137E-03 0.30373955E+02</pdfrwt>
<totfact> 0.17346012E+04</totfact>
</mgrwt>
</event>
<event>
 5    1  0.2799727E-003  0.1176684E+03  0.7818608E-02  0.1253496E+00
         11   -1    0    0    0    0  0.00000000000E+00  0.00000000000E+00  0.10001552770E+04  0.10001552770E+04  0.51100000000E-03 0. -1.
          2   -1    0    0  501    0 -0.00000000000E+00 -0.00000000000E+00 -0.29246982198E+02  0.29246982309E+02  0.25500000000E-02 0. -1.
         11    1    1    2    0    0 -0.68655294300E+01  0.80590865873E+01  0.13908828817E+02  0.17479699377E+02  0.51100000000E-03 0. -1.
         22    1    1    2    0    0 -0.10671187413E+03  0.63662498014E+00  0.96371811794E+02  0.14378927457E+03  0.00000000000E+00 0. -1.
          2    1    1    2  501    0  0.11357740356E+03 -0.86957115674E+01  0.86062765423E+03  0.86813328541E+03  0.25500000000E-02 0. -1.
<mgrwt>
<rscale>  0 0.11390980E+03</rscale>
<asrwt>0</asrwt>
<pdfrwt beam="1">  1       11 0.10000000E+01 0.11766844E+03</pdfrwt>
<pdfrwt beam="2">  1        2 0.45002343E-02 0.11390980E+03</pdfrwt>
<totfact> 0.20714619E+03</totfact>
</mgrwt>
</event>
<event>
 5    1  0.2799727E-003  0.1416587E+03  0.7818608E-02  0.1214137E+00
         11   -1    0    0    0    0  0.00000000000E+00  0.00000000000E+00  0.10003623006E+04  0.10003623006E+04  0.51100000000E-03 0. -1.
          2   -1    0    0  501    0 -0.00000000000E+00 -0.00000000000E+00 -0.22397167221E+02  0.22397167366E+02  0.25500000000E-02 0. -1.
         11    1    1    2    0    0 -0.66284487799E+02  0.86861816091E+02  0.22092799191E+03  0.24647065957E+03  0.51100000000E-03 0. -1.
         22    1    1    2    0    0 -0.21819162324E+02  0.21168391567E+02  0.95433310581E+02  0.10015834171E+03  0.00000000000E+00 0.  1.
          2    1    1    2  501    0  0.88103650123E+02 -0.10803020766E+03  0.66160383093E+03  0.67613046673E+03  0.25500000000E-02 0. -1.
<mgrwt>
<rscale>  0 0.13940150E+03</rscale>
<asrwt>0</asrwt>
<pdfrwt beam="1">  1       11 0.10000000E+01 0.14165871E+03</pdfrwt>
<pdfrwt beam="2">  1        2 0.34469663E-02 0.13940150E+03</pdfrwt>
<totfact> 0.30030048E+03</totfact>
</mgrwt>
</event>
<event>
 5    1  0.2799727E-003  0.1932389E+03  0.7818608E-02  0.1168730E+00
         11   -1    0    0    0    0  0.00000000000E+00  0.00000000000E+00  0.10001089349E+04  0.10001089349E+04  0.51100000000E-03 0. -1.
          2   -1    0    0  501    0 -0.00000000000E+00 -0.00000000000E+00 -0.68514202559E+02  0.68514202606E+02  0.25500000000E-02 0. -1.
         11    1    1    2    0    0 -0.85987114705E+02 -0.72697630689E+02  0.47807278206E+03  0.49115406376E+03  0.51100000000E-03 0. -1.
         22    1    1    2    0    0 -0.80238592730E+02  0.61666834318E+01  0.37223550208E+03  0.38083530398E+03  0.00000000000E+00 0. -1.
          2    1    1    2  501    0  0.16622570743E+03  0.66530947257E+02  0.81286448248E+02  0.19663376981E+03  0.25500000000E-02 0. -1.
<mgrwt>
<rscale>  0 0.17904567E+03</rscale>
<asrwt>0</asrwt>
<pdfrwt beam="1">  1       11 0.10000000E+01 0.19323892E+03</pdfrwt>
<pdfrwt beam="2">  1        2 0.10541794E-01 0.17904567E+03</pdfrwt>
<totfact> 0.72361537E+02</totfact>
</mgrwt>
</event>
<event>
 5    1  0.2799727E-003  0.6558151E+02  0.7818608E-02  0.1380907E+00
         11   -1    0    0    0    0  0.00000000000E+00  0.00000000000E+00  0.99981648033E+03  0.99981648033E+03  0.51100000000E-03 0. -1.
          2   -1    0    0  501    0 -0.00000000000E+00 -0.00000000000E+00 -0.68726699860E+01  0.68726704591E+01  0.25500000000E-02 0. -1.
         11    1    1    2    0    0  0.12631493547E+02 -0.86702685503E+00  0.54472868078E+02  0.55924947221E+02  0.51100000000E-03 0. -1.
         22    1    1    2    0    0  0.51554385913E+02  0.31330656417E+01  0.13207936115E+03  0.14181899890E+03  0.00000000000E+00 0. -1.
          2    1    1    2  501    0 -0.64185879460E+02 -0.22660387867E+01  0.80639158112E+03  0.80894520468E+03  0.25500000000E-02 0. -1.
<mgrwt>
<rscale>  0 0.64225868E+02</rscale>
<asrwt>0</asrwt>
<pdfrwt beam="1">  1       11 0.10000000E+01 0.65581507E+02</pdfrwt>
<pdfrwt beam="2">  1        2 0.10571398E-02 0.64225868E+02</pdfrwt>
<totfact> 0.13372007E+04</totfact>
</mgrwt>
</event>
<event>
 5    1  0.2799727E-003  0.1062615E+03  0.7818608E-02  0.1274304E+00
         11   -1    0    0    0    0  0.00000000000E+00  0.00000000000E+00  0.99996215677E+03  0.99996215677E+03  0.51100000000E-03 0. -1.
          2   -1    0    0  501    0 -0.00000000000E+00 -0.00000000000E+00 -0.11352410815E+02  0.11352411102E+02  0.25500000000E-02 0. -1.
         11    1    1    2    0    0  0.82852645884E+02  0.29287974809E+02  0.49393688384E+03  0.50169312494E+03  0.51100000000E-03 0. -1.
         22    1    1    2    0    0  0.97539112123E+01  0.15582519032E+02  0.10460882991E+03  0.10621186835E+03  0.00000000000E+00 0.  1.
          2    1    1    2  501    0 -0.92606557096E+02 -0.44870493841E+02  0.39006403221E+03  0.40340957458E+03  0.25500000000E-02 0. -1.
<mgrwt>
<rscale>  0 0.10290450E+03</rscale>
<asrwt>0</asrwt>
<pdfrwt beam="1">  1       11 0.10000000E+01 0.10626151E+03</pdfrwt>
<pdfrwt beam="2">  1        2 0.17464586E-02 0.10290450E+03</pdfrwt>
<totfact> 0.72623857E+03</totfact>
</mgrwt>
</event>
<event>
 5    1  0.2799727E-003  0.3431834E+03  0.7818608E-02  0.1065448E+00
         11   -1    0    0    0    0  0.00000000000E+00  0.00000000000E+00  0.10001731188E+04  0.10001731188E+04  0.51100000000E-03 0. -1.
         -2   -1    0    0    0  501 -0.00000000000E+00 -0.00000000000E+00 -0.20123483150E+03  0.20123483152E+03  0.25500000000E-02 0.  1.
         11    1    1    2    0    0  0.13058437301E+03  0.32915189552E+03  0.75863315924E+03  0.83720816951E+03  0.51100000000E-03 0. -1.
         22    1    1    2    0    0 -0.94800391712E+01 -0.10704747735E+02  0.17698477365E+02  0.22752996897E+02  0.00000000000E+00 0. -1.
         -2    1    1    2    0  501 -0.12110433384E+03 -0.31844714779E+03  0.22606650731E+02  0.34144678395E+03  0.25500000000E-02 0.  1.
<mgrwt>
<rscale>  0 0.34318337E+03</rscale>
<asrwt>0</asrwt>
<pdfrwt beam="1">  1       11 0.10000000E+01 0.14299048E+02</pdfrwt>
<pdfrwt beam="2">  1       -2 0.30964564E-01 0.34318337E+03</pdfrwt>
<totfact> 0.77989317E+01</totfact>
</mgrwt>
</event>
<event>
 5    1  0.2799727E-003  0.1534641E+03  0.7818608E-02  0.1254983E+00
         11   -1    0    0    0    0  0.00000000000E+00  0.00000000000E+00  0.10001054984E+04  0.10001054984E+04  0.51100000000E-03 0. -1.
          2   -1    0    0  501    0 -0.00000000000E+00 -0.00000000000E+00 -0.27676465481E+03  0.27676465482E+03  0.25500000000E-02 0.  1.
         11    1    1    2    0    0  0.11043341684E+03  0.39804082395E+02  0.32776010560E+03  0.34814737016E+03  0.51100000000E-03 0. -1.
         22    1    1    2    0    0 -0.19074604826E+03 -0.11939918040E+03  0.62971409467E+03  0.66871523104E+03  0.00000000000E+00 0. -1.
          2    1    1    2  501    0  0.80312631425E+02  0.79595098002E+02 -0.23413335667E+03  0.26000755201E+03  0.25500000000E-02 0.  1.
<mgrwt>
<rscale>  0 0.11307298E+03</rscale>
<asrwt>0</asrwt>
<pdfrwt beam="1">  1       11 0.10000000E+01 0.15346406E+03</pdfrwt>
<pdfrwt beam="2">  1        2 0.42583668E-01 0.11307298E+03</pdfrwt>
<totfact> 0.14727798E+02</totfact>
</mgrwt>
</event>
<event>
 5    1  0.2799727E-003  0.5750246E+02  0.7818608E-02  0.1415927E+00
         11   -1    0    0    0    0  0.00000000000E+00  0.00000000000E+00  0.10002843180E+04  0.10002843180E+04  0.51100000000E-03 0.  1.
          2   -1    0    0  501    0 -0.00000000000E+00 -0.00000000000E+00 -0.59538169851E+01  0.59538175312E+01  0.25500000000E-02 0.  1.
         11    1    1    2    0    0  0.24427539630E+02  0.81394689761E+01  0.76991799574E+02  0.81183082286E+02  0.51100000000E-03 0.  1.
         22    1    1    2    0    0  0.22453588373E+02  0.22292226806E+02  0.82684273191E+02  0.88531328014E+02  0.00000000000E+00 0. -1.
          2    1    1    2  501    0 -0.46881128003E+02 -0.30431695782E+02  0.83465442826E+03  0.83652372524E+03  0.25500000000E-02 0.  1.
<mgrwt>
<rscale>  0 0.55892113E+02</rscale>
<asrwt>0</asrwt>
<pdfrwt beam="1">  1       11 0.10000000E+01 0.57502460E+02</pdfrwt>
<pdfrwt beam="2">  1        2 0.91623229E-03 0.55892113E+02</pdfrwt>
<totfact> 0.15831190E+04</totfact>
</mgrwt>
</event>
<event>
 5    1  0.2799727E-003  0.1992797E+02  0.7818608E-02  0.1746764E+00
         11   -1    0    0    0    0  0.00000000000E+00  0.00000000000E+00  0.99998605830E+03  0.99998605830E+03  0.51100000000E-03 0.  1.
          2   -1    0    0  501    0 -0.00000000000E+00 -0.00000000000E+00 -0.57608533333E+01  0.57608538977E+01  0.25500000000E-02 0.  1.
         11    1    1    2    0    0  0.29172409047E+01  0.96578952890E+01  0.66996086339E+00  0.10111087168E+02  0.51100000000E-03 0.  1.
         22    1    1    2    0    0 -0.15456702961E+02  0.11896527215E+02  0.10914563234E+03  0.11087473150E+03  0.00000000000E+00 0. -1.
          2    1    1    2  501    0  0.12539462057E+02 -0.21554422504E+02  0.88440961176E+03  0.88476109353E+03  0.25500000000E-02 0.  1.
<mgrwt>
<rscale>  0 0.19927974E+02</rscale>
<asrwt>0</asrwt>
<pdfrwt beam="1">  1       11 0.10000000E+01 0.10088872E+02</pdfrwt>
<pdfrwt beam="2">  1        2 0.88627279E-03 0.19927974E+02</pdfrwt>
<totfact> 0.13321383E+04</totfact>
</mgrwt>
</event>
<event>
 5    1  0.2799727E-003  0.1083959E+03  0.7818608E-02  0.1381877E+00
         11   -1    0    0    0    0  0.00000000000E+00  0.00000000000E+00  0.10004266180E+04  0.10004266180E+04  0.51100000000E-03 0. -1.
          2   -1    0    0  501    0 -0.00000000000E+00 -0.00000000000E+00 -0.19466701309E+02  0.19466701476E+02  0.25500000000E-02 0. -1.
         11    1    1    2    0    0  0.11000717288E+03  0.36706376660E+02  0.39526644227E+03  0.41192778076E+03  0.51100000000E-03 0. -1.
         22    1    1    2    0    0 -0.25764266377E+02  0.27598724592E+02  0.54484579422E+02  0.66287679216E+02  0.00000000000E+00 0.  1.
          2    1    1    2  501    0 -0.84242906507E+02 -0.64305101252E+02  0.53120889498E+03  0.54167785949E+03  0.25500000000E-02 0. -1.
<mgrwt>
<rscale>  0 0.63973072E+02</rscale>
<asrwt>0</asrwt>
<pdfrwt beam="1">  1       11 0.10000000E+01 0.10839594E+03</pdfrwt>
<pdfrwt beam="2">  1        2 0.29961547E-02 0.63973072E+02</pdfrwt>
<totfact> 0.33223968E+03</totfact>
</mgrwt>
</event>
<event>
 5    1  0.2799727E-003  0.1917242E+03  0.7818608E-02  0.1156915E+00
         11   -1    0    0    0    0  0.00000000000E+00  0.00000000000E+00  0.99984036243E+03  0.99984036243E+03  0.51100000000E-03 0.  1.
          2   -1    0    0  501    0 -0.00000000000E+00 -0.00000000000E+00 -0.98303632273E+03  0.98303632273E+03  0.25500000000E-02 0.  1.
         11    1    1    2    0    0  0.48911083345E+02  0.54230067697E+02 -0.74357380047E+01  0.73406297525E+02  0.51100000000E-03 0.  1.
         22    1    1    2    0    0 -0.92279709600E+02  0.13296133571E+03  0.95014831455E+03  0.96383405275E+03  0.00000000000E+00 0.  1.
          2    1    1    2  501    0  0.43368626255E+02 -0.18719140340E+03 -0.92590853684E+03  0.94563633489E+03  0.25500000000E-02 0.  1.
<mgrwt>
<rscale>  0 0.19172424E+03</rscale>
<asrwt>0</asrwt>
<pdfrwt beam="1">  1       11 0.10000000E+01 0.73028759E+02</pdfrwt>
<pdfrwt beam="2">  1        2 0.15121221E+00 0.19172424E+03</pdfrwt>
<totfact> 0.34209202E+01</totfact>
</mgrwt>
</event>
<event>
 5    1  0.2799727E-003  0.3028642E+03  0.7818608E-02  0.1086259E+00
         11   -1    0    0    0    0  0.00000000000E+00  0.00000000000E+00  0.10004180938E+04  0.10004180938E+04  0.51100000000E-03 0. -1.
          2   -1    0    0  501    0 -0.00000000000E+00 -0.00000000000E+00 -0.21860678948E+03  0.21860678949E+03  0.25500000000E-02 0. -1.
         11    1    1    2    0    0  0.22330267658E+03 -0.17290747465E+03  0.83799064260E+03  0.88430164381E+03  0.51100000000E-03 0. -1.
         22    1    1    2    0    0  0.15278987651E+02 -0.56042893146E+01  0.21334917666E+02  0.26833453638E+02  0.00000000000E+00 0.  1.
          2    1    1    2  501    0 -0.23858166423E+03  0.17851176397E+03 -0.77514255894E+02  0.30788978589E+03  0.25500000000E-02 0. -1.
<mgrwt>
<rscale>  0 0.29797258E+03</rscale>
<asrwt>0</asrwt>
<pdfrwt beam="1">  1       11 0.10000000E+01 0.30286424E+03</pdfrwt>
<pdfrwt beam="2">  1        2 0.33645874E-01 0.29797258E+03</pdfrwt>
<totfact> 0.19155171E+02</totfact>
</mgrwt>
</event>
<event>
 5    1  0.2799727E-003  0.1497429E+03  0.7818608E-02  0.1561703E+00
         11   -1    0    0    0    0  0.00000000000E+00  0.00000000000E+00  0.10001946801E+04  0.10001946801E+04  0.51100000000E-03 0.  1.
          2   -1    0    0  501    0 -0.00000000000E+00 -0.00000000000E+00 -0.14659276702E+03  0.14659276704E+03  0.25500000000E-02 0. -1.
         11    1    1    2    0    0  0.57265276728E+01 -0.17095018756E+03  0.41193528517E+03  0.44603524402E+03  0.51100000000E-03 0.  1.
         22    1    1    2    0    0  0.49840596179E+01  0.13913733504E+03  0.56036335500E+03  0.57740031909E+03  0.00000000000E+00 0.  1.
          2    1    1    2  501    0 -0.10710587291E+02  0.31812852512E+02 -0.11869672709E+03  0.12335188403E+03  0.25500000000E-02 0. -1.
<mgrwt>
<rscale>  0 0.33567459E+02</rscale>
<asrwt>0</asrwt>
<pdfrwt beam="1">  1       11 0.10000000E+01 0.14974291E+03</pdfrwt>
<pdfrwt beam="2">  1        2 0.22557123E-01 0.33567459E+02</pdfrwt>
<totfact> 0.27864549E+02</totfact>
</mgrwt>
</event>
<event>
 5    1  0.2799727E-003  0.6400189E+02  0.7818608E-02  0.1381766E+00
         11   -1    0    0    0    0  0.00000000000E+00  0.00000000000E+00  0.10002220262E+04  0.10002220262E+04  0.51100000000E-03 0. -1.
         -2   -1    0    0    0  501 -0.00000000000E+00 -0.00000000000E+00 -0.82976054612E+01  0.82976058530E+01  0.25500000000E-02 0. -1.
         11    1    1    2    0    0  0.10326480422E+02  0.83324963686E+00  0.25976176805E+02  0.27965912546E+02  0.51100000000E-03 0. -1.
         22    1    1    2    0    0 -0.22985075422E+02  0.60251767014E+02  0.16461015465E+03  0.17679109744E+03  0.00000000000E+00 0. -1.
         -2    1    1    2    0  501  0.12658594999E+02 -0.61085016651E+02  0.80133808926E+03  0.80376262204E+03  0.25500000000E-02 0. -1.
<mgrwt>
<rscale>  0 0.64001887E+02</rscale>
<asrwt>0</asrwt>
<pdfrwt beam="1">  1       11 0.10000000E+01 0.10360049E+02</pdfrwt>
<pdfrwt beam="2">  1       -2 0.12768381E-02 0.64001887E+02</pdfrwt>
<totfact> 0.97259542E+03</totfact>
</mgrwt>
</event>
<event>
 5    1  0.2799727E-003  0.4492041E+02  0.7818608E-02  0.1597943E+00
         11   -1    0    0    0    0  0.00000000000E+00  0.00000000000E+00  0.10005673778E+04  0.10005673778E+04  0.51100000000E-03 0.  1.
          2   -1    0    0  501    0 -0.00000000000E+00 -0.00000000000E+00 -0.22144085169E+02  0.22144085316E+02  0.25500000000E-02 0.  1.
         11    1    1    2    0    0 -0.37774533981E+02 -0.18562691183E+02  0.97338967641E+01  0.43199973008E+02  0.51100000000E-03 0.  1.
         22    1    1    2    0    0  0.10259837740E+02 -0.17229696222E+02  0.15738246313E+02  0.25491549568E+02  0.00000000000E+00 0. -1.
          2    1    1    2  501    0  0.27514696240E+02  0.35792387405E+02  0.95295114955E+03  0.95401994053E+03  0.25500000000E-02 0.  1.
<mgrwt>
<rscale>  0 0.30013210E+02</rscale>
<asrwt>0</asrwt>
<pdfrwt beam="1">  1       11 0.10000000E+01 0.44920405E+02</pdfrwt>
<pdfrwt beam="2">  1        2 0.34087152E-02 0.30013210E+02</pdfrwt>
<totfact> 0.25439460E+03</totfact>
</mgrwt>
</event>
<event>
 5    1  0.2799727E-003  0.2804461E+03  0.7818608E-02  0.1097476E+00
         11   -1    0    0    0    0  0.00000000000E+00  0.00000000000E+00  0.10001729467E+04  0.10001729467E+04  0.51100000000E-03 0. -1.
         -2   -1    0    0    0  501 -0.00000000000E+00 -0.00000000000E+00 -0.23006865665E+03  0.23006865667E+03  0.25500000000E-02 0.  1.
         11    1    1    2    0    0  0.12365720436E+03 -0.21978976920E+03  0.81215062909E+03  0.85040419282E+03  0.51100000000E-03 0. -1.
         22    1    1    2    0    0  0.23889405668E+02 -0.14350463859E+02  0.74503501122E+02  0.79545026215E+02  0.00000000000E+00 0. -1.
         -2    1    1    2    0  501 -0.14754661002E+03  0.23414023305E+03 -0.11654984014E+03  0.30029238436E+03  0.25500000000E-02 0.  1.
<mgrwt>
<rscale>  0 0.27675197E+03</rscale>
<asrwt>0</asrwt>
<pdfrwt beam="1">  1       11 0.10000000E+01 0.28044608E+03</pdfrwt>
<pdfrwt beam="2">  1       -2 0.35401298E-01 0.27675197E+03</pdfrwt>
<totfact> 0.60709966E+01</totfact>
</mgrwt>
</event>
<event>
 5    1  0.2799727E-003  0.6821661E+03  0.7818608E-02  0.1092371E+00
         11   -1    0    0    0    0  0.00000000000E+00  0.00000000000E+00  0.10006851178E+04  0.10006851178E+04  0.51100000000E-03 0. -1.
          2   -1    0    0  501    0 -0.00000000000E+00 -0.00000000000E+00 -0.11037519370E+04  0.11037519370E+04  0.25500000000E-02 0. -1.
         11    1    1    2    0    0  0.59053718840E+03  0.31860099577E+03 -0.61034586702E+03  0.90706275570E+03  0.51100000000E-03 0. -1.
         22    1    1    2    0    0 -0.42362449459E+03 -0.55104123448E+03  0.57642400601E+03  0.90297773462E+03  0.00000000000E+00 0. -1.
          2    1    1    2  501    0 -0.16691269381E+03  0.23244023871E+03 -0.69144958242E+02  0.29439656449E+03  0.25500000000E-02 0. -1.
<mgrwt>
<rscale>  0 0.28616134E+03</rscale>
<asrwt>0</asrwt>
<pdfrwt beam="1">  1       11 0.10000000E+01 0.68216608E+03</pdfrwt>
<pdfrwt beam="2">  1        2 0.16992432E+00 0.28616134E+03</pdfrwt>
<totfact> 0.28339775E+01</totfact>
</mgrwt>
</event>
<event>
 5    1  0.2799727E-003  0.1468721E+03  0.7818608E-02  0.1204370E+00
         11   -1    0    0    0    0  0.00000000000E+00  0.00000000000E+00  0.10000249145E+04  0.10000249145E+04  0.51100000000E-03 0. -1.
          2   -1    0    0  501    0 -0.00000000000E+00 -0.00000000000E+00 -0.27028690848E+02  0.27028690968E+02  0.25500000000E-02 0. -1.
         11    1    1    2    0    0  0.10320035083E+03 -0.97094110823E+02  0.31117006277E+03  0.34191283499E+03  0.51100000000E-03 0. -1.
         22    1    1    2    0    0  0.18944779230E+02 -0.87988225011E-01  0.11187431395E+03  0.11346706361E+03  0.00000000000E+00 0.  1.
          2    1    1    2  501    0 -0.12214513006E+03  0.97182099048E+02  0.54995184690E+03  0.57167370684E+03  0.25500000000E-02 0. -1.
<mgrwt>
<rscale>  0 0.14687208E+03</rscale>
<asrwt>0</asrwt>
<pdfrwt beam="1">  1       11 0.10000000E+01 0.18944984E+02</pdfrwt>
<pdfrwt beam="2">  1        2 0.41583636E-02 0.14687208E+03</pdfrwt>
<totfact> 0.23508670E+03</totfact>
</mgrwt>
</event>
<event>
 5    1  0.4918292E-003  0.1921703E+03  0.7818608E-02  0.1158346E+00
         11   -1    0    0    0    0  0.00000000000E+00  0.00000000000E+00  0.99997310176E+03  0.99997310176E+03  0.51100000000E-03 0.  1.
         -2   -1    0    0    0  501 -0.00000000000E+00 -0.00000000000E+00 -0.82205633476E+03  0.82205633477E+03  0.25500000000E-02 0. -1.
         11    1    1    2    0    0  0.21342789343E+02 -0.16625202368E+03  0.89283183024E+03  0.90842937376E+03  0.51100000000E-03 0.  1.
         22    1    1    2    0    0 -0.34734066967E+01 -0.23033899785E+02  0.86685247739E+02  0.89760555195E+02  0.00000000000E+00 0.  1.
         -2    1    1    2    0  501 -0.17869382646E+02  0.18928592346E+03 -0.80160031098E+03  0.82383950757E+03  0.25500000000E-02 0. -1.
<mgrwt>
<rscale>  0 0.19012752E+03</rscale>
<asrwt>0</asrwt>
<pdfrwt beam="1">  1       11 0.10000000E+01 0.19217031E+03</pdfrwt>
<pdfrwt beam="2">  1       -2 0.12646680E+00 0.19012752E+03</pdfrwt>
<totfact> 0.40269192E+00</totfact>
</mgrwt>
</event>
<event>
 5    1  0.2799727E-003  0.2002268E+03  0.7818608E-02  0.1164138E+00
         11   -1    0    0    0    0  0.00000000000E+00  0.00000000000E+00  0.10003208003E+04  0.10003208003E+04  0.51100000000E-03 0. -1.
          2   -1    0    0  501    0 -0.00000000000E+00 -0.00000000000E+00 -0.24579563821E+03  0.24579563823E+03  0.25500000000E-02 0. -1.
         11    1    1    2    0    0  0.53949913426E+02 -0.53619437493E+02  0.26797198087E+03  0.27855810843E+03  0.51100000000E-03 0. -1.
         22    1    1    2    0    0  0.11496537163E+02 -0.11817628829E+03  0.68606377867E+03  0.69626238867E+03  0.00000000000E+00 0. -1.
          2    1    1    2  501    0 -0.65446450589E+02  0.17179572578E+03 -0.19951059750E+03  0.27129594139E+03  0.25500000000E-02 0. -1.
<mgrwt>
<rscale>  0 0.18383963E+03</rscale>
<asrwt>0</asrwt>
<pdfrwt beam="1">  1       11 0.10000000E+01 0.20022680E+03</pdfrwt>
<pdfrwt beam="2">  1        2 0.37826843E-01 0.18383963E+03</pdfrwt>
<totfact> 0.16782215E+02</totfact>
</mgrwt>
</event>
<event>
 5    1  0.2799727E-003  0.2869437E+03  0.7818608E-02  0.1097863E+00
         11   -1    0    0    0    0  0.00000000000E+00  0.00000000000E+00  0.99994331614E+03  0.99994331614E+03  0.51100000000E-03 0.  1.
          2   -1    0    0  501    0 -0.00000000000E+00 -0.00000000000E+00 -0.81138257634E+02  0.81138257674E+02  0.25500000000E-02 0.  1.
         11    1    1    2    0    0  0.66272050008E+02 -0.22551329310E+03  0.31117491496E+03  0.38997186780E+03  0.51100000000E-03 0.  1.
         22    1    1    2    0    0  0.43809780740E+02 -0.27644118024E+02  0.74383872986E+02  0.90644661785E+02  0.00000000000E+00 0. -1.
          2    1    1    2  501    0 -0.11008183075E+03  0.25315741112E+03  0.53324627056E+03  0.60046504422E+03  0.25500000000E-02 0.  1.
<mgrwt>
<rscale>  0 0.27605558E+03</rscale>
<asrwt>0</asrwt>
<pdfrwt beam="1">  1       11 0.10000000E+01 0.28694367E+03</pdfrwt>
<pdfrwt beam="2">  1        2 0.12482101E-01 0.27605558E+03</pdfrwt>
<totfact> 0.60004085E+02</totfact>
</mgrwt>
</event>
<event>
 5    1  0.2799727E-003  0.1172485E+03  0.7818608E-02  0.1346428E+00
         11   -1    0    0    0    0  0.00000000000E+00  0.00000000000E+00  0.10002356568E+04  0.10002356568E+04  0.51100000000E-03 0. -1.
          2   -1    0    0  501    0 -0.00000000000E+00 -0.00000000000E+00 -0.12447866652E+03  0.12447866655E+03  0.25500000000E-02 0. -1.
         11    1    1    2    0    0 -0.70214962814E+02 -0.96599040235E+02  0.42262580740E+03  0.43917432604E+03  0.51100000000E-03 0. -1.
         22    1    1    2    0    0  0.11909847274E+03  0.40803476788E+02  0.54960746778E+03  0.56384194466E+03  0.00000000000E+00 0. -1.
          2    1    1    2  501    0 -0.48883509930E+02  0.55795563448E+02 -0.96476284941E+02  0.12169805260E+03  0.25500000000E-02 0. -1.
<mgrwt>
<rscale>  0 0.74180472E+02</rscale>
<asrwt>0</asrwt>
<pdfrwt beam="1">  1       11 0.10000000E+01 0.11724851E+03</pdfrwt>
<pdfrwt beam="2">  1        2 0.19155076E-01 0.74180472E+02</pdfrwt>
<totfact> 0.34486549E+02</totfact>
</mgrwt>
</event>
<event>
 5    1  0.2799727E-003  0.1111511E+03  0.7818608E-02  0.1465937E+00
         11   -1    0    0    0    0  0.00000000000E+00  0.00000000000E+00  0.10003766856E+04  0.10003766856E+04  0.51100000000E-03 0. -1.
          2   -1    0    0  501    0 -0.00000000000E+00 -0.00000000000E+00 -0.18268691796E+02  0.18268691974E+02  0.25500000000E-02 0. -1.
         11    1    1    2    0    0 -0.83688204117E+02  0.56735851896E+02  0.28941361570E+03  0.30656632782E+03  0.51100000000E-03 0. -1.
         22    1    1    2    0    0 -0.19333150448E+02 -0.77537118737E+00  0.15445799144E+02  0.24757718351E+02  0.00000000000E+00 0. -1.
          2    1    1    2  501    0  0.10302135456E+03 -0.55960480708E+02  0.67724857895E+03  0.68732133140E+03  0.25500000000E-02 0. -1.
<mgrwt>
<rscale>  0 0.46374849E+02</rscale>
<asrwt>0</asrwt>
<pdfrwt beam="1">  1       11 0.10000000E+01 0.11115106E+03</pdfrwt>
<pdfrwt beam="2">  1        2 0.28116266E-02 0.46374849E+02</pdfrwt>
<totfact> 0.34625780E+03</totfact>
</mgrwt>
</event>
<event>
 5    1  0.2799727E-003  0.9766531E+02  0.7818608E-02  0.1301245E+00
         11   -1    0    0    0    0  0.00000000000E+00  0.00000000000E+00  0.10001431445E+04  0.10001431445E+04  0.51100000000E-03 0.  1.
          2   -1    0    0  501    0 -0.00000000000E+00 -0.00000000000E+00 -0.90322520600E+01  0.90322524200E+01  0.25500000000E-02 0.  1.
         11    1    1    2    0    0  0.26377288566E+02  0.65551179869E+02  0.31859850033E+03  0.32633988869E+03  0.51100000000E-03 0.  1.
         22    1    1    2    0    0 -0.12315107158E+02  0.24018355047E+02  0.12661482044E+03  0.12945986250E+03  0.00000000000E+00 0.  1.
          2    1    1    2  501    0 -0.14062181407E+02 -0.89569534915E+02  0.54589757166E+03  0.55337564573E+03  0.25500000000E-02 0.  1.
<mgrwt>
<rscale>  0 0.90666678E+02</rscale>
<asrwt>0</asrwt>
<pdfrwt beam="1">  1       11 0.10000000E+01 0.97665307E+02</pdfrwt>
<pdfrwt beam="2">  1        2 0.13897761E-02 0.90666678E+02</pdfrwt>
<totfact> 0.97378469E+03</totfact>
</mgrwt>
</event>
<event>
 5    1  0.2799727E-003  0.4709790E+02  0.7818608E-02  0.1556818E+00
         11   -1    0    0    0    0  0.00000000000E+00  0.00000000000E+00  0.10000295607E+04  0.10000295607E+04  0.51100000000E-03 0.  1.
          2   -1    0    0  501    0 -0.00000000000E+00 -0.00000000000E+00 -0.61924047932E+01  0.61924053183E+01  0.25500000000E-02 0.  1.
         11    1    1    2    0    0  0.15569435162E+02  0.46985594399E+02  0.23918031275E+03  0.24424838873E+03  0.51100000000E-03 0.  1.
         22    1    1    2    0    0  0.19801320475E+02 -0.14726491117E+02  0.50657133539E+02  0.56348087914E+02  0.00000000000E+00 0. -1.
          2    1    1    2  501    0 -0.35370755637E+02 -0.32259103282E+02  0.70399970961E+03  0.70562548936E+03  0.25500000000E-02 0.  1.
<mgrwt>
<rscale>  0 0.34091664E+02</rscale>
<asrwt>0</asrwt>
<pdfrwt beam="1">  1       11 0.10000000E+01 0.47097903E+02</pdfrwt>
<pdfrwt beam="2">  1        2 0.95270584E-03 0.34091664E+02</pdfrwt>
<totfact> 0.13655829E+04</totfact>
</mgrwt>
</event>
<event>
 5    1  0.2799727E-003  0.2617593E+03  0.7818608E-02  0.1106091E+00
         11   -1    0    0    0    0  0.00000000000E+00  0.00000000000E+00  0.10012672221E+04  0.10012672221E+04  0.51100000000E-03 0. -1.
          2   -1    0    0  501    0 -0.00000000000E+00 -0.00000000000E+00 -0.21598015471E+04  0.21598015471E+04  0.25500000000E-02 0. -1.
         11    1    1    2    0    0  0.48071629297E+01 -0.67823420781E+02 -0.10115638713E+02  0.68741918570E+02  0.51100000000E-03 0. -1.
         22    1    1    2    0    0 -0.28282046496E+02 -0.19344621901E+03  0.95388847121E+03  0.97371686301E+03  0.00000000000E+00 0. -1.
          2    1    1    2  501    0  0.23474883566E+02  0.26126963979E+03 -0.21023071575E+04  0.21186099875E+04  0.25500000000E-02 0. -1.
<mgrwt>
<rscale>  0 0.26175928E+03</rscale>
<asrwt>0</asrwt>
<pdfrwt beam="1">  1       11 0.10000000E+01 0.67993568E+02</pdfrwt>
<pdfrwt beam="2">  1        2 0.33269822E+00 0.26175928E+03</pdfrwt>
<totfact> 0.76716931E+00</totfact>
</mgrwt>
</event>
<event>
 5    1  0.2799727E-003  0.1008944E+03  0.7818608E-02  0.1278426E+00
         11   -1    0    0    0    0  0.00000000000E+00  0.00000000000E+00  0.10001188877E+04  0.10001188877E+04  0.51100000000E-03 0. -1.
         -2   -1    0    0    0  501 -0.00000000000E+00 -0.00000000000E+00 -0.20991158350E+03  0.20991158352E+03  0.25500000000E-02 0. -1.
         11    1    1    2    0    0  0.94885112751E+02 -0.14927933214E+03  0.72475436533E+03  0.74602707303E+03  0.51100000000E-03 0. -1.
         22    1    1    2    0    0 -0.19244593552E+02  0.84348404195E+02  0.24434596707E+03  0.25921026078E+03  0.00000000000E+00 0. -1.
         -2    1    1    2    0  501 -0.75640519198E+02  0.64930927943E+02 -0.17889302825E+03  0.20479313736E+03  0.25500000000E-02 0. -1.
<mgrwt>
<rscale>  0 0.10089444E+03</rscale>
<asrwt>0</asrwt>
<pdfrwt beam="1">  1       11 0.10000000E+01 0.86515939E+02</pdfrwt>
<pdfrwt beam="2">  1       -2 0.32297928E-01 0.10089444E+03</pdfrwt>
<totfact> 0.71029758E+01</totfact>
</mgrwt>
</event>
<event>
 5    1  0.2799727E-003  0.9751337E+02  0.7818608E-02  0.1452128E+00
         11   -1    0    0    0    0  0.00000000000E+00  0.00000000000E+00  0.99980640974E+03  0.99980640974E+03  0.51100000000E-03 0.  1.
          2   -1    0    0  501    0 -0.00000000000E+00 -0.00000000000E+00 -0.16648099826E+04  0.16648099826E+04  0.25500000000E-02 0.  1.
         11    1    1    2    0    0 -0.49935776409E+02  0.75586346499E+02  0.36051308563E+03  0.37172108153E+03  0.51100000000E-03 0.  1.
         22    1    1    2    0    0  0.93563357331E+02 -0.53803372644E+02  0.62873177135E+03  0.63792832281E+03  0.00000000000E+00 0.  1.
          2    1    1    2  501    0 -0.43627580922E+02 -0.21782973855E+02 -0.16542484299E+04  0.16549669880E+04  0.25500000000E-02 0.  1.
<mgrwt>
<rscale>  0 0.48763345E+02</rscale>
<asrwt>0</asrwt>
<pdfrwt beam="1">  1       11 0.10000000E+01 0.97513366E+02</pdfrwt>
<pdfrwt beam="2">  1        2 0.25607502E+00 0.48763345E+02</pdfrwt>
<totfact> 0.16299084E+01</totfact>
</mgrwt>
</event>
<event>
 5    1  0.2799727E-003  0.9576543E+02  0.7818608E-02  0.1387730E+00
         11   -1    0    0    0    0  0.00000000000E+00  0.00000000000E+00  0.10000796817E+04  0.10000796817E+04  0.51100000000E-03 0. -1.
          2   -1    0    0  501    0 -0.00000000000E+00 -0.00000000000E+00 -0.32272074833E+03  0.32272074834E+03  0.25500000000E-02 0. -1.
         11    1    1    2    0    0  0.68568569702E+02 -0.43470569892E+02  0.46981373970E+03  0.47677698058E+03  0.51100000000E-03 0. -1.
         22    1    1    2    0    0 -0.13077717524E+03  0.37708321345E+02  0.51479652304E+03  0.53248478588E+03  0.00000000000E+00 0. -1.
          2    1    1    2  501    0  0.62208605541E+02  0.57622485472E+01 -0.30725132941E+03  0.31353866355E+03  0.25500000000E-02 0. -1.
<mgrwt>
<rscale>  0 0.62474908E+02</rscale>
<asrwt>0</asrwt>
<pdfrwt beam="1">  1       11 0.10000000E+01 0.95765433E+02</pdfrwt>
<pdfrwt beam="2">  1        2 0.49653301E-01 0.62474908E+02</pdfrwt>
<totfact> 0.12492959E+02</totfact>
</mgrwt>
</event>
<event>
 5    1  0.2799727E-003  0.9653868E+02  0.7818608E-02  0.1287748E+00
         11   -1    0    0    0    0  0.00000000000E+00  0.00000000000E+00  0.10001575919E+04  0.10001575919E+04  0.51100000000E-03 0. -1.
          2   -1    0    0  501    0 -0.00000000000E+00 -0.00000000000E+00 -0.45535243329E+02  0.45535243400E+02  0.25500000000E-02 0. -1.
         11    1    1    2    0    0  0.60993636165E+02  0.79854137559E+02  0.54491667638E+03  0.55410386312E+03  0.51100000000E-03 0. -1.
         22    1    1    2    0    0  0.33166282256E+02 -0.10115265647E+03  0.37368099895E+03  0.38854774631E+03  0.00000000000E+00 0. -1.
          2    1    1    2  501    0 -0.94159918421E+02  0.21298518913E+02  0.36024673297E+02  0.10304122591E+03  0.25500000000E-02 0. -1.
<mgrwt>
<rscale>  0 0.96538682E+02</rscale>
<asrwt>0</asrwt>
<pdfrwt beam="1">  1       11 0.10000000E+01 0.91479853E+02</pdfrwt>
<pdfrwt beam="2">  1        2 0.70065259E-02 0.96538682E+02</pdfrwt>
<totfact> 0.11573343E+03</totfact>
</mgrwt>
</event>
<event>
 5    1  0.2799727E-003  0.2797265E+03  0.7818608E-02  0.1097308E+00
         11   -1    0    0    0    0  0.00000000000E+00  0.00000000000E+00  0.10001909015E+04  0.10001909015E+04  0.51100000000E-03 0. -1.
          2   -1    0    0  501    0 -0.00000000000E+00 -0.00000000000E+00 -0.18921482097E+03  0.18921482099E+03  0.25500000000E-02 0. -1.
         11    1    1    2    0    0  0.25445290332E+03  0.52589956809E+02  0.78192347394E+03  0.82396377509E+03  0.51100000000E-03 0. -1.
         22    1    1    2    0    0  0.15175902739E+02  0.11131467653E+02  0.81345168096E+02  0.83494035527E+02  0.00000000000E+00 0.  1.
          2    1    1    2  501    0 -0.26962880606E+03 -0.63721424461E+02 -0.52292561538E+02  0.28194791184E+03  0.25500000000E-02 0. -1.
<mgrwt>
<rscale>  0 0.27705615E+03</rscale>
<asrwt>0</asrwt>
<pdfrwt beam="1">  1       11 0.10000000E+01 0.27972653E+03</pdfrwt>
<pdfrwt beam="2">  1        2 0.29115529E-01 0.27705615E+03</pdfrwt>
<totfact> 0.22446886E+02</totfact>
</mgrwt>
</event>
<event>
 5    1  0.2799727E-003  0.4741326E+02  0.7818608E-02  0.1708185E+00
         11   -1    0    0    0    0  0.00000000000E+00  0.00000000000E+00  0.10002697387E+04  0.10002697387E+04  0.51100000000E-03 0. -1.
          2   -1    0    0  501    0 -0.00000000000E+00 -0.00000000000E+00 -0.72285124858E+01  0.72285129356E+01  0.25500000000E-02 0. -1.
         11    1    1    2    0    0 -0.26887219720E+02 -0.29927596204E+02  0.60326183132E+02  0.72510909320E+02  0.51100000000E-03 0. -1.
         22    1    1    2    0    0  0.13804576920E+00 -0.10210764592E+02  0.54484552765E+02  0.55433250493E+02  0.00000000000E+00 0. -1.
          2    1    1    2  501    0  0.26749173950E+02  0.40138360796E+02  0.87823049029E+03  0.87955409180E+03  0.25500000000E-02 0. -1.
<mgrwt>
<rscale>  0 0.22003855E+02</rscale>
<asrwt>0</asrwt>
<pdfrwt beam="1">  1       11 0.10000000E+01 0.47413259E+02</pdfrwt>
<pdfrwt beam="2">  1        2 0.11123788E-02 0.22003855E+02</pdfrwt>
<totfact> 0.10150533E+04</totfact>
</mgrwt>
</event>
<event>
 5    1  0.2799727E-003  0.1754597E+03  0.7818608E-02  0.1172271E+00
         11   -1    0    0    0    0  0.00000000000E+00  0.00000000000E+00  0.10002989439E+04  0.10002989439E+04  0.51100000000E-03 0. -1.
          2   -1    0    0  501    0 -0.00000000000E+00 -0.00000000000E+00 -0.55145534101E+03  0.55145534102E+03  0.25500000000E-02 0. -1.
         11    1    1    2    0    0  0.11561889588E+03 -0.79670847228E+02  0.41867930570E+03  0.44159657381E+03  0.51100000000E-03 0. -1.
         22    1    1    2    0    0 -0.44356820074E+02 -0.82736218701E+02  0.55152474627E+03  0.55945719686E+03  0.00000000000E+00 0. -1.
          2    1    1    2  501    0 -0.71262075803E+02  0.16240706593E+03 -0.52136044908E+03  0.55070051424E+03  0.25500000000E-02 0. -1.
<mgrwt>
<rscale>  0 0.17545970E+03</rscale>
<asrwt>0</asrwt>
<pdfrwt beam="1">  1       11 0.10000000E+01 0.93876565E+02</pdfrwt>
<pdfrwt beam="2">  1        2 0.84864643E-01 0.17545970E+03</pdfrwt>
<totfact> 0.69944953E+01</totfact>
</mgrwt>
</event>
<event>
 5    1  0.2799727E-003  0.8799716E+02  0.7818608E-02  0.1307776E+00
         11   -1    0    0    0    0  0.00000000000E+00  0.00000000000E+00  0.10004008848E+04  0.10004008848E+04  0.51100000000E-03 0. -1.
          2   -1    0    0  501    0 -0.00000000000E+00 -0.00000000000E+00 -0.18725753688E+02  0.18725753862E+02  0.25500000000E-02 0. -1.
         11    1    1    2    0    0 -0.70095910754E+02  0.38218833554E+02  0.29158991878E+03  0.30232233903E+03  0.51100000000E-03 0. -1.
         22    1    1    2    0    0 -0.20534117133E+02 -0.86376721639E+02  0.37758664716E+03  0.38788434374E+03  0.00000000000E+00 0. -1.
          2    1    1    2  501    0  0.90630027887E+02  0.48157888085E+02  0.31249856514E+03  0.32891995586E+03  0.25500000000E-02 0. -1.
<mgrwt>
<rscale>  0 0.87997157E+02</rscale>
<asrwt>0</asrwt>
<pdfrwt beam="1">  1       11 0.10000000E+01 0.79838061E+02</pdfrwt>
<pdfrwt beam="2">  1        2 0.28820400E-02 0.87997157E+02</pdfrwt>
<totfact> 0.36322158E+03</totfact>
</mgrwt>
</event>
<event>
 5    1  0.2799727E-003  0.1850191E+03  0.7818608E-02  0.1163032E+00
         11   -1    0    0    0    0  0.00000000000E+00  0.00000000000E+00  0.10000286189E+04  0.10000286189E+04  0.51100000000E-03 0.  1.
          2   -1    0    0  501    0 -0.00000000000E+00 -0.00000000000E+00 -0.78133077120E+02  0.78133077161E+02  0.25500000000E-02 0.  1.
         11    1    1    2    0    0  0.95414953755E+02  0.89110344848E+02  0.30787232456E+03  0.33440998070E+03  0.51100000000E-03 0.  1.
         22    1    1    2    0    0 -0.24993136910E+03 -0.76122128915E+02  0.42954573439E+03  0.50276217608E+03  0.00000000000E+00 0.  1.
          2    1    1    2  501    0  0.15451641534E+03 -0.12988215933E+02  0.18447748282E+03  0.24098953927E+03  0.25500000000E-02 0.  1.
<mgrwt>
<rscale>  0 0.18501909E+03</rscale>
<asrwt>0</asrwt>
<pdfrwt beam="1">  1       11 0.10000000E+01 0.13055523E+03</pdfrwt>
<pdfrwt beam="2">  1        2 0.12020817E-01 0.18501909E+03</pdfrwt>
<totfact> 0.61742944E+02</totfact>
</mgrwt>
</event>
<event>
 5    1  0.2799727E-003  0.7379331E+02  0.7818608E-02  0.1352623E+00
         11   -1    0    0    0    0  0.00000000000E+00  0.00000000000E+00  0.10002538343E+04  0.10002538343E+04  0.51100000000E-03 0.  1.
          2   -1    0    0  501    0 -0.00000000000E+00 -0.00000000000E+00 -0.72850761562E+01  0.72850766025E+01  0.25500000000E-02 0.  1.
         11    1    1    2    0    0 -0.46526216965E+02 -0.37940738352E+02  0.19441769544E+03  0.20347586784E+03  0.51100000000E-03 0.  1.
         22    1    1    2    0    0 -0.48116925658E+01 -0.12889086212E+02  0.44983376747E+02  0.47040249917E+02  0.00000000000E+00 0.  1.
          2    1    1    2  501    0  0.51337909531E+02  0.50829824564E+02  0.75356768594E+03  0.75702279313E+03  0.25500000000E-02 0.  1.
<mgrwt>
<rscale>  0 0.72244391E+02</rscale>
<asrwt>0</asrwt>
<pdfrwt beam="1">  1       11 0.10000000E+01 0.73793305E+02</pdfrwt>
<pdfrwt beam="2">  1        2 0.11210654E-02 0.72244391E+02</pdfrwt>
<totfact> 0.12592945E+04</totfact>
</mgrwt>
</event>
<event>
 5    1  0.2799727E-003  0.2879133E+02  0.7818608E-02  0.1619845E+00
         11   -1    0    0    0    0  0.00000000000E+00  0.00000000000E+00  0.10003930060E+04  0.10003930060E+04  0.51100000000E-03 0.  1.
          2   -1    0    0  501    0 -0.00000000000E+00 -0.00000000000E+00 -0.22544336494E+01  0.22544350915E+01  0.25500000000E-02 0.  1.
         11    1    1    2    0    0  0.17516494926E+02  0.30369725194E+01  0.51734646447E+02  0.54703970970E+02  0.51100000000E-03 0.  1.
         22    1    1    2    0    0  0.10202188857E+02  0.16992965726E+01  0.48095450601E+02  0.49194965544E+02  0.00000000000E+00 0.  1.
          2    1    1    2  501    0 -0.27718683783E+02 -0.47362690920E+01  0.89830847533E+03  0.89874850461E+03  0.25500000000E-02 0.  1.
<mgrwt>
<rscale>  0 0.28120414E+02</rscale>
<asrwt>0</asrwt>
<pdfrwt beam="1">  1       11 0.10000000E+01 0.28791331E+02</pdfrwt>
<pdfrwt beam="2">  1        2 0.34697236E-03 0.28120414E+02</pdfrwt>
<totfact> 0.49823416E+04</totfact>
</mgrwt>
</event>
<event>
 5    1  0.2799727E-003  0.6845349E+02  0.7818608E-02  0.1369085E+00
         11   -1    0    0    0    0  0.00000000000E+00  0.00000000000E+00  0.10005793241E+04  0.10005793241E+04  0.51100000000E-03 0. -1.
         -2   -1    0    0    0  501 -0.00000000000E+00 -0.00000000000E+00 -0.53879108854E+01  0.53879114889E+01  0.25500000000E-02 0.  1.
         11    1    1    2    0    0 -0.73066146942E+00 -0.51549202375E+02  0.21319040093E+03  0.21933536236E+03  0.51100000000E-03 0. -1.
         22    1    1    2    0    0  0.25707508857E+01 -0.15847996074E+02  0.96876926854E+02  0.98198302920E+02  0.00000000000E+00 0. -1.
         -2    1    1    2    0  501 -0.18400894162E+01  0.67397198449E+02  0.68512408539E+03  0.68843357027E+03  0.25500000000E-02 0.  1.
<mgrwt>
<rscale>  0 0.67422313E+02</rscale>
<asrwt>0</asrwt>
<pdfrwt beam="1">  1       11 0.10000000E+01 0.68453494E+02</pdfrwt>
<pdfrwt beam="2">  1       -2 0.82938960E-03 0.67422313E+02</pdfrwt>
<totfact> 0.17978356E+04</totfact>
</mgrwt>
</event>
<event>
 5    1  0.2799727E-003  0.9621332E+02  0.7818608E-02  0.1294863E+00
         11   -1    0    0    0    0  0.00000000000E+00  0.00000000000E+00  0.10002372276E+04  0.10002372276E+04  0.51100000000E-03 0.  1.
          2   -1    0    0  501    0 -0.00000000000E+00 -0.00000000000E+00 -0.12568824986E+02  0.12568825245E+02  0.25500000000E-02 0.  1.
         11    1    1    2    0    0 -0.20717457794E+02  0.20531225176E+02  0.70755042246E+02  0.76531171872E+02  0.51100000000E-03 0.  1.
         22    1    1    2    0    0 -0.17265204359E+02  0.64777023240E+02  0.15794217808E+03  0.17158053980E+03  0.00000000000E+00 0.  1.
          2    1    1    2  501    0  0.37982662153E+02 -0.85308248416E+02  0.75897118232E+03  0.76469434120E+03  0.25500000000E-02 0.  1.
<mgrwt>
<rscale>  0 0.93381903E+02</rscale>
<asrwt>0</asrwt>
<pdfrwt beam="1">  1       11 0.10000000E+01 0.96213320E+02</pdfrwt>
<pdfrwt beam="2">  1        2 0.19341241E-02 0.93381903E+02</pdfrwt>
<totfact> 0.62449531E+03</totfact>
</mgrwt>
</event>
<event>
 5    1  0.2799727E-003  0.1383769E+03  0.7818608E-02  0.1617394E+00
         11   -1    0    0    0    0  0.00000000000E+00  0.00000000000E+00  0.99982931815E+03  0.99982931815E+03  0.51100000000E-03 0.  1.
          2   -1    0    0  501    0 -0.00000000000E+00 -0.00000000000E+00 -0.47984396553E+03  0.47984396554E+03  0.25500000000E-02 0.  1.
         11    1    1    2    0    0 -0.64156134098E+02  0.12724740533E+03  0.29105289807E+03  0.32406743308E+03  0.51100000000E-03 0.  1.
         22    1    1    2    0    0  0.36342516356E+02 -0.13259819077E+03  0.68499900230E+03  0.69866064140E+03  0.00000000000E+00 0.  1.
          2    1    1    2  501    0  0.27813617741E+02  0.53507854439E+01 -0.45606654775E+03  0.45694520921E+03  0.25500000000E-02 0.  1.
<mgrwt>
<rscale>  0 0.28323634E+02</rscale>
<asrwt>0</asrwt>
<pdfrwt beam="1">  1       11 0.10000000E+01 0.13837690E+03</pdfrwt>
<pdfrwt beam="2">  1        2 0.73809546E-01 0.28323634E+02</pdfrwt>
<totfact> 0.83331738E+01</totfact>
</mgrwt>
</event>
<event>
 5    1  0.2799727E-003  0.1462782E+03  0.7818608E-02  0.1205122E+00
         11   -1    0    0    0    0  0.00000000000E+00  0.00000000000E+00  0.10005526279E+04  0.10005526279E+04  0.51100000000E-03 0.  1.
          2   -1    0    0  501    0 -0.00000000000E+00 -0.00000000000E+00 -0.36300265228E+02  0.36300265318E+02  0.25500000000E-02 0.  1.
         11    1    1    2    0    0 -0.70233519147E+02  0.12739463962E+03  0.16727256306E+03  0.22168051734E+03  0.51100000000E-03 0.  1.
         22    1    1    2    0    0 -0.19223137942E+02 -0.65515211758E+01  0.74824204255E+02  0.77531367874E+02  0.00000000000E+00 0. -1.
          2    1    1    2  501    0  0.89456657089E+02 -0.12084311845E+03  0.72215559535E+03  0.73764100800E+03  0.25500000000E-02 0.  1.
<mgrwt>
<rscale>  0 0.14627815E+03</rscale>
<asrwt>0</asrwt>
<pdfrwt beam="1">  1       11 0.10000000E+01 0.20308901E+02</pdfrwt>
<pdfrwt beam="2">  1        2 0.55877423E-02 0.14627815E+03</pdfrwt>
<totfact> 0.15951835E+03</totfact>
</mgrwt>
</event>
<event>
 5    1  0.2799727E-003  0.2264688E+03  0.7818608E-02  0.1131974E+00
         11   -1    0    0    0    0  0.00000000000E+00  0.00000000000E+00  0.10002456603E+04  0.10002456603E+04  0.51100000000E-03 0. -1.
          2   -1    0    0  501    0 -0.00000000000E+00 -0.00000000000E+00 -0.50777334863E+02  0.50777334927E+02  0.25500000000E-02 0. -1.
         11    1    1    2    0    0  0.12789256536E+03  0.17312696511E+03  0.40664038781E+03  0.46009331589E+03  0.51100000000E-03 0. -1.
         22    1    1    2    0    0  0.10899593082E+02  0.88047297348E+00  0.26803575577E+02  0.28948368274E+02  0.00000000000E+00 0. -1.
          2    1    1    2  501    0 -0.13879215844E+03 -0.17400743809E+03  0.51602436204E+03  0.56198131106E+03  0.25500000000E-02 0. -1.
<mgrwt>
<rscale>  0 0.22257999E+03</rscale>
<asrwt>0</asrwt>
<pdfrwt beam="1">  1       11 0.10000000E+01 0.22646876E+03</pdfrwt>
<pdfrwt beam="2">  1        2 0.78138165E-02 0.22257999E+03</pdfrwt>
<totfact> 0.10655137E+03</totfact>
</mgrwt>
</event>
<event>
 5    1  0.2799727E-003  0.3865968E+02  0.7818608E-02  0.1598330E+00
         11   -1    0    0    0    0  0.00000000000E+00  0.00000000000E+00  0.10002439619E+04  0.10002439619E+04  0.51100000000E-03 0.  1.
          2   -1    0    0  501    0 -0.00000000000E+00 -0.00000000000E+00 -0.18261865451E+02  0.18261865629E+02  0.25500000000E-02 0.  1.
         11    1    1    2    0    0 -0.34776014733E+01  0.37954171686E+02  0.72862894267E+01  0.38803387407E+02  0.51100000000E-03 0.  1.
         22    1    1    2    0    0 -0.21692022947E+02 -0.83572349334E+01  0.62556585014E+02  0.66736148855E+02  0.00000000000E+00 0.  1.
          2    1    1    2  501    0  0.25169624420E+02 -0.29596936752E+02  0.91213922205E+03  0.91296629131E+03  0.25500000000E-02 0.  1.
<mgrwt>
<rscale>  0 0.29978182E+02</rscale>
<asrwt>0</asrwt>
<pdfrwt beam="1">  1       11 0.10000000E+01 0.38659681E+02</pdfrwt>
<pdfrwt beam="2">  1        2 0.28102031E-02 0.29978182E+02</pdfrwt>
<totfact> 0.32523147E+03</totfact>
</mgrwt>
</event>
<event>
 5    1  0.2799727E-003  0.7215798E+02  0.7818608E-02  0.1352905E+00
         11   -1    0    0    0    0  0.00000000000E+00  0.00000000000E+00  0.10002458030E+04  0.10002458030E+04  0.51100000000E-03 0. -1.
          2   -1    0    0  501    0 -0.00000000000E+00 -0.00000000000E+00 -0.20210668513E+02  0.20210668674E+02  0.25500000000E-02 0. -1.
         11    1    1    2    0    0  0.10177365129E+02  0.37035972612E+02  0.13973497922E+02  0.40871758865E+02  0.51100000000E-03 0. -1.
         22    1    1    2    0    0  0.65168905598E+02 -0.34609865412E+02  0.28631309104E+03  0.29566875915E+03  0.00000000000E+00 0. -1.
          2    1    1    2  501    0 -0.75346270727E+02 -0.24261072001E+01  0.67974854551E+03  0.68391595363E+03  0.25500000000E-02 0. -1.
<mgrwt>
<rscale>  0 0.72157982E+02</rscale>
<asrwt>0</asrwt>
<pdfrwt beam="1">  1       11 0.10000000E+01 0.38408899E+02</pdfrwt>
<pdfrwt beam="2">  1        2 0.31100978E-02 0.72157982E+02</pdfrwt>
<totfact> 0.32093636E+03</totfact>
</mgrwt>
</event>
<event>
 5    1  0.2799727E-003  0.4991476E+02  0.7818608E-02  0.1445802E+00
         11   -1    0    0    0    0  0.00000000000E+00  0.00000000000E+00  0.10003331383E+04  0.10003331383E+04  0.51100000000E-03 0. -1.
          2   -1    0    0  501    0 -0.00000000000E+00 -0.00000000000E+00 -0.11460347288E+02  0.11460347571E+02  0.25500000000E-02 0. -1.
         11    1    1    2    0    0 -0.15015324253E+02  0.24539287338E+02  0.28202570160E+02  0.40286741608E+02  0.51100000000E-03 0. -1.
         22    1    1    2    0    0  0.21754109092E+02  0.42359424942E+02  0.13591703704E+03  0.14401737083E+03  0.00000000000E+00 0.  1.
          2    1    1    2  501    0 -0.67387848386E+01 -0.66898712280E+02  0.82475318377E+03  0.82748937339E+03  0.25500000000E-02 0. -1.
<mgrwt>
<rscale>  0 0.49914759E+02</rscale>
<asrwt>0</asrwt>
<pdfrwt beam="1">  1       11 0.10000000E+01 0.28768688E+02</pdfrwt>
<pdfrwt beam="2">  1        2 0.17637177E-02 0.49914759E+02</pdfrwt>
<totfact> 0.64614601E+03</totfact>
</mgrwt>
</event>
<event>
 5    1  0.2799727E-003  0.1888263E+03  0.7818608E-02  0.1162534E+00
         11   -1    0    0    0    0  0.00000000000E+00  0.00000000000E+00  0.10001994548E+04  0.10001994548E+04  0.51100000000E-03 0. -1.
          2   -1    0    0  501    0 -0.00000000000E+00 -0.00000000000E+00 -0.12693294286E+04  0.12693294286E+04  0.25500000000E-02 0. -1.
         11    1    1    2    0    0 -0.40899853142E+02  0.35133523384E+02  0.29249533979E+03  0.29742341241E+03  0.51100000000E-03 0. -1.
         22    1    1    2    0    0 -0.58823922320E+02  0.12134418118E+03  0.69190133667E+03  0.70491994143E+03  0.00000000000E+00 0. -1.
          2    1    1    2  501    0  0.99723775463E+02 -0.15647770456E+03 -0.12535266502E+04  0.12671855295E+04  0.25500000000E-02 0. -1.
<mgrwt>
<rscale>  0 0.18555351E+03</rscale>
<asrwt>0</asrwt>
<pdfrwt beam="1">  1       11 0.10000000E+01 0.18882633E+03</pdfrwt>
<pdfrwt beam="2">  1        2 0.19532039E+00 0.18555351E+03</pdfrwt>
<totfact> 0.23415221E+01</totfact>
</mgrwt>
</event>
<event>
 5    1  0.2799727E-003  0.2355271E+03  0.7818608E-02  0.1122809E+00
         11   -1    0    0    0    0  0.00000000000E+00  0.00000000000E+00  0.10000606011E+04  0.10000606011E+04  0.51100000000E-03 0.  1.
          2   -1    0    0  501    0 -0.00000000000E+00 -0.00000000000E+00 -0.29012324833E+03  0.29012324834E+03  0.25500000000E-02 0. -1.
         11    1    1    2    0    0  0.20614185857E+03  0.51303824610E+02  0.88318193991E+03  0.90837045706E+03  0.51100000000E-03 0.  1.
         22    1    1    2    0    0  0.26905875571E+02 -0.89117946059E+01  0.49256214476E+02  0.56828873716E+02  0.00000000000E+00 0. -1.
          2    1    1    2  501    0 -0.23304773414E+03 -0.42392030004E+02 -0.22250080167E+03  0.32498451862E+03  0.25500000000E-02 0. -1.
<mgrwt>
<rscale>  0 0.23552708E+03</rscale>
<asrwt>0</asrwt>
<pdfrwt beam="1">  1       11 0.10000000E+01 0.28343363E+02</pdfrwt>
<pdfrwt beam="2">  1        2 0.44637050E-01 0.23552708E+03</pdfrwt>
<totfact> 0.14065616E+02</totfact>
</mgrwt>
</event>
<event>
 5    1  0.2799727E-003  0.1286455E+03  0.7818608E-02  0.1391799E+00
         11   -1    0    0    0    0  0.00000000000E+00  0.00000000000E+00  0.10002291751E+04  0.10002291751E+04  0.51100000000E-03 0. -1.
          2   -1    0    0  501    0 -0.00000000000E+00 -0.00000000000E+00 -0.21891509475E+02  0.21891509624E+02  0.25500000000E-02 0. -1.
         11    1    1    2    0    0 -0.46716785734E+02  0.11749608257E+03  0.37405486782E+03  0.39484785884E+03  0.51100000000E-03 0. -1.
         22    1    1    2    0    0  0.26513542003E+02  0.12619730816E+02  0.54127471422E+02  0.61579287735E+02  0.00000000000E+00 0.  1.
          2    1    1    2  501    0  0.20203243731E+02 -0.13011581339E+03  0.55015532641E+03  0.56569353818E+03  0.25500000000E-02 0. -1.
<mgrwt>
<rscale>  0 0.61461406E+02</rscale>
<asrwt>0</asrwt>
<pdfrwt beam="1">  1       11 0.10000000E+01 0.12864555E+03</pdfrwt>
<pdfrwt beam="2">  1        2 0.33686963E-02 0.61461406E+02</pdfrwt>
<totfact> 0.28364457E+03</totfact>
</mgrwt>
</event>
<event>
 5    1  0.2799727E-003  0.2637573E+02  0.7818608E-02  0.1641993E+00
         11   -1    0    0    0    0  0.00000000000E+00  0.00000000000E+00  0.99997113348E+03  0.99997113348E+03  0.51100000000E-03 0.  1.
          2   -1    0    0  501    0 -0.00000000000E+00 -0.00000000000E+00 -0.72504310764E+01  0.72504315248E+01  0.25500000000E-02 0.  1.
         11    1    1    2    0    0 -0.20747596850E+02 -0.11998577372E+02  0.23058378891E+02  0.33258344386E+02  0.51100000000E-03 0.  1.
         22    1    1    2    0    0 -0.16024064533E+01 -0.24930156334E+02  0.94789357870E+02  0.98026031066E+02  0.00000000000E+00 0. -1.
          2    1    1    2  501    0  0.22350003303E+02  0.36928733706E+02  0.87487296564E+03  0.87593718955E+03  0.25500000000E-02 0.  1.
<mgrwt>
<rscale>  0 0.26375727E+02</rscale>
<asrwt>0</asrwt>
<pdfrwt beam="1">  1       11 0.10000000E+01 0.23967253E+02</pdfrwt>
<pdfrwt beam="2">  1        2 0.11154187E-02 0.26375727E+02</pdfrwt>
<totfact> 0.10519125E+04</totfact>
</mgrwt>
</event>
<event>
 5    1  0.2799727E-003  0.6935375E+03  0.7818608E-02  0.9797009E-01
         11   -1    0    0    0    0  0.00000000000E+00  0.00000000000E+00  0.10008928357E+04  0.10008928357E+04  0.51100000000E-03 0. -1.
          2   -1    0    0  501    0 -0.00000000000E+00 -0.00000000000E+00 -0.12436541199E+04  0.12436541199E+04  0.25500000000E-02 0. -1.
         11    1    1    2    0    0 -0.69135759417E+02 -0.25935709687E+03  0.20849605957E+03  0.33987713042E+03  0.51100000000E-03 0. -1.
         22    1    1    2    0    0 -0.30030106381E+03 -0.28179630881E+03  0.56277856069E+03  0.69735901583E+03  0.00000000000E+00 0. -1.
          2    1    1    2  501    0  0.36943682322E+03  0.54115340568E+03 -0.10140359045E+04  0.12073108094E+04  0.25500000000E-02 0. -1.
<mgrwt>
<rscale>  0 0.65523322E+03</rscale>
<asrwt>0</asrwt>
<pdfrwt beam="1">  1       11 0.10000000E+01 0.69353751E+03</pdfrwt>
<pdfrwt beam="2">  1        2 0.19150223E+00 0.65523322E+03</pdfrwt>
<totfact> 0.22405416E+01</totfact>
</mgrwt>
</event>
<event>
 5    1  0.2799727E-003  0.1607770E+03  0.7818608E-02  0.1202762E+00
         11   -1    0    0    0    0  0.00000000000E+00  0.00000000000E+00  0.10002432146E+04  0.10002432146E+04  0.51100000000E-03 0. -1.
         -2   -1    0    0    0  501 -0.00000000000E+00 -0.00000000000E+00 -0.38463323625E+02  0.38463323710E+02  0.25500000000E-02 0.  1.
         11    1    1    2    0    0  0.93684627345E+01 -0.11067239294E+03  0.53731961679E+03  0.54867888354E+03  0.51100000000E-03 0. -1.
         22    1    1    2    0    0  0.39926108240E+02 -0.29038944561E+02  0.27567330262E+03  0.28005914411E+03  0.00000000000E+00 0. -1.
         -2    1    1    2    0  501 -0.49294570975E+02  0.13971133750E+03  0.14878697154E+03  0.20996851064E+03  0.25500000000E-02 0.  1.
<mgrwt>
<rscale>  0 0.14815267E+03</rscale>
<asrwt>0</asrwt>
<pdfrwt beam="1">  1       11 0.10000000E+01 0.16077696E+03</pdfrwt>
<pdfrwt beam="2">  1       -2 0.59188734E-02 0.14815267E+03</pdfrwt>
<totfact> 0.11534312E+03</totfact>
</mgrwt>
</event>
<event>
 5    1  0.2799727E-003  0.2097468E+03  0.7818608E-02  0.1150480E+00
         11   -1    0    0    0    0  0.00000000000E+00  0.00000000000E+00  0.10002873161E+04  0.10002873161E+04  0.51100000000E-03 0.  1.
          2   -1    0    0  501    0 -0.00000000000E+00 -0.00000000000E+00 -0.15135926494E+04  0.15135926494E+04  0.25500000000E-02 0.  1.
         11    1    1    2    0    0 -0.12012224406E+03  0.45087108191E+02  0.52055218440E+03  0.53613130623E+03  0.51100000000E-03 0.  1.
         22    1    1    2    0    0 -0.47974481132E+02  0.61655570295E+02  0.46206954967E+03  0.46862696137E+03  0.00000000000E+00 0.  1.
          2    1    1    2  501    0  0.16809672519E+03 -0.10674267849E+03 -0.14959270674E+04  0.15091216980E+04  0.25500000000E-02 0.  1.
<mgrwt>
<rscale>  0 0.19912435E+03</rscale>
<asrwt>0</asrwt>
<pdfrwt beam="1">  1       11 0.10000000E+01 0.20974676E+03</pdfrwt>
<pdfrwt beam="2">  1        2 0.23292731E+00 0.19912435E+03</pdfrwt>
<totfact> 0.17210210E+01</totfact>
</mgrwt>
</event>
<event>
 5    1  0.2799727E-003  0.4826904E+03  0.7818608E-02  0.1019917E+00
         11   -1    0    0    0    0  0.00000000000E+00  0.00000000000E+00  0.10003500147E+04  0.10003500147E+04  0.51100000000E-03 0.  1.
          2   -1    0    0  501    0 -0.00000000000E+00 -0.00000000000E+00 -0.45937523333E+03  0.45937523333E+03  0.25500000000E-02 0.  1.
         11    1    1    2    0    0 -0.20404341730E+03  0.36987630749E+03  0.72019708942E+03  0.83494074436E+03  0.51100000000E-03 0.  1.
         22    1    1    2    0    0 -0.93091843464E+01  0.56934167369E+02  0.66524987703E+02  0.88055291244E+02  0.00000000000E+00 0.  1.
          2    1    1    2  501    0  0.21335260165E+03 -0.42681047486E+03 -0.24574729576E+03  0.53672921242E+03  0.25500000000E-02 0.  1.
<mgrwt>
<rscale>  0 0.47716508E+03</rscale>
<asrwt>0</asrwt>
<pdfrwt beam="1">  1       11 0.10000000E+01 0.48269043E+03</pdfrwt>
<pdfrwt beam="2">  1        2 0.70697847E-01 0.47716508E+03</pdfrwt>
<totfact> 0.84560556E+01</totfact>
</mgrwt>
</event>
<event>
 5    1  0.2799727E-003  0.1151437E+03  0.7818608E-02  0.1262382E+00
         11   -1    0    0    0    0  0.00000000000E+00  0.00000000000E+00  0.10002616261E+04  0.10002616261E+04  0.51100000000E-03 0. -1.
          2   -1    0    0  501    0 -0.00000000000E+00 -0.00000000000E+00 -0.34054699325E+02  0.34054699421E+02  0.25500000000E-02 0. -1.
         11    1    1    2    0    0  0.29618798071E+01  0.90956171600E+02  0.44573322702E+02  0.10133399716E+03  0.51100000000E-03 0. -1.
         22    1    1    2    0    0  0.23719295762E+01  0.17940554219E+02  0.32580525514E+02  0.37269024382E+02  0.00000000000E+00 0.  1.
          2    1    1    2  501    0 -0.53338093833E+01 -0.10889672582E+03  0.88905307853E+03  0.89571330394E+03  0.25500000000E-02 0. -1.
<mgrwt>
<rscale>  0 0.10902727E+03</rscale>
<asrwt>0</asrwt>
<pdfrwt beam="1">  1       11 0.10000000E+01 0.11514374E+03</pdfrwt>
<pdfrwt beam="2">  1        2 0.52405551E-02 0.10902727E+03</pdfrwt>
<totfact> 0.16928368E+03</totfact>
</mgrwt>
</event>
<event>
 5    1  0.2799727E-003  0.7427709E+02  0.7818608E-02  0.1346124E+00
         11   -1    0    0    0    0  0.00000000000E+00  0.00000000000E+00  0.99995496327E+03  0.99995496327E+03  0.51100000000E-03 0. -1.
          2   -1    0    0  501    0 -0.00000000000E+00 -0.00000000000E+00 -0.13798802336E+02  0.13798802571E+02  0.25500000000E-02 0. -1.
         11    1    1    2    0    0 -0.45727056423E+02  0.21236425163E+02  0.90236483759E+02  0.10336620552E+03  0.51100000000E-03 0. -1.
         22    1    1    2    0    0 -0.57197053622E+02 -0.98845533005E+01  0.33433347929E+03  0.33933476497E+03  0.00000000000E+00 0. -1.
          2    1    1    2  501    0  0.10292411005E+03 -0.11351871863E+02  0.56158619788E+03  0.57105279535E+03  0.25500000000E-02 0. -1.
<mgrwt>
<rscale>  0 0.74277090E+02</rscale>
<asrwt>0</asrwt>
<pdfrwt beam="1">  1       11 0.10000000E+01 0.50417774E+02</pdfrwt>
<pdfrwt beam="2">  1        2 0.21227970E-02 0.74277090E+02</pdfrwt>
<totfact> 0.53470208E+03</totfact>
</mgrwt>
</event>
<event>
 5    1  0.2799727E-003  0.1204068E+03  0.7818608E-02  0.1250871E+00
         11   -1    0    0    0    0  0.00000000000E+00  0.00000000000E+00  0.10003347132E+04  0.10003347132E+04  0.51100000000E-03 0.  1.
         -2   -1    0    0    0  501 -0.00000000000E+00 -0.00000000000E+00 -0.14598164945E+02  0.14598165168E+02  0.25500000000E-02 0.  1.
         11    1    1    2    0    0 -0.70737910312E+01  0.68487325911E+02  0.23414687856E+03  0.24406006038E+03  0.51100000000E-03 0.  1.
         22    1    1    2    0    0 -0.32297899667E+02  0.39996733843E+02  0.15751285053E+03  0.16569004534E+03  0.00000000000E+00 0.  1.
         -2    1    1    2    0  501  0.39371690698E+02 -0.10848405975E+03  0.59407681918E+03  0.60518277268E+03  0.25500000000E-02 0.  1.
<mgrwt>
<rscale>  0 0.11540763E+03</rscale>
<asrwt>0</asrwt>
<pdfrwt beam="1">  1       11 0.10000000E+01 0.12040683E+03</pdfrwt>
<pdfrwt beam="2">  1       -2 0.22466232E-02 0.11540763E+03</pdfrwt>
<totfact> 0.47214496E+03</totfact>
</mgrwt>
</event>
<event>
 5    1  0.2799727E-003  0.1100407E+03  0.7818608E-02  0.1616700E+00
         11   -1    0    0    0    0  0.00000000000E+00  0.00000000000E+00  0.10000219106E+04  0.10000219106E+04  0.51100000000E-03 0. -1.
          2   -1    0    0  501    0 -0.00000000000E+00 -0.00000000000E+00 -0.23113665943E+02  0.23113666083E+02  0.25500000000E-02 0.  1.
         11    1    1    2    0    0 -0.45385118388E+02  0.11877203998E+03  0.50358388793E+03  0.51938746484E+03  0.51100000000E-03 0. -1.
         22    1    1    2    0    0  0.35555583307E+02 -0.92147011136E+02  0.46320246364E+03  0.47361566010E+03  0.00000000000E+00 0.  1.
          2    1    1    2  501    0  0.98295350807E+01 -0.26625028839E+02  0.10121893049E+02  0.30132451709E+02  0.25500000000E-02 0.  1.
<mgrwt>
<rscale>  0 0.28381542E+02</rscale>
<asrwt>0</asrwt>
<pdfrwt beam="1">  1       11 0.10000000E+01 0.11004073E+03</pdfrwt>
<pdfrwt beam="2">  1        2 0.35560264E-02 0.28381542E+02</pdfrwt>
<totfact> 0.23920935E+03</totfact>
</mgrwt>
</event>
<event>
 5    1  0.2799727E-003  0.7268332E+03  0.7818608E-02  0.9754553E-01
         11   -1    0    0    0    0  0.00000000000E+00  0.00000000000E+00  0.10003204807E+04  0.10003204807E+04  0.51100000000E-03 0.  1.
          2   -1    0    0  501    0 -0.00000000000E+00 -0.00000000000E+00 -0.63779778605E+03  0.63779778605E+03  0.25500000000E-02 0.  1.
         11    1    1    2    0    0 -0.40360934816E+03 -0.20650675653E+03  0.23086864868E+03  0.50876898427E+03  0.51100000000E-03 0.  1.
         22    1    1    2    0    0 -0.15373556215E+03 -0.18060948597E+03  0.34441467925E+03  0.41818163610E+03  0.00000000000E+00 0.  1.
          2    1    1    2  501    0  0.55734491031E+03  0.38711624249E+03 -0.21276063323E+03  0.71116764642E+03  0.25500000000E-02 0.  1.
<mgrwt>
<rscale>  0 0.67859585E+03</rscale>
<asrwt>0</asrwt>
<pdfrwt beam="1">  1       11 0.10000000E+01 0.72683323E+03</pdfrwt>
<pdfrwt beam="2">  1        2 0.98154180E-01 0.67859585E+03</pdfrwt>
<totfact> 0.57160568E+01</totfact>
</mgrwt>
</event>
<event>
 5    1  0.2799727E-003  0.1507090E+03  0.7818608E-02  0.1199604E+00
         11   -1    0    0    0    0  0.00000000000E+00  0.00000000000E+00  0.99993029280E+03  0.99993029280E+03  0.51100000000E-03 0. -1.
          2   -1    0    0  501    0 -0.00000000000E+00 -0.00000000000E+00 -0.10879994362E+03  0.10879994365E+03  0.25500000000E-02 0. -1.
         11    1    1    2    0    0 -0.88224598100E+01  0.79933299151E+01 -0.14841930943E+02  0.19026613850E+02  0.51100000000E-03 0. -1.
         22    1    1    2    0    0  0.10761385482E+03 -0.12076505309E+03  0.92458570158E+03  0.93862860566E+03  0.00000000000E+00 0. -1.
          2    1    1    2  501    0 -0.98791395011E+02  0.11277172318E+03 -0.18613421465E+02  0.15107501694E+03  0.25500000000E-02 0. -1.
<mgrwt>
<rscale>  0 0.15070899E+03</rscale>
<asrwt>0</asrwt>
<pdfrwt beam="1">  1       11 0.10000000E+01 0.11905010E+02</pdfrwt>
<pdfrwt beam="2">  1        2 0.16737286E-01 0.15070899E+03</pdfrwt>
<totfact> 0.41346762E+02</totfact>
</mgrwt>
</event>
<event>
 5    1  0.2799727E-003  0.8835454E+02  0.7818608E-02  0.1326247E+00
         11   -1    0    0    0    0  0.00000000000E+00  0.00000000000E+00  0.10000164191E+04  0.10000164191E+04  0.51100000000E-03 0. -1.
         -2   -1    0    0    0  501 -0.00000000000E+00 -0.00000000000E+00 -0.80006894544E+01  0.80006898608E+01  0.25500000000E-02 0. -1.
         11    1    1    2    0    0  0.28847580232E+01 -0.56697448012E+02  0.25757746733E+03  0.26375950052E+03  0.51100000000E-03 0. -1.
         22    1    1    2    0    0  0.22677437927E+02 -0.20159590087E+02  0.95460620027E+02  0.10016688694E+03  0.00000000000E+00 0. -1.
         -2    1    1    2    0  501 -0.25562195950E+02  0.76857038099E+02  0.63897764225E+03  0.64409072146E+03  0.25500000000E-02 0. -1.
<mgrwt>
<rscale>  0 0.80996482E+02</rscale>
<asrwt>0</asrwt>
<pdfrwt beam="1">  1       11 0.10000000E+01 0.88354538E+02</pdfrwt>
<pdfrwt beam="2">  1       -2 0.12308955E-02 0.80996482E+02</pdfrwt>
<totfact> 0.10640045E+04</totfact>
</mgrwt>
</event>
<event>
 5    1  0.2799727E-003  0.1737666E+03  0.7818608E-02  0.1181277E+00
         11   -1    0    0    0    0  0.00000000000E+00  0.00000000000E+00  0.99993219607E+03  0.99993219607E+03  0.51100000000E-03 0. -1.
          2   -1    0    0  501    0 -0.00000000000E+00 -0.00000000000E+00 -0.34431929854E+02  0.34431929949E+02  0.25500000000E-02 0. -1.
         11    1    1    2    0    0 -0.10516180955E+03  0.10553523417E+03  0.58570776533E+03  0.60435939491E+03  0.51100000000E-03 0. -1.
         22    1    1    2    0    0  0.86581965250E+00  0.24575362482E+02  0.11097995537E+03  0.11367167008E+03  0.00000000000E+00 0. -1.
          2    1    1    2  501    0  0.10429598990E+03 -0.13011059665E+03  0.26881254552E+03  0.31633306104E+03  0.25500000000E-02 0. -1.
<mgrwt>
<rscale>  0 0.16675257E+03</rscale>
<asrwt>0</asrwt>
<pdfrwt beam="1">  1       11 0.10000000E+01 0.17376660E+03</pdfrwt>
<pdfrwt beam="2">  1        2 0.52968607E-02 0.16675257E+03</pdfrwt>
<totfact> 0.17274507E+03</totfact>
</mgrwt>
</event>
<event>
 5    1  0.2799727E-003  0.2206695E+03  0.7818608E-02  0.1133385E+00
         11   -1    0    0    0    0  0.00000000000E+00  0.00000000000E+00  0.10001118505E+04  0.10001118505E+04  0.51100000000E-03 0. -1.
          2   -1    0    0  501    0 -0.00000000000E+00 -0.00000000000E+00 -0.67116948881E+02  0.67116948930E+02  0.25500000000E-02 0. -1.
         11    1    1    2    0    0  0.16365604918E+03 -0.13476916054E+03  0.64971348448E+03  0.68342786085E+03  0.51100000000E-03 0. -1.
         22    1    1    2    0    0 -0.69560823080E+01 -0.25954137765E+02  0.66577917191E+02  0.71795706039E+02  0.00000000000E+00 0. -1.
          2    1    1    2  501    0 -0.15669996688E+03  0.16072329830E+03  0.21670349994E+03  0.31200523253E+03  0.25500000000E-02 0. -1.
<mgrwt>
<rscale>  0 0.22066949E+03</rscale>
<asrwt>0</asrwt>
<pdfrwt beam="1">  1       11 0.10000000E+01 0.26870139E+02</pdfrwt>
<pdfrwt beam="2">  1        2 0.10326839E-01 0.22066949E+03</pdfrwt>
<totfact> 0.75001744E+02</totfact>
</mgrwt>
</event>
<event>
 5    1  0.2799727E-003  0.1619645E+03  0.7818608E-02  0.1411770E+00
         11   -1    0    0    0    0  0.00000000000E+00  0.00000000000E+00  0.10000936611E+04  0.10000936611E+04  0.51100000000E-03 0. -1.
          2   -1    0    0  501    0 -0.00000000000E+00 -0.00000000000E+00 -0.64934506604E+02  0.64934506654E+02  0.25500000000E-02 0. -1.
         11    1    1    2    0    0  0.11819326840E+03  0.10837204280E+03  0.82868458983E+03  0.84405704652E+03  0.51100000000E-03 0. -1.
         22    1    1    2    0    0 -0.20336917940E+01  0.19815916873E+02  0.54859508500E+01  0.20661609825E+02  0.00000000000E+00 0.  1.
          2    1    1    2  501    0 -0.11615957660E+03 -0.12818795967E+03  0.10098861384E+03  0.20030951144E+03  0.25500000000E-02 0. -1.
<mgrwt>
<rscale>  0 0.56800822E+02</rscale>
<asrwt>0</asrwt>
<pdfrwt beam="1">  1       11 0.10000000E+01 0.16196451E+03</pdfrwt>
<pdfrwt beam="2">  1        2 0.99908595E-02 0.56800822E+02</pdfrwt>
<totfact> 0.72015694E+02</totfact>
</mgrwt>
</event>
<event>
 5    1  0.2799727E-003  0.1096998E+03  0.7818608E-02  0.1322624E+00
         11   -1    0    0    0    0  0.00000000000E+00  0.00000000000E+00  0.99978213538E+03  0.99978213538E+03  0.51100000000E-03 0. -1.
          2   -1    0    0  501    0 -0.00000000000E+00 -0.00000000000E+00 -0.10643404930E+03  0.10643404933E+03  0.25500000000E-02 0. -1.
         11    1    1    2    0    0  0.90152086109E+02  0.79107284236E+02  0.65749538988E+03  0.66834538134E+03  0.51100000000E-03 0. -1.
         22    1    1    2    0    0 -0.13709976526E+02 -0.10962536505E+03  0.30875048576E+03  0.32792155552E+03  0.00000000000E+00 0.  1.
          2    1    1    2  501    0 -0.76442109583E+02  0.30518080817E+02 -0.72897789559E+02  0.10994924785E+03  0.25500000000E-02 0. -1.
<mgrwt>
<rscale>  0 0.82308866E+02</rscale>
<asrwt>0</asrwt>
<pdfrwt beam="1">  1       11 0.10000000E+01 0.10969978E+03</pdfrwt>
<pdfrwt beam="2">  1        2 0.16370901E-01 0.82308866E+02</pdfrwt>
<totfact> 0.41357597E+02</totfact>
</mgrwt>
</event>
<event>
 5    1  0.2799727E-003  0.1829880E+03  0.7818608E-02  0.1169704E+00
         11   -1    0    0    0    0  0.00000000000E+00  0.00000000000E+00  0.10005710619E+04  0.10005710619E+04  0.51100000000E-03 0. -1.
          2   -1    0    0  501    0 -0.00000000000E+00 -0.00000000000E+00 -0.10902997876E+03  0.10902997879E+03  0.25500000000E-02 0.  1.
         11    1    1    2    0    0  0.30662308533E+01  0.73881261544E+02  0.32713056805E+03  0.33538373713E+03  0.51100000000E-03 0. -1.
         22    1    1    2    0    0  0.49369344924E+02  0.96272579642E+02  0.58505458427E+03  0.59497446028E+03  0.00000000000E+00 0. -1.
          2    1    1    2  501    0 -0.52435575777E+02 -0.17015384119E+03 -0.20644069149E+02  0.17924284330E+03  0.25500000000E-02 0.  1.
<mgrwt>
<rscale>  0 0.17805005E+03</rscale>
<asrwt>0</asrwt>
<pdfrwt beam="1">  1       11 0.10000000E+01 0.18298804E+03</pdfrwt>
<pdfrwt beam="2">  1        2 0.16783421E-01 0.17805005E+03</pdfrwt>
<totfact> 0.41466660E+02</totfact>
</mgrwt>
</event>
<event>
 5    1  0.2799727E-003  0.1003474E+03  0.7818608E-02  0.1279567E+00
         11   -1    0    0    0    0  0.00000000000E+00  0.00000000000E+00  0.99976771486E+03  0.99976771486E+03  0.51100000000E-03 0.  1.
          2   -1    0    0  501    0 -0.00000000000E+00 -0.00000000000E+00 -0.22223704116E+02  0.22223704263E+02  0.25500000000E-02 0.  1.
         11    1    1    2    0    0 -0.43323023840E+01 -0.80563461838E+02  0.22842943687E+03  0.24225863836E+03  0.51100000000E-03 0.  1.
         22    1    1    2    0    0  0.88617137960E+02 -0.11541068671E+02  0.36773766598E+03  0.37844046346E+03  0.00000000000E+00 0.  1.
          2    1    1    2  501    0 -0.84284835576E+02  0.92104530509E+02  0.38137690789E+03  0.40129231731E+03  0.25500000000E-02 0.  1.
<mgrwt>
<rscale>  0 0.10034735E+03</rscale>
<asrwt>0</asrwt>
<pdfrwt beam="1">  1       11 0.10000000E+01 0.80679903E+02</pdfrwt>
<pdfrwt beam="2">  1        2 0.34182371E-02 0.10034735E+03</pdfrwt>
<totfact> 0.29384164E+03</totfact>
</mgrwt>
</event>
<event>
 5    1  0.2799727E-003  0.2607693E+03  0.7818608E-02  0.1114985E+00
         11   -1    0    0    0    0  0.00000000000E+00  0.00000000000E+00  0.10001182994E+04  0.10001182994E+04  0.51100000000E-03 0.  1.
          2   -1    0    0  501    0 -0.00000000000E+00 -0.00000000000E+00 -0.10856302730E+04  0.10856302730E+04  0.25500000000E-02 0.  1.
         11    1    1    2    0    0  0.11694676749E+03 -0.45764260490E+02  0.34625878475E+03  0.36832873901E+03  0.51100000000E-03 0.  1.
         22    1    1    2    0    0  0.12476386352E+03 -0.67978278499E+01  0.62229690130E+03  0.63471699636E+03  0.00000000000E+00 0.  1.
          2    1    1    2  501    0 -0.24171063102E+03  0.52562088340E+02 -0.10540676596E+04  0.10827028370E+04  0.25500000000E-02 0.  1.
<mgrwt>
<rscale>  0 0.24735966E+03</rscale>
<asrwt>0</asrwt>
<pdfrwt beam="1">  1       11 0.10000000E+01 0.26076930E+03</pdfrwt>
<pdfrwt beam="2">  1        2 0.16703980E+00 0.24735966E+03</pdfrwt>
<totfact> 0.29297127E+01</totfact>
</mgrwt>
</event>
<event>
 5    1  0.2799727E-003  0.5844834E+03  0.7818608E-02  0.9948082E-01
         11   -1    0    0    0    0  0.00000000000E+00  0.00000000000E+00  0.99974174650E+03  0.99974174650E+03  0.51100000000E-03 0. -1.
          2   -1    0    0  501    0 -0.00000000000E+00 -0.00000000000E+00 -0.65482904002E+03  0.65482904002E+03  0.25500000000E-02 0. -1.
         11    1    1    2    0    0 -0.35911477085E+03 -0.39073066489E+03  0.66574397021E+03  0.85138058763E+03  0.51100000000E-03 0. -1.
         22    1    1    2    0    0 -0.17509712213E+02 -0.50175284695E+02  0.81587011207E+02  0.97368319354E+02  0.00000000000E+00 0. -1.
          2    1    1    2  501    0  0.37662448307E+03  0.44090594958E+03 -0.40241827494E+03  0.70582187954E+03  0.25500000000E-02 0. -1.
<mgrwt>
<rscale>  0 0.57986555E+03</rscale>
<asrwt>0</asrwt>
<pdfrwt beam="1">  1       11 0.10000000E+01 0.58448344E+03</pdfrwt>
<pdfrwt beam="2">  1        2 0.10071691E+00 0.57986555E+03</pdfrwt>
<totfact> 0.55614120E+01</totfact>
</mgrwt>
</event>
<event>
 5    1  0.2799727E-003  0.5127621E+02  0.7818608E-02  0.1438577E+00
         11   -1    0    0    0    0  0.00000000000E+00  0.00000000000E+00  0.10003384267E+04  0.10003384267E+04  0.51100000000E-03 0.  1.
          2   -1    0    0  501    0 -0.00000000000E+00 -0.00000000000E+00 -0.58605656974E+01  0.58605662522E+01  0.25500000000E-02 0.  1.
         11    1    1    2    0    0  0.22208303551E+02  0.11535840248E+01  0.46206131581E+02  0.51279100018E+02  0.51100000000E-03 0.  1.
         22    1    1    2    0    0 -0.55115104950E+02  0.17426597240E+02  0.29821200028E+03  0.30376266755E+03  0.00000000000E+00 0.  1.
          2    1    1    2  501    0  0.32906801399E+02 -0.18580181264E+02  0.65005972909E+03  0.65115722534E+03  0.25500000000E-02 0.  1.
<mgrwt>
<rscale>  0 0.51276208E+02</rscale>
<asrwt>0</asrwt>
<pdfrwt beam="1">  1       11 0.10000000E+01 0.22238255E+02</pdfrwt>
<pdfrwt beam="2">  1        2 0.90193064E-03 0.51276208E+02</pdfrwt>
<totfact> 0.15915647E+04</totfact>
</mgrwt>
</event>
<event>
 5    1  0.2799727E-003  0.2033607E+03  0.7818608E-02  0.1159243E+00
         11   -1    0    0    0    0  0.00000000000E+00  0.00000000000E+00  0.10002928745E+04  0.10002928745E+04  0.51100000000E-03 0. -1.
          2   -1    0    0  501    0 -0.00000000000E+00 -0.00000000000E+00 -0.18325976327E+03  0.18325976328E+03  0.25500000000E-02 0. -1.
         11    1    1    2    0    0 -0.33105378561E+02  0.93653000175E+02  0.44008390662E+03  0.45115484636E+03  0.51100000000E-03 0. -1.
         22    1    1    2    0    0 -0.92048323978E+02  0.48152389185E+02  0.49742125892E+03  0.50815298420E+03  0.00000000000E+00 0.  1.
          2    1    1    2  501    0  0.12515370254E+03 -0.14180538936E+03 -0.12047205427E+03  0.22424480725E+03  0.25500000000E-02 0. -1.
<mgrwt>
<rscale>  0 0.18913545E+03</rscale>
<asrwt>0</asrwt>
<pdfrwt beam="1">  1       11 0.10000000E+01 0.20336071E+03</pdfrwt>
<pdfrwt beam="2">  1        2 0.28202066E-01 0.18913545E+03</pdfrwt>
<totfact> 0.23100931E+02</totfact>
</mgrwt>
</event>
<event>
 5    1  0.2799727E-003  0.2926131E+03  0.7818608E-02  0.1093772E+00
         11   -1    0    0    0    0  0.00000000000E+00  0.00000000000E+00  0.10000528927E+04  0.10000528927E+04  0.51100000000E-03 0. -1.
          2   -1    0    0  501    0 -0.00000000000E+00 -0.00000000000E+00 -0.32121992079E+03  0.32121992080E+03  0.25500000000E-02 0. -1.
         11    1    1    2    0    0  0.20463245093E+03  0.81132958800E+02  0.74643312033E+03  0.77821552292E+03  0.51100000000E-03 0. -1.
         22    1    1    2    0    0  0.69013454939E+02 -0.68906752350E+01  0.16328506053E+03  0.17740447954E+03  0.00000000000E+00 0. -1.
          2    1    1    2  501    0 -0.27364590587E+03 -0.74242283565E+02 -0.23088520898E+03  0.36565281101E+03  0.25500000000E-02 0. -1.
<mgrwt>
<rscale>  0 0.28353835E+03</rscale>
<asrwt>0</asrwt>
<pdfrwt beam="1">  1       11 0.10000000E+01 0.29261309E+03</pdfrwt>
<pdfrwt beam="2">  1        2 0.49421062E-01 0.28353835E+03</pdfrwt>
<totfact> 0.12602033E+02</totfact>
</mgrwt>
</event>
<event>
 5    1  0.2799727E-003  0.1857438E+03  0.7818608E-02  0.1166492E+00
         11   -1    0    0    0    0  0.00000000000E+00  0.00000000000E+00  0.99992442320E+03  0.99992442320E+03  0.51100000000E-03 0.  1.
          2   -1    0    0  501    0 -0.00000000000E+00 -0.00000000000E+00 -0.75653386751E+02  0.75653386794E+02  0.25500000000E-02 0.  1.
         11    1    1    2    0    0  0.59561101169E+02 -0.15770428917E+03  0.83549137079E+03  0.85232857412E+03  0.51100000000E-03 0.  1.
         22    1    1    2    0    0  0.82899161980E+01 -0.10486563010E+02  0.29597082030E+02  0.32475806057E+02  0.00000000000E+00 0. -1.
          2    1    1    2  501    0 -0.67851017367E+02  0.16819085218E+03  0.59182583633E+02  0.19077342982E+03  0.25500000000E-02 0.  1.
<mgrwt>
<rscale>  0 0.18136131E+03</rscale>
<asrwt>0</asrwt>
<pdfrwt beam="1">  1       11 0.10000000E+01 0.18574380E+03</pdfrwt>
<pdfrwt beam="2">  1        2 0.11638103E-01 0.18136131E+03</pdfrwt>
<totfact> 0.64156725E+02</totfact>
</mgrwt>
</event>
<event>
 5    1  0.2799727E-003  0.3097352E+03  0.7818608E-02  0.1085861E+00
         11   -1    0    0    0    0  0.00000000000E+00  0.00000000000E+00  0.10001424465E+04  0.10001424465E+04  0.51100000000E-03 0.  1.
          2   -1    0    0  501    0 -0.00000000000E+00 -0.00000000000E+00 -0.11531659822E+03  0.11531659825E+03  0.25500000000E-02 0.  1.
         11    1    1    2    0    0 -0.19710553930E+03 -0.64801555050E+02  0.50363413086E+03  0.54469915819E+03  0.51100000000E-03 0.  1.
         22    1    1    2    0    0 -0.98448367987E+02  0.21131111231E+02  0.19294056199E+03  0.21763424704E+03  0.00000000000E+00 0.  1.
          2    1    1    2  501    0  0.29555390729E+03  0.43670443819E+02  0.18825115546E+03  0.35312563956E+03  0.25500000000E-02 0.  1.
<mgrwt>
<rscale>  0 0.29876282E+03</rscale>
<asrwt>0</asrwt>
<pdfrwt beam="1">  1       11 0.10000000E+01 0.30973524E+03</pdfrwt>
<pdfrwt beam="2">  1        2 0.17743542E-01 0.29876282E+03</pdfrwt>
<totfact> 0.39510809E+02</totfact>
</mgrwt>
</event>
<event>
 5    1  0.2799727E-003  0.2123155E+03  0.7818608E-02  0.1142282E+00
         11   -1    0    0    0    0  0.00000000000E+00  0.00000000000E+00  0.10004244410E+04  0.10004244410E+04  0.51100000000E-03 0. -1.
          2   -1    0    0  501    0 -0.00000000000E+00 -0.00000000000E+00 -0.46046041410E+02  0.46046041481E+02  0.25500000000E-02 0. -1.
         11    1    1    2    0    0  0.67548418921E+01  0.26204591866E+02  0.28099558961E+02  0.39011456496E+02  0.51100000000E-03 0. -1.
         22    1    1    2    0    0  0.64661862766E+02  0.17031902379E+03  0.35303027550E+03  0.39726578230E+03  0.00000000000E+00 0. -1.
          2    1    1    2  501    0 -0.71416704658E+02 -0.19652361566E+03  0.57324856510E+03  0.61019324366E+03  0.25500000000E-02 0. -1.
<mgrwt>
<rscale>  0 0.20909777E+03</rscale>
<asrwt>0</asrwt>
<pdfrwt beam="1">  1       11 0.10000000E+01 0.21231552E+03</pdfrwt>
<pdfrwt beam="2">  1        2 0.70870129E-02 0.20909777E+03</pdfrwt>
<totfact> 0.12028359E+03</totfact>
</mgrwt>
</event>
<event>
 5    1  0.2799727E-003  0.6789757E+02  0.7818608E-02  0.1485666E+00
         11   -1    0    0    0    0  0.00000000000E+00  0.00000000000E+00  0.10004638604E+04  0.10004638604E+04  0.51100000000E-03 0. -1.
          2   -1    0    0  501    0 -0.00000000000E+00 -0.00000000000E+00 -0.99423596784E+01  0.99423600054E+01  0.25500000000E-02 0. -1.
         11    1    1    2    0    0 -0.53012340494E+02  0.59803488277E+02  0.39153353355E+03  0.39960639803E+03  0.51100000000E-03 0. -1.
         22    1    1    2    0    0  0.97974661328E+01 -0.58458546112E+02  0.17826519021E+03  0.18786130522E+03  0.00000000000E+00 0. -1.
          2    1    1    2  501    0  0.43214874361E+02 -0.13449421658E+01  0.42072277700E+03  0.42293851720E+03  0.25500000000E-02 0. -1.
<mgrwt>
<rscale>  0 0.43235798E+02</rscale>
<asrwt>0</asrwt>
<pdfrwt beam="1">  1       11 0.10000000E+01 0.67897574E+02</pdfrwt>
<pdfrwt beam="2">  1        2 0.15303033E-02 0.43235798E+02</pdfrwt>
<totfact> 0.76189938E+03</totfact>
</mgrwt>
</event>
<event>
 5    1  0.2799727E-003  0.9390450E+02  0.7818608E-02  0.1391952E+00
         11   -1    0    0    0    0  0.00000000000E+00  0.00000000000E+00  0.10000484022E+04  0.10000484022E+04  0.51100000000E-03 0.  1.
          2   -1    0    0  501    0 -0.00000000000E+00 -0.00000000000E+00 -0.17153613999E+02  0.17153614189E+02  0.25500000000E-02 0.  1.
         11    1    1    2    0    0 -0.76946368076E+02  0.96109622338E+02  0.40282291197E+03  0.42121740405E+03  0.51100000000E-03 0.  1.
         22    1    1    2    0    0  0.25562934750E+02 -0.30996848150E+02  0.85060579558E+02  0.94072155408E+02  0.00000000000E+00 0.  1.
          2    1    1    2  501    0  0.51383433325E+02 -0.65112774187E+02  0.49501129665E+03  0.50191245690E+03  0.25500000000E-02 0.  1.
<mgrwt>
<rscale>  0 0.61423848E+02</rscale>
<asrwt>0</asrwt>
<pdfrwt beam="1">  1       11 0.10000000E+01 0.93904501E+02</pdfrwt>
<pdfrwt beam="2">  1        2 0.26391452E-02 0.61423848E+02</pdfrwt>
<totfact> 0.39056832E+03</totfact>
</mgrwt>
</event>
<event>
 5    1  0.2799727E-003  0.1934612E+03  0.7818608E-02  0.1155376E+00
         11   -1    0    0    0    0  0.00000000000E+00  0.00000000000E+00  0.10000825000E+04  0.10000825000E+04  0.51100000000E-03 0. -1.
          2   -1    0    0  501    0 -0.00000000000E+00 -0.00000000000E+00 -0.50004124968E+02  0.50004125033E+02  0.25500000000E-02 0. -1.
         11    1    1    2    0    0 -0.14155226587E+03 -0.11721654380E+03  0.26798610342E+03  0.32495124825E+03  0.51100000000E-03 0. -1.
         22    1    1    2    0    0 -0.14656213261E+02 -0.26252321577E+02  0.13640095625E+03  0.13967537307E+03  0.00000000000E+00 0. -1.
          2    1    1    2  501    0  0.15620847913E+03  0.14346886538E+03  0.54569131535E+03  0.58546000371E+03  0.25500000000E-02 0. -1.
<mgrwt>
<rscale>  0 0.19346123E+03</rscale>
<asrwt>0</asrwt>
<pdfrwt beam="1">  1       11 0.10000000E+01 0.30066409E+02</pdfrwt>
<pdfrwt beam="2">  1        2 0.76935768E-02 0.19346123E+03</pdfrwt>
<totfact> 0.10778457E+03</totfact>
</mgrwt>
</event>
<event>
 5    1  0.2799727E-003  0.2697576E+03  0.7818608E-02  0.1259427E+00
         11   -1    0    0    0    0  0.00000000000E+00  0.00000000000E+00  0.10001303657E+04  0.10001303657E+04  0.51100000000E-03 0. -1.
          2   -1    0    0  501    0 -0.00000000000E+00 -0.00000000000E+00 -0.20122622956E+03  0.20122622958E+03  0.25500000000E-02 0. -1.
         11    1    1    2    0    0 -0.37573508938E+01  0.27238440114E+03  0.83796338593E+03  0.88112996534E+03  0.51100000000E-03 0. -1.
         22    1    1    2    0    0 -0.38352986977E+02 -0.24222936040E+02  0.35617056618E+02  0.57673884580E+02  0.00000000000E+00 0. -1.
          2    1    1    2  501    0  0.42110337871E+02 -0.24816146510E+03 -0.74676306459E+02  0.26255274531E+03  0.25500000000E-02 0. -1.
<mgrwt>
<rscale>  0 0.11061969E+03</rscale>
<asrwt>0</asrwt>
<pdfrwt beam="1">  1       11 0.10000000E+01 0.26975755E+03</pdfrwt>
<pdfrwt beam="2">  1        2 0.30961916E-01 0.11061969E+03</pdfrwt>
<totfact> 0.20657427E+02</totfact>
</mgrwt>
</event>
<event>
 5    1  0.2799727E-003  0.1372525E+03  0.7818608E-02  0.1234088E+00
         11   -1    0    0    0    0  0.00000000000E+00  0.00000000000E+00  0.10003585907E+04  0.10003585907E+04  0.51100000000E-03 0. -1.
          2   -1    0    0  501    0 -0.00000000000E+00 -0.00000000000E+00 -0.28093554789E+02  0.28093554904E+02  0.25500000000E-02 0. -1.
         11    1    1    2    0    0 -0.55430695478E+02 -0.85842153212E+02  0.12880023245E+03  0.16441087904E+03  0.51100000000E-03 0. -1.
         22    1    1    2    0    0  0.12909118999E+02 -0.32373059580E+02  0.51566052713E+02  0.62239200929E+02  0.00000000000E+00 0.  1.
          2    1    1    2  501    0  0.42521576479E+02  0.11821521279E+03  0.79189875070E+03  0.80180206558E+03  0.25500000000E-02 0. -1.
<mgrwt>
<rscale>  0 0.12563010E+03</rscale>
<asrwt>0</asrwt>
<pdfrwt beam="1">  1       11 0.10000000E+01 0.13725255E+03</pdfrwt>
<pdfrwt beam="2">  1        2 0.43236351E-02 0.12563010E+03</pdfrwt>
<totfact> 0.22023743E+03</totfact>
</mgrwt>
</event>
<event>
 5    1  0.2799727E-003  0.4753453E+02  0.7818608E-02  0.1705647E+00
         11   -1    0    0    0    0  0.00000000000E+00  0.00000000000E+00  0.99989789457E+03  0.99989789457E+03  0.51100000000E-03 0. -1.
          2   -1    0    0  501    0 -0.00000000000E+00 -0.00000000000E+00 -0.36079630873E+01  0.36079639884E+01  0.25500000000E-02 0. -1.
         11    1    1    2    0    0  0.96995574596E+01 -0.43509335702E+02  0.22092323893E+03  0.22537573340E+03  0.51100000000E-03 0. -1.
         22    1    1    2    0    0 -0.88260675490E+01 -0.53533514814E+01  0.46739039748E+02  0.47865391224E+02  0.00000000000E+00 0.  1.
          2    1    1    2  501    0 -0.87348991061E+00  0.48862687183E+02  0.72862765281E+03  0.73026473394E+03  0.25500000000E-02 0. -1.
<mgrwt>
<rscale>  0 0.22151382E+02</rscale>
<asrwt>0</asrwt>
<pdfrwt beam="1">  1       11 0.10000000E+01 0.47534527E+02</pdfrwt>
<pdfrwt beam="2">  1        2 0.55501462E-03 0.22151382E+02</pdfrwt>
<totfact> 0.25180423E+04</totfact>
</mgrwt>
</event>
<event>
 5    1  0.2799727E-003  0.1265236E+03  0.7818608E-02  0.1236727E+00
         11   -1    0    0    0    0  0.00000000000E+00  0.00000000000E+00  0.10003098607E+04  0.10003098607E+04  0.51100000000E-03 0. -1.
          2   -1    0    0  501    0 -0.00000000000E+00 -0.00000000000E+00 -0.18447406423E+02  0.18447406600E+02  0.25500000000E-02 0. -1.
         11    1    1    2    0    0  0.36745965998E+02 -0.66193694494E+02  0.45593887972E+03  0.46218192657E+03  0.51100000000E-03 0. -1.
         22    1    1    2    0    0  0.82900817174E+01 -0.49280049633E+02  0.23661334489E+03  0.24183284253E+03  0.00000000000E+00 0. -1.
          2    1    1    2  501    0 -0.45036047716E+02  0.11547374413E+03  0.28931022969E+03  0.31474249822E+03  0.25500000000E-02 0. -1.
<mgrwt>
<rscale>  0 0.12394527E+03</rscale>
<asrwt>0</asrwt>
<pdfrwt beam="1">  1       11 0.10000000E+01 0.12652356E+03</pdfrwt>
<pdfrwt beam="2">  1        2 0.28389419E-02 0.12394527E+03</pdfrwt>
<totfact> 0.38489920E+03</totfact>
</mgrwt>
</event>
<event>
 5    1  0.2799727E-003  0.1933249E+03  0.7818608E-02  0.1158908E+00
         11   -1    0    0    0    0  0.00000000000E+00  0.00000000000E+00  0.10003525587E+04  0.10003525587E+04  0.51100000000E-03 0.  1.
          2   -1    0    0  501    0 -0.00000000000E+00 -0.00000000000E+00 -0.21685383540E+03  0.21685383542E+03  0.25500000000E-02 0.  1.
         11    1    1    2    0    0 -0.22181048820E+02 -0.72226741706E+02  0.34431249052E+03  0.35250502446E+03  0.51100000000E-03 0.  1.
         22    1    1    2    0    0  0.10946036156E+02 -0.11694526245E+03  0.60292321988E+03  0.61425761631E+03  0.00000000000E+00 0.  1.
          2    1    1    2  501    0  0.11235012664E+02  0.18917200416E+03 -0.16373698707E+03  0.25044375338E+03  0.25500000000E-02 0.  1.
<mgrwt>
<rscale>  0 0.18950534E+03</rscale>
<asrwt>0</asrwt>
<pdfrwt beam="1">  1       11 0.10000000E+01 0.19332489E+03</pdfrwt>
<pdfrwt beam="2">  1        2 0.33373890E-01 0.18950534E+03</pdfrwt>
<totfact> 0.19221634E+02</totfact>
</mgrwt>
</event>
<event>
 5    1  0.2799727E-003  0.2756335E+02  0.7818608E-02  0.1648286E+00
         11   -1    0    0    0    0  0.00000000000E+00  0.00000000000E+00  0.10001930795E+04  0.10001930795E+04  0.51100000000E-03 0.  1.
          2   -1    0    0  501    0 -0.00000000000E+00 -0.00000000000E+00 -0.16423929855E+01  0.16423949651E+01  0.25500000000E-02 0.  1.
         11    1    1    2    0    0  0.12321800312E+01  0.17240870476E+02  0.89405542440E+02  0.91061061391E+02  0.51100000000E-03 0.  1.
         22    1    1    2    0    0  0.68695188589E+01  0.73683201250E+01  0.40196326593E+02  0.41439438973E+02  0.00000000000E+00 0. -1.
          2    1    1    2  501    0 -0.81016988901E+01 -0.24609190601E+02  0.86894881748E+03  0.86933497410E+03  0.25500000000E-02 0.  1.
<mgrwt>
<rscale>  0 0.25908489E+02</rscale>
<asrwt>0</asrwt>
<pdfrwt beam="1">  1       11 0.10000000E+01 0.27563348E+02</pdfrwt>
<pdfrwt beam="2">  1        2 0.25272478E-03 0.25908489E+02</pdfrwt>
<totfact> 0.74060634E+04</totfact>
</mgrwt>
</event>
<event>
 5    1  0.2799727E-003  0.1725805E+03  0.7818608E-02  0.1175183E+00
         11   -1    0    0    0    0  0.00000000000E+00  0.00000000000E+00  0.10002544277E+04  0.10002544277E+04  0.51100000000E-03 0.  1.
          2   -1    0    0  501    0 -0.00000000000E+00 -0.00000000000E+00 -0.58167773253E+02  0.58167773309E+02  0.25500000000E-02 0.  1.
         11    1    1    2    0    0  0.98690565877E+02 -0.28257523020E+02  0.23035678214E+03  0.25219548466E+03  0.51100000000E-03 0.  1.
         22    1    1    2    0    0 -0.24033412338E+02 -0.14891577672E+03  0.49029049222E+03  0.51297005782E+03  0.00000000000E+00 0.  1.
          2    1    1    2  501    0 -0.74657153539E+02  0.17717329974E+03  0.22143938009E+03  0.29325665853E+03  0.25500000000E-02 0.  1.
<mgrwt>
<rscale>  0 0.17258050E+03</rscale>
<asrwt>0</asrwt>
<pdfrwt beam="1">  1       11 0.10000000E+01 0.10265630E+03</pdfrwt>
<pdfrwt beam="2">  1        2 0.89511648E-02 0.17258050E+03</pdfrwt>
<totfact> 0.88450435E+02</totfact>
</mgrwt>
</event>
<event>
 5    1  0.2799727E-003  0.1185065E+03  0.7818608E-02  0.1245581E+00
         11   -1    0    0    0    0  0.00000000000E+00  0.00000000000E+00  0.10002694628E+04  0.10002694628E+04  0.51100000000E-03 0. -1.
          2   -1    0    0  501    0 -0.00000000000E+00 -0.00000000000E+00 -0.16528522061E+02  0.16528522258E+02  0.25500000000E-02 0. -1.
         11    1    1    2    0    0 -0.43726797376E+02 -0.11078672786E+03  0.53778655210E+03  0.55081767174E+03  0.51100000000E-03 0. -1.
         22    1    1    2    0    0  0.15620794967E+02 -0.43744365023E+01  0.65952279146E+02  0.67917950902E+02  0.00000000000E+00 0. -1.
          2    1    1    2  501    0  0.28106002409E+02  0.11516116436E+03  0.38000210950E+03  0.39806236243E+03  0.25500000000E-02 0. -1.
<mgrwt>
<rscale>  0 0.11850654E+03</rscale>
<asrwt>0</asrwt>
<pdfrwt beam="1">  1       11 0.10000000E+01 0.16221743E+02</pdfrwt>
<pdfrwt beam="2">  1        2 0.25435347E-02 0.11850654E+03</pdfrwt>
<totfact> 0.44406396E+03</totfact>
</mgrwt>
</event>
<event>
 5    1  0.2799727E-003  0.2414138E+03  0.7818608E-02  0.1120178E+00
         11   -1    0    0    0    0  0.00000000000E+00  0.00000000000E+00  0.10002788469E+04  0.10002788469E+04  0.51100000000E-03 0.  1.
          2   -1    0    0  501    0 -0.00000000000E+00 -0.00000000000E+00 -0.14172156231E+03  0.14172156234E+03  0.25500000000E-02 0.  1.
         11    1    1    2    0    0  0.17147324915E+03  0.14832814852E+03  0.80760943161E+03  0.83883091791E+03  0.51100000000E-03 0.  1.
         22    1    1    2    0    0  0.14198497121E+02  0.28326478380E+01  0.61826421560E+02  0.63499036348E+02  0.00000000000E+00 0. -1.
          2    1    1    2  501    0 -0.18567174627E+03 -0.15116079636E+03 -0.10878568606E+02  0.23967045496E+03  0.25500000000E-02 0.  1.
<mgrwt>
<rscale>  0 0.23942344E+03</rscale>
<asrwt>0</asrwt>
<pdfrwt beam="1">  1       11 0.10000000E+01 0.24141384E+03</pdfrwt>
<pdfrwt beam="2">  1        2 0.21809396E-01 0.23942344E+03</pdfrwt>
<totfact> 0.30953738E+02</totfact>
</mgrwt>
</event>
<event>
 5    1  0.2799727E-003  0.5784361E+02  0.7818608E-02  0.1407111E+00
         11   -1    0    0    0    0  0.00000000000E+00  0.00000000000E+00  0.99999823091E+03  0.99999823091E+03  0.51100000000E-03 0. -1.
          2   -1    0    0  501    0 -0.00000000000E+00 -0.00000000000E+00 -0.42516931550E+02  0.42516931626E+02  0.25500000000E-02 0. -1.
         11    1    1    2    0    0  0.24230588796E+02  0.33026655759E+02 -0.19872625979E+02  0.45528042870E+02  0.51100000000E-03 0. -1.
         22    1    1    2    0    0  0.51823340175E+02  0.16750022238E+02  0.91500791128E+02  0.10648294046E+03  0.00000000000E+00 0. -1.
          2    1    1    2  501    0 -0.76053928971E+02 -0.49776677997E+02  0.88585313421E+03  0.89050417921E+03  0.25500000000E-02 0. -1.
<mgrwt>
<rscale>  0 0.57843606E+02</rscale>
<asrwt>0</asrwt>
<pdfrwt beam="1">  1       11 0.10000000E+01 0.40961971E+02</pdfrwt>
<pdfrwt beam="2">  1        2 0.65410546E-02 0.57843606E+02</pdfrwt>
<totfact> 0.12087468E+03</totfact>
</mgrwt>
</event>
<event>
 5    1  0.2799727E-003  0.2426914E+03  0.7818608E-02  0.1118013E+00
         11   -1    0    0    0    0  0.00000000000E+00  0.00000000000E+00  0.10000250816E+04  0.10000250816E+04  0.51100000000E-03 0.  1.
          2   -1    0    0  501    0 -0.00000000000E+00 -0.00000000000E+00 -0.18284538670E+03  0.18284538672E+03  0.25500000000E-02 0.  1.
         11    1    1    2    0    0 -0.68098481529E+02  0.22209303330E+03  0.85402534036E+03  0.88505480091E+03  0.51100000000E-03 0.  1.
         22    1    1    2    0    0 -0.17714641001E+02  0.61151268590E+01  0.38341647572E+02  0.42676518377E+02  0.00000000000E+00 0. -1.
          2    1    1    2  501    0  0.85813122530E+02 -0.22820816016E+03 -0.75187292991E+02  0.25513914908E+03  0.25500000000E-02 0.  1.
<mgrwt>
<rscale>  0 0.24269142E+03</rscale>
<asrwt>0</asrwt>
<pdfrwt beam="1">  1       11 0.10000000E+01 0.18740418E+02</pdfrwt>
<pdfrwt beam="2">  1        2 0.28130764E-01 0.24269142E+03</pdfrwt>
<totfact> 0.23269013E+02</totfact>
</mgrwt>
</event>
<event>
 5    1  0.2799727E-003  0.1676703E+03  0.7818608E-02  0.1187700E+00
         11   -1    0    0    0    0  0.00000000000E+00  0.00000000000E+00  0.10002208623E+04  0.10002208623E+04  0.51100000000E-03 0. -1.
          2   -1    0    0  501    0 -0.00000000000E+00 -0.00000000000E+00 -0.19809891258E+03  0.19809891260E+03  0.25500000000E-02 0.  1.
         11    1    1    2    0    0  0.11828899767E+03 -0.48503549283E+02  0.75358942628E+03  0.76435718396E+03  0.51100000000E-03 0. -1.
         22    1    1    2    0    0  0.38101864517E+02  0.10737507434E+02  0.20544701321E+03  0.20922600552E+03  0.00000000000E+00 0. -1.
          2    1    1    2  501    0 -0.15639086219E+03  0.37766041849E+02 -0.15691448981E+03  0.22473658539E+03  0.25500000000E-02 0.  1.
<mgrwt>
<rscale>  0 0.16088622E+03</rscale>
<asrwt>0</asrwt>
<pdfrwt beam="1">  1       11 0.10000000E+01 0.16767032E+03</pdfrwt>
<pdfrwt beam="2">  1        2 0.30483486E-01 0.16088622E+03</pdfrwt>
<totfact> 0.21155476E+02</totfact>
</mgrwt>
</event>
<event>
 5    1  0.2799727E-003  0.7819852E+02  0.7818608E-02  0.1334243E+00
         11   -1    0    0    0    0  0.00000000000E+00  0.00000000000E+00  0.10003862003E+04  0.10003862003E+04  0.51100000000E-03 0. -1.
          2   -1    0    0  501    0 -0.00000000000E+00 -0.00000000000E+00 -0.93703889792E+01  0.93703893262E+01  0.25500000000E-02 0.  1.
         11    1    1    2    0    0 -0.77621351111E+01 -0.75642451192E+02  0.22916906942E+03  0.24145495137E+03  0.51100000000E-03 0. -1.
         22    1    1    2    0    0 -0.11306213183E+02 -0.72130195784E+01  0.72324453383E+02  0.73557356295E+02  0.00000000000E+00 0. -1.
          2    1    1    2  501    0  0.19068348294E+02  0.82855470770E+02  0.68952228852E+03  0.69474428196E+03  0.25500000000E-02 0.  1.
<mgrwt>
<rscale>  0 0.78198516E+02</rscale>
<asrwt>0</asrwt>
<pdfrwt beam="1">  1       11 0.10000000E+01 0.13411119E+02</pdfrwt>
<pdfrwt beam="2">  1        2 0.14421550E-02 0.78198516E+02</pdfrwt>
<totfact> 0.90619031E+03</totfact>
</mgrwt>
</event>
<event>
 5    1  0.2799727E-003  0.1038697E+03  0.7818608E-02  0.1272363E+00
         11   -1    0    0    0    0  0.00000000000E+00  0.00000000000E+00  0.10000651839E+04  0.10000651839E+04  0.51100000000E-03 0. -1.
         -2   -1    0    0    0  501 -0.00000000000E+00 -0.00000000000E+00 -0.21357114723E+03  0.21357114725E+03  0.25500000000E-02 0.  1.
         11    1    1    2    0    0 -0.14612271903E+03  0.10648591469E+02  0.84333888821E+03  0.85597063144E+03  0.51100000000E-03 0. -1.
         22    1    1    2    0    0  0.47759153903E+02 -0.42409222554E+02  0.12960080373E+03  0.14448476483E+03  0.00000000000E+00 0.  1.
         -2    1    1    2    0  501  0.98363565128E+02  0.31760631084E+02 -0.18644565526E+03  0.21318093490E+03  0.25500000000E-02 0.  1.
<mgrwt>
<rscale>  0 0.10386968E+03</rscale>
<asrwt>0</asrwt>
<pdfrwt beam="1">  1       11 0.10000000E+01 0.63870799E+02</pdfrwt>
<pdfrwt beam="2">  1       -2 0.32859240E-01 0.10386968E+03</pdfrwt>
<totfact> 0.68882524E+01</totfact>
</mgrwt>
</event>
<event>
 5    1  0.2799727E-003  0.1785446E+03  0.7818608E-02  0.1169219E+00
         11   -1    0    0    0    0  0.00000000000E+00  0.00000000000E+00  0.10001261837E+04  0.10001261837E+04  0.51100000000E-03 0. -1.
          2   -1    0    0  501    0 -0.00000000000E+00 -0.00000000000E+00 -0.89249406358E+02  0.89249406395E+02  0.25500000000E-02 0. -1.
         11    1    1    2    0    0  0.77978016007E+02 -0.62549405054E+02  0.25996880644E+03  0.27852608384E+03  0.51100000000E-03 0. -1.
         22    1    1    2    0    0  0.13124216904E+02 -0.10896834230E+03  0.60016569201E+03  0.61011900689E+03  0.00000000000E+00 0. -1.
          2    1    1    2  501    0 -0.91102232910E+02  0.17151774735E+03  0.50742278859E+02  0.20073049935E+03  0.25500000000E-02 0. -1.
<mgrwt>
<rscale>  0 0.17854461E+03</rscale>
<asrwt>0</asrwt>
<pdfrwt beam="1">  1       11 0.10000000E+01 0.99964989E+02</pdfrwt>
<pdfrwt beam="2">  1        2 0.13732410E-01 0.17854461E+03</pdfrwt>
<totfact> 0.52528033E+02</totfact>
</mgrwt>
</event>
<event>
 5    1  0.2799727E-003  0.1652826E+03  0.7818608E-02  0.1380225E+00
         11   -1    0    0    0    0  0.00000000000E+00  0.00000000000E+00  0.10003690020E+04  0.10003690020E+04  0.51100000000E-03 0. -1.
          2   -1    0    0  501    0 -0.00000000000E+00 -0.00000000000E+00 -0.11413733946E+04  0.11413733946E+04  0.25500000000E-02 0.  1.
         11    1    1    2    0    0 -0.19334123028E+03  0.37235605648E+02  0.66338900279E+03  0.69199153946E+03  0.51100000000E-03 0. -1.
         22    1    1    2    0    0  0.13402515882E+03 -0.12144545637E+02  0.30767522915E+03  0.33581881993E+03  0.00000000000E+00 0. -1.
          2    1    1    2  501    0  0.59316071462E+02 -0.25091060010E+02 -0.11120686246E+04  0.11139320372E+04  0.25500000000E-02 0.  1.
<mgrwt>
<rscale>  0 0.64404640E+02</rscale>
<asrwt>0</asrwt>
<pdfrwt beam="1">  1       11 0.10000000E+01 0.16528255E+03</pdfrwt>
<pdfrwt beam="2">  1        2 0.17566070E+00 0.64404640E+02</pdfrwt>
<totfact> 0.29401902E+01</totfact>
</mgrwt>
</event>
<event>
 5    1  0.2799727E-003  0.1001025E+03  0.7818608E-02  0.1280081E+00
         11   -1    0    0    0    0  0.00000000000E+00  0.00000000000E+00  0.10001941935E+04  0.10001941935E+04  0.51100000000E-03 0.  1.
          2   -1    0    0  501    0 -0.00000000000E+00 -0.00000000000E+00 -0.17839868948E+02  0.17839869130E+02  0.25500000000E-02 0.  1.
         11    1    1    2    0    0 -0.37820508439E+02  0.17666217963E+02  0.62726150638E+02  0.75346241378E+02  0.51100000000E-03 0.  1.
         22    1    1    2    0    0  0.62201523338E+02  0.81398009112E+02  0.53749853180E+03  0.54717395504E+03  0.00000000000E+00 0.  1.
          2    1    1    2  501    0 -0.24381014899E+02 -0.99064227074E+02  0.38212964210E+03  0.39551386619E+03  0.25500000000E-02 0.  1.
<mgrwt>
<rscale>  0 0.10010246E+03</rscale>
<asrwt>0</asrwt>
<pdfrwt beam="1">  1       11 0.10000000E+01 0.41743117E+02</pdfrwt>
<pdfrwt beam="2">  1        2 0.27451281E-02 0.10010246E+03</pdfrwt>
<totfact> 0.39329803E+03</totfact>
</mgrwt>
</event>
<event>
 5    1  0.2799727E-003  0.2273682E+03  0.7818608E-02  0.1128506E+00
         11   -1    0    0    0    0  0.00000000000E+00  0.00000000000E+00  0.10001020765E+04  0.10001020765E+04  0.51100000000E-03 0. -1.
          2   -1    0    0  501    0 -0.00000000000E+00 -0.00000000000E+00 -0.21857363777E+03  0.21857363778E+03  0.25500000000E-02 0. -1.
         11    1    1    2    0    0 -0.67674327410E+02 -0.74782846574E+01  0.23214941942E+03  0.24192786584E+03  0.51100000000E-03 0. -1.
         22    1    1    2    0    0 -0.67420350784E+02 -0.18028621197E+03  0.68300674589E+03  0.70961034157E+03  0.00000000000E+00 0. -1.
          2    1    1    2  501    0  0.13509467819E+03  0.18776449663E+03 -0.13362772657E+03  0.26713750689E+03  0.25500000000E-02 0. -1.
<mgrwt>
<rscale>  0 0.22736819E+03</rscale>
<asrwt>0</asrwt>
<pdfrwt beam="1">  1       11 0.10000000E+01 0.68086264E+02</pdfrwt>
<pdfrwt beam="2">  1        2 0.33630145E-01 0.22736819E+03</pdfrwt>
<totfact> 0.19106734E+02</totfact>
</mgrwt>
</event>
<event>
 5    1  0.2799727E-003  0.2122911E+03  0.7818608E-02  0.1141189E+00
         11   -1    0    0    0    0  0.00000000000E+00  0.00000000000E+00  0.99996691154E+03  0.99996691154E+03  0.51100000000E-03 0.  1.
         -2   -1    0    0    0  501 -0.00000000000E+00 -0.00000000000E+00 -0.63558647663E+02  0.63558647715E+02  0.25500000000E-02 0. -1.
         11    1    1    2    0    0 -0.90980421328E+02 -0.16209758063E+03  0.64680856346E+03  0.67298913845E+03  0.51100000000E-03 0.  1.
         22    1    1    2    0    0 -0.19410611969E+02 -0.17106594917E+02  0.11258336821E+03  0.11551806025E+03  0.00000000000E+00 0. -1.
         -2    1    1    2    0  501  0.11039103330E+03  0.17920417555E+03  0.17701633220E+03  0.27501836055E+03  0.25500000000E-02 0. -1.
<mgrwt>
<rscale>  0 0.21047640E+03</rscale>
<asrwt>0</asrwt>
<pdfrwt beam="1">  1       11 0.10000000E+01 0.21229107E+03</pdfrwt>
<pdfrwt beam="2">  1       -2 0.97779297E-02 0.21047640E+03</pdfrwt>
<totfact> 0.54236412E+02</totfact>
</mgrwt>
</event>
<event>
 5    1  0.2799727E-003  0.2112621E+03  0.7818608E-02  0.1140570E+00
         11   -1    0    0    0    0  0.00000000000E+00  0.00000000000E+00  0.10001079330E+04  0.10001079330E+04  0.51100000000E-03 0. -1.
          2   -1    0    0  501    0 -0.00000000000E+00 -0.00000000000E+00 -0.20202581092E+03  0.20202581093E+03  0.25500000000E-02 0. -1.
         11    1    1    2    0    0 -0.79080037598E+02  0.10579738607E+03  0.14621740506E+03  0.19704382454E+03  0.51100000000E-03 0. -1.
         22    1    1    2    0    0 -0.86783771875E+02  0.88165605732E+02  0.72825805106E+03  0.73869099496E+03  0.00000000000E+00 0. -1.
          2    1    1    2  501    0  0.16586380947E+03 -0.19396299180E+03 -0.76393333988E+02  0.26639892449E+03  0.25500000000E-02 0. -1.
<mgrwt>
<rscale>  0 0.21126206E+03</rscale>
<asrwt>0</asrwt>
<pdfrwt beam="1">  1       11 0.10000000E+01 0.12371175E+03</pdfrwt>
<pdfrwt beam="2">  1        2 0.31084248E-01 0.21126206E+03</pdfrwt>
<totfact> 0.20801078E+02</totfact>
</mgrwt>
</event>
<event>
 5    1  0.2799727E-003  0.1155436E+03  0.7818608E-02  0.1250635E+00
         11   -1    0    0    0    0  0.00000000000E+00  0.00000000000E+00  0.10002280175E+04  0.10002280175E+04  0.51100000000E-03 0. -1.
          2   -1    0    0  501    0 -0.00000000000E+00 -0.00000000000E+00 -0.50525173691E+02  0.50525173755E+02  0.25500000000E-02 0. -1.
         11    1    1    2    0    0 -0.46048043469E+02 -0.18861935910E+01  0.74915075426E+02  0.87955946700E+02  0.51100000000E-03 0. -1.
         22    1    1    2    0    0  0.15331944527E+03 -0.28535109372E+02  0.82684802186E+03  0.84142661951E+03  0.00000000000E+00 0. -1.
          2    1    1    2  501    0 -0.10727140180E+03  0.30421302963E+02  0.47939746497E+02  0.12137062502E+03  0.25500000000E-02 0. -1.
<mgrwt>
<rscale>  0 0.11554360E+03</rscale>
<asrwt>0</asrwt>
<pdfrwt beam="1">  1       11 0.10000000E+01 0.46086681E+02</pdfrwt>
<pdfrwt beam="2">  1        2 0.77748758E-02 0.11554360E+03</pdfrwt>
<totfact> 0.10288954E+03</totfact>
</mgrwt>
</event>
<event>
 5    1  0.2799727E-003  0.9370443E+02  0.7818608E-02  0.1313480E+00
         11   -1    0    0    0    0  0.00000000000E+00  0.00000000000E+00  0.10002002843E+04  0.10002002843E+04  0.51100000000E-03 0.  1.
          2   -1    0    0  501    0 -0.00000000000E+00 -0.00000000000E+00 -0.95712161354E+01  0.95712164751E+01  0.25500000000E-02 0.  1.
         11    1    1    2    0    0 -0.39985248713E+00  0.29762353636E+02  0.90895791185E+02  0.95645190320E+02  0.51100000000E-03 0.  1.
         22    1    1    2    0    0 -0.49977765098E+02  0.39630488074E+02  0.22172950880E+03  0.23072132035E+03  0.00000000000E+00 0.  1.
          2    1    1    2  501    0  0.50377617585E+02 -0.69392841711E+02  0.67800376814E+03  0.68340499007E+03  0.25500000000E-02 0.  1.
<mgrwt>
<rscale>  0 0.85751215E+02</rscale>
<asrwt>0</asrwt>
<pdfrwt beam="1">  1       11 0.10000000E+01 0.93704435E+02</pdfrwt>
<pdfrwt beam="2">  1        2 0.14727897E-02 0.85751215E+02</pdfrwt>
<totfact> 0.89268872E+03</totfact>
</mgrwt>
</event>
<event>
 5    1  0.2799727E-003  0.2017026E+02  0.7818608E-02  0.1804670E+00
         11   -1    0    0    0    0  0.00000000000E+00  0.00000000000E+00  0.10000157069E+04  0.10000157069E+04  0.51100000000E-03 0.  1.
          2   -1    0    0  501    0 -0.00000000000E+00 -0.00000000000E+00 -0.22704447357E+01  0.22704461677E+01  0.25500000000E-02 0.  1.
         11    1    1    2    0    0 -0.15194040507E+02  0.20551152631E+01  0.43708853490E+02  0.46320041444E+02  0.51100000000E-03 0.  1.
         22    1    1    2    0    0  0.24315839707E+01  0.14664300220E+02  0.64882523920E+02  0.66563475058E+02  0.00000000000E+00 0.  1.
          2    1    1    2  501    0  0.12762456536E+02 -0.16719415483E+02  0.88915388476E+03  0.88940263657E+03  0.25500000000E-02 0.  1.
<mgrwt>
<rscale>  0 0.17315347E+02</rscale>
<asrwt>0</asrwt>
<pdfrwt beam="1">  1       11 0.10000000E+01 0.20170256E+02</pdfrwt>
<pdfrwt beam="2">  1        2 0.34930478E-03 0.17315347E+02</pdfrwt>
<totfact> 0.42959195E+04</totfact>
</mgrwt>
</event>
<event>
 5    1  0.2799727E-003  0.7491460E+02  0.7818608E-02  0.1482819E+00
         11   -1    0    0    0    0  0.00000000000E+00  0.00000000000E+00  0.10001010367E+04  0.10001010367E+04  0.51100000000E-03 0. -1.
          2   -1    0    0  501    0 -0.00000000000E+00 -0.00000000000E+00 -0.82033837213E+01  0.82033841176E+01  0.25500000000E-02 0. -1.
         11    1    1    2    0    0  0.45784457424E+02  0.52950951809E+02  0.40900070373E+03  0.41494770212E+03  0.51100000000E-03 0. -1.
         22    1    1    2    0    0  0.23787819017E+02 -0.90654245773E+01  0.85687389035E+02  0.89388874565E+02  0.00000000000E+00 0.  1.
          2    1    1    2  501    0 -0.69572276441E+02 -0.43885527232E+02  0.49720956018E+03  0.50396784411E+03  0.25500000000E-02 0. -1.
<mgrwt>
<rscale>  0 0.43670088E+02</rscale>
<asrwt>0</asrwt>
<pdfrwt beam="1">  1       11 0.10000000E+01 0.74914601E+02</pdfrwt>
<pdfrwt beam="2">  1        2 0.12621865E-02 0.43670088E+02</pdfrwt>
<totfact> 0.98561646E+03</totfact>
</mgrwt>
</event>
<event>
 5    1  0.2799727E-003  0.1600659E+03  0.7818608E-02  0.1196184E+00
         11   -1    0    0    0    0  0.00000000000E+00  0.00000000000E+00  0.99988468454E+03  0.99988468454E+03  0.51100000000E-03 0. -1.
         -2   -1    0    0    0  501 -0.00000000000E+00 -0.00000000000E+00 -0.51885359077E+02  0.51885359139E+02  0.25500000000E-02 0. -1.
         11    1    1    2    0    0 -0.13000454304E+03 -0.42989513256E+02  0.82132025508E+03  0.83265613603E+03  0.51100000000E-03 0. -1.
         22    1    1    2    0    0 -0.15353216839E+02 -0.64779562857E+01  0.38735106077E+02  0.42167447489E+02  0.00000000000E+00 0.  1.
         -2    1    1    2    0  501  0.14535775988E+03  0.49467469542E+02  0.87943964308E+02  0.17694646016E+03  0.25500000000E-02 0. -1.
<mgrwt>
<rscale>  0 0.15354449E+03</rscale>
<asrwt>0</asrwt>
<pdfrwt beam="1">  1       11 0.10000000E+01 0.16006586E+03</pdfrwt>
<pdfrwt beam="2">  1       -2 0.79814422E-02 0.15354449E+03</pdfrwt>
<totfact> 0.73127802E+02</totfact>
</mgrwt>
</event>
<event>
 5    1  0.2799727E-003  0.6428012E+03  0.7818608E-02  0.9820382E-01
         11   -1    0    0    0    0  0.00000000000E+00  0.00000000000E+00  0.99996814237E+03  0.99996814237E+03  0.51100000000E-03 0. -1.
          2   -1    0    0  501    0 -0.00000000000E+00 -0.00000000000E+00 -0.52851753309E+03  0.52851753310E+03  0.25500000000E-02 0. -1.
         11    1    1    2    0    0  0.35180464100E+03 -0.52049898595E+03  0.49969924442E+03  0.80273596823E+03  0.51100000000E-03 0. -1.
         22    1    1    2    0    0  0.31184941721E+01 -0.22978237473E+02  0.65891821843E+02  0.69853107225E+02  0.00000000000E+00 0.  1.
          2    1    1    2  501    0 -0.35492313517E+03  0.54347722343E+03 -0.94140456988E+02  0.65589660002E+03  0.25500000000E-02 0. -1.
<mgrwt>
<rscale>  0 0.64280115E+03</rscale>
<asrwt>0</asrwt>
<pdfrwt beam="1">  1       11 0.10000000E+01 0.23188885E+02</pdfrwt>
<pdfrwt beam="2">  1        2 0.81307797E-01 0.64280115E+03</pdfrwt>
<totfact> 0.71659717E+01</totfact>
</mgrwt>
</event>
<event>
 5    1  0.2799727E-003  0.7921989E+02  0.7818608E-02  0.1337573E+00
         11   -1    0    0    0    0  0.00000000000E+00  0.00000000000E+00  0.10002184609E+04  0.10002184609E+04  0.51100000000E-03 0. -1.
          2   -1    0    0  501    0 -0.00000000000E+00 -0.00000000000E+00 -0.71140227197E+01  0.71140231767E+01  0.25500000000E-02 0. -1.
         11    1    1    2    0    0 -0.34950593311E+02 -0.57783386108E+02  0.26329872138E+03  0.27182104474E+03  0.51100000000E-03 0. -1.
         22    1    1    2    0    0 -0.10878484166E+02 -0.41821339880E+01  0.49480096045E+02  0.50834157484E+02  0.00000000000E+00 0. -1.
          2    1    1    2  501    0  0.45829077477E+02  0.61965520096E+02  0.68032562075E+03  0.68467728185E+03  0.25500000000E-02 0. -1.
<mgrwt>
<rscale>  0 0.77071590E+02</rscale>
<asrwt>0</asrwt>
<pdfrwt beam="1">  1       11 0.10000000E+01 0.79219889E+02</pdfrwt>
<pdfrwt beam="2">  1        2 0.10947041E-02 0.77071590E+02</pdfrwt>
<totfact> 0.13143616E+04</totfact>
</mgrwt>
</event>
<event>
 5    1  0.2799727E-003  0.2381906E+03  0.7818608E-02  0.1121004E+00
         11   -1    0    0    0    0  0.00000000000E+00  0.00000000000E+00  0.10001271273E+04  0.10001271273E+04  0.51100000000E-03 0. -1.
          2   -1    0    0  501    0 -0.00000000000E+00 -0.00000000000E+00 -0.20568843042E+03  0.20568843043E+03  0.25500000000E-02 0. -1.
         11    1    1    2    0    0  0.44427424837E+02  0.10547632658E+03  0.57522650252E+03  0.58650198699E+03  0.51100000000E-03 0. -1.
         22    1    1    2    0    0 -0.11650241064E+03  0.14212179872E+03  0.29761770767E+03  0.34978238560E+03  0.00000000000E+00 0. -1.
          2    1    1    2  501    0  0.72074985799E+02 -0.24759812529E+03 -0.78405513328E+02  0.26953118512E+03  0.25500000000E-02 0. -1.
<mgrwt>
<rscale>  0 0.23819058E+03</rscale>
<asrwt>0</asrwt>
<pdfrwt beam="1">  1       11 0.10000000E+01 0.11445109E+03</pdfrwt>
<pdfrwt beam="2">  1        2 0.31648396E-01 0.23819058E+03</pdfrwt>
<totfact> 0.20430721E+02</totfact>
</mgrwt>
</event>
<event>
 5    1  0.2799727E-003  0.1041453E+03  0.7818608E-02  0.1276157E+00
         11   -1    0    0    0    0  0.00000000000E+00  0.00000000000E+00  0.10001314541E+04  0.10001314541E+04  0.51100000000E-03 0.  1.
          2   -1    0    0  501    0 -0.00000000000E+00 -0.00000000000E+00 -0.15700826099E+02  0.15700826306E+02  0.25500000000E-02 0.  1.
         11    1    1    2    0    0  0.36281399028E+02 -0.27507101604E+02  0.10489486326E+03  0.11434995799E+03  0.51100000000E-03 0.  1.
         22    1    1    2    0    0  0.32135175160E+02 -0.48137131951E+02  0.10192923096E+03  0.11721527665E+03  0.00000000000E+00 0.  1.
          2    1    1    2  501    0 -0.68416574188E+02  0.75644233555E+02  0.77760653374E+03  0.78426704573E+03  0.25500000000E-02 0.  1.
<mgrwt>
<rscale>  0 0.10199450E+03</rscale>
<asrwt>0</asrwt>
<pdfrwt beam="1">  1       11 0.10000000E+01 0.10414534E+03</pdfrwt>
<pdfrwt beam="2">  1        2 0.24158292E-02 0.10199450E+03</pdfrwt>
<totfact> 0.46781729E+03</totfact>
</mgrwt>
</event>
<event>
 5    1  0.2799727E-003  0.1736424E+03  0.7818608E-02  0.1174102E+00
         11   -1    0    0    0    0  0.00000000000E+00  0.00000000000E+00  0.10003992062E+04  0.10003992062E+04  0.51100000000E-03 0.  1.
          2   -1    0    0  501    0 -0.00000000000E+00 -0.00000000000E+00 -0.79596515226E+02  0.79596515267E+02  0.25500000000E-02 0.  1.
         11    1    1    2    0    0 -0.15802731806E+03  0.30009733702E+02  0.70938790621E+03  0.72739564121E+03  0.51100000000E-03 0.  1.
         22    1    1    2    0    0 -0.22752661175E+01  0.43467708921E+02  0.16445001142E+03  0.17011297660E+03  0.00000000000E+00 0.  1.
          2    1    1    2  501    0  0.16030258417E+03 -0.73477442623E+02  0.46964773377E+02  0.18248710369E+03  0.25500000000E-02 0.  1.
<mgrwt>
<rscale>  0 0.17364241E+03</rscale>
<asrwt>0</asrwt>
<pdfrwt beam="1">  1       11 0.10000000E+01 0.43527216E+02</pdfrwt>
<pdfrwt beam="2">  1        2 0.12250506E-01 0.17364241E+03</pdfrwt>
<totfact> 0.60167843E+02</totfact>
</mgrwt>
</event>
<event>
 5    1  0.2799727E-003  0.1596610E+03  0.7818608E-02  0.1190204E+00
         11   -1    0    0    0    0  0.00000000000E+00  0.00000000000E+00  0.10003052351E+04  0.10003052351E+04  0.51100000000E-03 0. -1.
          2   -1    0    0  501    0 -0.00000000000E+00 -0.00000000000E+00 -0.30688763678E+02  0.30688763784E+02  0.25500000000E-02 0. -1.
         11    1    1    2    0    0  0.24017690446E+02 -0.14720903581E+03  0.66850895783E+03  0.68494640402E+03  0.51100000000E-03 0. -1.
         22    1    1    2    0    0 -0.18287817013E+01 -0.99044572390E+01  0.33025560531E+02  0.34527240899E+02  0.00000000000E+00 0.  1.
          2    1    1    2  501    0 -0.22188908745E+02  0.15711349305E+03  0.26808195304E+03  0.31152035394E+03  0.25500000000E-02 0. -1.
<mgrwt>
<rscale>  0 0.15867261E+03</rscale>
<asrwt>0</asrwt>
<pdfrwt beam="1">  1       11 0.10000000E+01 0.15966103E+03</pdfrwt>
<pdfrwt beam="2">  1        2 0.47227893E-02 0.15867261E+03</pdfrwt>
<totfact> 0.20002862E+03</totfact>
</mgrwt>
</event>
<event>
 5    1  0.2799727E-003  0.1027955E+03  0.7818608E-02  0.1274525E+00
         11   -1    0    0    0    0  0.00000000000E+00  0.00000000000E+00  0.10001574210E+04  0.10001574210E+04  0.51100000000E-03 0. -1.
          2   -1    0    0  501    0 -0.00000000000E+00 -0.00000000000E+00 -0.14469769096E+02  0.14469769321E+02  0.25500000000E-02 0. -1.
         11    1    1    2    0    0  0.88414964215E+02  0.39391322232E+02  0.50235061214E+03  0.51159067591E+03  0.51100000000E-03 0. -1.
         22    1    1    2    0    0 -0.39081590448E+01  0.28213719322E+02  0.14643609774E+03  0.14918048930E+03  0.00000000000E+00 0.  1.
          2    1    1    2  501    0 -0.84506805170E+02 -0.67605041555E+02  0.33690094199E+03  0.35385602508E+03  0.25500000000E-02 0. -1.
<mgrwt>
<rscale>  0 0.10279555E+03</rscale>
<asrwt>0</asrwt>
<pdfrwt beam="1">  1       11 0.10000000E+01 0.28483112E+02</pdfrwt>
<pdfrwt beam="2">  1        2 0.22264687E-02 0.10279555E+03</pdfrwt>
<totfact> 0.52266825E+03</totfact>
</mgrwt>
</event>
<event>
 5    1  0.2799727E-003  0.3508534E+02  0.7818608E-02  0.1560542E+00
         11   -1    0    0    0    0  0.00000000000E+00  0.00000000000E+00  0.10002952261E+04  0.10002952261E+04  0.51100000000E-03 0. -1.
          2   -1    0    0  501    0 -0.00000000000E+00 -0.00000000000E+00 -0.26252737206E+01  0.26252749590E+01  0.25500000000E-02 0. -1.
         11    1    1    2    0    0 -0.18686865658E+02  0.55515392224E+01  0.60752859026E+02  0.63803827596E+02  0.51100000000E-03 0. -1.
         22    1    1    2    0    0 -0.11463228329E+02  0.94836220731E+01  0.70883873304E+02  0.72428365893E+02  0.00000000000E+00 0.  1.
          2    1    1    2  501    0  0.30150093987E+02 -0.15035161295E+02  0.86603322009E+03  0.86668830761E+03  0.25500000000E-02 0. -1.
<mgrwt>
<rscale>  0 0.33691011E+02</rscale>
<asrwt>0</asrwt>
<pdfrwt beam="1">  1       11 0.10000000E+01 0.35085342E+02</pdfrwt>
<pdfrwt beam="2">  1        2 0.40400759E-03 0.33691011E+02</pdfrwt>
<totfact> 0.42647020E+04</totfact>
</mgrwt>
</event>
<event>
 5    1  0.2799727E-003  0.1818807E+03  0.7818608E-02  0.1170531E+00
         11   -1    0    0    0    0  0.00000000000E+00  0.00000000000E+00  0.10005958067E+04  0.10005958067E+04  0.51100000000E-03 0. -1.
          2   -1    0    0  501    0 -0.00000000000E+00 -0.00000000000E+00 -0.39430164580E+02  0.39430164663E+02  0.25500000000E-02 0.  1.
         11    1    1    2    0    0  0.86496875289E+02  0.52790019811E+02  0.32974165518E+03  0.34496094675E+03  0.51100000000E-03 0. -1.
         22    1    1    2    0    0  0.54773935397E+02  0.54195900349E+02  0.37834192968E+03  0.38610878696E+03  0.00000000000E+00 0.  1.
          2    1    1    2  501    0 -0.14127081069E+03 -0.10698592016E+03  0.25308205724E+03  0.30895623762E+03  0.25500000000E-02 0.  1.
<mgrwt>
<rscale>  0 0.17721013E+03</rscale>
<asrwt>0</asrwt>
<pdfrwt beam="1">  1       11 0.10000000E+01 0.18188071E+03</pdfrwt>
<pdfrwt beam="2">  1        2 0.60697933E-02 0.17721013E+03</pdfrwt>
<totfact> 0.14531440E+03</totfact>
</mgrwt>
</event>
<event>
 5    1  0.2799727E-003  0.2300595E+03  0.7818608E-02  0.1129567E+00
         11   -1    0    0    0    0  0.00000000000E+00  0.00000000000E+00  0.10000979174E+04  0.10000979174E+04  0.51100000000E-03 0. -1.
          2   -1    0    0  501    0 -0.00000000000E+00 -0.00000000000E+00 -0.10624496113E+03  0.10624496116E+03  0.25500000000E-02 0. -1.
         11    1    1    2    0    0  0.17054385791E+03  0.10210788570E+01  0.56287075141E+03  0.58814091242E+03  0.51100000000E-03 0. -1.
         22    1    1    2    0    0  0.55077532306E+02  0.99840056354E+01  0.28142815667E+03  0.28694079930E+03  0.00000000000E+00 0.  1.
          2    1    1    2  501    0 -0.22562139022E+03 -0.11005084492E+02  0.49554048229E+02  0.23126116689E+03  0.25500000000E-02 0. -1.
<mgrwt>
<rscale>  0 0.22588963E+03</rscale>
<asrwt>0</asrwt>
<pdfrwt beam="1">  1       11 0.10000000E+01 0.23005946E+03</pdfrwt>
<pdfrwt beam="2">  1        2 0.16346979E-01 0.22588963E+03</pdfrwt>
<totfact> 0.43120820E+02</totfact>
</mgrwt>
</event>
<event>
 5    1  0.2799727E-003  0.6517137E+02  0.7818608E-02  0.1499726E+00
         11   -1    0    0    0    0  0.00000000000E+00  0.00000000000E+00  0.10002706935E+04  0.10002706935E+04  0.51100000000E-03 0. -1.
         -2   -1    0    0    0  501 -0.00000000000E+00 -0.00000000000E+00 -0.12607454511E+02  0.12607454769E+02  0.25500000000E-02 0. -1.
         11    1    1    2    0    0  0.28675647337E+02 -0.75643173860E+02  0.30765214203E+03  0.31811008000E+03  0.51100000000E-03 0. -1.
         22    1    1    2    0    0  0.14572977986E+01  0.47580156353E+02  0.78194120497E+02  0.91544063028E+02  0.00000000000E+00 0. -1.
         -2    1    1    2    0  501 -0.30132945135E+02  0.28063017507E+02  0.60181697644E+03  0.60322400521E+03  0.25500000000E-02 0. -1.
<mgrwt>
<rscale>  0 0.41176782E+02</rscale>
<asrwt>0</asrwt>
<pdfrwt beam="1">  1       11 0.10000000E+01 0.65171367E+02</pdfrwt>
<pdfrwt beam="2">  1       -2 0.19401334E-02 0.41176782E+02</pdfrwt>
<totfact> 0.50238130E+03</totfact>
</mgrwt>
</event>
<event>
 5    1  0.2799727E-003  0.5607343E+02  0.7818608E-02  0.1425860E+00
         11   -1    0    0    0    0  0.00000000000E+00  0.00000000000E+00  0.10002985237E+04  0.10002985237E+04  0.51100000000E-03 0. -1.
          2   -1    0    0  501    0 -0.00000000000E+00 -0.00000000000E+00 -0.32672105109E+02  0.32672105209E+02  0.25500000000E-02 0. -1.
         11    1    1    2    0    0 -0.19813537279E+02  0.15080153148E+02 -0.97768794891E+01  0.26750227126E+02  0.51100000000E-03 0. -1.
         22    1    1    2    0    0 -0.28303905434E+02  0.89854700527E+01  0.24642114700E+01  0.29798021294E+02  0.00000000000E+00 0. -1.
          2    1    1    2  501    0  0.48117442713E+02 -0.24065623201E+02  0.97493908658E+03  0.97642238045E+03  0.25500000000E-02 0. -1.
<mgrwt>
<rscale>  0 0.53800023E+02</rscale>
<asrwt>0</asrwt>
<pdfrwt beam="1">  1       11 0.10000000E+01 0.56073428E+02</pdfrwt>
<pdfrwt beam="2">  1        2 0.50279781E-02 0.53800023E+02</pdfrwt>
<totfact> 0.16699778E+03</totfact>
</mgrwt>
</event>
<event>
 5    1  0.2799727E-003  0.7218387E+02  0.7818608E-02  0.1367624E+00
         11   -1    0    0    0    0  0.00000000000E+00  0.00000000000E+00  0.10001308541E+04  0.10001308541E+04  0.51100000000E-03 0. -1.
          2   -1    0    0  501    0 -0.00000000000E+00 -0.00000000000E+00 -0.14308157090E+02  0.14308157317E+02  0.25500000000E-02 0. -1.
         11    1    1    2    0    0  0.32431224216E+02 -0.25520037331E+02  0.32909244654E+02  0.52783283277E+02  0.51100000000E-03 0. -1.
         22    1    1    2    0    0  0.20021779178E+02 -0.17490361408E+02  0.54029817225E+02  0.60216322812E+02  0.00000000000E+00 0. -1.
          2    1    1    2  501    0 -0.52453003395E+02  0.43010398739E+02  0.89888363513E+03  0.90143940533E+03  0.25500000000E-02 0. -1.
<mgrwt>
<rscale>  0 0.67832234E+02</rscale>
<asrwt>0</asrwt>
<pdfrwt beam="1">  1       11 0.10000000E+01 0.72183866E+02</pdfrwt>
<pdfrwt beam="2">  1        2 0.22015429E-02 0.67832234E+02</pdfrwt>
<totfact> 0.50314947E+03</totfact>
</mgrwt>
</event>
<event>
 5    1  0.2799727E-003  0.2139927E+03  0.7818608E-02  0.1140846E+00
         11   -1    0    0    0    0  0.00000000000E+00  0.00000000000E+00  0.99995032791E+03  0.99995032791E+03  0.51100000000E-03 0. -1.
          2   -1    0    0  501    0 -0.00000000000E+00 -0.00000000000E+00 -0.28057179725E+03  0.28057179726E+03  0.25500000000E-02 0. -1.
         11    1    1    2    0    0  0.10305183086E+03  0.14712832051E+03  0.84440905325E+03  0.86330358030E+03  0.51100000000E-03 0. -1.
         22    1    1    2    0    0  0.25084727171E+02  0.20396769567E+02  0.10219918974E+03  0.10719116628E+03  0.00000000000E+00 0.  1.
          2    1    1    2  501    0 -0.12813655803E+03 -0.16752509007E+03 -0.22722971232E+03  0.31002737859E+03  0.25500000000E-02 0. -1.
<mgrwt>
<rscale>  0 0.21091143E+03</rscale>
<asrwt>0</asrwt>
<pdfrwt beam="1">  1       11 0.10000000E+01 0.21399273E+03</pdfrwt>
<pdfrwt beam="2">  1        2 0.43162747E-01 0.21091143E+03</pdfrwt>
<totfact> 0.14576930E+02</totfact>
</mgrwt>
</event>
<event>
 5    1  0.2799727E-003  0.5427799E+03  0.7818608E-02  0.1108560E+00
         11   -1    0    0    0    0  0.00000000000E+00  0.00000000000E+00  0.99971949579E+03  0.99971949579E+03  0.51100000000E-03 0. -1.
          2   -1    0    0  501    0 -0.00000000000E+00 -0.00000000000E+00 -0.47858255936E+03  0.47858255937E+03  0.25500000000E-02 0. -1.
         11    1    1    2    0    0 -0.19125413936E+03 -0.38699982091E+03  0.77445954482E+02  0.43857141160E+03  0.51100000000E-03 0. -1.
         22    1    1    2    0    0  0.22953894446E+03  0.64179465615E+03  0.29988516964E+03  0.74466074333E+03  0.00000000000E+00 0. -1.
          2    1    1    2  501    0 -0.38284805099E+02 -0.25479483524E+03  0.14380581230E+03  0.29506990023E+03  0.25500000000E-02 0. -1.
<mgrwt>
<rscale>  0 0.25765507E+03</rscale>
<asrwt>0</asrwt>
<pdfrwt beam="1">  1       11 0.10000000E+01 0.54277989E+03</pdfrwt>
<pdfrwt beam="2">  1        2 0.73607431E-01 0.25765507E+03</pdfrwt>
<totfact> 0.81522276E+01</totfact>
</mgrwt>
</event>
<event>
 5    1  0.2799727E-003  0.1151892E+03  0.7818608E-02  0.1683329E+00
         11   -1    0    0    0    0  0.00000000000E+00  0.00000000000E+00  0.10000216519E+04  0.10000216519E+04  0.51100000000E-03 0.  1.
          2   -1    0    0  501    0 -0.00000000000E+00 -0.00000000000E+00 -0.97413742860E+02  0.97413742893E+02  0.25500000000E-02 0.  1.
         11    1    1    2    0    0 -0.11003434180E+03 -0.37265654469E+02  0.57326938032E+03  0.58492227500E+03  0.51100000000E-03 0.  1.
         22    1    1    2    0    0  0.99422181010E+02  0.58247478894E+02  0.41135695609E+03  0.42719092242E+03  0.00000000000E+00 0.  1.
          2    1    1    2  501    0  0.10612160790E+02 -0.20981824425E+02 -0.82018427421E+02  0.85322197323E+02  0.25500000000E-02 0.  1.
<mgrwt>
<rscale>  0 0.23512867E+02</rscale>
<asrwt>0</asrwt>
<pdfrwt beam="1">  1       11 0.10000000E+01 0.11518918E+03</pdfrwt>
<pdfrwt beam="2">  1        2 0.14987054E-01 0.23512867E+02</pdfrwt>
<totfact> 0.42405235E+02</totfact>
</mgrwt>
</event>
<event>
 5    1  0.2799727E-003  0.1625951E+03  0.7818608E-02  0.1190569E+00
         11   -1    0    0    0    0  0.00000000000E+00  0.00000000000E+00  0.10001286567E+04  0.10001286567E+04  0.51100000000E-03 0. -1.
         -2   -1    0    0    0  501 -0.00000000000E+00 -0.00000000000E+00 -0.60912325184E+02  0.60912325237E+02  0.25500000000E-02 0.  1.
         11    1    1    2    0    0 -0.14376187270E+03  0.78948080631E+01  0.82791710327E+03  0.84034310488E+03  0.51100000000E-03 0. -1.
         22    1    1    2    0    0 -0.14578732964E+02 -0.59495099945E+01  0.47385948424E+02  0.49933598229E+02  0.00000000000E+00 0. -1.
         -2    1    1    2    0  501  0.15834060566E+03 -0.19452980686E+01  0.63913279852E+02  0.17076427886E+03  0.25500000000E-02 0.  1.
<mgrwt>
<rscale>  0 0.15835255E+03</rscale>
<asrwt>0</asrwt>
<pdfrwt beam="1">  1       11 0.10000000E+01 0.16259513E+03</pdfrwt>
<pdfrwt beam="2">  1       -2 0.93723323E-02 0.15835255E+03</pdfrwt>
<totfact> 0.57045230E+02</totfact>
</mgrwt>
</event>
<event>
 5    1  0.2799727E-003  0.4066056E+02  0.7818608E-02  0.1577155E+00
         11   -1    0    0    0    0  0.00000000000E+00  0.00000000000E+00  0.10004482084E+04  0.10004482084E+04  0.51100000000E-03 0. -1.
          2   -1    0    0  501    0 -0.00000000000E+00 -0.00000000000E+00 -0.52961249596E+01  0.52961255735E+01  0.25500000000E-02 0. -1.
         11    1    1    2    0    0 -0.26190437686E+02 -0.18708220578E+02  0.11784874112E+03  0.12216489809E+03  0.51100000000E-03 0. -1.
         22    1    1    2    0    0  0.21550008473E+02  0.50352266138E+02  0.27352482171E+03  0.27895444371E+03  0.00000000000E+00 0. -1.
          2    1    1    2  501    0  0.46404292135E+01 -0.31644045560E+02  0.60377852060E+03  0.60462499216E+03  0.25500000000E-02 0. -1.
<mgrwt>
<rscale>  0 0.31982483E+02</rscale>
<asrwt>0</asrwt>
<pdfrwt beam="1">  1       11 0.10000000E+01 0.40660557E+02</pdfrwt>
<pdfrwt beam="2">  1        2 0.81515367E-03 0.31982483E+02</pdfrwt>
<totfact> 0.16563929E+04</totfact>
</mgrwt>
</event>
<event>
 5    1  0.2799727E-003  0.7704903E+03  0.7818608E-02  0.9645040E-01
         11   -1    0    0    0    0  0.00000000000E+00  0.00000000000E+00  0.10013990751E+04  0.10013990751E+04  0.51100000000E-03 0.  1.
          2   -1    0    0  501    0 -0.00000000000E+00 -0.00000000000E+00 -0.35553027567E+04  0.35553027567E+04  0.25500000000E-02 0.  1.
         11    1    1    2    0    0 -0.13500184060E+03  0.33486437939E+03  0.27250300286E+03  0.45234669902E+03  0.51100000000E-03 0.  1.
         22    1    1    2    0    0 -0.25738491915E+03  0.29707976148E+03  0.53373923383E+03  0.66285816810E+03  0.00000000000E+00 0.  1.
          2    1    1    2  501    0  0.39238675975E+03 -0.63194414087E+03 -0.33601459183E+04  0.34414969648E+04  0.25500000000E-02 0.  1.
<mgrwt>
<rscale>  0 0.74385534E+03</rscale>
<asrwt>0</asrwt>
<pdfrwt beam="1">  1       11 0.10000000E+01 0.77049033E+03</pdfrwt>
<pdfrwt beam="2">  1        2 0.54773489E+00 0.74385534E+03</pdfrwt>
<totfact> 0.98566522E-01</totfact>
</mgrwt>
</event>
<event>
 5    1  0.2799727E-003  0.1069518E+03  0.7818608E-02  0.1273657E+00
         11   -1    0    0    0    0  0.00000000000E+00  0.00000000000E+00  0.10002632188E+04  0.10002632188E+04  0.51100000000E-03 0. -1.
         -2   -1    0    0    0  501 -0.00000000000E+00 -0.00000000000E+00 -0.11055676445E+02  0.11055676739E+02  0.25500000000E-02 0. -1.
         11    1    1    2    0    0  0.57796586635E+01 -0.89400394111E+02  0.43382775304E+03  0.44298121205E+03  0.51100000000E-03 0. -1.
         22    1    1    2    0    0 -0.10629695353E+02 -0.13710710257E+02  0.88155339964E+02  0.89846190588E+02  0.00000000000E+00 0. -1.
         -2    1    1    2    0  501  0.48500366892E+01  0.10311110437E+03  0.46722444934E+03  0.47849149289E+03  0.25500000000E-02 0. -1.
<mgrwt>
<rscale>  0 0.10322511E+03</rscale>
<asrwt>0</asrwt>
<pdfrwt beam="1">  1       11 0.10000000E+01 0.10695182E+03</pdfrwt>
<pdfrwt beam="2">  1       -2 0.17013210E-02 0.10322511E+03</pdfrwt>
<totfact> 0.69505391E+03</totfact>
</mgrwt>
</event>
<event>
 5    1  0.2799727E-003  0.1291336E+03  0.7818608E-02  0.1470500E+00
         11   -1    0    0    0    0  0.00000000000E+00  0.00000000000E+00  0.10003886351E+04  0.10003886351E+04  0.51100000000E-03 0.  1.
          2   -1    0    0  501    0 -0.00000000000E+00 -0.00000000000E+00 -0.12450164723E+04  0.12450164723E+04  0.25500000000E-02 0. -1.
         11    1    1    2    0    0 -0.60745539189E+02 -0.94975618998E+02  0.24242586713E+03  0.26735872866E+03  0.51100000000E-03 0.  1.
         22    1    1    2    0    0  0.10615234014E+03  0.90556903710E+02  0.73853938625E+03  0.75160448187E+03  0.00000000000E+00 0.  1.
          2    1    1    2  501    0 -0.45406800950E+02  0.44187152876E+01 -0.12255930906E+04  0.12264418968E+04  0.25500000000E-02 0. -1.
<mgrwt>
<rscale>  0 0.45621296E+02</rscale>
<asrwt>0</asrwt>
<pdfrwt beam="1">  1       11 0.10000000E+01 0.12913360E+03</pdfrwt>
<pdfrwt beam="2">  1        2 0.19161543E+00 0.45621296E+02</pdfrwt>
<totfact> 0.26507974E+01</totfact>
</mgrwt>
</event>
<event>
 5    1  0.2799727E-003  0.1987740E+03  0.7818608E-02  0.1161171E+00
         11   -1    0    0    0    0  0.00000000000E+00  0.00000000000E+00  0.10001442800E+04  0.10001442800E+04  0.51100000000E-03 0.  1.
          2   -1    0    0  501    0 -0.00000000000E+00 -0.00000000000E+00 -0.76195607284E+02  0.76195607326E+02  0.25500000000E-02 0.  1.
         11    1    1    2    0    0  0.12605662915E+03  0.10402773592E+02  0.46460212767E+03  0.48151181552E+03  0.51100000000E-03 0.  1.
         22    1    1    2    0    0  0.53353588391E+02  0.42424027923E+02  0.38913065418E+03  0.39505578032E+03  0.00000000000E+00 0.  1.
          2    1    1    2  501    0 -0.17941021754E+03 -0.52826801515E+02  0.70215890899E+02  0.19977229152E+03  0.25500000000E-02 0.  1.
<mgrwt>
<rscale>  0 0.18702593E+03</rscale>
<asrwt>0</asrwt>
<pdfrwt beam="1">  1       11 0.10000000E+01 0.19877396E+03</pdfrwt>
<pdfrwt beam="2">  1        2 0.11724092E-01 0.18702593E+03</pdfrwt>
<totfact> 0.63677868E+02</totfact>
</mgrwt>
</event>
<event>
 5    1  0.5076606E-003  0.2111835E+03  0.7818608E-02  0.1142286E+00
         11   -1    0    0    0    0  0.00000000000E+00  0.00000000000E+00  0.10003251990E+04  0.10003251990E+04  0.51100000000E-03 0.  1.
          2   -1    0    0  501    0 -0.00000000000E+00 -0.00000000000E+00 -0.10366511254E+04  0.10366511254E+04  0.25500000000E-02 0.  1.
         11    1    1    2    0    0 -0.71520847387E+02 -0.16958956988E+03  0.83044636963E+03  0.85059804059E+03  0.51100000000E-03 0.  1.
         22    1    1    2    0    0 -0.69364789420E+00 -0.26637658558E+02  0.14795336411E+03  0.15033377516E+03  0.00000000000E+00 0.  1.
          2    1    1    2  501    0  0.72214495281E+02  0.19622722844E+03 -0.10147256602E+04  0.10360445087E+04  0.25500000000E-02 0.  1.
<mgrwt>
<rscale>  0 0.20909342E+03</rscale>
<asrwt>0</asrwt>
<pdfrwt beam="1">  1       11 0.10000000E+01 0.21118348E+03</pdfrwt>
<pdfrwt beam="2">  1        2 0.15953665E+00 0.20909342E+03</pdfrwt>
<totfact> 0.31592362E+01</totfact>
</mgrwt>
</event>
<event>
 5    1  0.2799727E-003  0.3557714E+03  0.7818608E-02  0.1404845E+00
         11   -1    0    0    0    0  0.00000000000E+00  0.00000000000E+00  0.10007684963E+04  0.10007684963E+04  0.51100000000E-03 0. -1.
          2   -1    0    0  501    0 -0.00000000000E+00 -0.00000000000E+00 -0.29441568607E+04  0.29441568607E+04  0.25500000000E-02 0.  1.
         11    1    1    2    0    0  0.34067709393E+03 -0.40248312394E+02  0.47669449255E+03  0.58729758063E+03  0.51100000000E-03 0. -1.
         22    1    1    2    0    0 -0.36294069658E+03  0.94194884083E+02  0.39343908045E+03  0.54350063058E+03  0.00000000000E+00 0. -1.
          2    1    1    2  501    0  0.22263602644E+02 -0.53946571689E+02 -0.28135219374E+04  0.28141271458E+04  0.25500000000E-02 0.  1.
<mgrwt>
<rscale>  0 0.58360094E+02</rscale>
<asrwt>0</asrwt>
<pdfrwt beam="1">  1       11 0.10000000E+01 0.35577138E+03</pdfrwt>
<pdfrwt beam="2">  1        2 0.45329528E+00 0.58360094E+02</pdfrwt>
<totfact> 0.35632729E+00</totfact>
</mgrwt>
</event>
<event>
 5    1  0.2799727E-003  0.1017528E+03  0.7818608E-02  0.1276653E+00
         11   -1    0    0    0    0  0.00000000000E+00  0.00000000000E+00  0.10004598673E+04  0.10004598673E+04  0.51100000000E-03 0.  1.
          2   -1    0    0  501    0 -0.00000000000E+00 -0.00000000000E+00 -0.21906675239E+02  0.21906675387E+02  0.25500000000E-02 0.  1.
         11    1    1    2    0    0 -0.47576655151E+02 -0.23021251345E+01  0.17532503174E+03  0.18168022636E+03  0.51100000000E-03 0.  1.
         22    1    1    2    0    0  0.40013239716E+02 -0.99920470630E+02  0.63217560916E+03  0.64127307805E+03  0.00000000000E+00 0.  1.
          2    1    1    2  501    0  0.75634154352E+01  0.10222259576E+03  0.17105255115E+03  0.19941323827E+03  0.25500000000E-02 0.  1.
<mgrwt>
<rscale>  0 0.10175285E+03</rscale>
<asrwt>0</asrwt>
<pdfrwt beam="1">  1       11 0.10000000E+01 0.47632320E+02</pdfrwt>
<pdfrwt beam="2">  1        2 0.33718075E-02 0.10175285E+03</pdfrwt>
<totfact> 0.29964746E+03</totfact>
</mgrwt>
</event>
<event>
 5    1  0.2799727E-003  0.3227059E+03  0.7818608E-02  0.1078631E+00
         11   -1    0    0    0    0  0.00000000000E+00  0.00000000000E+00  0.10001487884E+04  0.10001487884E+04  0.51100000000E-03 0. -1.
          2   -1    0    0  501    0 -0.00000000000E+00 -0.00000000000E+00 -0.54932164123E+03  0.54932164123E+03  0.25500000000E-02 0. -1.
         11    1    1    2    0    0  0.24936955458E+02 -0.17141135645E+03  0.62192652119E+03  0.64559763214E+03  0.51100000000E-03 0. -1.
         22    1    1    2    0    0  0.30778710130E+02 -0.13720482583E+03  0.30380364588E+03  0.33476730497E+03  0.00000000000E+00 0. -1.
          2    1    1    2  501    0 -0.55715665588E+02  0.30861618228E+03 -0.47490301987E+03  0.56910549255E+03  0.25500000000E-02 0. -1.
<mgrwt>
<rscale>  0 0.31360514E+03</rscale>
<asrwt>0</asrwt>
<pdfrwt beam="1">  1       11 0.10000000E+01 0.32270585E+03</pdfrwt>
<pdfrwt beam="2">  1        2 0.84523594E-01 0.31360514E+03</pdfrwt>
<totfact> 0.69470946E+01</totfact>
</mgrwt>
</event>
<event>
 5    1  0.2799727E-003  0.1414530E+03  0.7818608E-02  0.1219654E+00
         11   -1    0    0    0    0  0.00000000000E+00  0.00000000000E+00  0.10002181710E+04  0.10002181710E+04  0.51100000000E-03 0.  1.
          2   -1    0    0  501    0 -0.00000000000E+00 -0.00000000000E+00 -0.23332179299E+02  0.23332179438E+02  0.25500000000E-02 0.  1.
         11    1    1    2    0    0 -0.40805824738E+02 -0.28432190068E+02  0.19610566220E+03  0.20231395284E+03  0.51100000000E-03 0.  1.
         22    1    1    2    0    0 -0.40784650703E+02 -0.79626118494E+02  0.51752728397E+03  0.52520300469E+03  0.00000000000E+00 0.  1.
          2    1    1    2  501    0  0.81590475441E+02  0.10805830856E+03  0.26325304550E+03  0.29603339289E+03  0.25500000000E-02 0.  1.
<mgrwt>
<rscale>  0 0.13540164E+03</rscale>
<asrwt>0</asrwt>
<pdfrwt beam="1">  1       11 0.10000000E+01 0.14145297E+03</pdfrwt>
<pdfrwt beam="2">  1        2 0.35903491E-02 0.13540164E+03</pdfrwt>
<totfact> 0.28362568E+03</totfact>
</mgrwt>
</event>
<event>
 5    1  0.2799727E-003  0.3888756E+02  0.7818608E-02  0.1516561E+00
         11   -1    0    0    0    0  0.00000000000E+00  0.00000000000E+00  0.10002017301E+04  0.10002017301E+04  0.51100000000E-03 0.  1.
          2   -1    0    0  501    0 -0.00000000000E+00 -0.00000000000E+00 -0.43269246882E+01  0.43269254396E+01  0.25500000000E-02 0.  1.
         11    1    1    2    0    0  0.21245273234E+02  0.14629795807E+02  0.74383885102E+02  0.78729631799E+02  0.51100000000E-03 0.  1.
         22    1    1    2    0    0 -0.45091109235E+02 -0.27182634080E+01  0.26920746156E+03  0.27297116047E+03  0.00000000000E+00 0.  1.
          2    1    1    2  501    0  0.23845836000E+02 -0.11911532399E+02  0.65228345877E+03  0.65282786329E+03  0.25500000000E-02 0.  1.
<mgrwt>
<rscale>  0 0.38887564E+02</rscale>
<asrwt>0</asrwt>
<pdfrwt beam="1">  1       11 0.10000000E+01 0.25795217E+02</pdfrwt>
<pdfrwt beam="2">  1        2 0.66581505E-03 0.38887564E+02</pdfrwt>
<totfact> 0.22620472E+04</totfact>
</mgrwt>
</event>
<event>
 5    1  0.2799727E-003  0.4052710E+02  0.7818608E-02  0.1675077E+00
         11   -1    0    0    0    0  0.00000000000E+00  0.00000000000E+00  0.99992864292E+03  0.99992864292E+03  0.51100000000E-03 0. -1.
          2   -1    0    0  501    0 -0.00000000000E+00 -0.00000000000E+00 -0.95962230518E+01  0.95962233906E+01  0.25500000000E-02 0. -1.
         11    1    1    2    0    0  0.46452215199E+01  0.28324242985E+02  0.19097022492E+02  0.34475166308E+02  0.51100000000E-03 0. -1.
         22    1    1    2    0    0 -0.60833033075E+01  0.12906901808E+02  0.33562813537E+02  0.36469948532E+02  0.00000000000E+00 0. -1.
          2    1    1    2  501    0  0.14380817876E+01 -0.41231144793E+02  0.93767258384E+03  0.93857975147E+03  0.25500000000E-02 0. -1.
<mgrwt>
<rscale>  0 0.24047186E+02</rscale>
<asrwt>0</asrwt>
<pdfrwt beam="1">  1       11 0.10000000E+01 0.40527100E+02</pdfrwt>
<pdfrwt beam="2">  1        2 0.14762366E-02 0.24047186E+02</pdfrwt>
<totfact> 0.71671907E+03</totfact>
</mgrwt>
</event>
<event>
 5    1  0.2799727E-003  0.6520769E+02  0.7818608E-02  0.1377192E+00
         11   -1    0    0    0    0  0.00000000000E+00  0.00000000000E+00  0.10003296712E+04  0.10003296712E+04  0.51100000000E-03 0. -1.
          2   -1    0    0  501    0 -0.00000000000E+00 -0.00000000000E+00 -0.99940995264E+01  0.99940998517E+01  0.25500000000E-02 0. -1.
         11    1    1    2    0    0  0.11542796386E+02  0.34203178649E+02  0.70828744316E+02  0.79497198692E+02  0.51100000000E-03 0. -1.
         22    1    1    2    0    0  0.36301394685E+02  0.40690535465E+02  0.29065075147E+03  0.29572177847E+03  0.00000000000E+00 0.  1.
          2    1    1    2  501    0 -0.47844191071E+02 -0.74893714114E+02  0.62885607586E+03  0.63510479386E+03  0.25500000000E-02 0. -1.
<mgrwt>
<rscale>  0 0.65207687E+02</rscale>
<asrwt>0</asrwt>
<pdfrwt beam="1">  1       11 0.10000000E+01 0.36098406E+02</pdfrwt>
<pdfrwt beam="2">  1        2 0.15380606E-02 0.65207687E+02</pdfrwt>
<totfact> 0.80842041E+03</totfact>
</mgrwt>
</event>
<event>
 5    1  0.2799727E-003  0.8411232E+02  0.7818608E-02  0.1317770E+00
         11   -1    0    0    0    0  0.00000000000E+00  0.00000000000E+00  0.10002693642E+04  0.10002693642E+04  0.51100000000E-03 0. -1.
          2   -1    0    0  501    0 -0.00000000000E+00 -0.00000000000E+00 -0.16370962218E+02  0.16370962417E+02  0.25500000000E-02 0. -1.
         11    1    1    2    0    0  0.17746084403E+02 -0.65226546577E+02  0.37658874038E+03  0.38260750812E+03  0.51100000000E-03 0. -1.
         22    1    1    2    0    0  0.55795157955E+02  0.88640651620E+02  0.33429882389E+03  0.35032266331E+03  0.00000000000E+00 0. -1.
          2    1    1    2  501    0 -0.73541242358E+02 -0.23414105043E+02  0.27301083767E+03  0.28371015514E+03  0.25500000000E-02 0. -1.
<mgrwt>
<rscale>  0 0.84112316E+02</rscale>
<asrwt>0</asrwt>
<pdfrwt beam="1">  1       11 0.10000000E+01 0.67597529E+02</pdfrwt>
<pdfrwt beam="2">  1        2 0.25192879E-02 0.84112316E+02</pdfrwt>
<totfact> 0.43215007E+03</totfact>
</mgrwt>
</event>
<event>
 5    1  0.2799727E-003  0.4038189E+03  0.7818608E-02  0.1043457E+00
         11   -1    0    0    0    0  0.00000000000E+00  0.00000000000E+00  0.99996393272E+03  0.99996393272E+03  0.51100000000E-03 0. -1.
          2   -1    0    0  501    0 -0.00000000000E+00 -0.00000000000E+00 -0.16588886816E+03  0.16588886817E+03  0.25500000000E-02 0.  1.
         11    1    1    2    0    0 -0.19088294690E+03  0.33280254357E+03  0.32214746975E+03  0.50097188014E+03  0.51100000000E-03 0. -1.
         22    1    1    2    0    0 -0.28353329173E+01  0.18224408019E+02  0.60941995946E+01  0.19424402928E+02  0.00000000000E+00 0.  1.
          2    1    1    2  501    0  0.19371827982E+03 -0.35102695159E+03  0.50583339523E+03  0.64545651783E+03  0.25500000000E-02 0.  1.
<mgrwt>
<rscale>  0 0.40093228E+03</rscale>
<asrwt>0</asrwt>
<pdfrwt beam="1">  1       11 0.10000000E+01 0.40381889E+03</pdfrwt>
<pdfrwt beam="2">  1        2 0.25520443E-01 0.40093228E+03</pdfrwt>
<totfact> 0.26172246E+02</totfact>
</mgrwt>
</event>
<event>
 5    1  0.2799727E-003  0.8836831E+02  0.7818608E-02  0.1548360E+00
         11   -1    0    0    0    0  0.00000000000E+00  0.00000000000E+00  0.10002224849E+04  0.10002224849E+04  0.51100000000E-03 0. -1.
          2   -1    0    0  501    0 -0.00000000000E+00 -0.00000000000E+00 -0.38232442473E+03  0.38232442474E+03  0.25500000000E-02 0.  1.
         11    1    1    2    0    0  0.23590918426E+02 -0.70613595375E+02  0.39510700196E+03  0.40206013764E+03  0.51100000000E-03 0. -1.
         22    1    1    2    0    0 -0.23190060856E+02  0.10563836124E+03  0.59595154656E+03  0.60568596495E+03  0.00000000000E+00 0. -1.
          2    1    1    2  501    0 -0.40085757035E+00 -0.35024765862E+02 -0.37316048834E+03  0.37480080706E+03  0.25500000000E-02 0.  1.
<mgrwt>
<rscale>  0 0.35027060E+02</rscale>
<asrwt>0</asrwt>
<pdfrwt beam="1">  1       11 0.10000000E+01 0.88368306E+02</pdfrwt>
<pdfrwt beam="2">  1        2 0.58832227E-01 0.35027060E+02</pdfrwt>
<totfact> 0.10477391E+02</totfact>
</mgrwt>
</event>
<event>
 5    1  0.2799727E-003  0.8343423E+02  0.7818608E-02  0.1518815E+00
         11   -1    0    0    0    0  0.00000000000E+00  0.00000000000E+00  0.10000372039E+04  0.10000372039E+04  0.51100000000E-03 0. -1.
          2   -1    0    0  501    0 -0.00000000000E+00 -0.00000000000E+00 -0.89341712154E+01  0.89341715793E+01  0.25500000000E-02 0. -1.
         11    1    1    2    0    0 -0.66987513356E+02  0.40287887405E+02  0.43761924525E+03  0.44454588585E+03  0.51100000000E-03 0. -1.
         22    1    1    2    0    0 -0.19763813860E+01  0.17743330794E+02  0.53996993535E+02  0.56871848764E+02  0.00000000000E+00 0.  1.
          2    1    1    2  501    0  0.68963894742E+02 -0.58031218198E+02  0.49948679388E+03  0.50755364084E+03  0.25500000000E-02 0. -1.
<mgrwt>
<rscale>  0 0.38594773E+02</rscale>
<asrwt>0</asrwt>
<pdfrwt beam="1">  1       11 0.10000000E+01 0.83434226E+02</pdfrwt>
<pdfrwt beam="2">  1        2 0.13745390E-02 0.38594773E+02</pdfrwt>
<totfact> 0.86088983E+03</totfact>
</mgrwt>
</event>
<event>
 5    1  0.2799727E-003  0.3297533E+03  0.7818608E-02  0.1087528E+00
         11   -1    0    0    0    0  0.00000000000E+00  0.00000000000E+00  0.10003053021E+04  0.10003053021E+04  0.51100000000E-03 0.  1.
          2   -1    0    0  501    0 -0.00000000000E+00 -0.00000000000E+00 -0.51682440606E+03  0.51682440607E+03  0.25500000000E-02 0.  1.
         11    1    1    2    0    0  0.77316138242E+02  0.71119478987E+02  0.17336785782E+03  0.20271206094E+03  0.51100000000E-03 0.  1.
         22    1    1    2    0    0  0.32977213092E+02  0.20299091668E+03  0.75380117719E+03  0.78135076858E+03  0.00000000000E+00 0.  1.
          2    1    1    2  501    0 -0.11029335133E+03 -0.27411039567E+03 -0.44368813901E+03  0.53306687861E+03  0.25500000000E-02 0.  1.
<mgrwt>
<rscale>  0 0.29546765E+03</rscale>
<asrwt>0</asrwt>
<pdfrwt beam="1">  1       11 0.10000000E+01 0.32975329E+03</pdfrwt>
<pdfrwt beam="2">  1        2 0.79535720E-01 0.29546765E+03</pdfrwt>
<totfact> 0.74555000E+01</totfact>
</mgrwt>
</event>
<event>
 5    1  0.2799727E-003  0.1762235E+03  0.7818608E-02  0.1171509E+00
         11   -1    0    0    0    0  0.00000000000E+00  0.00000000000E+00  0.10000523204E+04  0.10000523204E+04  0.51100000000E-03 0. -1.
          2   -1    0    0  501    0 -0.00000000000E+00 -0.00000000000E+00 -0.35656015925E+02  0.35656016016E+02  0.25500000000E-02 0. -1.
         11    1    1    2    0    0  0.20578624295E+02  0.16965707352E+03  0.67994199906E+03  0.70109066779E+03  0.51100000000E-03 0. -1.
         22    1    1    2    0    0  0.28298325920E+01 -0.11837171184E+02  0.57124239547E+01  0.13444640626E+02  0.00000000000E+00 0. -1.
          2    1    1    2  501    0 -0.23408456887E+02 -0.15781990234E+03  0.27874188144E+03  0.32117302798E+03  0.25500000000E-02 0. -1.
<mgrwt>
<rscale>  0 0.17622353E+03</rscale>
<asrwt>0</asrwt>
<pdfrwt beam="1">  1       11 0.10000000E+01 0.17090056E+03</pdfrwt>
<pdfrwt beam="2">  1        2 0.54858278E-02 0.17622353E+03</pdfrwt>
<totfact> 0.16569122E+03</totfact>
</mgrwt>
</event>
<event>
 5    1  0.2799727E-003  0.1762067E+03  0.7818608E-02  0.1173237E+00
         11   -1    0    0    0    0  0.00000000000E+00  0.00000000000E+00  0.10002504689E+04  0.10002504689E+04  0.51100000000E-03 0. -1.
          2   -1    0    0  501    0 -0.00000000000E+00 -0.00000000000E+00 -0.43194951173E+02  0.43194951248E+02  0.25500000000E-02 0. -1.
         11    1    1    2    0    0  0.16235498684E+03  0.21920503189E+02  0.17936080992E+03  0.24291963763E+03  0.51100000000E-03 0. -1.
         22    1    1    2    0    0  0.99276931708E+01  0.57952689771E+01  0.20684308284E+02  0.23663998888E+02  0.00000000000E+00 0. -1.
          2    1    1    2  501    0 -0.17228268002E+03 -0.27715772166E+02  0.75701039949E+03  0.77686178359E+03  0.25500000000E-02 0. -1.
<mgrwt>
<rscale>  0 0.17449781E+03</rscale>
<asrwt>0</asrwt>
<pdfrwt beam="1">  1       11 0.10000000E+01 0.17620666E+03</pdfrwt>
<pdfrwt beam="2">  1        2 0.66470414E-02 0.17449781E+03</pdfrwt>
<totfact> 0.12909594E+03</totfact>
</mgrwt>
</event>
<event>
 5    1  0.2799727E-003  0.1056614E+03  0.7818608E-02  0.1350644E+00
         11   -1    0    0    0    0  0.00000000000E+00  0.00000000000E+00  0.10000237562E+04  0.10000237562E+04  0.51100000000E-03 0.  1.
          2   -1    0    0  501    0 -0.00000000000E+00 -0.00000000000E+00 -0.14905689721E+03  0.14905689723E+03  0.25500000000E-02 0. -1.
         11    1    1    2    0    0 -0.56646603787E+02 -0.82190305956E+02  0.57331755716E+03  0.58194252763E+03  0.51100000000E-03 0.  1.
         22    1    1    2    0    0  0.12333712773E+03  0.52859939683E+02  0.40156498360E+03  0.42339184729E+03  0.00000000000E+00 0.  1.
          2    1    1    2  501    0 -0.66690523947E+02  0.29330366272E+02 -0.12391568181E+03  0.14374627847E+03  0.25500000000E-02 0. -1.
<mgrwt>
<rscale>  0 0.72855311E+02</rscale>
<asrwt>0</asrwt>
<pdfrwt beam="1">  1       11 0.10000000E+01 0.10566138E+03</pdfrwt>
<pdfrwt beam="2">  1        2 0.22932374E-01 0.72855311E+02</pdfrwt>
<totfact> 0.28257750E+02</totfact>
</mgrwt>
</event>
<event>
 5    1  0.2799727E-003  0.7035417E+02  0.7818608E-02  0.1402396E+00
         11   -1    0    0    0    0  0.00000000000E+00  0.00000000000E+00  0.10003060625E+04  0.10003060625E+04  0.51100000000E-03 0. -1.
          2   -1    0    0  501    0 -0.00000000000E+00 -0.00000000000E+00 -0.12885778881E+02  0.12885779133E+02  0.25500000000E-02 0. -1.
         11    1    1    2    0    0  0.33829766607E+01 -0.84903160764E+02  0.49846776502E+03  0.50565809002E+03  0.51100000000E-03 0. -1.
         22    1    1    2    0    0 -0.48501311844E+02  0.47000919897E+02  0.35233894997E+03  0.35875367509E+03  0.00000000000E+00 0. -1.
          2    1    1    2  501    0  0.45118335183E+02  0.37902240867E+02  0.13661356868E+03  0.14878007658E+03  0.25500000000E-02 0. -1.
<mgrwt>
<rscale>  0 0.58925750E+02</rscale>
<asrwt>0</asrwt>
<pdfrwt beam="1">  1       11 0.10000000E+01 0.70354166E+02</pdfrwt>
<pdfrwt beam="2">  1        2 0.19830342E-02 0.58925750E+02</pdfrwt>
<totfact> 0.56698449E+03</totfact>
</mgrwt>
</event>
<event>
 5    1  0.2799727E-003  0.2404157E+03  0.7818608E-02  0.1119516E+00
         11   -1    0    0    0    0  0.00000000000E+00  0.00000000000E+00  0.10000093729E+04  0.10000093729E+04  0.51100000000E-03 0. -1.
          2   -1    0    0  501    0 -0.00000000000E+00 -0.00000000000E+00 -0.12170578338E+03  0.12170578341E+03  0.25500000000E-02 0. -1.
         11    1    1    2    0    0 -0.25213811378E+02 -0.86618814209E+02  0.79317672383E+02  0.12012430400E+03  0.51100000000E-03 0. -1.
         22    1    1    2    0    0 -0.43475949910E+01 -0.17017430013E+03  0.70702739414E+03  0.72723168941E+03  0.00000000000E+00 0. -1.
          2    1    1    2  501    0  0.29561406369E+02  0.25679311434E+03  0.91958523015E+02  0.27435916292E+03  0.25500000000E-02 0. -1.
<mgrwt>
<rscale>  0 0.24041568E+03</rscale>
<asrwt>0</asrwt>
<pdfrwt beam="1">  1       11 0.10000000E+01 0.90213987E+02</pdfrwt>
<pdfrwt beam="2">  1        2 0.18724142E-01 0.24041568E+03</pdfrwt>
<totfact> 0.36876935E+02</totfact>
</mgrwt>
</event>
<event>
 5    1  0.2799727E-003  0.2490478E+03  0.7818608E-02  0.1115473E+00
         11   -1    0    0    0    0  0.00000000000E+00  0.00000000000E+00  0.10003978506E+04  0.10003978506E+04  0.51100000000E-03 0. -1.
          2   -1    0    0  501    0 -0.00000000000E+00 -0.00000000000E+00 -0.91752971094E+03  0.91752971094E+03  0.25500000000E-02 0. -1.
         11    1    1    2    0    0 -0.22939661735E+02 -0.19339703747E+02  0.17120287439E+03  0.17381218721E+03  0.51100000000E-03 0. -1.
         22    1    1    2    0    0 -0.16568779836E+03 -0.13950291954E+03  0.79657026992E+03  0.82549240214E+03  0.00000000000E+00 0. -1.
          2    1    1    2  501    0  0.18862746010E+03  0.15884262328E+03 -0.88490500468E+03  0.91862297216E+03  0.25500000000E-02 0. -1.
<mgrwt>
<rscale>  0 0.24659947E+03</rscale>
<asrwt>0</asrwt>
<pdfrwt beam="1">  1       11 0.10000000E+01 0.24904779E+03</pdfrwt>
<pdfrwt beam="2">  1        2 0.14121457E+00 0.24659947E+03</pdfrwt>
<totfact> 0.37136646E+01</totfact>
</mgrwt>
</event>
<event>
 5    1  0.2799727E-003  0.3560520E+02  0.7818608E-02  0.1543291E+00
         11   -1    0    0    0    0  0.00000000000E+00  0.00000000000E+00  0.10003169836E+04  0.10003169836E+04  0.51100000000E-03 0. -1.
          2   -1    0    0  501    0 -0.00000000000E+00 -0.00000000000E+00 -0.66990806694E+01  0.66990811547E+01  0.25500000000E-02 0. -1.
         11    1    1    2    0    0 -0.38103312251E+01  0.18524770085E+02  0.17258079376E+02  0.25603262190E+02  0.51100000000E-03 0. -1.
         22    1    1    2    0    0  0.23290232810E+02  0.24515274191E+02  0.15270125485E+03  0.15640046945E+03  0.00000000000E+00 0. -1.
          2    1    1    2  501    0 -0.19479901584E+02 -0.43040044276E+02  0.82365856869E+03  0.82501233310E+03  0.25500000000E-02 0. -1.
<mgrwt>
<rscale>  0 0.35605204E+02</rscale>
<asrwt>0</asrwt>
<pdfrwt beam="1">  1       11 0.10000000E+01 0.18912591E+02</pdfrwt>
<pdfrwt beam="2">  1        2 0.10309545E-02 0.35605204E+02</pdfrwt>
<totfact> 0.12408469E+04</totfact>
</mgrwt>
</event>
<event>
 5    1  0.2799727E-003  0.3243727E+03  0.7818608E-02  0.1073654E+00
         11   -1    0    0    0    0  0.00000000000E+00  0.00000000000E+00  0.10002168566E+04  0.10002168566E+04  0.51100000000E-03 0. -1.
          2   -1    0    0  501    0 -0.00000000000E+00 -0.00000000000E+00 -0.23983100319E+04  0.23983100319E+04  0.25500000000E-02 0. -1.
         11    1    1    2    0    0 -0.17848733761E+02  0.30572662658E+03  0.94157266814E+03  0.99012445525E+03  0.51100000000E-03 0. -1.
         22    1    1    2    0    0 -0.13950377997E+02  0.17296062207E+02  0.17939366468E+02  0.28558495818E+02  0.00000000000E+00 0. -1.
          2    1    1    2  501    0  0.31799111758E+02 -0.32302268878E+03 -0.23576052099E+04  0.23798439375E+04  0.25500000000E-02 0. -1.
<mgrwt>
<rscale>  0 0.32437267E+03</rscale>
<asrwt>0</asrwt>
<pdfrwt beam="1">  1       11 0.10000000E+01 0.22220864E+02</pdfrwt>
<pdfrwt beam="2">  1        2 0.36905078E+00 0.32437267E+03</pdfrwt>
<totfact> 0.55934607E+00</totfact>
</mgrwt>
</event>
<event>
 5    1  0.2799727E-003  0.2788358E+03  0.7818608E-02  0.1102232E+00
         11   -1    0    0    0    0  0.00000000000E+00  0.00000000000E+00  0.10003004472E+04  0.10003004472E+04  0.51100000000E-03 0.  1.
         -2   -1    0    0    0  501 -0.00000000000E+00 -0.00000000000E+00 -0.10146738708E+04  0.10146738708E+04  0.25500000000E-02 0.  1.
         11    1    1    2    0    0  0.18292973903E+02  0.15963409683E+03  0.66766240926E+03  0.68672466863E+03  0.51100000000E-03 0.  1.
         22    1    1    2    0    0  0.50857798036E+02  0.99645326764E+02  0.29475407379E+03  0.31527078961E+03  0.00000000000E+00 0.  1.
         -2    1    1    2    0  501 -0.69150771938E+02 -0.25927942360E+03 -0.97678990663E+03  0.10129788598E+04  0.25500000000E-02 0.  1.
<mgrwt>
<rscale>  0 0.26834241E+03</rscale>
<asrwt>0</asrwt>
<pdfrwt beam="1">  1       11 0.10000000E+01 0.27883581E+03</pdfrwt>
<pdfrwt beam="2">  1       -2 0.15615057E+00 0.26834241E+03</pdfrwt>
<totfact> 0.23237439E+00</totfact>
</mgrwt>
</event>
<event>
 5    1  0.2799727E-003  0.8796362E+02  0.7818608E-02  0.1307859E+00
         11   -1    0    0    0    0  0.00000000000E+00  0.00000000000E+00  0.99992157292E+03  0.99992157292E+03  0.51100000000E-03 0. -1.
         -2   -1    0    0    0  501 -0.00000000000E+00 -0.00000000000E+00 -0.45121703597E+02  0.45121703669E+02  0.25500000000E-02 0.  1.
         11    1    1    2    0    0  0.45054647392E+02 -0.68929109276E+02  0.21265328397E+03  0.22804070369E+03  0.51100000000E-03 0. -1.
         22    1    1    2    0    0  0.28322409650E+02  0.11701951981E+03  0.71514573824E+03  0.72520973093E+03  0.00000000000E+00 0.  1.
         -2    1    1    2    0  501 -0.73377057042E+02 -0.48090410538E+02  0.27000847113E+02  0.91792841971E+02  0.25500000000E-02 0.  1.
<mgrwt>
<rscale>  0 0.87963618E+02</rscale>
<asrwt>0</asrwt>
<pdfrwt beam="1">  1       11 0.10000000E+01 0.82347698E+02</pdfrwt>
<pdfrwt beam="2">  1       -2 0.69412559E-02 0.87963618E+02</pdfrwt>
<totfact> 0.86830364E+02</totfact>
</mgrwt>
</event>
<event>
 5    1  0.2799727E-003  0.1803232E+03  0.7818608E-02  0.1170491E+00
         11   -1    0    0    0    0  0.00000000000E+00  0.00000000000E+00  0.10002815249E+04  0.10002815249E+04  0.51100000000E-03 0.  1.
         -2   -1    0    0    0  501 -0.00000000000E+00 -0.00000000000E+00 -0.77969895961E+02  0.77969896003E+02  0.25500000000E-02 0. -1.
         11    1    1    2    0    0 -0.14512616604E+03 -0.20150412489E+02  0.77007603885E+03  0.78389077606E+03  0.51100000000E-03 0.  1.
         22    1    1    2    0    0 -0.31301809255E+02  0.30938932118E+01  0.10686154734E+03  0.11139463962E+03  0.00000000000E+00 0.  1.
         -2    1    1    2    0  501  0.17642797529E+03  0.17056519277E+02  0.45374042806E+02  0.18296600527E+03  0.25500000000E-02 0. -1.
<mgrwt>
<rscale>  0 0.17725054E+03</rscale>
<asrwt>0</asrwt>
<pdfrwt beam="1">  1       11 0.10000000E+01 0.18032317E+03</pdfrwt>
<pdfrwt beam="2">  1       -2 0.11998745E-01 0.17725054E+03</pdfrwt>
<totfact> 0.38779483E+02</totfact>
</mgrwt>
</event>
<event>
 5    1  0.2799727E-003  0.2451980E+03  0.7818608E-02  0.1125484E+00
         11   -1    0    0    0    0  0.00000000000E+00  0.00000000000E+00  0.10001133602E+04  0.10001133602E+04  0.51100000000E-03 0. -1.
         -2   -1    0    0    0  501 -0.00000000000E+00 -0.00000000000E+00 -0.15191155313E+03  0.15191155315E+03  0.25500000000E-02 0.  1.
         11    1    1    2    0    0  0.14486656398E+02  0.12628434726E+03  0.58062308236E+03  0.59437426201E+03  0.51100000000E-03 0. -1.
         22    1    1    2    0    0  0.60614520236E+02  0.92853303132E+02  0.30360079552E+03  0.32321710816E+03  0.00000000000E+00 0. -1.
         -2    1    1    2    0  501 -0.75101176634E+02 -0.21913765039E+03 -0.36022070861E+02  0.23443354313E+03  0.25500000000E-02 0.  1.
<mgrwt>
<rscale>  0 0.23164951E+03</rscale>
<asrwt>0</asrwt>
<pdfrwt beam="1">  1       11 0.10000000E+01 0.24519799E+03</pdfrwt>
<pdfrwt beam="2">  1       -2 0.23373657E-01 0.23164951E+03</pdfrwt>
<totfact> 0.12837052E+02</totfact>
</mgrwt>
</event>
<event>
 5    1  0.2799727E-003  0.7374999E+02  0.7818608E-02  0.1351123E+00
         11   -1    0    0    0    0  0.00000000000E+00  0.00000000000E+00  0.10002312750E+04  0.10002312750E+04  0.51100000000E-03 0. -1.
          2   -1    0    0  501    0 -0.00000000000E+00 -0.00000000000E+00 -0.59443167767E+01  0.59443173236E+01  0.25500000000E-02 0. -1.
         11    1    1    2    0    0  0.19416951697E+02 -0.53238676693E+02  0.25412189733E+03  0.26036380972E+03  0.51100000000E-03 0. -1.
         22    1    1    2    0    0 -0.36269511374E+00 -0.16926981575E+02  0.88644541436E+02  0.90246933351E+02  0.00000000000E+00 0. -1.
          2    1    1    2  501    0 -0.19054256583E+02  0.70165658268E+02  0.65152051946E+03  0.65556484925E+03  0.25500000000E-02 0. -1.
<mgrwt>
<rscale>  0 0.72706838E+02</rscale>
<asrwt>0</asrwt>
<pdfrwt beam="1">  1       11 0.10000000E+01 0.73749994E+02</pdfrwt>
<pdfrwt beam="2">  1        2 0.91472179E-03 0.72706838E+02</pdfrwt>
<totfact> 0.16621198E+04</totfact>
</mgrwt>
</event>
<event>
 5    1  0.2799727E-003  0.6819542E+02  0.7818608E-02  0.1381724E+00
         11   -1    0    0    0    0  0.00000000000E+00  0.00000000000E+00  0.10002002067E+04  0.10002002067E+04  0.51100000000E-03 0. -1.
          2   -1    0    0  501    0 -0.00000000000E+00 -0.00000000000E+00 -0.50200183273E+01  0.50200189749E+01  0.25500000000E-02 0. -1.
         11    1    1    2    0    0  0.19480894825E+02 -0.16673675537E+02  0.89032500847E+02  0.92651513352E+02  0.51100000000E-03 0. -1.
         22    1    1    2    0    0  0.39469116691E+02 -0.82766739396E+01  0.24132044092E+03  0.24466685454E+03  0.00000000000E+00 0. -1.
          2    1    1    2  501    0 -0.58950011516E+02  0.24950349477E+02  0.66482724663E+03  0.66790185781E+03  0.25500000000E-02 0. -1.
<mgrwt>
<rscale>  0 0.64012685E+02</rscale>
<asrwt>0</asrwt>
<pdfrwt beam="1">  1       11 0.10000000E+01 0.68195419E+02</pdfrwt>
<pdfrwt beam="2">  1        2 0.77246516E-03 0.64012685E+02</pdfrwt>
<totfact> 0.20449594E+04</totfact>
</mgrwt>
</event>
<event>
 5    1  0.2799727E-003  0.4433857E+03  0.7818608E-02  0.1031025E+00
         11   -1    0    0    0    0  0.00000000000E+00  0.00000000000E+00  0.99622195157E+03  0.99622195157E+03  0.51100000000E-03 0. -1.
          2   -1    0    0  501    0 -0.00000000000E+00 -0.00000000000E+00 -0.47398372540E+04  0.47398372540E+04  0.25500000000E-02 0. -1.
         11    1    1    2    0    0  0.36069416093E+03 -0.20311403063E+03  0.89441193819E+03  0.98555989282E+03  0.51100000000E-03 0. -1.
         22    1    1    2    0    0  0.15481486425E+02 -0.23368861334E+02  0.41684303753E+02  0.50233069599E+02  0.00000000000E+00 0.  1.
          2    1    1    2  501    0 -0.37617564735E+03  0.22648289196E+03 -0.46797115443E+04  0.47002662431E+04  0.25500000000E-02 0. -1.
<mgrwt>
<rscale>  0 0.43909295E+03</rscale>
<asrwt>0</asrwt>
<pdfrwt beam="1">  1       11 0.10000000E+01 0.44338571E+03</pdfrwt>
<pdfrwt beam="2">  1        2 0.72645074E+00 0.43909295E+03</pdfrwt>
<totfact> 0.11594693E-01</totfact>
</mgrwt>
</event>
<event>
 5    1  0.2799727E-003  0.1372632E+03  0.7818608E-02  0.1235970E+00
         11   -1    0    0    0    0  0.00000000000E+00  0.00000000000E+00  0.10002896903E+04  0.10002896903E+04  0.51100000000E-03 0. -1.
          2   -1    0    0  501    0 -0.00000000000E+00 -0.00000000000E+00 -0.37471470813E+02  0.37471470900E+02  0.25500000000E-02 0. -1.
         11    1    1    2    0    0 -0.20168881565E+02  0.50142845015E+02  0.57799456209E+02  0.79131952005E+02  0.51100000000E-03 0. -1.
         22    1    1    2    0    0 -0.76399143937E+02  0.28318788827E+02  0.52165135940E+02  0.96747012370E+02  0.00000000000E+00 0. -1.
          2    1    1    2  501    0  0.96568025502E+02 -0.78461633842E+02  0.85285362735E+03  0.86188219683E+03  0.25500000000E-02 0. -1.
<mgrwt>
<rscale>  0 0.12442512E+03</rscale>
<asrwt>0</asrwt>
<pdfrwt beam="1">  1       11 0.10000000E+01 0.13726325E+03</pdfrwt>
<pdfrwt beam="2">  1        2 0.57665115E-02 0.12442512E+03</pdfrwt>
<totfact> 0.15124477E+03</totfact>
</mgrwt>
</event>
<event>
 5    1  0.2799727E-003  0.1063327E+03  0.7818608E-02  0.1267516E+00
         11   -1    0    0    0    0  0.00000000000E+00  0.00000000000E+00  0.10004167113E+04  0.10004167113E+04  0.51100000000E-03 0. -1.
         -2   -1    0    0    0  501 -0.00000000000E+00 -0.00000000000E+00 -0.10794914772E+03  0.10794914775E+03  0.25500000000E-02 0.  1.
         11    1    1    2    0    0 -0.14095911119E+02  0.96820377460E+02  0.13340409023E+03  0.16543739448E+03  0.51100000000E-03 0. -1.
         22    1    1    2    0    0 -0.71830614633E+02 -0.15644522063E+03  0.80894209840E+03  0.82705626339E+03  0.00000000000E+00 0. -1.
         -2    1    1    2    0  501  0.85926525752E+02  0.59624843165E+02 -0.49878625084E+02  0.11587220114E+03  0.25500000000E-02 0.  1.
<mgrwt>
<rscale>  0 0.10633269E+03</rscale>
<asrwt>0</asrwt>
<pdfrwt beam="1">  1       11 0.10000000E+01 0.97841097E+02</pdfrwt>
<pdfrwt beam="2">  1       -2 0.16614481E-01 0.10633269E+03</pdfrwt>
<totfact> 0.22313247E+02</totfact>
</mgrwt>
</event>
<event>
 5    1  0.2799727E-003  0.4735329E+03  0.7818608E-02  0.1025152E+00
         11   -1    0    0    0    0  0.00000000000E+00  0.00000000000E+00  0.99994164626E+03  0.99994164626E+03  0.51100000000E-03 0.  1.
          2   -1    0    0  501    0 -0.00000000000E+00 -0.00000000000E+00 -0.33780412091E+03  0.33780412092E+03  0.25500000000E-02 0.  1.
         11    1    1    2    0    0 -0.11591829351E+03  0.26002981259E+03  0.36280963994E+03  0.46117609330E+03  0.51100000000E-03 0.  1.
         22    1    1    2    0    0 -0.18496885501E+02  0.17856056059E+03  0.37112299912E+03  0.41225997750E+03  0.00000000000E+00 0.  1.
          2    1    1    2  501    0  0.13441517901E+03 -0.43859037317E+03 -0.71795113707E+02  0.46430969638E+03  0.25500000000E-02 0.  1.
<mgrwt>
<rscale>  0 0.45872536E+03</rscale>
<asrwt>0</asrwt>
<pdfrwt beam="1">  1       11 0.10000000E+01 0.47353295E+03</pdfrwt>
<pdfrwt beam="2">  1        2 0.51966831E-01 0.45872536E+03</pdfrwt>
<totfact> 0.11914049E+02</totfact>
</mgrwt>
</event>
<event>
 5    1  0.2799727E-003  0.1296391E+03  0.7818608E-02  0.1239315E+00
         11   -1    0    0    0    0  0.00000000000E+00  0.00000000000E+00  0.10000407281E+04  0.10000407281E+04  0.51100000000E-03 0. -1.
          2   -1    0    0  501    0 -0.00000000000E+00 -0.00000000000E+00 -0.20546593358E+02  0.20546593517E+02  0.25500000000E-02 0. -1.
         11    1    1    2    0    0 -0.46264981865E+02  0.63293385716E+02  0.12024327076E+03  0.14354422798E+03  0.51100000000E-03 0. -1.
         22    1    1    2    0    0 -0.11519470010E+02  0.44519649555E+02  0.13712781001E+03  0.14463310017E+03  0.00000000000E+00 0. -1.
          2    1    1    2  501    0  0.57784451876E+02 -0.10781303527E+03  0.72212305398E+03  0.73240999348E+03  0.25500000000E-02 0. -1.
<mgrwt>
<rscale>  0 0.12232209E+03</rscale>
<asrwt>0</asrwt>
<pdfrwt beam="1">  1       11 0.10000000E+01 0.12963911E+03</pdfrwt>
<pdfrwt beam="2">  1        2 0.31611430E-02 0.12232209E+03</pdfrwt>
<totfact> 0.33278992E+03</totfact>
</mgrwt>
</event>
<event>
 5    1  0.2799727E-003  0.2365882E+03  0.7818608E-02  0.1573322E+00
         11   -1    0    0    0    0  0.00000000000E+00  0.00000000000E+00  0.10001547123E+04  0.10001547123E+04  0.51100000000E-03 0. -1.
          2   -1    0    0  501    0 -0.00000000000E+00 -0.00000000000E+00 -0.67410224981E+02  0.67410225029E+02  0.25500000000E-02 0. -1.
         11    1    1    2    0    0 -0.21493537298E+03 -0.54970411047E+02  0.43191001079E+03  0.48555660645E+03  0.51100000000E-03 0. -1.
         22    1    1    2    0    0  0.24465293521E+03  0.67792238274E+02  0.48144438771E+03  0.54427892182E+03  0.00000000000E+00 0. -1.
          2    1    1    2  501    0 -0.29717562223E+02 -0.12821827228E+02  0.19390088839E+02  0.37729409081E+02  0.25500000000E-02 0. -1.
<mgrwt>
<rscale>  0 0.32365611E+02</rscale>
<asrwt>0</asrwt>
<pdfrwt beam="1">  1       11 0.10000000E+01 0.23658818E+03</pdfrwt>
<pdfrwt beam="2">  1        2 0.10372408E-01 0.32365611E+02</pdfrwt>
<totfact> 0.65943612E+02</totfact>
</mgrwt>
</event>
<event>
 5    1  0.2799727E-003  0.6614138E+02  0.7818608E-02  0.1385432E+00
         11   -1    0    0    0    0  0.00000000000E+00  0.00000000000E+00  0.10004203940E+04  0.10004203940E+04  0.51100000000E-03 0.  1.
          2   -1    0    0  501    0 -0.00000000000E+00 -0.00000000000E+00 -0.51346639002E+01  0.51346645334E+01  0.25500000000E-02 0.  1.
         11    1    1    2    0    0 -0.42343995447E+02  0.14572740596E+02  0.17243751061E+03  0.17815744100E+03  0.51100000000E-03 0.  1.
         22    1    1    2    0    0 -0.19835156711E+02 -0.40861584542E+01  0.11712978674E+03  0.11886764520E+03  0.00000000000E+00 0. -1.
          2    1    1    2  501    0  0.62179152158E+02 -0.10486582141E+02  0.70571843272E+03  0.70852997231E+03  0.25500000000E-02 0.  1.
<mgrwt>
<rscale>  0 0.63057239E+02</rscale>
<asrwt>0</asrwt>
<pdfrwt beam="1">  1       11 0.10000000E+01 0.66141380E+02</pdfrwt>
<pdfrwt beam="2">  1        2 0.79028041E-03 0.63057239E+02</pdfrwt>
<totfact> 0.19771728E+04</totfact>
</mgrwt>
</event>
<event>
 5    1  0.2799727E-003  0.1637076E+03  0.7818608E-02  0.1318902E+00
         11   -1    0    0    0    0  0.00000000000E+00  0.00000000000E+00  0.10005527354E+04  0.10005527354E+04  0.51100000000E-03 0. -1.
          2   -1    0    0  501    0 -0.00000000000E+00 -0.00000000000E+00 -0.38799211626E+03  0.38799211627E+03  0.25500000000E-02 0. -1.
         11    1    1    2    0    0  0.25508399293E+02  0.16763051766E+03  0.26626209353E+03  0.31566781802E+03  0.51100000000E-03 0. -1.
         22    1    1    2    0    0 -0.10168684752E+03 -0.13298425975E+03  0.69468950426E+03  0.71457577319E+03  0.00000000000E+00 0. -1.
          2    1    1    2  501    0  0.76178448229E+02 -0.34646257904E+02 -0.34839097870E+03  0.35830126041E+03  0.25500000000E-02 0. -1.
<mgrwt>
<rscale>  0 0.83687031E+02</rscale>
<asrwt>0</asrwt>
<pdfrwt beam="1">  1       11 0.10000000E+01 0.16370757E+03</pdfrwt>
<pdfrwt beam="2">  1        2 0.59724086E-01 0.83687031E+02</pdfrwt>
<totfact> 0.10318739E+02</totfact>
</mgrwt>
</event>
<event>
 5    1  0.2799727E-003  0.3108271E+03  0.7818608E-02  0.1079950E+00
         11   -1    0    0    0    0  0.00000000000E+00  0.00000000000E+00  0.10002603301E+04  0.10002603301E+04  0.51100000000E-03 0. -1.
         -2   -1    0    0    0  501 -0.00000000000E+00 -0.00000000000E+00 -0.48201960198E+03  0.48201960199E+03  0.25500000000E-02 0.  1.
         11    1    1    2    0    0  0.32870329439E+03 -0.28430048917E+03  0.13914366426E+03  0.45632618069E+03  0.51100000000E-03 0. -1.
         22    1    1    2    0    0 -0.98582285294E+02  0.11727990392E+03  0.62900594674E+03  0.64739595602E+03  0.00000000000E+00 0. -1.
         -2    1    1    2    0  501 -0.23012100909E+03  0.16702058525E+03 -0.24990888285E+03  0.37855779540E+03  0.25500000000E-02 0.  1.
<mgrwt>
<rscale>  0 0.31082711E+03</rscale>
<asrwt>0</asrwt>
<pdfrwt beam="1">  1       11 0.10000000E+01 0.15320915E+03</pdfrwt>
<pdfrwt beam="2">  1       -2 0.74176165E-01 0.31082711E+03</pdfrwt>
<totfact> 0.13617782E+01</totfact>
</mgrwt>
</event>
<event>
 5    1  0.2799727E-003  0.3097231E+02  0.7818608E-02  0.1732776E+00
         11   -1    0    0    0    0  0.00000000000E+00  0.00000000000E+00  0.10004509751E+04  0.10004509751E+04  0.51100000000E-03 0.  1.
          2   -1    0    0  501    0 -0.00000000000E+00 -0.00000000000E+00 -0.44781938380E+01  0.44781945640E+01  0.25500000000E-02 0.  1.
         11    1    1    2    0    0  0.11329318077E+02 -0.36389967166E+02  0.20384462646E+03  0.20737698738E+03  0.51100000000E-03 0.  1.
         22    1    1    2    0    0 -0.15301023498E+02  0.16129451471E+02  0.45525428282E+02  0.50664041934E+02  0.00000000000E+00 0.  1.
          2    1    1    2  501    0  0.39717054210E+01  0.20260515695E+02  0.74660272654E+03  0.74688814037E+03  0.25500000000E-02 0.  1.
<mgrwt>
<rscale>  0 0.20646136E+02</rscale>
<asrwt>0</asrwt>
<pdfrwt beam="1">  1       11 0.10000000E+01 0.30972314E+02</pdfrwt>
<pdfrwt beam="2">  1        2 0.68926364E-03 0.20646136E+02</pdfrwt>
<totfact> 0.18633248E+04</totfact>
</mgrwt>
</event>
<event>
 5    1  0.3514557E-003  0.2866641E+03  0.7818608E-02  0.1093433E+00
         11   -1    0    0    0    0  0.00000000000E+00  0.00000000000E+00  0.10003047773E+04  0.10003047773E+04  0.51100000000E-03 0. -1.
          2   -1    0    0  501    0 -0.00000000000E+00 -0.00000000000E+00 -0.33827734169E+03  0.33827734170E+03  0.25500000000E-02 0. -1.
         11    1    1    2    0    0 -0.53843787963E+02 -0.26762301435E+03  0.84955901720E+03  0.89234060483E+03  0.51100000000E-03 0. -1.
         22    1    1    2    0    0  0.20668465091E+01 -0.11790654070E+02  0.64990265374E+02  0.66083477294E+02  0.00000000000E+00 0. -1.
          2    1    1    2  501    0  0.51776941454E+02  0.27941366842E+03 -0.25252184699E+03  0.38015803685E+03  0.25500000000E-02 0. -1.
<mgrwt>
<rscale>  0 0.28417046E+03</rscale>
<asrwt>0</asrwt>
<pdfrwt beam="1">  1       11 0.10000000E+01 0.28666414E+03</pdfrwt>
<pdfrwt beam="2">  1        2 0.52058528E-01 0.28417046E+03</pdfrwt>
<totfact> 0.11910424E+02</totfact>
</mgrwt>
</event>
<event>
 5    1  0.2799727E-003  0.1882401E+03  0.7818608E-02  0.1162015E+00
         11   -1    0    0    0    0  0.00000000000E+00  0.00000000000E+00  0.10000759227E+04  0.10000759227E+04  0.51100000000E-03 0.  1.
          2   -1    0    0  501    0 -0.00000000000E+00 -0.00000000000E+00 -0.35403887324E+02  0.35403887416E+02  0.25500000000E-02 0.  1.
         11    1    1    2    0    0  0.16128530500E+03  0.55527704008E+02  0.38571219733E+03  0.42174657638E+03  0.51100000000E-03 0.  1.
         22    1    1    2    0    0  0.17245498412E+02 -0.29486799653E+01  0.46293912224E+02  0.49489678096E+02  0.00000000000E+00 0. -1.
          2    1    1    2  501    0 -0.17853080342E+03 -0.52579024042E+02  0.53266592581E+03  0.56424355563E+03  0.25500000000E-02 0.  1.
<mgrwt>
<rscale>  0 0.18611234E+03</rscale>
<asrwt>0</asrwt>
<pdfrwt beam="1">  1       11 0.10000000E+01 0.18824008E+03</pdfrwt>
<pdfrwt beam="2">  1        2 0.54471653E-02 0.18611234E+03</pdfrwt>
<totfact> 0.16790601E+03</totfact>
</mgrwt>
</event>
<event>
 5    1  0.2799727E-003  0.2874184E+02  0.7818608E-02  0.1612427E+00
         11   -1    0    0    0    0  0.00000000000E+00  0.00000000000E+00  0.10000321449E+04  0.10000321449E+04  0.51100000000E-03 0. -1.
          2   -1    0    0  501    0 -0.00000000000E+00 -0.00000000000E+00 -0.44950047410E+01  0.44950054643E+01  0.25500000000E-02 0. -1.
         11    1    1    2    0    0 -0.94297304615E+01  0.16013717261E+02  0.46619244711E+02  0.50186780478E+02  0.51100000000E-03 0. -1.
         22    1    1    2    0    0  0.29085370323E+02  0.39609999278E+01  0.84227195596E+02  0.89195676830E+02  0.00000000000E+00 0. -1.
          2    1    1    2  501    0 -0.19655639862E+02 -0.19974717189E+02  0.86469069981E+03  0.86514469301E+03  0.25500000000E-02 0. -1.
<mgrwt>
<rscale>  0 0.28741838E+02</rscale>
<asrwt>0</asrwt>
<pdfrwt beam="1">  1       11 0.10000000E+01 0.18583845E+02</pdfrwt>
<pdfrwt beam="2">  1        2 0.69156146E-03 0.28741838E+02</pdfrwt>
<totfact> 0.20101821E+04</totfact>
</mgrwt>
</event>
<event>
 5    1  0.2799727E-003  0.6818773E+02  0.7818608E-02  0.1384232E+00
         11   -1    0    0    0    0  0.00000000000E+00  0.00000000000E+00  0.10003054831E+04  0.10003054831E+04  0.51100000000E-03 0. -1.
          2   -1    0    0  501    0 -0.00000000000E+00 -0.00000000000E+00 -0.76232108104E+01  0.76232112369E+01  0.25500000000E-02 0. -1.
         11    1    1    2    0    0  0.22823626931E+02 -0.38559620450E+02  0.98415257555E+02  0.10813567957E+03  0.51100000000E-03 0. -1.
         22    1    1    2    0    0  0.20608853764E+02 -0.75776132705E+01  0.76895990933E+02  0.79969609840E+02  0.00000000000E+00 0. -1.
          2    1    1    2  501    0 -0.43432480695E+02  0.46137233720E+02  0.81737102378E+03  0.81982340491E+03  0.25500000000E-02 0. -1.
<mgrwt>
<rscale>  0 0.63364223E+02</rscale>
<asrwt>0</asrwt>
<pdfrwt beam="1">  1       11 0.10000000E+01 0.68187727E+02</pdfrwt>
<pdfrwt beam="2">  1        2 0.11731599E-02 0.63364223E+02</pdfrwt>
<totfact> 0.11590344E+04</totfact>
</mgrwt>
</event>
<event>
 5    1  0.2799727E-003  0.4407227E+02  0.7818608E-02  0.1486818E+00
         11   -1    0    0    0    0  0.00000000000E+00  0.00000000000E+00  0.10001512520E+04  0.10001512520E+04  0.51100000000E-03 0.  1.
          2   -1    0    0  501    0 -0.00000000000E+00 -0.00000000000E+00 -0.32643982072E+01  0.32643992032E+01  0.25500000000E-02 0.  1.
         11    1    1    2    0    0 -0.16332995719E+02 -0.18255518188E+02  0.96476150018E+02  0.99537320720E+02  0.51100000000E-03 0.  1.
         22    1    1    2    0    0 -0.17933306102E+02 -0.78238475436E+01  0.80724324609E+02  0.83061619547E+02  0.00000000000E+00 0.  1.
          2    1    1    2  501    0  0.34266301820E+02  0.26079365731E+02  0.81968637915E+03  0.82081671092E+03  0.25500000000E-02 0.  1.
<mgrwt>
<rscale>  0 0.43061732E+02</rscale>
<asrwt>0</asrwt>
<pdfrwt beam="1">  1       11 0.10000000E+01 0.44072268E+02</pdfrwt>
<pdfrwt beam="2">  1        2 0.50229113E-03 0.43061732E+02</pdfrwt>
<totfact> 0.33760202E+04</totfact>
</mgrwt>
</event>
<event>
 5    1  0.2799727E-003  0.3358993E+02  0.7818608E-02  0.1732201E+00
         11   -1    0    0    0    0  0.00000000000E+00  0.00000000000E+00  0.99971102979E+03  0.99971102979E+03  0.51100000000E-03 0.  1.
          2   -1    0    0  501    0 -0.00000000000E+00 -0.00000000000E+00 -0.43352472225E+01  0.43352479724E+01  0.25500000000E-02 0.  1.
         11    1    1    2    0    0  0.16196481898E+01  0.38017068753E+02  0.16772548404E+03  0.17198767041E+03  0.51100000000E-03 0.  1.
         22    1    1    2    0    0  0.16277439805E+02 -0.27662778797E+02  0.12343187208E+03  0.12753670618E+03  0.00000000000E+00 0.  1.
          2    1    1    2  501    0 -0.17897087994E+02 -0.10354289956E+02  0.70421842644E+03  0.70452190117E+03  0.25500000000E-02 0.  1.
<mgrwt>
<rscale>  0 0.20676486E+02</rscale>
<asrwt>0</asrwt>
<pdfrwt beam="1">  1       11 0.10000000E+01 0.33589925E+02</pdfrwt>
<pdfrwt beam="2">  1        2 0.66676842E-03 0.20676486E+02</pdfrwt>
<totfact> 0.19463988E+04</totfact>
</mgrwt>
</event>
<event>
 5    1  0.2799727E-003  0.3843276E+03  0.7818608E-02  0.1051593E+00
         11   -1    0    0    0    0  0.00000000000E+00  0.00000000000E+00  0.10003413192E+04  0.10003413192E+04  0.51100000000E-03 0. -1.
          2   -1    0    0  501    0 -0.00000000000E+00 -0.00000000000E+00 -0.24786432331E+03  0.24786432332E+03  0.25500000000E-02 0. -1.
         11    1    1    2    0    0 -0.22459456982E+03  0.27740522209E+03  0.68768025833E+03  0.77479062703E+03  0.51100000000E-03 0. -1.
         22    1    1    2    0    0 -0.15953918559E+02  0.14466437117E+02  0.91739644080E+02  0.94233580088E+02  0.00000000000E+00 0. -1.
          2    1    1    2  501    0  0.24054848838E+03 -0.29187165920E+03 -0.26942906545E+02  0.37918143537E+03  0.25500000000E-02 0. -1.
<mgrwt>
<rscale>  0 0.37822300E+03</rscale>
<asrwt>0</asrwt>
<pdfrwt beam="1">  1       11 0.10000000E+01 0.38432758E+03</pdfrwt>
<pdfrwt beam="2">  1        2 0.38145987E-01 0.37822300E+03</pdfrwt>
<totfact> 0.16720955E+02</totfact>
</mgrwt>
</event>
<event>
 5    1  0.2799727E-003  0.1598621E+03  0.7818608E-02  0.1194088E+00
         11   -1    0    0    0    0  0.00000000000E+00  0.00000000000E+00  0.10003361548E+04  0.10003361548E+04  0.51100000000E-03 0. -1.
          2   -1    0    0  501    0 -0.00000000000E+00 -0.00000000000E+00 -0.80223978046E+02  0.80223978087E+02  0.25500000000E-02 0.  1.
         11    1    1    2    0    0  0.24498275140E+02 -0.25763857618E+02  0.17124030544E+03  0.17489192106E+03  0.51100000000E-03 0. -1.
         22    1    1    2    0    0  0.11904351800E+03 -0.33558132951E+02  0.73982034975E+03  0.75008776645E+03  0.00000000000E+00 0. -1.
          2    1    1    2  501    0 -0.14354179314E+03  0.59321990569E+02  0.90515215900E+01  0.15558044541E+03  0.25500000000E-02 0.  1.
<mgrwt>
<rscale>  0 0.15531692E+03</rscale>
<asrwt>0</asrwt>
<pdfrwt beam="1">  1       11 0.10000000E+01 0.15986214E+03</pdfrwt>
<pdfrwt beam="2">  1        2 0.12346299E-01 0.15531692E+03</pdfrwt>
<totfact> 0.59296729E+02</totfact>
</mgrwt>
</event>
<event>
 5    1  0.2799727E-003  0.2959782E+03  0.7818608E-02  0.1088405E+00
         11   -1    0    0    0    0  0.00000000000E+00  0.00000000000E+00  0.10005047268E+04  0.10005047268E+04  0.51100000000E-03 0.  1.
         -2   -1    0    0    0  501 -0.00000000000E+00 -0.00000000000E+00 -0.20066055646E+03  0.20066055648E+03  0.25500000000E-02 0. -1.
         11    1    1    2    0    0 -0.25668456782E+03  0.63160371213E+02  0.73603683809E+03  0.78206548759E+03  0.51100000000E-03 0.  1.
         22    1    1    2    0    0 -0.26599944964E+02  0.14563854353E+02  0.11674051565E+03  0.12061513554E+03  0.00000000000E+00 0.  1.
         -2    1    1    2    0  501  0.28328451279E+03 -0.77724225566E+02 -0.52933183423E+02  0.29848466014E+03  0.25500000000E-02 0. -1.
<mgrwt>
<rscale>  0 0.29375359E+03</rscale>
<asrwt>0</asrwt>
<pdfrwt beam="1">  1       11 0.10000000E+01 0.29597820E+03</pdfrwt>
<pdfrwt beam="2">  1       -2 0.30886435E-01 0.29375359E+03</pdfrwt>
<totfact> 0.78232850E+01</totfact>
</mgrwt>
</event>
<event>
 5    1  0.2799727E-003  0.1119752E+03  0.7818608E-02  0.1693574E+00
         11   -1    0    0    0    0  0.00000000000E+00  0.00000000000E+00  0.10001195677E+04  0.10001195677E+04  0.51100000000E-03 0. -1.
          2   -1    0    0  501    0 -0.00000000000E+00 -0.00000000000E+00 -0.18249800872E+03  0.18249800874E+03  0.25500000000E-02 0.  1.
         11    1    1    2    0    0 -0.49193674906E+02  0.10186473013E+03  0.51080579519E+03  0.52318161407E+03  0.51100000000E-03 0. -1.
         22    1    1    2    0    0  0.68045809988E+02 -0.88911712651E+02  0.47585859369E+03  0.48885266297E+03  0.00000000000E+00 0.  1.
          2    1    1    2  501    0 -0.18852135082E+02 -0.12953017480E+02 -0.16904282994E+03  0.17058329936E+03  0.25500000000E-02 0.  1.
<mgrwt>
<rscale>  0 0.22873208E+02</rscale>
<asrwt>0</asrwt>
<pdfrwt beam="1">  1       11 0.10000000E+01 0.11197525E+03</pdfrwt>
<pdfrwt beam="2">  1        2 0.28079973E-01 0.22873208E+02</pdfrwt>
<totfact> 0.21798470E+02</totfact>
</mgrwt>
</event>
<event>
 5    1  0.2799727E-003  0.2563627E+03  0.7818608E-02  0.1112900E+00
         11   -1    0    0    0    0  0.00000000000E+00  0.00000000000E+00  0.10000582409E+04  0.10000582409E+04  0.51100000000E-03 0. -1.
          2   -1    0    0  501    0 -0.00000000000E+00 -0.00000000000E+00 -0.19349954979E+03  0.19349954980E+03  0.25500000000E-02 0.  1.
         11    1    1    2    0    0 -0.22534047365E+03 -0.68052773146E+02  0.83485708630E+03  0.86740755331E+03  0.51100000000E-03 0. -1.
         22    1    1    2    0    0 -0.10128410344E+02 -0.17830293545E+02  0.57644226513E+02  0.61183011648E+02  0.00000000000E+00 0.  1.
          2    1    1    2  501    0  0.23546888399E+03  0.85883066691E+02 -0.85942621723E+02  0.26496722572E+03  0.25500000000E-02 0.  1.
<mgrwt>
<rscale>  0 0.25064217E+03</rscale>
<asrwt>0</asrwt>
<pdfrwt beam="1">  1       11 0.10000000E+01 0.25636272E+03</pdfrwt>
<pdfrwt beam="2">  1        2 0.29770894E-01 0.25064217E+03</pdfrwt>
<totfact> 0.21867603E+02</totfact>
</mgrwt>
</event>
<event>
 5    1  0.2799727E-003  0.2837139E+03  0.7818608E-02  0.1093678E+00
         11   -1    0    0    0    0  0.00000000000E+00  0.00000000000E+00  0.10003488116E+04  0.10003488116E+04  0.51100000000E-03 0. -1.
          2   -1    0    0  501    0 -0.00000000000E+00 -0.00000000000E+00 -0.50302169843E+03  0.50302169844E+03  0.25500000000E-02 0. -1.
         11    1    1    2    0    0  0.11397161368E+02 -0.23372015101E+03  0.88006092878E+03  0.91063837095E+03  0.51100000000E-03 0. -1.
         22    1    1    2    0    0 -0.55806102509E+02 -0.49208989330E+02  0.38178503685E+02  0.83626812995E+02  0.00000000000E+00 0. -1.
          2    1    1    2  501    0  0.44408941141E+02  0.28292914034E+03 -0.42091231930E+03  0.50910532609E+03  0.25500000000E-02 0. -1.
<mgrwt>
<rscale>  0 0.28371388E+03</rscale>
<asrwt>0</asrwt>
<pdfrwt beam="1">  1       11 0.10000000E+01 0.74403264E+02</pdfrwt>
<pdfrwt beam="2">  1        2 0.77414945E-01 0.28371388E+03</pdfrwt>
<totfact> 0.76923952E+01</totfact>
</mgrwt>
</event>
<event>
 5    1  0.2799727E-003  0.3135539E+03  0.7818608E-02  0.1078655E+00
         11   -1    0    0    0    0  0.00000000000E+00  0.00000000000E+00  0.10001680684E+04  0.10001680684E+04  0.51100000000E-03 0.  1.
          2   -1    0    0  501    0 -0.00000000000E+00 -0.00000000000E+00 -0.53784781710E+03  0.53784781710E+03  0.25500000000E-02 0.  1.
         11    1    1    2    0    0 -0.29188322222E+03 -0.18445402606E+03  0.80355391241E+03  0.87459590285E+03  0.51100000000E-03 0.  1.
         22    1    1    2    0    0 -0.96088207300E+01  0.10228150585E+03  0.86085699148E+02  0.13403202405E+03  0.00000000000E+00 0. -1.
          2    1    1    2  501    0  0.30149204295E+03  0.82172520215E+02 -0.42731936026E+03  0.52938795859E+03  0.25500000000E-02 0.  1.
<mgrwt>
<rscale>  0 0.31355389E+03</rscale>
<asrwt>0</asrwt>
<pdfrwt beam="1">  1       11 0.10000000E+01 0.10273186E+03</pdfrwt>
<pdfrwt beam="2">  1        2 0.82759723E-01 0.31355389E+03</pdfrwt>
<totfact> 0.71173833E+01</totfact>
</mgrwt>
</event>
<event>
 5    1  0.2799727E-003  0.3545266E+03  0.7818608E-02  0.1702894E+00
         11   -1    0    0    0    0  0.00000000000E+00  0.00000000000E+00  0.10002393992E+04  0.10002393992E+04  0.51100000000E-03 0.  1.
          2   -1    0    0  501    0 -0.00000000000E+00 -0.00000000000E+00 -0.70578690188E+03  0.70578690188E+03  0.25500000000E-02 0. -1.
         11    1    1    2    0    0 -0.32696775675E+03 -0.13030584871E+03  0.19850814896E+03  0.40409530233E+03  0.51100000000E-03 0.  1.
         22    1    1    2    0    0  0.33811241373E+03  0.11097535305E+03  0.65340430009E+03  0.74402467209E+03  0.00000000000E+00 0. -1.
          2    1    1    2  501    0 -0.11144656973E+02  0.19330495662E+02 -0.55745995177E+03  0.55790632661E+03  0.25500000000E-02 0. -1.
<mgrwt>
<rscale>  0 0.22313033E+02</rscale>
<asrwt>0</asrwt>
<pdfrwt beam="1">  1       11 0.10000000E+01 0.35452659E+03</pdfrwt>
<pdfrwt beam="2">  1        2 0.10860859E+00 0.22313033E+02</pdfrwt>
<totfact> 0.55888101E+01</totfact>
</mgrwt>
</event>
<event>
 5    1  0.2799727E-003  0.9226472E+02  0.7818608E-02  0.1303750E+00
         11   -1    0    0    0    0  0.00000000000E+00  0.00000000000E+00  0.99984980430E+03  0.99984980430E+03  0.51100000000E-03 0. -1.
          2   -1    0    0  501    0 -0.00000000000E+00 -0.00000000000E+00 -0.88452603397E+01  0.88452607072E+01  0.25500000000E-02 0. -1.
         11    1    1    2    0    0 -0.20596227125E+02 -0.28248515135E+02  0.10957464123E+03  0.11501645612E+03  0.51100000000E-03 0. -1.
         22    1    1    2    0    0 -0.18718479879E+02 -0.52299232176E+02  0.26433366223E+03  0.27010715682E+03  0.00000000000E+00 0. -1.
          2    1    1    2  501    0  0.39314707004E+02  0.80547747310E+02  0.61709624050E+03  0.62357145206E+03  0.25500000000E-02 0. -1.
<mgrwt>
<rscale>  0 0.89630273E+02</rscale>
<asrwt>0</asrwt>
<pdfrwt beam="1">  1       11 0.10000000E+01 0.92264716E+02</pdfrwt>
<pdfrwt beam="2">  1        2 0.13606049E-02 0.89630273E+02</pdfrwt>
<totfact> 0.10006222E+04</totfact>
</mgrwt>
</event>
<event>
 5    1  0.2799727E-003  0.1794366E+03  0.7818608E-02  0.1420635E+00
         11   -1    0    0    0    0  0.00000000000E+00  0.00000000000E+00  0.10002570621E+04  0.10002570621E+04  0.51100000000E-03 0. -1.
         -2   -1    0    0    0  501 -0.00000000000E+00 -0.00000000000E+00 -0.57148407508E+02  0.57148407564E+02  0.25500000000E-02 0.  1.
         11    1    1    2    0    0  0.16739829720E+03  0.60180003553E+02  0.77019459067E+03  0.79047044868E+03  0.51100000000E-03 0. -1.
         22    1    1    2    0    0  0.12478326237E+02 -0.11232106977E+02  0.11540657233E+02  0.20372913935E+02  0.00000000000E+00 0.  1.
         -2    1    1    2    0  501 -0.17987662344E+03 -0.48947896575E+02  0.16137340668E+03  0.24656210705E+03  0.25500000000E-02 0.  1.
<mgrwt>
<rscale>  0 0.54886728E+02</rscale>
<asrwt>0</asrwt>
<pdfrwt beam="1">  1       11 0.10000000E+01 0.17943665E+03</pdfrwt>
<pdfrwt beam="2">  1       -2 0.87943226E-02 0.54886728E+02</pdfrwt>
<totfact> 0.58297747E+02</totfact>
</mgrwt>
</event>
<event>
 5    1  0.2799727E-003  0.1525015E+03  0.7818608E-02  0.1200186E+00
         11   -1    0    0    0    0  0.00000000000E+00  0.00000000000E+00  0.10001695939E+04  0.10001695939E+04  0.51100000000E-03 0.  1.
          2   -1    0    0  501    0 -0.00000000000E+00 -0.00000000000E+00 -0.23328662825E+02  0.23328662964E+02  0.25500000000E-02 0.  1.
         11    1    1    2    0    0  0.75361860352E+02  0.11486895206E+03  0.48207455549E+03  0.50126855396E+03  0.51100000000E-03 0.  1.
         22    1    1    2    0    0  0.11013267574E+02  0.80518003337E+01  0.78634269099E+02  0.79808970849E+02  0.00000000000E+00 0. -1.
          2    1    1    2  501    0 -0.86375127926E+02 -0.12292075239E+03  0.41613210651E+03  0.44242073208E+03  0.25500000000E-02 0.  1.
<mgrwt>
<rscale>  0 0.15023373E+03</rscale>
<asrwt>0</asrwt>
<pdfrwt beam="1">  1       11 0.10000000E+01 0.15250149E+03</pdfrwt>
<pdfrwt beam="2">  1        2 0.35896336E-02 0.15023373E+03</pdfrwt>
<totfact> 0.28647191E+03</totfact>
</mgrwt>
</event>
<event>
 5    1  0.2799727E-003  0.1676865E+03  0.7818608E-02  0.1186143E+00
         11   -1    0    0    0    0  0.00000000000E+00  0.00000000000E+00  0.10003382958E+04  0.10003382958E+04  0.51100000000E-03 0.  1.
         -2   -1    0    0    0  501 -0.00000000000E+00 -0.00000000000E+00 -0.85612775199E+02  0.85612775237E+02  0.25500000000E-02 0. -1.
         11    1    1    2    0    0  0.14037853571E+03 -0.40477990489E+02  0.85874835538E+03  0.87108744617E+03  0.51100000000E-03 0.  1.
         22    1    1    2    0    0  0.17360350083E+02  0.23426846907E+01  0.49436700129E+02  0.52448615293E+02  0.00000000000E+00 0.  1.
         -2    1    1    2    0  501 -0.15773888579E+03  0.38135305798E+02  0.65404650691E+01  0.16241500955E+03  0.25500000000E-02 0. -1.
<mgrwt>
<rscale>  0 0.16228326E+03</rscale>
<asrwt>0</asrwt>
<pdfrwt beam="1">  1       11 0.10000000E+01 0.16768650E+03</pdfrwt>
<pdfrwt beam="2">  1       -2 0.13175652E-01 0.16228326E+03</pdfrwt>
<totfact> 0.33207661E+02</totfact>
</mgrwt>
</event>
<event>
 5    1  0.2799727E-003  0.1752735E+03  0.7818608E-02  0.1177454E+00
         11   -1    0    0    0    0  0.00000000000E+00  0.00000000000E+00  0.10003865408E+04  0.10003865408E+04  0.51100000000E-03 0.  1.
          2   -1    0    0  501    0 -0.00000000000E+00 -0.00000000000E+00 -0.33327894764E+02  0.33327894862E+02  0.25500000000E-02 0.  1.
         11    1    1    2    0    0 -0.29792849615E+02  0.15915514894E+03  0.29482122539E+03  0.33635922800E+03  0.51100000000E-03 0.  1.
         22    1    1    2    0    0 -0.11764538148E+02  0.60773100799E+01  0.28067569679E+02  0.31034279809E+02  0.00000000000E+00 0.  1.
          2    1    1    2  501    0  0.41557387762E+02 -0.16523245902E+03  0.64416985101E+03  0.66632092789E+03  0.25500000000E-02 0.  1.
<mgrwt>
<rscale>  0 0.17037835E+03</rscale>
<asrwt>0</asrwt>
<pdfrwt beam="1">  1       11 0.10000000E+01 0.17527355E+03</pdfrwt>
<pdfrwt beam="2">  1        2 0.51293502E-02 0.17037835E+03</pdfrwt>
<totfact> 0.18046455E+03</totfact>
</mgrwt>
</event>
<event>
 5    1  0.2799727E-003  0.7794062E+02  0.7818608E-02  0.1592247E+00
         11   -1    0    0    0    0  0.00000000000E+00  0.00000000000E+00  0.99998818178E+03  0.99998818178E+03  0.51100000000E-03 0. -1.
          2   -1    0    0  501    0 -0.00000000000E+00 -0.00000000000E+00 -0.15889776563E+02  0.15889776768E+02  0.25500000000E-02 0. -1.
         11    1    1    2    0    0  0.90186369986E+02 -0.30479637317E+02  0.24737064508E+03  0.26505626888E+03  0.51100000000E-03 0. -1.
         22    1    1    2    0    0 -0.60249410520E+02  0.24464945848E+02  0.15235830880E+03  0.16565500084E+03  0.00000000000E+00 0. -1.
          2    1    1    2  501    0 -0.29936959466E+02  0.60146914694E+01  0.58436945134E+03  0.58516668883E+03  0.25500000000E-02 0. -1.
<mgrwt>
<rscale>  0 0.30535194E+02</rscale>
<asrwt>0</asrwt>
<pdfrwt beam="1">  1       11 0.10000000E+01 0.77940622E+02</pdfrwt>
<pdfrwt beam="2">  1        2 0.24445521E-02 0.30535194E+02</pdfrwt>
<totfact> 0.39004567E+03</totfact>
</mgrwt>
</event>
<event>
 5    1  0.2799727E-003  0.1342724E+03  0.7818608E-02  0.1593011E+00
         11   -1    0    0    0    0  0.00000000000E+00  0.00000000000E+00  0.10002194429E+04  0.10002194429E+04  0.51100000000E-03 0.  1.
          2   -1    0    0  501    0 -0.00000000000E+00 -0.00000000000E+00 -0.18482107397E+03  0.18482107398E+03  0.25500000000E-02 0. -1.
         11    1    1    2    0    0  0.14762535780E+03 -0.28894684455E+02  0.44940425133E+03  0.47391173247E+03  0.51100000000E-03 0.  1.
         22    1    1    2    0    0 -0.12476307609E+03  0.87601897053E+01  0.52987746046E+03  0.54443795715E+03  0.00000000000E+00 0. -1.
          2    1    1    2  501    0 -0.22862281708E+02  0.20134494750E+02 -0.16388334289E+03  0.16669082724E+03  0.25500000000E-02 0. -1.
<mgrwt>
<rscale>  0 0.30464435E+02</rscale>
<asrwt>0</asrwt>
<pdfrwt beam="1">  1       11 0.10000000E+01 0.13427244E+03</pdfrwt>
<pdfrwt beam="2">  1        2 0.28440250E-01 0.30464435E+02</pdfrwt>
<totfact> 0.21774802E+02</totfact>
</mgrwt>
</event>
<event>
 5    1  0.2799727E-003  0.2186363E+03  0.7818608E-02  0.1137750E+00
         11   -1    0    0    0    0  0.00000000000E+00  0.00000000000E+00  0.10001516870E+04  0.10001516870E+04  0.51100000000E-03 0.  1.
         -2   -1    0    0    0  501 -0.00000000000E+00 -0.00000000000E+00 -0.17478650508E+03  0.17478650510E+03  0.25500000000E-02 0. -1.
         11    1    1    2    0    0  0.23902569065E+02 -0.17883316098E+03  0.81952283554E+03  0.83914856268E+03  0.51100000000E-03 0.  1.
         22    1    1    2    0    0 -0.10899383675E+01 -0.34844050162E+02  0.96465222639E+02  0.10257112155E+03  0.00000000000E+00 0.  1.
         -2    1    1    2    0  501 -0.22812630697E+02  0.21367721114E+03 -0.90622876291E+02  0.23321850783E+03  0.25500000000E-02 0. -1.
<mgrwt>
<rscale>  0 0.21489152E+03</rscale>
<asrwt>0</asrwt>
<pdfrwt beam="1">  1       11 0.10000000E+01 0.21863632E+03</pdfrwt>
<pdfrwt beam="2">  1       -2 0.26894310E-01 0.21489152E+03</pdfrwt>
<totfact> 0.10004927E+02</totfact>
</mgrwt>
</event>
<event>
 5    1  0.2799727E-003  0.2407165E+03  0.7818608E-02  0.1130501E+00
         11   -1    0    0    0    0  0.00000000000E+00  0.00000000000E+00  0.10001883785E+04  0.10001883785E+04  0.51100000000E-03 0.  1.
          2   -1    0    0  501    0 -0.00000000000E+00 -0.00000000000E+00 -0.58157677942E+02  0.58157677998E+02  0.25500000000E-02 0.  1.
         11    1    1    2    0    0  0.11895411073E+03 -0.13820386491E+03  0.39073599331E+03  0.43119021928E+03  0.51100000000E-03 0.  1.
         22    1    1    2    0    0  0.14275738886E+02 -0.42611222790E+02  0.23482921163E+03  0.23909050935E+03  0.00000000000E+00 0. -1.
          2    1    1    2  501    0 -0.13322984961E+03  0.18081508770E+03  0.31646549564E+03  0.38806532788E+03  0.25500000000E-02 0.  1.
<mgrwt>
<rscale>  0 0.22459806E+03</rscale>
<asrwt>0</asrwt>
<pdfrwt beam="1">  1       11 0.10000000E+01 0.24071649E+03</pdfrwt>
<pdfrwt beam="2">  1        2 0.89490203E-02 0.22459806E+03</pdfrwt>
<totfact> 0.89770311E+02</totfact>
</mgrwt>
</event>
<event>
 5    1  0.2799727E-003  0.1309989E+03  0.7818608E-02  0.1228596E+00
         11   -1    0    0    0    0  0.00000000000E+00  0.00000000000E+00  0.99980276522E+03  0.99980276522E+03  0.51100000000E-03 0.  1.
          2   -1    0    0  501    0 -0.00000000000E+00 -0.00000000000E+00 -0.19398880095E+02  0.19398880262E+02  0.25500000000E-02 0.  1.
         11    1    1    2    0    0  0.83218764283E+02  0.77862244141E+02  0.61981265874E+03  0.63020284332E+03  0.51100000000E-03 0.  1.
         22    1    1    2    0    0  0.13864569668E+02  0.74393594537E+01  0.54950485656E+02  0.57158780909E+02  0.00000000000E+00 0. -1.
          2    1    1    2  501    0 -0.97083333952E+02 -0.85301603595E+02  0.30564074073E+03  0.33184002126E+03  0.25500000000E-02 0.  1.
<mgrwt>
<rscale>  0 0.12923443E+03</rscale>
<asrwt>0</asrwt>
<pdfrwt beam="1">  1       11 0.10000000E+01 0.13099886E+03</pdfrwt>
<pdfrwt beam="2">  1        2 0.29838544E-02 0.12923443E+03</pdfrwt>
<totfact> 0.36159347E+03</totfact>
</mgrwt>
</event>
<event>
 5    1  0.2799727E-003  0.2339354E+03  0.7818608E-02  0.1133189E+00
         11   -1    0    0    0    0  0.00000000000E+00  0.00000000000E+00  0.10001357373E+04  0.10001357373E+04  0.51100000000E-03 0. -1.
          2   -1    0    0  501    0 -0.00000000000E+00 -0.00000000000E+00 -0.15758017720E+04  0.15758017720E+04  0.25500000000E-02 0. -1.
         11    1    1    2    0    0  0.72780127779E+02 -0.63199635439E+02  0.27992217779E+03  0.29605331706E+03  0.51100000000E-03 0. -1.
         22    1    1    2    0    0  0.67238218717E+02 -0.10769883457E+03  0.69861402534E+03  0.71005744375E+03  0.00000000000E+00 0. -1.
          2    1    1    2  501    0 -0.14001834650E+03  0.17089847001E+03 -0.15542022378E+04  0.15698267486E+04  0.25500000000E-02 0. -1.
<mgrwt>
<rscale>  0 0.22093308E+03</rscale>
<asrwt>0</asrwt>
<pdfrwt beam="1">  1       11 0.10000000E+01 0.23393538E+03</pdfrwt>
<pdfrwt beam="2">  1        2 0.24246394E+00 0.22093308E+03</pdfrwt>
<totfact> 0.15832394E+01</totfact>
</mgrwt>
</event>
<event>
 5    1  0.2799727E-003  0.1375397E+03  0.7818608E-02  0.1461984E+00
         11   -1    0    0    0    0  0.00000000000E+00  0.00000000000E+00  0.10002363929E+04  0.10002363929E+04  0.51100000000E-03 0. -1.
          2   -1    0    0  501    0 -0.00000000000E+00 -0.00000000000E+00 -0.22892526370E+02  0.22892526512E+02  0.25500000000E-02 0. -1.
         11    1    1    2    0    0 -0.18762892556E+02  0.13456891993E+03  0.32886349070E+03  0.35582585048E+03  0.51100000000E-03 0. -1.
         22    1    1    2    0    0 -0.16088305081E+02 -0.17576891423E+00  0.38597126250E+02  0.41816295985E+02  0.00000000000E+00 0.  1.
          2    1    1    2  501    0  0.34851197638E+02 -0.13439315102E+03  0.60988324954E+03  0.62548677292E+03  0.25500000000E-02 0. -1.
<mgrwt>
<rscale>  0 0.47041598E+02</rscale>
<asrwt>0</asrwt>
<pdfrwt beam="1">  1       11 0.10000000E+01 0.13753972E+03</pdfrwt>
<pdfrwt beam="2">  1        2 0.35227596E-02 0.47041598E+02</pdfrwt>
<totfact> 0.25907350E+03</totfact>
</mgrwt>
</event>
<event>
 5    1  0.2799727E-003  0.2261275E+03  0.7818608E-02  0.1134724E+00
         11   -1    0    0    0    0  0.00000000000E+00  0.00000000000E+00  0.10001187247E+04  0.10001187247E+04  0.51100000000E-03 0. -1.
          2   -1    0    0  501    0 -0.00000000000E+00 -0.00000000000E+00 -0.24288597599E+03  0.24288597601E+03  0.25500000000E-02 0. -1.
         11    1    1    2    0    0  0.82489480219E+02  0.13107265906E+03  0.58358007588E+03  0.60377997752E+03  0.51100000000E-03 0. -1.
         22    1    1    2    0    0  0.63210819888E+01  0.68975763077E+02  0.35084409009E+03  0.35761597772E+03  0.00000000000E+00 0. -1.
          2    1    1    2  501    0 -0.88810562208E+02 -0.20004842214E+03 -0.17719141726E+03  0.28160874546E+03  0.25500000000E-02 0. -1.
<mgrwt>
<rscale>  0 0.21887596E+03</rscale>
<asrwt>0</asrwt>
<pdfrwt beam="1">  1       11 0.10000000E+01 0.22612753E+03</pdfrwt>
<pdfrwt beam="2">  1        2 0.37371509E-01 0.21887596E+03</pdfrwt>
<totfact> 0.17030868E+02</totfact>
</mgrwt>
</event>
<event>
 5    1  0.2799727E-003  0.6236987E+02  0.7818608E-02  0.1392971E+00
         11   -1    0    0    0    0  0.00000000000E+00  0.00000000000E+00  0.10003195645E+04  0.10003195645E+04  0.51100000000E-03 0.  1.
          2   -1    0    0  501    0 -0.00000000000E+00 -0.00000000000E+00 -0.42663642476E+01  0.42663650097E+01  0.25500000000E-02 0.  1.
         11    1    1    2    0    0  0.39188694674E+02 -0.25092161029E+02  0.26802936331E+03  0.27203880225E+03  0.51100000000E-03 0.  1.
         22    1    1    2    0    0  0.88846978985E+01 -0.12738657426E+02  0.70853788137E+02  0.72535994810E+02  0.00000000000E+00 0. -1.
          2    1    1    2  501    0 -0.48073392573E+02  0.37830818455E+02  0.65717004885E+03  0.66001113249E+03  0.25500000000E-02 0.  1.
<mgrwt>
<rscale>  0 0.61173703E+02</rscale>
<asrwt>0</asrwt>
<pdfrwt beam="1">  1       11 0.10000000E+01 0.62369868E+02</pdfrwt>
<pdfrwt beam="2">  1        2 0.65657352E-03 0.61173703E+02</pdfrwt>
<totfact> 0.25285702E+04</totfact>
</mgrwt>
</event>
<event>
 5    1  0.2799727E-003  0.1294448E+03  0.7818608E-02  0.1241682E+00
         11   -1    0    0    0    0  0.00000000000E+00  0.00000000000E+00  0.10002317168E+04  0.10002317168E+04  0.51100000000E-03 0. -1.
         -2   -1    0    0    0  501 -0.00000000000E+00 -0.00000000000E+00 -0.16183785674E+02  0.16183785875E+02  0.25500000000E-02 0.  1.
         11    1    1    2    0    0 -0.35753321872E+02 -0.10206939581E+03  0.53185770695E+03  0.54274218744E+03  0.51100000000E-03 0. -1.
         22    1    1    2    0    0  0.11726326365E+02 -0.16380081160E+02  0.67891668920E+02  0.70817317780E+02  0.00000000000E+00 0.  1.
         -2    1    1    2    0  501  0.24026995507E+02  0.11844947697E+03  0.38429855530E+03  0.40285599750E+03  0.25500000000E-02 0.  1.
<mgrwt>
<rscale>  0 0.12086180E+03</rscale>
<asrwt>0</asrwt>
<pdfrwt beam="1">  1       11 0.10000000E+01 0.12944479E+03</pdfrwt>
<pdfrwt beam="2">  1       -2 0.24903901E-02 0.12086180E+03</pdfrwt>
<totfact> 0.40873866E+03</totfact>
</mgrwt>
</event>
<event>
 5    1  0.2799727E-003  0.4328114E+02  0.7818608E-02  0.1592432E+00
         11   -1    0    0    0    0  0.00000000000E+00  0.00000000000E+00  0.10003334610E+04  0.10003334610E+04  0.51100000000E-03 0.  1.
          2   -1    0    0  501    0 -0.00000000000E+00 -0.00000000000E+00 -0.39345475412E+01  0.39345483675E+01  0.25500000000E-02 0.  1.
         11    1    1    2    0    0  0.14870176056E+02  0.38166804996E+02  0.19230832764E+03  0.19662227752E+03  0.51100000000E-03 0.  1.
         22    1    1    2    0    0 -0.20392196400E+02  0.68711099032E+01  0.11070133145E+03  0.11277339496E+03  0.00000000000E+00 0.  1.
          2    1    1    2  501    0  0.55220203439E+01 -0.45037914899E+02  0.69338925439E+03  0.69487233691E+03  0.25500000000E-02 0.  1.
<mgrwt>
<rscale>  0 0.30518074E+02</rscale>
<asrwt>0</asrwt>
<pdfrwt beam="1">  1       11 0.10000000E+01 0.43281142E+02</pdfrwt>
<pdfrwt beam="2">  1        2 0.60551690E-03 0.30518074E+02</pdfrwt>
<totfact> 0.24304955E+04</totfact>
</mgrwt>
</event>
<event>
 5    1  0.2799727E-003  0.1729618E+03  0.7818608E-02  0.1176446E+00
         11   -1    0    0    0    0  0.00000000000E+00  0.00000000000E+00  0.10003678576E+04  0.10003678576E+04  0.51100000000E-03 0.  1.
         -2   -1    0    0    0  501 -0.00000000000E+00 -0.00000000000E+00 -0.13479088847E+03  0.13479088849E+03  0.25500000000E-02 0. -1.
         11    1    1    2    0    0  0.90679236249E+02  0.13304860475E+03  0.88632898231E+03  0.90083501264E+03  0.51100000000E-03 0.  1.
         22    1    1    2    0    0  0.10171181354E+02  0.54809397157E+01  0.48240226209E+02  0.49604566877E+02  0.00000000000E+00 0. -1.
         -2    1    1    2    0  501 -0.10085041760E+03 -0.13852954446E+03 -0.68992239350E+02  0.18471916662E+03  0.25500000000E-02 0. -1.
<mgrwt>
<rscale>  0 0.17135122E+03</rscale>
<asrwt>0</asrwt>
<pdfrwt beam="1">  1       11 0.10000000E+01 0.17296181E+03</pdfrwt>
<pdfrwt beam="2">  1       -2 0.20744687E-01 0.17135122E+03</pdfrwt>
<totfact> 0.15654963E+02</totfact>
</mgrwt>
</event>
<event>
 5    1  0.2799727E-003  0.1546392E+03  0.7818608E-02  0.1204493E+00
         11   -1    0    0    0    0  0.00000000000E+00  0.00000000000E+00  0.10001096099E+04  0.10001096099E+04  0.51100000000E-03 0. -1.
          2   -1    0    0  501    0 -0.00000000000E+00 -0.00000000000E+00 -0.23665956612E+02  0.23665956749E+02  0.25500000000E-02 0. -1.
         11    1    1    2    0    0 -0.15858330460E+02  0.43278422656E+02  0.10902184006E+03  0.11836498690E+03  0.51100000000E-03 0. -1.
         22    1    1    2    0    0 -0.40033086939E+02  0.92437851578E+02  0.49426759849E+03  0.50442825394E+03  0.00000000000E+00 0. -1.
          2    1    1    2  501    0  0.55891417399E+02 -0.13571627423E+03  0.37315421470E+03  0.40098232577E+03  0.25500000000E-02 0. -1.
<mgrwt>
<rscale>  0 0.14677451E+03</rscale>
<asrwt>0</asrwt>
<pdfrwt beam="1">  1       11 0.10000000E+01 0.15463917E+03</pdfrwt>
<pdfrwt beam="2">  1        2 0.36413154E-02 0.14677451E+03</pdfrwt>
<totfact> 0.28044857E+03</totfact>
</mgrwt>
</event>
<event>
 5    1  0.2799727E-003  0.1753537E+03  0.7818608E-02  0.1172377E+00
         11   -1    0    0    0    0  0.00000000000E+00  0.00000000000E+00  0.99987035227E+03  0.99987035227E+03  0.51100000000E-03 0. -1.
          2   -1    0    0  501    0 -0.00000000000E+00 -0.00000000000E+00 -0.10127783110E+03  0.10127783113E+03  0.25500000000E-02 0. -1.
         11    1    1    2    0    0  0.56165934509E+02  0.38102651998E+02  0.91175194760E+02  0.11366327652E+03  0.51100000000E-03 0. -1.
         22    1    1    2    0    0 -0.22054480010E+03  0.71690028298E+01  0.78511332595E+03  0.81553316183E+03  0.00000000000E+00 0. -1.
          2    1    1    2  501    0  0.16437886559E+03 -0.45271654828E+02  0.22304000457E+02  0.17195174506E+03  0.25500000000E-02 0. -1.
<mgrwt>
<rscale>  0 0.17535372E+03</rscale>
<asrwt>0</asrwt>
<pdfrwt beam="1">  1       11 0.10000000E+01 0.67870678E+02</pdfrwt>
<pdfrwt beam="2">  1        2 0.15579184E-01 0.17535372E+03</pdfrwt>
<totfact> 0.45211717E+02</totfact>
</mgrwt>
</event>
<event>
 5    1  0.2799727E-003  0.1834786E+03  0.7818608E-02  0.1247871E+00
         11   -1    0    0    0    0  0.00000000000E+00  0.00000000000E+00  0.10011740546E+04  0.10011740546E+04  0.51100000000E-03 0.  1.
          2   -1    0    0  501    0 -0.00000000000E+00 -0.00000000000E+00 -0.15877204704E+04  0.15877204704E+04  0.25500000000E-02 0.  1.
         11    1    1    2    0    0 -0.15339681231E+03  0.69877476659E+02  0.99337153988E+01  0.16885533001E+03  0.51100000000E-03 0.  1.
         22    1    1    2    0    0  0.88424396545E+02 -0.16736132207E+03  0.89964111866E+03  0.91933825571E+03  0.00000000000E+00 0.  1.
          2    1    1    2  501    0  0.64972415762E+02  0.97483845414E+02 -0.14961212499E+04  0.15007009393E+04  0.25500000000E-02 0.  1.
<mgrwt>
<rscale>  0 0.11715167E+03</rscale>
<asrwt>0</asrwt>
<pdfrwt beam="1">  1       11 0.10000000E+01 0.18347861E+03</pdfrwt>
<pdfrwt beam="2">  1        2 0.24455146E+00 0.11715167E+03</pdfrwt>
<totfact> 0.16405741E+01</totfact>
</mgrwt>
</event>
<event>
 5    1  0.2799727E-003  0.4631649E+03  0.7818608E-02  0.1189949E+00
         11   -1    0    0    0    0  0.00000000000E+00  0.00000000000E+00  0.99997248796E+03  0.99997248796E+03  0.51100000000E-03 0.  1.
          2   -1    0    0  501    0 -0.00000000000E+00 -0.00000000000E+00 -0.26916552683E+03  0.26916552684E+03  0.25500000000E-02 0.  1.
         11    1    1    2    0    0  0.11354554712E+03 -0.43089735596E+03  0.16837025884E+03  0.47635455987E+03  0.51100000000E-03 0.  1.
         22    1    1    2    0    0 -0.39881648127E+02 -0.37161617129E+02 -0.35728736730E+01  0.54628720205E+02  0.00000000000E+00 0.  1.
          2    1    1    2  501    0 -0.73663898995E+02  0.46805897309E+03  0.56600957596E+03  0.73815473472E+03  0.25500000000E-02 0.  1.
<mgrwt>
<rscale>  0 0.15889594E+03</rscale>
<asrwt>0</asrwt>
<pdfrwt beam="1">  1       11 0.10000000E+01 0.46316488E+03</pdfrwt>
<pdfrwt beam="2">  1        2 0.41408941E-01 0.15889594E+03</pdfrwt>
<totfact> 0.15212909E+02</totfact>
</mgrwt>
</event>
<event>
 5    1  0.2799727E-003  0.9435557E+02  0.7818608E-02  0.1292634E+00
         11   -1    0    0    0    0  0.00000000000E+00  0.00000000000E+00  0.10000016633E+04  0.10000016633E+04  0.51100000000E-03 0. -1.
          2   -1    0    0  501    0 -0.00000000000E+00 -0.00000000000E+00 -0.18429445001E+02  0.18429445178E+02  0.25500000000E-02 0. -1.
         11    1    1    2    0    0 -0.98989864681E+01  0.39987294790E+02  0.45637131353E+02  0.61479439133E+02  0.51100000000E-03 0. -1.
         22    1    1    2    0    0 -0.80739273935E+02 -0.57029109884E+02  0.34570416303E+03  0.35955878249E+03  0.00000000000E+00 0. -1.
          2    1    1    2  501    0  0.90638260403E+02  0.17041815094E+02  0.59023092388E+03  0.59739288681E+03  0.25500000000E-02 0. -1.
<mgrwt>
<rscale>  0 0.94355569E+02</rscale>
<asrwt>0</asrwt>
<pdfrwt beam="1">  1       11 0.10000000E+01 0.41194361E+02</pdfrwt>
<pdfrwt beam="2">  1        2 0.28353039E-02 0.94355569E+02</pdfrwt>
<totfact> 0.37418125E+03</totfact>
</mgrwt>
</event>
<event>
 5    1  0.2799727E-003  0.2223884E+03  0.7818608E-02  0.1136670E+00
         11   -1    0    0    0    0  0.00000000000E+00  0.00000000000E+00  0.10002461797E+04  0.10002461797E+04  0.51100000000E-03 0.  1.
          2   -1    0    0  501    0 -0.00000000000E+00 -0.00000000000E+00 -0.61379370630E+02  0.61379370683E+02  0.25500000000E-02 0.  1.
         11    1    1    2    0    0 -0.80153888896E+02  0.18147540384E+03  0.18808375574E+03  0.27337422570E+03  0.51100000000E-03 0.  1.
         22    1    1    2    0    0  0.36510093890E+01  0.20846204179E+02  0.39578402055E+02  0.44881443910E+02  0.00000000000E+00 0.  1.
          2    1    1    2  501    0  0.76502879507E+02 -0.20232160801E+03  0.71120465133E+03  0.74336988083E+03  0.25500000000E-02 0.  1.
<mgrwt>
<rscale>  0 0.21630239E+03</rscale>
<asrwt>0</asrwt>
<pdfrwt beam="1">  1       11 0.10000000E+01 0.22238843E+03</pdfrwt>
<pdfrwt beam="2">  1        2 0.94453045E-02 0.21630239E+03</pdfrwt>
<totfact> 0.83726645E+02</totfact>
</mgrwt>
</event>
<event>
 5    1  0.2799727E-003  0.1324901E+03  0.7818608E-02  0.1584320E+00
         11   -1    0    0    0    0  0.00000000000E+00  0.00000000000E+00  0.10000529027E+04  0.10000529027E+04  0.51100000000E-03 0.  1.
         -2   -1    0    0    0  501 -0.00000000000E+00 -0.00000000000E+00 -0.19688417851E+03  0.19688417852E+03  0.25500000000E-02 0.  1.
         11    1    1    2    0    0 -0.60052223877E+02 -0.13148787606E+03  0.35002736518E+03  0.37870105297E+03  0.51100000000E-03 0.  1.
         22    1    1    2    0    0  0.29578058938E+02  0.12441801344E+03  0.62785338300E+03  0.64074532709E+03  0.00000000000E+00 0.  1.
         -2    1    1    2    0  501  0.30474164940E+02  0.70698626191E+01 -0.17471202396E+03  0.17749070119E+03  0.25500000000E-02 0.  1.
<mgrwt>
<rscale>  0 0.31283505E+02</rscale>
<asrwt>0</asrwt>
<pdfrwt beam="1">  1       11 0.10000000E+01 0.13249009E+03</pdfrwt>
<pdfrwt beam="2">  1       -2 0.30291475E-01 0.31283505E+02</pdfrwt>
<totfact> 0.77046743E+01</totfact>
</mgrwt>
</event>
<event>
 5    1  0.2799727E-003  0.2251513E+03  0.7818608E-02  0.1149482E+00
         11   -1    0    0    0    0  0.00000000000E+00  0.00000000000E+00  0.10001973504E+04  0.10001973504E+04  0.51100000000E-03 0. -1.
          2   -1    0    0  501    0 -0.00000000000E+00 -0.00000000000E+00 -0.57681547165E+03  0.57681547166E+03  0.25500000000E-02 0. -1.
         11    1    1    2    0    0  0.11152442416E+03 -0.74866761003E+02  0.65055367154E+03  0.66427615390E+03  0.51100000000E-03 0. -1.
         22    1    1    2    0    0  0.83564520561E+02  0.29453263879E+02  0.31895620034E+03  0.33103410940E+03  0.00000000000E+00 0. -1.
          2    1    1    2  501    0 -0.19508894472E+03  0.45413497124E+02 -0.54612799309E+03  0.58170255880E+03  0.25500000000E-02 0. -1.
<mgrwt>
<rscale>  0 0.20030497E+03</rscale>
<asrwt>0</asrwt>
<pdfrwt beam="1">  1       11 0.10000000E+01 0.22515135E+03</pdfrwt>
<pdfrwt beam="2">  1        2 0.88758352E-01 0.20030497E+03</pdfrwt>
<totfact> 0.66290543E+01</totfact>
</mgrwt>
</event>
<event>
 5    1  0.2799727E-003  0.4466920E+03  0.7818608E-02  0.1032470E+00
         11   -1    0    0    0    0  0.00000000000E+00  0.00000000000E+00  0.10004182197E+04  0.10004182197E+04  0.51100000000E-03 0. -1.
         -2   -1    0    0    0  501 -0.00000000000E+00 -0.00000000000E+00 -0.10791548388E+04  0.10791548388E+04  0.25500000000E-02 0. -1.
         11    1    1    2    0    0  0.21139419268E+03 -0.63270552967E+02  0.57445291780E+03  0.61537535078E+03  0.51100000000E-03 0. -1.
         22    1    1    2    0    0  0.20212435528E+03 -0.69884647181E+02  0.32775604542E+03  0.39135935433E+03  0.00000000000E+00 0. -1.
         -2    1    1    2    0  501 -0.41351854796E+03  0.13315520015E+03 -0.98094558237E+03  0.10728383533E+04  0.25500000000E-02 0. -1.
<mgrwt>
<rscale>  0 0.43442824E+03</rscale>
<asrwt>0</asrwt>
<pdfrwt beam="1">  1       11 0.10000000E+01 0.44669201E+03</pdfrwt>
<pdfrwt beam="2">  1       -2 0.16609325E+00 0.43442824E+03</pdfrwt>
<totfact> 0.19205653E+00</totfact>
</mgrwt>
</event>
<event>
 5    1  0.2799727E-003  0.1206225E+03  0.7818608E-02  0.1464691E+00
         11   -1    0    0    0    0  0.00000000000E+00  0.00000000000E+00  0.10001999308E+04  0.10001999308E+04  0.51100000000E-03 0.  1.
          2   -1    0    0  501    0 -0.00000000000E+00 -0.00000000000E+00 -0.18411000681E+02  0.18411000858E+02  0.25500000000E-02 0.  1.
         11    1    1    2    0    0  0.50971792066E+02  0.11959127507E+03  0.40473847937E+03  0.42510402649E+03  0.51100000000E-03 0.  1.
         22    1    1    2    0    0 -0.14817149621E+02 -0.10203109263E+02  0.35050572053E+02  0.39397892872E+02  0.00000000000E+00 0. -1.
          2    1    1    2  501    0 -0.36154642445E+02 -0.10938816581E+03  0.54199987869E+03  0.55410901228E+03  0.25500000000E-02 0.  1.
<mgrwt>
<rscale>  0 0.46583644E+02</rscale>
<asrwt>0</asrwt>
<pdfrwt beam="1">  1       11 0.10000000E+01 0.12062253E+03</pdfrwt>
<pdfrwt beam="2">  1        2 0.28330279E-02 0.46583644E+02</pdfrwt>
<totfact> 0.34306861E+03</totfact>
</mgrwt>
</event>
<event>
 5    1  0.2799727E-003  0.7073251E+02  0.7818608E-02  0.1370421E+00
         11   -1    0    0    0    0  0.00000000000E+00  0.00000000000E+00  0.10001976053E+04  0.10001976053E+04  0.51100000000E-03 0.  1.
          2   -1    0    0  501    0 -0.00000000000E+00 -0.00000000000E+00 -0.60733355526E+01  0.60733360879E+01  0.25500000000E-02 0.  1.
         11    1    1    2    0    0  0.21858904606E+02  0.54286908005E+02  0.20989947987E+03  0.21790518980E+03  0.51100000000E-03 0.  1.
         22    1    1    2    0    0  0.10498126502E+02  0.44391663147E+01  0.62312606800E+02  0.63346490225E+02  0.00000000000E+00 0. -1.
          2    1    1    2  501    0 -0.32357031107E+02 -0.58726074320E+02  0.72191218307E+03  0.72501926135E+03  0.25500000000E-02 0.  1.
<mgrwt>
<rscale>  0 0.67050200E+02</rscale>
<asrwt>0</asrwt>
<pdfrwt beam="1">  1       11 0.10000000E+01 0.70732506E+02</pdfrwt>
<pdfrwt beam="2">  1        2 0.93454396E-03 0.67050200E+02</pdfrwt>
<totfact> 0.15919971E+04</totfact>
</mgrwt>
</event>
<event>
 5    1  0.2799727E-003  0.1750727E+03  0.7818608E-02  0.1176794E+00
         11   -1    0    0    0    0  0.00000000000E+00  0.00000000000E+00  0.10003203325E+04  0.10003203325E+04  0.51100000000E-03 0. -1.
          2   -1    0    0  501    0 -0.00000000000E+00 -0.00000000000E+00 -0.19063920683E+03  0.19063920685E+03  0.25500000000E-02 0.  1.
         11    1    1    2    0    0 -0.17305385008E+02  0.42437454079E+02  0.24031616690E+03  0.24464724387E+03  0.51100000000E-03 0. -1.
         22    1    1    2    0    0  0.13182705288E+02  0.12852779154E+03  0.71199657596E+03  0.72362441991E+03  0.00000000000E+00 0. -1.
          2    1    1    2  501    0  0.41226797204E+01 -0.17096524561E+03 -0.14263161719E+03  0.22268787557E+03  0.25500000000E-02 0.  1.
<mgrwt>
<rscale>  0 0.17101495E+03</rscale>
<asrwt>0</asrwt>
<pdfrwt beam="1">  1       11 0.10000000E+01 0.17507271E+03</pdfrwt>
<pdfrwt beam="2">  1        2 0.29338503E-01 0.17101495E+03</pdfrwt>
<totfact> 0.22080406E+02</totfact>
</mgrwt>
</event>
<event>
 5    1  0.2799727E-003  0.1758711E+03  0.7818608E-02  0.1447277E+00
         11   -1    0    0    0    0  0.00000000000E+00  0.00000000000E+00  0.10000603074E+04  0.10000603074E+04  0.51100000000E-03 0.  1.
          2   -1    0    0  501    0 -0.00000000000E+00 -0.00000000000E+00 -0.43172736379E+02  0.43172736455E+02  0.25500000000E-02 0.  1.
         11    1    1    2    0    0 -0.17664507626E+03  0.31059738541E+02  0.23410008476E+03  0.29490852820E+03  0.51100000000E-03 0.  1.
         22    1    1    2    0    0  0.72580336177E+01  0.11986482577E+02  0.22088353785E+02  0.26158176341E+02  0.00000000000E+00 0.  1.
          2    1    1    2  501    0  0.16938704264E+03 -0.43046221119E+02  0.70069913246E+03  0.72216633929E+03  0.25500000000E-02 0.  1.
<mgrwt>
<rscale>  0 0.49642944E+02</rscale>
<asrwt>0</asrwt>
<pdfrwt beam="1">  1       11 0.10000000E+01 0.17587111E+03</pdfrwt>
<pdfrwt beam="2">  1        2 0.66423598E-02 0.49642944E+02</pdfrwt>
<totfact> 0.11693772E+03</totfact>
</mgrwt>
</event>
<event>
 5    1  0.2799727E-003  0.1231052E+03  0.7818608E-02  0.1491886E+00
         11   -1    0    0    0    0  0.00000000000E+00  0.00000000000E+00  0.10003516180E+04  0.10003516180E+04  0.51100000000E-03 0. -1.
          2   -1    0    0  501    0 -0.00000000000E+00 -0.00000000000E+00 -0.14511640594E+03  0.14511640596E+03  0.25500000000E-02 0.  1.
         11    1    1    2    0    0 -0.64096162962E+01  0.14874590934E+03  0.43994838295E+03  0.46445775737E+03  0.51100000000E-03 0. -1.
         22    1    1    2    0    0  0.21982855204E+02 -0.10940884982E+03  0.53891256263E+03  0.55034561187E+03  0.00000000000E+00 0. -1.
          2    1    1    2  501    0 -0.15573238908E+02 -0.39337059515E+02 -0.12362573347E+03  0.13066465476E+03  0.25500000000E-02 0.  1.
<mgrwt>
<rscale>  0 0.42307565E+02</rscale>
<asrwt>0</asrwt>
<pdfrwt beam="1">  1       11 0.10000000E+01 0.12310522E+03</pdfrwt>
<pdfrwt beam="2">  1        2 0.22333450E-01 0.42307565E+02</pdfrwt>
<totfact> 0.28463417E+02</totfact>
</mgrwt>
</event>
<event>
 5    1  0.2799727E-003  0.1597927E+03  0.7818608E-02  0.1196253E+00
         11   -1    0    0    0    0  0.00000000000E+00  0.00000000000E+00  0.10002549492E+04  0.10002549492E+04  0.51100000000E-03 0. -1.
          2   -1    0    0  501    0 -0.00000000000E+00 -0.00000000000E+00 -0.25565279894E+02  0.25565280021E+02  0.25500000000E-02 0. -1.
         11    1    1    2    0    0 -0.99410309841E+02  0.90616165346E+02  0.31254159444E+03  0.34025864777E+03  0.51100000000E-03 0. -1.
         22    1    1    2    0    0 -0.28398933749E+01  0.23852106920E+02  0.81005969673E+02  0.84492337651E+02  0.00000000000E+00 0. -1.
          2    1    1    2  501    0  0.10225020322E+03 -0.11446827227E+03  0.58114210521E+03  0.60106924383E+03  0.25500000000E-02 0. -1.
<mgrwt>
<rscale>  0 0.15348645E+03</rscale>
<asrwt>0</asrwt>
<pdfrwt beam="1">  1       11 0.10000000E+01 0.15979272E+03</pdfrwt>
<pdfrwt beam="2">  1        2 0.39341226E-02 0.15348645E+03</pdfrwt>
<totfact> 0.25402278E+03</totfact>
</mgrwt>
</event>
<event>
 5    1  0.2799727E-003  0.1609358E+03  0.7818608E-02  0.1192619E+00
         11   -1    0    0    0    0  0.00000000000E+00  0.00000000000E+00  0.10001141092E+04  0.10001141092E+04  0.51100000000E-03 0. -1.
          2   -1    0    0  501    0 -0.00000000000E+00 -0.00000000000E+00 -0.48228355866E+02  0.48228355934E+02  0.25500000000E-02 0. -1.
         11    1    1    2    0    0 -0.11532591420E+03 -0.26903265863E+01  0.59956925889E+03  0.61056580362E+03  0.51100000000E-03 0. -1.
         22    1    1    2    0    0 -0.39041958969E+02 -0.23504632873E+02  0.24197310870E+03  0.24622698402E+03  0.00000000000E+00 0.  1.
          2    1    1    2  501    0  0.15436787317E+03  0.26194959459E+02  0.11034338577E+03  0.19154967752E+03  0.25500000000E-02 0. -1.
<mgrwt>
<rscale>  0 0.15657463E+03</rscale>
<asrwt>0</asrwt>
<pdfrwt beam="1">  1       11 0.10000000E+01 0.16093578E+03</pdfrwt>
<pdfrwt beam="2">  1        2 0.74205935E-02 0.15657463E+03</pdfrwt>
<totfact> 0.11136057E+03</totfact>
</mgrwt>
</event>
<event>
 5    1  0.2799727E-003  0.1540242E+03  0.7818608E-02  0.1199557E+00
         11   -1    0    0    0    0  0.00000000000E+00  0.00000000000E+00  0.10000480234E+04  0.10000480234E+04  0.51100000000E-03 0.  1.
          2   -1    0    0  501    0 -0.00000000000E+00 -0.00000000000E+00 -0.34319219752E+02  0.34319219847E+02  0.25500000000E-02 0.  1.
         11    1    1    2    0    0  0.63420009237E+01  0.12535522258E+03  0.15322461419E+03  0.19807053087E+03  0.51100000000E-03 0.  1.
         22    1    1    2    0    0  0.15504925936E+02  0.23801580342E+02  0.39050562345E+02  0.48289381592E+02  0.00000000000E+00 0. -1.
          2    1    1    2  501    0 -0.21846926860E+02 -0.14915680293E+03  0.77345362707E+03  0.78800733074E+03  0.25500000000E-02 0.  1.
<mgrwt>
<rscale>  0 0.15074827E+03</rscale>
<asrwt>0</asrwt>
<pdfrwt beam="1">  1       11 0.10000000E+01 0.15402423E+03</pdfrwt>
<pdfrwt beam="2">  1        2 0.52801334E-02 0.15074827E+03</pdfrwt>
<totfact> 0.17211440E+03</totfact>
</mgrwt>
</event>
<event>
 5    1  0.2799727E-003  0.2075269E+03  0.7818608E-02  0.1143539E+00
         11   -1    0    0    0    0  0.00000000000E+00  0.00000000000E+00  0.10001509011E+04  0.10001509011E+04  0.51100000000E-03 0. -1.
          2   -1    0    0  501    0 -0.00000000000E+00 -0.00000000000E+00 -0.17124354911E+03  0.17124354912E+03  0.25500000000E-02 0. -1.
         11    1    1    2    0    0  0.19536536081E+03  0.31927859346E+01  0.62328299502E+03  0.65319178651E+03  0.51100000000E-03 0. -1.
         22    1    1    2    0    0  0.97881455567E+00  0.71625893885E+02  0.28479513898E+03  0.29366562268E+03  0.00000000000E+00 0. -1.
          2    1    1    2  501    0 -0.19634417537E+03 -0.74818679820E+02 -0.79170782034E+02  0.22453704101E+03  0.25500000000E-02 0. -1.
<mgrwt>
<rscale>  0 0.20752694E+03</rscale>
<asrwt>0</asrwt>
<pdfrwt beam="1">  1       11 0.10000000E+01 0.71632582E+02</pdfrwt>
<pdfrwt beam="2">  1        2 0.26349136E-01 0.20752694E+03</pdfrwt>
<totfact> 0.24947291E+02</totfact>
</mgrwt>
</event>
<event>
 5    1  0.2799727E-003  0.1058471E+03  0.7818608E-02  0.1277509E+00
         11   -1    0    0    0    0  0.00000000000E+00  0.00000000000E+00  0.10000314358E+04  0.10000314358E+04  0.51100000000E-03 0. -1.
          2   -1    0    0  501    0 -0.00000000000E+00 -0.00000000000E+00 -0.31489577185E+02  0.31489577288E+02  0.25500000000E-02 0. -1.
         11    1    1    2    0    0 -0.14335255169E+03  0.32698053762E+02  0.32150018637E+03  0.35352720777E+03  0.51100000000E-03 0. -1.
         22    1    1    2    0    0  0.55628238945E+02 -0.79487409059E+02  0.23739958390E+03  0.25645918116E+03  0.00000000000E+00 0. -1.
          2    1    1    2  501    0  0.87724312744E+02  0.46789355297E+02  0.40964208839E+03  0.42153462420E+03  0.25500000000E-02 0. -1.
<mgrwt>
<rscale>  0 0.10133709E+03</rscale>
<asrwt>0</asrwt>
<pdfrwt beam="1">  1       11 0.10000000E+01 0.10584708E+03</pdfrwt>
<pdfrwt beam="2">  1        2 0.48447025E-02 0.10133709E+03</pdfrwt>
<totfact> 0.18620056E+03</totfact>
</mgrwt>
</event>
<event>
 5    1  0.2799727E-003  0.3606134E+03  0.7818608E-02  0.1058341E+00
         11   -1    0    0    0    0  0.00000000000E+00  0.00000000000E+00  0.10002850526E+04  0.10002850526E+04  0.51100000000E-03 0. -1.
          2   -1    0    0  501    0 -0.00000000000E+00 -0.00000000000E+00 -0.17508254885E+03  0.17508254887E+03  0.25500000000E-02 0. -1.
         11    1    1    2    0    0  0.34520254736E+03 -0.70054419633E+02  0.63628931934E+03  0.72728021994E+03  0.51100000000E-03 0. -1.
         22    1    1    2    0    0  0.69183887703E+01 -0.22020019213E+02  0.56081673000E+02  0.60645687364E+02  0.00000000000E+00 0. -1.
          2    1    1    2  501    0 -0.35212093613E+03  0.92074438846E+02  0.13283151141E+03  0.38744169417E+03  0.25500000000E-02 0. -1.
<mgrwt>
<rscale>  0 0.36061338E+03</rscale>
<asrwt>0</asrwt>
<pdfrwt beam="1">  1       11 0.10000000E+01 0.23081277E+02</pdfrwt>
<pdfrwt beam="2">  1        2 0.26943454E-01 0.36061338E+03</pdfrwt>
<totfact> 0.24574744E+02</totfact>
</mgrwt>
</event>
<event>
 5    1  0.2799727E-003  0.1466089E+03  0.7818608E-02  0.1374038E+00
         11   -1    0    0    0    0  0.00000000000E+00  0.00000000000E+00  0.10002464644E+04  0.10002464644E+04  0.51100000000E-03 0. -1.
          2   -1    0    0  501    0 -0.00000000000E+00 -0.00000000000E+00 -0.84815081303E+02  0.84815081341E+02  0.25500000000E-02 0. -1.
         11    1    1    2    0    0  0.10659574596E+03 -0.97439500060E+02  0.84432362428E+03  0.85658595117E+03  0.51100000000E-03 0. -1.
         22    1    1    2    0    0  0.15662987076E+02 -0.25308656693E+02  0.44000171685E+02  0.53121298705E+02  0.00000000000E+00 0. -1.
          2    1    1    2  501    0 -0.12225873303E+03  0.12274815675E+03  0.27107587126E+02  0.17535429586E+03  0.25500000000E-02 0. -1.
<mgrwt>
<rscale>  0 0.66057352E+02</rscale>
<asrwt>0</asrwt>
<pdfrwt beam="1">  1       11 0.10000000E+01 0.14660894E+03</pdfrwt>
<pdfrwt beam="2">  1        2 0.13051690E-01 0.66057352E+02</pdfrwt>
<totfact> 0.53081149E+02</totfact>
</mgrwt>
</event>
<event>
 5    1  0.2799727E-003  0.1981993E+03  0.7818608E-02  0.1160332E+00
         11   -1    0    0    0    0  0.00000000000E+00  0.00000000000E+00  0.10002406640E+04  0.10002406640E+04  0.51100000000E-03 0. -1.
          2   -1    0    0  501    0 -0.00000000000E+00 -0.00000000000E+00 -0.13339799768E+03  0.13339799770E+03  0.25500000000E-02 0. -1.
         11    1    1    2    0    0 -0.95859563896E+02  0.41690601840E+02  0.57622655602E+03  0.58563145932E+03  0.51100000000E-03 0. -1.
         22    1    1    2    0    0 -0.89635651792E+02 -0.11468257906E+02  0.34153723818E+03  0.35328990372E+03  0.00000000000E+00 0.  1.
          2    1    1    2  501    0  0.18549521569E+03 -0.30222343934E+02 -0.50921127901E+02  0.19471729864E+03  0.25500000000E-02 0. -1.
<mgrwt>
<rscale>  0 0.18794112E+03</rscale>
<asrwt>0</asrwt>
<pdfrwt beam="1">  1       11 0.10000000E+01 0.19819925E+03</pdfrwt>
<pdfrwt beam="2">  1        2 0.20527707E-01 0.18794112E+03</pdfrwt>
<totfact> 0.32947610E+02</totfact>
</mgrwt>
</event>
<event>
 5    1  0.2799727E-003  0.1831596E+03  0.7818608E-02  0.1171864E+00
         11   -1    0    0    0    0  0.00000000000E+00  0.00000000000E+00  0.10001872021E+04  0.10001872021E+04  0.51100000000E-03 0. -1.
          2   -1    0    0  501    0 -0.00000000000E+00 -0.00000000000E+00 -0.32699823418E+02  0.32699823517E+02  0.25500000000E-02 0. -1.
         11    1    1    2    0    0  0.12067988888E+03  0.11112883470E+03  0.40106224450E+03  0.43331764036E+03  0.51100000000E-03 0. -1.
         22    1    1    2    0    0 -0.13208458579E+01  0.18032681278E+02  0.29753221863E+02  0.34816324319E+02  0.00000000000E+00 0. -1.
          2    1    1    2  501    0 -0.11935904302E+03 -0.12916151598E+03  0.53667191232E+03  0.56475306094E+03  0.25500000000E-02 0. -1.
<mgrwt>
<rscale>  0 0.17586722E+03</rscale>
<asrwt>0</asrwt>
<pdfrwt beam="1">  1       11 0.10000000E+01 0.18315961E+03</pdfrwt>
<pdfrwt beam="2">  1        2 0.50316837E-02 0.17586722E+03</pdfrwt>
<totfact> 0.18552839E+03</totfact>
</mgrwt>
</event>
<event>
 5    1  0.2799727E-003  0.4104831E+02  0.7818608E-02  0.1500636E+00
         11   -1    0    0    0    0  0.00000000000E+00  0.00000000000E+00  0.10002057961E+04  0.10002057961E+04  0.51100000000E-03 0. -1.
          2   -1    0    0  501    0 -0.00000000000E+00 -0.00000000000E+00 -0.54065175178E+01  0.54065181192E+01  0.25500000000E-02 0. -1.
         11    1    1    2    0    0  0.68861736988E+01 -0.87873237580E+01  0.59750105102E+02  0.60784138614E+02  0.51100000000E-03 0. -1.
         22    1    1    2    0    0 -0.20423780715E+02  0.36907574740E+02  0.92084922918E+02  0.10128639060E+03  0.00000000000E+00 0. -1.
          2    1    1    2  501    0  0.13537607016E+02 -0.28120250982E+02  0.84296425060E+03  0.84354178504E+03  0.25500000000E-02 0. -1.
<mgrwt>
<rscale>  0 0.41048306E+02</rscale>
<asrwt>0</asrwt>
<pdfrwt beam="1">  1       11 0.10000000E+01 0.11164075E+02</pdfrwt>
<pdfrwt beam="2">  1        2 0.83194312E-03 0.41048306E+02</pdfrwt>
<totfact> 0.16985268E+04</totfact>
</mgrwt>
</event>
<event>
 5    1  0.2799727E-003  0.2404945E+03  0.7818608E-02  0.1127569E+00
         11   -1    0    0    0    0  0.00000000000E+00  0.00000000000E+00  0.10003204853E+04  0.10003204853E+04  0.51100000000E-03 0. -1.
          2   -1    0    0  501    0 -0.00000000000E+00 -0.00000000000E+00 -0.20962110404E+03  0.20962110406E+03  0.25500000000E-02 0.  1.
         11    1    1    2    0    0  0.17170524126E+03  0.12178659345E+03  0.79376241962E+03  0.82120243730E+03  0.51100000000E-03 0. -1.
         22    1    1    2    0    0  0.28011909676E+02 -0.10388446739E+02  0.12371010459E+03  0.12726655840E+03  0.00000000000E+00 0.  1.
          2    1    1    2  501    0 -0.19971715094E+03 -0.11139814671E+03 -0.12677314293E+03  0.26147259368E+03  0.25500000000E-02 0.  1.
<mgrwt>
<rscale>  0 0.22868425E+03</rscale>
<asrwt>0</asrwt>
<pdfrwt beam="1">  1       11 0.10000000E+01 0.24049450E+03</pdfrwt>
<pdfrwt beam="2">  1        2 0.32259735E-01 0.22868425E+03</pdfrwt>
<totfact> 0.19996222E+02</totfact>
</mgrwt>
</event>
<event>
 5    1  0.2799727E-003  0.6870564E+02  0.7818608E-02  0.1380153E+00
         11   -1    0    0    0    0  0.00000000000E+00  0.00000000000E+00  0.99991658523E+03  0.99991658523E+03  0.51100000000E-03 0. -1.
          2   -1    0    0  501    0 -0.00000000000E+00 -0.00000000000E+00 -0.59644869259E+01  0.59644874710E+01  0.25500000000E-02 0. -1.
         11    1    1    2    0    0  0.50649324251E+02  0.27783113210E+01  0.16190666114E+03  0.16966684998E+03  0.51100000000E-03 0. -1.
         22    1    1    2    0    0  0.13525799257E+02 -0.84311789099E+01  0.92043767042E+02  0.93413527257E+02  0.00000000000E+00 0.  1.
          2    1    1    2  501    0 -0.64175123508E+02  0.56528675889E+01  0.74000167013E+03  0.74280069547E+03  0.25500000000E-02 0. -1.
<mgrwt>
<rscale>  0 0.64423609E+02</rscale>
<asrwt>0</asrwt>
<pdfrwt beam="1">  1       11 0.10000000E+01 0.68705640E+02</pdfrwt>
<pdfrwt beam="2">  1        2 0.91753685E-03 0.64423609E+02</pdfrwt>
<totfact> 0.16208403E+04</totfact>
</mgrwt>
</event>
<event>
 5    1  0.2799727E-003  0.2634833E+03  0.7818608E-02  0.1105068E+00
         11   -1    0    0    0    0  0.00000000000E+00  0.00000000000E+00  0.10001714853E+04  0.10001714853E+04  0.51100000000E-03 0.  1.
          2   -1    0    0  501    0 -0.00000000000E+00 -0.00000000000E+00 -0.25796995510E+03  0.25796995511E+03  0.25500000000E-02 0.  1.
         11    1    1    2    0    0 -0.17035573026E+03 -0.58466413594E+02  0.31805808764E+03  0.36551380749E+03  0.51100000000E-03 0.  1.
         22    1    1    2    0    0 -0.10929755830E+03  0.88051166390E+00  0.56414087153E+03  0.57463175555E+03  0.00000000000E+00 0. -1.
          2    1    1    2  501    0  0.27965328856E+03  0.57585901930E+02 -0.13999742898E+03  0.31799587738E+03  0.25500000000E-02 0.  1.
<mgrwt>
<rscale>  0 0.26348335E+03</rscale>
<asrwt>0</asrwt>
<pdfrwt beam="1">  1       11 0.10000000E+01 0.10930110E+03</pdfrwt>
<pdfrwt beam="2">  1        2 0.39694490E-01 0.26348335E+03</pdfrwt>
<totfact> 0.15975684E+02</totfact>
</mgrwt>
</event>
<event>
 5    1  0.2799727E-003  0.2400412E+03  0.7818608E-02  0.1125612E+00
         11   -1    0    0    0    0  0.00000000000E+00  0.00000000000E+00  0.99998719561E+03  0.99998719561E+03  0.51100000000E-03 0. -1.
          2   -1    0    0  501    0 -0.00000000000E+00 -0.00000000000E+00 -0.31015247263E+03  0.31015247265E+03  0.25500000000E-02 0. -1.
         11    1    1    2    0    0  0.14721681070E+03  0.96110764768E+02  0.76580681539E+03  0.78572905441E+03  0.51100000000E-03 0. -1.
         22    1    1    2    0    0  0.30273804697E+02  0.52462211840E+02  0.17369571735E+03  0.18395376905E+03  0.00000000000E+00 0.  1.
          2    1    1    2  501    0 -0.17749061539E+03 -0.14857297661E+03 -0.24966780976E+03  0.34045684479E+03  0.25500000000E-02 0. -1.
<mgrwt>
<rscale>  0 0.23146673E+03</rscale>
<asrwt>0</asrwt>
<pdfrwt beam="1">  1       11 0.10000000E+01 0.24004118E+03</pdfrwt>
<pdfrwt beam="2">  1        2 0.47715153E-01 0.23146673E+03</pdfrwt>
<totfact> 0.13089812E+02</totfact>
</mgrwt>
</event>
<event>
 5    1  0.2799727E-003  0.1945718E+03  0.7818608E-02  0.1154401E+00
         11   -1    0    0    0    0  0.00000000000E+00  0.00000000000E+00  0.10002399801E+04  0.10002399801E+04  0.51100000000E-03 0.  1.
         -2   -1    0    0    0  501 -0.00000000000E+00 -0.00000000000E+00 -0.11428729346E+03  0.11428729349E+03  0.25500000000E-02 0. -1.
         11    1    1    2    0    0  0.53470033688E+02  0.19000591855E+03  0.86983724910E+03  0.89195186726E+03  0.51100000000E-03 0.  1.
         22    1    1    2    0    0  0.93980964525E+01 -0.61528817388E+01  0.25686244338E+02  0.28035073012E+02  0.00000000000E+00 0. -1.
         -2    1    1    2    0  501 -0.62868130141E+02 -0.18385303681E+03 -0.95708068165E+01  0.19454033330E+03  0.25500000000E-02 0. -1.
<mgrwt>
<rscale>  0 0.19457176E+03</rscale>
<asrwt>0</asrwt>
<pdfrwt beam="1">  1       11 0.10000000E+01 0.11233084E+02</pdfrwt>
<pdfrwt beam="2">  1       -2 0.17586880E-01 0.19457176E+03</pdfrwt>
<totfact> 0.20790883E+02</totfact>
</mgrwt>
</event>
<event>
 5    1  0.2799727E-003  0.2524621E+03  0.7818608E-02  0.1111759E+00
         11   -1    0    0    0    0  0.00000000000E+00  0.00000000000E+00  0.10000740220E+04  0.10000740220E+04  0.51100000000E-03 0.  1.
          2   -1    0    0  501    0 -0.00000000000E+00 -0.00000000000E+00 -0.99669539339E+02  0.99669539371E+02  0.25500000000E-02 0.  1.
         11    1    1    2    0    0  0.68229197599E+02  0.59761934408E+02  0.55157464100E+02  0.10615581970E+03  0.51100000000E-03 0.  1.
         22    1    1    2    0    0  0.20921427181E+03  0.80598091324E+00  0.52728182374E+03  0.56727187731E+03  0.00000000000E+00 0.  1.
          2    1    1    2  501    0 -0.27744346941E+03 -0.60567915321E+02  0.31796519481E+03  0.42631586436E+03  0.25500000000E-02 0.  1.
<mgrwt>
<rscale>  0 0.25246207E+03</rscale>
<asrwt>0</asrwt>
<pdfrwt beam="1">  1       11 0.10000000E+01 0.90701270E+02</pdfrwt>
<pdfrwt beam="2">  1        2 0.15334910E-01 0.25246207E+03</pdfrwt>
<totfact> 0.46679948E+02</totfact>
</mgrwt>
</event>
<event>
 5    1  0.2799727E-003  0.1046512E+03  0.7818608E-02  0.1279005E+00
         11   -1    0    0    0    0  0.00000000000E+00  0.00000000000E+00  0.10001051133E+04  0.10001051133E+04  0.51100000000E-03 0.  1.
          2   -1    0    0  501    0 -0.00000000000E+00 -0.00000000000E+00 -0.10563723965E+02  0.10563724272E+02  0.25500000000E-02 0.  1.
         11    1    1    2    0    0 -0.35106356007E+02  0.60415265870E+01  0.13937936656E+03  0.14385952905E+03  0.51100000000E-03 0.  1.
         22    1    1    2    0    0 -0.55090408198E+02  0.38547606695E+02  0.39252082314E+03  0.39823795356E+03  0.00000000000E+00 0.  1.
          2    1    1    2  501    0  0.90196764206E+02 -0.44589133282E+02  0.45764119961E+03  0.46857135493E+03  0.25500000000E-02 0.  1.
<mgrwt>
<rscale>  0 0.10061634E+03</rscale>
<asrwt>0</asrwt>
<pdfrwt beam="1">  1       11 0.10000000E+01 0.10465118E+03</pdfrwt>
<pdfrwt beam="2">  1        2 0.16253591E-02 0.10061634E+03</pdfrwt>
<totfact> 0.79838547E+03</totfact>
</mgrwt>
</event>
<event>
 5    1  0.2799727E-003  0.4410293E+02  0.7818608E-02  0.1657959E+00
         11   -1    0    0    0    0  0.00000000000E+00  0.00000000000E+00  0.10001305438E+04  0.10001305438E+04  0.51100000000E-03 0. -1.
          2   -1    0    0  501    0 -0.00000000000E+00 -0.00000000000E+00 -0.41231275740E+01  0.41231283625E+01  0.25500000000E-02 0. -1.
         11    1    1    2    0    0  0.33101131008E+02  0.26171760156E+02  0.15891768908E+03  0.16442468734E+03  0.51100000000E-03 0. -1.
         22    1    1    2    0    0 -0.85973951552E+01  0.11569363907E+02  0.72655015691E+02  0.74071024630E+02  0.00000000000E+00 0. -1.
          2    1    1    2  501    0 -0.24503735853E+02 -0.37741124063E+02  0.76443471149E+03  0.76575796023E+03  0.25500000000E-02 0. -1.
<mgrwt>
<rscale>  0 0.25213139E+02</rscale>
<asrwt>0</asrwt>
<pdfrwt beam="1">  1       11 0.10000000E+01 0.44102931E+02</pdfrwt>
<pdfrwt beam="2">  1        2 0.63441017E-03 0.25213139E+02</pdfrwt>
<totfact> 0.21830657E+04</totfact>
</mgrwt>
</event>
<event>
 5    1  0.2799727E-003  0.1847520E+03  0.7818608E-02  0.1167497E+00
         11   -1    0    0    0    0  0.00000000000E+00  0.00000000000E+00  0.10001769534E+04  0.10001769534E+04  0.51100000000E-03 0.  1.
          2   -1    0    0  501    0 -0.00000000000E+00 -0.00000000000E+00 -0.65461460350E+02  0.65461460400E+02  0.25500000000E-02 0.  1.
         11    1    1    2    0    0  0.82951753677E+02  0.10527273432E+03  0.60055901956E+03  0.61533281889E+03  0.51100000000E-03 0.  1.
         22    1    1    2    0    0  0.90023343164E+01  0.49835006525E+02  0.24306933111E+03  0.24828868203E+03  0.00000000000E+00 0.  1.
          2    1    1    2  501    0 -0.91954087993E+02 -0.15510774085E+03  0.91087142354E+02  0.20201691285E+03  0.25500000000E-02 0.  1.
<mgrwt>
<rscale>  0 0.18031629E+03</rscale>
<asrwt>0</asrwt>
<pdfrwt beam="1">  1       11 0.10000000E+01 0.18475200E+03</pdfrwt>
<pdfrwt beam="2">  1        2 0.10072776E-01 0.18031629E+03</pdfrwt>
<totfact> 0.76564527E+02</totfact>
</mgrwt>
</event>
<event>
 5    1  0.2799727E-003  0.2014677E+03  0.7818608E-02  0.1149723E+00
         11   -1    0    0    0    0  0.00000000000E+00  0.00000000000E+00  0.10001978340E+04  0.10001978340E+04  0.51100000000E-03 0.  1.
          2   -1    0    0  501    0 -0.00000000000E+00 -0.00000000000E+00 -0.17682537635E+03  0.17682537637E+03  0.25500000000E-02 0.  1.
         11    1    1    2    0    0 -0.18693964993E+03  0.29026937394E+02  0.88616281549E+03  0.90613107847E+03  0.51100000000E-03 0.  1.
         22    1    1    2    0    0 -0.98616011725E+01  0.67032021629E+01  0.42998281663E+02  0.44621030051E+02  0.00000000000E+00 0. -1.
          2    1    1    2  501    0  0.19680125111E+03 -0.35730139557E+02 -0.10578863946E+03  0.22627110190E+03  0.25500000000E-02 0.  1.
<mgrwt>
<rscale>  0 0.20001844E+03</rscale>
<asrwt>0</asrwt>
<pdfrwt beam="1">  1       11 0.10000000E+01 0.20146768E+03</pdfrwt>
<pdfrwt beam="2">  1        2 0.27209285E-01 0.20001844E+03</pdfrwt>
<totfact> 0.24057286E+02</totfact>
</mgrwt>
</event>
<event>
 5    1  0.2799727E-003  0.4636399E+02  0.7818608E-02  0.1466002E+00
         11   -1    0    0    0    0  0.00000000000E+00  0.00000000000E+00  0.10001083041E+04  0.10001083041E+04  0.51100000000E-03 0. -1.
          2   -1    0    0  501    0 -0.00000000000E+00 -0.00000000000E+00 -0.33440564097E+01  0.33440573819E+01  0.25500000000E-02 0. -1.
         11    1    1    2    0    0  0.42080130863E+01 -0.10764193366E+02  0.64080785630E+02  0.65114685902E+02  0.51100000000E-03 0. -1.
         22    1    1    2    0    0 -0.42951315055E+02 -0.17081490430E+02  0.26908776545E+03  0.27302896970E+03  0.00000000000E+00 0. -1.
          2    1    1    2  501    0  0.38743301968E+02  0.27845683797E+02  0.66359569656E+03  0.66530870583E+03  0.25500000000E-02 0. -1.
<mgrwt>
<rscale>  0 0.46363991E+02</rscale>
<asrwt>0</asrwt>
<pdfrwt beam="1">  1       11 0.10000000E+01 0.11557481E+02</pdfrwt>
<pdfrwt beam="2">  1        2 0.51452600E-03 0.46363991E+02</pdfrwt>
<totfact> 0.33221016E+04</totfact>
</mgrwt>
</event>
<event>
 5    1  0.2799727E-003  0.5634053E+03  0.7818608E-02  0.9993611E-01
         11   -1    0    0    0    0  0.00000000000E+00  0.00000000000E+00  0.10001524745E+04  0.10001524745E+04  0.51100000000E-03 0. -1.
          2   -1    0    0  501    0 -0.00000000000E+00 -0.00000000000E+00 -0.32524663486E+03  0.32524663487E+03  0.25500000000E-02 0. -1.
         11    1    1    2    0    0  0.51252033552E+03 -0.11138061910E+03  0.42493180726E+03  0.67501835342E+03  0.51100000000E-03 0. -1.
         22    1    1    2    0    0  0.37562189196E+02  0.10187217012E+02  0.30900296465E+02  0.49694323310E+02  0.00000000000E+00 0.  1.
          2    1    1    2  501    0 -0.55008252471E+03  0.10119340209E+03  0.21907373595E+03  0.60068643268E+03  0.25500000000E-02 0. -1.
<mgrwt>
<rscale>  0 0.55931287E+03</rscale>
<asrwt>0</asrwt>
<pdfrwt beam="1">  1       11 0.10000000E+01 0.56340532E+03</pdfrwt>
<pdfrwt beam="2">  1        2 0.50045572E-01 0.55931287E+03</pdfrwt>
<totfact> 0.12410431E+02</totfact>
</mgrwt>
</event>
<event>
 5    1  0.2799727E-003  0.1606771E+03  0.7818608E-02  0.1451241E+00
         11   -1    0    0    0    0  0.00000000000E+00  0.00000000000E+00  0.10006430864E+04  0.10006430864E+04  0.51100000000E-03 0. -1.
          2   -1    0    0  501    0 -0.00000000000E+00 -0.00000000000E+00 -0.16746633430E+04  0.16746633430E+04  0.25500000000E-02 0.  1.
         11    1    1    2    0    0 -0.12739682583E+03  0.94078054595E+02  0.59511333781E+03  0.61582506967E+03  0.51100000000E-03 0. -1.
         22    1    1    2    0    0  0.10135038688E+03 -0.13549058942E+03  0.37668170012E+03  0.41293910440E+03  0.00000000000E+00 0. -1.
          2    1    1    2  501    0  0.26046438947E+02  0.41412534826E+02 -0.16458152945E+04  0.16465422554E+04  0.25500000000E-02 0.  1.
<mgrwt>
<rscale>  0 0.48922541E+02</rscale>
<asrwt>0</asrwt>
<pdfrwt beam="1">  1       11 0.10000000E+01 0.16067708E+03</pdfrwt>
<pdfrwt beam="2">  1        2 0.25780619E+00 0.48922541E+02</pdfrwt>
<totfact> 0.16089364E+01</totfact>
</mgrwt>
</event>
<event>
 5    1  0.2799727E-003  0.8157574E+02  0.7818608E-02  0.1324638E+00
         11   -1    0    0    0    0  0.00000000000E+00  0.00000000000E+00  0.10003964337E+04  0.10003964337E+04  0.51100000000E-03 0. -1.
          2   -1    0    0  501    0 -0.00000000000E+00 -0.00000000000E+00 -0.33821706138E+02  0.33821706234E+02  0.25500000000E-02 0. -1.
         11    1    1    2    0    0 -0.77920620823E+02 -0.88280189599E+02  0.65527933128E+03  0.66577474947E+03  0.51100000000E-03 0. -1.
         22    1    1    2    0    0  0.45134294559E+02  0.16660100081E+02  0.27931944005E+03  0.28343255471E+03  0.00000000000E+00 0. -1.
          2    1    1    2  501    0  0.32786326264E+02  0.71620089518E+02  0.31975956230E+02  0.85010835755E+02  0.25500000000E-02 0. -1.
<mgrwt>
<rscale>  0 0.81575743E+02</rscale>
<asrwt>0</asrwt>
<pdfrwt beam="1">  1       11 0.10000000E+01 0.48110950E+02</pdfrwt>
<pdfrwt beam="2">  1        2 0.52054020E-02 0.81575743E+02</pdfrwt>
<totfact> 0.16642598E+03</totfact>
</mgrwt>
</event>
<event>
 5    1  0.2799727E-003  0.1634139E+03  0.7818608E-02  0.1188131E+00
         11   -1    0    0    0    0  0.00000000000E+00  0.00000000000E+00  0.10003466650E+04  0.10003466650E+04  0.51100000000E-03 0. -1.
          2   -1    0    0  501    0 -0.00000000000E+00 -0.00000000000E+00 -0.36277381243E+02  0.36277381332E+02  0.25500000000E-02 0. -1.
         11    1    1    2    0    0 -0.67348490945E+02 -0.11011593409E+03  0.15858269369E+03  0.20447447007E+03  0.51100000000E-03 0. -1.
         22    1    1    2    0    0 -0.44083108217E+01 -0.33452925722E+02  0.53702415578E+02  0.63423031168E+02  0.00000000000E+00 0. -1.
          2    1    1    2  501    0  0.71756801767E+02  0.14356885981E+03  0.75178417448E+03  0.76872654508E+03  0.25500000000E-02 0. -1.
<mgrwt>
<rscale>  0 0.16050251E+03</rscale>
<asrwt>0</asrwt>
<pdfrwt beam="1">  1       11 0.10000000E+01 0.16341390E+03</pdfrwt>
<pdfrwt beam="2">  1        2 0.55830702E-02 0.16050251E+03</pdfrwt>
<totfact> 0.16082624E+03</totfact>
</mgrwt>
</event>
<event>
 5    1  0.2799727E-003  0.2887629E+03  0.7818608E-02  0.1094619E+00
         11   -1    0    0    0    0  0.00000000000E+00  0.00000000000E+00  0.99987317287E+03  0.99987317287E+03  0.51100000000E-03 0. -1.
         -2   -1    0    0    0  501 -0.00000000000E+00 -0.00000000000E+00 -0.67292122827E+03  0.67292122827E+03  0.25500000000E-02 0.  1.
         11    1    1    2    0    0  0.17747508402E+03  0.17515385876E+03  0.86636471074E+03  0.90153429869E+03  0.51100000000E-03 0. -1.
         22    1    1    2    0    0  0.35212458815E+02  0.99680878359E+01  0.81490765318E+02  0.89330984899E+02  0.00000000000E+00 0.  1.
         -2    1    1    2    0  501 -0.21268754283E+03 -0.18512194659E+03 -0.62090353146E+03  0.68192911756E+03  0.25500000000E-02 0.  1.
<mgrwt>
<rscale>  0 0.28196831E+03</rscale>
<asrwt>0</asrwt>
<pdfrwt beam="1">  1       11 0.10000000E+01 0.28876289E+03</pdfrwt>
<pdfrwt beam="2">  1       -2 0.10351321E+00 0.28196831E+03</pdfrwt>
<totfact> 0.64209385E+00</totfact>
</mgrwt>
</event>
<event>
 5    1  0.2799727E-003  0.1524856E+03  0.7818608E-02  0.1380205E+00
         11   -1    0    0    0    0  0.00000000000E+00  0.00000000000E+00  0.10002463906E+04  0.10002463906E+04  0.51100000000E-03 0. -1.
          2   -1    0    0  501    0 -0.00000000000E+00 -0.00000000000E+00 -0.30996978553E+02  0.30996978658E+02  0.25500000000E-02 0. -1.
         11    1    1    2    0    0  0.12793670479E+03  0.78109108761E+02  0.55172292449E+03  0.57172285131E+03  0.51100000000E-03 0. -1.
         22    1    1    2    0    0 -0.90512289048E+01  0.25656997173E+02  0.27057849841E+02  0.38370997988E+02  0.00000000000E+00 0. -1.
          2    1    1    2  501    0 -0.11888547588E+03 -0.10376610593E+03  0.39046863775E+03  0.42114951999E+03  0.25500000000E-02 0. -1.
<mgrwt>
<rscale>  0 0.64409897E+02</rscale>
<asrwt>0</asrwt>
<pdfrwt beam="1">  1       11 0.10000000E+01 0.15248560E+03</pdfrwt>
<pdfrwt beam="2">  1        2 0.47699408E-02 0.64409897E+02</pdfrwt>
<totfact> 0.18192221E+03</totfact>
</mgrwt>
</event>
<event>
 5    1  0.2799727E-003  0.3965436E+03  0.7818608E-02  0.1044983E+00
         11   -1    0    0    0    0  0.00000000000E+00  0.00000000000E+00  0.10002518499E+04  0.10002518499E+04  0.51100000000E-03 0. -1.
          2   -1    0    0  501    0 -0.00000000000E+00 -0.00000000000E+00 -0.25309198895E+03  0.25309198896E+03  0.25500000000E-02 0. -1.
         11    1    1    2    0    0  0.38679521949E+03  0.10569961055E+03  0.66217008131E+03  0.77411379401E+03  0.51100000000E-03 0. -1.
         22    1    1    2    0    0  0.17193889783E+01 -0.31356918885E+02  0.77472191679E+02  0.83595174167E+02  0.00000000000E+00 0. -1.
          2    1    1    2  501    0 -0.38851460847E+03 -0.74342691663E+02  0.75175880113E+01  0.39563487073E+03  0.25500000000E-02 0. -1.
<mgrwt>
<rscale>  0 0.39654362E+03</rscale>
<asrwt>0</asrwt>
<pdfrwt beam="1">  1       11 0.10000000E+01 0.31404023E+02</pdfrwt>
<pdfrwt beam="2">  1        2 0.38947034E-01 0.39654362E+03</pdfrwt>
<totfact> 0.16347813E+02</totfact>
</mgrwt>
</event>
<event>
 5    1  0.2799727E-003  0.1720514E+03  0.7818608E-02  0.1181280E+00
         11   -1    0    0    0    0  0.00000000000E+00  0.00000000000E+00  0.10000937366E+04  0.10000937366E+04  0.51100000000E-03 0. -1.
         -2   -1    0    0    0  501 -0.00000000000E+00 -0.00000000000E+00 -0.87794740448E+02  0.87794740485E+02  0.25500000000E-02 0. -1.
         11    1    1    2    0    0 -0.82671394678E+02  0.11274865664E+03  0.72924054706E+03  0.74252178052E+03  0.51100000000E-03 0. -1.
         22    1    1    2    0    0  0.26507915211E+00  0.32216444075E+02  0.17551326706E+03  0.17844572410E+03  0.00000000000E+00 0. -1.
         -2    1    1    2    0  501  0.82406315526E+02 -0.14496510071E+03  0.75451820087E+01  0.16692097244E+03  0.25500000000E-02 0. -1.
<mgrwt>
<rscale>  0 0.16675036E+03</rscale>
<asrwt>0</asrwt>
<pdfrwt beam="1">  1       11 0.10000000E+01 0.17205139E+03</pdfrwt>
<pdfrwt beam="2">  1       -2 0.13508149E-01 0.16675036E+03</pdfrwt>
<totfact> 0.31932514E+02</totfact>
</mgrwt>
</event>
<event>
 5    1  0.2799727E-003  0.2111203E+03  0.7818608E-02  0.1293497E+00
         11   -1    0    0    0    0  0.00000000000E+00  0.00000000000E+00  0.99999470165E+03  0.99999470165E+03  0.51100000000E-03 0. -1.
          2   -1    0    0  501    0 -0.00000000000E+00 -0.00000000000E+00 -0.22419133906E+03  0.22419133907E+03  0.25500000000E-02 0. -1.
         11    1    1    2    0    0  0.20740968302E+03  0.34482745552E+02  0.88450048281E+03  0.90914737003E+03  0.51100000000E-03 0. -1.
         22    1    1    2    0    0  0.80764572742E+01  0.41045343358E+02  0.26650022527E+02  0.49600131796E+02  0.00000000000E+00 0.  1.
          2    1    1    2  501    0 -0.21548614029E+03 -0.75528088910E+02 -0.13534714275E+03  0.26543853889E+03  0.25500000000E-02 0. -1.
<mgrwt>
<rscale>  0 0.93976963E+02</rscale>
<asrwt>0</asrwt>
<pdfrwt beam="1">  1       11 0.10000000E+01 0.21112034E+03</pdfrwt>
<pdfrwt beam="2">  1        2 0.34490792E-01 0.93976963E+02</pdfrwt>
<totfact> 0.18355389E+02</totfact>
</mgrwt>
</event>
<event>
 5    1  0.2799727E-003  0.1121727E+03  0.7818608E-02  0.1309195E+00
         11   -1    0    0    0    0  0.00000000000E+00  0.00000000000E+00  0.99986154645E+03  0.99986154645E+03  0.51100000000E-03 0. -1.
         -2   -1    0    0    0  501 -0.00000000000E+00 -0.00000000000E+00 -0.10675870553E+03  0.10675870556E+03  0.25500000000E-02 0.  1.
         11    1    1    2    0    0 -0.96030764231E+02  0.33725216613E+01  0.37020101228E+03  0.38246839226E+03  0.51100000000E-03 0. -1.
         22    1    1    2    0    0  0.12662138884E+03  0.78532180150E+02  0.59341188288E+03  0.61183162894E+03  0.00000000000E+00 0. -1.
         -2    1    1    2    0  501 -0.30590624612E+02 -0.81904701811E+02 -0.70510054242E+02  0.11232023081E+03  0.25500000000E-02 0.  1.
<mgrwt>
<rscale>  0 0.87430924E+02</rscale>
<asrwt>0</asrwt>
<pdfrwt beam="1">  1       11 0.10000000E+01 0.11217268E+03</pdfrwt>
<pdfrwt beam="2">  1       -2 0.16422142E-01 0.87430924E+02</pdfrwt>
<totfact> 0.22536819E+02</totfact>
</mgrwt>
</event>
<event>
 5    1  0.2799727E-003  0.7916800E+02  0.7818608E-02  0.1523970E+00
         11   -1    0    0    0    0  0.00000000000E+00  0.00000000000E+00  0.10000566421E+04  0.10000566421E+04  0.51100000000E-03 0.  1.
          2   -1    0    0  501    0 -0.00000000000E+00 -0.00000000000E+00 -0.13438668853E+02  0.13438669095E+02  0.25500000000E-02 0.  1.
         11    1    1    2    0    0 -0.85033664691E+02 -0.38306714744E+01  0.24147916164E+03  0.25604215216E+03  0.51100000000E-03 0.  1.
         22    1    1    2    0    0  0.95947985133E+01 -0.15440506169E+02  0.16145289177E+02  0.24313365704E+02  0.00000000000E+00 0.  1.
          2    1    1    2  501    0  0.75438866177E+02  0.19271177644E+02  0.72899352243E+03  0.73313979334E+03  0.25500000000E-02 0.  1.
<mgrwt>
<rscale>  0 0.37936523E+02</rscale>
<asrwt>0</asrwt>
<pdfrwt beam="1">  1       11 0.10000000E+01 0.79167995E+02</pdfrwt>
<pdfrwt beam="2">  1        2 0.20676046E-02 0.37936523E+02</pdfrwt>
<totfact> 0.50183811E+03</totfact>
</mgrwt>
</event>
<event>
 5    1  0.2799727E-003  0.1296296E+03  0.7818608E-02  0.1280288E+00
         11   -1    0    0    0    0  0.00000000000E+00  0.00000000000E+00  0.10000484782E+04  0.10000484782E+04  0.51100000000E-03 0. -1.
          2   -1    0    0  501    0 -0.00000000000E+00 -0.00000000000E+00 -0.72781105391E+02  0.72781105436E+02  0.25500000000E-02 0. -1.
         11    1    1    2    0    0 -0.23449739999E+02  0.11925758104E+03  0.58989462276E+03  0.60228558583E+03  0.51100000000E-03 0. -1.
         22    1    1    2    0    0  0.12268401861E+03 -0.13164075887E+03  0.32268455217E+03  0.36946715420E+03  0.00000000000E+00 0. -1.
          2    1    1    2  501    0 -0.99234278607E+02  0.12383177836E+02  0.14688197840E+02  0.10107684357E+03  0.25500000000E-02 0. -1.
<mgrwt>
<rscale>  0 0.10000393E+03</rscale>
<asrwt>0</asrwt>
<pdfrwt beam="1">  1       11 0.10000000E+01 0.12962960E+03</pdfrwt>
<pdfrwt beam="2">  1        2 0.11197636E-01 0.10000393E+03</pdfrwt>
<totfact> 0.65164905E+02</totfact>
</mgrwt>
</event>
<event>
 5    1  0.2799727E-003  0.1687149E+03  0.7818608E-02  0.1181329E+00
         11   -1    0    0    0    0  0.00000000000E+00  0.00000000000E+00  0.99993263019E+03  0.99993263019E+03  0.51100000000E-03 0. -1.
          2   -1    0    0  501    0 -0.00000000000E+00 -0.00000000000E+00 -0.32877763817E+02  0.32877763916E+02  0.25500000000E-02 0. -1.
         11    1    1    2    0    0 -0.73835436087E+02  0.13485942334E+03  0.63004886215E+03  0.64853704935E+03  0.51100000000E-03 0. -1.
         22    1    1    2    0    0 -0.12715194284E+02  0.76162740109E+01  0.52226388024E+02  0.54288851540E+02  0.00000000000E+00 0. -1.
          2    1    1    2  501    0  0.86550630371E+02 -0.14247569735E+03  0.28477961620E+03  0.32998449322E+03  0.25500000000E-02 0. -1.
<mgrwt>
<rscale>  0 0.16670434E+03</rscale>
<asrwt>0</asrwt>
<pdfrwt beam="1">  1       11 0.10000000E+01 0.16871494E+03</pdfrwt>
<pdfrwt beam="2">  1        2 0.50577766E-02 0.16670434E+03</pdfrwt>
<totfact> 0.18351448E+03</totfact>
</mgrwt>
</event>
<event>
 5    1  0.2799727E-003  0.1154318E+03  0.7818608E-02  0.1258149E+00
         11   -1    0    0    0    0  0.00000000000E+00  0.00000000000E+00  0.10001409492E+04  0.10001409492E+04  0.51100000000E-03 0. -1.
          2   -1    0    0  501    0 -0.00000000000E+00 -0.00000000000E+00 -0.12967904927E+02  0.12967905177E+02  0.25500000000E-02 0. -1.
         11    1    1    2    0    0  0.42657060710E+02 -0.93754037035E+02  0.40098343284E+03  0.41400139819E+03  0.51100000000E-03 0. -1.
         22    1    1    2    0    0  0.11932492874E+02 -0.32596182538E+01  0.53606035763E+02  0.55014694106E+02  0.00000000000E+00 0.  1.
          2    1    1    2  501    0 -0.54589553584E+02  0.97013655289E+02  0.53258357571E+03  0.54409276212E+03  0.25500000000E-02 0. -1.
<mgrwt>
<rscale>  0 0.11131787E+03</rscale>
<asrwt>0</asrwt>
<pdfrwt beam="1">  1       11 0.10000000E+01 0.11543184E+03</pdfrwt>
<pdfrwt beam="2">  1        2 0.19953435E-02 0.11131787E+03</pdfrwt>
<totfact> 0.61217162E+03</totfact>
</mgrwt>
</event>
<event>
 5    1  0.2799727E-003  0.6868706E+02  0.7818608E-02  0.1389312E+00
         11   -1    0    0    0    0  0.00000000000E+00  0.00000000000E+00  0.10004242643E+04  0.10004242643E+04  0.51100000000E-03 0.  1.
         -2   -1    0    0    0  501 -0.00000000000E+00 -0.00000000000E+00 -0.61297507534E+01  0.61297512838E+01  0.25500000000E-02 0.  1.
         11    1    1    2    0    0  0.19289406869E+02 -0.27861761121E+02  0.75232945378E+02  0.82512756715E+02  0.51100000000E-03 0.  1.
         22    1    1    2    0    0  0.13785246644E+02 -0.24671731883E+02  0.16269288205E+03  0.16512934703E+03  0.00000000000E+00 0. -1.
         -2    1    1    2    0  501 -0.33074653513E+02  0.52533493003E+02  0.75636868609E+03  0.75891191182E+03  0.25500000000E-02 0.  1.
<mgrwt>
<rscale>  0 0.62078181E+02</rscale>
<asrwt>0</asrwt>
<pdfrwt beam="1">  1       11 0.10000000E+01 0.68687060E+02</pdfrwt>
<pdfrwt beam="2">  1       -2 0.94343869E-03 0.62078181E+02</pdfrwt>
<totfact> 0.14791363E+04</totfact>
</mgrwt>
</event>
<event>
 5    1  0.2799727E-003  0.2462222E+03  0.7818608E-02  0.1122106E+00
         11   -1    0    0    0    0  0.00000000000E+00  0.00000000000E+00  0.10004405669E+04  0.10004405669E+04  0.51100000000E-03 0. -1.
          2   -1    0    0  501    0 -0.00000000000E+00 -0.00000000000E+00 -0.12976560240E+03  0.12976560242E+03  0.25500000000E-02 0. -1.
         11    1    1    2    0    0  0.26238974988E+02 -0.88473049413E+02  0.32579061460E+03  0.33860816417E+03  0.51100000000E-03 0. -1.
         22    1    1    2    0    0  0.11757417983E+03 -0.99351890054E+02  0.53295356086E+03  0.55473776133E+03  0.00000000000E+00 0. -1.
          2    1    1    2  501    0 -0.14381315482E+03  0.18782493947E+03  0.11930789081E+02  0.23686024386E+03  0.25500000000E-02 0. -1.
<mgrwt>
<rscale>  0 0.23655957E+03</rscale>
<asrwt>0</asrwt>
<pdfrwt beam="1">  1       11 0.10000000E+01 0.24622222E+03</pdfrwt>
<pdfrwt beam="2">  1        2 0.19972734E-01 0.23655957E+03</pdfrwt>
<totfact> 0.34216750E+02</totfact>
</mgrwt>
</event>
<event>
 5    1  0.2799727E-003  0.6290113E+02  0.7818608E-02  0.1392905E+00
         11   -1    0    0    0    0  0.00000000000E+00  0.00000000000E+00  0.10003262029E+04  0.10003262029E+04  0.51100000000E-03 0.  1.
         -2   -1    0    0    0  501 -0.00000000000E+00 -0.00000000000E+00 -0.42846927216E+01  0.42846934804E+01  0.25500000000E-02 0.  1.
         11    1    1    2    0    0 -0.20220197595E+02  0.16764282418E+02  0.13197129444E+03  0.13455972694E+03  0.51100000000E-03 0.  1.
         22    1    1    2    0    0 -0.35435258176E+02  0.86654215158E+01  0.21194292936E+03  0.21505941588E+03  0.00000000000E+00 0.  1.
         -2    1    1    2    0  501  0.55655455771E+02 -0.25429703934E+02  0.65212728641E+03  0.65499175360E+03  0.25500000000E-02 0.  1.
<mgrwt>
<rscale>  0 0.61189865E+02</rscale>
<asrwt>0</asrwt>
<pdfrwt beam="1">  1       11 0.10000000E+01 0.62901126E+02</pdfrwt>
<pdfrwt beam="2">  1       -2 0.65939856E-03 0.61189865E+02</pdfrwt>
<totfact> 0.24307414E+04</totfact>
</mgrwt>
</event>
<event>
 5    1  0.2799727E-003  0.7000649E+03  0.7818608E-02  0.1201489E+00
         11   -1    0    0    0    0  0.00000000000E+00  0.00000000000E+00  0.10001611227E+04  0.10001611227E+04  0.51100000000E-03 0. -1.
          2   -1    0    0  501    0 -0.00000000000E+00 -0.00000000000E+00 -0.58133090409E+03  0.58133090409E+03  0.25500000000E-02 0. -1.
         11    1    1    2    0    0  0.68851731537E+03  0.40498700737E+02 -0.41557513447E+02  0.69095822251E+03  0.51100000000E-03 0. -1.
         22    1    1    2    0    0  0.13605276598E+02  0.28729003895E+02 -0.19478596631E+02  0.37281026579E+02  0.00000000000E+00 0. -1.
          2    1    1    2  501    0 -0.70212259197E+03 -0.69227704632E+02  0.47986632870E+03  0.85325277771E+03  0.25500000000E-02 0. -1.
<mgrwt>
<rscale>  0 0.14917592E+03</rscale>
<asrwt>0</asrwt>
<pdfrwt beam="1">  1       11 0.10000000E+01 0.70006487E+03</pdfrwt>
<pdfrwt beam="2">  1        2 0.89449931E-01 0.14917592E+03</pdfrwt>
<totfact> 0.66122573E+01</totfact>
</mgrwt>
</event>
<event>
 5    1  0.2799727E-003  0.1066921E+03  0.7818608E-02  0.1434138E+00
         11   -1    0    0    0    0  0.00000000000E+00  0.00000000000E+00  0.10000399498E+04  0.10000399498E+04  0.51100000000E-03 0.  1.
          2   -1    0    0  501    0 -0.00000000000E+00 -0.00000000000E+00 -0.26774733597E+02  0.26774733719E+02  0.25500000000E-02 0.  1.
         11    1    1    2    0    0 -0.10358059523E+03  0.37562407639E+02  0.12353923640E+03  0.16553494225E+03  0.51100000000E-03 0.  1.
         22    1    1    2    0    0  0.14543118884E+02  0.20920680121E+02  0.73779160772E+02  0.78054735461E+02  0.00000000000E+00 0. -1.
          2    1    1    2  501    0  0.89037476348E+02 -0.58483087760E+02  0.77594681908E+03  0.78322500585E+03  0.25500000000E-02 0.  1.
<mgrwt>
<rscale>  0 0.52138296E+02</rscale>
<asrwt>0</asrwt>
<pdfrwt beam="1">  1       11 0.10000000E+01 0.10669210E+03</pdfrwt>
<pdfrwt beam="2">  1        2 0.41193542E-02 0.52138296E+02</pdfrwt>
<totfact> 0.21454584E+03</totfact>
</mgrwt>
</event>
<event>
 5    1  0.2799727E-003  0.1468008E+03  0.7818608E-02  0.1204460E+00
         11   -1    0    0    0    0  0.00000000000E+00  0.00000000000E+00  0.10001243792E+04  0.10001243792E+04  0.51100000000E-03 0. -1.
          2   -1    0    0  501    0 -0.00000000000E+00 -0.00000000000E+00 -0.18976918207E+03  0.18976918209E+03  0.25500000000E-02 0. -1.
         11    1    1    2    0    0  0.84955618762E+02  0.13744905624E+02  0.40023208385E+03  0.40938014184E+03  0.51100000000E-03 0. -1.
         22    1    1    2    0    0  0.50077373842E+02 -0.80107205769E+02  0.56013642361E+03  0.56804728751E+03  0.00000000000E+00 0. -1.
          2    1    1    2  501    0 -0.13503299260E+03  0.66362300145E+02 -0.15001331029E+03  0.21246613199E+03  0.25500000000E-02 0. -1.
<mgrwt>
<rscale>  0 0.14680079E+03</rscale>
<asrwt>0</asrwt>
<pdfrwt beam="1">  1       11 0.10000000E+01 0.86060325E+02</pdfrwt>
<pdfrwt beam="2">  1        2 0.29198889E-01 0.14680079E+03</pdfrwt>
<totfact> 0.22131432E+02</totfact>
</mgrwt>
</event>
<event>
 5    1  0.2799727E-003  0.6150762E+02  0.7818608E-02  0.1401129E+00
         11   -1    0    0    0    0  0.00000000000E+00  0.00000000000E+00  0.10001166861E+04  0.10001166861E+04  0.51100000000E-03 0. -1.
         -2   -1    0    0    0  501 -0.00000000000E+00 -0.00000000000E+00 -0.41516794406E+01  0.41516802238E+01  0.25500000000E-02 0.  1.
         11    1    1    2    0    0  0.11207984242E+02  0.17150612631E+01  0.65169342381E+02  0.66148344897E+02  0.51100000000E-03 0. -1.
         22    1    1    2    0    0  0.32767440645E+02  0.37950007378E+02  0.26542900441E+03  0.27012305456E+03  0.00000000000E+00 0. -1.
         -2    1    1    2    0  501 -0.43975424886E+02 -0.39665068641E+02  0.66536665989E+03  0.66799696688E+03  0.25500000000E-02 0.  1.
<mgrwt>
<rscale>  0 0.59221243E+02</rscale>
<asrwt>0</asrwt>
<pdfrwt beam="1">  1       11 0.10000000E+01 0.61507619E+02</pdfrwt>
<pdfrwt beam="2">  1       -2 0.63879449E-03 0.59221243E+02</pdfrwt>
<totfact> 0.25239542E+04</totfact>
</mgrwt>
</event>
<event>
 5    1  0.2799727E-003  0.1519728E+03  0.7818608E-02  0.1293889E+00
         11   -1    0    0    0    0  0.00000000000E+00  0.00000000000E+00  0.10001553344E+04  0.10001553344E+04  0.51100000000E-03 0. -1.
         -2   -1    0    0    0  501 -0.00000000000E+00 -0.00000000000E+00 -0.34992242043E+03  0.34992242044E+03  0.25500000000E-02 0.  1.
         11    1    1    2    0    0 -0.12194959324E+03  0.82116314371E+02  0.16753959014E+02  0.14797123883E+03  0.51100000000E-03 0. -1.
         22    1    1    2    0    0  0.15497676351E+03  0.56829939934E+01  0.90326301356E+03  0.91647922252E+03  0.00000000000E+00 0. -1.
         -2    1    1    2    0  501 -0.33027170273E+02 -0.87799308364E+02 -0.26978405858E+03  0.28562729351E+03  0.25500000000E-02 0.  1.
<mgrwt>
<rscale>  0 0.93805717E+02</rscale>
<asrwt>0</asrwt>
<pdfrwt beam="1">  1       11 0.10000000E+01 0.15197284E+03</pdfrwt>
<pdfrwt beam="2">  1       -2 0.53842579E-01 0.93805717E+02</pdfrwt>
<totfact> 0.26928278E+01</totfact>
</mgrwt>
</event>
<event>
 5    1  0.2799727E-003  0.2089337E+03  0.7818608E-02  0.1146560E+00
         11   -1    0    0    0    0  0.00000000000E+00  0.00000000000E+00  0.10001513611E+04  0.10001513611E+04  0.51100000000E-03 0.  1.
          2   -1    0    0  501    0 -0.00000000000E+00 -0.00000000000E+00 -0.17944169839E+03  0.17944169841E+03  0.25500000000E-02 0.  1.
         11    1    1    2    0    0  0.20266590188E+01  0.18312784144E+03  0.88002983423E+03  0.89888398739E+03  0.51100000000E-03 0.  1.
         22    1    1    2    0    0  0.20229231960E+01  0.20646170743E+02  0.46604433585E+02  0.51013035730E+02  0.00000000000E+00 0. -1.
          2    1    1    2  501    0 -0.40495822149E+01 -0.20377401218E+03 -0.10592460511E+03  0.22969603638E+03  0.25500000000E-02 0.  1.
<mgrwt>
<rscale>  0 0.20381425E+03</rscale>
<asrwt>0</asrwt>
<pdfrwt beam="1">  1       11 0.10000000E+01 0.20893369E+03</pdfrwt>
<pdfrwt beam="2">  1        2 0.27610593E-01 0.20381425E+03</pdfrwt>
<totfact> 0.23679753E+02</totfact>
</mgrwt>
</event>
<event>
 5    1  0.2799727E-003  0.5981696E+02  0.7818608E-02  0.1571000E+00
         11   -1    0    0    0    0  0.00000000000E+00  0.00000000000E+00  0.10004461149E+04  0.10004461149E+04  0.51100000000E-03 0.  1.
          2   -1    0    0  501    0 -0.00000000000E+00 -0.00000000000E+00 -0.15743707032E+02  0.15743707238E+02  0.25500000000E-02 0.  1.
         11    1    1    2    0    0  0.17157658396E+02  0.65621757755E+02  0.95252458892E+02  0.11693430317E+03  0.51100000000E-03 0.  1.
         22    1    1    2    0    0 -0.40421296223E+02 -0.42782841323E+02  0.18687877528E+03  0.19592837812E+03  0.00000000000E+00 0. -1.
          2    1    1    2  501    0  0.23263637827E+02 -0.22838916432E+02  0.70257117369E+03  0.70332714085E+03  0.25500000000E-02 0.  1.
<mgrwt>
<rscale>  0 0.32600812E+02</rscale>
<asrwt>0</asrwt>
<pdfrwt beam="1">  1       11 0.10000000E+01 0.59816957E+02</pdfrwt>
<pdfrwt beam="2">  1        2 0.24231893E-02 0.32600812E+02</pdfrwt>
<totfact> 0.39861468E+03</totfact>
</mgrwt>
</event>
<event>
 5    1  0.2799727E-003  0.3470950E+03  0.7818608E-02  0.1063814E+00
         11   -1    0    0    0    0  0.00000000000E+00  0.00000000000E+00  0.10006954577E+04  0.10006954577E+04  0.51100000000E-03 0. -1.
          2   -1    0    0  501    0 -0.00000000000E+00 -0.00000000000E+00 -0.22502269517E+04  0.22502269517E+04  0.25500000000E-02 0. -1.
         11    1    1    2    0    0 -0.74324856665E+02  0.33765758276E+02 -0.88734129699E+02  0.12057386335E+03  0.51100000000E-03 0. -1.
         22    1    1    2    0    0  0.19393885229E+02  0.30961443097E+03  0.94573044901E+03  0.99531065545E+03  0.00000000000E+00 0. -1.
          2    1    1    2  501    0  0.54930971436E+02 -0.34338018925E+03 -0.21065278133E+04  0.21350378906E+04  0.25500000000E-02 0. -1.
<mgrwt>
<rscale>  0 0.34709502E+03</rscale>
<asrwt>0</asrwt>
<pdfrwt beam="1">  1       11 0.10000000E+01 0.81635271E+02</pdfrwt>
<pdfrwt beam="2">  1        2 0.34642951E+00 0.34709502E+03</pdfrwt>
<totfact> 0.66699967E+00</totfact>
</mgrwt>
</event>
<event>
 5    1  0.2799727E-003  0.3182780E+03  0.7818608E-02  0.1076445E+00
         11   -1    0    0    0    0  0.00000000000E+00  0.00000000000E+00  0.10003379140E+04  0.10003379140E+04  0.51100000000E-03 0. -1.
          2   -1    0    0  501    0 -0.00000000000E+00 -0.00000000000E+00 -0.56950597258E+03  0.56950597259E+03  0.25500000000E-02 0. -1.
         11    1    1    2    0    0 -0.11601121701E+03 -0.34311141126E+03  0.67609249899E+03  0.76699746427E+03  0.51100000000E-03 0. -1.
         22    1    1    2    0    0  0.13768520233E+03  0.26827393096E+02  0.20729498733E+03  0.25029609612E+03  0.00000000000E+00 0.  1.
          2    1    1    2  501    0 -0.21673985316E+02  0.31628401817E+03 -0.45255554489E+03  0.55255032622E+03  0.25500000000E-02 0. -1.
<mgrwt>
<rscale>  0 0.31827803E+03</rscale>
<asrwt>0</asrwt>
<pdfrwt beam="1">  1       11 0.10000000E+01 0.14027446E+03</pdfrwt>
<pdfrwt beam="2">  1        2 0.87645908E-01 0.31827803E+03</pdfrwt>
<totfact> 0.66599395E+01</totfact>
</mgrwt>
</event>
<event>
 5    1  0.2799727E-003  0.2213185E+03  0.7818608E-02  0.1135498E+00
         11   -1    0    0    0    0  0.00000000000E+00  0.00000000000E+00  0.10004439741E+04  0.10004439741E+04  0.51100000000E-03 0. -1.
         -2   -1    0    0    0  501 -0.00000000000E+00 -0.00000000000E+00 -0.12704302848E+03  0.12704302851E+03  0.25500000000E-02 0.  1.
         11    1    1    2    0    0 -0.50272252128E+02 -0.26119675041E+02  0.30168374125E+03  0.30695702711E+03  0.51100000000E-03 0. -1.
         22    1    1    2    0    0 -0.13222067568E+03 -0.92851283707E+02  0.58044074549E+03  0.60250736675E+03  0.00000000000E+00 0. -1.
         -2    1    1    2    0  501  0.18249292781E+03  0.11897095875E+03 -0.87235411654E+01  0.21802260870E+03  0.25500000000E-02 0.  1.
<mgrwt>
<rscale>  0 0.21784802E+03</rscale>
<asrwt>0</asrwt>
<pdfrwt beam="1">  1       11 0.10000000E+01 0.22131849E+03</pdfrwt>
<pdfrwt beam="2">  1       -2 0.19553758E-01 0.21784802E+03</pdfrwt>
<totfact> 0.17440498E+02</totfact>
</mgrwt>
</event>
<event>
 5    1  0.2799727E-003  0.1951794E+03  0.7818608E-02  0.1156803E+00
         11   -1    0    0    0    0  0.00000000000E+00  0.00000000000E+00  0.10002261944E+04  0.10002261944E+04  0.51100000000E-03 0. -1.
          2   -1    0    0  501    0 -0.00000000000E+00 -0.00000000000E+00 -0.66677907590E+02  0.66677907639E+02  0.25500000000E-02 0.  1.
         11    1    1    2    0    0 -0.13008339107E+03  0.11814420468E+03  0.78166313698E+03  0.80117226702E+03  0.51100000000E-03 0. -1.
         22    1    1    2    0    0 -0.85768433703E+01  0.14445380240E+02  0.40606635325E+02  0.43944625211E+02  0.00000000000E+00 0. -1.
          2    1    1    2  501    0  0.13866023444E+03 -0.13258958492E+03  0.11127851454E+03  0.22178720984E+03  0.25500000000E-02 0.  1.
<mgrwt>
<rscale>  0 0.19185062E+03</rscale>
<asrwt>0</asrwt>
<pdfrwt beam="1">  1       11 0.10000000E+01 0.19517936E+03</pdfrwt>
<pdfrwt beam="2">  1        2 0.10260460E-01 0.19185062E+03</pdfrwt>
<totfact> 0.75080291E+02</totfact>
</mgrwt>
</event>
<event>
 5    1  0.2799727E-003  0.3169343E+03  0.7818608E-02  0.1077069E+00
         11   -1    0    0    0    0  0.00000000000E+00  0.00000000000E+00  0.10001535386E+04  0.10001535386E+04  0.51100000000E-03 0. -1.
          2   -1    0    0  501    0 -0.00000000000E+00 -0.00000000000E+00 -0.16545257159E+03  0.16545257161E+03  0.25500000000E-02 0. -1.
         11    1    1    2    0    0 -0.16803334099E+02 -0.54949981973E+02  0.48100770532E+02  0.74936884654E+02  0.51100000000E-03 0. -1.
         22    1    1    2    0    0 -0.28146095323E+03  0.15968616342E+03  0.68671905737E+03  0.75914623278E+03  0.00000000000E+00 0. -1.
          2    1    1    2  501    0  0.29826428732E+03 -0.10473618145E+03  0.99881139126E+02  0.33152299280E+03  0.25500000000E-02 0. -1.
<mgrwt>
<rscale>  0 0.31693431E+03</rscale>
<asrwt>0</asrwt>
<pdfrwt beam="1">  1       11 0.10000000E+01 0.57461777E+02</pdfrwt>
<pdfrwt beam="2">  1        2 0.25458149E-01 0.31693431E+03</pdfrwt>
<totfact> 0.26137340E+02</totfact>
</mgrwt>
</event>
<event>
 5    1  0.2799727E-003  0.1514522E+03  0.7818608E-02  0.1464600E+00
         11   -1    0    0    0    0  0.00000000000E+00  0.00000000000E+00  0.10000964172E+04  0.10000964172E+04  0.51100000000E-03 0. -1.
          2   -1    0    0  501    0 -0.00000000000E+00 -0.00000000000E+00 -0.38360281247E+02  0.38360281332E+02  0.25500000000E-02 0. -1.
         11    1    1    2    0    0 -0.14159352096E+03 -0.26982101677E+02  0.14778414682E+03  0.20643864231E+03  0.51100000000E-03 0. -1.
         22    1    1    2    0    0 -0.10787097552E+02  0.94449016730E+01  0.30629590153E+02  0.33819216936E+02  0.00000000000E+00 0.  1.
          2    1    1    2  501    0  0.15238061851E+03  0.17537200004E+02  0.78332239894E+03  0.79819883925E+03  0.25500000000E-02 0. -1.
<mgrwt>
<rscale>  0 0.46598969E+02</rscale>
<asrwt>0</asrwt>
<pdfrwt beam="1">  1       11 0.10000000E+01 0.15145216E+03</pdfrwt>
<pdfrwt beam="2">  1        2 0.59021506E-02 0.46598969E+02</pdfrwt>
<totfact> 0.13455198E+03</totfact>
</mgrwt>
</event>
<event>
 5    1  0.2799727E-003  0.1936799E+03  0.7818608E-02  0.1160502E+00
         11   -1    0    0    0    0  0.00000000000E+00  0.00000000000E+00  0.10001612688E+04  0.10001612688E+04  0.51100000000E-03 0. -1.
          2   -1    0    0  501    0 -0.00000000000E+00 -0.00000000000E+00 -0.42537549905E+02  0.42537549981E+02  0.25500000000E-02 0. -1.
         11    1    1    2    0    0 -0.96810290464E+02 -0.63435457117E+02  0.13363479624E+03  0.17678955943E+03  0.51100000000E-03 0. -1.
         22    1    1    2    0    0 -0.62943164538E+02 -0.35208912055E+02  0.15299447682E+03  0.16914141831E+03  0.00000000000E+00 0.  1.
          2    1    1    2  501    0  0.15975345500E+03  0.98644369172E+02  0.67099444588E+03  0.69676784108E+03  0.25500000000E-02 0. -1.
<mgrwt>
<rscale>  0 0.18775483E+03</rscale>
<asrwt>0</asrwt>
<pdfrwt beam="1">  1       11 0.10000000E+01 0.19367989E+03</pdfrwt>
<pdfrwt beam="2">  1        2 0.65452936E-02 0.18775483E+03</pdfrwt>
<totfact> 0.13233552E+03</totfact>
</mgrwt>
</event>
<event>
 5    1  0.2799727E-003  0.2352773E+03  0.7818608E-02  0.1124245E+00
         11   -1    0    0    0    0  0.00000000000E+00  0.00000000000E+00  0.10001298139E+04  0.10001298139E+04  0.51100000000E-03 0. -1.
          2   -1    0    0  501    0 -0.00000000000E+00 -0.00000000000E+00 -0.16265709190E+03  0.16265709192E+03  0.25500000000E-02 0. -1.
         11    1    1    2    0    0 -0.86877873928E+02  0.19814051723E+03  0.85045453835E+03  0.87754222198E+03  0.51100000000E-03 0. -1.
         22    1    1    2    0    0 -0.45759536483E+01  0.16633672012E+02  0.42014982866E+02  0.45418907754E+02  0.00000000000E+00 0. -1.
          2    1    1    2  501    0  0.91453827576E+02 -0.21477418924E+03 -0.54996799233E+02  0.23982577608E+03  0.25500000000E-02 0. -1.
<mgrwt>
<rscale>  0 0.23343469E+03</rscale>
<asrwt>0</asrwt>
<pdfrwt beam="1">  1       11 0.10000000E+01 0.23527728E+03</pdfrwt>
<pdfrwt beam="2">  1        2 0.25027416E-01 0.23343469E+03</pdfrwt>
<totfact> 0.26485830E+02</totfact>
</mgrwt>
</event>
<event>
 5    1  0.2799727E-003  0.2648824E+03  0.7818608E-02  0.1107096E+00
         11   -1    0    0    0    0  0.00000000000E+00  0.00000000000E+00  0.10000324544E+04  0.10000324544E+04  0.51100000000E-03 0.  1.
         -2   -1    0    0    0  501 -0.00000000000E+00 -0.00000000000E+00 -0.10305186304E+03  0.10305186308E+03  0.25500000000E-02 0. -1.
         11    1    1    2    0    0 -0.13443142144E+03  0.21415062704E+03  0.72158497460E+03  0.76460262470E+03  0.51100000000E-03 0.  1.
         22    1    1    2    0    0  0.37032196248E+01  0.10684528055E+02  0.47180034852E+02  0.48516272156E+02  0.00000000000E+00 0. -1.
         -2    1    1    2    0  501  0.13072820181E+03 -0.22483515510E+03  0.12821558194E+03  0.28996542065E+03  0.25500000000E-02 0. -1.
<mgrwt>
<rscale>  0 0.26007828E+03</rscale>
<asrwt>0</asrwt>
<pdfrwt beam="1">  1       11 0.10000000E+01 0.26488243E+03</pdfrwt>
<pdfrwt beam="2">  1       -2 0.15854647E-01 0.26007828E+03</pdfrwt>
<totfact> 0.24975722E+02</totfact>
</mgrwt>
</event>
<event>
 5    1  0.2799727E-003  0.4082046E+02  0.7818608E-02  0.1530261E+00
         11   -1    0    0    0    0  0.00000000000E+00  0.00000000000E+00  0.99995867534E+03  0.99995867534E+03  0.51100000000E-03 0. -1.
          2   -1    0    0  501    0 -0.00000000000E+00 -0.00000000000E+00 -0.29550111002E+01  0.29550122004E+01  0.25500000000E-02 0. -1.
         11    1    1    2    0    0 -0.26149167750E+02  0.16057521048E+02  0.12456665834E+03  0.12829058939E+03  0.51100000000E-03 0. -1.
         22    1    1    2    0    0 -0.91102736085E+01 -0.43432260829E+01  0.36753150384E+02  0.38113708310E+02  0.00000000000E+00 0.  1.
          2    1    1    2  501    0  0.35259441359E+02 -0.11714294965E+02  0.83568385551E+03  0.83650938983E+03  0.25500000000E-02 0. -1.
<mgrwt>
<rscale>  0 0.37154447E+02</rscale>
<asrwt>0</asrwt>
<pdfrwt beam="1">  1       11 0.10000000E+01 0.40820456E+02</pdfrwt>
<pdfrwt beam="2">  1        2 0.45459838E-03 0.37154447E+02</pdfrwt>
<totfact> 0.37304296E+04</totfact>
</mgrwt>
</event>
<event>
 5    1  0.2799727E-003  0.2591217E+03  0.7818608E-02  0.1127334E+00
         11   -1    0    0    0    0  0.00000000000E+00  0.00000000000E+00  0.10000868214E+04  0.10000868214E+04  0.51100000000E-03 0. -1.
         -2   -1    0    0    0  501 -0.00000000000E+00 -0.00000000000E+00 -0.68099806513E+02  0.68099806561E+02  0.25500000000E-02 0.  1.
         11    1    1    2    0    0  0.15839010146E+03  0.19291556362E+02  0.35511817663E+03  0.38931800339E+03  0.51100000000E-03 0. -1.
         22    1    1    2    0    0  0.46921277322E+02  0.82175233896E+02  0.32478314300E+03  0.33828754827E+03  0.00000000000E+00 0. -1.
         -2    1    1    2    0  501 -0.20531137878E+03 -0.10146679026E+03  0.25208569524E+03  0.34058107630E+03  0.25500000000E-02 0.  1.
<mgrwt>
<rscale>  0 0.22901588E+03</rscale>
<asrwt>0</asrwt>
<pdfrwt beam="1">  1       11 0.10000000E+01 0.25912166E+03</pdfrwt>
<pdfrwt beam="2">  1       -2 0.10477803E-01 0.22901588E+03</pdfrwt>
<totfact> 0.48806531E+02</totfact>
</mgrwt>
</event>
<event>
 5    1  0.2799727E-003  0.1648841E+03  0.7818608E-02  0.1191064E+00
         11   -1    0    0    0    0  0.00000000000E+00  0.00000000000E+00  0.10002929811E+04  0.10002929811E+04  0.51100000000E-03 0. -1.
         -2   -1    0    0    0  501 -0.00000000000E+00 -0.00000000000E+00 -0.33238065678E+02  0.33238065776E+02  0.25500000000E-02 0.  1.
         11    1    1    2    0    0 -0.11493123207E+03 -0.20776247900E+02  0.18495495971E+03  0.21874454897E+03  0.51100000000E-03 0. -1.
         22    1    1    2    0    0 -0.42989698490E+02  0.21086279771E+02  0.66359080699E+02  0.81830758044E+02  0.00000000000E+00 0.  1.
         -2    1    1    2    0  501  0.15792093056E+03 -0.31003187098E+00  0.71574087497E+03  0.73295573982E+03  0.25500000000E-02 0.  1.
<mgrwt>
<rscale>  0 0.15792123E+03</rscale>
<asrwt>0</asrwt>
<pdfrwt beam="1">  1       11 0.10000000E+01 0.16488411E+03</pdfrwt>
<pdfrwt beam="2">  1       -2 0.51150466E-02 0.15792123E+03</pdfrwt>
<totfact> 0.14460924E+03</totfact>
</mgrwt>
</event>
<event>
 5    1  0.2799727E-003  0.1693462E+03  0.7818608E-02  0.1178531E+00
         11   -1    0    0    0    0  0.00000000000E+00  0.00000000000E+00  0.99996054807E+03  0.99996054807E+03  0.51100000000E-03 0. -1.
          2   -1    0    0  501    0 -0.00000000000E+00 -0.00000000000E+00 -0.41825524927E+02  0.41825525005E+02  0.25500000000E-02 0. -1.
         11    1    1    2    0    0 -0.13692807319E+03  0.93780622566E+02  0.23885965810E+03  0.29085741982E+03  0.51100000000E-03 0. -1.
         22    1    1    2    0    0  0.11319765397E+02  0.34426500402E+02  0.12058037322E+03  0.12590848829E+03  0.00000000000E+00 0.  1.
          2    1    1    2  501    0  0.12560830779E+03 -0.12820712297E+03  0.59869499183E+03  0.62502016496E+03  0.25500000000E-02 0. -1.
<mgrwt>
<rscale>  0 0.16934625E+03</rscale>
<asrwt>0</asrwt>
<pdfrwt beam="1">  1       11 0.10000000E+01 0.36239771E+02</pdfrwt>
<pdfrwt beam="2">  1        2 0.64344421E-02 0.16934625E+03</pdfrwt>
<totfact> 0.13433883E+03</totfact>
</mgrwt>
</event>
<event>
 5    1  0.2799727E-003  0.2023365E+03  0.7818608E-02  0.1147783E+00
         11   -1    0    0    0    0  0.00000000000E+00  0.00000000000E+00  0.10002274708E+04  0.10002274708E+04  0.51100000000E-03 0.  1.
          2   -1    0    0  501    0 -0.00000000000E+00 -0.00000000000E+00 -0.72677144771E+02  0.72677144816E+02  0.25500000000E-02 0.  1.
         11    1    1    2    0    0  0.10055223464E+03 -0.54440598543E+02  0.18023910507E+03  0.21344944520E+03  0.51100000000E-03 0.  1.
         22    1    1    2    0    0  0.11364385175E+03  0.13917107358E+03  0.44100304225E+03  0.47620079382E+03  0.00000000000E+00 0.  1.
          2    1    1    2  501    0 -0.21419608639E+03 -0.84730475037E+02  0.30630817871E+03  0.38325437659E+03  0.25500000000E-02 0.  1.
<mgrwt>
<rscale>  0 0.20233655E+03</rscale>
<asrwt>0</asrwt>
<pdfrwt beam="1">  1       11 0.10000000E+01 0.11434397E+03</pdfrwt>
<pdfrwt beam="2">  1        2 0.11183642E-01 0.20233655E+03</pdfrwt>
<totfact> 0.67703590E+02</totfact>
</mgrwt>
</event>
<event>
 5    1  0.4485533E-003  0.3013609E+03  0.7818608E-02  0.1086625E+00
         11   -1    0    0    0    0  0.00000000000E+00  0.00000000000E+00  0.99988776258E+03  0.99988776258E+03  0.51100000000E-03 0. -1.
          2   -1    0    0  501    0 -0.00000000000E+00 -0.00000000000E+00 -0.12337564563E+04  0.12337564563E+04  0.25500000000E-02 0. -1.
         11    1    1    2    0    0  0.11704892578E+03 -0.25861402490E+03  0.89084914018E+03  0.93498334502E+03  0.51100000000E-03 0. -1.
         22    1    1    2    0    0  0.15342255851E+02 -0.75227104314E+01  0.67663459583E+02  0.69787676201E+02  0.00000000000E+00 0.  1.
          2    1    1    2  501    0 -0.13239118164E+03  0.26613673533E+03 -0.11923812935E+04  0.12288731977E+04  0.25500000000E-02 0. -1.
<mgrwt>
<rscale>  0 0.29724769E+03</rscale>
<asrwt>0</asrwt>
<pdfrwt beam="1">  1       11 0.10000000E+01 0.30136092E+03</pdfrwt>
<pdfrwt beam="2">  1        2 0.18978738E+00 0.29724769E+03</pdfrwt>
<totfact> 0.23818240E+01</totfact>
</mgrwt>
</event>
<event>
 5    1  0.2799727E-003  0.1196036E+03  0.7818608E-02  0.1247809E+00
         11   -1    0    0    0    0  0.00000000000E+00  0.00000000000E+00  0.99989190717E+03  0.99989190717E+03  0.51100000000E-03 0.  1.
          2   -1    0    0  501    0 -0.00000000000E+00 -0.00000000000E+00 -0.18545182662E+02  0.18545182838E+02  0.25500000000E-02 0.  1.
         11    1    1    2    0    0  0.41984952829E+02  0.25385736205E+02  0.84733683326E+02  0.97913068366E+02  0.51100000000E-03 0.  1.
         22    1    1    2    0    0  0.44755405358E+02  0.53412405336E+02  0.15816842395E+03  0.17283860011E+03  0.00000000000E+00 0.  1.
          2    1    1    2  501    0 -0.86740358187E+02 -0.78798141541E+02  0.73844461723E+03  0.74768542153E+03  0.25500000000E-02 0.  1.
<mgrwt>
<rscale>  0 0.11718804E+03</rscale>
<asrwt>0</asrwt>
<pdfrwt beam="1">  1       11 0.10000000E+01 0.11960365E+03</pdfrwt>
<pdfrwt beam="2">  1        2 0.28527966E-02 0.11718804E+03</pdfrwt>
<totfact> 0.38010750E+03</totfact>
</mgrwt>
</event>
<event>
 5    1  0.2799727E-003  0.7630353E+02  0.7818608E-02  0.1459230E+00
         11   -1    0    0    0    0  0.00000000000E+00  0.00000000000E+00  0.10000682244E+04  0.10000682244E+04  0.51100000000E-03 0.  1.
          2   -1    0    0  501    0 -0.00000000000E+00 -0.00000000000E+00 -0.12239491736E+02  0.12239492001E+02  0.25500000000E-02 0.  1.
         11    1    1    2    0    0 -0.20307658183E+02 -0.94393478720E+02  0.32766092250E+03  0.34159070529E+03  0.51100000000E-03 0.  1.
         22    1    1    2    0    0 -0.18372321549E+02  0.66799098518E+02  0.33427662211E+03  0.34138031849E+03  0.00000000000E+00 0.  1.
          2    1    1    2  501    0  0.38679979731E+02  0.27594380202E+02  0.32589118803E+03  0.32933669260E+03  0.25500000000E-02 0.  1.
<mgrwt>
<rscale>  0 0.47514110E+02</rscale>
<asrwt>0</asrwt>
<pdfrwt beam="1">  1       11 0.10000000E+01 0.76303531E+02</pdfrwt>
<pdfrwt beam="2">  1        2 0.18831272E-02 0.47514110E+02</pdfrwt>
<totfact> 0.58791364E+03</totfact>
</mgrwt>
</event>
<event>
 5    1  0.2799727E-003  0.1048137E+03  0.7818608E-02  0.1276355E+00
         11   -1    0    0    0    0  0.00000000000E+00  0.00000000000E+00  0.10002546380E+04  0.10002546380E+04  0.51100000000E-03 0. -1.
         -2   -1    0    0    0  501 -0.00000000000E+00 -0.00000000000E+00 -0.11409703297E+02  0.11409703582E+02  0.25500000000E-02 0.  1.
         11    1    1    2    0    0  0.77111457826E+02  0.51670422866E+02  0.35279608570E+03  0.36480280648E+03  0.51100000000E-03 0. -1.
         22    1    1    2    0    0  0.46906936518E+01  0.90882279928E+01  0.20220252889E+02  0.22659592270E+02  0.00000000000E+00 0. -1.
         -2    1    1    2    0  501 -0.81802151478E+02 -0.60758650859E+02  0.61582859611E+03  0.62420194283E+03  0.25500000000E-02 0.  1.
<mgrwt>
<rscale>  0 0.10189802E+03</rscale>
<asrwt>0</asrwt>
<pdfrwt beam="1">  1       11 0.10000000E+01 0.10481375E+03</pdfrwt>
<pdfrwt beam="2">  1       -2 0.17557859E-02 0.10189802E+03</pdfrwt>
<totfact> 0.66313490E+03</totfact>
</mgrwt>
</event>
<event>
 5    1  0.2799727E-003  0.9616120E+02  0.7818608E-02  0.1288582E+00
         11   -1    0    0    0    0  0.00000000000E+00  0.00000000000E+00  0.99996377194E+03  0.99996377194E+03  0.51100000000E-03 0. -1.
          2   -1    0    0  501    0 -0.00000000000E+00 -0.00000000000E+00 -0.22236928642E+02  0.22236928789E+02  0.25500000000E-02 0. -1.
         11    1    1    2    0    0 -0.70214027200E+02 -0.71337871595E+02  0.27896614873E+03  0.29638018436E+03  0.51100000000E-03 0. -1.
         22    1    1    2    0    0 -0.41064377499E+02  0.74270851608E+02  0.28808663001E+03  0.30032706986E+03  0.00000000000E+00 0. -1.
          2    1    1    2  501    0  0.11127840470E+03 -0.29329800134E+01  0.41067406455E+03  0.42549344651E+03  0.25500000000E-02 0. -1.
<mgrwt>
<rscale>  0 0.96161204E+02</rscale>
<asrwt>0</asrwt>
<pdfrwt beam="1">  1       11 0.10000000E+01 0.84867205E+02</pdfrwt>
<pdfrwt beam="2">  1        2 0.34209419E-02 0.96161204E+02</pdfrwt>
<totfact> 0.29223042E+03</totfact>
</mgrwt>
</event>
<event>
 5    1  0.2799727E-003  0.1087242E+03  0.7818608E-02  0.1484720E+00
         11   -1    0    0    0    0  0.00000000000E+00  0.00000000000E+00  0.10002078913E+04  0.10002078913E+04  0.51100000000E-03 0.  1.
          2   -1    0    0  501    0 -0.00000000000E+00 -0.00000000000E+00 -0.46147125672E+03  0.46147125673E+03  0.25500000000E-02 0. -1.
         11    1    1    2    0    0  0.81847482862E+02  0.33324836743E+02  0.32679306811E+03  0.33853103929E+03  0.51100000000E-03 0.  1.
         22    1    1    2    0    0 -0.11824275465E+03 -0.56928876399E+02  0.66003844278E+03  0.67295838797E+03  0.00000000000E+00 0.  1.
          2    1    1    2  501    0  0.36395271789E+02  0.23604039656E+02 -0.44809487632E+03  0.45018972077E+03  0.25500000000E-02 0. -1.
<mgrwt>
<rscale>  0 0.43379333E+02</rscale>
<asrwt>0</asrwt>
<pdfrwt beam="1">  1       11 0.10000000E+01 0.10872421E+03</pdfrwt>
<pdfrwt beam="2">  1        2 0.71010335E-01 0.43379333E+02</pdfrwt>
<totfact> 0.86453369E+01</totfact>
</mgrwt>
</event>
<event>
 5    1  0.2799727E-003  0.1588469E+03  0.7818608E-02  0.1578784E+00
         11   -1    0    0    0    0  0.00000000000E+00  0.00000000000E+00  0.10005267800E+04  0.10005267800E+04  0.51100000000E-03 0.  1.
          2   -1    0    0  501    0 -0.00000000000E+00 -0.00000000000E+00 -0.45771367712E+02  0.45771367783E+02  0.25500000000E-02 0. -1.
         11    1    1    2    0    0  0.12503416034E+03  0.96457070517E+02  0.71002380725E+03  0.72737288550E+03  0.51100000000E-03 0.  1.
         22    1    1    2    0    0 -0.14670025909E+03 -0.73150567081E+02  0.23325738530E+03  0.28509819235E+03  0.00000000000E+00 0. -1.
          2    1    1    2  501    0  0.21666098745E+02 -0.23306503436E+02  0.11474219782E+02  0.33827069979E+02  0.25500000000E-02 0. -1.
<mgrwt>
<rscale>  0 0.31821580E+02</rscale>
<asrwt>0</asrwt>
<pdfrwt beam="1">  1       11 0.10000000E+01 0.15884694E+03</pdfrwt>
<pdfrwt beam="2">  1        2 0.70454581E-02 0.31821580E+02</pdfrwt>
<totfact> 0.10414558E+03</totfact>
</mgrwt>
</event>
<event>
 5    1  0.2799727E-003  0.8671186E+02  0.7818608E-02  0.1357332E+00
         11   -1    0    0    0    0  0.00000000000E+00  0.00000000000E+00  0.99988165127E+03  0.99988165127E+03  0.51100000000E-03 0. -1.
          2   -1    0    0  501    0 -0.00000000000E+00 -0.00000000000E+00 -0.21834640907E+02  0.21834641056E+02  0.25500000000E-02 0. -1.
         11    1    1    2    0    0  0.10791642300E+03  0.45713681980E+02  0.53953099032E+03  0.55211356131E+03  0.51100000000E-03 0. -1.
         22    1    1    2    0    0 -0.72621050526E+02  0.15682297585E+02  0.34150400322E+03  0.34949211100E+03  0.00000000000E+00 0. -1.
          2    1    1    2  501    0 -0.35295372471E+02 -0.61395979565E+02  0.97012016828E+02  0.12011062001E+03  0.25500000000E-02 0. -1.
<mgrwt>
<rscale>  0 0.70818286E+02</rscale>
<asrwt>0</asrwt>
<pdfrwt beam="1">  1       11 0.10000000E+01 0.86711859E+02</pdfrwt>
<pdfrwt beam="2">  1        2 0.33587779E-02 0.70818286E+02</pdfrwt>
<totfact> 0.28947361E+03</totfact>
</mgrwt>
</event>
<event>
 5    1  0.2799727E-003  0.1505219E+03  0.7818608E-02  0.1217193E+00
         11   -1    0    0    0    0  0.00000000000E+00  0.00000000000E+00  0.10000955895E+04  0.10000955895E+04  0.51100000000E-03 0. -1.
         -2   -1    0    0    0  501 -0.00000000000E+00 -0.00000000000E+00 -0.21422345375E+02  0.21422345527E+02  0.25500000000E-02 0.  1.
         11    1    1    2    0    0 -0.56451709054E+02 -0.90028149629E+02  0.43749669458E+03  0.45021685991E+03  0.51100000000E-03 0. -1.
         22    1    1    2    0    0  0.16187407887E+02 -0.41095811209E+02  0.16816840900E+03  0.17387211294E+03  0.00000000000E+00 0. -1.
         -2    1    1    2    0  501  0.40264301168E+02  0.13112396084E+03  0.37300814054E+03  0.39742896217E+03  0.25500000000E-02 0.  1.
<mgrwt>
<rscale>  0 0.13716671E+03</rscale>
<asrwt>0</asrwt>
<pdfrwt beam="1">  1       11 0.10000000E+01 0.15052185E+03</pdfrwt>
<pdfrwt beam="2">  1       -2 0.32960604E-02 0.13716671E+03</pdfrwt>
<totfact> 0.27485053E+03</totfact>
</mgrwt>
</event>
<event>
 5    1  0.2799727E-003  0.1510182E+03  0.7818608E-02  0.1204906E+00
         11   -1    0    0    0    0  0.00000000000E+00  0.00000000000E+00  0.10002220916E+04  0.10002220916E+04  0.51100000000E-03 0.  1.
          2   -1    0    0  501    0 -0.00000000000E+00 -0.00000000000E+00 -0.34879603632E+02  0.34879603725E+02  0.25500000000E-02 0.  1.
         11    1    1    2    0    0  0.60313622590E+02 -0.72482158774E+02  0.51390010099E+03  0.52247938735E+03  0.51100000000E-03 0.  1.
         22    1    1    2    0    0  0.52751939530E+02 -0.20594884862E+02  0.28651985383E+03  0.29206256700E+03  0.00000000000E+00 0.  1.
          2    1    1    2  501    0 -0.11306556212E+03  0.93077043635E+02  0.16492253315E+03  0.22055974097E+03  0.25500000000E-02 0.  1.
<mgrwt>
<rscale>  0 0.14644848E+03</rscale>
<asrwt>0</asrwt>
<pdfrwt beam="1">  1       11 0.10000000E+01 0.15101818E+03</pdfrwt>
<pdfrwt beam="2">  1        2 0.53672845E-02 0.14644848E+03</pdfrwt>
<totfact> 0.16810064E+03</totfact>
</mgrwt>
</event>
<event>
 5    1  0.2799727E-003  0.1442078E+03  0.7818608E-02  0.1217390E+00
         11   -1    0    0    0    0  0.00000000000E+00  0.00000000000E+00  0.10005449229E+04  0.10005449229E+04  0.51100000000E-03 0. -1.
         -2   -1    0    0    0  501 -0.00000000000E+00 -0.00000000000E+00 -0.37327010825E+02  0.37327010912E+02  0.25500000000E-02 0.  1.
         11    1    1    2    0    0 -0.66646460720E+02 -0.75349066898E+02  0.60644826124E+03  0.61473467949E+03  0.51100000000E-03 0. -1.
         22    1    1    2    0    0 -0.42913310345E+02 -0.69450785632E+01  0.23759161304E+03  0.24153583773E+03  0.00000000000E+00 0. -1.
         -2    1    1    2    0  501  0.10955977107E+03  0.82294145461E+02  0.11917803783E+03  0.18160141663E+03  0.25500000000E-02 0.  1.
<mgrwt>
<rscale>  0 0.13702434E+03</rscale>
<asrwt>0</asrwt>
<pdfrwt beam="1">  1       11 0.10000000E+01 0.14420780E+03</pdfrwt>
<pdfrwt beam="2">  1       -2 0.57457462E-02 0.13702434E+03</pdfrwt>
<totfact> 0.11989843E+03</totfact>
</mgrwt>
</event>
<event>
 5    1  0.2799727E-003  0.7284451E+02  0.7818608E-02  0.1450280E+00
         11   -1    0    0    0    0  0.00000000000E+00  0.00000000000E+00  0.10002503303E+04  0.10002503303E+04  0.51100000000E-03 0. -1.
          2   -1    0    0  501    0 -0.00000000000E+00 -0.00000000000E+00 -0.10499486467E+02  0.10499486776E+02  0.25500000000E-02 0. -1.
         11    1    1    2    0    0  0.12510796649E+02 -0.57662289526E+02  0.21428755317E+03  0.22226249146E+03  0.51100000000E-03 0. -1.
         22    1    1    2    0    0 -0.22568824418E+02 -0.24198916045E+02  0.62044244906E+02  0.70316624630E+02  0.00000000000E+00 0. -1.
          2    1    1    2  501    0  0.10058027769E+02  0.81861205571E+02  0.71341904579E+03  0.71817070101E+03  0.25500000000E-02 0. -1.
<mgrwt>
<rscale>  0 0.49095967E+02</rscale>
<asrwt>0</asrwt>
<pdfrwt beam="1">  1       11 0.10000000E+01 0.72844507E+02</pdfrwt>
<pdfrwt beam="2">  1        2 0.16157099E-02 0.49095967E+02</pdfrwt>
<totfact> 0.72396964E+03</totfact>
</mgrwt>
</event>
<event>
 5    1  0.2799727E-003  0.4238947E+03  0.7818608E-02  0.1041013E+00
         11   -1    0    0    0    0  0.00000000000E+00  0.00000000000E+00  0.10009601483E+04  0.10009601483E+04  0.51100000000E-03 0. -1.
          2   -1    0    0  501    0 -0.00000000000E+00 -0.00000000000E+00 -0.14446405567E+04  0.14446405567E+04  0.25500000000E-02 0. -1.
         11    1    1    2    0    0 -0.19136996864E+03 -0.15863698606E+02  0.54928959859E+03  0.58188760509E+03  0.51100000000E-03 0. -1.
         22    1    1    2    0    0 -0.20510282589E+03 -0.80822547223E+02  0.37564271212E+03  0.43555355641E+03  0.00000000000E+00 0. -1.
          2    1    1    2  501    0  0.39647279453E+03  0.96686245830E+02 -0.13686127191E+04  0.14281595435E+04  0.25500000000E-02 0. -1.
<mgrwt>
<rscale>  0 0.40809179E+03</rscale>
<asrwt>0</asrwt>
<pdfrwt beam="1">  1       11 0.10000000E+01 0.42389472E+03</pdfrwt>
<pdfrwt beam="2">  1        2 0.22246578E+00 0.40809179E+03</pdfrwt>
<totfact> 0.17773221E+01</totfact>
</mgrwt>
</event>
<event>
 5    1  0.2799727E-003  0.1732703E+03  0.7818608E-02  0.1183972E+00
         11   -1    0    0    0    0  0.00000000000E+00  0.00000000000E+00  0.10000483972E+04  0.10000483972E+04  0.51100000000E-03 0. -1.
          2   -1    0    0  501    0 -0.00000000000E+00 -0.00000000000E+00 -0.41928310030E+02  0.41928310108E+02  0.25500000000E-02 0. -1.
         11    1    1    2    0    0 -0.83775480586E+02 -0.23466681655E+02  0.30429759324E+03  0.31649019187E+03  0.51100000000E-03 0. -1.
         22    1    1    2    0    0 -0.62813651793E+02 -0.50643577287E+02  0.47843843607E+03  0.48519445986E+03  0.00000000000E+00 0. -1.
          2    1    1    2  501    0  0.14658913238E+03  0.74110258942E+02  0.17538405783E+03  0.24029205554E+03  0.25500000000E-02 0. -1.
<mgrwt>
<rscale>  0 0.16425804E+03</rscale>
<asrwt>0</asrwt>
<pdfrwt beam="1">  1       11 0.10000000E+01 0.17327028E+03</pdfrwt>
<pdfrwt beam="2">  1        2 0.64508212E-02 0.16425804E+03</pdfrwt>
<totfact> 0.13362081E+03</totfact>
</mgrwt>
</event>
<event>
 5    1  0.2799727E-003  0.3006062E+03  0.7818608E-02  0.1086808E+00
         11   -1    0    0    0    0  0.00000000000E+00  0.00000000000E+00  0.10005076982E+04  0.10005076982E+04  0.51100000000E-03 0. -1.
         -2   -1    0    0    0  501 -0.00000000000E+00 -0.00000000000E+00 -0.30572438290E+03  0.30572438291E+03  0.25500000000E-02 0. -1.
         11    1    1    2    0    0  0.13160214226E+03 -0.25710730463E+03  0.84776919119E+03  0.89562039474E+03  0.51100000000E-03 0. -1.
         22    1    1    2    0    0  0.10054438942E+02 -0.38024219653E+01  0.49886719953E+02  0.51031705663E+02  0.00000000000E+00 0.  1.
         -2    1    1    2    0  501 -0.14165658120E+03  0.26090972660E+03 -0.20287259579E+03  0.35957998076E+03  0.25500000000E-02 0. -1.
<mgrwt>
<rscale>  0 0.29688461E+03</rscale>
<asrwt>0</asrwt>
<pdfrwt beam="1">  1       11 0.10000000E+01 0.30060616E+03</pdfrwt>
<pdfrwt beam="2">  1       -2 0.47058398E-01 0.29688461E+03</pdfrwt>
<totfact> 0.35077527E+01</totfact>
</mgrwt>
</event>
<event>
 5    1  0.2799727E-003  0.1224155E+03  0.7818608E-02  0.1245431E+00
         11   -1    0    0    0    0  0.00000000000E+00  0.00000000000E+00  0.10003845689E+04  0.10003845689E+04  0.51100000000E-03 0.  1.
          2   -1    0    0  501    0 -0.00000000000E+00 -0.00000000000E+00 -0.15185660094E+02  0.15185660308E+02  0.25500000000E-02 0.  1.
         11    1    1    2    0    0  0.85721753857E+02 -0.62823330990E+02  0.53314426810E+03  0.54363388471E+03  0.51100000000E-03 0.  1.
         22    1    1    2    0    0  0.15977676365E+02  0.18130872807E+01  0.73532534993E+02  0.75270227381E+02  0.00000000000E+00 0.  1.
          2    1    1    2  501    0 -0.10169943022E+03  0.61010243709E+02  0.37852210568E+03  0.39666611708E+03  0.25500000000E-02 0.  1.
<mgrwt>
<rscale>  0 0.11859605E+03</rscale>
<asrwt>0</asrwt>
<pdfrwt beam="1">  1       11 0.10000000E+01 0.12241551E+03</pdfrwt>
<pdfrwt beam="2">  1        2 0.23371538E-02 0.11859605E+03</pdfrwt>
<totfact> 0.49785560E+03</totfact>
</mgrwt>
</event>
<event>
 5    1  0.2799727E-003  0.2139700E+02  0.7818608E-02  0.1858246E+00
         11   -1    0    0    0    0  0.00000000000E+00  0.00000000000E+00  0.10002058532E+04  0.10002058532E+04  0.51100000000E-03 0. -1.
          2   -1    0    0  501    0 -0.00000000000E+00 -0.00000000000E+00 -0.20414181188E+01  0.20414197114E+01  0.25500000000E-02 0. -1.
         11    1    1    2    0    0  0.15971875917E+02  0.26968494353E+02  0.18544911421E+03  0.18807917075E+03  0.51100000000E-03 0. -1.
         22    1    1    2    0    0 -0.53826382574E+01 -0.95692550804E+01  0.50457067786E+02  0.51637768416E+02  0.00000000000E+00 0. -1.
          2    1    1    2  501    0 -0.10589237660E+02 -0.17399239272E+02  0.76225825312E+03  0.76253033378E+03  0.25500000000E-02 0. -1.
<mgrwt>
<rscale>  0 0.15327180E+02</rscale>
<asrwt>0</asrwt>
<pdfrwt beam="1">  1       11 0.10000000E+01 0.21397003E+02</pdfrwt>
<pdfrwt beam="2">  1        2 0.31412909E-03 0.15327180E+02</pdfrwt>
<totfact> 0.47431826E+04</totfact>
</mgrwt>
</event>
<event>
 5    1  0.2799727E-003  0.1592134E+03  0.7818608E-02  0.1198179E+00
         11   -1    0    0    0    0  0.00000000000E+00  0.00000000000E+00  0.10003023847E+04  0.10003023847E+04  0.51100000000E-03 0.  1.
          2   -1    0    0  501    0 -0.00000000000E+00 -0.00000000000E+00 -0.44038764069E+02  0.44038764142E+02  0.25500000000E-02 0.  1.
         11    1    1    2    0    0  0.95864953948E+02  0.96752779795E+02  0.79604126948E+03  0.80760936876E+03  0.51100000000E-03 0.  1.
         22    1    1    2    0    0  0.15453853037E+02  0.65733230261E+01  0.38804707237E+02  0.42282803278E+02  0.00000000000E+00 0.  1.
          2    1    1    2  501    0 -0.11131880699E+03 -0.10332610282E+03  0.12141764387E+03  0.19444897676E+03  0.25500000000E-02 0.  1.
<mgrwt>
<rscale>  0 0.15188206E+03</rscale>
<asrwt>0</asrwt>
<pdfrwt beam="1">  1       11 0.10000000E+01 0.15921338E+03</pdfrwt>
<pdfrwt beam="2">  1        2 0.67772430E-02 0.15188206E+03</pdfrwt>
<totfact> 0.12474341E+03</totfact>
</mgrwt>
</event>
<event>
 5    1  0.2799727E-003  0.1529380E+03  0.7818608E-02  0.1204611E+00
         11   -1    0    0    0    0  0.00000000000E+00  0.00000000000E+00  0.10000254965E+04  0.10000254965E+04  0.51100000000E-03 0.  1.
          2   -1    0    0  501    0 -0.00000000000E+00 -0.00000000000E+00 -0.23011830190E+02  0.23011830331E+02  0.25500000000E-02 0.  1.
         11    1    1    2    0    0  0.75946955435E+02  0.10316172984E+03  0.52096352637E+03  0.53648231877E+03  0.51100000000E-03 0.  1.
         22    1    1    2    0    0 -0.84176011118E+00  0.22833155333E+02  0.57938847901E+02  0.62281390789E+02  0.00000000000E+00 0. -1.
          2    1    1    2  501    0 -0.75105195324E+02 -0.12599488518E+03  0.39811129199E+03  0.42427361722E+03  0.25500000000E-02 0.  1.
<mgrwt>
<rscale>  0 0.14668163E+03</rscale>
<asrwt>0</asrwt>
<pdfrwt beam="1">  1       11 0.10000000E+01 0.15293796E+03</pdfrwt>
<pdfrwt beam="2">  1        2 0.35403717E-02 0.14668163E+03</pdfrwt>
<totfact> 0.29115892E+03</totfact>
</mgrwt>
</event>
<event>
 5    1  0.2799727E-003  0.4374978E+03  0.7818608E-02  0.1036690E+00
         11   -1    0    0    0    0  0.00000000000E+00  0.00000000000E+00  0.10001542977E+04  0.10001542977E+04  0.51100000000E-03 0.  1.
          2   -1    0    0  501    0 -0.00000000000E+00 -0.00000000000E+00 -0.46995938721E+03  0.46995938721E+03  0.25500000000E-02 0.  1.
         11    1    1    2    0    0 -0.20453863620E+03  0.18372294517E+03  0.45695945032E+03  0.53329364661E+03  0.51100000000E-03 0.  1.
         22    1    1    2    0    0 -0.15068179227E+03  0.42536537892E+02  0.38316072454E+03  0.41391605478E+03  0.00000000000E+00 0. -1.
          2    1    1    2  501    0  0.35522042847E+03 -0.22625948306E+03 -0.30992526437E+03  0.52290398352E+03  0.25500000000E-02 0.  1.
<mgrwt>
<rscale>  0 0.42115900E+03</rscale>
<asrwt>0</asrwt>
<pdfrwt beam="1">  1       11 0.10000000E+01 0.43749778E+03</pdfrwt>
<pdfrwt beam="2">  1        2 0.72312598E-01 0.42115900E+03</pdfrwt>
<totfact> 0.82575607E+01</totfact>
</mgrwt>
</event>
<event>
 5    1  0.2799727E-003  0.1281731E+03  0.7818608E-02  0.1230192E+00
         11   -1    0    0    0    0  0.00000000000E+00  0.00000000000E+00  0.10001769054E+04  0.10001769054E+04  0.51100000000E-03 0.  1.
          2   -1    0    0  501    0 -0.00000000000E+00 -0.00000000000E+00 -0.25809976850E+02  0.25809976976E+02  0.25500000000E-02 0.  1.
         11    1    1    2    0    0  0.62431251215E+01 -0.12678069927E+03  0.19349739403E+03  0.23141642944E+03  0.51100000000E-03 0.  1.
         22    1    1    2    0    0 -0.12806010299E+02 -0.58279742963E+01  0.82755495304E+02  0.83943023457E+02  0.00000000000E+00 0. -1.
          2    1    1    2  501    0  0.65628851775E+01  0.13260867357E+03  0.69811403924E+03  0.71062742950E+03  0.25500000000E-02 0.  1.
<mgrwt>
<rscale>  0 0.12817308E+03</rscale>
<asrwt>0</asrwt>
<pdfrwt beam="1">  1       11 0.10000000E+01 0.14069797E+02</pdfrwt>
<pdfrwt beam="2">  1        2 0.39714680E-02 0.12817308E+03</pdfrwt>
<totfact> 0.24680283E+03</totfact>
</mgrwt>
</event>
<event>
 5    1  0.2799727E-003  0.1320531E+03  0.7818608E-02  0.1393410E+00
         11   -1    0    0    0    0  0.00000000000E+00  0.00000000000E+00  0.99989345579E+03  0.99989345579E+03  0.51100000000E-03 0. -1.
          2   -1    0    0  501    0 -0.00000000000E+00 -0.00000000000E+00 -0.28091301873E+02  0.28091301989E+02  0.25500000000E-02 0. -1.
         11    1    1    2    0    0 -0.10014515559E+03  0.63814596668E+02  0.16341181725E+03  0.20200192315E+03  0.51100000000E-03 0. -1.
         22    1    1    2    0    0 -0.26076735426E+02 -0.10838480129E+02  0.79917080808E+02  0.84759710871E+02  0.00000000000E+00 0. -1.
          2    1    1    2  501    0  0.12622189102E+03 -0.52976116540E+02  0.72847325586E+03  0.74122312376E+03  0.25500000000E-02 0. -1.
<mgrwt>
<rscale>  0 0.61066431E+02</rscale>
<asrwt>0</asrwt>
<pdfrwt beam="1">  1       11 0.10000000E+01 0.13205305E+03</pdfrwt>
<pdfrwt beam="2">  1        2 0.43212782E-02 0.61066431E+02</pdfrwt>
<totfact> 0.20533619E+03</totfact>
</mgrwt>
</event>
<event>
 5    1  0.2799727E-003  0.1853714E+03  0.7818608E-02  0.1165484E+00
         11   -1    0    0    0    0  0.00000000000E+00  0.00000000000E+00  0.10000493894E+04  0.10000493894E+04  0.51100000000E-03 0.  1.
          2   -1    0    0  501    0 -0.00000000000E+00 -0.00000000000E+00 -0.33989842345E+02  0.33989842441E+02  0.25500000000E-02 0.  1.
         11    1    1    2    0    0 -0.14254681680E+03  0.93728778670E+02  0.39231331529E+03  0.42780184231E+03  0.51100000000E-03 0.  1.
         22    1    1    2    0    0 -0.10393000388E+02  0.56963714300E+01  0.57538228743E+02  0.58746156226E+02  0.00000000000E+00 0.  1.
          2    1    1    2  501    0  0.15293981719E+03 -0.99425150100E+02  0.51620800306E+03  0.54749123334E+03  0.25500000000E-02 0.  1.
<mgrwt>
<rscale>  0 0.18241696E+03</rscale>
<asrwt>0</asrwt>
<pdfrwt beam="1">  1       11 0.10000000E+01 0.18537137E+03</pdfrwt>
<pdfrwt beam="2">  1        2 0.52294646E-02 0.18241696E+03</pdfrwt>
<totfact> 0.17686024E+03</totfact>
</mgrwt>
</event>
<event>
 5    1  0.2799727E-003  0.1107507E+03  0.7818608E-02  0.1586592E+00
         11   -1    0    0    0    0  0.00000000000E+00  0.00000000000E+00  0.10001602035E+04  0.10001602035E+04  0.51100000000E-03 0. -1.
          2   -1    0    0  501    0 -0.00000000000E+00 -0.00000000000E+00 -0.18347268605E+02  0.18347268782E+02  0.25500000000E-02 0. -1.
         11    1    1    2    0    0 -0.30834028459E+02 -0.96714965794E+02  0.21684472136E+03  0.23942881009E+03  0.51100000000E-03 0. -1.
         22    1    1    2    0    0  0.61854160494E+02  0.98408724317E+02  0.62316370833E+03  0.63391105178E+03  0.00000000000E+00 0. -1.
          2    1    1    2  501    0 -0.31020132035E+02 -0.16937585238E+01  0.14180450524E+03  0.14516761044E+03  0.25500000000E-02 0. -1.
<mgrwt>
<rscale>  0 0.31066339E+02</rscale>
<asrwt>0</asrwt>
<pdfrwt beam="1">  1       11 0.10000000E+01 0.11075073E+03</pdfrwt>
<pdfrwt beam="2">  1        2 0.28231088E-02 0.31066339E+02</pdfrwt>
<totfact> 0.32508831E+03</totfact>
</mgrwt>
</event>
<event>
 5    1  0.2799727E-003  0.1342391E+03  0.7818608E-02  0.1224911E+00
         11   -1    0    0    0    0  0.00000000000E+00  0.00000000000E+00  0.10002521693E+04  0.10002521693E+04  0.51100000000E-03 0. -1.
          2   -1    0    0  501    0 -0.00000000000E+00 -0.00000000000E+00 -0.23436342335E+02  0.23436342474E+02  0.25500000000E-02 0. -1.
         11    1    1    2    0    0 -0.10056315767E+03 -0.26584868955E+02  0.59863829824E+03  0.60760802830E+03  0.51100000000E-03 0. -1.
         22    1    1    2    0    0 -0.29448802111E+02  0.53771319004E+01  0.14689450124E+03  0.14991377518E+03  0.00000000000E+00 0.  1.
          2    1    1    2  501    0  0.13001195978E+03  0.21207737055E+02  0.23128302752E+03  0.26616670833E+03  0.25500000000E-02 0. -1.
<mgrwt>
<rscale>  0 0.13173032E+03</rscale>
<asrwt>0</asrwt>
<pdfrwt beam="1">  1       11 0.10000000E+01 0.13423907E+03</pdfrwt>
<pdfrwt beam="2">  1        2 0.36065003E-02 0.13173032E+03</pdfrwt>
<totfact> 0.28120356E+03</totfact>
</mgrwt>
</event>
<event>
 5    1  0.2799727E-003  0.1377782E+03  0.7818608E-02  0.1221527E+00
         11   -1    0    0    0    0  0.00000000000E+00  0.00000000000E+00  0.10000777141E+04  0.10000777141E+04  0.51100000000E-03 0. -1.
         -2   -1    0    0    0  501 -0.00000000000E+00 -0.00000000000E+00 -0.23118089653E+02  0.23118089793E+02  0.25500000000E-02 0.  1.
         11    1    1    2    0    0  0.85484630391E+02 -0.72063720978E+02  0.63548318694E+03  0.64524389404E+03  0.51100000000E-03 0. -1.
         22    1    1    2    0    0  0.23190490607E+02 -0.64646852637E+01  0.87566081652E+02  0.90815250184E+02  0.00000000000E+00 0.  1.
         -2    1    1    2    0  501 -0.10867512100E+03  0.78528406241E+02  0.25391035590E+03  0.28713665971E+03  0.25500000000E-02 0.  1.
<mgrwt>
<rscale>  0 0.13407831E+03</rscale>
<asrwt>0</asrwt>
<pdfrwt beam="1">  1       11 0.10000000E+01 0.13777815E+03</pdfrwt>
<pdfrwt beam="2">  1       -2 0.35569055E-02 0.13407831E+03</pdfrwt>
<totfact> 0.24504959E+03</totfact>
</mgrwt>
</event>
<event>
 5    1  0.2799727E-003  0.1995028E+03  0.7818608E-02  0.1150159E+00
         11   -1    0    0    0    0  0.00000000000E+00  0.00000000000E+00  0.99991649239E+03  0.99991649239E+03  0.51100000000E-03 0.  1.
          2   -1    0    0  501    0 -0.00000000000E+00 -0.00000000000E+00 -0.40707837855E+03  0.40707837856E+03  0.25500000000E-02 0.  1.
         11    1    1    2    0    0 -0.51150239402E+02 -0.20073363769E+02  0.14198462713E+03  0.15224625206E+03  0.51100000000E-03 0.  1.
         22    1    1    2    0    0 -0.52930862699E+02  0.19060125331E+03  0.81539815970E+03  0.83904986314E+03  0.00000000000E+00 0.  1.
          2    1    1    2  501    0  0.10408110210E+03 -0.17052788954E+03 -0.36454467299E+03  0.41569875576E+03  0.25500000000E-02 0.  1.
<mgrwt>
<rscale>  0 0.19950279E+03</rscale>
<asrwt>0</asrwt>
<pdfrwt beam="1">  1       11 0.10000000E+01 0.54948038E+02</pdfrwt>
<pdfrwt beam="2">  1        2 0.62622211E-01 0.19950279E+03</pdfrwt>
<totfact> 0.97648769E+01</totfact>
</mgrwt>
</event>
<event>
 5    1  0.2799727E-003  0.3587646E+02  0.7818608E-02  0.1551388E+00
         11   -1    0    0    0    0  0.00000000000E+00  0.00000000000E+00  0.10003333167E+04  0.10003333167E+04  0.51100000000E-03 0. -1.
          2   -1    0    0  501    0 -0.00000000000E+00 -0.00000000000E+00 -0.47185891699E+01  0.47185898589E+01  0.25500000000E-02 0. -1.
         11    1    1    2    0    0 -0.21875482034E+02  0.22328815737E+01  0.37730407628E+02  0.43670426313E+02  0.51100000000E-03 0. -1.
         22    1    1    2    0    0 -0.11466725981E+02  0.73359016343E+01  0.31105164152E+02  0.33953387084E+02  0.00000000000E+00 0.  1.
          2    1    1    2  501    0  0.33342208015E+02 -0.95687832080E+01  0.92677915573E+03  0.92742809314E+03  0.25500000000E-02 0. -1.
<mgrwt>
<rscale>  0 0.34688102E+02</rscale>
<asrwt>0</asrwt>
<pdfrwt beam="1">  1       11 0.10000000E+01 0.35876461E+02</pdfrwt>
<pdfrwt beam="2">  1        2 0.72617879E-03 0.34688102E+02</pdfrwt>
<totfact> 0.19654937E+04</totfact>
</mgrwt>
</event>
<event>
 5    1  0.2799727E-003  0.2410216E+03  0.7818608E-02  0.1119114E+00
         11   -1    0    0    0    0  0.00000000000E+00  0.00000000000E+00  0.10001087611E+04  0.10001087611E+04  0.51100000000E-03 0.  1.
          2   -1    0    0  501    0 -0.00000000000E+00 -0.00000000000E+00 -0.10695921501E+03  0.10695921504E+03  0.25500000000E-02 0.  1.
         11    1    1    2    0    0 -0.46834906441E+02  0.42316034408E+02  0.62163544114E+02  0.88591542748E+02  0.51100000000E-03 0.  1.
         22    1    1    2    0    0  0.18427707229E+03  0.15747295199E+03  0.12649461884E+03  0.27341663917E+03  0.00000000000E+00 0.  1.
          2    1    1    2  501    0 -0.13744216585E+03 -0.19978898640E+03  0.70449138312E+03  0.74505979420E+03  0.25500000000E-02 0.  1.
<mgrwt>
<rscale>  0 0.24102160E+03</rscale>
<asrwt>0</asrwt>
<pdfrwt beam="1">  1       11 0.10000000E+01 0.63120197E+02</pdfrwt>
<pdfrwt beam="2">  1        2 0.16457053E-01 0.24102160E+03</pdfrwt>
<totfact> 0.42875143E+02</totfact>
</mgrwt>
</event>
<event>
 5    1  0.2799727E-003  0.2242982E+03  0.7818608E-02  0.1149694E+00
         11   -1    0    0    0    0  0.00000000000E+00  0.00000000000E+00  0.10003017402E+04  0.10003017402E+04  0.51100000000E-03 0. -1.
          2   -1    0    0  501    0 -0.00000000000E+00 -0.00000000000E+00 -0.45122654299E+02  0.45122654371E+02  0.25500000000E-02 0. -1.
         11    1    1    2    0    0  0.22430887974E+02  0.10486474458E+03  0.28764554674E+03  0.30698488554E+03  0.51100000000E-03 0. -1.
         22    1    1    2    0    0  0.10439403507E+03  0.49850765670E+02  0.24380370033E+03  0.26985821775E+03  0.00000000000E+00 0. -1.
          2    1    1    2  501    0 -0.12682492304E+03 -0.15471551025E+03  0.42372983887E+03  0.46858129131E+03  0.25500000000E-02 0. -1.
<mgrwt>
<rscale>  0 0.20005362E+03</rscale>
<asrwt>0</asrwt>
<pdfrwt beam="1">  1       11 0.10000000E+01 0.22429816E+03</pdfrwt>
<pdfrwt beam="2">  1        2 0.69440413E-02 0.20005362E+03</pdfrwt>
<totfact> 0.12313629E+03</totfact>
</mgrwt>
</event>
<event>
 5    1  0.2799727E-003  0.5850409E+03  0.7818608E-02  0.9944992E-01
         11   -1    0    0    0    0  0.00000000000E+00  0.00000000000E+00  0.10004874406E+04  0.10004874406E+04  0.51100000000E-03 0. -1.
         -2   -1    0    0    0  501 -0.00000000000E+00 -0.00000000000E+00 -0.40172157478E+03  0.40172157478E+03  0.25500000000E-02 0.  1.
         11    1    1    2    0    0  0.38411233048E+03  0.42557761233E+03  0.55610267730E+03  0.79869191447E+03  0.51100000000E-03 0. -1.
         22    1    1    2    0    0  0.35808840798E+00  0.10410882173E+02  0.19086916716E+02  0.21744541491E+02  0.00000000000E+00 0.  1.
         -2    1    1    2    0  501 -0.38447041889E+03 -0.43598849450E+03  0.23576271842E+02  0.58177255946E+03  0.25500000000E-02 0.  1.
<mgrwt>
<rscale>  0 0.58129465E+03</rscale>
<asrwt>0</asrwt>
<pdfrwt beam="1">  1       11 0.10000000E+01 0.58504095E+03</pdfrwt>
<pdfrwt beam="2">  1       -2 0.61833443E-01 0.58129465E+03</pdfrwt>
<totfact> 0.19911881E+01</totfact>
</mgrwt>
</event>
<event>
 5    1  0.2799727E-003  0.1644116E+03  0.7818608E-02  0.1183804E+00
         11   -1    0    0    0    0  0.00000000000E+00  0.00000000000E+00  0.99982497585E+03  0.99982497585E+03  0.51100000000E-03 0. -1.
         -2   -1    0    0    0  501 -0.00000000000E+00 -0.00000000000E+00 -0.61189567608E+03  0.61189567608E+03  0.25500000000E-02 0.  1.
         11    1    1    2    0    0 -0.71767059981E+02  0.13967477880E+03  0.93993655183E+03  0.95296394276E+03  0.51100000000E-03 0. -1.
         22    1    1    2    0    0 -0.17767627496E+02 -0.16655772517E+01  0.40275509559E+02  0.44052007952E+02  0.00000000000E+00 0.  1.
         -2    1    1    2    0  501  0.89534687477E+02 -0.13800920155E+03 -0.59228276162E+03  0.61470470121E+03  0.25500000000E-02 0.  1.
<mgrwt>
<rscale>  0 0.16441162E+03</rscale>
<asrwt>0</asrwt>
<pdfrwt beam="1">  1       11 0.10000000E+01 0.17845524E+02</pdfrwt>
<pdfrwt beam="2">  1       -2 0.94121317E-01 0.16441162E+03</pdfrwt>
<totfact> 0.81293375E+00</totfact>
</mgrwt>
</event>
<event>
 5    1  0.2799727E-003  0.3059178E+03  0.7818608E-02  0.1082319E+00
         11   -1    0    0    0    0  0.00000000000E+00  0.00000000000E+00  0.10001980221E+04  0.10001980221E+04  0.51100000000E-03 0. -1.
          2   -1    0    0  501    0 -0.00000000000E+00 -0.00000000000E+00 -0.21864018059E+03  0.21864018060E+03  0.25500000000E-02 0. -1.
         11    1    1    2    0    0  0.41443080195E+01  0.80451472591E+02 -0.43267024762E+02  0.91442059049E+02  0.51100000000E-03 0. -1.
         22    1    1    2    0    0 -0.14681224308E+03  0.20583900766E+03  0.76009670095E+03  0.80104339869E+03  0.00000000000E+00 0. -1.
          2    1    1    2  501    0  0.14266793506E+03 -0.28629048025E+03  0.64728165369E+02  0.32635274501E+03  0.25500000000E-02 0. -1.
<mgrwt>
<rscale>  0 0.30591784E+03</rscale>
<asrwt>0</asrwt>
<pdfrwt beam="1">  1       11 0.10000000E+01 0.80558185E+02</pdfrwt>
<pdfrwt beam="2">  1        2 0.33643611E-01 0.30591784E+03</pdfrwt>
<totfact> 0.19161790E+02</totfact>
</mgrwt>
</event>
<event>
 5    1  0.2799727E-003  0.2286412E+03  0.7818608E-02  0.1127600E+00
         11   -1    0    0    0    0  0.00000000000E+00  0.00000000000E+00  0.10007866240E+04  0.10007866240E+04  0.51100000000E-03 0. -1.
          2   -1    0    0  501    0 -0.00000000000E+00 -0.00000000000E+00 -0.91311663659E+02  0.91311663694E+02  0.25500000000E-02 0. -1.
         11    1    1    2    0    0  0.14525423995E+03 -0.14777853201E+03  0.55746260149E+03  0.59472837566E+03  0.51100000000E-03 0. -1.
         22    1    1    2    0    0  0.63577886439E+02  0.31581158349E+02  0.20463371187E+03  0.21659749130E+03  0.00000000000E+00 0. -1.
          2    1    1    2  501    0 -0.20883212639E+03  0.11619737366E+03  0.14737864701E+03  0.28077242076E+03  0.25500000000E-02 0. -1.
<mgrwt>
<rscale>  0 0.22864125E+03</rscale>
<asrwt>0</asrwt>
<pdfrwt beam="1">  1       11 0.10000000E+01 0.70989557E+02</pdfrwt>
<pdfrwt beam="2">  1        2 0.14058998E-01 0.22864125E+03</pdfrwt>
<totfact> 0.51586609E+02</totfact>
</mgrwt>
</event>
<event>
 5    1  0.2799727E-003  0.1826902E+03  0.7818608E-02  0.1165225E+00
         11   -1    0    0    0    0  0.00000000000E+00  0.00000000000E+00  0.10001409054E+04  0.10001409054E+04  0.51100000000E-03 0. -1.
          2   -1    0    0  501    0 -0.00000000000E+00 -0.00000000000E+00 -0.59227615648E+02  0.59227615702E+02  0.25500000000E-02 0. -1.
         11    1    1    2    0    0  0.12217069670E+03  0.98366367656E+02  0.46232726761E+03  0.48820909843E+03  0.51100000000E-03 0. -1.
         22    1    1    2    0    0 -0.35776132735E+02  0.87150585590E+02  0.23398979648E+03  0.25224270277E+03  0.00000000000E+00 0. -1.
          2    1    1    2  501    0 -0.86394563964E+02 -0.18551695325E+03  0.24459622570E+03  0.31891671994E+03  0.25500000000E-02 0. -1.
<mgrwt>
<rscale>  0 0.18269022E+03</rscale>
<asrwt>0</asrwt>
<pdfrwt beam="1">  1       11 0.10000000E+01 0.94208048E+02</pdfrwt>
<pdfrwt beam="2">  1        2 0.91132245E-02 0.18269022E+03</pdfrwt>
<totfact> 0.86767201E+02</totfact>
</mgrwt>
</event>
<event>
 5    1  0.2799727E-003  0.1841448E+03  0.7818608E-02  0.1169956E+00
         11   -1    0    0    0    0  0.00000000000E+00  0.00000000000E+00  0.10001834782E+04  0.10001834782E+04  0.51100000000E-03 0.  1.
          2   -1    0    0  501    0 -0.00000000000E+00 -0.00000000000E+00 -0.91834967008E+02  0.91834967044E+02  0.25500000000E-02 0.  1.
         11    1    1    2    0    0 -0.13274181075E+03  0.99678629191E+02  0.79350469661E+03  0.81068237984E+03  0.51100000000E-03 0.  1.
         22    1    1    2    0    0 -0.17370086680E+02 -0.44053567325E+01  0.10146990624E+03  0.10304013272E+03  0.00000000000E+00 0. -1.
          2    1    1    2  501    0  0.15011189743E+03 -0.95273272458E+02  0.13373908385E+02  0.17829593273E+03  0.25500000000E-02 0.  1.
<mgrwt>
<rscale>  0 0.17779364E+03</rscale>
<asrwt>0</asrwt>
<pdfrwt beam="1">  1       11 0.10000000E+01 0.18414475E+03</pdfrwt>
<pdfrwt beam="2">  1        2 0.14131048E-01 0.17779364E+03</pdfrwt>
<totfact> 0.50760379E+02</totfact>
</mgrwt>
</event>
<event>
 5    1  0.2799727E-003  0.2166766E+03  0.7818608E-02  0.1137984E+00
         11   -1    0    0    0    0  0.00000000000E+00  0.00000000000E+00  0.10001197231E+04  0.10001197231E+04  0.51100000000E-03 0. -1.
          2   -1    0    0  501    0 -0.00000000000E+00 -0.00000000000E+00 -0.51261656943E+02  0.51261657007E+02  0.25500000000E-02 0. -1.
         11    1    1    2    0    0 -0.16705656901E+03 -0.10130300510E+03  0.54847650085E+03  0.58223420381E+03  0.51100000000E-03 0. -1.
         22    1    1    2    0    0 -0.17637290610E+02 -0.79482282068E+01  0.88396247953E+02  0.90488369440E+02  0.00000000000E+00 0.  1.
          2    1    1    2  501    0  0.18469385962E+03  0.10925123331E+03  0.31198531733E+03  0.37865880684E+03  0.25500000000E-02 0. -1.
<mgrwt>
<rscale>  0 0.21458717E+03</rscale>
<asrwt>0</asrwt>
<pdfrwt beam="1">  1       11 0.10000000E+01 0.21667663E+03</pdfrwt>
<pdfrwt beam="2">  1        2 0.78873527E-02 0.21458717E+03</pdfrwt>
<totfact> 0.10506324E+03</totfact>
</mgrwt>
</event>
<event>
 5    1  0.2799727E-003  0.1825470E+03  0.7818608E-02  0.1710548E+00
         11   -1    0    0    0    0  0.00000000000E+00  0.00000000000E+00  0.10001933942E+04  0.10001933942E+04  0.51100000000E-03 0. -1.
          2   -1    0    0  501    0 -0.00000000000E+00 -0.00000000000E+00 -0.13600130498E+03  0.13600130501E+03  0.25500000000E-02 0. -1.
         11    1    1    2    0    0  0.17110336339E+03 -0.60408374548E+02  0.89029493718E+03  0.90859815531E+03  0.51100000000E-03 0. -1.
         22    1    1    2    0    0 -0.17725642174E+03  0.81392671434E+02 -0.20116824609E+01  0.19506063898E+03  0.00000000000E+00 0. -1.
          2    1    1    2  501    0  0.61530583528E+01 -0.20984296887E+02 -0.24091165536E+02  0.32535904879E+02  0.25500000000E-02 0. -1.
<mgrwt>
<rscale>  0 0.21867804E+02</rscale>
<asrwt>0</asrwt>
<pdfrwt beam="1">  1       11 0.10000000E+01 0.18254702E+03</pdfrwt>
<pdfrwt beam="2">  1        2 0.20927324E-01 0.21867804E+02</pdfrwt>
<totfact> 0.29477398E+02</totfact>
</mgrwt>
</event>
<event>
 5    1  0.2799727E-003  0.1732395E+03  0.7818608E-02  0.1174511E+00
         11   -1    0    0    0    0  0.00000000000E+00  0.00000000000E+00  0.10002508953E+04  0.10002508953E+04  0.51100000000E-03 0. -1.
          2   -1    0    0  501    0 -0.00000000000E+00 -0.00000000000E+00 -0.85870225806E+02  0.85870225843E+02  0.25500000000E-02 0. -1.
         11    1    1    2    0    0  0.17055896317E+03  0.43467026164E+02  0.84552364610E+03  0.86364922185E+03  0.51100000000E-03 0. -1.
         22    1    1    2    0    0 -0.67753300706E+01  0.12167001453E+02  0.45917391635E+02  0.47982787294E+02  0.00000000000E+00 0. -1.
          2    1    1    2  501    0 -0.16378363310E+03 -0.55634027617E+02  0.22939631773E+02  0.17448911202E+03  0.25500000000E-02 0. -1.
<mgrwt>
<rscale>  0 0.17323953E+03</rscale>
<asrwt>0</asrwt>
<pdfrwt beam="1">  1       11 0.10000000E+01 0.13926271E+02</pdfrwt>
<pdfrwt beam="2">  1        2 0.13214118E-01 0.17323953E+03</pdfrwt>
<totfact> 0.54926946E+02</totfact>
</mgrwt>
</event>
<event>
 5    1  0.2799727E-003  0.2084491E+03  0.7818608E-02  0.1151872E+00
         11   -1    0    0    0    0  0.00000000000E+00  0.00000000000E+00  0.10001987904E+04  0.10001987904E+04  0.51100000000E-03 0. -1.
         -2   -1    0    0    0  501 -0.00000000000E+00 -0.00000000000E+00 -0.70176952672E+02  0.70176952718E+02  0.25500000000E-02 0. -1.
         11    1    1    2    0    0 -0.34173218755E+02 -0.28035823088E+02  0.10285891519E+03  0.11195433306E+03  0.51100000000E-03 0. -1.
         22    1    1    2    0    0 -0.62571944398E+02 -0.14413736412E+03  0.71341328107E+03  0.73051306461E+03  0.00000000000E+00 0. -1.
         -2    1    1    2    0  501  0.96745163153E+02  0.17217318721E+03  0.11374964148E+03  0.22790834546E+03  0.25500000000E-02 0. -1.
<mgrwt>
<rscale>  0 0.19749236E+03</rscale>
<asrwt>0</asrwt>
<pdfrwt beam="1">  1       11 0.10000000E+01 0.20844908E+03</pdfrwt>
<pdfrwt beam="2">  1       -2 0.10798600E-01 0.19749236E+03</pdfrwt>
<totfact> 0.46160809E+02</totfact>
</mgrwt>
</event>
<event>
 5    1  0.2799727E-003  0.2010871E+02  0.7818608E-02  0.1880584E+00
         11   -1    0    0    0    0  0.00000000000E+00  0.00000000000E+00  0.10004180266E+04  0.10004180266E+04  0.51100000000E-03 0.  1.
          2   -1    0    0  501    0 -0.00000000000E+00 -0.00000000000E+00 -0.56755285192E+01  0.56755290921E+01  0.25500000000E-02 0.  1.
         11    1    1    2    0    0  0.15249713135E+02 -0.42757243289E+01  0.43485792234E+02  0.46280122037E+02  0.51100000000E-03 0.  1.
         22    1    1    2    0    0  0.46922255458E+01  0.95023785280E+01  0.25728139194E+01  0.10905574250E+02  0.00000000000E+00 0.  1.
          2    1    1    2  501    0 -0.19941938681E+02 -0.52266541991E+01  0.94868389189E+03  0.94890785936E+03  0.25500000000E-02 0.  1.
<mgrwt>
<rscale>  0 0.14598180E+02</rscale>
<asrwt>0</asrwt>
<pdfrwt beam="1">  1       11 0.10000000E+01 0.20108710E+02</pdfrwt>
<pdfrwt beam="2">  1        2 0.87352326E-03 0.14598180E+02</pdfrwt>
<totfact> 0.12545719E+04</totfact>
</mgrwt>
</event>
<event>
 5    1  0.2799727E-003  0.1627975E+03  0.7818608E-02  0.1185574E+00
         11   -1    0    0    0    0  0.00000000000E+00  0.00000000000E+00  0.10001104491E+04  0.10001104491E+04  0.51100000000E-03 0. -1.
          2   -1    0    0  501    0 -0.00000000000E+00 -0.00000000000E+00 -0.40351955299E+02  0.40351955380E+02  0.25500000000E-02 0. -1.
         11    1    1    2    0    0 -0.49902544976E+01 -0.63727852689E+02  0.18393329016E+03  0.19472441315E+03  0.51100000000E-03 0. -1.
         22    1    1    2    0    0  0.13855060335E+03 -0.52675389908E+02  0.46396241504E+03  0.48706476875E+03  0.00000000000E+00 0. -1.
          2    1    1    2  501    0 -0.13356034885E+03  0.11640324260E+03  0.31186278861E+03  0.35867322258E+03  0.25500000000E-02 0. -1.
<mgrwt>
<rscale>  0 0.16279752E+03</rscale>
<asrwt>0</asrwt>
<pdfrwt beam="1">  1       11 0.10000000E+01 0.63922937E+02</pdfrwt>
<pdfrwt beam="2">  1        2 0.62086786E-02 0.16279752E+03</pdfrwt>
<totfact> 0.14028823E+03</totfact>
</mgrwt>
</event>
<event>
 5    1  0.2799727E-003  0.2536046E+02  0.7818608E-02  0.1655878E+00
         11   -1    0    0    0    0  0.00000000000E+00  0.00000000000E+00  0.10002095453E+04  0.10002095453E+04  0.51100000000E-03 0. -1.
          2   -1    0    0  501    0 -0.00000000000E+00 -0.00000000000E+00 -0.35579139579E+01  0.35579148718E+01  0.25500000000E-02 0. -1.
         11    1    1    2    0    0 -0.12772655528E+02  0.13563137069E+02  0.39841009329E+02  0.43981876278E+02  0.51100000000E-03 0. -1.
         22    1    1    2    0    0 -0.20993558424E+02  0.92591987570E+01  0.13279205936E+03  0.13475976138E+03  0.00000000000E+00 0. -1.
          2    1    1    2  501    0  0.33766213952E+02 -0.22822335826E+02  0.82401856262E+03  0.82502582248E+03  0.25500000000E-02 0. -1.
<mgrwt>
<rscale>  0 0.25360460E+02</rscale>
<asrwt>0</asrwt>
<pdfrwt beam="1">  1       11 0.10000000E+01 0.18630614E+02</pdfrwt>
<pdfrwt beam="2">  1        2 0.54748613E-03 0.25360460E+02</pdfrwt>
<totfact> 0.26542231E+04</totfact>
</mgrwt>
</event>
<event>
 5    1  0.2799727E-003  0.1176133E+04  0.7818608E-02  0.9184426E-01
         11   -1    0    0    0    0  0.00000000000E+00  0.00000000000E+00  0.10007271454E+04  0.10007271454E+04  0.51100000000E-03 0.  1.
          2   -1    0    0  501    0 -0.00000000000E+00 -0.00000000000E+00 -0.13415320556E+04  0.13415320556E+04  0.25500000000E-02 0.  1.
         11    1    1    2    0    0 -0.64070040193E+03  0.28889286171E+03 -0.22009168925E+03  0.73647569020E+03  0.51100000000E-03 0.  1.
         22    1    1    2    0    0 -0.23821816577E+03  0.40781787972E+03 -0.10638366741E+03  0.48412891073E+03  0.00000000000E+00 0. -1.
          2    1    1    2  501    0  0.87891856770E+03 -0.69671074143E+03 -0.14329553546E+02  0.11216546001E+04  0.25500000000E-02 0.  1.
<mgrwt>
<rscale>  0 0.11215631E+04</rscale>
<asrwt>0</asrwt>
<pdfrwt beam="1">  1       11 0.10000000E+01 0.11761333E+04</pdfrwt>
<pdfrwt beam="2">  1        2 0.20653962E+00 0.11215631E+04</pdfrwt>
<totfact> 0.19052137E+01</totfact>
</mgrwt>
</event>
<event>
 5    1  0.2799727E-003  0.1549557E+03  0.7818608E-02  0.1194512E+00
         11   -1    0    0    0    0  0.00000000000E+00  0.00000000000E+00  0.10001107893E+04  0.10001107893E+04  0.51100000000E-03 0.  1.
          2   -1    0    0  501    0 -0.00000000000E+00 -0.00000000000E+00 -0.36850917474E+02  0.36850917562E+02  0.25500000000E-02 0.  1.
         11    1    1    2    0    0  0.96162810576E+01 -0.25150293982E+02  0.64956042903E+01  0.27698429994E+02  0.51100000000E-03 0.  1.
         22    1    1    2    0    0  0.42070711329E+02 -0.13864985069E+03  0.35400627509E+03  0.38251035104E+03  0.00000000000E+00 0.  1.
          2    1    1    2  501    0 -0.51686992387E+02  0.16380014467E+03  0.60275799245E+03  0.62675292584E+03  0.25500000000E-02 0.  1.
<mgrwt>
<rscale>  0 0.15495569E+03</rscale>
<asrwt>0</asrwt>
<pdfrwt beam="1">  1       11 0.10000000E+01 0.26926026E+02</pdfrwt>
<pdfrwt beam="2">  1        2 0.56699999E-02 0.15495569E+03</pdfrwt>
<totfact> 0.15720979E+03</totfact>
</mgrwt>
</event>
<event>
 5    1  0.2799727E-003  0.1386657E+03  0.7818608E-02  0.1220022E+00
         11   -1    0    0    0    0  0.00000000000E+00  0.00000000000E+00  0.10002966505E+04  0.10002966505E+04  0.51100000000E-03 0.  1.
          2   -1    0    0  501    0 -0.00000000000E+00 -0.00000000000E+00 -0.18780680699E+02  0.18780680873E+02  0.25500000000E-02 0.  1.
         11    1    1    2    0    0 -0.11614814032E+03 -0.26375462569E+02  0.43152839606E+03  0.44766372662E+03  0.51100000000E-03 0.  1.
         22    1    1    2    0    0 -0.17612046698E+02  0.71134472127E+01  0.90152087075E+02  0.92131341704E+02  0.00000000000E+00 0. -1.
          2    1    1    2  501    0  0.13376018702E+03  0.19262015357E+02  0.45983548667E+03  0.47928226305E+03  0.25500000000E-02 0.  1.
<mgrwt>
<rscale>  0 0.13513998E+03</rscale>
<asrwt>0</asrwt>
<pdfrwt beam="1">  1       11 0.10000000E+01 0.13866575E+03</pdfrwt>
<pdfrwt beam="2">  1        2 0.28901925E-02 0.13513998E+03</pdfrwt>
<totfact> 0.37918340E+03</totfact>
</mgrwt>
</event>
<event>
 5    1  0.2943767E-003  0.4531488E+03  0.7818608E-02  0.1027709E+00
         11   -1    0    0    0    0  0.00000000000E+00  0.00000000000E+00  0.10008186858E+04  0.10008186858E+04  0.51100000000E-03 0. -1.
          2   -1    0    0  501    0 -0.00000000000E+00 -0.00000000000E+00 -0.13204250625E+04  0.13204250625E+04  0.25500000000E-02 0. -1.
         11    1    1    2    0    0 -0.31835935397E+03  0.28785960447E+03  0.84535852576E+03  0.94807534891E+03  0.51100000000E-03 0. -1.
         22    1    1    2    0    0 -0.22121315837E+02  0.64379139358E+01  0.62068575723E+02  0.66206551356E+02  0.00000000000E+00 0. -1.
          2    1    1    2  501    0  0.34048066981E+03 -0.29429751840E+03 -0.12270334781E+04  0.13069618481E+04  0.25500000000E-02 0. -1.
<mgrwt>
<rscale>  0 0.45004235E+03</rscale>
<asrwt>0</asrwt>
<pdfrwt beam="1">  1       11 0.10000000E+01 0.45314879E+03</pdfrwt>
<pdfrwt beam="2">  1        2 0.20330862E+00 0.45004235E+03</pdfrwt>
<totfact> 0.20711293E+01</totfact>
</mgrwt>
</event>
<event>
 5    1  0.2799727E-003  0.6082795E+02  0.7818608E-02  0.1414767E+00
         11   -1    0    0    0    0  0.00000000000E+00  0.00000000000E+00  0.10002165896E+04  0.10002165896E+04  0.51100000000E-03 0. -1.
         -2   -1    0    0    0  501 -0.00000000000E+00 -0.00000000000E+00 -0.39157280656E+01  0.39157288959E+01  0.25500000000E-02 0. -1.
         11    1    1    2    0    0 -0.31347669307E+02 -0.17442923976E+02  0.19688704116E+03  0.20012855605E+03  0.51100000000E-03 0. -1.
         22    1    1    2    0    0 -0.23867036181E+02  0.72719823732E+01  0.14014509564E+03  0.14234874420E+03  0.00000000000E+00 0. -1.
         -2    1    1    2    0  501  0.55214705488E+02  0.10170941603E+02  0.65926872470E+03  0.66165501821E+03  0.25500000000E-02 0. -1.
<mgrwt>
<rscale>  0 0.56143671E+02</rscale>
<asrwt>0</asrwt>
<pdfrwt beam="1">  1       11 0.10000000E+01 0.60827954E+02</pdfrwt>
<pdfrwt beam="2">  1       -2 0.60255023E-03 0.56143671E+02</pdfrwt>
<totfact> 0.27076093E+04</totfact>
</mgrwt>
</event>
<event>
 5    1  0.2799727E-003  0.1537513E+03  0.7818608E-02  0.1195938E+00
         11   -1    0    0    0    0  0.00000000000E+00  0.00000000000E+00  0.10003781777E+04  0.10003781777E+04  0.51100000000E-03 0. -1.
          2   -1    0    0  501    0 -0.00000000000E+00 -0.00000000000E+00 -0.27870510281E+02  0.27870510398E+02  0.25500000000E-02 0. -1.
         11    1    1    2    0    0  0.16844846985E+02 -0.14627997225E+03  0.45993607774E+03  0.48293143898E+03  0.51100000000E-03 0. -1.
         22    1    1    2    0    0 -0.20445508963E+02 -0.14210179875E+02  0.86308501367E+02  0.89828199677E+02  0.00000000000E+00 0.  1.
          2    1    1    2  501    0  0.36006619780E+01  0.16049015212E+03  0.42626308831E+03  0.45548904943E+03  0.25500000000E-02 0. -1.
<mgrwt>
<rscale>  0 0.15375134E+03</rscale>
<asrwt>0</asrwt>
<pdfrwt beam="1">  1       11 0.10000000E+01 0.24898756E+02</pdfrwt>
<pdfrwt beam="2">  1        2 0.42893922E-02 0.15375134E+03</pdfrwt>
<totfact> 0.22652695E+03</totfact>
</mgrwt>
</event>
<event>
 5    1  0.2799727E-003  0.1078714E+03  0.7818608E-02  0.1403201E+00
         11   -1    0    0    0    0  0.00000000000E+00  0.00000000000E+00  0.10008569955E+04  0.10008569955E+04  0.51100000000E-03 0. -1.
          2   -1    0    0  501    0 -0.00000000000E+00 -0.00000000000E+00 -0.19584836576E+02  0.19584836742E+02  0.25500000000E-02 0. -1.
         11    1    1    2    0    0 -0.83631803028E+02  0.49483426651E+02  0.17536214155E+03  0.20048633040E+03  0.51100000000E-03 0. -1.
         22    1    1    2    0    0  0.54225397324E+01  0.31521995490E+02  0.96436436280E+02  0.10160229515E+03  0.00000000000E+00 0.  1.
          2    1    1    2  501    0  0.78209263296E+02 -0.81005422141E+02  0.70947358110E+03  0.71835320670E+03  0.25500000000E-02 0. -1.
<mgrwt>
<rscale>  0 0.58738952E+02</rscale>
<asrwt>0</asrwt>
<pdfrwt beam="1">  1       11 0.10000000E+01 0.10787139E+03</pdfrwt>
<pdfrwt beam="2">  1        2 0.30156339E-02 0.58738952E+02</pdfrwt>
<totfact> 0.32594909E+03</totfact>
</mgrwt>
</event>
<event>
 5    1  0.2799727E-003  0.1255685E+03  0.7818608E-02  0.1451063E+00
         11   -1    0    0    0    0  0.00000000000E+00  0.00000000000E+00  0.10002528431E+04  0.10002528431E+04  0.51100000000E-03 0. -1.
          2   -1    0    0  501    0 -0.00000000000E+00 -0.00000000000E+00 -0.20052424714E+02  0.20052424876E+02  0.25500000000E-02 0. -1.
         11    1    1    2    0    0  0.13256166525E+02  0.12553558357E+03  0.31688172786E+03  0.34109960150E+03  0.51100000000E-03 0. -1.
         22    1    1    2    0    0 -0.19085547686E+02  0.46259649649E-01  0.61377363559E+02  0.64276286669E+02  0.00000000000E+00 0. -1.
          2    1    1    2  501    0  0.58293811608E+01 -0.12558184322E+03  0.60194132692E+03  0.61492937976E+03  0.25500000000E-02 0. -1.
<mgrwt>
<rscale>  0 0.48954569E+02</rscale>
<asrwt>0</asrwt>
<pdfrwt beam="1">  1       11 0.10000000E+01 0.12556852E+03</pdfrwt>
<pdfrwt beam="2">  1        2 0.30857684E-02 0.48954569E+02</pdfrwt>
<totfact> 0.30904719E+03</totfact>
</mgrwt>
</event>
<event>
 5    1  0.2799727E-003  0.2029367E+03  0.7818608E-02  0.1149563E+00
         11   -1    0    0    0    0  0.00000000000E+00  0.00000000000E+00  0.99990045314E+03  0.99990045314E+03  0.51100000000E-03 0. -1.
         -2   -1    0    0    0  501 -0.00000000000E+00 -0.00000000000E+00 -0.89061844376E+02  0.89061844412E+02  0.25500000000E-02 0.  1.
         11    1    1    2    0    0 -0.92553680379E+02  0.14616634710E+03  0.70770625614E+03  0.72854576367E+03  0.51100000000E-03 0. -1.
         22    1    1    2    0    0 -0.44630901786E+01  0.28965890515E+02  0.15060728961E+03  0.15343238794E+03  0.00000000000E+00 0.  1.
         -2    1    1    2    0  501  0.97016770558E+02 -0.17513223761E+03  0.52525063017E+02  0.20698414594E+03  0.25500000000E-02 0.  1.
<mgrwt>
<rscale>  0 0.20020878E+03</rscale>
<asrwt>0</asrwt>
<pdfrwt beam="1">  1       11 0.10000000E+01 0.20293673E+03</pdfrwt>
<pdfrwt beam="2">  1       -2 0.13700458E-01 0.20020878E+03</pdfrwt>
<totfact> 0.31461365E+02</totfact>
</mgrwt>
</event>
<event>
 5    1  0.2799727E-003  0.8738428E+02  0.7818608E-02  0.1314575E+00
         11   -1    0    0    0    0  0.00000000000E+00  0.00000000000E+00  0.10001806220E+04  0.10001806220E+04  0.51100000000E-03 0. -1.
         -2   -1    0    0    0  501 -0.00000000000E+00 -0.00000000000E+00 -0.74751480537E+01  0.74751484886E+01  0.25500000000E-02 0. -1.
         11    1    1    2    0    0 -0.73637692073E+02  0.18301859270E+02  0.44384808186E+03  0.45028722780E+03  0.51100000000E-03 0. -1.
         22    1    1    2    0    0 -0.99805905006E+01 -0.13016707134E+01  0.32975127656E+02  0.34477029706E+02  0.00000000000E+00 0. -1.
         -2    1    1    2    0  501  0.83618282574E+02 -0.17000188556E+02  0.51588226438E+03  0.52289151294E+03  0.25500000000E-02 0. -1.
<mgrwt>
<rscale>  0 0.85328914E+02</rscale>
<asrwt>0</asrwt>
<pdfrwt beam="1">  1       11 0.10000000E+01 0.87384279E+02</pdfrwt>
<pdfrwt beam="2">  1       -2 0.11502305E-02 0.85328914E+02</pdfrwt>
<totfact> 0.11809132E+04</totfact>
</mgrwt>
</event>
<event>
 5    1  0.2799727E-003  0.1884322E+03  0.7818608E-02  0.1163948E+00
         11   -1    0    0    0    0  0.00000000000E+00  0.00000000000E+00  0.99990108754E+03  0.99990108754E+03  0.51100000000E-03 0. -1.
         -2   -1    0    0    0  501 -0.00000000000E+00 -0.00000000000E+00 -0.15215886114E+03  0.15215886116E+03  0.25500000000E-02 0.  1.
         11    1    1    2    0    0  0.11535458432E+03  0.77630927465E+02  0.64844962106E+03  0.66318937875E+03  0.51100000000E-03 0. -1.
         22    1    1    2    0    0  0.24691414110E+02  0.41778139473E+02  0.28268254117E+03  0.28681788290E+03  0.00000000000E+00 0.  1.
         -2    1    1    2    0  501 -0.14004599843E+03 -0.11940906694E+03 -0.83389935831E+02  0.20205268706E+03  0.25500000000E-02 0.  1.
<mgrwt>
<rscale>  0 0.18404186E+03</rscale>
<asrwt>0</asrwt>
<pdfrwt beam="1">  1       11 0.10000000E+01 0.18843220E+03</pdfrwt>
<pdfrwt beam="2">  1       -2 0.23406739E-01 0.18404186E+03</pdfrwt>
<totfact> 0.12736545E+02</totfact>
</mgrwt>
</event>
<event>
 5    1  0.2799727E-003  0.1788091E+03  0.7818608E-02  0.1172227E+00
         11   -1    0    0    0    0  0.00000000000E+00  0.00000000000E+00  0.10002275992E+04  0.10002275992E+04  0.51100000000E-03 0. -1.
          2   -1    0    0  501    0 -0.00000000000E+00 -0.00000000000E+00 -0.36436923308E+02  0.36436923397E+02  0.25500000000E-02 0. -1.
         11    1    1    2    0    0 -0.18191663546E+02 -0.15795195822E+03  0.28027540217E+03  0.32223292629E+03  0.51100000000E-03 0. -1.
         22    1    1    2    0    0 -0.38093366756E+01 -0.16167018435E+02  0.12346005718E+02  0.20695588616E+02  0.00000000000E+00 0.  1.
          2    1    1    2  501    0  0.22001000222E+02  0.17411897665E+03  0.67116926799E+03  0.69373600768E+03  0.25500000000E-02 0. -1.
<mgrwt>
<rscale>  0 0.17550345E+03</rscale>
<asrwt>0</asrwt>
<pdfrwt beam="1">  1       11 0.10000000E+01 0.17880905E+03</pdfrwt>
<pdfrwt beam="2">  1        2 0.56069562E-02 0.17550345E+03</pdfrwt>
<totfact> 0.16098676E+03</totfact>
</mgrwt>
</event>
<event>
 5    1  0.2799727E-003  0.1786906E+03  0.7818608E-02  0.1190112E+00
         11   -1    0    0    0    0  0.00000000000E+00  0.00000000000E+00  0.10001165405E+04  0.10001165405E+04  0.51100000000E-03 0.  1.
         -2   -1    0    0    0  501 -0.00000000000E+00 -0.00000000000E+00 -0.34161376635E+02  0.34161376731E+02  0.25500000000E-02 0. -1.
         11    1    1    2    0    0 -0.15008256447E+02 -0.11384105945E+03  0.39427957390E+03  0.41065973381E+03  0.51100000000E-03 0.  1.
         22    1    1    2    0    0 -0.51995396705E+02 -0.30079040609E+02  0.32336477120E+03  0.32889670904E+03  0.00000000000E+00 0.  1.
         -2    1    1    2    0  501  0.67003653151E+02  0.14392010006E+03  0.24831081875E+03  0.29472147436E+03  0.25500000000E-02 0. -1.
<mgrwt>
<rscale>  0 0.15875290E+03</rscale>
<asrwt>0</asrwt>
<pdfrwt beam="1">  1       11 0.10000000E+01 0.17869059E+03</pdfrwt>
<pdfrwt beam="2">  1       -2 0.52562088E-02 0.15875290E+03</pdfrwt>
<totfact> 0.13884633E+03</totfact>
</mgrwt>
</event>
<event>
 5    1  0.2799727E-003  0.2324670E+03  0.7818608E-02  0.1133904E+00
         11   -1    0    0    0    0  0.00000000000E+00  0.00000000000E+00  0.10001633369E+04  0.10001633369E+04  0.51100000000E-03 0.  1.
          2   -1    0    0  501    0 -0.00000000000E+00 -0.00000000000E+00 -0.68407673106E+02  0.68407673154E+02  0.25500000000E-02 0.  1.
         11    1    1    2    0    0  0.84043606275E+02  0.67619088080E+02  0.28669940865E+03  0.30632045271E+03  0.51100000000E-03 0.  1.
         22    1    1    2    0    0  0.12081481793E+03  0.12509774563E+02  0.45695081881E+03  0.47281789888E+03  0.00000000000E+00 0. -1.
          2    1    1    2  501    0 -0.20485842420E+03 -0.80128862643E+02  0.18810543631E+03  0.28943265844E+03  0.25500000000E-02 0.  1.
<mgrwt>
<rscale>  0 0.21997184E+03</rscale>
<asrwt>0</asrwt>
<pdfrwt beam="1">  1       11 0.10000000E+01 0.23246701E+03</pdfrwt>
<pdfrwt beam="2">  1        2 0.10525976E-01 0.21997184E+03</pdfrwt>
<totfact> 0.73238228E+02</totfact>
</mgrwt>
</event>
<event>
 5    1  0.2799727E-003  0.1579153E+03  0.7818608E-02  0.1196192E+00
         11   -1    0    0    0    0  0.00000000000E+00  0.00000000000E+00  0.10000497416E+04  0.10000497416E+04  0.51100000000E-03 0. -1.
          2   -1    0    0  501    0 -0.00000000000E+00 -0.00000000000E+00 -0.35402960480E+02  0.35402960572E+02  0.25500000000E-02 0. -1.
         11    1    1    2    0    0 -0.13487975303E+03  0.47583132328E+02  0.74114847329E+03  0.75482300026E+03  0.51100000000E-03 0. -1.
         22    1    1    2    0    0 -0.12275215809E+02 -0.37728217612E+01  0.36390325144E+02  0.38589776771E+02  0.00000000000E+00 0. -1.
          2    1    1    2  501    0  0.14715496884E+03 -0.43810310567E+02  0.18710798264E+03  0.24203992510E+03  0.25500000000E-02 0. -1.
<mgrwt>
<rscale>  0 0.15353803E+03</rscale>
<asrwt>0</asrwt>
<pdfrwt beam="1">  1       11 0.10000000E+01 0.15791533E+03</pdfrwt>
<pdfrwt beam="2">  1        2 0.54468801E-02 0.15353803E+03</pdfrwt>
<totfact> 0.16551677E+03</totfact>
</mgrwt>
</event>
<event>
 5    1  0.2799727E-003  0.1482666E+03  0.7818608E-02  0.1202619E+00
         11   -1    0    0    0    0  0.00000000000E+00  0.00000000000E+00  0.10000211403E+04  0.10000211403E+04  0.51100000000E-03 0. -1.
          2   -1    0    0  501    0 -0.00000000000E+00 -0.00000000000E+00 -0.77641392862E+02  0.77641392904E+02  0.25500000000E-02 0.  1.
         11    1    1    2    0    0 -0.33247698257E+02  0.80846402916E+02  0.35259909989E+03  0.36327355470E+03  0.51100000000E-03 0. -1.
         22    1    1    2    0    0  0.13460518509E+03  0.34327194141E+02  0.54066932598E+03  0.55822955149E+03  0.00000000000E+00 0.  1.
          2    1    1    2  501    0 -0.10135748683E+03 -0.11517359706E+03  0.29111321588E+02  0.15615942702E+03  0.25500000000E-02 0.  1.
<mgrwt>
<rscale>  0 0.14826659E+03</rscale>
<asrwt>0</asrwt>
<pdfrwt beam="1">  1       11 0.10000000E+01 0.87415961E+02</pdfrwt>
<pdfrwt beam="2">  1        2 0.11945082E-01 0.14826659E+03</pdfrwt>
<totfact> 0.61564176E+02</totfact>
</mgrwt>
</event>
<event>
 5    1  0.2799727E-003  0.4708849E+02  0.7818608E-02  0.1594059E+00
         11   -1    0    0    0    0  0.00000000000E+00  0.00000000000E+00  0.10002963909E+04  0.10002963909E+04  0.51100000000E-03 0. -1.
          2   -1    0    0  501    0 -0.00000000000E+00 -0.00000000000E+00 -0.97934663231E+01  0.97934666551E+01  0.25500000000E-02 0. -1.
         11    1    1    2    0    0 -0.27746116277E+02  0.24551930694E+02  0.92625469527E+02  0.99760322145E+02  0.51100000000E-03 0. -1.
         22    1    1    2    0    0 -0.18371058384E+02 -0.67863628961E+01  0.11778613047E+02  0.22853582494E+02  0.00000000000E+00 0. -1.
          2    1    1    2  501    0  0.46117174661E+02 -0.17765567798E+02  0.88609884198E+03  0.88747595289E+03  0.25500000000E-02 0. -1.
<mgrwt>
<rscale>  0 0.30367770E+02</rscale>
<asrwt>0</asrwt>
<pdfrwt beam="1">  1       11 0.10000000E+01 0.47088486E+02</pdfrwt>
<pdfrwt beam="2">  1        2 0.15071337E-02 0.30367770E+02</pdfrwt>
<totfact> 0.72992076E+03</totfact>
</mgrwt>
</event>
<event>
 5    1  0.2799727E-003  0.1262126E+03  0.7818608E-02  0.1235008E+00
         11   -1    0    0    0    0  0.00000000000E+00  0.00000000000E+00  0.10002349562E+04  0.10002349562E+04  0.51100000000E-03 0. -1.
          2   -1    0    0  501    0 -0.00000000000E+00 -0.00000000000E+00 -0.15789127928E+02  0.15789128134E+02  0.25500000000E-02 0. -1.
         11    1    1    2    0    0  0.10970889053E+03  0.11693223188E+02  0.40120657540E+03  0.41610033439E+03  0.51100000000E-03 0. -1.
         22    1    1    2    0    0  0.14893118559E+02 -0.12472055894E+01  0.79916137150E+02  0.81301595797E+02  0.00000000000E+00 0.  1.
          2    1    1    2  501    0 -0.12460200909E+03 -0.10446017598E+02  0.50332311572E+03  0.51862215416E+03  0.25500000000E-02 0. -1.
<mgrwt>
<rscale>  0 0.12503911E+03</rscale>
<asrwt>0</asrwt>
<pdfrwt beam="1">  1       11 0.10000000E+01 0.12621258E+03</pdfrwt>
<pdfrwt beam="2">  1        2 0.24296673E-02 0.12503911E+03</pdfrwt>
<totfact> 0.47524415E+03</totfact>
</mgrwt>
</event>
<event>
 5    1  0.2799727E-003  0.1324855E+03  0.7818608E-02  0.1231893E+00
         11   -1    0    0    0    0  0.00000000000E+00  0.00000000000E+00  0.10002378130E+04  0.10002378130E+04  0.51100000000E-03 0. -1.
          2   -1    0    0  501    0 -0.00000000000E+00 -0.00000000000E+00 -0.16959335710E+02  0.16959335902E+02  0.25500000000E-02 0. -1.
         11    1    1    2    0    0 -0.73276936506E+02  0.74039111581E+02  0.47434556153E+03  0.48564906178E+03  0.51100000000E-03 0. -1.
         22    1    1    2    0    0 -0.25006215732E+02  0.64794434880E+01  0.70829568929E+02  0.75393115388E+02  0.00000000000E+00 0. -1.
          2    1    1    2  501    0  0.98283152238E+02 -0.80518555069E+02  0.43810334682E+03  0.45615497172E+03  0.25500000000E-02 0. -1.
<mgrwt>
<rscale>  0 0.12705438E+03</rscale>
<asrwt>0</asrwt>
<pdfrwt beam="1">  1       11 0.10000000E+01 0.13248548E+03</pdfrwt>
<pdfrwt beam="2">  1        2 0.26097490E-02 0.12705438E+03</pdfrwt>
<totfact> 0.43225344E+03</totfact>
</mgrwt>
</event>
<event>
 5    1  0.2799727E-003  0.1028437E+03  0.7818608E-02  0.1274427E+00
         11   -1    0    0    0    0  0.00000000000E+00  0.00000000000E+00  0.10001961568E+04  0.10001961568E+04  0.51100000000E-03 0. -1.
          2   -1    0    0  501    0 -0.00000000000E+00 -0.00000000000E+00 -0.29173339986E+02  0.29173340097E+02  0.25500000000E-02 0. -1.
         11    1    1    2    0    0 -0.86390035869E+02  0.28033494670E+02  0.49042026241E+03  0.49875961034E+03  0.51100000000E-03 0. -1.
         22    1    1    2    0    0  0.40161182692E+02  0.88526159986E+02  0.24780169173E+03  0.26618692685E+03  0.00000000000E+00 0. -1.
          2    1    1    2  501    0  0.46228853177E+02 -0.11655965466E+03  0.23280086269E+03  0.26442295974E+03  0.25500000000E-02 0. -1.
<mgrwt>
<rscale>  0 0.10284371E+03</rscale>
<asrwt>0</asrwt>
<pdfrwt beam="1">  1       11 0.10000000E+01 0.90824639E+02</pdfrwt>
<pdfrwt beam="2">  1        2 0.44890864E-02 0.10284371E+03</pdfrwt>
<totfact> 0.20588504E+03</totfact>
</mgrwt>
</event>
<event>
 5    1  0.2799727E-003  0.1656707E+03  0.7818608E-02  0.1185947E+00
         11   -1    0    0    0    0  0.00000000000E+00  0.00000000000E+00  0.10002383181E+04  0.10002383181E+04  0.51100000000E-03 0.  1.
         -2   -1    0    0    0  501 -0.00000000000E+00 -0.00000000000E+00 -0.29026553485E+02  0.29026553597E+02  0.25500000000E-02 0. -1.
         11    1    1    2    0    0 -0.92023192238E+02 -0.54665461254E+02  0.45291573312E+03  0.46539149312E+03  0.51100000000E-03 0.  1.
         22    1    1    2    0    0 -0.55151218903E+02 -0.14131440471E+02  0.17602201473E+03  0.18500028169E+03  0.00000000000E+00 0.  1.
         -2    1    1    2    0  501  0.14717441114E+03  0.68796901726E+02  0.34227401676E+03  0.37887309688E+03  0.25500000000E-02 0. -1.
<mgrwt>
<rscale>  0 0.16246021E+03</rscale>
<asrwt>0</asrwt>
<pdfrwt beam="1">  1       11 0.10000000E+01 0.16567067E+03</pdfrwt>
<pdfrwt beam="2">  1       -2 0.44666877E-02 0.16246021E+03</pdfrwt>
<totfact> 0.17774720E+03</totfact>
</mgrwt>
</event>
<event>
 5    1  0.2799727E-003  0.7379707E+02  0.7818608E-02  0.1368035E+00
         11   -1    0    0    0    0  0.00000000000E+00  0.00000000000E+00  0.99970158815E+03  0.99970158815E+03  0.51100000000E-03 0. -1.
          2   -1    0    0  501    0 -0.00000000000E+00 -0.00000000000E+00 -0.70936089315E+01  0.70936093899E+01  0.25500000000E-02 0. -1.
         11    1    1    2    0    0 -0.43536477923E+02  0.26300800549E+02  0.13021594576E+03  0.13979753056E+03  0.51100000000E-03 0. -1.
         22    1    1    2    0    0 -0.18499842828E+02  0.84748638193E+00  0.10836587801E+03  0.10993691798E+03  0.00000000000E+00 0. -1.
          2    1    1    2  501    0  0.62036320751E+02 -0.27148286931E+02  0.75402615544E+03  0.75706074900E+03  0.25500000000E-02 0. -1.
<mgrwt>
<rscale>  0 0.67716575E+02</rscale>
<asrwt>0</asrwt>
<pdfrwt beam="1">  1       11 0.10000000E+01 0.73797074E+02</pdfrwt>
<pdfrwt beam="2">  1        2 0.10909988E-02 0.67716575E+02</pdfrwt>
<totfact> 0.12927342E+04</totfact>
</mgrwt>
</event>
<event>
 5    1  0.2799727E-003  0.6318036E+03  0.7818608E-02  0.9841536E-01
         11   -1    0    0    0    0  0.00000000000E+00  0.00000000000E+00  0.10005051557E+04  0.10005051557E+04  0.51100000000E-03 0.  1.
          2   -1    0    0  501    0 -0.00000000000E+00 -0.00000000000E+00 -0.13391694396E+04  0.13391694396E+04  0.25500000000E-02 0.  1.
         11    1    1    2    0    0 -0.19853592088E+03 -0.45368752426E+03  0.72364196411E+03  0.87687317998E+03  0.51100000000E-03 0.  1.
         22    1    1    2    0    0 -0.12931994727E+03 -0.10411552701E+03  0.52252751300E+02  0.17405183638E+03  0.00000000000E+00 0.  1.
          2    1    1    2  501    0  0.32785586815E+03  0.55780305127E+03 -0.11145589993E+04  0.12887495789E+04  0.25500000000E-02 0.  1.
<mgrwt>
<rscale>  0 0.63180361E+03</rscale>
<asrwt>0</asrwt>
<pdfrwt beam="1">  1       11 0.10000000E+01 0.16602317E+03</pdfrwt>
<pdfrwt beam="2">  1        2 0.20613014E+00 0.63180361E+03</pdfrwt>
<totfact> 0.19798956E+01</totfact>
</mgrwt>
</event>
<event>
 5    1  0.2799727E-003  0.5383448E+02  0.7818608E-02  0.1524252E+00
         11   -1    0    0    0    0  0.00000000000E+00  0.00000000000E+00  0.10003572031E+04  0.10003572031E+04  0.51100000000E-03 0. -1.
          2   -1    0    0  501    0 -0.00000000000E+00 -0.00000000000E+00 -0.93694096180E+01  0.93694099650E+01  0.25500000000E-02 0. -1.
         11    1    1    2    0    0  0.31275242924E+02 -0.38832165128E+02  0.95056898486E+02  0.10734007555E+03  0.51100000000E-03 0. -1.
         22    1    1    2    0    0 -0.57933277068E+02  0.11890944408E+02  0.33528406968E+03  0.34046008067E+03  0.00000000000E+00 0.  1.
          2    1    1    2  501    0  0.26658034145E+02  0.26941220720E+02  0.56064682531E+03  0.56192645684E+03  0.25500000000E-02 0. -1.
<mgrwt>
<rscale>  0 0.37900926E+02</rscale>
<asrwt>0</asrwt>
<pdfrwt beam="1">  1       11 0.10000000E+01 0.53834482E+02</pdfrwt>
<pdfrwt beam="2">  1        2 0.14419625E-02 0.37900926E+02</pdfrwt>
<totfact> 0.80550029E+03</totfact>
</mgrwt>
</event>
<event>
 5    1  0.2799727E-003  0.1565967E+03  0.7818608E-02  0.1510590E+00
         11   -1    0    0    0    0  0.00000000000E+00  0.00000000000E+00  0.10003336204E+04  0.10003336204E+04  0.51100000000E-03 0. -1.
          2   -1    0    0  501    0 -0.00000000000E+00 -0.00000000000E+00 -0.30613498368E+02  0.30613498474E+02  0.25500000000E-02 0. -1.
         11    1    1    2    0    0  0.37716583947E+02  0.15141452450E+03  0.65931477953E+03  0.67752850674E+03  0.51100000000E-03 0. -1.
         22    1    1    2    0    0 -0.92248652117E+01  0.39976696558E+01  0.11154138167E+02  0.15016467597E+02  0.00000000000E+00 0.  1.
          2    1    1    2  501    0 -0.28491718735E+02 -0.15541219416E+03  0.29925120438E+03  0.33840214459E+03  0.25500000000E-02 0. -1.
<mgrwt>
<rscale>  0 0.39678667E+02</rscale>
<asrwt>0</asrwt>
<pdfrwt beam="1">  1       11 0.10000000E+01 0.15659670E+03</pdfrwt>
<pdfrwt beam="2">  1        2 0.47113401E-02 0.39678667E+02</pdfrwt>
<totfact> 0.17528414E+03</totfact>
</mgrwt>
</event>
<event>
 5    1  0.2799727E-003  0.4723605E+03  0.7818608E-02  0.1021849E+00
         11   -1    0    0    0    0  0.00000000000E+00  0.00000000000E+00  0.10005304297E+04  0.10005304297E+04  0.51100000000E-03 0. -1.
          2   -1    0    0  501    0 -0.00000000000E+00 -0.00000000000E+00 -0.31191835108E+03  0.31191835109E+03  0.25500000000E-02 0. -1.
         11    1    1    2    0    0 -0.44156802684E+03  0.98951139466E+02  0.65372494796E+03  0.79506600853E+03  0.51100000000E-03 0. -1.
         22    1    1    2    0    0 -0.18076482626E+02  0.36982639559E+00  0.43439735338E+02  0.47052168939E+02  0.00000000000E+00 0. -1.
          2    1    1    2  501    0  0.45964450947E+03 -0.99320965861E+02 -0.85526047060E+01  0.47033060330E+03  0.25500000000E-02 0. -1.
<mgrwt>
<rscale>  0 0.47025284E+03</rscale>
<asrwt>0</asrwt>
<pdfrwt beam="1">  1       11 0.10000000E+01 0.47236049E+03</pdfrwt>
<pdfrwt beam="2">  1        2 0.48012891E-01 0.47025284E+03</pdfrwt>
<totfact> 0.12997013E+02</totfact>
</mgrwt>
</event>
<event>
 5    1  0.2799727E-003  0.2517147E+02  0.7818608E-02  0.1730869E+00
         11   -1    0    0    0    0  0.00000000000E+00  0.00000000000E+00  0.10002858212E+04  0.10002858212E+04  0.51100000000E-03 0.  1.
          2   -1    0    0  501    0 -0.00000000000E+00 -0.00000000000E+00 -0.21258823033E+01  0.21258838327E+01  0.25500000000E-02 0.  1.
         11    1    1    2    0    0 -0.17179639281E+02  0.23404692326E+01  0.68426584004E+02  0.70589058648E+02  0.51100000000E-03 0.  1.
         22    1    1    2    0    0 -0.67804371957E+01 -0.15698530574E+02  0.88206285001E+02  0.89848577643E+02  0.00000000000E+00 0.  1.
          2    1    1    2  501    0  0.23960076476E+02  0.13358061341E+02  0.84152706986E+03  0.84197406871E+03  0.25500000000E-02 0.  1.
<mgrwt>
<rscale>  0 0.20746997E+02</rscale>
<asrwt>0</asrwt>
<pdfrwt beam="1">  1       11 0.10000000E+01 0.25171466E+02</pdfrwt>
<pdfrwt beam="2">  1        2 0.32715240E-03 0.20746997E+02</pdfrwt>
<totfact> 0.49408336E+04</totfact>
</mgrwt>
</event>
<event>
 5    1  0.2799727E-003  0.2533834E+03  0.7818608E-02  0.1126963E+00
         11   -1    0    0    0    0  0.00000000000E+00  0.00000000000E+00  0.10005825713E+04  0.10005825713E+04  0.51100000000E-03 0. -1.
          2   -1    0    0  501    0 -0.00000000000E+00 -0.00000000000E+00 -0.47808353440E+03  0.47808353440E+03  0.25500000000E-02 0. -1.
         11    1    1    2    0    0 -0.61191862572E+02  0.14703266247E+03  0.61309191625E+03  0.63343882550E+03  0.51100000000E-03 0. -1.
         22    1    1    2    0    0 -0.90618157891E+02  0.25138114531E+02  0.34244036600E+03  0.35511826144E+03  0.00000000000E+00 0. -1.
          2    1    1    2  501    0  0.15181002046E+03 -0.17217077700E+03 -0.43303324531E+03  0.49010901881E+03  0.25500000000E-02 0. -1.
<mgrwt>
<rscale>  0 0.22954097E+03</rscale>
<asrwt>0</asrwt>
<pdfrwt beam="1">  1       11 0.10000000E+01 0.25338345E+03</pdfrwt>
<pdfrwt beam="2">  1        2 0.73594160E-01 0.22954097E+03</pdfrwt>
<totfact> 0.81673157E+01</totfact>
</mgrwt>
</event>
<event>
 5    1  0.2799727E-003  0.2038442E+03  0.7818608E-02  0.1149361E+00
         11   -1    0    0    0    0  0.00000000000E+00  0.00000000000E+00  0.99989017909E+03  0.99989017909E+03  0.51100000000E-03 0.  1.
         -2   -1    0    0    0  501 -0.00000000000E+00 -0.00000000000E+00 -0.61313499753E+02  0.61313499806E+02  0.25500000000E-02 0. -1.
         11    1    1    2    0    0  0.13337563851E+03 -0.91493599109E+02  0.67068316406E+03  0.68991017255E+03  0.51100000000E-03 0.  1.
         22    1    1    2    0    0  0.26757701372E+02 -0.29075491406E+02  0.10762856947E+03  0.11465281396E+03  0.00000000000E+00 0. -1.
         -2    1    1    2    0  501 -0.16013333988E+03  0.12056909052E+03  0.16026494581E+03  0.25664069239E+03  0.25500000000E-02 0. -1.
<mgrwt>
<rscale>  0 0.20044848E+03</rscale>
<asrwt>0</asrwt>
<pdfrwt beam="1">  1       11 0.10000000E+01 0.20384417E+03</pdfrwt>
<pdfrwt beam="2">  1       -2 0.94318099E-02 0.20044848E+03</pdfrwt>
<totfact> 0.57263354E+02</totfact>
</mgrwt>
</event>
<event>
 5    1  0.2799727E-003  0.1591087E+03  0.7818608E-02  0.1366351E+00
         11   -1    0    0    0    0  0.00000000000E+00  0.00000000000E+00  0.99994862463E+03  0.99994862463E+03  0.51100000000E-03 0.  1.
          2   -1    0    0  501    0 -0.00000000000E+00 -0.00000000000E+00 -0.82646746883E+03  0.82646746884E+03  0.25500000000E-02 0.  1.
         11    1    1    2    0    0  0.14050812808E+03 -0.16352467739E+03 -0.13131749035E+03  0.25244234480E+03  0.51100000000E-03 0.  1.
         22    1    1    2    0    0 -0.12342999174E+03  0.97505782370E+02  0.93093727900E+03  0.94413270142E+03  0.00000000000E+00 0.  1.
          2    1    1    2  501    0 -0.17078136346E+02  0.66018895024E+02 -0.62613863286E+03  0.62984104725E+03  0.25500000000E-02 0.  1.
<mgrwt>
<rscale>  0 0.68192061E+02</rscale>
<asrwt>0</asrwt>
<pdfrwt beam="1">  1       11 0.10000000E+01 0.15910873E+03</pdfrwt>
<pdfrwt beam="2">  1        2 0.12714231E+00 0.68192061E+02</pdfrwt>
<totfact> 0.44838124E+01</totfact>
</mgrwt>
</event>
<event>
 5    1  0.2799727E-003  0.1197411E+03  0.7818608E-02  0.1266304E+00
         11   -1    0    0    0    0  0.00000000000E+00  0.00000000000E+00  0.99993906902E+03  0.99993906902E+03  0.51100000000E-03 0.  1.
         -2   -1    0    0    0  501 -0.00000000000E+00 -0.00000000000E+00 -0.13667453769E+02  0.13667454007E+02  0.25500000000E-02 0. -1.
         11    1    1    2    0    0 -0.33297013564E+02  0.18310465931E+02  0.22390878611E+03  0.22711034493E+03  0.51100000000E-03 0.  1.
         22    1    1    2    0    0 -0.56323356546E+01  0.81314372566E+02  0.41918170199E+03  0.42703284379E+03  0.00000000000E+00 0.  1.
         -2    1    1    2    0  501  0.38929349219E+02 -0.99624838496E+02  0.34318112715E+03  0.35946333431E+03  0.25500000000E-02 0. -1.
<mgrwt>
<rscale>  0 0.10696075E+03</rscale>
<asrwt>0</asrwt>
<pdfrwt beam="1">  1       11 0.10000000E+01 0.11974112E+03</pdfrwt>
<pdfrwt beam="2">  1       -2 0.21025570E-02 0.10696075E+03</pdfrwt>
<totfact> 0.51479673E+03</totfact>
</mgrwt>
</event>
<event>
 5    1  0.2799727E-003  0.1000187E+03  0.7818608E-02  0.1497954E+00
         11   -1    0    0    0    0  0.00000000000E+00  0.00000000000E+00  0.10001389126E+04  0.10001389126E+04  0.51100000000E-03 0.  1.
          2   -1    0    0  501    0 -0.00000000000E+00 -0.00000000000E+00 -0.12023316652E+03  0.12023316654E+03  0.25500000000E-02 0.  1.
         11    1    1    2    0    0  0.75057039623E+02  0.77262396147E+02  0.46234740453E+03  0.47472956462E+03  0.51100000000E-03 0.  1.
         22    1    1    2    0    0 -0.35945278879E+02 -0.90922402025E+02  0.52315361323E+03  0.53221109468E+03  0.00000000000E+00 0.  1.
          2    1    1    2  501    0 -0.39111760744E+02  0.13660005879E+02 -0.10559527170E+03  0.11343141981E+03  0.25500000000E-02 0.  1.
<mgrwt>
<rscale>  0 0.41428560E+02</rscale>
<asrwt>0</asrwt>
<pdfrwt beam="1">  1       11 0.10000000E+01 0.10001869E+03</pdfrwt>
<pdfrwt beam="2">  1        2 0.18499979E-01 0.41428560E+02</pdfrwt>
<totfact> 0.34875162E+02</totfact>
</mgrwt>
</event>
<event>
 5    1  0.2799727E-003  0.4559976E+03  0.7818608E-02  0.1364571E+00
         11   -1    0    0    0    0  0.00000000000E+00  0.00000000000E+00  0.10005051672E+04  0.10005051672E+04  0.51100000000E-03 0. -1.
          2   -1    0    0  501    0 -0.00000000000E+00 -0.00000000000E+00 -0.29157303765E+03  0.29157303766E+03  0.25500000000E-02 0. -1.
         11    1    1    2    0    0  0.25956413001E+03 -0.37635196220E+03  0.31941220680E+02  0.45829529631E+03  0.51100000000E-03 0. -1.
         22    1    1    2    0    0  0.74725384240E+01  0.71615066593E+01 -0.65857074259E+01  0.12267744309E+02  0.00000000000E+00 0.  1.
          2    1    1    2  501    0 -0.26703666843E+03  0.36919045554E+03  0.68357661632E+03  0.82151516428E+03  0.25500000000E-02 0. -1.
<mgrwt>
<rscale>  0 0.68699712E+02</rscale>
<asrwt>0</asrwt>
<pdfrwt beam="1">  1       11 0.10000000E+01 0.45599763E+03</pdfrwt>
<pdfrwt beam="2">  1        2 0.44880050E-01 0.68699712E+02</pdfrwt>
<totfact> 0.13876970E+02</totfact>
</mgrwt>
</event>
<event>
 5    1  0.2799727E-003  0.7041911E+02  0.7818608E-02  0.1362740E+00
         11   -1    0    0    0    0  0.00000000000E+00  0.00000000000E+00  0.99998946267E+03  0.99998946267E+03  0.51100000000E-03 0.  1.
          2   -1    0    0  501    0 -0.00000000000E+00 -0.00000000000E+00 -0.11495917250E+02  0.11495917533E+02  0.25500000000E-02 0.  1.
         11    1    1    2    0    0  0.57638280941E+02  0.12124035845E+02  0.87261272712E+02  0.10527912134E+03  0.51100000000E-03 0.  1.
         22    1    1    2    0    0  0.92980710803E+01  0.55379338034E+01  0.24979381618E+02  0.27223011271E+02  0.00000000000E+00 0.  1.
          2    1    1    2  501    0 -0.66936352021E+02 -0.17661969648E+02  0.87625289109E+03  0.87898324759E+03  0.25500000000E-02 0.  1.
<mgrwt>
<rscale>  0 0.69227310E+02</rscale>
<asrwt>0</asrwt>
<pdfrwt beam="1">  1       11 0.10000000E+01 0.70419107E+02</pdfrwt>
<pdfrwt beam="2">  1        2 0.17685840E-02 0.69227310E+02</pdfrwt>
<totfact> 0.67615203E+03</totfact>
</mgrwt>
</event>
<event>
 5    1  0.2799727E-003  0.2457054E+03  0.7818608E-02  0.1120465E+00
         11   -1    0    0    0    0  0.00000000000E+00  0.00000000000E+00  0.10008896098E+04  0.10008896098E+04  0.51100000000E-03 0. -1.
          2   -1    0    0  501    0 -0.00000000000E+00 -0.00000000000E+00 -0.21589870118E+04  0.21589870118E+04  0.25500000000E-02 0. -1.
         11    1    1    2    0    0  0.16559494349E+03 -0.14355458341E+03  0.93309481236E+03  0.95848606280E+03  0.51100000000E-03 0. -1.
         22    1    1    2    0    0  0.21249618397E+02 -0.54667426880E+01  0.45953562692E+02  0.50923093796E+02  0.00000000000E+00 0.  1.
          2    1    1    2  501    0 -0.18684456188E+03  0.14902132610E+03 -0.21371457770E+04  0.21504674650E+04  0.25500000000E-02 0. -1.
<mgrwt>
<rscale>  0 0.23899424E+03</rscale>
<asrwt>0</asrwt>
<pdfrwt beam="1">  1       11 0.10000000E+01 0.24570536E+03</pdfrwt>
<pdfrwt beam="2">  1        2 0.33244732E+00 0.23899424E+03</pdfrwt>
<totfact> 0.77611791E+00</totfact>
</mgrwt>
</event>
<event>
 5    1  0.2799727E-003  0.1267604E+03  0.7818608E-02  0.1238352E+00
         11   -1    0    0    0    0  0.00000000000E+00  0.00000000000E+00  0.10000654861E+04  0.10000654861E+04  0.51100000000E-03 0.  1.
          2   -1    0    0  501    0 -0.00000000000E+00 -0.00000000000E+00 -0.17009152538E+02  0.17009152729E+02  0.25500000000E-02 0.  1.
         11    1    1    2    0    0  0.12523262443E+02 -0.30009262565E+01  0.36334862763E+02  0.38549447633E+02  0.51100000000E-03 0.  1.
         22    1    1    2    0    0  0.82703466396E+02 -0.74728042252E+02  0.60928281591E+03  0.61939461849E+03  0.00000000000E+00 0.  1.
          2    1    1    2  501    0 -0.95226728838E+02  0.77728968509E+02  0.33743865488E+03  0.35913057269E+03  0.25500000000E-02 0.  1.
<mgrwt>
<rscale>  0 0.12292242E+03</rscale>
<asrwt>0</asrwt>
<pdfrwt beam="1">  1       11 0.10000000E+01 0.12676043E+03</pdfrwt>
<pdfrwt beam="2">  1        2 0.26169640E-02 0.12292242E+03</pdfrwt>
<totfact> 0.42908600E+03</totfact>
</mgrwt>
</event>
<event>
 5    1  0.2799727E-003  0.1302100E+03  0.7818608E-02  0.1227144E+00
         11   -1    0    0    0    0  0.00000000000E+00  0.00000000000E+00  0.10001696141E+04  0.10001696141E+04  0.51100000000E-03 0. -1.
          2   -1    0    0  501    0 -0.00000000000E+00 -0.00000000000E+00 -0.31305231938E+02  0.31305232042E+02  0.25500000000E-02 0. -1.
         11    1    1    2    0    0  0.69350180389E+02  0.35412033396E+02  0.25241878386E+03  0.26415658628E+03  0.51100000000E-03 0. -1.
         22    1    1    2    0    0 -0.37392029452E+02  0.10979007540E+03  0.41940299395E+03  0.43514468382E+03  0.00000000000E+00 0. -1.
          2    1    1    2  501    0 -0.31958150937E+02 -0.14520210880E+03  0.29704260431E+03  0.33217357600E+03  0.25500000000E-02 0. -1.
<mgrwt>
<rscale>  0 0.13021000E+03</rscale>
<asrwt>0</asrwt>
<pdfrwt beam="1">  1       11 0.10000000E+01 0.77868220E+02</pdfrwt>
<pdfrwt beam="2">  1        2 0.48170063E-02 0.13021000E+03</pdfrwt>
<totfact> 0.19174391E+03</totfact>
</mgrwt>
</event>
<event>
 5    1  0.2799727E-003  0.1296980E+03  0.7818608E-02  0.1506675E+00
         11   -1    0    0    0    0  0.00000000000E+00  0.00000000000E+00  0.10001256928E+04  0.10001256928E+04  0.51100000000E-03 0.  1.
          2   -1    0    0  501    0 -0.00000000000E+00 -0.00000000000E+00 -0.66263770502E+03  0.66263770502E+03  0.25500000000E-02 0. -1.
         11    1    1    2    0    0  0.71731127200E+02  0.85835419079E+02  0.17661782659E+03  0.20906202536E+03  0.51100000000E-03 0.  1.
         22    1    1    2    0    0 -0.58726065429E+02 -0.12388371025E+03  0.80082951573E+03  0.81248005372E+03  0.00000000000E+00 0.  1.
          2    1    1    2  501    0 -0.13005061772E+02  0.38048291171E+02 -0.63995935456E+03  0.64122131872E+03  0.25500000000E-02 0. -1.
<mgrwt>
<rscale>  0 0.40209503E+02</rscale>
<asrwt>0</asrwt>
<pdfrwt beam="1">  1       11 0.10000000E+01 0.12969803E+03</pdfrwt>
<pdfrwt beam="2">  1        2 0.10195707E+00 0.40209503E+02</pdfrwt>
<totfact> 0.58921354E+01</totfact>
</mgrwt>
</event>
<event>
 5    1  0.2799727E-003  0.3361833E+03  0.7818608E-02  0.1344342E+00
         11   -1    0    0    0    0  0.00000000000E+00  0.00000000000E+00  0.10000887040E+04  0.10000887040E+04  0.51100000000E-03 0. -1.
         -2   -1    0    0    0  501 -0.00000000000E+00 -0.00000000000E+00 -0.35224082165E+03  0.35224082166E+03  0.25500000000E-02 0.  1.
         11    1    1    2    0    0 -0.15091629742E+03  0.24624455538E+03  0.14622736508E+03  0.32371986683E+03  0.51100000000E-03 0. -1.
         22    1    1    2    0    0  0.21131874633E+03 -0.29044624457E+03  0.71626992985E+03  0.80128474710E+03  0.00000000000E+00 0. -1.
         -2    1    1    2    0  501 -0.60402448908E+02  0.44201689185E+02 -0.21464941258E+03  0.22732491172E+03  0.25500000000E-02 0.  1.
<mgrwt>
<rscale>  0 0.74848147E+02</rscale>
<asrwt>0</asrwt>
<pdfrwt beam="1">  1       11 0.10000000E+01 0.33618328E+03</pdfrwt>
<pdfrwt beam="2">  1       -2 0.54195701E-01 0.74848147E+02</pdfrwt>
<totfact> 0.26584456E+01</totfact>
</mgrwt>
</event>
<event>
 5    1  0.2799727E-003  0.1276538E+03  0.7818608E-02  0.1230979E+00
         11   -1    0    0    0    0  0.00000000000E+00  0.00000000000E+00  0.10004047611E+04  0.10004047611E+04  0.51100000000E-03 0.  1.
          2   -1    0    0  501    0 -0.00000000000E+00 -0.00000000000E+00 -0.45566006170E+02  0.45566006242E+02  0.25500000000E-02 0. -1.
         11    1    1    2    0    0  0.18022219431E+02  0.13111086597E+02  0.12317640917E+03  0.12517639059E+03  0.51100000000E-03 0.  1.
         22    1    1    2    0    0  0.69080067013E+02 -0.10682701286E+03  0.76692630822E+03  0.77740596124E+03  0.00000000000E+00 0.  1.
          2    1    1    2  501    0 -0.87102286444E+02  0.93715926260E+02  0.64736037535E+02  0.14338841550E+03  0.25500000000E-02 0. -1.
<mgrwt>
<rscale>  0 0.12765378E+03</rscale>
<asrwt>0</asrwt>
<pdfrwt beam="1">  1       11 0.10000000E+01 0.22286789E+02</pdfrwt>
<pdfrwt beam="2">  1        2 0.70129920E-02 0.12765378E+03</pdfrwt>
<totfact> 0.11799100E+03</totfact>
</mgrwt>
</event>
<event>
 5    1  0.2799727E-003  0.3159190E+03  0.7818608E-02  0.1080416E+00
         11   -1    0    0    0    0  0.00000000000E+00  0.00000000000E+00  0.10000652290E+04  0.10000652290E+04  0.51100000000E-03 0.  1.
          2   -1    0    0  501    0 -0.00000000000E+00 -0.00000000000E+00 -0.99094182679E+02  0.99094182711E+02  0.25500000000E-02 0.  1.
         11    1    1    2    0    0  0.13934369228E+03 -0.23412150387E+03  0.40640235418E+03  0.48927744342E+03  0.51100000000E-03 0.  1.
         22    1    1    2    0    0  0.20476395437E+02 -0.31334270335E+02  0.10894066517E+03  0.11519196064E+03  0.00000000000E+00 0.  1.
          2    1    1    2  501    0 -0.15982008771E+03  0.26545577420E+03  0.38562802699E+03  0.49469000769E+03  0.25500000000E-02 0.  1.
<mgrwt>
<rscale>  0 0.30985356E+03</rscale>
<asrwt>0</asrwt>
<pdfrwt beam="1">  1       11 0.10000000E+01 0.31591903E+03</pdfrwt>
<pdfrwt beam="2">  1        2 0.15246253E-01 0.30985356E+03</pdfrwt>
<totfact> 0.47331144E+02</totfact>
</mgrwt>
</event>
<event>
 5    1  0.2799727E-003  0.2183175E+03  0.7818608E-02  0.1137341E+00
         11   -1    0    0    0    0  0.00000000000E+00  0.00000000000E+00  0.99954298728E+03  0.99954298728E+03  0.51100000000E-03 0. -1.
          2   -1    0    0  501    0 -0.00000000000E+00 -0.00000000000E+00 -0.76300991375E+02  0.76300991418E+02  0.25500000000E-02 0. -1.
         11    1    1    2    0    0  0.52576899236E+02 -0.16945983745E+03  0.68457789649E+03  0.70719718835E+03  0.51100000000E-03 0. -1.
         22    1    1    2    0    0  0.22456337638E+02 -0.32474589983E+02  0.11197397812E+03  0.11873103162E+03  0.00000000000E+00 0. -1.
          2    1    1    2  501    0 -0.75033236873E+02  0.20193442744E+03  0.12669012129E+03  0.24991575873E+03  0.25500000000E-02 0. -1.
<mgrwt>
<rscale>  0 0.21542400E+03</rscale>
<asrwt>0</asrwt>
<pdfrwt beam="1">  1       11 0.10000000E+01 0.21831751E+03</pdfrwt>
<pdfrwt beam="2">  1        2 0.11733249E-01 0.21542400E+03</pdfrwt>
<totfact> 0.64029479E+02</totfact>
</mgrwt>
</event>
<event>
 5    1  0.2799727E-003  0.1363797E+03  0.7818608E-02  0.1629196E+00
         11   -1    0    0    0    0  0.00000000000E+00  0.00000000000E+00  0.99973344008E+03  0.99973344008E+03  0.51100000000E-03 0.  1.
          2   -1    0    0  501    0 -0.00000000000E+00 -0.00000000000E+00 -0.55533365841E+03  0.55533365842E+03  0.25500000000E-02 0.  1.
         11    1    1    2    0    0 -0.13850734948E+03 -0.56497345003E+02  0.60570583756E+03  0.62390367646E+03  0.51100000000E-03 0.  1.
         22    1    1    2    0    0  0.11262129803E+03  0.47625355390E+02  0.37486023935E+03  0.39429929025E+03  0.00000000000E+00 0.  1.
          2    1    1    2  501    0  0.25886051451E+02  0.88719896134E+01 -0.53616629523E+03  0.53686413179E+03  0.25500000000E-02 0.  1.
<mgrwt>
<rscale>  0 0.27364208E+02</rscale>
<asrwt>0</asrwt>
<pdfrwt beam="1">  1       11 0.10000000E+01 0.13637973E+03</pdfrwt>
<pdfrwt beam="2">  1        2 0.85413171E-01 0.27364208E+02</pdfrwt>
<totfact> 0.71756715E+01</totfact>
</mgrwt>
</event>
<event>
 5    1  0.2799727E-003  0.1485059E+03  0.7818608E-02  0.1240820E+00
         11   -1    0    0    0    0  0.00000000000E+00  0.00000000000E+00  0.10004496849E+04  0.10004496849E+04  0.51100000000E-03 0. -1.
          2   -1    0    0  501    0 -0.00000000000E+00 -0.00000000000E+00 -0.13268369490E+03  0.13268369492E+03  0.25500000000E-02 0. -1.
         11    1    1    2    0    0 -0.38966821321E+02 -0.15120315265E+03  0.84581822324E+03  0.86011003558E+03  0.51100000000E-03 0. -1.
         22    1    1    2    0    0 -0.76993504544E+02  0.11530112850E+03  0.51817557274E+02  0.14801151718E+03  0.00000000000E+00 0.  1.
          2    1    1    2  501    0  0.11596032586E+03  0.35902024150E+02 -0.29869790521E+02  0.12501182706E+03  0.25500000000E-02 0. -1.
<mgrwt>
<rscale>  0 0.12139091E+03</rscale>
<asrwt>0</asrwt>
<pdfrwt beam="1">  1       11 0.10000000E+01 0.14850587E+03</pdfrwt>
<pdfrwt beam="2">  1        2 0.20422055E-01 0.12139091E+03</pdfrwt>
<totfact> 0.32694793E+02</totfact>
</mgrwt>
</event>
<event>
 5    1  0.2799727E-003  0.1229161E+03  0.7818608E-02  0.1456007E+00
         11   -1    0    0    0    0  0.00000000000E+00  0.00000000000E+00  0.10006330645E+04  0.10006330645E+04  0.51100000000E-03 0. -1.
          2   -1    0    0  501    0 -0.00000000000E+00 -0.00000000000E+00 -0.22415196105E+02  0.22415196250E+02  0.25500000000E-02 0. -1.
         11    1    1    2    0    0  0.73383851046E+02 -0.92027608113E+02  0.35742847906E+03  0.37631022826E+03  0.51100000000E-03 0. -1.
         22    1    1    2    0    0 -0.11396860637E+03  0.66256993654E+02  0.48883034601E+03  0.50629432115E+03  0.00000000000E+00 0. -1.
          2    1    1    2  501    0  0.40584755319E+02  0.25770614459E+02  0.13195904329E+03  0.14044371131E+03  0.25500000000E-02 0. -1.
<mgrwt>
<rscale>  0 0.48075430E+02</rscale>
<asrwt>0</asrwt>
<pdfrwt beam="1">  1       11 0.10000000E+01 0.12291608E+03</pdfrwt>
<pdfrwt beam="2">  1        2 0.34506747E-02 0.48075430E+02</pdfrwt>
<totfact> 0.26679847E+03</totfact>
</mgrwt>
</event>
<event>
 5    1  0.2799727E-003  0.4710409E+03  0.7818608E-02  0.1021627E+00
         11   -1    0    0    0    0  0.00000000000E+00  0.00000000000E+00  0.10006356773E+04  0.10006356773E+04  0.51100000000E-03 0. -1.
          2   -1    0    0  501    0 -0.00000000000E+00 -0.00000000000E+00 -0.96214968970E+03  0.96214968970E+03  0.25500000000E-02 0. -1.
         11    1    1    2    0    0  0.34927662675E+03 -0.35777984096E+03  0.28942480682E+03  0.57772596912E+03  0.51100000000E-03 0. -1.
         22    1    1    2    0    0 -0.23684841717E+03 -0.10497597058E+03  0.46083754313E+03  0.52866659462E+03  0.00000000000E+00 0. -1.
          2    1    1    2  501    0 -0.11242820958E+03  0.46275581154E+03 -0.71177636237E+03  0.85639280324E+03  0.25500000000E-02 0. -1.
<mgrwt>
<rscale>  0 0.47104087E+03</rscale>
<asrwt>0</asrwt>
<pdfrwt beam="1">  1       11 0.10000000E+01 0.25906973E+03</pdfrwt>
<pdfrwt beam="2">  1        2 0.14811712E+00 0.47104087E+03</pdfrwt>
<totfact> 0.33788065E+01</totfact>
</mgrwt>
</event>
<event>
 5    1  0.2799727E-003  0.3146061E+03  0.7818608E-02  0.1078159E+00
         11   -1    0    0    0    0  0.00000000000E+00  0.00000000000E+00  0.10003424520E+04  0.10003424520E+04  0.51100000000E-03 0.  1.
          2   -1    0    0  501    0 -0.00000000000E+00 -0.00000000000E+00 -0.74218956113E+03  0.74218956113E+03  0.25500000000E-02 0.  1.
         11    1    1    2    0    0  0.41115080324E+01  0.18212398114E+03  0.18521997613E+03  0.25979316496E+03  0.51100000000E-03 0.  1.
         22    1    1    2    0    0  0.67120411389E+02  0.15018553218E+03  0.72714280126E+03  0.74551827417E+03  0.00000000000E+00 0.  1.
          2    1    1    2  501    0 -0.71231919421E+02 -0.33230951332E+03 -0.65420988656E+03  0.73722057396E+03  0.25500000000E-02 0.  1.
<mgrwt>
<rscale>  0 0.31460613E+03</rscale>
<asrwt>0</asrwt>
<pdfrwt beam="1">  1       11 0.10000000E+01 0.16450180E+03</pdfrwt>
<pdfrwt beam="2">  1        2 0.11422211E+00 0.31460613E+03</pdfrwt>
<totfact> 0.48461142E+01</totfact>
</mgrwt>
</event>
<event>
 5    1  0.2799727E-003  0.2887602E+03  0.7818608E-02  0.1092450E+00
         11   -1    0    0    0    0  0.00000000000E+00  0.00000000000E+00  0.10003437093E+04  0.10003437093E+04  0.51100000000E-03 0. -1.
          2   -1    0    0  501    0 -0.00000000000E+00 -0.00000000000E+00 -0.11494726625E+03  0.11494726628E+03  0.25500000000E-02 0. -1.
         11    1    1    2    0    0 -0.15205207832E+03  0.22889019220E+03  0.72202501126E+03  0.77254816775E+03  0.51100000000E-03 0. -1.
         22    1    1    2    0    0 -0.10600625462E+02  0.63683825826E+01  0.18184316276E+02  0.21990882550E+02  0.00000000000E+00 0.  1.
          2    1    1    2  501    0  0.16265270378E+03 -0.23525857478E+03  0.14518711552E+03  0.32075192529E+03  0.25500000000E-02 0. -1.
<mgrwt>
<rscale>  0 0.28601136E+03</rscale>
<asrwt>0</asrwt>
<pdfrwt beam="1">  1       11 0.10000000E+01 0.28876020E+03</pdfrwt>
<pdfrwt beam="2">  1        2 0.17690273E-01 0.28601136E+03</pdfrwt>
<totfact> 0.39600548E+02</totfact>
</mgrwt>
</event>
<event>
 5    1  0.2799727E-003  0.2114903E+03  0.7818608E-02  0.1408644E+00
         11   -1    0    0    0    0  0.00000000000E+00  0.00000000000E+00  0.10002969170E+04  0.10002969170E+04  0.51100000000E-03 0.  1.
          2   -1    0    0  501    0 -0.00000000000E+00 -0.00000000000E+00 -0.40244503870E+04  0.40244503870E+04  0.25500000000E-02 0.  1.
         11    1    1    2    0    0  0.12248903143E+03 -0.15990455091E+03 -0.10592052533E+02  0.20170577532E+03  0.51100000000E-03 0.  1.
         22    1    1    2    0    0 -0.79521533736E+02  0.19811148847E+03  0.89193297570E+03  0.91712391165E+03  0.00000000000E+00 0.  1.
          2    1    1    2  501    0 -0.42967497689E+02 -0.38206937560E+02 -0.39054943932E+04  0.39059176170E+04  0.25500000000E-02 0.  1.
<mgrwt>
<rscale>  0 0.57497617E+02</rscale>
<asrwt>0</asrwt>
<pdfrwt beam="1">  1       11 0.10000000E+01 0.21149025E+03</pdfrwt>
<pdfrwt beam="2">  1        2 0.61933003E+00 0.57497617E+02</pdfrwt>
<totfact> 0.74626709E-01</totfact>
</mgrwt>
</event>
<event>
 5    1  0.2799727E-003  0.1472769E+03  0.7818608E-02  0.1223097E+00
         11   -1    0    0    0    0  0.00000000000E+00  0.00000000000E+00  0.10001001902E+04  0.10001001902E+04  0.51100000000E-03 0. -1.
          2   -1    0    0  501    0 -0.00000000000E+00 -0.00000000000E+00 -0.19634309492E+02  0.19634309657E+02  0.25500000000E-02 0. -1.
         11    1    1    2    0    0 -0.58153605239E+02  0.30709378048E+02  0.14304451552E+03  0.15743773729E+03  0.51100000000E-03 0. -1.
         22    1    1    2    0    0 -0.49942875909E+02  0.46746253037E+02  0.37257276670E+03  0.37880069894E+03  0.00000000000E+00 0. -1.
          2    1    1    2  501    0  0.10809648115E+03 -0.77455631085E+02  0.46484859844E+03  0.48349606359E+03  0.25500000000E-02 0. -1.
<mgrwt>
<rscale>  0 0.13298204E+03</rscale>
<asrwt>0</asrwt>
<pdfrwt beam="1">  1       11 0.10000000E+01 0.14727688E+03</pdfrwt>
<pdfrwt beam="2">  1        2 0.30209656E-02 0.13298204E+03</pdfrwt>
<totfact> 0.35669588E+03</totfact>
</mgrwt>
</event>
<event>
 5    1  0.2799727E-003  0.1717130E+03  0.7818608E-02  0.1609163E+00
         11   -1    0    0    0    0  0.00000000000E+00  0.00000000000E+00  0.10002417135E+04  0.10002417135E+04  0.51100000000E-03 0. -1.
         -2   -1    0    0    0  501 -0.00000000000E+00 -0.00000000000E+00 -0.78703031977E+02  0.78703032018E+02  0.25500000000E-02 0.  1.
         11    1    1    2    0    0  0.17750881805E+03  0.41897350009E+01  0.79632706784E+03  0.81588218104E+03  0.51100000000E-03 0. -1.
         22    1    1    2    0    0 -0.15244714331E+03 -0.18823971001E+02  0.15725774969E+03  0.21982828123E+03  0.00000000000E+00 0.  1.
         -2    1    1    2    0  501 -0.25061674731E+02  0.14634236000E+02 -0.32046136042E+02  0.43234283218E+02  0.25500000000E-02 0.  1.
<mgrwt>
<rscale>  0 0.29021516E+02</rscale>
<asrwt>0</asrwt>
<pdfrwt beam="1">  1       11 0.10000000E+01 0.17171299E+03</pdfrwt>
<pdfrwt beam="2">  1       -2 0.12111085E-01 0.29021516E+02</pdfrwt>
<totfact> 0.33892725E+02</totfact>
</mgrwt>
</event>
<event>
 5    1  0.2799727E-003  0.4055846E+02  0.7818608E-02  0.1555092E+00
         11   -1    0    0    0    0  0.00000000000E+00  0.00000000000E+00  0.10002555079E+04  0.10002555079E+04  0.51100000000E-03 0.  1.
          2   -1    0    0  501    0 -0.00000000000E+00 -0.00000000000E+00 -0.56728437291E+01  0.56728443022E+01  0.25500000000E-02 0.  1.
         11    1    1    2    0    0 -0.11476515251E+02  0.27190103381E+02  0.60339460774E+02  0.67170400110E+02  0.51100000000E-03 0.  1.
         22    1    1    2    0    0 -0.27780210182E+02 -0.82270053816E+01  0.12388361183E+03  0.12722646335E+03  0.00000000000E+00 0.  1.
          2    1    1    2  501    0  0.39256725432E+02 -0.18963097999E+02  0.81035959153E+03  0.81153148871E+03  0.25500000000E-02 0.  1.
<mgrwt>
<rscale>  0 0.34279616E+02</rscale>
<asrwt>0</asrwt>
<pdfrwt beam="1">  1       11 0.10000000E+01 0.40558464E+02</pdfrwt>
<pdfrwt beam="2">  1        2 0.87296820E-03 0.34279616E+02</pdfrwt>
<totfact> 0.15351149E+04</totfact>
</mgrwt>
</event>
<event>
 5    1  0.2799727E-003  0.2338128E+03  0.7818608E-02  0.1132855E+00
         11   -1    0    0    0    0  0.00000000000E+00  0.00000000000E+00  0.10001030796E+04  0.10001030796E+04  0.51100000000E-03 0. -1.
         -2   -1    0    0    0  501 -0.00000000000E+00 -0.00000000000E+00 -0.23059537929E+03  0.23059537930E+03  0.25500000000E-02 0.  1.
         11    1    1    2    0    0 -0.14359989385E+03  0.56243804788E+02  0.56197695392E+03  0.58275414355E+03  0.51100000000E-03 0. -1.
         22    1    1    2    0    0 -0.40570061945E+02  0.66608829073E+02  0.36694150150E+03  0.37513828325E+03  0.00000000000E+00 0. -1.
         -2    1    1    2    0  501  0.18416995579E+03 -0.12285263386E+03 -0.15941075515E+03  0.27280603206E+03  0.25500000000E-02 0.  1.
<mgrwt>
<rscale>  0 0.22138505E+03</rscale>
<asrwt>0</asrwt>
<pdfrwt beam="1">  1       11 0.10000000E+01 0.23381276E+03</pdfrwt>
<pdfrwt beam="2">  1       -2 0.35479868E-01 0.22138505E+03</pdfrwt>
<totfact> 0.60364400E+01</totfact>
</mgrwt>
</event>
<event>
 5    1  0.2799727E-003  0.3678437E+03  0.7818608E-02  0.1055521E+00
         11   -1    0    0    0    0  0.00000000000E+00  0.00000000000E+00  0.10003225576E+04  0.10003225576E+04  0.51100000000E-03 0.  1.
         -2   -1    0    0    0  501 -0.00000000000E+00 -0.00000000000E+00 -0.36187587294E+03  0.36187587295E+03  0.25500000000E-02 0. -1.
         11    1    1    2    0    0  0.11226155803E+03 -0.35544215975E+03  0.49095711478E+03  0.61642572537E+03  0.51100000000E-03 0.  1.
         22    1    1    2    0    0 -0.82275890292E+02 -0.11769307003E+02  0.32595971959E+03  0.33638902703E+03  0.00000000000E+00 0.  1.
         -2    1    1    2    0  501 -0.29985667742E+02  0.36721146676E+03 -0.17847014971E+03  0.40938367814E+03  0.25500000000E-02 0. -1.
<mgrwt>
<rscale>  0 0.36784374E+03</rscale>
<asrwt>0</asrwt>
<pdfrwt beam="1">  1       11 0.10000000E+01 0.83113409E+02</pdfrwt>
<pdfrwt beam="2">  1       -2 0.55691167E-01 0.36784374E+03</pdfrwt>
<totfact> 0.24924424E+01</totfact>
</mgrwt>
</event>
<event>
 5    1  0.2799727E-003  0.5522954E+02  0.7818608E-02  0.1518582E+00
         11   -1    0    0    0    0  0.00000000000E+00  0.00000000000E+00  0.10001953081E+04  0.10001953081E+04  0.51100000000E-03 0.  1.
          2   -1    0    0  501    0 -0.00000000000E+00 -0.00000000000E+00 -0.76987763201E+01  0.76987767424E+01  0.25500000000E-02 0.  1.
         11    1    1    2    0    0 -0.43671075849E+01  0.47356821078E+02  0.10857330330E+03  0.11853228387E+03  0.51100000000E-03 0.  1.
         22    1    1    2    0    0 -0.26980351486E+02  0.13145115994E+01  0.10968770594E+03  0.11296486242E+03  0.00000000000E+00 0.  1.
          2    1    1    2  501    0  0.31347459071E+02 -0.48671332678E+02  0.77423552258E+03  0.77639693859E+03  0.25500000000E-02 0.  1.
<mgrwt>
<rscale>  0 0.38624851E+02</rscale>
<asrwt>0</asrwt>
<pdfrwt beam="1">  1       11 0.10000000E+01 0.55229538E+02</pdfrwt>
<pdfrwt beam="2">  1        2 0.11846585E-02 0.38624851E+02</pdfrwt>
<totfact> 0.10483423E+04</totfact>
</mgrwt>
</event>
<event>
 5    1  0.2799727E-003  0.8417469E+02  0.7818608E-02  0.1317605E+00
         11   -1    0    0    0    0  0.00000000000E+00  0.00000000000E+00  0.10000141139E+04  0.10000141139E+04  0.51100000000E-03 0.  1.
          2   -1    0    0  501    0 -0.00000000000E+00 -0.00000000000E+00 -0.88390177947E+01  0.88390181625E+01  0.25500000000E-02 0.  1.
         11    1    1    2    0    0  0.74215127003E+02  0.27739734600E+02  0.43830385853E+03  0.44540728592E+03  0.51100000000E-03 0.  1.
         22    1    1    2    0    0  0.30273147397E+01  0.18372856338E+02  0.10259479365E+03  0.10427088840E+03  0.00000000000E+00 0.  1.
          2    1    1    2  501    0 -0.77242441743E+02 -0.46112590938E+02  0.45027644391E+03  0.45917495772E+03  0.25500000000E-02 0.  1.
<mgrwt>
<rscale>  0 0.84174690E+02</rscale>
<asrwt>0</asrwt>
<pdfrwt beam="1">  1       11 0.10000000E+01 0.18620593E+02</pdfrwt>
<pdfrwt beam="2">  1        2 0.13598681E-02 0.84174690E+02</pdfrwt>
<totfact> 0.99210576E+03</totfact>
</mgrwt>
</event>
<event>
 5    1  0.2799727E-003  0.7058620E+02  0.7818608E-02  0.1358111E+00
         11   -1    0    0    0    0  0.00000000000E+00  0.00000000000E+00  0.10002805164E+04  0.10002805164E+04  0.51100000000E-03 0.  1.
          2   -1    0    0  501    0 -0.00000000000E+00 -0.00000000000E+00 -0.11770852406E+02  0.11770852682E+02  0.25500000000E-02 0.  1.
         11    1    1    2    0    0  0.67624094765E+01 -0.49599660328E+02  0.11031391084E+03  0.12114047801E+03  0.51100000000E-03 0.  1.
         22    1    1    2    0    0  0.30363327657E+02  0.85550516305E+02  0.41333570927E+03  0.42318699302E+03  0.00000000000E+00 0.  1.
          2    1    1    2  501    0 -0.37125737134E+02 -0.35950855977E+02  0.46486004392E+03  0.46772389809E+03  0.25500000000E-02 0.  1.
<mgrwt>
<rscale>  0 0.70586195E+02</rscale>
<asrwt>0</asrwt>
<pdfrwt beam="1">  1       11 0.10000000E+01 0.50058556E+02</pdfrwt>
<pdfrwt beam="2">  1        2 0.18114083E-02 0.70586195E+02</pdfrwt>
<totfact> 0.65662282E+03</totfact>
</mgrwt>
</event>
<event>
 5    1  0.2799727E-003  0.2416617E+03  0.7818608E-02  0.1121267E+00
         11   -1    0    0    0    0  0.00000000000E+00  0.00000000000E+00  0.10008678322E+04  0.10008678322E+04  0.51100000000E-03 0. -1.
          2   -1    0    0  501    0 -0.00000000000E+00 -0.00000000000E+00 -0.13417206543E+04  0.13417206543E+04  0.25500000000E-02 0. -1.
         11    1    1    2    0    0  0.16665086814E+03  0.13870282732E+03  0.91651105676E+03  0.94180863413E+03  0.51100000000E-03 0. -1.
         22    1    1    2    0    0  0.21667260411E+02  0.65044857990E+01  0.58958688518E+02  0.63149865090E+02  0.00000000000E+00 0.  1.
          2    1    1    2  501    0 -0.18831812855E+03 -0.14520731312E+03 -0.13163225674E+04  0.13376299872E+04  0.25500000000E-02 0. -1.
<mgrwt>
<rscale>  0 0.23780009E+03</rscale>
<asrwt>0</asrwt>
<pdfrwt beam="1">  1       11 0.10000000E+01 0.24166167E+03</pdfrwt>
<pdfrwt beam="2">  1        2 0.20659769E+00 0.23780009E+03</pdfrwt>
<totfact> 0.21000131E+01</totfact>
</mgrwt>
</event>
<event>
 5    1  0.2799727E-003  0.9610649E+02  0.7818608E-02  0.1288703E+00
         11   -1    0    0    0    0  0.00000000000E+00  0.00000000000E+00  0.10002526941E+04  0.10002526941E+04  0.51100000000E-03 0.  1.
          2   -1    0    0  501    0 -0.00000000000E+00 -0.00000000000E+00 -0.78820688591E+02  0.78820688632E+02  0.25500000000E-02 0.  1.
         11    1    1    2    0    0 -0.51719598843E+02 -0.71974360907E+02  0.46381953458E+03  0.47221159048E+03  0.51100000000E-03 0.  1.
         22    1    1    2    0    0  0.33289800977E+02  0.16218556412E+03  0.48362731014E+03  0.51118269060E+03  0.00000000000E+00 0.  1.
          2    1    1    2  501    0  0.18429797866E+02 -0.90211203211E+02 -0.26014839175E+02  0.95679101678E+02  0.25500000000E-02 0.  1.
<mgrwt>
<rscale>  0 0.96106491E+02</rscale>
<asrwt>0</asrwt>
<pdfrwt beam="1">  1       11 0.10000000E+01 0.88629710E+02</pdfrwt>
<pdfrwt beam="2">  1        2 0.12129324E-01 0.96106491E+02</pdfrwt>
<totfact> 0.59100743E+02</totfact>
</mgrwt>
</event>
<event>
 5    1  0.2799727E-003  0.1299796E+03  0.7818608E-02  0.1334660E+00
         11   -1    0    0    0    0  0.00000000000E+00  0.00000000000E+00  0.10000731820E+04  0.10000731820E+04  0.51100000000E-03 0.  1.
         -2   -1    0    0    0  501 -0.00000000000E+00 -0.00000000000E+00 -0.21735298029E+03  0.21735298031E+03  0.25500000000E-02 0. -1.
         11    1    1    2    0    0 -0.56268449118E+02  0.13309674889E+03  0.47924211519E+03  0.50055358145E+03  0.51100000000E-03 0.  1.
         22    1    1    2    0    0 -0.21512516943E+02 -0.12654829587E+03  0.49430420518E+03  0.51069942905E+03  0.00000000000E+00 0. -1.
         -2    1    1    2    0  501  0.77780966060E+02 -0.65484530209E+01 -0.19082611871E+03  0.20617315176E+03  0.25500000000E-02 0. -1.
<mgrwt>
<rscale>  0 0.78056140E+02</rscale>
<asrwt>0</asrwt>
<pdfrwt beam="1">  1       11 0.10000000E+01 0.12997961E+03</pdfrwt>
<pdfrwt beam="2">  1       -2 0.33441366E-01 0.78056140E+02</pdfrwt>
<totfact> 0.66370470E+01</totfact>
</mgrwt>
</event>
<event>
 5    1  0.2799727E-003  0.1806746E+03  0.7818608E-02  0.1170679E+00
         11   -1    0    0    0    0  0.00000000000E+00  0.00000000000E+00  0.10000974423E+04  0.10000974423E+04  0.51100000000E-03 0. -1.
          2   -1    0    0  501    0 -0.00000000000E+00 -0.00000000000E+00 -0.64826386578E+02  0.64826386629E+02  0.25500000000E-02 0. -1.
         11    1    1    2    0    0  0.16589579791E+03  0.30201482929E+02  0.81975280274E+03  0.83691588761E+03  0.51100000000E-03 0. -1.
         22    1    1    2    0    0  0.93465086986E+01 -0.48979989464E+01  0.29160497108E+02  0.31011001437E+02  0.00000000000E+00 0. -1.
          2    1    1    2  501    0 -0.17524230660E+03 -0.25303483982E+02  0.86357755914E+02  0.19699693992E+03  0.25500000000E-02 0. -1.
<mgrwt>
<rscale>  0 0.17705969E+03</rscale>
<asrwt>0</asrwt>
<pdfrwt beam="1">  1       11 0.10000000E+01 0.18067455E+03</pdfrwt>
<pdfrwt beam="2">  1        2 0.99742618E-02 0.17705969E+03</pdfrwt>
<totfact> 0.77425864E+02</totfact>
</mgrwt>
</event>
<event>
 5    1  0.2799727E-003  0.2970418E+02  0.7818608E-02  0.1601382E+00
         11   -1    0    0    0    0  0.00000000000E+00  0.00000000000E+00  0.99984934851E+03  0.99984934851E+03  0.51100000000E-03 0. -1.
          2   -1    0    0  501    0 -0.00000000000E+00 -0.00000000000E+00 -0.72099059344E+01  0.72099063854E+01  0.25500000000E-02 0. -1.
         11    1    1    2    0    0 -0.17032345932E+02 -0.15947997452E+02  0.21450528733E+02  0.31694867311E+02  0.51100000000E-03 0. -1.
         22    1    1    2    0    0  0.21708198215E+01 -0.27560195348E+02  0.12936861444E+03  0.13228951292E+03  0.00000000000E+00 0.  1.
          2    1    1    2  501    0  0.14861526111E+02  0.43508192800E+02  0.84182029940E+03  0.84307487466E+03  0.25500000000E-02 0. -1.
<mgrwt>
<rscale>  0 0.29704182E+02</rscale>
<asrwt>0</asrwt>
<pdfrwt beam="1">  1       11 0.10000000E+01 0.23333238E+02</pdfrwt>
<pdfrwt beam="2">  1        2 0.11090492E-02 0.29704182E+02</pdfrwt>
<totfact> 0.10863948E+04</totfact>
</mgrwt>
</event>
<event>
 5    1  0.2799727E-003  0.2505368E+02  0.7818608E-02  0.1668529E+00
         11   -1    0    0    0    0  0.00000000000E+00  0.00000000000E+00  0.10006053902E+04  0.10006053902E+04  0.51100000000E-03 0.  1.
         -2   -1    0    0    0  501 -0.00000000000E+00 -0.00000000000E+00 -0.14556508773E+01  0.14556531108E+01  0.25500000000E-02 0.  1.
         11    1    1    2    0    0 -0.43800500079E+01 -0.13969674178E+02  0.74018947316E+02  0.75452907146E+02  0.51100000000E-03 0.  1.
         22    1    1    2    0    0 -0.68673437819E+01 -0.77777951464E+01  0.46808405869E+02  0.47944565572E+02  0.00000000000E+00 0.  1.
         -2    1    1    2    0  501  0.11247393790E+02  0.21747469325E+02  0.87832238611E+03  0.87866357056E+03  0.25500000000E-02 0.  1.
<mgrwt>
<rscale>  0 0.24483797E+02</rscale>
<asrwt>0</asrwt>
<pdfrwt beam="1">  1       11 0.10000000E+01 0.25053682E+02</pdfrwt>
<pdfrwt beam="2">  1       -2 0.22408203E-03 0.24483797E+02</pdfrwt>
<totfact> 0.84177493E+04</totfact>
</mgrwt>
</event>
<event>
 5    1  0.2799727E-003  0.1816755E+03  0.7818608E-02  0.1166191E+00
         11   -1    0    0    0    0  0.00000000000E+00  0.00000000000E+00  0.99997139976E+03  0.99997139976E+03  0.51100000000E-03 0.  1.
          2   -1    0    0  501    0 -0.00000000000E+00 -0.00000000000E+00 -0.65892394915E+03  0.65892394916E+03  0.25500000000E-02 0. -1.
         11    1    1    2    0    0  0.13805681233E+03  0.10594348507E+03  0.83526967345E+03  0.85320521145E+03  0.51100000000E-03 0.  1.
         22    1    1    2    0    0  0.20952982168E+02 -0.17772157431E+02  0.14167271335E+03  0.14431228204E+03  0.00000000000E+00 0. -1.
          2    1    1    2  501    0 -0.15900979450E+03 -0.88171327639E+02 -0.63589493619E+03  0.66137785542E+03  0.25500000000E-02 0. -1.
<mgrwt>
<rscale>  0 0.18167550E+03</rscale>
<asrwt>0</asrwt>
<pdfrwt beam="1">  1       11 0.10000000E+01 0.27475026E+02</pdfrwt>
<pdfrwt beam="2">  1        2 0.10137001E+00 0.18167550E+03</pdfrwt>
<totfact> 0.56946889E+01</totfact>
</mgrwt>
</event>
<event>
 5    1  0.2799727E-003  0.5673741E+02  0.7818608E-02  0.1412057E+00
         11   -1    0    0    0    0  0.00000000000E+00  0.00000000000E+00  0.10002634676E+04  0.10002634676E+04  0.51100000000E-03 0. -1.
          2   -1    0    0  501    0 -0.00000000000E+00 -0.00000000000E+00 -0.18930786073E+02  0.18930786244E+02  0.25500000000E-02 0. -1.
         11    1    1    2    0    0  0.18062584397E+02 -0.25716103799E+02  0.30920951922E+02  0.44087188816E+02  0.51100000000E-03 0. -1.
         22    1    1    2    0    0 -0.57630886312E+02 -0.52582146603E+01  0.60294906069E+02  0.83572983532E+02  0.00000000000E+00 0. -1.
          2    1    1    2  501    0  0.39568301915E+02  0.30974318460E+02  0.89011682352E+03  0.89153408148E+03  0.25500000000E-02 0. -1.
<mgrwt>
<rscale>  0 0.56737408E+02</rscale>
<asrwt>0</asrwt>
<pdfrwt beam="1">  1       11 0.10000000E+01 0.31425721E+02</pdfrwt>
<pdfrwt beam="2">  1        2 0.29131959E-02 0.56737408E+02</pdfrwt>
<totfact> 0.33953124E+03</totfact>
</mgrwt>
</event>
<event>
 5    1  0.2799727E-003  0.4976657E+02  0.7818608E-02  0.1593104E+00
         11   -1    0    0    0    0  0.00000000000E+00  0.00000000000E+00  0.99963114413E+03  0.99963114413E+03  0.51100000000E-03 0. -1.
          2   -1    0    0  501    0 -0.00000000000E+00 -0.00000000000E+00 -0.52589203256E+01  0.52589209438E+01  0.25500000000E-02 0. -1.
         11    1    1    2    0    0 -0.40135416150E+02 -0.22225637760E+02  0.26261338075E+03  0.26659073194E+03  0.51100000000E-03 0. -1.
         22    1    1    2    0    0 -0.11979884096E+02  0.14278049620E+02  0.35931371567E+02  0.40477694927E+02  0.00000000000E+00 0.  1.
          2    1    1    2  501    0  0.52115300246E+02  0.79475881396E+01  0.69582747149E+03  0.69782163821E+03  0.25500000000E-02 0. -1.
<mgrwt>
<rscale>  0 0.30455804E+02</rscale>
<asrwt>0</asrwt>
<pdfrwt beam="1">  1       11 0.10000000E+01 0.49766574E+02</pdfrwt>
<pdfrwt beam="2">  1        2 0.80876626E-03 0.30455804E+02</pdfrwt>
<totfact> 0.16559710E+04</totfact>
</mgrwt>
</event>
<event>
 5    1  0.2799727E-003  0.2248211E+03  0.7818608E-02  0.1536978E+00
         11   -1    0    0    0    0  0.00000000000E+00  0.00000000000E+00  0.10011424466E+04  0.10011424466E+04  0.51100000000E-03 0. -1.
          2   -1    0    0  501    0 -0.00000000000E+00 -0.00000000000E+00 -0.14940796861E+04  0.14940796861E+04  0.25500000000E-02 0. -1.
         11    1    1    2    0    0 -0.23162210953E+03  0.86497606570E+02  0.15103527906E+03  0.28972796394E+03  0.51100000000E-03 0. -1.
         22    1    1    2    0    0  0.21298020229E+03 -0.55298585647E+02  0.76501821215E+03  0.79603477629E+03  0.00000000000E+00 0. -1.
          2    1    1    2  501    0  0.18641907243E+02 -0.31199020923E+02 -0.14089907307E+04  0.14094593924E+04  0.25500000000E-02 0. -1.
<mgrwt>
<rscale>  0 0.36344183E+02</rscale>
<asrwt>0</asrwt>
<pdfrwt beam="1">  1       11 0.10000000E+01 0.22482108E+03</pdfrwt>
<pdfrwt beam="2">  1        2 0.23012101E+00 0.36344183E+02</pdfrwt>
<totfact> 0.20239592E+01</totfact>
</mgrwt>
</event>
<event>
 5    1  0.2799727E-003  0.6799792E+02  0.7818608E-02  0.1372214E+00
         11   -1    0    0    0    0  0.00000000000E+00  0.00000000000E+00  0.10005201229E+04  0.10005201229E+04  0.51100000000E-03 0. -1.
         -2   -1    0    0    0  501 -0.00000000000E+00 -0.00000000000E+00 -0.59408405081E+01  0.59408410554E+01  0.25500000000E-02 0. -1.
         11    1    1    2    0    0 -0.12651489080E+02  0.75150060880E+00  0.67943916887E+02  0.69115850363E+02  0.51100000000E-03 0. -1.
         22    1    1    2    0    0 -0.50714975263E+02  0.19603580901E+02  0.18764317290E+03  0.19536189351E+03  0.00000000000E+00 0. -1.
         -2    1    1    2    0  501  0.63366464343E+02 -0.20355081510E+02  0.73899219264E+03  0.74198322012E+03  0.25500000000E-02 0. -1.
<mgrwt>
<rscale>  0 0.66555527E+02</rscale>
<asrwt>0</asrwt>
<pdfrwt beam="1">  1       11 0.10000000E+01 0.67997916E+02</pdfrwt>
<pdfrwt beam="2">  1       -2 0.91445086E-03 0.66555527E+02</pdfrwt>
<totfact> 0.15645183E+04</totfact>
</mgrwt>
</event>
<event>
 5    1  0.2799727E-003  0.2028448E+03  0.7818608E-02  0.1147361E+00
         11   -1    0    0    0    0  0.00000000000E+00  0.00000000000E+00  0.10007953851E+04  0.10007953851E+04  0.51100000000E-03 0. -1.
          2   -1    0    0  501    0 -0.00000000000E+00 -0.00000000000E+00 -0.34961118787E+04  0.34961118787E+04  0.25500000000E-02 0. -1.
         11    1    1    2    0    0  0.93659473842E+02 -0.16697817637E+03  0.85631655011E+03  0.87745760150E+03  0.51100000000E-03 0. -1.
         22    1    1    2    0    0 -0.11401383286E+02 -0.18484849432E+02  0.13005467746E+03  0.13185560408E+03  0.00000000000E+00 0. -1.
          2    1    1    2  501    0 -0.82258090556E+02  0.18546302580E+03 -0.34816877211E+04  0.34875940582E+04  0.25500000000E-02 0. -1.
<mgrwt>
<rscale>  0 0.20284482E+03</rscale>
<asrwt>0</asrwt>
<pdfrwt beam="1">  1       11 0.10000000E+01 0.21718223E+02</pdfrwt>
<pdfrwt beam="2">  1        2 0.53829116E+00 0.20284482E+03</pdfrwt>
<totfact> 0.13387002E+00</totfact>
</mgrwt>
</event>
<event>
 5    1  0.2799727E-003  0.1445159E+03  0.7818608E-02  0.1207378E+00
         11   -1    0    0    0    0  0.00000000000E+00  0.00000000000E+00  0.10000692628E+04  0.10000692628E+04  0.51100000000E-03 0.  1.
          2   -1    0    0  501    0 -0.00000000000E+00 -0.00000000000E+00 -0.38028479252E+03  0.38028479253E+03  0.25500000000E-02 0.  1.
         11    1    1    2    0    0  0.57928483188E+01 -0.13668114321E+03  0.47532212964E+03  0.49461744705E+03  0.51100000000E-03 0.  1.
         22    1    1    2    0    0  0.93421218831E+02  0.29976365989E+02  0.49578444785E+03  0.50539917429E+03  0.00000000000E+00 0.  1.
          2    1    1    2  501    0 -0.99214067150E+02  0.10670477722E+03 -0.35132210725E+03  0.38033743394E+03  0.25500000000E-02 0.  1.
<mgrwt>
<rscale>  0 0.14451589E+03</rscale>
<asrwt>0</asrwt>
<pdfrwt beam="1">  1       11 0.10000000E+01 0.98112724E+02</pdfrwt>
<pdfrwt beam="2">  1        2 0.58509403E-01 0.14451589E+03</pdfrwt>
<totfact> 0.10525546E+02</totfact>
</mgrwt>
</event>
<event>
 5    1  0.2799727E-003  0.3031860E+03  0.7818608E-02  0.1162121E+00
         11   -1    0    0    0    0  0.00000000000E+00  0.00000000000E+00  0.10001726963E+04  0.10001726963E+04  0.51100000000E-03 0.  1.
          2   -1    0    0  501    0 -0.00000000000E+00 -0.00000000000E+00 -0.19491554514E+03  0.19491554515E+03  0.25500000000E-02 0.  1.
         11    1    1    2    0    0  0.20704931763E+03 -0.24697755996E+03  0.28215280645E+03  0.42834278475E+03  0.51100000000E-03 0.  1.
         22    1    1    2    0    0 -0.32414686908E+02  0.31099266893E+03  0.48473384800E+03  0.57683104585E+03  0.00000000000E+00 0.  1.
          2    1    1    2  501    0 -0.17463463072E+03 -0.64015108967E+02  0.38370496696E+02  0.18991441085E+03  0.25500000000E-02 0.  1.
<mgrwt>
<rscale>  0 0.18599782E+03</rscale>
<asrwt>0</asrwt>
<pdfrwt beam="1">  1       11 0.10000000E+01 0.30318599E+03</pdfrwt>
<pdfrwt beam="2">  1        2 0.29992185E-01 0.18599782E+03</pdfrwt>
<totfact> 0.21587084E+02</totfact>
</mgrwt>
</event>
<event>
 5    1  0.2799727E-003  0.8940501E+02  0.7818608E-02  0.1307204E+00
         11   -1    0    0    0    0  0.00000000000E+00  0.00000000000E+00  0.10000237514E+04  0.10000237514E+04  0.51100000000E-03 0.  1.
          2   -1    0    0  501    0 -0.00000000000E+00 -0.00000000000E+00 -0.11968263832E+02  0.11968264104E+02  0.25500000000E-02 0.  1.
         11    1    1    2    0    0 -0.49581210894E+02  0.53497179186E+02  0.16109512450E+03  0.17683858118E+03  0.51100000000E-03 0.  1.
         22    1    1    2    0    0 -0.53914352406E+01  0.15509569105E+02  0.39654741193E+02  0.42919841645E+02  0.00000000000E+00 0.  1.
          2    1    1    2  501    0  0.54972646134E+02 -0.69006748291E+02  0.78730562189E+03  0.79223359270E+03  0.25500000000E-02 0.  1.
<mgrwt>
<rscale>  0 0.88226544E+02</rscale>
<asrwt>0</asrwt>
<pdfrwt beam="1">  1       11 0.10000000E+01 0.89405010E+02</pdfrwt>
<pdfrwt beam="2">  1        2 0.18413151E-02 0.88226544E+02</pdfrwt>
<totfact> 0.66239699E+03</totfact>
</mgrwt>
</event>
<event>
 5    1  0.2799727E-003  0.8776455E+02  0.7818608E-02  0.1732088E+00
         11   -1    0    0    0    0  0.00000000000E+00  0.00000000000E+00  0.10001799509E+04  0.10001799509E+04  0.51100000000E-03 0.  1.
         -2   -1    0    0    0  501 -0.00000000000E+00 -0.00000000000E+00 -0.15856708200E+02  0.15856708405E+02  0.25500000000E-02 0.  1.
         11    1    1    2    0    0  0.40116259197E+02 -0.68305536181E+02  0.41058787772E+03  0.41815949810E+03  0.51100000000E-03 0.  1.
         22    1    1    2    0    0 -0.58405937641E+02  0.77962119128E+02  0.56816826575E+03  0.57645860544E+03  0.00000000000E+00 0.  1.
         -2    1    1    2    0  501  0.18289678444E+02 -0.96565829470E+01  0.55670992585E+01  0.21418555798E+02  0.25500000000E-02 0.  1.
<mgrwt>
<rscale>  0 0.20682406E+02</rscale>
<asrwt>0</asrwt>
<pdfrwt beam="1">  1       11 0.10000000E+01 0.87764552E+02</pdfrwt>
<pdfrwt beam="2">  1       -2 0.24399325E-02 0.20682406E+02</pdfrwt>
<totfact> 0.32358304E+03</totfact>
</mgrwt>
</event>
<event>
 5    1  0.2799727E-003  0.8207184E+02  0.7818608E-02  0.1336261E+00
         11   -1    0    0    0    0  0.00000000000E+00  0.00000000000E+00  0.10002898202E+04  0.10002898202E+04  0.51100000000E-03 0.  1.
          2   -1    0    0  501    0 -0.00000000000E+00 -0.00000000000E+00 -0.64365718308E+01  0.64365723359E+01  0.25500000000E-02 0. -1.
         11    1    1    2    0    0  0.55164722652E+02 -0.37895075535E+02  0.39826416641E+03  0.40384839930E+03  0.51100000000E-03 0.  1.
         22    1    1    2    0    0  0.14070054771E+02  0.30408973891E+01  0.59637324896E+02  0.61350012379E+02  0.00000000000E+00 0. -1.
          2    1    1    2  501    0 -0.69234777422E+02  0.34854178146E+02  0.53595175704E+03  0.54152798082E+03  0.25500000000E-02 0. -1.
<mgrwt>
<rscale>  0 0.77513019E+02</rscale>
<asrwt>0</asrwt>
<pdfrwt beam="1">  1       11 0.10000000E+01 0.82071837E+02</pdfrwt>
<pdfrwt beam="2">  1        2 0.99052882E-03 0.77513019E+02</pdfrwt>
<totfact> 0.15074474E+04</totfact>
</mgrwt>
</event>
<event>
 5    1  0.2799727E-003  0.1336718E+03  0.7818608E-02  0.1222107E+00
         11   -1    0    0    0    0  0.00000000000E+00  0.00000000000E+00  0.10002151824E+04  0.10002151824E+04  0.51100000000E-03 0. -1.
          2   -1    0    0  501    0 -0.00000000000E+00 -0.00000000000E+00 -0.16755159221E+02  0.16755159415E+02  0.25500000000E-02 0. -1.
         11    1    1    2    0    0  0.11548286574E+03  0.46423909398E+02  0.43501284180E+03  0.45246839025E+03  0.51100000000E-03 0. -1.
         22    1    1    2    0    0 -0.21211808775E+02 -0.11484976951E+02  0.44432346851E+02  0.50557679671E+02  0.00000000000E+00 0. -1.
          2    1    1    2  501    0 -0.94271056964E+02 -0.34938932447E+02  0.50401483449E+03  0.51394427186E+03  0.25500000000E-02 0. -1.
<mgrwt>
<rscale>  0 0.13367177E+03</rscale>
<asrwt>0</asrwt>
<pdfrwt beam="1">  1       11 0.10000000E+01 0.12446480E+03</pdfrwt>
<pdfrwt beam="2">  1        2 0.25782714E-02 0.13367177E+03</pdfrwt>
<totfact> 0.44183961E+03</totfact>
</mgrwt>
</event>
<event>
 5    1  0.2799727E-003  0.2188499E+03  0.7818608E-02  0.1149118E+00
         11   -1    0    0    0    0  0.00000000000E+00  0.00000000000E+00  0.10004052785E+04  0.10004052785E+04  0.51100000000E-03 0. -1.
          2   -1    0    0  501    0 -0.00000000000E+00 -0.00000000000E+00 -0.90857036983E+03  0.90857036983E+03  0.25500000000E-02 0. -1.
         11    1    1    2    0    0 -0.10008970071E+03 -0.49192405001E+02  0.45265453193E+03  0.46619091173E+03  0.51100000000E-03 0. -1.
         22    1    1    2    0    0 -0.32985811513E+02 -0.10109605020E+03  0.52440841848E+03  0.53508192317E+03  0.00000000000E+00 0. -1.
          2    1    1    2  501    0  0.13307551223E+03  0.15028845520E+03 -0.88522804172E+03  0.90770281346E+03  0.25500000000E-02 0. -1.
<mgrwt>
<rscale>  0 0.20073792E+03</rscale>
<asrwt>0</asrwt>
<pdfrwt beam="1">  1       11 0.10000000E+01 0.21884990E+03</pdfrwt>
<pdfrwt beam="2">  1        2 0.13983670E+00 0.20073792E+03</pdfrwt>
<totfact> 0.37965209E+01</totfact>
</mgrwt>
</event>
<event>
 5    1  0.2799727E-003  0.4736418E+03  0.7818608E-02  0.1023446E+00
         11   -1    0    0    0    0  0.00000000000E+00  0.00000000000E+00  0.99930631924E+03  0.99930631924E+03  0.51100000000E-03 0. -1.
          2   -1    0    0  501    0 -0.00000000000E+00 -0.00000000000E+00 -0.24604769037E+04  0.24604769037E+04  0.25500000000E-02 0. -1.
         11    1    1    2    0    0  0.34955754980E+03 -0.70592984290E+02  0.61709393751E+03  0.71272629933E+03  0.51100000000E-03 0. -1.
         22    1    1    2    0    0  0.10941690848E+03 -0.16992411763E+01  0.30233973262E+03  0.32153423022E+03  0.00000000000E+00 0.  1.
          2    1    1    2  501    0 -0.45897445827E+03  0.72292225466E+02 -0.23806042546E+04  0.24255226934E+04  0.25500000000E-02 0. -1.
<mgrwt>
<rscale>  0 0.46463289E+03</rscale>
<asrwt>0</asrwt>
<pdfrwt beam="1">  1       11 0.10000000E+01 0.47364182E+03</pdfrwt>
<pdfrwt beam="2">  1        2 0.37827232E+00 0.46463289E+03</pdfrwt>
<totfact> 0.49770398E+00</totfact>
</mgrwt>
</event>
<event>
 5    1  0.2799727E-003  0.1837562E+03  0.7818608E-02  0.1165295E+00
         11   -1    0    0    0    0  0.00000000000E+00  0.00000000000E+00  0.10000318971E+04  0.10000318971E+04  0.51100000000E-03 0. -1.
          2   -1    0    0  501    0 -0.00000000000E+00 -0.00000000000E+00 -0.33823643571E+02  0.33823643667E+02  0.25500000000E-02 0. -1.
         11    1    1    2    0    0 -0.16494473470E+03  0.36603802960E+02  0.47708632319E+03  0.50612050312E+03  0.51100000000E-03 0. -1.
         22    1    1    2    0    0 -0.12306640994E+02  0.73362580599E+01  0.53478009094E+02  0.55363991470E+02  0.00000000000E+00 0. -1.
          2    1    1    2  501    0  0.17725137569E+03 -0.43940061020E+02  0.43564392125E+03  0.47237104619E+03  0.25500000000E-02 0. -1.
<mgrwt>
<rscale>  0 0.18261648E+03</rscale>
<asrwt>0</asrwt>
<pdfrwt beam="1">  1       11 0.10000000E+01 0.18375616E+03</pdfrwt>
<pdfrwt beam="2">  1        2 0.52038033E-02 0.18261648E+03</pdfrwt>
<totfact> 0.17802039E+03</totfact>
</mgrwt>
</event>
<event>
 5    1  0.2799727E-003  0.3836064E+03  0.7818608E-02  0.1049609E+00
         11   -1    0    0    0    0  0.00000000000E+00  0.00000000000E+00  0.10001293037E+04  0.10001293037E+04  0.51100000000E-03 0.  1.
          2   -1    0    0  501    0 -0.00000000000E+00 -0.00000000000E+00 -0.17305649857E+03  0.17305649859E+03  0.25500000000E-02 0.  1.
         11    1    1    2    0    0  0.34667286831E+03 -0.12347876270E+03  0.65811590316E+03  0.75401964460E+03  0.51100000000E-03 0.  1.
         22    1    1    2    0    0 -0.24413321960E+02  0.30023474634E+02  0.49871133243E+02  0.63123286109E+02  0.00000000000E+00 0.  1.
          2    1    1    2  501    0 -0.32225954635E+03  0.93455288070E+02  0.11908576872E+03  0.35604287158E+03  0.25500000000E-02 0.  1.
<mgrwt>
<rscale>  0 0.38360635E+03</rscale>
<asrwt>0</asrwt>
<pdfrwt beam="1">  1       11 0.10000000E+01 0.36800691E+03</pdfrwt>
<pdfrwt beam="2">  1        2 0.26627519E-01 0.38360635E+03</pdfrwt>
<totfact> 0.24927490E+02</totfact>
</mgrwt>
</event>
<event>
 5    1  0.2799727E-003  0.3422472E+03  0.7818608E-02  0.1074262E+00
         11   -1    0    0    0    0  0.00000000000E+00  0.00000000000E+00  0.10002957722E+04  0.10002957722E+04  0.51100000000E-03 0. -1.
          2   -1    0    0  501    0 -0.00000000000E+00 -0.00000000000E+00 -0.41758241831E+03  0.41758241832E+03  0.25500000000E-02 0. -1.
         11    1    1    2    0    0 -0.21209868514E+03  0.19626287467E+03  0.79936042474E+03  0.84998944514E+03  0.51100000000E-03 0. -1.
         22    1    1    2    0    0  0.43257709951E+01  0.51084627821E+02  0.10198899259E+03  0.11414949016E+03  0.00000000000E+00 0.  1.
          2    1    1    2  501    0  0.20777291414E+03 -0.24734750249E+03 -0.31863606341E+03  0.45373925524E+03  0.25500000000E-02 0. -1.
<mgrwt>
<rscale>  0 0.32303308E+03</rscale>
<asrwt>0</asrwt>
<pdfrwt beam="1">  1       11 0.10000000E+01 0.34224715E+03</pdfrwt>
<pdfrwt beam="2">  1        2 0.64262449E-01 0.32303308E+03</pdfrwt>
<totfact> 0.94517017E+01</totfact>
</mgrwt>
</event>
<event>
 5    1  0.2799727E-003  0.2651981E+03  0.7818608E-02  0.1287107E+00
         11   -1    0    0    0    0  0.00000000000E+00  0.00000000000E+00  0.10001553046E+04  0.10001553046E+04  0.51100000000E-03 0.  1.
          2   -1    0    0  501    0 -0.00000000000E+00 -0.00000000000E+00 -0.32075687797E+03  0.32075687798E+03  0.25500000000E-02 0.  1.
         11    1    1    2    0    0 -0.17553866085E+03  0.13095964693E+03  0.21036280169E+03  0.30367212403E+03  0.51100000000E-03 0.  1.
         22    1    1    2    0    0  0.19315842565E+03 -0.22617285393E+03  0.70337914575E+03  0.76367961864E+03  0.00000000000E+00 0.  1.
          2    1    1    2  501    0 -0.17619764798E+02  0.95213206993E+02 -0.23434352085E+03  0.25356043987E+03  0.25500000000E-02 0.  1.
<mgrwt>
<rscale>  0 0.96829804E+02</rscale>
<asrwt>0</asrwt>
<pdfrwt beam="1">  1       11 0.10000000E+01 0.26519807E+03</pdfrwt>
<pdfrwt beam="2">  1        2 0.49354874E-01 0.96829804E+02</pdfrwt>
<totfact> 0.12600837E+02</totfact>
</mgrwt>
</event>
<event>
 5    1  0.2799727E-003  0.1499796E+03  0.7818608E-02  0.1200498E+00
         11   -1    0    0    0    0  0.00000000000E+00  0.00000000000E+00  0.10000860426E+04  0.10000860426E+04  0.51100000000E-03 0. -1.
          2   -1    0    0  501    0 -0.00000000000E+00 -0.00000000000E+00 -0.48518782690E+02  0.48518782757E+02  0.25500000000E-02 0.  1.
         11    1    1    2    0    0 -0.10434164487E+03  0.37996276128E+02  0.57071780799E+03  0.58142042638E+03  0.51100000000E-03 0. -1.
         22    1    1    2    0    0 -0.98060668296E+01  0.83164018408E+02  0.22127543661E+03  0.23659085306E+03  0.00000000000E+00 0.  1.
          2    1    1    2  501    0  0.11414771170E+03 -0.12116029454E+03  0.15957401535E+03  0.23059354596E+03  0.25500000000E-02 0.  1.
<mgrwt>
<rscale>  0 0.14997960E+03</rscale>
<asrwt>0</asrwt>
<pdfrwt beam="1">  1       11 0.10000000E+01 0.83740151E+02</pdfrwt>
<pdfrwt beam="2">  1        2 0.74650702E-02 0.14997960E+03</pdfrwt>
<totfact> 0.11020689E+03</totfact>
</mgrwt>
</event>
<event>
 5    1  0.2799727E-003  0.2739334E+03  0.7818608E-02  0.1111692E+00
         11   -1    0    0    0    0  0.00000000000E+00  0.00000000000E+00  0.10004334543E+04  0.10004334543E+04  0.51100000000E-03 0. -1.
          2   -1    0    0  501    0 -0.00000000000E+00 -0.00000000000E+00 -0.34535654602E+03  0.34535654603E+03  0.25500000000E-02 0. -1.
         11    1    1    2    0    0 -0.12823969153E+03 -0.70836799142E+01  0.44642904221E+03  0.46453685186E+03  0.51100000000E-03 0. -1.
         22    1    1    2    0    0 -0.95882026104E+02 -0.10936681174E+03  0.48531365533E+03  0.50663972060E+03  0.00000000000E+00 0. -1.
          2    1    1    2  501    0  0.22412171763E+03  0.11645049165E+03 -0.27666578931E+03  0.37461342782E+03  0.25500000000E-02 0. -1.
<mgrwt>
<rscale>  0 0.25256932E+03</rscale>
<asrwt>0</asrwt>
<pdfrwt beam="1">  1       11 0.10000000E+01 0.27393335E+03</pdfrwt>
<pdfrwt beam="2">  1        2 0.53154805E-01 0.25256932E+03</pdfrwt>
<totfact> 0.11647777E+02</totfact>
</mgrwt>
</event>
<event>
 5    1  0.2799727E-003  0.2123602E+03  0.7818608E-02  0.1154420E+00
         11   -1    0    0    0    0  0.00000000000E+00  0.00000000000E+00  0.10010935583E+04  0.10010935583E+04  0.51100000000E-03 0.  1.
          2   -1    0    0  501    0 -0.00000000000E+00 -0.00000000000E+00 -0.38814329191E+04  0.38814329191E+04  0.25500000000E-02 0.  1.
         11    1    1    2    0    0 -0.23954330123E+02 -0.91265019112E+02  0.53950906331E+03  0.54769804002E+03  0.51100000000E-03 0.  1.
         22    1    1    2    0    0 -0.96502509919E+02 -0.61509566508E+02  0.44785003054E+03  0.46223999291E+03  0.00000000000E+00 0.  1.
          2    1    1    2  501    0  0.12045684004E+03  0.15277458562E+03 -0.38676984546E+04  0.38725884444E+04  0.25500000000E-02 0.  1.
<mgrwt>
<rscale>  0 0.19455057E+03</rscale>
<asrwt>0</asrwt>
<pdfrwt beam="1">  1       11 0.10000000E+01 0.21236019E+03</pdfrwt>
<pdfrwt beam="2">  1        2 0.59779652E+00 0.19455057E+03</pdfrwt>
<totfact> 0.72847679E-01</totfact>
</mgrwt>
</event>
<event>
 5    1  0.2799727E-003  0.1980976E+03  0.7818608E-02  0.1151354E+00
         11   -1    0    0    0    0  0.00000000000E+00  0.00000000000E+00  0.10003810956E+04  0.10003810956E+04  0.51100000000E-03 0.  1.
         -2   -1    0    0    0  501 -0.00000000000E+00 -0.00000000000E+00 -0.37981502037E+03  0.37981502038E+03  0.25500000000E-02 0. -1.
         11    1    1    2    0    0 -0.22800240379E+03 -0.12798077010E+03  0.51049889660E+03  0.57356193831E+03  0.51100000000E-03 0.  1.
         22    1    1    2    0    0  0.47042108319E+02  0.55372179680E+02  0.42775513138E+03  0.43388188561E+03  0.00000000000E+00 0.  1.
         -2    1    1    2    0  501  0.18096029547E+03  0.72608590423E+02 -0.31768795272E+03  0.37275229208E+03  0.25500000000E-02 0. -1.
<mgrwt>
<rscale>  0 0.19809761E+03</rscale>
<asrwt>0</asrwt>
<pdfrwt beam="1">  1       11 0.10000000E+01 0.72656990E+02</pdfrwt>
<pdfrwt beam="2">  1       -2 0.58455347E-01 0.19809761E+03</pdfrwt>
<totfact> 0.22703108E+01</totfact>
</mgrwt>
</event>
<event>
 5    1  0.3159081E-003  0.4561248E+03  0.7818608E-02  0.1026781E+00
         11   -1    0    0    0    0  0.00000000000E+00  0.00000000000E+00  0.10001631558E+04  0.10001631558E+04  0.51100000000E-03 0.  1.
          2   -1    0    0  501    0 -0.00000000000E+00 -0.00000000000E+00 -0.94889501837E+03  0.94889501838E+03  0.25500000000E-02 0.  1.
         11    1    1    2    0    0 -0.35664486167E+03 -0.23959124936E+03  0.81473264602E+03  0.92108024005E+03  0.51100000000E-03 0.  1.
         22    1    1    2    0    0 -0.23323713229E+02 -0.73640167215E+01  0.72811590926E+02  0.76809843863E+02  0.00000000000E+00 0.  1.
          2    1    1    2  501    0  0.37996857490E+03  0.24695526608E+03 -0.83627609951E+03  0.95116809028E+03  0.25500000000E-02 0.  1.
<mgrwt>
<rscale>  0 0.45316997E+03</rscale>
<asrwt>0</asrwt>
<pdfrwt beam="1">  1       11 0.10000000E+01 0.45612482E+03</pdfrwt>
<pdfrwt beam="2">  1        2 0.14600766E+00 0.45316997E+03</pdfrwt>
<totfact> 0.34538287E+01</totfact>
</mgrwt>
</event>
<event>
 5    1  0.2799727E-003  0.8203862E+02  0.7818608E-02  0.1326455E+00
         11   -1    0    0    0    0  0.00000000000E+00  0.00000000000E+00  0.10004510354E+04  0.10004510354E+04  0.51100000000E-03 0. -1.
         -2   -1    0    0    0  501 -0.00000000000E+00 -0.00000000000E+00 -0.12142768141E+02  0.12142768408E+02  0.25500000000E-02 0. -1.
         11    1    1    2    0    0 -0.66988345748E+02 -0.28739844800E+01  0.13391380807E+03  0.14976183174E+03  0.51100000000E-03 0. -1.
         22    1    1    2    0    0 -0.13922989681E+02  0.41928258577E+01  0.21143448170E+02  0.25660764424E+02  0.00000000000E+00 0.  1.
         -2    1    1    2    0  501  0.80911335429E+02 -0.13188413777E+01  0.83325101100E+03  0.83717120763E+03  0.25500000000E-02 0. -1.
<mgrwt>
<rscale>  0 0.80922083E+02</rscale>
<asrwt>0</asrwt>
<pdfrwt beam="1">  1       11 0.10000000E+01 0.82038616E+02</pdfrwt>
<pdfrwt beam="2">  1       -2 0.18689607E-02 0.80922083E+02</pdfrwt>
<totfact> 0.58735456E+03</totfact>
</mgrwt>
</event>
<event>
 5    1  0.2799727E-003  0.7509268E+02  0.7818608E-02  0.1346798E+00
         11   -1    0    0    0    0  0.00000000000E+00  0.00000000000E+00  0.10000755683E+04  0.10000755683E+04  0.51100000000E-03 0. -1.
          2   -1    0    0  501    0 -0.00000000000E+00 -0.00000000000E+00 -0.68041731688E+01  0.68041736467E+01  0.25500000000E-02 0. -1.
         11    1    1    2    0    0 -0.58241499821E+02 -0.25807150765E+02  0.22924059120E+03  0.23792715269E+03  0.51100000000E-03 0. -1.
         22    1    1    2    0    0 -0.79496041479E+01 -0.74201557990E+01  0.55047029968E+02  0.56110876187E+02  0.00000000000E+00 0.  1.
          2    1    1    2  501    0  0.66191103969E+02  0.33227306564E+02  0.70898377393E+03  0.71284171304E+03  0.25500000000E-02 0. -1.
<mgrwt>
<rscale>  0 0.74062920E+02</rscale>
<asrwt>0</asrwt>
<pdfrwt beam="1">  1       11 0.10000000E+01 0.75092682E+02</pdfrwt>
<pdfrwt beam="2">  1        2 0.10468750E-02 0.74062920E+02</pdfrwt>
<totfact> 0.13876747E+04</totfact>
</mgrwt>
</event>
<event>
 5    1  0.2799727E-003  0.1441813E+03  0.7818608E-02  0.1212858E+00
         11   -1    0    0    0    0  0.00000000000E+00  0.00000000000E+00  0.10003723885E+04  0.10003723885E+04  0.51100000000E-03 0. -1.
          2   -1    0    0  501    0 -0.00000000000E+00 -0.00000000000E+00 -0.20376128264E+02  0.20376128424E+02  0.25500000000E-02 0. -1.
         11    1    1    2    0    0 -0.10213752557E+03  0.29275844702E+02  0.43650998431E+03  0.44925506743E+03  0.51100000000E-03 0. -1.
         22    1    1    2    0    0 -0.35975992243E+02 -0.43188869989E+01  0.10295717643E+03  0.10914717120E+03  0.00000000000E+00 0. -1.
          2    1    1    2  501    0  0.13811351781E+03 -0.24956957704E+02  0.44052909952E+03  0.46234627832E+03  0.25500000000E-02 0. -1.
<mgrwt>
<rscale>  0 0.14035025E+03</rscale>
<asrwt>0</asrwt>
<pdfrwt beam="1">  1       11 0.10000000E+01 0.14418128E+03</pdfrwt>
<pdfrwt beam="2">  1        2 0.31359562E-02 0.14035025E+03</pdfrwt>
<totfact> 0.34107494E+03</totfact>
</mgrwt>
</event>
<event>
 5    1  0.2799727E-003  0.1995617E+03  0.7818608E-02  0.1155236E+00
         11   -1    0    0    0    0  0.00000000000E+00  0.00000000000E+00  0.10004421963E+04  0.10004421963E+04  0.51100000000E-03 0.  1.
          2   -1    0    0  501    0 -0.00000000000E+00 -0.00000000000E+00 -0.38533910824E+03  0.38533910825E+03  0.25500000000E-02 0.  1.
         11    1    1    2    0    0 -0.25490369560E+02 -0.12499218776E+03  0.56462718560E+03  0.57885806953E+03  0.51100000000E-03 0.  1.
         22    1    1    2    0    0  0.17465152626E+02 -0.68461182257E+02  0.40062472249E+03  0.40680724343E+03  0.00000000000E+00 0. -1.
          2    1    1    2  501    0  0.80252169343E+01  0.19345337002E+03 -0.35014882008E+03  0.40011599154E+03  0.25500000000E-02 0.  1.
<mgrwt>
<rscale>  0 0.19361976E+03</rscale>
<asrwt>0</asrwt>
<pdfrwt beam="1">  1       11 0.10000000E+01 0.19956168E+03</pdfrwt>
<pdfrwt beam="2">  1        2 0.59309153E-01 0.19361976E+03</pdfrwt>
<totfact> 0.10358425E+02</totfact>
</mgrwt>
</event>
<event>
 5    1  0.2799727E-003  0.1838965E+03  0.7818608E-02  0.1164084E+00
         11   -1    0    0    0    0  0.00000000000E+00  0.00000000000E+00  0.10011045026E+04  0.10011045026E+04  0.51100000000E-03 0. -1.
          2   -1    0    0  501    0 -0.00000000000E+00 -0.00000000000E+00 -0.21703735412E+04  0.21703735412E+04  0.25500000000E-02 0. -1.
         11    1    1    2    0    0 -0.42362635158E+02  0.16403126165E+03  0.94308387188E+03  0.95817954322E+03  0.51100000000E-03 0. -1.
         22    1    1    2    0    0  0.12753132852E+02  0.17529186682E+02  0.44033216498E+02  0.49079923986E+02  0.00000000000E+00 0. -1.
          2    1    1    2  501    0  0.29609502306E+02 -0.18156044833E+03 -0.21563861269E+04  0.21642185766E+04  0.25500000000E-02 0. -1.
<mgrwt>
<rscale>  0 0.18389647E+03</rscale>
<asrwt>0</asrwt>
<pdfrwt beam="1">  1       11 0.10000000E+01 0.21677518E+02</pdfrwt>
<pdfrwt beam="2">  1        2 0.33427241E+00 0.18389647E+03</pdfrwt>
<totfact> 0.78707819E+00</totfact>
</mgrwt>
</event>
<event>
 5    1  0.2799727E-003  0.3428306E+02  0.7818608E-02  0.1578091E+00
         11   -1    0    0    0    0  0.00000000000E+00  0.00000000000E+00  0.10003105209E+04  0.10003105209E+04  0.51100000000E-03 0. -1.
         -2   -1    0    0    0  501 -0.00000000000E+00 -0.00000000000E+00 -0.45965215591E+01  0.45965222664E+01  0.25500000000E-02 0. -1.
         11    1    1    2    0    0 -0.15588275608E+02 -0.13849946063E+02  0.27590064149E+02  0.34583623037E+02  0.51100000000E-03 0. -1.
         22    1    1    2    0    0 -0.79385024427E+01 -0.76780668747E+01  0.36042473081E+02  0.37696583370E+02  0.00000000000E+00 0. -1.
         -2    1    1    2    0  501  0.23526778051E+02  0.21528012937E+02  0.93208146207E+03  0.93262683672E+03  0.25500000000E-02 0. -1.
<mgrwt>
<rscale>  0 0.31889883E+02</rscale>
<asrwt>0</asrwt>
<pdfrwt beam="1">  1       11 0.10000000E+01 0.34283064E+02</pdfrwt>
<pdfrwt beam="2">  1       -2 0.70737678E-03 0.31889883E+02</pdfrwt>
<totfact> 0.19223677E+04</totfact>
</mgrwt>
</event>
<event>
 5    1  0.2799727E-003  0.2043230E+03  0.7818608E-02  0.1150434E+00
         11   -1    0    0    0    0  0.00000000000E+00  0.00000000000E+00  0.10002130534E+04  0.10002130534E+04  0.51100000000E-03 0. -1.
          2   -1    0    0  501    0 -0.00000000000E+00 -0.00000000000E+00 -0.67023395740E+02  0.67023395788E+02  0.25500000000E-02 0. -1.
         11    1    1    2    0    0  0.18762170149E+03  0.17841502017E+02  0.72859263874E+03  0.75257388693E+03  0.51100000000E-03 0. -1.
         22    1    1    2    0    0  0.92493704374E+01  0.12387433178E+02  0.76048762363E+02  0.77604211298E+02  0.00000000000E+00 0.  1.
          2    1    1    2  501    0 -0.19687107193E+03 -0.30228935195E+02  0.12854825654E+03  0.23705835094E+03  0.25500000000E-02 0. -1.
<mgrwt>
<rscale>  0 0.19917833E+03</rscale>
<asrwt>0</asrwt>
<pdfrwt beam="1">  1       11 0.10000000E+01 0.20432301E+03</pdfrwt>
<pdfrwt beam="2">  1        2 0.10313488E-01 0.19917833E+03</pdfrwt>
<totfact> 0.74743347E+02</totfact>
</mgrwt>
</event>
<event>
 5    1  0.2799727E-003  0.7905739E+03  0.7818608E-02  0.9580134E-01
         11   -1    0    0    0    0  0.00000000000E+00  0.00000000000E+00  0.10004012512E+04  0.10004012512E+04  0.51100000000E-03 0. -1.
         -2   -1    0    0    0  501 -0.00000000000E+00 -0.00000000000E+00 -0.73832754155E+03  0.73832754155E+03  0.25500000000E-02 0.  1.
         11    1    1    2    0    0 -0.46197974724E+03  0.59127490570E+03  0.47199533102E+03  0.88645975288E+03  0.51100000000E-03 0. -1.
         22    1    1    2    0    0 -0.16019326506E+02  0.32991238414E+02  0.53916082571E+01  0.37068990726E+02  0.00000000000E+00 0. -1.
         -2    1    1    2    0  501  0.47799907375E+03 -0.62426614411E+03 -0.21531322967E+03  0.81520004911E+03  0.25500000000E-02 0.  1.
<mgrwt>
<rscale>  0 0.78625144E+03</rscale>
<asrwt>0</asrwt>
<pdfrwt beam="1">  1       11 0.10000000E+01 0.79057387E+03</pdfrwt>
<pdfrwt beam="2">  1       -2 0.11363443E+00 0.78625144E+03</pdfrwt>
<totfact> 0.49547194E+00</totfact>
</mgrwt>
</event>
<event>
 5    1  0.2799727E-003  0.1117945E+03  0.7818608E-02  0.1257282E+00
         11   -1    0    0    0    0  0.00000000000E+00  0.00000000000E+00  0.10003472732E+04  0.10003472732E+04  0.51100000000E-03 0. -1.
          2   -1    0    0  501    0 -0.00000000000E+00 -0.00000000000E+00 -0.13270135529E+02  0.13270135774E+02  0.25500000000E-02 0.  1.
         11    1    1    2    0    0  0.21620914797E+02 -0.10676860351E+03  0.63317365258E+03  0.64247635985E+03  0.51100000000E-03 0. -1.
         22    1    1    2    0    0  0.49401443908E+01  0.87821871842E+01  0.26148996332E+02  0.28023237635E+02  0.00000000000E+00 0. -1.
          2    1    1    2  501    0 -0.26561059187E+02  0.97986416321E+02  0.32775448873E+03  0.34311781146E+03  0.25500000000E-02 0.  1.
<mgrwt>
<rscale>  0 0.11179446E+03</rscale>
<asrwt>0</asrwt>
<pdfrwt beam="1">  1       11 0.10000000E+01 0.10893575E+03</pdfrwt>
<pdfrwt beam="2">  1        2 0.20422683E-02 0.11179446E+03</pdfrwt>
<totfact> 0.59347828E+03</totfact>
</mgrwt>
</event>
<event>
 5    1  0.2799727E-003  0.1310562E+03  0.7818608E-02  0.1225897E+00
         11   -1    0    0    0    0  0.00000000000E+00  0.00000000000E+00  0.10003072222E+04  0.10003072222E+04  0.51100000000E-03 0.  1.
          2   -1    0    0  501    0 -0.00000000000E+00 -0.00000000000E+00 -0.10950545276E+03  0.10950545279E+03  0.25500000000E-02 0.  1.
         11    1    1    2    0    0  0.92781545145E+02 -0.10044830925E+03  0.58399835130E+03  0.59979359139E+03  0.51100000000E-03 0.  1.
         22    1    1    2    0    0 -0.12178539812E+03 -0.31647323117E+02  0.34685261845E+03  0.36897150998E+03  0.00000000000E+00 0. -1.
          2    1    1    2  501    0  0.29003852972E+02  0.13209563236E+03 -0.40049200290E+02  0.14104757363E+03  0.25500000000E-02 0.  1.
<mgrwt>
<rscale>  0 0.13105616E+03</rscale>
<asrwt>0</asrwt>
<pdfrwt beam="1">  1       11 0.10000000E+01 0.12583019E+03</pdfrwt>
<pdfrwt beam="2">  1        2 0.16852168E-01 0.13105616E+03</pdfrwt>
<totfact> 0.40803783E+02</totfact>
</mgrwt>
</event>
<event>
 5    1  0.2799727E-003  0.1718297E+03  0.7818608E-02  0.1187677E+00
         11   -1    0    0    0    0  0.00000000000E+00  0.00000000000E+00  0.10001938485E+04  0.10001938485E+04  0.51100000000E-03 0.  1.
          2   -1    0    0  501    0 -0.00000000000E+00 -0.00000000000E+00 -0.31463084217E+02  0.31463084320E+02  0.25500000000E-02 0.  1.
         11    1    1    2    0    0 -0.31777247538E+02 -0.14260430747E+03  0.56435851914E+03  0.58296339516E+03  0.51100000000E-03 0.  1.
         22    1    1    2    0    0 -0.24165811544E+02 -0.82640776272E+01  0.11293945469E+03  0.11579119937E+03  0.00000000000E+00 0. -1.
          2    1    1    2  501    0  0.55943059082E+02  0.15086838509E+03  0.29143279046E+03  0.33290233830E+03  0.25500000000E-02 0.  1.
<mgrwt>
<rscale>  0 0.16090648E+03</rscale>
<asrwt>0</asrwt>
<pdfrwt beam="1">  1       11 0.10000000E+01 0.17182968E+03</pdfrwt>
<pdfrwt beam="2">  1        2 0.48414127E-02 0.16090648E+03</pdfrwt>
<totfact> 0.19382481E+03</totfact>
</mgrwt>
</event>
<event>
 5    1  0.2799727E-003  0.6719691E+03  0.7818608E-02  0.9788281E-01
         11   -1    0    0    0    0  0.00000000000E+00  0.00000000000E+00  0.99992929793E+03  0.99992929793E+03  0.51100000000E-03 0. -1.
         -2   -1    0    0    0  501 -0.00000000000E+00 -0.00000000000E+00 -0.53671474567E+03  0.53671474568E+03  0.25500000000E-02 0.  1.
         11    1    1    2    0    0  0.19213246755E+03 -0.47258866692E+03  0.46558105504E+03  0.69066681692E+03  0.51100000000E-03 0. -1.
         22    1    1    2    0    0  0.10493699345E+03 -0.11672186009E+03  0.87876498837E+02  0.17988341854E+03  0.00000000000E+00 0.  1.
         -2    1    1    2    0  501 -0.29706946101E+03  0.58931052701E+03 -0.90243001612E+02  0.66609380815E+03  0.25500000000E-02 0.  1.
<mgrwt>
<rscale>  0 0.65995239E+03</rscale>
<asrwt>0</asrwt>
<pdfrwt beam="1">  1       11 0.10000000E+01 0.67196908E+03</pdfrwt>
<pdfrwt beam="2">  1       -2 0.82565659E-01 0.65995239E+03</pdfrwt>
<totfact> 0.10550319E+01</totfact>
</mgrwt>
</event>
<event>
 5    1  0.2799727E-003  0.1227702E+03  0.7818608E-02  0.1394666E+00
         11   -1    0    0    0    0  0.00000000000E+00  0.00000000000E+00  0.10007179063E+04  0.10007179063E+04  0.51100000000E-03 0.  1.
          2   -1    0    0  501    0 -0.00000000000E+00 -0.00000000000E+00 -0.22087828045E+02  0.22087828192E+02  0.25500000000E-02 0.  1.
         11    1    1    2    0    0 -0.12743194479E+03  0.74363491806E+01  0.45789414317E+03  0.47535381159E+03  0.51100000000E-03 0.  1.
         22    1    1    2    0    0  0.12325312105E+02  0.27429571372E+02  0.31099692342E+02  0.43260669989E+02  0.00000000000E+00 0.  1.
          2    1    1    2  501    0  0.11510663268E+03 -0.34865920553E+02  0.48963624276E+03  0.50419125293E+03  0.25500000000E-02 0.  1.
<mgrwt>
<rscale>  0 0.60760846E+02</rscale>
<asrwt>0</asrwt>
<pdfrwt beam="1">  1       11 0.10000000E+01 0.12277017E+03</pdfrwt>
<pdfrwt beam="2">  1        2 0.34005668E-02 0.60760846E+02</pdfrwt>
<totfact> 0.27980117E+03</totfact>
</mgrwt>
</event>
<event>
 5    1  0.2799727E-003  0.1172402E+03  0.7818608E-02  0.1263419E+00
         11   -1    0    0    0    0  0.00000000000E+00  0.00000000000E+00  0.10001904813E+04  0.10001904813E+04  0.51100000000E-03 0. -1.
          2   -1    0    0  501    0 -0.00000000000E+00 -0.00000000000E+00 -0.12754833420E+02  0.12754833675E+02  0.25500000000E-02 0. -1.
         11    1    1    2    0    0  0.55451139662E+02 -0.28274870169E+02  0.26970012093E+03  0.27678954532E+03  0.51100000000E-03 0. -1.
         22    1    1    2    0    0  0.17380131482E+02 -0.52115393001E+02  0.22294791325E+03  0.22961675719E+03  0.00000000000E+00 0.  1.
          2    1    1    2  501    0 -0.72831271144E+02  0.80390263170E+02  0.49478761372E+03  0.50653901248E+03  0.25500000000E-02 0. -1.
<mgrwt>
<rscale>  0 0.10847575E+03</rscale>
<asrwt>0</asrwt>
<pdfrwt beam="1">  1       11 0.10000000E+01 0.11724017E+03</pdfrwt>
<pdfrwt beam="2">  1        2 0.19626558E-02 0.10847575E+03</pdfrwt>
<totfact> 0.62403911E+03</totfact>
</mgrwt>
</event>
<event>
 5    1  0.2799727E-003  0.2112735E+03  0.7818608E-02  0.1140561E+00
         11   -1    0    0    0    0  0.00000000000E+00  0.00000000000E+00  0.10009688276E+04  0.10009688276E+04  0.51100000000E-03 0. -1.
          2   -1    0    0  501    0 -0.00000000000E+00 -0.00000000000E+00 -0.26624606897E+04  0.26624606897E+04  0.25500000000E-02 0. -1.
         11    1    1    2    0    0 -0.24814540546E+03 -0.22555843379E+02  0.77682539600E+03  0.81580794565E+03  0.51100000000E-03 0. -1.
         22    1    1    2    0    0  0.61347620680E+02 -0.75936225418E+02  0.18852727755E+03  0.21230255598E+03  0.00000000000E+00 0. -1.
          2    1    1    2  501    0  0.18679778478E+03  0.98492068797E+02 -0.26268445357E+04  0.26353190157E+04  0.25500000000E-02 0. -1.
<mgrwt>
<rscale>  0 0.21127353E+03</rscale>
<asrwt>0</asrwt>
<pdfrwt beam="1">  1       11 0.10000000E+01 0.97620904E+02</pdfrwt>
<pdfrwt beam="2">  1        2 0.41000617E+00 0.21127353E+03</pdfrwt>
<totfact> 0.42086819E+00</totfact>
</mgrwt>
</event>
<event>
 5    1  0.2799727E-003  0.9581270E+02  0.7818608E-02  0.1306513E+00
         11   -1    0    0    0    0  0.00000000000E+00  0.00000000000E+00  0.10001421013E+04  0.10001421013E+04  0.51100000000E-03 0.  1.
          2   -1    0    0  501    0 -0.00000000000E+00 -0.00000000000E+00 -0.84999948547E+01  0.84999952372E+01  0.25500000000E-02 0.  1.
         11    1    1    2    0    0  0.36785779838E+02 -0.56092104658E+02  0.40116212732E+03  0.40673157020E+03  0.51100000000E-03 0.  1.
         22    1    1    2    0    0 -0.44086407705E+01 -0.26278049182E+02  0.98882564463E+02  0.10240963596E+03  0.00000000000E+00 0.  1.
          2    1    1    2  501    0 -0.32377139068E+02  0.82370153841E+02  0.49159741467E+03  0.49950089038E+03  0.25500000000E-02 0.  1.
<mgrwt>
<rscale>  0 0.88504923E+02</rscale>
<asrwt>0</asrwt>
<pdfrwt beam="1">  1       11 0.10000000E+01 0.95812703E+02</pdfrwt>
<pdfrwt beam="2">  1        2 0.13078773E-02 0.88504923E+02</pdfrwt>
<totfact> 0.10539631E+04</totfact>
</mgrwt>
</event>
<event>
 5    1  0.2799727E-003  0.1890119E+03  0.7818608E-02  0.1161415E+00
         11   -1    0    0    0    0  0.00000000000E+00  0.00000000000E+00  0.10001550840E+04  0.10001550840E+04  0.51100000000E-03 0.  1.
          2   -1    0    0  501    0 -0.00000000000E+00 -0.00000000000E+00 -0.54083458735E+02  0.54083458795E+02  0.25500000000E-02 0.  1.
         11    1    1    2    0    0 -0.16190233053E+03  0.65578383752E+02  0.74380662636E+03  0.76404266011E+03  0.51100000000E-03 0.  1.
         22    1    1    2    0    0 -0.13576965610E+02 -0.16488965670E+01  0.41752321550E+02  0.43935284339E+02  0.00000000000E+00 0.  1.
          2    1    1    2  501    0  0.17547929614E+03 -0.63929487185E+02  0.16051267737E+03  0.24626059836E+03  0.25500000000E-02 0.  1.
<mgrwt>
<rscale>  0 0.18676178E+03</rscale>
<asrwt>0</asrwt>
<pdfrwt beam="1">  1       11 0.10000000E+01 0.18901190E+03</pdfrwt>
<pdfrwt beam="2">  1        2 0.83218223E-02 0.18676178E+03</pdfrwt>
<totfact> 0.97373463E+02</totfact>
</mgrwt>
</event>
<event>
 5    1  0.2799727E-003  0.5681838E+02  0.7818608E-02  0.1548672E+00
         11   -1    0    0    0    0  0.00000000000E+00  0.00000000000E+00  0.10002348560E+04  0.10002348560E+04  0.51100000000E-03 0.  1.
          2   -1    0    0  501    0 -0.00000000000E+00 -0.00000000000E+00 -0.11385502596E+02  0.11385502882E+02  0.25500000000E-02 0.  1.
         11    1    1    2    0    0 -0.40460008925E+02 -0.26551367790E+02  0.92376088810E+02  0.10428484664E+03  0.51100000000E-03 0.  1.
         22    1    1    2    0    0  0.57890006245E+01 -0.20757963248E+02  0.21646359867E+02  0.30544565178E+02  0.00000000000E+00 0.  1.
          2    1    1    2  501    0  0.34671008301E+02  0.47309331038E+02  0.87482690469E+03  0.87679094703E+03  0.25500000000E-02 0.  1.
<mgrwt>
<rscale>  0 0.34991992E+02</rscale>
<asrwt>0</asrwt>
<pdfrwt beam="1">  1       11 0.10000000E+01 0.56818378E+02</pdfrwt>
<pdfrwt beam="2">  1        2 0.17520271E-02 0.34991992E+02</pdfrwt>
<totfact> 0.61491438E+03</totfact>
</mgrwt>
</event>
<event>
 5    1  0.2799727E-003  0.1163852E+03  0.7818608E-02  0.1253261E+00
         11   -1    0    0    0    0  0.00000000000E+00  0.00000000000E+00  0.10003969124E+04  0.10003969124E+04  0.51100000000E-03 0.  1.
          2   -1    0    0  501    0 -0.00000000000E+00 -0.00000000000E+00 -0.16621041480E+02  0.16621041676E+02  0.25500000000E-02 0.  1.
         11    1    1    2    0    0 -0.79657237359E+02 -0.65643701779E+02  0.22243364615E+03  0.24521643090E+03  0.51100000000E-03 0.  1.
         22    1    1    2    0    0 -0.10846087993E+02 -0.37457028360E+01  0.45092974608E+02  0.46530036251E+02  0.00000000000E+00 0.  1.
          2    1    1    2  501    0  0.90503325352E+02  0.69389404615E+02  0.71624925021E+03  0.72527148697E+03  0.25500000000E-02 0.  1.
<mgrwt>
<rscale>  0 0.11404272E+03</rscale>
<asrwt>0</asrwt>
<pdfrwt beam="1">  1       11 0.10000000E+01 0.11638517E+03</pdfrwt>
<pdfrwt beam="2">  1        2 0.25580982E-02 0.11404272E+03</pdfrwt>
<totfact> 0.43877618E+03</totfact>
</mgrwt>
</event>
<event>
 5    1  0.2799727E-003  0.2487739E+03  0.7818608E-02  0.1117466E+00
         11   -1    0    0    0    0  0.00000000000E+00  0.00000000000E+00  0.10005879273E+04  0.10005879273E+04  0.51100000000E-03 0. -1.
          2   -1    0    0  501    0 -0.00000000000E+00 -0.00000000000E+00 -0.92507185730E+03  0.92507185730E+03  0.25500000000E-02 0. -1.
         11    1    1    2    0    0  0.81747250395E+02 -0.14835318296E+03  0.74743080309E+03  0.76638377152E+03  0.51100000000E-03 0. -1.
         22    1    1    2    0    0  0.21405195649E+02 -0.72246605382E+02  0.22113386599E+03  0.23361922240E+03  0.00000000000E+00 0.  1.
          2    1    1    2  501    0 -0.10315244604E+03  0.22059978834E+03 -0.89304859910E+03  0.92565679066E+03  0.25500000000E-02 0. -1.
<mgrwt>
<rscale>  0 0.24352555E+03</rscale>
<asrwt>0</asrwt>
<pdfrwt beam="1">  1       11 0.10000000E+01 0.24877393E+03</pdfrwt>
<pdfrwt beam="2">  1        2 0.14240242E+00 0.24352555E+03</pdfrwt>
<totfact> 0.36737776E+01</totfact>
</mgrwt>
</event>
<event>
 5    1  0.2799727E-003  0.8063917E+02  0.7818608E-02  0.1338662E+00
         11   -1    0    0    0    0  0.00000000000E+00  0.00000000000E+00  0.10002316939E+04  0.10002316939E+04  0.51100000000E-03 0. -1.
          2   -1    0    0  501    0 -0.00000000000E+00 -0.00000000000E+00 -0.36011218449E+02  0.36011218539E+02  0.25500000000E-02 0. -1.
         11    1    1    2    0    0  0.24174209869E+02  0.63827394171E+02  0.92952628044E+01  0.68882004764E+02  0.51100000000E-03 0. -1.
         22    1    1    2    0    0 -0.60342625368E+01  0.10704868146E+02  0.34019102721E+01  0.12750667429E+02  0.00000000000E+00 0. -1.
          2    1    1    2  501    0 -0.18139947333E+02 -0.74532262316E+02  0.95152330237E+03  0.95461024024E+03  0.25500000000E-02 0. -1.
<mgrwt>
<rscale>  0 0.76707991E+02</rscale>
<asrwt>0</asrwt>
<pdfrwt beam="1">  1       11 0.10000000E+01 0.80639165E+02</pdfrwt>
<pdfrwt beam="2">  1        2 0.55414709E-02 0.76707991E+02</pdfrwt>
<totfact> 0.15279208E+03</totfact>
</mgrwt>
</event>
<event>
 5    1  0.2799727E-003  0.5597586E+02  0.7818608E-02  0.1420832E+00
         11   -1    0    0    0    0  0.00000000000E+00  0.00000000000E+00  0.10006330950E+04  0.10006330950E+04  0.51100000000E-03 0. -1.
          2   -1    0    0  501    0 -0.00000000000E+00 -0.00000000000E+00 -0.45707192337E+01  0.45707199450E+01  0.25500000000E-02 0. -1.
         11    1    1    2    0    0 -0.30878910363E+02  0.20353579875E+02  0.15211089698E+03  0.15654232750E+03  0.51100000000E-03 0. -1.
         22    1    1    2    0    0 -0.18254835682E+02  0.40159022192E+01  0.61193660588E+02  0.63984612154E+02  0.00000000000E+00 0.  1.
          2    1    1    2  501    0  0.49133746045E+02 -0.24369482094E+02  0.78275781817E+03  0.78467687526E+03  0.25500000000E-02 0. -1.
<mgrwt>
<rscale>  0 0.54845206E+02</rscale>
<asrwt>0</asrwt>
<pdfrwt beam="1">  1       11 0.10000000E+01 0.55975859E+02</pdfrwt>
<pdfrwt beam="2">  1        2 0.70363279E-03 0.54845206E+02</pdfrwt>
<totfact> 0.22537257E+04</totfact>
</mgrwt>
</event>
<event>
 5    1  0.2799727E-003  0.9206268E+02  0.7818608E-02  0.1297997E+00
         11   -1    0    0    0    0  0.00000000000E+00  0.00000000000E+00  0.10000376569E+04  0.10000376569E+04  0.51100000000E-03 0. -1.
          2   -1    0    0  501    0 -0.00000000000E+00 -0.00000000000E+00 -0.57754237308E+02  0.57754237364E+02  0.25500000000E-02 0. -1.
         11    1    1    2    0    0 -0.92228377348E+02 -0.65393083641E+02  0.48016769739E+02  0.12283297258E+03  0.51100000000E-03 0. -1.
         22    1    1    2    0    0  0.87651495919E+02 -0.27975552137E+02  0.10267998672E+03  0.13787166470E+03  0.00000000000E+00 0.  1.
          2    1    1    2  501    0  0.45768814285E+01  0.93368635778E+02  0.79158666309E+03  0.79708725694E+03  0.25500000000E-02 0. -1.
<mgrwt>
<rscale>  0 0.92035159E+02</rscale>
<asrwt>0</asrwt>
<pdfrwt beam="1">  1       11 0.10000000E+01 0.92062676E+02</pdfrwt>
<pdfrwt beam="2">  1        2 0.88856016E-02 0.92035159E+02</pdfrwt>
<totfact> 0.85849002E+02</totfact>
</mgrwt>
</event>
<event>
 5    1  0.2799727E-003  0.2261173E+03  0.7818608E-02  0.1132603E+00
         11   -1    0    0    0    0  0.00000000000E+00  0.00000000000E+00  0.10001654257E+04  0.10001654257E+04  0.51100000000E-03 0. -1.
          2   -1    0    0  501    0 -0.00000000000E+00 -0.00000000000E+00 -0.56703295157E+02  0.56703295214E+02  0.25500000000E-02 0. -1.
         11    1    1    2    0    0 -0.19641454477E+03 -0.17128383232E+02  0.25018446120E+03  0.31853464417E+03  0.51100000000E-03 0. -1.
         22    1    1    2    0    0 -0.22616321405E+02 -0.17332345257E+02  0.45758268213E+02  0.53904798450E+02  0.00000000000E+00 0. -1.
          2    1    1    2  501    0  0.21903086617E+03  0.34460728489E+02  0.64751940115E+03  0.68442927832E+03  0.25500000000E-02 0. -1.
<mgrwt>
<rscale>  0 0.22172520E+03</rscale>
<asrwt>0</asrwt>
<pdfrwt beam="1">  1       11 0.10000000E+01 0.22611731E+03</pdfrwt>
<pdfrwt beam="2">  1        2 0.87250267E-02 0.22172520E+03</pdfrwt>
<totfact> 0.92619149E+02</totfact>
</mgrwt>
</event>
<event>
 5    1  0.2799727E-003  0.2535269E+03  0.7818608E-02  0.1414117E+00
         11   -1    0    0    0    0  0.00000000000E+00  0.00000000000E+00  0.99989707995E+03  0.99989707995E+03  0.51100000000E-03 0. -1.
          2   -1    0    0  501    0 -0.00000000000E+00 -0.00000000000E+00 -0.40580884045E+03  0.40580884046E+03  0.25500000000E-02 0.  1.
         11    1    1    2    0    0  0.15874618131E+03  0.16927271646E+03  0.46606193305E+03  0.52064126618E+03  0.51100000000E-03 0. -1.
         22    1    1    2    0    0 -0.18120630825E+03 -0.22088236108E+03  0.46373040650E+03  0.54467479609E+03  0.00000000000E+00 0.  1.
          2    1    1    2  501    0  0.22460126946E+02  0.51609644623E+02 -0.33570410005E+03  0.34038985813E+03  0.25500000000E-02 0.  1.
<mgrwt>
<rscale>  0 0.56285102E+02</rscale>
<asrwt>0</asrwt>
<pdfrwt beam="1">  1       11 0.10000000E+01 0.25352689E+03</pdfrwt>
<pdfrwt beam="2">  1        2 0.62425702E-01 0.56285102E+02</pdfrwt>
<totfact> 0.98644854E+01</totfact>
</mgrwt>
</event>
<event>
 5    1  0.2799727E-003  0.1123207E+03  0.7818608E-02  0.1258518E+00
         11   -1    0    0    0    0  0.00000000000E+00  0.00000000000E+00  0.10002229671E+04  0.10002229671E+04  0.51100000000E-03 0.  1.
          2   -1    0    0  501    0 -0.00000000000E+00 -0.00000000000E+00 -0.12844512279E+02  0.12844512532E+02  0.25500000000E-02 0.  1.
         11    1    1    2    0    0 -0.40336143473E+02  0.89618677641E+02  0.34032739191E+03  0.35423332076E+03  0.51100000000E-03 0.  1.
         22    1    1    2    0    0 -0.38790398025E+01  0.12320784134E+02  0.70402537283E+02  0.71577691548E+02  0.00000000000E+00 0.  1.
          2    1    1    2  501    0  0.44215183276E+02 -0.10193946177E+03  0.57664852568E+03  0.58725646737E+03  0.25500000000E-02 0.  1.
<mgrwt>
<rscale>  0 0.11111542E+03</rscale>
<asrwt>0</asrwt>
<pdfrwt beam="1">  1       11 0.10000000E+01 0.11232072E+03</pdfrwt>
<pdfrwt beam="2">  1        2 0.19765194E-02 0.11111542E+03</pdfrwt>
<totfact> 0.61995819E+03</totfact>
</mgrwt>
</event>
<event>
 5    1  0.2799727E-003  0.2507771E+03  0.7818608E-02  0.1114930E+00
         11   -1    0    0    0    0  0.00000000000E+00  0.00000000000E+00  0.10001448420E+04  0.10001448420E+04  0.51100000000E-03 0. -1.
          2   -1    0    0  501    0 -0.00000000000E+00 -0.00000000000E+00 -0.77555156599E+02  0.77555156641E+02  0.25500000000E-02 0. -1.
         11    1    1    2    0    0  0.20005075164E+03  0.75028453602E+02  0.57219969239E+03  0.61078806476E+03  0.51100000000E-03 0. -1.
         22    1    1    2    0    0  0.35611348084E+02  0.41877958512E+00  0.13251586412E+03  0.13721806635E+03  0.00000000000E+00 0.  1.
          2    1    1    2  501    0 -0.23566209972E+03 -0.75447233187E+02  0.21787412888E+03  0.32969386752E+03  0.25500000000E-02 0. -1.
<mgrwt>
<rscale>  0 0.24744476E+03</rscale>
<asrwt>0</asrwt>
<pdfrwt beam="1">  1       11 0.10000000E+01 0.25077711E+03</pdfrwt>
<pdfrwt beam="2">  1        2 0.11933290E-01 0.24744476E+03</pdfrwt>
<totfact> 0.63103083E+02</totfact>
</mgrwt>
</event>
<event>
 5    1  0.2799727E-003  0.1701944E+03  0.7818608E-02  0.1194686E+00
         11   -1    0    0    0    0  0.00000000000E+00  0.00000000000E+00  0.10001147036E+04  0.10001147036E+04  0.51100000000E-03 0. -1.
          2   -1    0    0  501    0 -0.00000000000E+00 -0.00000000000E+00 -0.46193789162E+02  0.46193789233E+02  0.25500000000E-02 0. -1.
         11    1    1    2    0    0 -0.97850538654E+01 -0.40180409139E+02  0.22892256738E+03  0.23262793129E+03  0.51100000000E-03 0. -1.
         22    1    1    2    0    0  0.88362203616E+02 -0.93203675768E+02  0.60314684154E+03  0.61666921170E+03  0.00000000000E+00 0. -1.
          2    1    1    2  501    0 -0.78577149750E+02  0.13338408491E+03  0.12185150555E+03  0.19701134988E+03  0.25500000000E-02 0. -1.
<mgrwt>
<rscale>  0 0.15480854E+03</rscale>
<asrwt>0</asrwt>
<pdfrwt beam="1">  1       11 0.10000000E+01 0.17019441E+03</pdfrwt>
<pdfrwt beam="2">  1        2 0.71075518E-02 0.15480854E+03</pdfrwt>
<totfact> 0.11754574E+03</totfact>
</mgrwt>
</event>
<event>
 5    1  0.2799727E-003  0.1247506E+03  0.7818608E-02  0.1235460E+00
         11   -1    0    0    0    0  0.00000000000E+00  0.00000000000E+00  0.10001695018E+04  0.10001695018E+04  0.51100000000E-03 0. -1.
          2   -1    0    0  501    0 -0.00000000000E+00 -0.00000000000E+00 -0.18197478218E+02  0.18197478396E+02  0.25500000000E-02 0. -1.
         11    1    1    2    0    0  0.10592217577E+03  0.66726862508E+02  0.50922457198E+03  0.52438692414E+03  0.51100000000E-03 0. -1.
         22    1    1    2    0    0 -0.10158746905E+02  0.13471275486E+02  0.83295441863E+02  0.84987093356E+02  0.00000000000E+00 0. -1.
          2    1    1    2  501    0 -0.95763428860E+02 -0.80198137994E+02  0.38945200977E+03  0.40899296274E+03  0.25500000000E-02 0. -1.
<mgrwt>
<rscale>  0 0.12475061E+03</rscale>
<asrwt>0</asrwt>
<pdfrwt beam="1">  1       11 0.10000000E+01 0.16872327E+02</pdfrwt>
<pdfrwt beam="2">  1        2 0.28000865E-02 0.12475061E+03</pdfrwt>
<totfact> 0.39236734E+03</totfact>
</mgrwt>
</event>
<event>
 5    1  0.2799727E-003  0.2101861E+03  0.7818608E-02  0.1148804E+00
         11   -1    0    0    0    0  0.00000000000E+00  0.00000000000E+00  0.10000333166E+04  0.10000333166E+04  0.51100000000E-03 0.  1.
          2   -1    0    0  501    0 -0.00000000000E+00 -0.00000000000E+00 -0.16225735863E+03  0.16225735865E+03  0.25500000000E-02 0.  1.
         11    1    1    2    0    0  0.17581205178E+02  0.16045644452E+03  0.82345366748E+03  0.83912532548E+03  0.51100000000E-03 0.  1.
         22    1    1    2    0    0  0.12176050223E+02  0.38442181246E+02  0.97516303947E+02  0.10552481714E+03  0.00000000000E+00 0.  1.
          2    1    1    2  501    0 -0.29757255401E+02 -0.19889862577E+03 -0.83194013425E+02  0.21764053266E+03  0.25500000000E-02 0.  1.
<mgrwt>
<rscale>  0 0.20111230E+03</rscale>
<asrwt>0</asrwt>
<pdfrwt beam="1">  1       11 0.10000000E+01 0.21018612E+03</pdfrwt>
<pdfrwt beam="2">  1        2 0.24963502E-01 0.20111230E+03</pdfrwt>
<totfact> 0.26476341E+02</totfact>
</mgrwt>
</event>
<event>
 5    1  0.2799727E-003  0.2491070E+03  0.7818608E-02  0.1113870E+00
         11   -1    0    0    0    0  0.00000000000E+00  0.00000000000E+00  0.99993735027E+03  0.99993735027E+03  0.51100000000E-03 0. -1.
          2   -1    0    0  501    0 -0.00000000000E+00 -0.00000000000E+00 -0.34412069899E+03  0.34412069900E+03  0.25500000000E-02 0. -1.
         11    1    1    2    0    0  0.38983264406E+02  0.28538762816E+02  0.71319399317E+02  0.86142977694E+02  0.51100000000E-03 0. -1.
         22    1    1    2    0    0  0.19528865730E+03 -0.11721243632E+03  0.85760156704E+03  0.88733131506E+03  0.00000000000E+00 0. -1.
          2    1    1    2  501    0 -0.23427192171E+03  0.88673673502E+02 -0.27310431508E+03  0.37058375652E+03  0.25500000000E-02 0. -1.
<mgrwt>
<rscale>  0 0.24910702E+03</rscale>
<asrwt>0</asrwt>
<pdfrwt beam="1">  1       11 0.10000000E+01 0.48313103E+02</pdfrwt>
<pdfrwt beam="2">  1        2 0.52938328E-01 0.24910702E+03</pdfrwt>
<totfact> 0.11699839E+02</totfact>
</mgrwt>
</event>
<event>
 5    1  0.2799727E-003  0.1674470E+03  0.7818608E-02  0.1183591E+00
         11   -1    0    0    0    0  0.00000000000E+00  0.00000000000E+00  0.99987928479E+03  0.99987928479E+03  0.51100000000E-03 0. -1.
          2   -1    0    0  501    0 -0.00000000000E+00 -0.00000000000E+00 -0.27719793067E+02  0.27719793185E+02  0.25500000000E-02 0. -1.
         11    1    1    2    0    0  0.12966264204E+03  0.33459588830E+02  0.35283955600E+03  0.37739594209E+03  0.51100000000E-03 0. -1.
         22    1    1    2    0    0  0.25495489879E+02  0.21510138267E+02  0.99406797158E+02  0.10485426731E+03  0.00000000000E+00 0. -1.
          2    1    1    2  501    0 -0.15515813192E+03 -0.54969727097E+02  0.51991313857E+03  0.54534886858E+03  0.25500000000E-02 0. -1.
<mgrwt>
<rscale>  0 0.16460777E+03</rscale>
<asrwt>0</asrwt>
<pdfrwt beam="1">  1       11 0.10000000E+01 0.16744701E+03</pdfrwt>
<pdfrwt beam="2">  1        2 0.42640686E-02 0.16460777E+03</pdfrwt>
<totfact> 0.22963909E+03</totfact>
</mgrwt>
</event>
<event>
 5    1  0.2799727E-003  0.1652573E+03  0.7818608E-02  0.1401920E+00
         11   -1    0    0    0    0  0.00000000000E+00  0.00000000000E+00  0.99999139129E+03  0.99999139129E+03  0.51100000000E-03 0. -1.
          2   -1    0    0  501    0 -0.00000000000E+00 -0.00000000000E+00 -0.34690062336E+02  0.34690062430E+02  0.25500000000E-02 0. -1.
         11    1    1    2    0    0  0.80633290409E+02  0.14486450386E+03  0.61422082537E+03  0.63620332782E+03  0.51100000000E-03 0. -1.
         22    1    1    2    0    0 -0.19306488656E+02  0.84887681806E+01  0.23229476533E+02  0.31375281185E+02  0.00000000000E+00 0.  1.
          2    1    1    2  501    0 -0.61326801753E+02 -0.15335327204E+03  0.32785102705E+03  0.36710284472E+03  0.25500000000E-02 0. -1.
<mgrwt>
<rscale>  0 0.59036616E+02</rscale>
<asrwt>0</asrwt>
<pdfrwt beam="1">  1       11 0.10000000E+01 0.16525731E+03</pdfrwt>
<pdfrwt beam="2">  1        2 0.53368866E-02 0.59036616E+02</pdfrwt>
<totfact> 0.15632652E+03</totfact>
</mgrwt>
</event>
<event>
 5    1  0.2799727E-003  0.3243832E+02  0.7818608E-02  0.1585152E+00
         11   -1    0    0    0    0  0.00000000000E+00  0.00000000000E+00  0.99999378660E+03  0.99999378660E+03  0.51100000000E-03 0. -1.
         -2   -1    0    0    0  501 -0.00000000000E+00 -0.00000000000E+00 -0.18437191564E+01  0.18437209198E+01  0.25500000000E-02 0. -1.
         11    1    1    2    0    0 -0.10661456832E+02  0.17092678473E+02  0.10833805269E+03  0.11019509962E+03  0.51100000000E-03 0. -1.
         22    1    1    2    0    0 -0.11038328309E+02  0.53302757810E+01  0.59766349516E+02  0.61010434076E+02  0.00000000000E+00 0. -1.
         -2    1    1    2    0  501  0.21699785141E+02 -0.22422954254E+02  0.83004566524E+03  0.83063197383E+03  0.25500000000E-02 0. -1.
<mgrwt>
<rscale>  0 0.31203679E+02</rscale>
<asrwt>0</asrwt>
<pdfrwt beam="1">  1       11 0.10000000E+01 0.32438322E+02</pdfrwt>
<pdfrwt beam="2">  1       -2 0.28364747E-03 0.31203679E+02</pdfrwt>
<totfact> 0.65877394E+04</totfact>
</mgrwt>
</event>
<event>
 5    1  0.2799727E-003  0.2683531E+03  0.7818608E-02  0.1102226E+00
         11   -1    0    0    0    0  0.00000000000E+00  0.00000000000E+00  0.10005012168E+04  0.10005012168E+04  0.51100000000E-03 0. -1.
          2   -1    0    0  501    0 -0.00000000000E+00 -0.00000000000E+00 -0.24790394270E+03  0.24790394272E+03  0.25500000000E-02 0. -1.
         11    1    1    2    0    0 -0.16172379164E+03  0.34414349922E+02  0.37229143787E+03  0.40735714916E+03  0.51100000000E-03 0. -1.
         22    1    1    2    0    0 -0.10310888664E+03 -0.15107077286E+03  0.49656609621E+03  0.52918022339E+03  0.00000000000E+00 0. -1.
          2    1    1    2  501    0  0.26483267828E+03  0.11665642294E+03 -0.11626025997E+03  0.31186778698E+03  0.25500000000E-02 0. -1.
<mgrwt>
<rscale>  0 0.26835310E+03</rscale>
<asrwt>0</asrwt>
<pdfrwt beam="1">  1       11 0.10000000E+01 0.16534489E+03</pdfrwt>
<pdfrwt beam="2">  1        2 0.38158183E-01 0.26835310E+03</pdfrwt>
<totfact> 0.16677952E+02</totfact>
</mgrwt>
</event>
<event>
 5    1  0.2799727E-003  0.4011584E+02  0.7818608E-02  0.1610584E+00
         11   -1    0    0    0    0  0.00000000000E+00  0.00000000000E+00  0.10003587071E+04  0.10003587071E+04  0.51100000000E-03 0. -1.
          2   -1    0    0  501    0 -0.00000000000E+00 -0.00000000000E+00 -0.52946631794E+01  0.52946637935E+01  0.25500000000E-02 0. -1.
         11    1    1    2    0    0  0.51264120452E+02 -0.19017394221E+02  0.23712933367E+03  0.24335158150E+03  0.51100000000E-03 0. -1.
         22    1    1    2    0    0 -0.22819734079E+02  0.24125005851E+02  0.14786866668E+03  0.15155163726E+03  0.00000000000E+00 0. -1.
          2    1    1    2  501    0 -0.28444386373E+02 -0.51076116303E+01  0.61006604361E+03  0.61075015218E+03  0.25500000000E-02 0. -1.
<mgrwt>
<rscale>  0 0.28899322E+02</rscale>
<asrwt>0</asrwt>
<pdfrwt beam="1">  1       11 0.10000000E+01 0.40115836E+02</pdfrwt>
<pdfrwt beam="2">  1        2 0.81485578E-03 0.28899322E+02</pdfrwt>
<totfact> 0.16207355E+04</totfact>
</mgrwt>
</event>
<event>
 5    1  0.2799727E-003  0.3535062E+03  0.7818608E-02  0.1061185E+00
         11   -1    0    0    0    0  0.00000000000E+00  0.00000000000E+00  0.10002418625E+04  0.10002418625E+04  0.51100000000E-03 0. -1.
          2   -1    0    0  501    0 -0.00000000000E+00 -0.00000000000E+00 -0.16071804010E+03  0.16071804012E+03  0.25500000000E-02 0. -1.
         11    1    1    2    0    0 -0.11520178580E+03 -0.32512740488E+03  0.57017596205E+03  0.66639320867E+03  0.51100000000E-03 0. -1.
         22    1    1    2    0    0 -0.25947816142E+02 -0.35961571562E+01  0.91258994898E+02  0.94944329260E+02  0.00000000000E+00 0. -1.
          2    1    1    2  501    0  0.14114960194E+03  0.32872356203E+03  0.17808886547E+03  0.39962236471E+03  0.25500000000E-02 0. -1.
<mgrwt>
<rscale>  0 0.35350622E+03</rscale>
<asrwt>0</asrwt>
<pdfrwt beam="1">  1       11 0.10000000E+01 0.26195830E+02</pdfrwt>
<pdfrwt beam="2">  1        2 0.24731832E-01 0.35350622E+03</pdfrwt>
<totfact> 0.27060482E+02</totfact>
</mgrwt>
</event>
<event>
 5    1  0.2799727E-003  0.3877408E+02  0.7818608E-02  0.1517432E+00
         11   -1    0    0    0    0  0.00000000000E+00  0.00000000000E+00  0.10003711772E+04  0.10003711772E+04  0.51100000000E-03 0.  1.
          2   -1    0    0  501    0 -0.00000000000E+00 -0.00000000000E+00 -0.46885117404E+01  0.46885124339E+01  0.25500000000E-02 0.  1.
         11    1    1    2    0    0  0.31509260459E+02  0.27063568899E+02  0.22089764147E+03  0.22476885519E+03  0.51100000000E-03 0.  1.
         22    1    1    2    0    0  0.98916724633E+01 -0.37717093053E+02  0.19082248664E+03  0.19476561735E+03  0.00000000000E+00 0.  1.
          2    1    1    2  501    0 -0.41400932923E+02  0.10653524154E+02  0.58396253735E+03  0.58552521710E+03  0.25500000000E-02 0.  1.
<mgrwt>
<rscale>  0 0.38774081E+02</rscale>
<asrwt>0</asrwt>
<pdfrwt beam="1">  1       11 0.10000000E+01 0.38556788E+02</pdfrwt>
<pdfrwt beam="2">  1        2 0.72157727E-03 0.38774081E+02</pdfrwt>
<totfact> 0.20302159E+04</totfact>
</mgrwt>
</event>
<event>
 5    1  0.2799727E-003  0.8128409E+02  0.7818608E-02  0.1340036E+00
         11   -1    0    0    0    0  0.00000000000E+00  0.00000000000E+00  0.10001238581E+04  0.10001238581E+04  0.51100000000E-03 0. -1.
          2   -1    0    0  501    0 -0.00000000000E+00 -0.00000000000E+00 -0.11935233437E+02  0.11935233709E+02  0.25500000000E-02 0. -1.
         11    1    1    2    0    0 -0.11454368288E+02 -0.54156302212E+02  0.80885415863E+02  0.98013050772E+02  0.51100000000E-03 0. -1.
         22    1    1    2    0    0 -0.11313508520E+02 -0.18617764811E+02  0.70835976136E+02  0.74110405186E+02  0.00000000000E+00 0. -1.
          2    1    1    2  501    0  0.22767876808E+02  0.72774067023E+02  0.83646723262E+03  0.83993563580E+03  0.25500000000E-02 0. -1.
<mgrwt>
<rscale>  0 0.76252482E+02</rscale>
<asrwt>0</asrwt>
<pdfrwt beam="1">  1       11 0.10000000E+01 0.81284090E+02</pdfrwt>
<pdfrwt beam="2">  1        2 0.18364172E-02 0.76252482E+02</pdfrwt>
<totfact> 0.65170504E+03</totfact>
</mgrwt>
</event>
<event>
 5    1  0.2799727E-003  0.1690460E+03  0.7818608E-02  0.1382144E+00
         11   -1    0    0    0    0  0.00000000000E+00  0.00000000000E+00  0.10001095460E+04  0.10001095460E+04  0.51100000000E-03 0.  1.
         -2   -1    0    0    0  501 -0.00000000000E+00 -0.00000000000E+00 -0.43643006884E+02  0.43643006958E+02  0.25500000000E-02 0. -1.
         11    1    1    2    0    0 -0.35230333186E+02  0.16006944757E+03  0.66559952993E+03  0.68548241310E+03  0.51100000000E-03 0.  1.
         22    1    1    2    0    0  0.78841450217E+01  0.22834401600E+02  0.36864346576E+02  0.44074365425E+02  0.00000000000E+00 0.  1.
         -2    1    1    2    0  501  0.27346188164E+02 -0.18290384917E+03  0.25400266258E+03  0.31419577441E+03  0.25500000000E-02 0. -1.
<mgrwt>
<rscale>  0 0.63903653E+02</rscale>
<asrwt>0</asrwt>
<pdfrwt beam="1">  1       11 0.10000000E+01 0.16904605E+03</pdfrwt>
<pdfrwt beam="2">  1       -2 0.67150441E-02 0.63903653E+02</pdfrwt>
<totfact> 0.88714374E+02</totfact>
</mgrwt>
</event>
<event>
 5    1  0.2799727E-003  0.1421462E+03  0.7818608E-02  0.1493296E+00
         11   -1    0    0    0    0  0.00000000000E+00  0.00000000000E+00  0.10005717109E+04  0.10005717109E+04  0.51100000000E-03 0.  1.
          2   -1    0    0  501    0 -0.00000000000E+00 -0.00000000000E+00 -0.39949566478E+03  0.39949566479E+03  0.25500000000E-02 0. -1.
         11    1    1    2    0    0 -0.91995868931E+02  0.89989805089E+02  0.51606894665E+03  0.53187269400E+03  0.51100000000E-03 0.  1.
         22    1    1    2    0    0  0.10722919189E+03 -0.12923825331E+03  0.46059558797E+03  0.49025393560E+03  0.00000000000E+00 0.  1.
          2    1    1    2  501    0 -0.15233322961E+02  0.39248448220E+02 -0.37558848853E+03  0.37794074607E+03  0.25500000000E-02 0. -1.
<mgrwt>
<rscale>  0 0.42101007E+02</rscale>
<asrwt>0</asrwt>
<pdfrwt beam="1">  1       11 0.10000000E+01 0.14214618E+03</pdfrwt>
<pdfrwt beam="2">  1        2 0.61496008E-01 0.42101007E+02</pdfrwt>
<totfact> 0.10021176E+02</totfact>
</mgrwt>
</event>
<event>
 5    1  0.2799727E-003  0.1998741E+03  0.7818608E-02  0.1384896E+00
         11   -1    0    0    0    0  0.00000000000E+00  0.00000000000E+00  0.10001397662E+04  0.10001397662E+04  0.51100000000E-03 0.  1.
          2   -1    0    0  501    0 -0.00000000000E+00 -0.00000000000E+00 -0.14314220994E+03  0.14314220996E+03  0.25500000000E-02 0.  1.
         11    1    1    2    0    0 -0.11621324444E+02 -0.18139933564E+03  0.22305674999E+03  0.28774135585E+03  0.51100000000E-03 0.  1.
         22    1    1    2    0    0  0.72610036580E+02  0.19794879689E+03  0.71916909138E+03  0.74943987457E+03  0.00000000000E+00 0.  1.
          2    1    1    2  501    0 -0.60988712136E+02 -0.16549461246E+02 -0.85228285056E+02  0.10610074578E+03  0.25500000000E-02 0.  1.
<mgrwt>
<rscale>  0 0.63194206E+02</rscale>
<asrwt>0</asrwt>
<pdfrwt beam="1">  1       11 0.10000000E+01 0.19987413E+03</pdfrwt>
<pdfrwt beam="2">  1        2 0.22024956E-01 0.63194206E+02</pdfrwt>
<totfact> 0.29376685E+02</totfact>
</mgrwt>
</event>
<event>
 5    1  0.2799727E-003  0.4456945E+03  0.7818608E-02  0.1032363E+00
         11   -1    0    0    0    0  0.00000000000E+00  0.00000000000E+00  0.10000473322E+04  0.10000473322E+04  0.51100000000E-03 0.  1.
          2   -1    0    0  501    0 -0.00000000000E+00 -0.00000000000E+00 -0.26837297923E+03  0.26837297924E+03  0.25500000000E-02 0.  1.
         11    1    1    2    0    0 -0.21964749062E+03  0.32917704431E+03  0.57149647070E+03  0.69513362935E+03  0.51100000000E-03 0.  1.
         22    1    1    2    0    0 -0.19635724971E+02  0.33824208066E+02  0.13192246573E+03  0.13759787684E+03  0.00000000000E+00 0.  1.
          2    1    1    2  501    0  0.23928321559E+03 -0.36300125238E+03  0.28255416599E+02  0.43568880530E+03  0.25500000000E-02 0.  1.
<mgrwt>
<rscale>  0 0.43477163E+03</rscale>
<asrwt>0</asrwt>
<pdfrwt beam="1">  1       11 0.10000000E+01 0.44569447E+03</pdfrwt>
<pdfrwt beam="2">  1        2 0.41290104E-01 0.43477163E+03</pdfrwt>
<totfact> 0.15337811E+02</totfact>
</mgrwt>
</event>
<event>
 5    1  0.2799727E-003  0.3965881E+02  0.7818608E-02  0.1531259E+00
         11   -1    0    0    0    0  0.00000000000E+00  0.00000000000E+00  0.10001481976E+04  0.10001481976E+04  0.51100000000E-03 0.  1.
          2   -1    0    0  501    0 -0.00000000000E+00 -0.00000000000E+00 -0.29415317701E+01  0.29415328754E+01  0.25500000000E-02 0.  1.
         11    1    1    2    0    0  0.14940216199E+02  0.47430128642E+01  0.44507859608E+02  0.47187453822E+02  0.51100000000E-03 0.  1.
         22    1    1    2    0    0  0.14605052050E+02  0.17583479500E+02  0.10801570365E+03  0.11040778293E+03  0.00000000000E+00 0. -1.
          2    1    1    2  501    0 -0.29545268249E+02 -0.22326492364E+02  0.84468310261E+03  0.84549449376E+03  0.25500000000E-02 0.  1.
<mgrwt>
<rscale>  0 0.37032353E+02</rscale>
<asrwt>0</asrwt>
<pdfrwt beam="1">  1       11 0.10000000E+01 0.39658811E+02</pdfrwt>
<pdfrwt beam="2">  1        2 0.45261049E-03 0.37032353E+02</pdfrwt>
<totfact> 0.37494439E+04</totfact>
</mgrwt>
</event>
<event>
 5    1  0.2799727E-003  0.2084951E+03  0.7818608E-02  0.1155081E+00
         11   -1    0    0    0    0  0.00000000000E+00  0.00000000000E+00  0.10000269265E+04  0.10000269265E+04  0.51100000000E-03 0.  1.
          2   -1    0    0  501    0 -0.00000000000E+00 -0.00000000000E+00 -0.43816214046E+02  0.43816214120E+02  0.25500000000E-02 0.  1.
         11    1    1    2    0    0  0.84331048957E+02  0.11640166291E+03  0.27910783311E+03  0.31394626204E+03  0.51100000000E-03 0.  1.
         22    1    1    2    0    0 -0.54510039543E+01  0.60615413169E+02  0.70737131124E+02  0.93314969204E+02  0.00000000000E+00 0. -1.
          2    1    1    2  501    0 -0.78880045002E+02 -0.17701707608E+03  0.60636574822E+03  0.63658190938E+03  0.25500000000E-02 0.  1.
<mgrwt>
<rscale>  0 0.19379656E+03</rscale>
<asrwt>0</asrwt>
<pdfrwt beam="1">  1       11 0.10000000E+01 0.20849511E+03</pdfrwt>
<pdfrwt beam="2">  1        2 0.67411373E-02 0.19379656E+03</pdfrwt>
<totfact> 0.12766899E+03</totfact>
</mgrwt>
</event>
<event>
 5    1  0.2799727E-003  0.6810614E+02  0.7818608E-02  0.1377002E+00
         11   -1    0    0    0    0  0.00000000000E+00  0.00000000000E+00  0.10003750060E+04  0.10003750060E+04  0.51100000000E-03 0. -1.
         -2   -1    0    0    0  501 -0.00000000000E+00 -0.00000000000E+00 -0.50147472090E+01  0.50147478573E+01  0.25500000000E-02 0. -1.
         11    1    1    2    0    0 -0.24813004653E+02 -0.46981220502E+02  0.26990617274E+03  0.27508591815E+03  0.51100000000E-03 0. -1.
         22    1    1    2    0    0  0.31375122994E+01 -0.14572208053E+02  0.67763996533E+02  0.69384093689E+02  0.00000000000E+00 0. -1.
         -2    1    1    2    0  501  0.21675492353E+02  0.61553428555E+02  0.65769008953E+03  0.66091974203E+03  0.25500000000E-02 0. -1.
<mgrwt>
<rscale>  0 0.65258345E+02</rscale>
<asrwt>0</asrwt>
<pdfrwt beam="1">  1       11 0.10000000E+01 0.68106137E+02</pdfrwt>
<pdfrwt beam="2">  1       -2 0.77178892E-03 0.65258345E+02</pdfrwt>
<totfact> 0.19762399E+04</totfact>
</mgrwt>
</event>
<event>
 5    1  0.2799727E-003  0.4072408E+02  0.7818608E-02  0.1543283E+00
         11   -1    0    0    0    0  0.00000000000E+00  0.00000000000E+00  0.10004200377E+04  0.10004200377E+04  0.51100000000E-03 0.  1.
          2   -1    0    0  501    0 -0.00000000000E+00 -0.00000000000E+00 -0.89865998949E+01  0.89866002567E+01  0.25500000000E-02 0.  1.
         11    1    1    2    0    0 -0.51169194804E+02  0.45937650916E+01  0.26150016404E+03  0.26649901494E+03  0.51100000000E-03 0.  1.
         22    1    1    2    0    0  0.17164361771E+02 -0.25971942424E+02  0.35108976415E+02  0.46923313323E+02  0.00000000000E+00 0.  1.
          2    1    1    2  501    0  0.34004833033E+02  0.21378177332E+02  0.69482429733E+03  0.69598430967E+03  0.25500000000E-02 0.  1.
<mgrwt>
<rscale>  0 0.35606072E+02</rscale>
<asrwt>0</asrwt>
<pdfrwt beam="1">  1       11 0.10000000E+01 0.40724077E+02</pdfrwt>
<pdfrwt beam="2">  1        2 0.13831345E-02 0.35606072E+02</pdfrwt>
<totfact> 0.84146306E+03</totfact>
</mgrwt>
</event>
<event>
 5    1  0.3815981E-003  0.3645380E+03  0.7818608E-02  0.1057796E+00
         11   -1    0    0    0    0  0.00000000000E+00  0.00000000000E+00  0.10005148548E+04  0.10005148548E+04  0.51100000000E-03 0. -1.
          2   -1    0    0  501    0 -0.00000000000E+00 -0.00000000000E+00 -0.19170358700E+04  0.19170358700E+04  0.25500000000E-02 0. -1.
         11    1    1    2    0    0 -0.27811995016E+03 -0.21015654973E+03  0.91497758433E+03  0.97913250477E+03  0.51100000000E-03 0. -1.
         22    1    1    2    0    0 -0.15672356942E+02 -0.13311481742E+01  0.34349199126E+02  0.37779123973E+02  0.00000000000E+00 0. -1.
          2    1    1    2  501    0  0.29379230710E+03  0.21148769791E+03 -0.18658477986E+04  0.19006390961E+04  0.25500000000E-02 0. -1.
<mgrwt>
<rscale>  0 0.36199581E+03</rscale>
<asrwt>0</asrwt>
<pdfrwt beam="1">  1       11 0.10000000E+01 0.36453795E+03</pdfrwt>
<pdfrwt beam="2">  1        2 0.29508043E+00 0.36199581E+03</pdfrwt>
<totfact> 0.10014580E+01</totfact>
</mgrwt>
</event>
<event>
 5    1  0.2799727E-003  0.2765155E+03  0.7818608E-02  0.1692419E+00
         11   -1    0    0    0    0  0.00000000000E+00  0.00000000000E+00  0.99981075958E+03  0.99981075958E+03  0.51100000000E-03 0.  1.
          2   -1    0    0  501    0 -0.00000000000E+00 -0.00000000000E+00 -0.12397590645E+03  0.12397590648E+03  0.25500000000E-02 0.  1.
         11    1    1    2    0    0  0.11123958742E+03  0.25127599399E+03  0.43089389063E+03  0.51106106871E+03  0.51100000000E-03 0.  1.
         22    1    1    2    0    0 -0.13319892691E+03 -0.24462659495E+03  0.48916215783E+03  0.56290651243E+03  0.00000000000E+00 0.  1.
          2    1    1    2  501    0  0.21959339492E+02 -0.66493990451E+01 -0.44221195334E+02  0.49819084916E+02  0.25500000000E-02 0.  1.
<mgrwt>
<rscale>  0 0.22943999E+02</rscale>
<asrwt>0</asrwt>
<pdfrwt beam="1">  1       11 0.10000000E+01 0.27651549E+03</pdfrwt>
<pdfrwt beam="2">  1        2 0.19069606E-01 0.22943999E+02</pdfrwt>
<totfact> 0.32619762E+02</totfact>
</mgrwt>
</event>
<event>
 5    1  0.2799727E-003  0.3268048E+03  0.7818608E-02  0.1080504E+00
         11   -1    0    0    0    0  0.00000000000E+00  0.00000000000E+00  0.10000170410E+04  0.10000170410E+04  0.51100000000E-03 0. -1.
          2   -1    0    0  501    0 -0.00000000000E+00 -0.00000000000E+00 -0.91554461174E+03  0.91554461174E+03  0.25500000000E-02 0.  1.
         11    1    1    2    0    0  0.10595222943E+03 -0.23552038306E+02  0.34613975891E+03  0.36275791670E+03  0.51100000000E-03 0. -1.
         22    1    1    2    0    0  0.19500894543E+03  0.96481018775E+02  0.59944199466E+03  0.63770508917E+03  0.00000000000E+00 0. -1.
          2    1    1    2  501    0 -0.30096117486E+03 -0.72928980469E+02 -0.86110932434E+03  0.91509864684E+03  0.25500000000E-02 0.  1.
<mgrwt>
<rscale>  0 0.30967122E+03</rscale>
<asrwt>0</asrwt>
<pdfrwt beam="1">  1       11 0.10000000E+01 0.32680479E+03</pdfrwt>
<pdfrwt beam="2">  1        2 0.14085541E+00 0.30967122E+03</pdfrwt>
<totfact> 0.36901902E+01</totfact>
</mgrwt>
</event>
<event>
 5    1  0.2799727E-003  0.6523843E+02  0.7818608E-02  0.1377077E+00
         11   -1    0    0    0    0  0.00000000000E+00  0.00000000000E+00  0.10002829099E+04  0.10002829099E+04  0.51100000000E-03 0. -1.
          2   -1    0    0  501    0 -0.00000000000E+00 -0.00000000000E+00 -0.16328706862E+02  0.16328707062E+02  0.25500000000E-02 0. -1.
         11    1    1    2    0    0  0.59814589580E+02 -0.20087981358E+02  0.67476520256E+02  0.92381778008E+02  0.51100000000E-03 0. -1.
         22    1    1    2    0    0  0.27365043679E+02  0.13628913692E+02  0.17938148490E+03  0.18196788187E+03  0.00000000000E+00 0. -1.
          2    1    1    2  501    0 -0.87179633260E+02  0.64590676652E+01  0.73709619788E+03  0.74226195709E+03  0.25500000000E-02 0. -1.
<mgrwt>
<rscale>  0 0.65238433E+02</rscale>
<asrwt>0</asrwt>
<pdfrwt beam="1">  1       11 0.10000000E+01 0.30571112E+02</pdfrwt>
<pdfrwt beam="2">  1        2 0.25128194E-02 0.65238433E+02</pdfrwt>
<totfact> 0.41997170E+03</totfact>
</mgrwt>
</event>
<event>
 5    1  0.2799727E-003  0.1653211E+02  0.7818608E-02  0.1824623E+00
         11   -1    0    0    0    0  0.00000000000E+00  0.00000000000E+00  0.10003256345E+04  0.10003256345E+04  0.51100000000E-03 0.  1.
          2   -1    0    0  501    0 -0.00000000000E+00 -0.00000000000E+00 -0.16748410465E+01  0.16748429877E+01  0.25500000000E-02 0.  1.
         11    1    1    2    0    0 -0.45719162657E+01  0.14385827550E+02  0.78060319862E+02  0.79506402194E+02  0.51100000000E-03 0.  1.
         22    1    1    2    0    0 -0.15795410622E+02  0.19041874404E+01  0.83778193356E+02  0.85275474836E+02  0.00000000000E+00 0.  1.
          2    1    1    2  501    0  0.20367326888E+02 -0.16290014990E+02  0.83681228024E+03  0.83721860046E+03  0.25500000000E-02 0.  1.
<mgrwt>
<rscale>  0 0.16532113E+02</rscale>
<asrwt>0</asrwt>
<pdfrwt beam="1">  1       11 0.10000000E+01 0.15094856E+02</pdfrwt>
<pdfrwt beam="2">  1        2 0.25775190E-03 0.16532113E+02</pdfrwt>
<totfact> 0.62791290E+04</totfact>
</mgrwt>
</event>
<event>
 5    1  0.2799727E-003  0.8849288E+02  0.7818608E-02  0.1594048E+00
         11   -1    0    0    0    0  0.00000000000E+00  0.00000000000E+00  0.10004648166E+04  0.10004648166E+04  0.51100000000E-03 0.  1.
         -2   -1    0    0    0  501 -0.00000000000E+00 -0.00000000000E+00 -0.25974660089E+02  0.25974660214E+02  0.25500000000E-02 0. -1.
         11    1    1    2    0    0  0.20086123990E+02  0.80216113439E+02  0.44868431931E+03  0.45624083073E+03  0.51100000000E-03 0.  1.
         22    1    1    2    0    0 -0.50280291053E+02 -0.83468123590E+02  0.53058289561E+03  0.53945643423E+03  0.00000000000E+00 0.  1.
         -2    1    1    2    0  501  0.30194167063E+02  0.32520101507E+01 -0.47770584234E+01  0.30742211832E+02  0.25500000000E-02 0. -1.
<mgrwt>
<rscale>  0 0.30368788E+02</rscale>
<asrwt>0</asrwt>
<pdfrwt beam="1">  1       11 0.10000000E+01 0.88492878E+02</pdfrwt>
<pdfrwt beam="2">  1       -2 0.39979589E-02 0.30368788E+02</pdfrwt>
<totfact> 0.17303758E+03</totfact>
</mgrwt>
</event>
<event>
 5    1  0.2799727E-003  0.2094616E+03  0.7818608E-02  0.1143137E+00
         11   -1    0    0    0    0  0.00000000000E+00  0.00000000000E+00  0.99983964866E+03  0.99983964866E+03  0.51100000000E-03 0. -1.
          2   -1    0    0  501    0 -0.00000000000E+00 -0.00000000000E+00 -0.17967639944E+03  0.17967639946E+03  0.25500000000E-02 0.  1.
         11    1    1    2    0    0  0.19082866743E+03  0.28018157982E+02  0.85805203979E+03  0.87946227917E+03  0.51100000000E-03 0. -1.
         22    1    1    2    0    0  0.15867670909E+02 -0.45147182864E+01  0.65644420725E+02  0.67685712183E+02  0.00000000000E+00 0. -1.
          2    1    1    2  501    0 -0.20669633834E+03 -0.23503439695E+02 -0.10353321129E+03  0.23236805677E+03  0.25500000000E-02 0.  1.
<mgrwt>
<rscale>  0 0.20802833E+03</rscale>
<asrwt>0</asrwt>
<pdfrwt beam="1">  1       11 0.10000000E+01 0.20946161E+03</pdfrwt>
<pdfrwt beam="2">  1        2 0.27638090E-01 0.20802833E+03</pdfrwt>
<totfact> 0.23662733E+02</totfact>
</mgrwt>
</event>
<event>
 5    1  0.2799727E-003  0.2612177E+03  0.7818608E-02  0.1114871E+00
         11   -1    0    0    0    0  0.00000000000E+00  0.00000000000E+00  0.99998412604E+03  0.99998412604E+03  0.51100000000E-03 0.  1.
          2   -1    0    0  501    0 -0.00000000000E+00 -0.00000000000E+00 -0.73337262108E+03  0.73337262109E+03  0.25500000000E-02 0.  1.
         11    1    1    2    0    0 -0.77492454629E+02  0.17381759381E+03  0.82186108297E+03  0.84360729973E+03  0.51100000000E-03 0.  1.
         22    1    1    2    0    0 -0.47136509025E+02  0.40058096092E+02  0.13929437021E+03  0.15241201763E+03  0.00000000000E+00 0.  1.
          2    1    1    2  501    0  0.12462896365E+03 -0.21387568991E+03 -0.69454394823E+03  0.73733742977E+03  0.25500000000E-02 0.  1.
<mgrwt>
<rscale>  0 0.24753826E+03</rscale>
<asrwt>0</asrwt>
<pdfrwt beam="1">  1       11 0.10000000E+01 0.26121768E+03</pdfrwt>
<pdfrwt beam="2">  1        2 0.11282476E+00 0.24753826E+03</pdfrwt>
<totfact> 0.49590778E+01</totfact>
</mgrwt>
</event>
<event>
 5    1  0.2799727E-003  0.7928053E+02  0.7818608E-02  0.1408347E+00
         11   -1    0    0    0    0  0.00000000000E+00  0.00000000000E+00  0.99986029538E+03  0.99986029538E+03  0.51100000000E-03 0. -1.
          2   -1    0    0  501    0 -0.00000000000E+00 -0.00000000000E+00 -0.29527052487E+02  0.29527052597E+02  0.25500000000E-02 0. -1.
         11    1    1    2    0    0  0.18259389754E+02 -0.89522550142E+02  0.53630779304E+03  0.54403468748E+03  0.51100000000E-03 0. -1.
         22    1    1    2    0    0  0.35422722181E+02  0.68740494392E+02  0.41870248150E+03  0.42578373950E+03  0.00000000000E+00 0. -1.
          2    1    1    2  501    0 -0.53682111935E+02  0.20782055749E+02  0.15322968353E+02  0.59568920996E+02  0.25500000000E-02 0. -1.
<mgrwt>
<rscale>  0 0.57564425E+02</rscale>
<asrwt>0</asrwt>
<pdfrwt beam="1">  1       11 0.10000000E+01 0.79280530E+02</pdfrwt>
<pdfrwt beam="2">  1        2 0.45419887E-02 0.57564425E+02</pdfrwt>
<totfact> 0.19141217E+03</totfact>
</mgrwt>
</event>
<event>
 5    1  0.2799727E-003  0.3405192E+03  0.7818608E-02  0.1080261E+00
         11   -1    0    0    0    0  0.00000000000E+00  0.00000000000E+00  0.10004199820E+04  0.10004199820E+04  0.51100000000E-03 0.  1.
          2   -1    0    0  501    0 -0.00000000000E+00 -0.00000000000E+00 -0.73059242116E+03  0.73059242116E+03  0.25500000000E-02 0.  1.
         11    1    1    2    0    0 -0.11102120818E+03  0.54600409664E+02  0.58905956259E+03  0.60191202155E+03  0.51100000000E-03 0.  1.
         22    1    1    2    0    0 -0.17623131426E+03  0.62427736321E+02  0.34702273610E+03  0.39418203632E+03  0.00000000000E+00 0.  1.
          2    1    1    2  501    0  0.28725252244E+03 -0.11702814599E+03 -0.66625473783E+03  0.73491834532E+03  0.25500000000E-02 0.  1.
<mgrwt>
<rscale>  0 0.31017672E+03</rscale>
<asrwt>0</asrwt>
<pdfrwt beam="1">  1       11 0.10000000E+01 0.34051917E+03</pdfrwt>
<pdfrwt beam="2">  1        2 0.11244604E+00 0.31017672E+03</pdfrwt>
<totfact> 0.49440045E+01</totfact>
</mgrwt>
</event>
<event>
 5    1  0.2799727E-003  0.5083920E+02  0.7818608E-02  0.1695770E+00
         11   -1    0    0    0    0  0.00000000000E+00  0.00000000000E+00  0.10006084341E+04  0.10006084341E+04  0.51100000000E-03 0.  1.
         -2   -1    0    0    0  501 -0.00000000000E+00 -0.00000000000E+00 -0.36358115930E+01  0.36358124873E+01  0.25500000000E-02 0.  1.
         11    1    1    2    0    0 -0.30704656804E+02  0.35512756875E+02  0.27417021487E+03  0.27816045472E+03  0.51100000000E-03 0.  1.
         22    1    1    2    0    0 -0.10056601774E+02 -0.15203047830E+01  0.41932396238E+02  0.43148260916E+02  0.00000000000E+00 0.  1.
         -2    1    1    2    0  501  0.40761258578E+02 -0.33992452092E+02  0.68087001143E+03  0.68293553098E+03  0.25500000000E-02 0.  1.
<mgrwt>
<rscale>  0 0.22739361E+02</rscale>
<asrwt>0</asrwt>
<pdfrwt beam="1">  1       11 0.10000000E+01 0.50839200E+02</pdfrwt>
<pdfrwt beam="2">  1       -2 0.55969601E-03 0.22739361E+02</pdfrwt>
<totfact> 0.24279741E+04</totfact>
</mgrwt>
</event>
<event>
 5    1  0.2799727E-003  0.5106357E+02  0.7818608E-02  0.1439688E+00
         11   -1    0    0    0    0  0.00000000000E+00  0.00000000000E+00  0.10003798255E+04  0.10003798255E+04  0.51100000000E-03 0. -1.
          2   -1    0    0  501    0 -0.00000000000E+00 -0.00000000000E+00 -0.79197519842E+01  0.79197523947E+01  0.25500000000E-02 0. -1.
         11    1    1    2    0    0 -0.30027215306E+02  0.40957101424E+02  0.92125635229E+02  0.10519624747E+03  0.51100000000E-03 0. -1.
         22    1    1    2    0    0  0.78532235413E+01  0.88376490439E+01  0.70835170977E+02  0.71815030515E+02  0.00000000000E+00 0. -1.
          2    1    1    2  501    0  0.22173991765E+02 -0.49794750468E+02  0.82949926736E+03  0.83128829995E+03  0.25500000000E-02 0. -1.
<mgrwt>
<rscale>  0 0.51063568E+02</rscale>
<asrwt>0</asrwt>
<pdfrwt beam="1">  1       11 0.10000000E+01 0.11822739E+02</pdfrwt>
<pdfrwt beam="2">  1        2 0.12188862E-02 0.51063568E+02</pdfrwt>
<totfact> 0.10614289E+04</totfact>
</mgrwt>
</event>
<event>
 5    1  0.2799727E-003  0.2812398E+03  0.7818608E-02  0.1096547E+00
         11   -1    0    0    0    0  0.00000000000E+00  0.00000000000E+00  0.10003023245E+04  0.10003023245E+04  0.51100000000E-03 0. -1.
          2   -1    0    0  501    0 -0.00000000000E+00 -0.00000000000E+00 -0.27780952716E+03  0.27780952717E+03  0.25500000000E-02 0. -1.
         11    1    1    2    0    0 -0.20968524872E+02 -0.26240534714E+03  0.81846056793E+03  0.85975225880E+03  0.51100000000E-03 0. -1.
         22    1    1    2    0    0 -0.59986775265E+01 -0.14721180292E+02  0.84874388823E+02  0.86350212271E+02  0.00000000000E+00 0. -1.
          2    1    1    2  501    0  0.26967202399E+02  0.27712652744E+03 -0.18084215938E+03  0.33200938063E+03  0.25500000000E-02 0. -1.
<mgrwt>
<rscale>  0 0.27843553E+03</rscale>
<asrwt>0</asrwt>
<pdfrwt beam="1">  1       11 0.10000000E+01 0.28123983E+03</pdfrwt>
<pdfrwt beam="2">  1        2 0.42752847E-01 0.27843553E+03</pdfrwt>
<totfact> 0.14745128E+02</totfact>
</mgrwt>
</event>
<event>
 5    1  0.2799727E-003  0.2027942E+03  0.7818608E-02  0.1147403E+00
         11   -1    0    0    0    0  0.00000000000E+00  0.00000000000E+00  0.10003945000E+04  0.10003945000E+04  0.51100000000E-03 0. -1.
          2   -1    0    0  501    0 -0.00000000000E+00 -0.00000000000E+00 -0.12695769558E+04  0.12695769558E+04  0.25500000000E-02 0. -1.
         11    1    1    2    0    0 -0.29913818815E+02 -0.74194719261E+01  0.14937910212E+02  0.34249471259E+02  0.51100000000E-03 0. -1.
         22    1    1    2    0    0  0.17757183434E+02 -0.19508758455E+03  0.95765429522E+03  0.97748464559E+03  0.00000000000E+00 0. -1.
          2    1    1    2  501    0  0.12156635381E+02  0.20250705648E+03 -0.12417746612E+04  0.12582373389E+04  0.25500000000E-02 0. -1.
<mgrwt>
<rscale>  0 0.20279422E+03</rscale>
<asrwt>0</asrwt>
<pdfrwt beam="1">  1       11 0.10000000E+01 0.30820206E+02</pdfrwt>
<pdfrwt beam="2">  1        2 0.19539658E+00 0.20279422E+03</pdfrwt>
<totfact> 0.23268323E+01</totfact>
</mgrwt>
</event>
<event>
 5    1  0.2799727E-003  0.9844083E+02  0.7818608E-02  0.1287516E+00
         11   -1    0    0    0    0  0.00000000000E+00  0.00000000000E+00  0.10001419546E+04  0.10001419546E+04  0.51100000000E-03 0. -1.
         -2   -1    0    0    0  501 -0.00000000000E+00 -0.00000000000E+00 -0.10958125631E+02  0.10958125928E+02  0.25500000000E-02 0. -1.
         11    1    1    2    0    0  0.61330881341E+02  0.45395648172E+02  0.26330053915E+03  0.27413393770E+03  0.51100000000E-03 0. -1.
         22    1    1    2    0    0  0.12083461299E+02  0.17456497709E+02  0.51673850612E+02  0.55865250257E+02  0.00000000000E+00 0. -1.
         -2    1    1    2    0  501 -0.73414342639E+02 -0.62852145880E+02  0.67420943925E+03  0.68110089262E+03  0.25500000000E-02 0. -1.
<mgrwt>
<rscale>  0 0.96643975E+02</rscale>
<asrwt>0</asrwt>
<pdfrwt beam="1">  1       11 0.10000000E+01 0.98440834E+02</pdfrwt>
<pdfrwt beam="2">  1       -2 0.16861048E-02 0.96643975E+02</pdfrwt>
<totfact> 0.69771175E+03</totfact>
</mgrwt>
</event>
<event>
 5    1  0.2799727E-003  0.7699832E+02  0.7818608E-02  0.1337792E+00
         11   -1    0    0    0    0  0.00000000000E+00  0.00000000000E+00  0.10002348131E+04  0.10002348131E+04  0.51100000000E-03 0. -1.
          2   -1    0    0  501    0 -0.00000000000E+00 -0.00000000000E+00 -0.19053557365E+02  0.19053557536E+02  0.25500000000E-02 0. -1.
         11    1    1    2    0    0 -0.21951996551E+02  0.31623733305E+02  0.10155461409E+03  0.10860612462E+03  0.51100000000E-03 0. -1.
         22    1    1    2    0    0  0.21072338609E+02  0.70825888066E+02  0.99931192015E+02  0.12428432328E+03  0.00000000000E+00 0. -1.
          2    1    1    2  501    0  0.87965794219E+00 -0.10244962137E+03  0.77969544963E+03  0.78639792275E+03  0.25500000000E-02 0. -1.
<mgrwt>
<rscale>  0 0.76998319E+02</rscale>
<asrwt>0</asrwt>
<pdfrwt beam="1">  1       11 0.10000000E+01 0.38496132E+02</pdfrwt>
<pdfrwt beam="2">  1        2 0.29320048E-02 0.76998319E+02</pdfrwt>
<totfact> 0.34956575E+03</totfact>
</mgrwt>
</event>
<event>
 5    1  0.2799727E-003  0.9977204E+03  0.7818608E-02  0.9311049E-01
         11   -1    0    0    0    0  0.00000000000E+00  0.00000000000E+00  0.99984803006E+03  0.99984803006E+03  0.51100000000E-03 0.  1.
          2   -1    0    0  501    0 -0.00000000000E+00 -0.00000000000E+00 -0.12918928908E+04  0.12918928908E+04  0.25500000000E-02 0.  1.
         11    1    1    2    0    0  0.18057794810E+03  0.12048540130E+03 -0.80751197871E+02  0.23161580953E+03  0.51100000000E-03 0.  1.
         22    1    1    2    0    0  0.86863478484E+03 -0.27365082689E+03  0.18287115874E+03  0.92889882398E+03  0.00000000000E+00 0.  1.
          2    1    1    2  501    0 -0.10492127329E+04  0.15316542559E+03 -0.39416482157E+03  0.11312262873E+04  0.25500000000E-02 0.  1.
<mgrwt>
<rscale>  0 0.99772039E+03</rscale>
<asrwt>0</asrwt>
<pdfrwt beam="1">  1       11 0.10000000E+01 0.21708334E+03</pdfrwt>
<pdfrwt beam="2">  1        2 0.19872254E+00 0.99772039E+03</pdfrwt>
<totfact> 0.20533623E+01</totfact>
</mgrwt>
</event>
<event>
 5    1  0.2799727E-003  0.2497446E+02  0.7818608E-02  0.1661369E+00
         11   -1    0    0    0    0  0.00000000000E+00  0.00000000000E+00  0.10002176040E+04  0.10002176040E+04  0.51100000000E-03 0. -1.
          2   -1    0    0  501    0 -0.00000000000E+00 -0.00000000000E+00 -0.26561600828E+01  0.26561613068E+01  0.25500000000E-02 0. -1.
         11    1    1    2    0    0 -0.27128762560E+02  0.22173683226E+01  0.14790774624E+03  0.15039144882E+03  0.51100000000E-03 0. -1.
         22    1    1    2    0    0  0.13383696882E+02 -0.23069151226E+02  0.14797239602E+03  0.15035670608E+03  0.00000000000E+00 0. -1.
          2    1    1    2  501    0  0.13745065679E+02  0.20851782904E+02  0.70168130162E+03  0.70212561037E+03  0.25500000000E-02 0. -1.
<mgrwt>
<rscale>  0 0.24974461E+02</rscale>
<asrwt>0</asrwt>
<pdfrwt beam="1">  1       11 0.10000000E+01 0.23873205E+02</pdfrwt>
<pdfrwt beam="2">  1        2 0.40872902E-03 0.24974461E+02</pdfrwt>
<totfact> 0.38860404E+04</totfact>
</mgrwt>
</event>
<event>
 5    1  0.2799727E-003  0.3402812E+03  0.7818608E-02  0.1073004E+00
         11   -1    0    0    0    0  0.00000000000E+00  0.00000000000E+00  0.10000901479E+04  0.10000901479E+04  0.51100000000E-03 0. -1.
          2   -1    0    0  501    0 -0.00000000000E+00 -0.00000000000E+00 -0.22443674773E+03  0.22443674774E+03  0.25500000000E-02 0. -1.
         11    1    1    2    0    0  0.87686503436E+02 -0.65230024754E+02  0.23306101112E+03  0.25741273069E+03  0.51100000000E-03 0. -1.
         22    1    1    2    0    0  0.22966965958E+03 -0.85244969968E+01  0.59432847304E+03  0.63721829340E+03  0.00000000000E+00 0.  1.
          2    1    1    2  501    0 -0.31735616302E+03  0.73754521751E+02 -0.51736083984E+02  0.32989587156E+03  0.25500000000E-02 0. -1.
<mgrwt>
<rscale>  0 0.32581385E+03</rscale>
<asrwt>0</asrwt>
<pdfrwt beam="1">  1       11 0.10000000E+01 0.34028122E+03</pdfrwt>
<pdfrwt beam="2">  1        2 0.34531842E-01 0.32581385E+03</pdfrwt>
<totfact> 0.18632382E+02</totfact>
</mgrwt>
</event>
<event>
 5    1  0.2799727E-003  0.2227254E+03  0.7818608E-02  0.1136623E+00
         11   -1    0    0    0    0  0.00000000000E+00  0.00000000000E+00  0.10003639974E+04  0.10003639974E+04  0.51100000000E-03 0. -1.
         -2   -1    0    0    0  501 -0.00000000000E+00 -0.00000000000E+00 -0.33777514605E+03  0.33777514606E+03  0.25500000000E-02 0.  1.
         11    1    1    2    0    0 -0.23403366447E+02  0.98034693192E+02  0.52856539466E+03  0.53808911442E+03  0.51100000000E-03 0. -1.
         22    1    1    2    0    0 -0.61060700842E+02  0.10116154008E+03  0.42291874776E+03  0.43911539893E+03  0.00000000000E+00 0. -1.
         -2    1    1    2    0  501  0.84464067289E+02 -0.19919623327E+03 -0.28889529106E+03  0.36093463011E+03  0.25500000000E-02 0.  1.
<mgrwt>
<rscale>  0 0.21636386E+03</rscale>
<asrwt>0</asrwt>
<pdfrwt beam="1">  1       11 0.10000000E+01 0.22272536E+03</pdfrwt>
<pdfrwt beam="2">  1       -2 0.51984321E-01 0.21636386E+03</pdfrwt>
<totfact> 0.28800801E+01</totfact>
</mgrwt>
</event>
<event>
 5    1  0.2799727E-003  0.1123131E+03  0.7818608E-02  0.1450166E+00
         11   -1    0    0    0    0  0.00000000000E+00  0.00000000000E+00  0.99998541763E+03  0.99998541763E+03  0.51100000000E-03 0. -1.
          2   -1    0    0  501    0 -0.00000000000E+00 -0.00000000000E+00 -0.28172291903E+02  0.28172292018E+02  0.25500000000E-02 0. -1.
         11    1    1    2    0    0 -0.91608215357E+02 -0.22001228181E+02  0.31734341421E+03  0.33103317312E+03  0.51100000000E-03 0. -1.
         22    1    1    2    0    0  0.13267302639E+03 -0.49452292740E+01  0.62688993210E+03  0.64079448670E+03  0.00000000000E+00 0. -1.
          2    1    1    2  501    0 -0.41064811029E+02  0.26946457455E+02  0.27579779420E+02  0.56330049827E+02  0.25500000000E-02 0. -1.
<mgrwt>
<rscale>  0 0.49116497E+02</rscale>
<asrwt>0</asrwt>
<pdfrwt beam="1">  1       11 0.10000000E+01 0.11231312E+03</pdfrwt>
<pdfrwt beam="2">  1        2 0.43341354E-02 0.49116497E+02</pdfrwt>
<totfact> 0.19967568E+03</totfact>
</mgrwt>
</event>
<event>
 5    1  0.2799727E-003  0.2058668E+03  0.7818608E-02  0.1144881E+00
         11   -1    0    0    0    0  0.00000000000E+00  0.00000000000E+00  0.10001820271E+04  0.10001820271E+04  0.51100000000E-03 0. -1.
          2   -1    0    0  501    0 -0.00000000000E+00 -0.00000000000E+00 -0.15968693804E+03  0.15968693806E+03  0.25500000000E-02 0.  1.
         11    1    1    2    0    0  0.11567219389E+02  0.15532310338E+03  0.40525804478E+03  0.43415797801E+03  0.51100000000E-03 0. -1.
         22    1    1    2    0    0 -0.78040421719E+02  0.52233361326E+02  0.49168971868E+03  0.50057707790E+03  0.00000000000E+00 0. -1.
          2    1    1    2  501    0  0.66473202330E+02 -0.20755646471E+03 -0.56452674357E+02  0.22513390930E+03  0.25500000000E-02 0.  1.
<mgrwt>
<rscale>  0 0.20586680E+03</rscale>
<asrwt>0</asrwt>
<pdfrwt beam="1">  1       11 0.10000000E+01 0.93907569E+02</pdfrwt>
<pdfrwt beam="2">  1        2 0.24571692E-01 0.20586680E+03</pdfrwt>
<totfact> 0.26962193E+02</totfact>
</mgrwt>
</event>
<event>
 5    1  0.2799727E-003  0.1876875E+03  0.7818608E-02  0.1171364E+00
         11   -1    0    0    0    0  0.00000000000E+00  0.00000000000E+00  0.10004490656E+04  0.10004490656E+04  0.51100000000E-03 0. -1.
          2   -1    0    0  501    0 -0.00000000000E+00 -0.00000000000E+00 -0.10767985478E+03  0.10767985481E+03  0.25500000000E-02 0. -1.
         11    1    1    2    0    0  0.10568552610E+03  0.11815350185E+03  0.83234341703E+03  0.84730469390E+03  0.51100000000E-03 0. -1.
         22    1    1    2    0    0 -0.37136651383E+01  0.25748942480E+02  0.79290019026E+02  0.83448825424E+02  0.00000000000E+00 0.  1.
          2    1    1    2  501    0 -0.10197186097E+03 -0.14390244433E+03 -0.18864225236E+02  0.17737540109E+03  0.25500000000E-02 0. -1.
<mgrwt>
<rscale>  0 0.17636942E+03</rscale>
<asrwt>0</asrwt>
<pdfrwt beam="1">  1       11 0.10000000E+01 0.18768748E+03</pdfrwt>
<pdfrwt beam="2">  1        2 0.16573570E-01 0.17636942E+03</pdfrwt>
<totfact> 0.42064451E+02</totfact>
</mgrwt>
</event>
<event>
 5    1  0.2799727E-003  0.1926983E+03  0.7818608E-02  0.1158784E+00
         11   -1    0    0    0    0  0.00000000000E+00  0.00000000000E+00  0.10001189555E+04  0.10001189555E+04  0.51100000000E-03 0. -1.
          2   -1    0    0  501    0 -0.00000000000E+00 -0.00000000000E+00 -0.63547003995E+03  0.63547003996E+03  0.25500000000E-02 0.  1.
         11    1    1    2    0    0  0.14313166807E+03 -0.85557640663E+02  0.90192727973E+03  0.91721295357E+03  0.51100000000E-03 0. -1.
         22    1    1    2    0    0  0.21848547189E+02 -0.79624905772E+01  0.74412790048E+02  0.77961680287E+02  0.00000000000E+00 0. -1.
          2    1    1    2  501    0 -0.16498021526E+03  0.93520131240E+02 -0.61169115423E+03  0.64041436160E+03  0.25500000000E-02 0.  1.
<mgrwt>
<rscale>  0 0.18964305E+03</rscale>
<asrwt>0</asrwt>
<pdfrwt beam="1">  1       11 0.10000000E+01 0.19269826E+03</pdfrwt>
<pdfrwt beam="2">  1        2 0.97776248E-01 0.18964305E+03</pdfrwt>
<totfact> 0.59346416E+01</totfact>
</mgrwt>
</event>
<event>
 5    1  0.2799727E-003  0.4764143E+02  0.7818608E-02  0.1466026E+00
         11   -1    0    0    0    0  0.00000000000E+00  0.00000000000E+00  0.10003028840E+04  0.10003028840E+04  0.51100000000E-03 0.  1.
          2   -1    0    0  501    0 -0.00000000000E+00 -0.00000000000E+00 -0.36931920660E+01  0.36931929464E+01  0.25500000000E-02 0.  1.
         11    1    1    2    0    0  0.35239015990E+02 -0.10412517909E+02  0.12764523638E+03  0.13282889425E+03  0.51100000000E-03 0.  1.
         22    1    1    2    0    0  0.10007636827E+02  0.31368619570E+00  0.56440975019E+02  0.57322202112E+02  0.00000000000E+00 0.  1.
          2    1    1    2  501    0 -0.45246652818E+02  0.10098831713E+02  0.81252348055E+03  0.81384498059E+03  0.25500000000E-02 0.  1.
<mgrwt>
<rscale>  0 0.46359961E+02</rscale>
<asrwt>0</asrwt>
<pdfrwt beam="1">  1       11 0.10000000E+01 0.47641434E+02</pdfrwt>
<pdfrwt beam="2">  1        2 0.56835554E-03 0.46359961E+02</pdfrwt>
<totfact> 0.29051304E+04</totfact>
</mgrwt>
</event>
<event>
 5    1  0.2799727E-003  0.1419715E+03  0.7818608E-02  0.1398845E+00
         11   -1    0    0    0    0  0.00000000000E+00  0.00000000000E+00  0.10001180315E+04  0.10001180315E+04  0.51100000000E-03 0. -1.
          2   -1    0    0  501    0 -0.00000000000E+00 -0.00000000000E+00 -0.11546817272E+03  0.11546817275E+03  0.25500000000E-02 0.  1.
         11    1    1    2    0    0 -0.72526294495E+02  0.12623008272E+03  0.66984336746E+03  0.68548102388E+03  0.51100000000E-03 0. -1.
         22    1    1    2    0    0  0.14902459969E+02 -0.14206239669E+03  0.29636740044E+03  0.32899459556E+03  0.00000000000E+00 0. -1.
          2    1    1    2  501    0  0.57623834526E+02  0.15832313966E+02 -0.81560909077E+02  0.10111058484E+03  0.25500000000E-02 0.  1.
<mgrwt>
<rscale>  0 0.59759254E+02</rscale>
<asrwt>0</asrwt>
<pdfrwt beam="1">  1       11 0.10000000E+01 0.14197147E+03</pdfrwt>
<pdfrwt beam="2">  1        2 0.17766431E-01 0.59759254E+02</pdfrwt>
<totfact> 0.37147242E+02</totfact>
</mgrwt>
</event>
<event>
 5    1  0.2799727E-003  0.1688512E+03  0.7818608E-02  0.1179051E+00
         11   -1    0    0    0    0  0.00000000000E+00  0.00000000000E+00  0.10008294387E+04  0.10008294387E+04  0.51100000000E-03 0. -1.
          2   -1    0    0  501    0 -0.00000000000E+00 -0.00000000000E+00 -0.27847937772E+03  0.27847937774E+03  0.25500000000E-02 0.  1.
         11    1    1    2    0    0 -0.14045036452E+03  0.73920723745E+02  0.91594206167E+03  0.92959154397E+03  0.51100000000E-03 0. -1.
         22    1    1    2    0    0  0.30959316356E+01  0.24861720417E+02  0.48369154195E+02  0.54472607908E+02  0.00000000000E+00 0.  1.
          2    1    1    2  501    0  0.13735443289E+03 -0.98782444162E+02 -0.24196115485E+03  0.29524466459E+03  0.25500000000E-02 0.  1.
<mgrwt>
<rscale>  0 0.16885123E+03</rscale>
<asrwt>0</asrwt>
<pdfrwt beam="1">  1       11 0.10000000E+01 0.25053741E+02</pdfrwt>
<pdfrwt beam="2">  1        2 0.42878516E-01 0.16885123E+03</pdfrwt>
<totfact> 0.14663052E+02</totfact>
</mgrwt>
</event>
<event>
 5    1  0.2799727E-003  0.1238727E+03  0.7818608E-02  0.1236842E+00
         11   -1    0    0    0    0  0.00000000000E+00  0.00000000000E+00  0.10004066642E+04  0.10004066642E+04  0.51100000000E-03 0. -1.
          2   -1    0    0  501    0 -0.00000000000E+00 -0.00000000000E+00 -0.31127435690E+02  0.31127435795E+02  0.25500000000E-02 0. -1.
         11    1    1    2    0    0 -0.17609760375E+02  0.66575404291E+02  0.22757084976E+03  0.23776223371E+03  0.51100000000E-03 0. -1.
         22    1    1    2    0    0 -0.89038187554E+02  0.23280290097E+02  0.54458514966E+03  0.55230675895E+03  0.00000000000E+00 0. -1.
          2    1    1    2  501    0  0.10664794793E+03 -0.89855694387E+02  0.19712322912E+03  0.24146510737E+03  0.25500000000E-02 0. -1.
<mgrwt>
<rscale>  0 0.12387266E+03</rscale>
<asrwt>0</asrwt>
<pdfrwt beam="1">  1       11 0.10000000E+01 0.68864999E+02</pdfrwt>
<pdfrwt beam="2">  1        2 0.47907836E-02 0.12387266E+03</pdfrwt>
<totfact> 0.19229102E+03</totfact>
</mgrwt>
</event>
<event>
 5    1  0.2799727E-003  0.8767922E+02  0.7818608E-02  0.1313052E+00
         11   -1    0    0    0    0  0.00000000000E+00  0.00000000000E+00  0.10001814654E+04  0.10001814654E+04  0.51100000000E-03 0.  1.
          2   -1    0    0  501    0 -0.00000000000E+00 -0.00000000000E+00 -0.89380966317E+01  0.89380969954E+01  0.25500000000E-02 0.  1.
         11    1    1    2    0    0 -0.34302584814E+02  0.13789086560E+02  0.10868721369E+03  0.11480294706E+03  0.51100000000E-03 0.  1.
         22    1    1    2    0    0 -0.38163910946E+02  0.32366140195E+02  0.19109790273E+03  0.19754103259E+03  0.00000000000E+00 0.  1.
          2    1    1    2  501    0  0.72466495760E+02 -0.46155226755E+02  0.69145825238E+03  0.69677558277E+03  0.25500000000E-02 0.  1.
<mgrwt>
<rscale>  0 0.85916808E+02</rscale>
<asrwt>0</asrwt>
<pdfrwt beam="1">  1       11 0.10000000E+01 0.87679220E+02</pdfrwt>
<pdfrwt beam="2">  1        2 0.13753413E-02 0.85916808E+02</pdfrwt>
<totfact> 0.97993871E+03</totfact>
</mgrwt>
</event>
<event>
 5    1  0.2799727E-003  0.2280211E+03  0.7818608E-02  0.1139214E+00
         11   -1    0    0    0    0  0.00000000000E+00  0.00000000000E+00  0.10004215057E+04  0.10004215057E+04  0.51100000000E-03 0. -1.
          2   -1    0    0  501    0 -0.00000000000E+00 -0.00000000000E+00 -0.11509273958E+03  0.11509273961E+03  0.25500000000E-02 0. -1.
         11    1    1    2    0    0 -0.12384438788E+03 -0.12949453800E+03  0.74977528787E+03  0.77088861069E+03  0.51100000000E-03 0. -1.
         22    1    1    2    0    0  0.24759156474E+01 -0.45542217205E+02  0.12308422638E+03  0.13126290599E+03  0.00000000000E+00 0. -1.
          2    1    1    2  501    0  0.12136847224E+03  0.17503675521E+03  0.12469251880E+02  0.21336272865E+03  0.25500000000E-02 0. -1.
<mgrwt>
<rscale>  0 0.21299806E+03</rscale>
<asrwt>0</asrwt>
<pdfrwt beam="1">  1       11 0.10000000E+01 0.22802111E+03</pdfrwt>
<pdfrwt beam="2">  1        2 0.17714038E-01 0.21299806E+03</pdfrwt>
<totfact> 0.39180980E+02</totfact>
</mgrwt>
</event>
<event>
 5    1  0.2799727E-003  0.2927599E+03  0.7818608E-02  0.1088917E+00
         11   -1    0    0    0    0  0.00000000000E+00  0.00000000000E+00  0.99987599653E+03  0.99987599653E+03  0.51100000000E-03 0.  1.
          2   -1    0    0  501    0 -0.00000000000E+00 -0.00000000000E+00 -0.34945587016E+03  0.34945587017E+03  0.25500000000E-02 0.  1.
         11    1    1    2    0    0  0.24595606911E+03  0.63810053805E+02  0.51391896503E+03  0.57330516613E+03  0.51100000000E-03 0.  1.
         22    1    1    2    0    0  0.11610734443E+02  0.87977613466E+02  0.38013871665E+03  0.39035921089E+03  0.00000000000E+00 0.  1.
          2    1    1    2  501    0 -0.25756680355E+03 -0.15178766727E+03 -0.24363755531E+03  0.38566748968E+03  0.25500000000E-02 0.  1.
<mgrwt>
<rscale>  0 0.29275989E+03</rscale>
<asrwt>0</asrwt>
<pdfrwt beam="1">  1       11 0.10000000E+01 0.88740462E+02</pdfrwt>
<pdfrwt beam="2">  1        2 0.53755773E-01 0.29275989E+03</pdfrwt>
<totfact> 0.11500826E+02</totfact>
</mgrwt>
</event>
<event>
 5    1  0.2799727E-003  0.1416103E+03  0.7818608E-02  0.1215783E+00
         11   -1    0    0    0    0  0.00000000000E+00  0.00000000000E+00  0.10002627569E+04  0.10002627569E+04  0.51100000000E-03 0. -1.
          2   -1    0    0  501    0 -0.00000000000E+00 -0.00000000000E+00 -0.20785557428E+02  0.20785557585E+02  0.25500000000E-02 0. -1.
         11    1    1    2    0    0 -0.12173037512E+03 -0.31854712024E+02  0.54317417638E+03  0.55755824161E+03  0.51100000000E-03 0. -1.
         22    1    1    2    0    0 -0.90351480510E+01 -0.12836483674E+02  0.75793141571E+02  0.77401611886E+02  0.00000000000E+00 0.  1.
          2    1    1    2  501    0  0.13076552317E+03  0.44691195698E+02  0.36050988149E+03  0.38608846095E+03  0.25500000000E-02 0. -1.
<mgrwt>
<rscale>  0 0.13819162E+03</rscale>
<asrwt>0</asrwt>
<pdfrwt beam="1">  1       11 0.10000000E+01 0.14161029E+03</pdfrwt>
<pdfrwt beam="2">  1        2 0.31986182E-02 0.13819162E+03</pdfrwt>
<totfact> 0.33163288E+03</totfact>
</mgrwt>
</event>
<event>
 5    1  0.2799727E-003  0.2179801E+03  0.7818608E-02  0.1135398E+00
         11   -1    0    0    0    0  0.00000000000E+00  0.00000000000E+00  0.10000955780E+04  0.10000955780E+04  0.51100000000E-03 0. -1.
          2   -1    0    0  501    0 -0.00000000000E+00 -0.00000000000E+00 -0.34347244891E+03  0.34347244892E+03  0.25500000000E-02 0. -1.
         11    1    1    2    0    0  0.17839469091E+03 -0.81626601291E+02  0.86959327599E+03  0.89144827861E+03  0.51100000000E-03 0. -1.
         22    1    1    2    0    0  0.83830046744E+01 -0.32599840282E+02  0.79760598352E+02  0.86572382451E+02  0.00000000000E+00 0. -1.
          2    1    1    2  501    0 -0.18677769559E+03  0.11422644157E+03 -0.29273074521E+03  0.36554736591E+03  0.25500000000E-02 0. -1.
<mgrwt>
<rscale>  0 0.21798008E+03</rscale>
<asrwt>0</asrwt>
<pdfrwt beam="1">  1       11 0.10000000E+01 0.33660427E+02</pdfrwt>
<pdfrwt beam="2">  1        2 0.52846964E-01 0.21798008E+03</pdfrwt>
<totfact> 0.11725476E+02</totfact>
</mgrwt>
</event>
<event>
 5    1  0.2930456E-003  0.3490699E+03  0.7818608E-02  0.1063686E+00
         11   -1    0    0    0    0  0.00000000000E+00  0.00000000000E+00  0.10004094370E+04  0.10004094370E+04  0.51100000000E-03 0. -1.
          2   -1    0    0  501    0 -0.00000000000E+00 -0.00000000000E+00 -0.38892446965E+03  0.38892446966E+03  0.25500000000E-02 0. -1.
         11    1    1    2    0    0 -0.26363028631E+03 -0.20389933290E+03  0.83002040609E+03  0.89443263600E+03  0.51100000000E-03 0. -1.
         22    1    1    2    0    0 -0.78373615438E+01 -0.12880367921E+02  0.52282017327E+02  0.54412658908E+02  0.00000000000E+00 0.  1.
          2    1    1    2  501    0  0.27146764786E+03  0.21677970082E+03 -0.27081745610E+03  0.44048861172E+03  0.25500000000E-02 0. -1.
<mgrwt>
<rscale>  0 0.34740196E+03</rscale>
<asrwt>0</asrwt>
<pdfrwt beam="1">  1       11 0.10000000E+01 0.34906995E+03</pdfrwt>
<pdfrwt beam="2">  1        2 0.59859031E-01 0.34740196E+03</pdfrwt>
<totfact> 0.10214159E+02</totfact>
</mgrwt>
</event>
<event>
 5    1  0.7491959E-003  0.1824774E+03  0.7818608E-02  0.1167359E+00
         11   -1    0    0    0    0  0.00000000000E+00  0.00000000000E+00  0.99986109529E+03  0.99986109529E+03  0.51100000000E-03 0.  1.
          2   -1    0    0  501    0 -0.00000000000E+00 -0.00000000000E+00 -0.81616381106E+03  0.81616381107E+03  0.25500000000E-02 0. -1.
         11    1    1    2    0    0  0.16891170528E+03  0.19672308663E+02  0.91356436471E+03  0.92925669886E+03  0.51100000000E-03 0.  1.
         22    1    1    2    0    0  0.93940069658E+01  0.81285513922E+01  0.67807157052E+02  0.68935703827E+02  0.00000000000E+00 0.  1.
          2    1    1    2  501    0 -0.17830571225E+03 -0.27800860056E+02 -0.79767423753E+03  0.81783250368E+03  0.25500000000E-02 0. -1.
<mgrwt>
<rscale>  0 0.18046001E+03</rscale>
<asrwt>0</asrwt>
<pdfrwt beam="1">  1       11 0.10000000E+01 0.18247742E+03</pdfrwt>
<pdfrwt beam="2">  1        2 0.12554622E+00 0.18046001E+03</pdfrwt>
<totfact> 0.43867067E+01</totfact>
</mgrwt>
</event>
<event>
 5    1  0.2799727E-003  0.4286045E+02  0.7818608E-02  0.1488158E+00
         11   -1    0    0    0    0  0.00000000000E+00  0.00000000000E+00  0.10006440601E+04  0.10006440601E+04  0.51100000000E-03 0.  1.
          2   -1    0    0  501    0 -0.00000000000E+00 -0.00000000000E+00 -0.71702650798E+01  0.71702655333E+01  0.25500000000E-02 0.  1.
         11    1    1    2    0    0 -0.88965132371E+01 -0.18328951135E+02  0.27817580691E+02  0.34480664049E+02  0.51100000000E-03 0.  1.
         22    1    1    2    0    0  0.28296933624E+02 -0.30576855022E+02  0.14165166943E+03  0.14765112925E+03  0.00000000000E+00 0.  1.
          2    1    1    2  501    0 -0.19400420387E+02  0.48905806157E+02  0.82400454492E+03  0.82568253236E+03  0.25500000000E-02 0.  1.
<mgrwt>
<rscale>  0 0.42860452E+02</rscale>
<asrwt>0</asrwt>
<pdfrwt beam="1">  1       11 0.10000000E+01 0.20373974E+02</pdfrwt>
<pdfrwt beam="2">  1        2 0.11038282E-02 0.42860452E+02</pdfrwt>
<totfact> 0.11743022E+04</totfact>
</mgrwt>
</event>
<event>
 5    1  0.2799727E-003  0.5003221E+03  0.7818608E-02  0.1014780E+00
         11   -1    0    0    0    0  0.00000000000E+00  0.00000000000E+00  0.10006214731E+04  0.10006214731E+04  0.51100000000E-03 0. -1.
          2   -1    0    0  501    0 -0.00000000000E+00 -0.00000000000E+00 -0.10222565320E+04  0.10222565320E+04  0.25500000000E-02 0. -1.
         11    1    1    2    0    0 -0.22638377390E+03  0.43049262207E+03  0.85017652226E+03  0.97947620172E+03  0.51100000000E-03 0. -1.
         22    1    1    2    0    0  0.40453456060E+01  0.13089313028E+02  0.19177277178E+02  0.23568260364E+02  0.00000000000E+00 0.  1.
          2    1    1    2  501    0  0.22233842829E+03 -0.44358193509E+03 -0.89098885832E+03  0.10198335430E+04  0.25500000000E-02 0. -1.
<mgrwt>
<rscale>  0 0.49618475E+03</rscale>
<asrwt>0</asrwt>
<pdfrwt beam="1">  1       11 0.10000000E+01 0.50032206E+03</pdfrwt>
<pdfrwt beam="2">  1        2 0.15736797E+00 0.49618475E+03</pdfrwt>
<totfact> 0.30888117E+01</totfact>
</mgrwt>
</event>
<event>
 5    1  0.2799727E-003  0.1600428E+03  0.7818608E-02  0.1190594E+00
         11   -1    0    0    0    0  0.00000000000E+00  0.00000000000E+00  0.10002225683E+04  0.10002225683E+04  0.51100000000E-03 0.  1.
         -2   -1    0    0    0  501 -0.00000000000E+00 -0.00000000000E+00 -0.90746134550E+02  0.90746134586E+02  0.25500000000E-02 0. -1.
         11    1    1    2    0    0 -0.19024255150E+02  0.14345416557E+03  0.86928065670E+03  0.88124337162E+03  0.51100000000E-03 0.  1.
         22    1    1    2    0    0 -0.35163487159E+01  0.13264252839E+02  0.49259355994E+02  0.51135010165E+02  0.00000000000E+00 0.  1.
         -2    1    1    2    0  501  0.22540603866E+02 -0.15671841841E+03 -0.90635789027E+01  0.15859032115E+03  0.25500000000E-02 0. -1.
<mgrwt>
<rscale>  0 0.15833111E+03</rscale>
<asrwt>0</asrwt>
<pdfrwt beam="1">  1       11 0.10000000E+01 0.16004278E+03</pdfrwt>
<pdfrwt beam="2">  1       -2 0.13964051E-01 0.15833111E+03</pdfrwt>
<totfact> 0.30184174E+02</totfact>
</mgrwt>
</event>
<event>
 5    1  0.2799727E-003  0.1439063E+03  0.7818608E-02  0.1260291E+00
         11   -1    0    0    0    0  0.00000000000E+00  0.00000000000E+00  0.10008221795E+04  0.10008221795E+04  0.51100000000E-03 0.  1.
          2   -1    0    0  501    0 -0.00000000000E+00 -0.00000000000E+00 -0.13156875843E+04  0.13156875843E+04  0.25500000000E-02 0.  1.
         11    1    1    2    0    0 -0.13961222400E+03 -0.65188588433E+02  0.66964344896E+03  0.68714152391E+03  0.51100000000E-03 0.  1.
         22    1    1    2    0    0  0.14379021740E+03 -0.44882890636E+02  0.30235448707E+03  0.33779925450E+03  0.00000000000E+00 0. -1.
          2    1    1    2  501    0 -0.41779933993E+01  0.11007147907E+03 -0.12868633408E+04  0.12915689854E+04  0.25500000000E-02 0.  1.
<mgrwt>
<rscale>  0 0.11015074E+03</rscale>
<asrwt>0</asrwt>
<pdfrwt beam="1">  1       11 0.10000000E+01 0.14390632E+03</pdfrwt>
<pdfrwt beam="2">  1        2 0.20257989E+00 0.11015074E+03</pdfrwt>
<totfact> 0.22859295E+01</totfact>
</mgrwt>
</event>
<event>
 5    1  0.2799727E-003  0.8513872E+02  0.7818608E-02  0.1388947E+00
         11   -1    0    0    0    0  0.00000000000E+00  0.00000000000E+00  0.10001882344E+04  0.10001882344E+04  0.51100000000E-03 0. -1.
          2   -1    0    0  501    0 -0.00000000000E+00 -0.00000000000E+00 -0.30598306338E+02  0.30598306445E+02  0.25500000000E-02 0.  1.
         11    1    1    2    0    0 -0.39808709980E+02  0.54410683264E+02  0.30001022918E+03  0.30749210308E+03  0.51100000000E-03 0. -1.
         22    1    1    2    0    0  0.10192926244E+03 -0.51947311410E+02  0.64717842727E+03  0.65721230544E+03  0.00000000000E+00 0. -1.
          2    1    1    2  501    0 -0.62120552457E+02 -0.24633718540E+01  0.22401271643E+02  0.66082132352E+02  0.25500000000E-02 0.  1.
<mgrwt>
<rscale>  0 0.62169375E+02</rscale>
<asrwt>0</asrwt>
<pdfrwt beam="1">  1       11 0.10000000E+01 0.85138720E+02</pdfrwt>
<pdfrwt beam="2">  1        2 0.47083177E-02 0.62169375E+02</pdfrwt>
<totfact> 0.18430844E+03</totfact>
</mgrwt>
</event>
<event>
 5    1  0.2799727E-003  0.1718202E+03  0.7818608E-02  0.1175963E+00
         11   -1    0    0    0    0  0.00000000000E+00  0.00000000000E+00  0.10002307459E+04  0.10002307459E+04  0.51100000000E-03 0. -1.
          2   -1    0    0  501    0 -0.00000000000E+00 -0.00000000000E+00 -0.66222965026E+02  0.66222965075E+02  0.25500000000E-02 0. -1.
         11    1    1    2    0    0  0.85102758887E+02  0.86691357775E+02  0.68575296121E+03  0.69643017948E+03  0.51100000000E-03 0. -1.
         22    1    1    2    0    0  0.19739635754E+02  0.64092054864E+02  0.14398546154E+03  0.15883720550E+03  0.00000000000E+00 0. -1.
          2    1    1    2  501    0 -0.10484239464E+03 -0.15078341264E+03  0.10426935814E+03  0.21118632601E+03  0.25500000000E-02 0. -1.
<mgrwt>
<rscale>  0 0.17182022E+03</rscale>
<asrwt>0</asrwt>
<pdfrwt beam="1">  1       11 0.10000000E+01 0.67062991E+02</pdfrwt>
<pdfrwt beam="2">  1        2 0.10190499E-01 0.17182022E+03</pdfrwt>
<totfact> 0.75283830E+02</totfact>
</mgrwt>
</event>
<event>
 5    1  0.2799727E-003  0.7649076E+02  0.7818608E-02  0.1518042E+00
         11   -1    0    0    0    0  0.00000000000E+00  0.00000000000E+00  0.10000724662E+04  0.10000724662E+04  0.51100000000E-03 0. -1.
          2   -1    0    0  501    0 -0.00000000000E+00 -0.00000000000E+00 -0.76762623111E+01  0.76762627346E+01  0.25500000000E-02 0. -1.
         11    1    1    2    0    0  0.54717714388E+02 -0.47141764477E+02  0.39230626006E+03  0.39889920520E+03  0.51100000000E-03 0. -1.
         22    1    1    2    0    0  0.17358907643E+02  0.90465167539E+01  0.77233326675E+02  0.79675327983E+02  0.00000000000E+00 0.  1.
          2    1    1    2  501    0 -0.72076622031E+02  0.38095247723E+02  0.52285661717E+03  0.52917419577E+03  0.25500000000E-02 0. -1.
<mgrwt>
<rscale>  0 0.38694798E+02</rscale>
<asrwt>0</asrwt>
<pdfrwt beam="1">  1       11 0.10000000E+01 0.76490762E+02</pdfrwt>
<pdfrwt beam="2">  1        2 0.11810490E-02 0.38694798E+02</pdfrwt>
<totfact> 0.10529507E+04</totfact>
</mgrwt>
</event>
<event>
 5    1  0.2799727E-003  0.1052356E+03  0.7818608E-02  0.1571487E+00
         11   -1    0    0    0    0  0.00000000000E+00  0.00000000000E+00  0.10004343218E+04  0.10004343218E+04  0.51100000000E-03 0. -1.
          2   -1    0    0  501    0 -0.00000000000E+00 -0.00000000000E+00 -0.26989244753E+02  0.26989244874E+02  0.25500000000E-02 0. -1.
         11    1    1    2    0    0 -0.64442304184E+02 -0.80781471997E+02  0.98768977575E+02  0.14294673035E+03  0.51100000000E-03 0. -1.
         22    1    1    2    0    0 -0.88512443620E+01  0.47993948611E+01  0.13433963528E+02  0.16788391640E+02  0.00000000000E+00 0. -1.
          2    1    1    2  501    0  0.73293548546E+02  0.75982077136E+02  0.86124213592E+03  0.86768844466E+03  0.25500000000E-02 0. -1.
<mgrwt>
<rscale>  0 0.32551268E+02</rscale>
<asrwt>0</asrwt>
<pdfrwt beam="1">  1       11 0.10000000E+01 0.10523559E+03</pdfrwt>
<pdfrwt beam="2">  1        2 0.41539948E-02 0.32551268E+02</pdfrwt>
<totfact> 0.20039838E+03</totfact>
</mgrwt>
</event>
<event>
 5    1  0.2799727E-003  0.2502330E+03  0.7818608E-02  0.1149924E+00
         11   -1    0    0    0    0  0.00000000000E+00  0.00000000000E+00  0.10000859112E+04  0.10000859112E+04  0.51100000000E-03 0. -1.
          2   -1    0    0  501    0 -0.00000000000E+00 -0.00000000000E+00 -0.19941981882E+03  0.19941981883E+03  0.25500000000E-02 0. -1.
         11    1    1    2    0    0 -0.59620710716E+02  0.19428031205E+03 -0.10576912568E+02  0.20349776381E+03  0.51100000000E-03 0. -1.
         22    1    1    2    0    0  0.14880962724E+03  0.57414873337E+02  0.19793477911E+02  0.16072509016E+03  0.00000000000E+00 0. -1.
          2    1    1    2  501    0 -0.89188916527E+02 -0.25169518539E+03  0.79144952702E+03  0.83528287604E+03  0.25500000000E-02 0. -1.
<mgrwt>
<rscale>  0 0.19978125E+03</rscale>
<asrwt>0</asrwt>
<pdfrwt beam="1">  1       11 0.10000000E+01 0.25023296E+03</pdfrwt>
<pdfrwt beam="2">  1        2 0.30682607E-01 0.19978125E+03</pdfrwt>
<totfact> 0.21081223E+02</totfact>
</mgrwt>
</event>
<event>
 5    1  0.2799727E-003  0.1288153E+03  0.7818608E-02  0.1233149E+00
         11   -1    0    0    0    0  0.00000000000E+00  0.00000000000E+00  0.99999544433E+03  0.99999544433E+03  0.51100000000E-03 0. -1.
          2   -1    0    0  501    0 -0.00000000000E+00 -0.00000000000E+00 -0.18672430003E+02  0.18672430177E+02  0.25500000000E-02 0. -1.
         11    1    1    2    0    0 -0.10651047959E+02 -0.32272391502E+02  0.16299033713E+03  0.16649565181E+03  0.51100000000E-03 0. -1.
         22    1    1    2    0    0  0.11292286259E+02 -0.93962743195E+02  0.51494610680E+03  0.52357044010E+03  0.00000000000E+00 0. -1.
          2    1    1    2  501    0 -0.64123830027E+00  0.12623513470E+03  0.30338657040E+03  0.32860178260E+03  0.25500000000E-02 0. -1.
<mgrwt>
<rscale>  0 0.12623676E+03</rscale>
<asrwt>0</asrwt>
<pdfrwt beam="1">  1       11 0.10000000E+01 0.12881533E+03</pdfrwt>
<pdfrwt beam="2">  1        2 0.28726684E-02 0.12623676E+03</pdfrwt>
<totfact> 0.37957804E+03</totfact>
</mgrwt>
</event>
<event>
 5    1  0.2799727E-003  0.8565199E+02  0.7818608E-02  0.1462356E+00
         11   -1    0    0    0    0  0.00000000000E+00  0.00000000000E+00  0.99994091661E+03  0.99994091661E+03  0.51100000000E-03 0. -1.
          2   -1    0    0  501    0 -0.00000000000E+00 -0.00000000000E+00 -0.24902675689E+02  0.24902675819E+02  0.25500000000E-02 0. -1.
         11    1    1    2    0    0  0.79630408775E+02  0.40642183748E+02  0.47709981095E+03  0.48540397476E+03  0.51100000000E-03 0. -1.
         22    1    1    2    0    0 -0.88065146194E+02  0.55727678850E+01  0.48172785268E+03  0.48974304463E+03  0.00000000000E+00 0. -1.
          2    1    1    2  501    0  0.84347374189E+01 -0.46214951633E+02  0.16210577296E+02  0.49696573046E+02  0.25500000000E-02 0. -1.
<mgrwt>
<rscale>  0 0.46978363E+02</rscale>
<asrwt>0</asrwt>
<pdfrwt beam="1">  1       11 0.10000000E+01 0.85651985E+02</pdfrwt>
<pdfrwt beam="2">  1        2 0.38309544E-02 0.46978363E+02</pdfrwt>
<totfact> 0.23256899E+03</totfact>
</mgrwt>
</event>
<event>
 5    1  0.2799727E-003  0.8927551E+02  0.7818608E-02  0.1594628E+00
         11   -1    0    0    0    0  0.00000000000E+00  0.00000000000E+00  0.10002882748E+04  0.10002882748E+04  0.51100000000E-03 0. -1.
         -2   -1    0    0    0  501 -0.00000000000E+00 -0.00000000000E+00 -0.25424126933E+02  0.25424127061E+02  0.25500000000E-02 0. -1.
         11    1    1    2    0    0  0.88179470615E+02 -0.23309569420E+02  0.48371706341E+03  0.49224094964E+03  0.51100000000E-03 0. -1.
         22    1    1    2    0    0 -0.89653682945E+02 -0.69699540332E+01  0.49482881265E+03  0.50293331263E+03  0.00000000000E+00 0. -1.
         -2    1    1    2    0  501  0.14742123297E+01  0.30279523453E+02 -0.36817281687E+01  0.30538139618E+02  0.25500000000E-02 0. -1.
<mgrwt>
<rscale>  0 0.30315390E+02</rscale>
<asrwt>0</asrwt>
<pdfrwt beam="1">  1       11 0.10000000E+01 0.89275509E+02</pdfrwt>
<pdfrwt beam="2">  1       -2 0.39125316E-02 0.30315390E+02</pdfrwt>
<totfact> 0.17837915E+03</totfact>
</mgrwt>
</event>
<event>
 5    1  0.2799727E-003  0.1369845E+03  0.7818608E-02  0.1474992E+00
         11   -1    0    0    0    0  0.00000000000E+00  0.00000000000E+00  0.10000537976E+04  0.10000537976E+04  0.51100000000E-03 0. -1.
         -2   -1    0    0    0  501 -0.00000000000E+00 -0.00000000000E+00 -0.81812728564E+02  0.81812728604E+02  0.25500000000E-02 0.  1.
         11    1    1    2    0    0 -0.11339355582E+02 -0.13324362804E+03  0.50070048696E+03  0.51825034784E+03  0.51100000000E-03 0. -1.
         22    1    1    2    0    0  0.56234910974E+02  0.13345500878E+03  0.47160579199E+03  0.49334027569E+03  0.00000000000E+00 0. -1.
         -2    1    1    2    0  501 -0.44895555392E+02 -0.21138073721E+00 -0.54065209877E+02  0.70275902707E+02  0.25500000000E-02 0.  1.
<mgrwt>
<rscale>  0 0.44896053E+02</rscale>
<asrwt>0</asrwt>
<pdfrwt beam="1">  1       11 0.10000000E+01 0.13698454E+03</pdfrwt>
<pdfrwt beam="2">  1       -2 0.12587250E-01 0.44896053E+02</pdfrwt>
<totfact> 0.33077123E+02</totfact>
</mgrwt>
</event>
<event>
 5    1  0.2799727E-003  0.1114165E+03  0.7818608E-02  0.1626150E+00
         11   -1    0    0    0    0  0.00000000000E+00  0.00000000000E+00  0.10002804171E+04  0.10002804171E+04  0.51100000000E-03 0.  1.
          2   -1    0    0  501    0 -0.00000000000E+00 -0.00000000000E+00 -0.54837037397E+03  0.54837037398E+03  0.25500000000E-02 0. -1.
         11    1    1    2    0    0  0.11093576971E+03 -0.61257799177E+02  0.38800708607E+03  0.40817736562E+03  0.51100000000E-03 0.  1.
         22    1    1    2    0    0 -0.98230086453E+02  0.36748026674E+02  0.59726197540E+03  0.60640039133E+03  0.00000000000E+00 0.  1.
          2    1    1    2  501    0 -0.12705683254E+02  0.24509772503E+02 -0.53335901834E+03  0.53407303413E+03  0.25500000000E-02 0. -1.
<mgrwt>
<rscale>  0 0.27607306E+02</rscale>
<asrwt>0</asrwt>
<pdfrwt beam="1">  1       11 0.10000000E+01 0.11141647E+03</pdfrwt>
<pdfrwt beam="2">  1        2 0.84388328E-01 0.27607306E+02</pdfrwt>
<totfact> 0.72650586E+01</totfact>
</mgrwt>
</event>
<event>
 5    1  0.2799727E-003  0.6636332E+02  0.7818608E-02  0.1390195E+00
         11   -1    0    0    0    0  0.00000000000E+00  0.00000000000E+00  0.10005036306E+04  0.10005036306E+04  0.51100000000E-03 0. -1.
          2   -1    0    0  501    0 -0.00000000000E+00 -0.00000000000E+00 -0.53540399770E+01  0.53540405842E+01  0.25500000000E-02 0. -1.
         11    1    1    2    0    0 -0.44185367788E+02  0.28339296441E+02  0.19755598170E+03  0.20441093013E+03  0.51100000000E-03 0. -1.
         22    1    1    2    0    0 -0.12647334561E+02 -0.39163428692E+01  0.70936768639E+02  0.72161748578E+02  0.00000000000E+00 0. -1.
          2    1    1    2  501    0  0.56832702350E+02 -0.24422953572E+02  0.72665684024E+03  0.72928499243E+03  0.25500000000E-02 0. -1.
<mgrwt>
<rscale>  0 0.61858199E+02</rscale>
<asrwt>0</asrwt>
<pdfrwt beam="1">  1       11 0.10000000E+01 0.66363315E+02</pdfrwt>
<pdfrwt beam="2">  1        2 0.82411332E-03 0.61858199E+02</pdfrwt>
<totfact> 0.18613125E+04</totfact>
</mgrwt>
</event>
<event>
 5    1  0.2799727E-003  0.1067108E+03  0.7818608E-02  0.1392592E+00
         11   -1    0    0    0    0  0.00000000000E+00  0.00000000000E+00  0.99972057345E+03  0.99972057345E+03  0.51100000000E-03 0.  1.
          2   -1    0    0  501    0 -0.00000000000E+00 -0.00000000000E+00 -0.38655862174E+04  0.38655862174E+04  0.25500000000E-02 0.  1.
         11    1    1    2    0    0  0.76001378526E+02 -0.34630055783E+02  0.26000789982E+03  0.27309258187E+03  0.51100000000E-03 0.  1.
         22    1    1    2    0    0 -0.13053902028E+03  0.67153587008E+01  0.72709895287E+03  0.73875464068E+03  0.00000000000E+00 0.  1.
          2    1    1    2  501    0  0.54537641753E+02  0.27914697082E+02 -0.38529724966E+04  0.38534595683E+04  0.25500000000E-02 0.  1.
<mgrwt>
<rscale>  0 0.61266505E+02</rscale>
<asrwt>0</asrwt>
<pdfrwt beam="1">  1       11 0.10000000E+01 0.10671084E+03</pdfrwt>
<pdfrwt beam="2">  1        2 0.59453938E+00 0.61266505E+02</pdfrwt>
<totfact> 0.95860480E-01</totfact>
</mgrwt>
</event>
<event>
 5    1  0.2799727E-003  0.5612000E+02  0.7818608E-02  0.1633167E+00
         11   -1    0    0    0    0  0.00000000000E+00  0.00000000000E+00  0.10005673681E+04  0.10005673681E+04  0.51100000000E-03 0. -1.
          2   -1    0    0  501    0 -0.00000000000E+00 -0.00000000000E+00 -0.43023822342E+01  0.43023829899E+01  0.25500000000E-02 0. -1.
         11    1    1    2    0    0 -0.41214402626E+02  0.33402995654E+02  0.31351834645E+03  0.31797506295E+03  0.51100000000E-03 0. -1.
         22    1    1    2    0    0  0.46035100555E+01  0.12200331915E+02  0.59596173651E+02  0.61006100658E+02  0.00000000000E+00 0. -1.
          2    1    1    2  501    0  0.36610892571E+02 -0.45603327569E+02  0.62315046579E+03  0.62588858750E+03  0.25500000000E-02 0. -1.
<mgrwt>
<rscale>  0 0.27051838E+02</rscale>
<asrwt>0</asrwt>
<pdfrwt beam="1">  1       11 0.10000000E+01 0.56120004E+02</pdfrwt>
<pdfrwt beam="2">  1        2 0.66228054E-03 0.27051838E+02</pdfrwt>
<totfact> 0.20982059E+04</totfact>
</mgrwt>
</event>
<event>
 5    1  0.2799727E-003  0.1166199E+03  0.7818608E-02  0.1248780E+00
         11   -1    0    0    0    0  0.00000000000E+00  0.00000000000E+00  0.10001717203E+04  0.10001717203E+04  0.51100000000E-03 0. -1.
          2   -1    0    0  501    0 -0.00000000000E+00 -0.00000000000E+00 -0.16011437333E+02  0.16011437536E+02  0.25500000000E-02 0. -1.
         11    1    1    2    0    0 -0.11384738442E+03  0.16546733803E+02  0.35760329568E+03  0.37565294944E+03  0.51100000000E-03 0. -1.
         22    1    1    2    0    0 -0.18952089339E+01  0.13272697925E+02  0.55093461531E+02  0.56701374151E+02  0.00000000000E+00 0.  1.
          2    1    1    2  501    0  0.11574259335E+03 -0.29819431728E+02  0.57146352577E+03  0.58382883426E+03  0.25500000000E-02 0. -1.
<mgrwt>
<rscale>  0 0.11661993E+03</rscale>
<asrwt>0</asrwt>
<pdfrwt beam="1">  1       11 0.10000000E+01 0.13407324E+02</pdfrwt>
<pdfrwt beam="2">  1        2 0.24637210E-02 0.11661993E+03</pdfrwt>
<totfact> 0.46273755E+03</totfact>
</mgrwt>
</event>
<event>
 5    1  0.2799727E-003  0.2204105E+03  0.7818608E-02  0.1148722E+00
         11   -1    0    0    0    0  0.00000000000E+00  0.00000000000E+00  0.10003078004E+04  0.10003078004E+04  0.51100000000E-03 0.  1.
          2   -1    0    0  501    0 -0.00000000000E+00 -0.00000000000E+00 -0.20331949863E+03  0.20331949865E+03  0.25500000000E-02 0.  1.
         11    1    1    2    0    0 -0.54569848694E+02 -0.44440492210E+02  0.17090198212E+03  0.18482508820E+03  0.51100000000E-03 0.  1.
         22    1    1    2    0    0 -0.64301871947E+02 -0.11790230958E+03  0.76345164431E+03  0.77517359252E+03  0.00000000000E+00 0.  1.
          2    1    1    2  501    0  0.11887172064E+03  0.16234280179E+03 -0.13736532464E+03  0.24362861835E+03  0.25500000000E-02 0.  1.
<mgrwt>
<rscale>  0 0.20121051E+03</rscale>
<asrwt>0</asrwt>
<pdfrwt beam="1">  1       11 0.10000000E+01 0.22041045E+03</pdfrwt>
<pdfrwt beam="2">  1        2 0.31289550E-01 0.20121051E+03</pdfrwt>
<totfact> 0.20636992E+02</totfact>
</mgrwt>
</event>
<event>
 5    1  0.2799727E-003  0.2662301E+03  0.7818608E-02  0.1116325E+00
         11   -1    0    0    0    0  0.00000000000E+00  0.00000000000E+00  0.99997037803E+03  0.99997037803E+03  0.51100000000E-03 0. -1.
          2   -1    0    0  501    0 -0.00000000000E+00 -0.00000000000E+00 -0.50219611531E+03  0.50219611531E+03  0.25500000000E-02 0. -1.
         11    1    1    2    0    0  0.29812999872E+02 -0.18589237170E+03  0.57122088907E+03  0.60144666674E+03  0.51100000000E-03 0. -1.
         22    1    1    2    0    0 -0.36661973549E+02 -0.59291012071E+02  0.37937965152E+03  0.38573105191E+03  0.00000000000E+00 0. -1.
          2    1    1    2  501    0  0.68489736766E+01  0.24518338377E+03 -0.45282627788E+03  0.51498877469E+03  0.25500000000E-02 0. -1.
<mgrwt>
<rscale>  0 0.24527903E+03</rscale>
<asrwt>0</asrwt>
<pdfrwt beam="1">  1       11 0.10000000E+01 0.26623009E+03</pdfrwt>
<pdfrwt beam="2">  1        2 0.77258650E-01 0.24527903E+03</pdfrwt>
<totfact> 0.77281237E+01</totfact>
</mgrwt>
</event>
<event>
 5    1  0.2799727E-003  0.3980029E+03  0.7818608E-02  0.1047293E+00
         11   -1    0    0    0    0  0.00000000000E+00  0.00000000000E+00  0.10002303624E+04  0.10002303624E+04  0.51100000000E-03 0.  1.
          2   -1    0    0  501    0 -0.00000000000E+00 -0.00000000000E+00 -0.15827665128E+03  0.15827665130E+03  0.25500000000E-02 0.  1.
         11    1    1    2    0    0 -0.71573149967E+02  0.29199847401E+02  0.76336742331E+02  0.10863997936E+03  0.51100000000E-03 0.  1.
         22    1    1    2    0    0 -0.31834311388E+03 -0.20410503164E+02  0.42948368942E+03  0.53499080952E+03  0.00000000000E+00 0.  1.
          2    1    1    2  501    0  0.38991626385E+03 -0.87893442367E+01  0.33613327941E+03  0.51487622486E+03  0.25500000000E-02 0.  1.
<mgrwt>
<rscale>  0 0.39001531E+03</rscale>
<asrwt>0</asrwt>
<pdfrwt beam="1">  1       11 0.10000000E+01 0.39800287E+03</pdfrwt>
<pdfrwt beam="2">  1        2 0.24355863E-01 0.39001531E+03</pdfrwt>
<totfact> 0.27584425E+02</totfact>
</mgrwt>
</event>
<event>
 5    1  0.2799727E-003  0.8177902E+02  0.7818608E-02  0.1339011E+00
         11   -1    0    0    0    0  0.00000000000E+00  0.00000000000E+00  0.10000197209E+04  0.10000197209E+04  0.51100000000E-03 0.  1.
          2   -1    0    0  501    0 -0.00000000000E+00 -0.00000000000E+00 -0.71757743457E+01  0.71757747988E+01  0.25500000000E-02 0.  1.
         11    1    1    2    0    0  0.58230395466E+02  0.22698158581E+02  0.28955711815E+03  0.29622510027E+03  0.51100000000E-03 0.  1.
         22    1    1    2    0    0  0.87242091926E+01  0.14495934268E+02  0.42257050153E+02  0.45518152686E+02  0.00000000000E+00 0.  1.
          2    1    1    2  501    0 -0.66954604659E+02 -0.37194092849E+02  0.66102977824E+03  0.66545224273E+03  0.25500000000E-02 0.  1.
<mgrwt>
<rscale>  0 0.76591903E+02</rscale>
<asrwt>0</asrwt>
<pdfrwt beam="1">  1       11 0.10000000E+01 0.81779023E+02</pdfrwt>
<pdfrwt beam="2">  1        2 0.11039871E-02 0.76591903E+02</pdfrwt>
<totfact> 0.12980583E+04</totfact>
</mgrwt>
</event>
<event>
 5    1  0.2799727E-003  0.4320990E+02  0.7818608E-02  0.1485837E+00
         11   -1    0    0    0    0  0.00000000000E+00  0.00000000000E+00  0.10001666866E+04  0.10001666866E+04  0.51100000000E-03 0.  1.
          2   -1    0    0  501    0 -0.00000000000E+00 -0.00000000000E+00 -0.35309387534E+01  0.35309396742E+01  0.25500000000E-02 0.  1.
         11    1    1    2    0    0 -0.16151633030E+02  0.44741915667E+01  0.96555017103E+02  0.97998800849E+02  0.51100000000E-03 0.  1.
         22    1    1    2    0    0 -0.11786815664E+02 -0.41319628286E+02  0.22694593103E+03  0.23097769658E+03  0.00000000000E+00 0.  1.
          2    1    1    2  501    0  0.27938448694E+02  0.36845436719E+02  0.67313479975E+03  0.67472112889E+03  0.25500000000E-02 0.  1.
<mgrwt>
<rscale>  0 0.43209903E+02</rscale>
<asrwt>0</asrwt>
<pdfrwt beam="1">  1       11 0.10000000E+01 0.16759890E+02</pdfrwt>
<pdfrwt beam="2">  1        2 0.54331195E-03 0.43209903E+02</pdfrwt>
<totfact> 0.30401357E+04</totfact>
</mgrwt>
</event>
<event>
 5    1  0.4628718E-003  0.3231199E+03  0.7818608E-02  0.1074703E+00
         11   -1    0    0    0    0  0.00000000000E+00  0.00000000000E+00  0.10004315602E+04  0.10004315602E+04  0.51100000000E-03 0. -1.
          2   -1    0    0  501    0 -0.00000000000E+00 -0.00000000000E+00 -0.76141795014E+03  0.76141795014E+03  0.25500000000E-02 0. -1.
         11    1    1    2    0    0  0.31160280601E+03 -0.14427050282E+02  0.90421885316E+03  0.95651251058E+03  0.51100000000E-03 0. -1.
         22    1    1    2    0    0  0.98603309857E+01 -0.52562730100E+01  0.33856700563E+02  0.35652920023E+02  0.00000000000E+00 0. -1.
          2    1    1    2  501    0 -0.32146313700E+03  0.19683323292E+02 -0.69906194361E+03  0.76968407978E+03  0.25500000000E-02 0. -1.
<mgrwt>
<rscale>  0 0.32206518E+03</rscale>
<asrwt>0</asrwt>
<pdfrwt beam="1">  1       11 0.10000000E+01 0.32311994E+03</pdfrwt>
<pdfrwt beam="2">  1        2 0.11719177E+00 0.32206518E+03</pdfrwt>
<totfact> 0.46886215E+01</totfact>
</mgrwt>
</event>
<event>
 5    1  0.2799727E-003  0.1700184E+03  0.7818608E-02  0.1632569E+00
         11   -1    0    0    0    0  0.00000000000E+00  0.00000000000E+00  0.10007035953E+04  0.10007035953E+04  0.51100000000E-03 0. -1.
          2   -1    0    0  501    0 -0.00000000000E+00 -0.00000000000E+00 -0.45175647919E+03  0.45175647919E+03  0.25500000000E-02 0. -1.
         11    1    1    2    0    0  0.16144397721E+03 -0.85247554623E+02  0.57358345782E+03  0.60193794234E+03  0.51100000000E-03 0. -1.
         22    1    1    2    0    0 -0.14236799818E+03  0.66000729663E+02  0.39758476046E+03  0.42743231625E+03  0.00000000000E+00 0. -1.
          2    1    1    2  501    0 -0.19075979030E+02  0.19246824960E+02 -0.42222110214E+03  0.42308981593E+03  0.25500000000E-02 0. -1.
<mgrwt>
<rscale>  0 0.27098584E+02</rscale>
<asrwt>0</asrwt>
<pdfrwt beam="1">  1       11 0.10000000E+01 0.17001843E+03</pdfrwt>
<pdfrwt beam="2">  1        2 0.69549895E-01 0.27098584E+02</pdfrwt>
<totfact> 0.88516924E+01</totfact>
</mgrwt>
</event>
<event>
 5    1  0.2799727E-003  0.2451268E+02  0.7818608E-02  0.1684733E+00
         11   -1    0    0    0    0  0.00000000000E+00  0.00000000000E+00  0.10004684731E+04  0.10004684731E+04  0.51100000000E-03 0.  1.
          2   -1    0    0  501    0 -0.00000000000E+00 -0.00000000000E+00 -0.29868910219E+01  0.29868921104E+01  0.25500000000E-02 0.  1.
         11    1    1    2    0    0 -0.12468937809E+02 -0.47528158560E+01  0.25768214999E+02  0.29018348904E+02  0.51100000000E-03 0.  1.
         22    1    1    2    0    0 -0.10846980614E+02  0.25084187625E+01  0.24243395208E+02  0.26677544197E+02  0.00000000000E+00 0.  1.
          2    1    1    2  501    0  0.23315918423E+02  0.22443970935E+01  0.94746997189E+03  0.94775947213E+03  0.25500000000E-02 0.  1.
<mgrwt>
<rscale>  0 0.23423693E+02</rscale>
<asrwt>0</asrwt>
<pdfrwt beam="1">  1       11 0.10000000E+01 0.24512677E+02</pdfrwt>
<pdfrwt beam="2">  1        2 0.45973704E-03 0.23423693E+02</pdfrwt>
<totfact> 0.32718854E+04</totfact>
</mgrwt>
</event>
<event>
 5    1  0.2799727E-003  0.1687679E+03  0.7818608E-02  0.1179139E+00
         11   -1    0    0    0    0  0.00000000000E+00  0.00000000000E+00  0.10002218711E+04  0.10002218711E+04  0.51100000000E-03 0. -1.
          2   -1    0    0  501    0 -0.00000000000E+00 -0.00000000000E+00 -0.63045780701E+02  0.63045780753E+02  0.25500000000E-02 0. -1.
         11    1    1    2    0    0  0.14614483034E+03 -0.98521365315E+02  0.64621157960E+03  0.66981652448E+03  0.51100000000E-03 0. -1.
         22    1    1    2    0    0  0.19736921157E+02  0.63754590100E+02  0.17712724876E+03  0.18928353354E+03  0.00000000000E+00 0. -1.
          2    1    1    2  501    0 -0.16588175150E+03  0.34766775215E+02  0.11383726205E+03  0.20416759385E+03  0.25500000000E-02 0. -1.
<mgrwt>
<rscale>  0 0.16876787E+03</rscale>
<asrwt>0</asrwt>
<pdfrwt beam="1">  1       11 0.10000000E+01 0.66739747E+02</pdfrwt>
<pdfrwt beam="2">  1        2 0.97015026E-02 0.16876787E+03</pdfrwt>
<totfact> 0.79923172E+02</totfact>
</mgrwt>
</event>
<event>
 5    1  0.2799727E-003  0.1816970E+03  0.7818608E-02  0.1168729E+00
         11   -1    0    0    0    0  0.00000000000E+00  0.00000000000E+00  0.10001307723E+04  0.10001307723E+04  0.51100000000E-03 0. -1.
         -2   -1    0    0    0  501 -0.00000000000E+00 -0.00000000000E+00 -0.74951823998E+02  0.74951824041E+02  0.25500000000E-02 0. -1.
         11    1    1    2    0    0  0.15484185004E+03  0.12944769609E+02  0.73412800311E+03  0.75039155815E+03  0.51100000000E-03 0. -1.
         22    1    1    2    0    0  0.22155022517E+02  0.14071287479E+02  0.13433673531E+03  0.13687660358E+03  0.00000000000E+00 0. -1.
         -2    1    1    2    0  501 -0.17699687256E+03 -0.27016057088E+02  0.56714209859E+02  0.18781443459E+03  0.25500000000E-02 0. -1.
<mgrwt>
<rscale>  0 0.17904681E+03</rscale>
<asrwt>0</asrwt>
<pdfrwt beam="1">  1       11 0.10000000E+01 0.18169697E+03</pdfrwt>
<pdfrwt beam="2">  1       -2 0.11532557E-01 0.17904681E+03</pdfrwt>
<totfact> 0.41345362E+02</totfact>
</mgrwt>
</event>
<event>
 5    1  0.2799727E-003  0.2309453E+03  0.7818608E-02  0.1128596E+00
         11   -1    0    0    0    0  0.00000000000E+00  0.00000000000E+00  0.99986559332E+03  0.99986559332E+03  0.51100000000E-03 0. -1.
          2   -1    0    0  501    0 -0.00000000000E+00 -0.00000000000E+00 -0.52697209259E+02  0.52697209321E+02  0.25500000000E-02 0. -1.
         11    1    1    2    0    0 -0.20530226371E+03 -0.75200247297E+02  0.47093470556E+03  0.51921440040E+03  0.51100000000E-03 0. -1.
         22    1    1    2    0    0 -0.10452229955E+02  0.38609583508E+01  0.39371256213E+02  0.40917623663E+02  0.00000000000E+00 0.  1.
          2    1    1    2  501    0  0.21575449366E+03  0.71339288946E+02  0.43686242229E+03  0.49243077858E+03  0.25500000000E-02 0. -1.
<mgrwt>
<rscale>  0 0.22724281E+03</rscale>
<asrwt>0</asrwt>
<pdfrwt beam="1">  1       11 0.10000000E+01 0.23094525E+03</pdfrwt>
<pdfrwt beam="2">  1        2 0.81061731E-02 0.22724281E+03</pdfrwt>
<totfact> 0.10180370E+03</totfact>
</mgrwt>
</event>
<event>
 5    1  0.2799727E-003  0.8931203E+02  0.7818608E-02  0.1318419E+00
         11   -1    0    0    0    0  0.00000000000E+00  0.00000000000E+00  0.99998914594E+03  0.99998914594E+03  0.51100000000E-03 0. -1.
          2   -1    0    0  501    0 -0.00000000000E+00 -0.00000000000E+00 -0.10743875841E+02  0.10743876143E+02  0.25500000000E-02 0. -1.
         11    1    1    2    0    0  0.27770040202E+02  0.50418509598E+02  0.11437092976E+03  0.12803870828E+03  0.51100000000E-03 0. -1.
         22    1    1    2    0    0  0.19776966347E+02  0.18669442885E+02  0.11342089038E+03  0.11663607876E+03  0.00000000000E+00 0. -1.
          2    1    1    2  501    0 -0.47547006549E+02 -0.69087952483E+02  0.76145344996E+03  0.76605823504E+03  0.25500000000E-02 0. -1.
<mgrwt>
<rscale>  0 0.83868129E+02</rscale>
<asrwt>0</asrwt>
<pdfrwt beam="1">  1       11 0.10000000E+01 0.89312027E+02</pdfrwt>
<pdfrwt beam="2">  1        2 0.16528860E-02 0.83868129E+02</pdfrwt>
<totfact> 0.76111860E+03</totfact>
</mgrwt>
</event>
<event>
 5    1  0.2799727E-003  0.1634525E+03  0.7818608E-02  0.1186327E+00
         11   -1    0    0    0    0  0.00000000000E+00  0.00000000000E+00  0.10004475949E+04  0.10004475949E+04  0.51100000000E-03 0. -1.
          2   -1    0    0  501    0 -0.00000000000E+00 -0.00000000000E+00 -0.33090588812E+02  0.33090588910E+02  0.25500000000E-02 0. -1.
         11    1    1    2    0    0 -0.21259143291E+02  0.14483655566E+03  0.66228342179E+03  0.67826905414E+03  0.51100000000E-03 0. -1.
         22    1    1    2    0    0  0.24165778446E+01  0.16181927606E+02  0.53832751418E+02  0.56264196028E+02  0.00000000000E+00 0.  1.
          2    1    1    2  501    0  0.18842565447E+02 -0.16101848326E+03  0.25124083285E+03  0.29900493361E+03  0.25500000000E-02 0. -1.
<mgrwt>
<rscale>  0 0.16211722E+03</rscale>
<asrwt>0</asrwt>
<pdfrwt beam="1">  1       11 0.10000000E+01 0.16345251E+03</pdfrwt>
<pdfrwt beam="2">  1        2 0.50931383E-02 0.16211722E+03</pdfrwt>
<totfact> 0.18145510E+03</totfact>
</mgrwt>
</event>
<event>
 5    1  0.2799727E-003  0.3082621E+02  0.7818608E-02  0.1589131E+00
         11   -1    0    0    0    0  0.00000000000E+00  0.00000000000E+00  0.10001520932E+04  0.10001520932E+04  0.51100000000E-03 0.  1.
          2   -1    0    0  501    0 -0.00000000000E+00 -0.00000000000E+00 -0.80139110587E+01  0.80139114644E+01  0.25500000000E-02 0.  1.
         11    1    1    2    0    0 -0.83860475974E+01 -0.78924486505E+01  0.34330466168E+01  0.12016752862E+02  0.51100000000E-03 0.  1.
         22    1    1    2    0    0 -0.14420744144E+02  0.27477945968E+02  0.65756581751E+02  0.72711233106E+02  0.00000000000E+00 0.  1.
          2    1    1    2  501    0  0.22806791741E+02 -0.19585497317E+02  0.92294855377E+03  0.92343801869E+03  0.25500000000E-02 0.  1.
<mgrwt>
<rscale>  0 0.30826214E+02</rscale>
<asrwt>0</asrwt>
<pdfrwt beam="1">  1       11 0.10000000E+01 0.11515931E+02</pdfrwt>
<pdfrwt beam="2">  1        2 0.12330969E-02 0.30826214E+02</pdfrwt>
<totfact> 0.95215796E+03</totfact>
</mgrwt>
</event>
<event>
 5    1  0.2799727E-003  0.2336582E+03  0.7818608E-02  0.1139263E+00
         11   -1    0    0    0    0  0.00000000000E+00  0.00000000000E+00  0.10000304427E+04  0.10000304427E+04  0.51100000000E-03 0. -1.
         -2   -1    0    0    0  501 -0.00000000000E+00 -0.00000000000E+00 -0.27301087324E+03  0.27301087325E+03  0.25500000000E-02 0.  1.
         11    1    1    2    0    0  0.99749971116E+02  0.64117060621E+02  0.47539226188E+03  0.48995801540E+03  0.51100000000E-03 0. -1.
         22    1    1    2    0    0  0.11067429576E+03 -0.31520614668E+02  0.46655439279E+03  0.48053652340E+03  0.00000000000E+00 0. -1.
         -2    1    1    2    0  501 -0.21042426687E+03 -0.32596445953E+02 -0.21492708523E+03  0.30254677713E+03  0.25500000000E-02 0.  1.
<mgrwt>
<rscale>  0 0.21293403E+03</rscale>
<asrwt>0</asrwt>
<pdfrwt beam="1">  1       11 0.10000000E+01 0.23365819E+03</pdfrwt>
<pdfrwt beam="2">  1       -2 0.42002950E-01 0.21293403E+03</pdfrwt>
<totfact> 0.43815494E+01</totfact>
</mgrwt>
</event>
<event>
 5    1  0.2799727E-003  0.1716868E+03  0.7818608E-02  0.1180950E+00
         11   -1    0    0    0    0  0.00000000000E+00  0.00000000000E+00  0.10005498629E+04  0.10005498629E+04  0.51100000000E-03 0. -1.
          2   -1    0    0  501    0 -0.00000000000E+00 -0.00000000000E+00 -0.29816563067E+02  0.29816563176E+02  0.25500000000E-02 0. -1.
         11    1    1    2    0    0  0.11094320723E+03 -0.11516560460E+03  0.55791441471E+03  0.58037919144E+03  0.51100000000E-03 0. -1.
         22    1    1    2    0    0 -0.19980256450E+01 -0.11482276423E+02  0.34781744912E+02  0.36682482979E+02  0.00000000000E+00 0. -1.
          2    1    1    2  501    0 -0.10894518158E+03  0.12664788103E+03  0.37803714023E+03  0.41330475168E+03  0.25500000000E-02 0. -1.
<mgrwt>
<rscale>  0 0.16705909E+03</rscale>
<asrwt>0</asrwt>
<pdfrwt beam="1">  1       11 0.10000000E+01 0.17168684E+03</pdfrwt>
<pdfrwt beam="2">  1        2 0.45896857E-02 0.16705909E+03</pdfrwt>
<totfact> 0.20857790E+03</totfact>
</mgrwt>
</event>
<event>
 5    1  0.2799727E-003  0.1846551E+03  0.7818608E-02  0.1166061E+00
         11   -1    0    0    0    0  0.00000000000E+00  0.00000000000E+00  0.99997817151E+03  0.99997817151E+03  0.51100000000E-03 0. -1.
         -2   -1    0    0    0  501 -0.00000000000E+00 -0.00000000000E+00 -0.48997252722E+02  0.48997252789E+02  0.25500000000E-02 0. -1.
         11    1    1    2    0    0  0.13398047583E+03  0.71409159894E+02  0.68889073923E+03  0.70542220451E+03  0.51100000000E-03 0. -1.
         22    1    1    2    0    0  0.25834210935E+02  0.15279250862E+02  0.83373510046E+02  0.88611535022E+02  0.00000000000E+00 0. -1.
         -2    1    1    2    0  501 -0.15981468676E+03 -0.86688410756E+02  0.17871666952E+03  0.25494168477E+03  0.25500000000E-02 0. -1.
<mgrwt>
<rscale>  0 0.18181203E+03</rscale>
<asrwt>0</asrwt>
<pdfrwt beam="1">  1       11 0.10000000E+01 0.18465511E+03</pdfrwt>
<pdfrwt beam="2">  1       -2 0.75378741E-02 0.18181203E+03</pdfrwt>
<totfact> 0.80803963E+02</totfact>
</mgrwt>
</event>
<event>
 5    1  0.2799727E-003  0.1757928E+03  0.7818608E-02  0.1171938E+00
         11   -1    0    0    0    0  0.00000000000E+00  0.00000000000E+00  0.99983267003E+03  0.99983267003E+03  0.51100000000E-03 0. -1.
          2   -1    0    0  501    0 -0.00000000000E+00 -0.00000000000E+00 -0.89451696196E+02  0.89451696232E+02  0.25500000000E-02 0. -1.
         11    1    1    2    0    0 -0.10260416061E+03 -0.14083308283E+03  0.83519375058E+03  0.85317651866E+03  0.51100000000E-03 0. -1.
         22    1    1    2    0    0  0.96675555520E+01 -0.86512883281E+01  0.57792977643E+02  0.59231196890E+02  0.00000000000E+00 0.  1.
          2    1    1    2  501    0  0.92936605060E+02  0.14948437116E+03  0.17394245615E+02  0.17687665071E+03  0.25500000000E-02 0. -1.
<mgrwt>
<rscale>  0 0.17579281E+03</rscale>
<asrwt>0</asrwt>
<pdfrwt beam="1">  1       11 0.10000000E+01 0.12973296E+02</pdfrwt>
<pdfrwt beam="2">  1        2 0.13759496E-01 0.17579281E+03</pdfrwt>
<totfact> 0.52370464E+02</totfact>
</mgrwt>
</event>
<event>
 5    1  0.2799727E-003  0.1447674E+03  0.7818608E-02  0.1210991E+00
         11   -1    0    0    0    0  0.00000000000E+00  0.00000000000E+00  0.10003151343E+04  0.10003151343E+04  0.51100000000E-03 0.  1.
          2   -1    0    0  501    0 -0.00000000000E+00 -0.00000000000E+00 -0.21078011009E+02  0.21078011163E+02  0.25500000000E-02 0.  1.
         11    1    1    2    0    0  0.11904010631E+03 -0.25702905857E+02  0.47714486830E+03  0.49244127734E+03  0.51100000000E-03 0.  1.
         22    1    1    2    0    0  0.21552026500E+02  0.76102629871E+01  0.10081728883E+03  0.10337568223E+03  0.00000000000E+00 0.  1.
          2    1    1    2  501    0 -0.14059213281E+03  0.18092642870E+02  0.40127496620E+03  0.42557618594E+03  0.25500000000E-02 0.  1.
<mgrwt>
<rscale>  0 0.14175151E+03</rscale>
<asrwt>0</asrwt>
<pdfrwt beam="1">  1       11 0.10000000E+01 0.14476738E+03</pdfrwt>
<pdfrwt beam="2">  1        2 0.32437928E-02 0.14175151E+03</pdfrwt>
<totfact> 0.32626577E+03</totfact>
</mgrwt>
</event>
<event>
 5    1  0.2799727E-003  0.9157411E+02  0.7818608E-02  0.1299084E+00
         11   -1    0    0    0    0  0.00000000000E+00  0.00000000000E+00  0.10000300799E+04  0.10000300799E+04  0.51100000000E-03 0.  1.
          2   -1    0    0  501    0 -0.00000000000E+00 -0.00000000000E+00 -0.20133135435E+02  0.20133135596E+02  0.25500000000E-02 0.  1.
         11    1    1    2    0    0  0.49814842648E+02 -0.37618956991E+02  0.21796709898E+03  0.22672970848E+03  0.51100000000E-03 0.  1.
         22    1    1    2    0    0  0.23157744443E+02  0.96920477676E+02  0.58145550622E+03  0.58993250955E+03  0.00000000000E+00 0.  1.
          2    1    1    2  501    0 -0.72972587092E+02 -0.59301520686E+02  0.18047433925E+03  0.20350099744E+03  0.25500000000E-02 0.  1.
<mgrwt>
<rscale>  0 0.91574110E+02</rscale>
<asrwt>0</asrwt>
<pdfrwt beam="1">  1       11 0.10000000E+01 0.62423589E+02</pdfrwt>
<pdfrwt beam="2">  1        2 0.30974985E-02 0.91574110E+02</pdfrwt>
<totfact> 0.33156479E+03</totfact>
</mgrwt>
</event>
<event>
 5    1  0.2799727E-003  0.1687375E+03  0.7818608E-02  0.1191615E+00
         11   -1    0    0    0    0  0.00000000000E+00  0.00000000000E+00  0.10003689145E+04  0.10003689145E+04  0.51100000000E-03 0.  1.
          2   -1    0    0  501    0 -0.00000000000E+00 -0.00000000000E+00 -0.51150929290E+02  0.51150929354E+02  0.25500000000E-02 0.  1.
         11    1    1    2    0    0 -0.58147748546E+02  0.74561507750E+02  0.44400585747E+03  0.45396231184E+03  0.51100000000E-03 0.  1.
         22    1    1    2    0    0  0.47820733596E+01  0.73561017506E+02  0.40336318420E+03  0.41004383898E+03  0.00000000000E+00 0.  1.
          2    1    1    2  501    0  0.53365675186E+02 -0.14812252526E+03  0.10184894359E+03  0.18751369308E+03  0.25500000000E-02 0.  1.
<mgrwt>
<rscale>  0 0.15744262E+03</rscale>
<asrwt>0</asrwt>
<pdfrwt beam="1">  1       11 0.10000000E+01 0.16873748E+03</pdfrwt>
<pdfrwt beam="2">  1        2 0.78722766E-02 0.15744262E+03</pdfrwt>
<totfact> 0.10337132E+03</totfact>
</mgrwt>
</event>
<event>
 5    1  0.2799727E-003  0.2239391E+03  0.7818608E-02  0.1596779E+00
         11   -1    0    0    0    0  0.00000000000E+00  0.00000000000E+00  0.99986722184E+03  0.99986722184E+03  0.51100000000E-03 0. -1.
         -2   -1    0    0    0  501 -0.00000000000E+00 -0.00000000000E+00 -0.22322225255E+03  0.22322225257E+03  0.25500000000E-02 0. -1.
         11    1    1    2    0    0  0.20829283762E+03 -0.97572959913E+02  0.71636906443E+03  0.75239020806E+03  0.51100000000E-03 0. -1.
         22    1    1    2    0    0 -0.18033691276E+03  0.10878045375E+03  0.22211134343E+03  0.30608501777E+03  0.00000000000E+00 0. -1.
         -2    1    1    2    0  501 -0.27955924854E+02 -0.11207493837E+02 -0.16183543857E+03  0.16461424858E+03  0.25500000000E-02 0. -1.
<mgrwt>
<rscale>  0 0.30118792E+02</rscale>
<asrwt>0</asrwt>
<pdfrwt beam="1">  1       11 0.10000000E+01 0.22393908E+03</pdfrwt>
<pdfrwt beam="2">  1       -2 0.34337324E-01 0.30118792E+02</pdfrwt>
<totfact> 0.61747564E+01</totfact>
</mgrwt>
</event>
<event>
 5    1  0.2799727E-003  0.1222352E+03  0.7818608E-02  0.1254828E+00
         11   -1    0    0    0    0  0.00000000000E+00  0.00000000000E+00  0.10001265503E+04  0.10001265503E+04  0.51100000000E-03 0. -1.
          2   -1    0    0  501    0 -0.00000000000E+00 -0.00000000000E+00 -0.15770582823E+02  0.15770583029E+02  0.25500000000E-02 0. -1.
         11    1    1    2    0    0 -0.52618055090E+02  0.37916231708E+02  0.12044843721E+03  0.13679958471E+03  0.51100000000E-03 0. -1.
         22    1    1    2    0    0 -0.39697431523E+02  0.27528150711E+02  0.21129371234E+03  0.21674574511E+03  0.00000000000E+00 0.  1.
          2    1    1    2  501    0  0.92315486613E+02 -0.65444382419E+02  0.65261381788E+03  0.66235180346E+03  0.25500000000E-02 0. -1.
<mgrwt>
<rscale>  0 0.11315969E+03</rscale>
<asrwt>0</asrwt>
<pdfrwt beam="1">  1       11 0.10000000E+01 0.12223521E+03</pdfrwt>
<pdfrwt beam="2">  1        2 0.24265505E-02 0.11315969E+03</pdfrwt>
<totfact> 0.47071140E+03</totfact>
</mgrwt>
</event>
<event>
 5    1  0.2799727E-003  0.2349821E+03  0.7818608E-02  0.1126589E+00
         11   -1    0    0    0    0  0.00000000000E+00  0.00000000000E+00  0.99996661661E+03  0.99996661661E+03  0.51100000000E-03 0. -1.
         -2   -1    0    0    0  501 -0.00000000000E+00 -0.00000000000E+00 -0.14393971426E+03  0.14393971428E+03  0.25500000000E-02 0.  1.
         11    1    1    2    0    0 -0.95982372515E+02  0.34042491585E+01  0.39231856138E+03  0.40390352605E+03  0.51100000000E-03 0. -1.
         22    1    1    2    0    0 -0.12589200310E+03  0.57464595194E+02  0.48931701011E+03  0.50850969758E+03  0.00000000000E+00 0.  1.
         -2    1    1    2    0  501  0.22187437562E+03 -0.60868844352E+02 -0.25608669141E+02  0.23149310726E+03  0.25500000000E-02 0.  1.
<mgrwt>
<rscale>  0 0.23007228E+03</rscale>
<asrwt>0</asrwt>
<pdfrwt beam="1">  1       11 0.10000000E+01 0.23498215E+03</pdfrwt>
<pdfrwt beam="2">  1       -2 0.22143832E-01 0.23007228E+03</pdfrwt>
<totfact> 0.14102226E+02</totfact>
</mgrwt>
</event>
<event>
 5    1  0.2799727E-003  0.6485320E+02  0.7818608E-02  0.1406696E+00
         11   -1    0    0    0    0  0.00000000000E+00  0.00000000000E+00  0.10002529614E+04  0.10002529614E+04  0.51100000000E-03 0. -1.
          2   -1    0    0  501    0 -0.00000000000E+00 -0.00000000000E+00 -0.16714488743E+02  0.16714488937E+02  0.25500000000E-02 0. -1.
         11    1    1    2    0    0  0.33387142005E+02  0.47732689582E+02  0.64371765616E+02  0.86814947531E+02  0.51100000000E-03 0. -1.
         22    1    1    2    0    0  0.34151577419E+02 -0.38893838038E+02  0.16528391023E+03  0.17319882176E+03  0.00000000000E+00 0. -1.
          2    1    1    2  501    0 -0.67538719424E+02 -0.88388515437E+01  0.75388279682E+03  0.75695368105E+03  0.25500000000E-02 0. -1.
<mgrwt>
<rscale>  0 0.57937698E+02</rscale>
<asrwt>0</asrwt>
<pdfrwt beam="1">  1       11 0.10000000E+01 0.64853198E+02</pdfrwt>
<pdfrwt beam="2">  1        2 0.25721102E-02 0.57937698E+02</pdfrwt>
<totfact> 0.40092035E+03</totfact>
</mgrwt>
</event>
<event>
 5    1  0.2799727E-003  0.1959867E+03  0.7818608E-02  0.1157514E+00
         11   -1    0    0    0    0  0.00000000000E+00  0.00000000000E+00  0.10003622222E+04  0.10003622222E+04  0.51100000000E-03 0. -1.
          2   -1    0    0  501    0 -0.00000000000E+00 -0.00000000000E+00 -0.10837746915E+03  0.10837746918E+03  0.25500000000E-02 0.  1.
         11    1    1    2    0    0 -0.62106262714E+02  0.52331078186E+02  0.43228616976E+03  0.43984890835E+03  0.51100000000E-03 0. -1.
         22    1    1    2    0    0 -0.53429744554E+02  0.99830200799E+02  0.46417359521E+03  0.47778440021E+03  0.00000000000E+00 0. -1.
          2    1    1    2  501    0  0.11553600727E+03 -0.15216127899E+03 -0.44750119665E+01  0.19110638277E+03  0.25500000000E-02 0.  1.
<mgrwt>
<rscale>  0 0.19105398E+03</rscale>
<asrwt>0</asrwt>
<pdfrwt beam="1">  1       11 0.10000000E+01 0.19598668E+03</pdfrwt>
<pdfrwt beam="2">  1        2 0.16679496E-01 0.19105398E+03</pdfrwt>
<totfact> 0.41873484E+02</totfact>
</mgrwt>
</event>
<event>
 5    1  0.2799727E-003  0.1031758E+03  0.7818608E-02  0.1515516E+00
         11   -1    0    0    0    0  0.00000000000E+00  0.00000000000E+00  0.10001773160E+04  0.10001773160E+04  0.51100000000E-03 0. -1.
          2   -1    0    0  501    0 -0.00000000000E+00 -0.00000000000E+00 -0.12653963558E+02  0.12653963815E+02  0.25500000000E-02 0. -1.
         11    1    1    2    0    0 -0.40996268820E+02  0.89343977217E+02  0.44131437870E+03  0.45212987201E+03  0.51100000000E-03 0. -1.
         22    1    1    2    0    0  0.60592617384E+01  0.13459210608E+02  0.33278959580E+02  0.36405413797E+02  0.00000000000E+00 0. -1.
          2    1    1    2  501    0  0.34937007082E+02 -0.10280318783E+03  0.51293001414E+03  0.52429599398E+03  0.25500000000E-02 0. -1.
<mgrwt>
<rscale>  0 0.39024365E+02</rscale>
<asrwt>0</asrwt>
<pdfrwt beam="1">  1       11 0.10000000E+01 0.10317583E+03</pdfrwt>
<pdfrwt beam="2">  1        2 0.19471088E-02 0.39024365E+02</pdfrwt>
<totfact> 0.54532819E+03</totfact>
</mgrwt>
</event>
<event>
 5    1  0.2799727E-003  0.2546601E+03  0.7818608E-02  0.1124114E+00
         11   -1    0    0    0    0  0.00000000000E+00  0.00000000000E+00  0.10003157505E+04  0.10003157505E+04  0.51100000000E-03 0. -1.
          2   -1    0    0  501    0 -0.00000000000E+00 -0.00000000000E+00 -0.17508792199E+03  0.17508792201E+03  0.25500000000E-02 0. -1.
         11    1    1    2    0    0 -0.62825842646E+02 -0.59282170680E+02  0.39140794729E+03  0.40082620107E+03  0.51100000000E-03 0. -1.
         22    1    1    2    0    0 -0.53065415767E+01 -0.16418779848E+03  0.50443792376E+03  0.53051240465E+03  0.00000000000E+00 0. -1.
          2    1    1    2  501    0  0.68132384223E+02  0.22346996916E+03 -0.70618042525E+02  0.24406506680E+03  0.25500000000E-02 0. -1.
<mgrwt>
<rscale>  0 0.23362545E+03</rscale>
<asrwt>0</asrwt>
<pdfrwt beam="1">  1       11 0.10000000E+01 0.25466011E+03</pdfrwt>
<pdfrwt beam="2">  1        2 0.26945108E-01 0.23362545E+03</pdfrwt>
<totfact> 0.24391431E+02</totfact>
</mgrwt>
</event>
<event>
 5    1  0.2799727E-003  0.9003808E+02  0.7818608E-02  0.1302760E+00
         11   -1    0    0    0    0  0.00000000000E+00  0.00000000000E+00  0.10002907540E+04  0.10002907540E+04  0.51100000000E-03 0. -1.
          2   -1    0    0  501    0 -0.00000000000E+00 -0.00000000000E+00 -0.13293327382E+02  0.13293327627E+02  0.25500000000E-02 0. -1.
         11    1    1    2    0    0  0.58217579993E+01  0.42538583137E+02  0.25081686814E+03  0.25446517495E+03  0.51100000000E-03 0. -1.
         22    1    1    2    0    0 -0.60442820892E+02 -0.89822808695E+02  0.35459892860E+03  0.37075850864E+03  0.00000000000E+00 0. -1.
          2    1    1    2  501    0  0.54621062893E+02  0.47284225558E+02  0.38158162992E+03  0.38836039808E+03  0.25500000000E-02 0. -1.
<mgrwt>
<rscale>  0 0.90038077E+02</rscale>
<asrwt>0</asrwt>
<pdfrwt beam="1">  1       11 0.10000000E+01 0.42935113E+02</pdfrwt>
<pdfrwt beam="2">  1        2 0.20457219E-02 0.90038077E+02</pdfrwt>
<totfact> 0.57626679E+03</totfact>
</mgrwt>
</event>
<event>
 5    1  0.2799727E-003  0.1266710E+03  0.7818608E-02  0.1240005E+00
         11   -1    0    0    0    0  0.00000000000E+00  0.00000000000E+00  0.99980229932E+03  0.99980229932E+03  0.51100000000E-03 0. -1.
         -2   -1    0    0    0  501 -0.00000000000E+00 -0.00000000000E+00 -0.18298257034E+02  0.18298257212E+02  0.25500000000E-02 0.  1.
         11    1    1    2    0    0  0.19785327746E+02  0.10331887562E+03  0.63368410343E+03  0.64235643703E+03  0.51100000000E-03 0. -1.
         22    1    1    2    0    0  0.12783366685E+02  0.14143794455E+02  0.65864369759E+02  0.68568043498E+02  0.00000000000E+00 0.  1.
         -2    1    1    2    0  501 -0.32568694431E+02 -0.11746267007E+03  0.28195556909E+03  0.30717607600E+03  0.25500000000E-02 0.  1.
<mgrwt>
<rscale>  0 0.12189421E+03</rscale>
<asrwt>0</asrwt>
<pdfrwt beam="1">  1       11 0.10000000E+01 0.12667103E+03</pdfrwt>
<pdfrwt beam="2">  1       -2 0.28145598E-02 0.12189421E+03</pdfrwt>
<totfact> 0.34222679E+03</totfact>
</mgrwt>
</event>
<event>
 5    1  0.2799727E-003  0.2794832E+03  0.7818608E-02  0.1097340E+00
         11   -1    0    0    0    0  0.00000000000E+00  0.00000000000E+00  0.10005670172E+04  0.10005670172E+04  0.51100000000E-03 0.  1.
         -2   -1    0    0    0  501 -0.00000000000E+00 -0.00000000000E+00 -0.82181439236E+02  0.82181439276E+02  0.25500000000E-02 0. -1.
         11    1    1    2    0    0  0.26547383835E+03  0.22053350502E+02  0.55180905735E+03  0.61274460005E+03  0.51100000000E-03 0.  1.
         22    1    1    2    0    0  0.10069636253E+02  0.62920022498E+01  0.40254274910E+02  0.41968958947E+02  0.00000000000E+00 0.  1.
         -2    1    1    2    0  501 -0.27554347460E+03 -0.28345352751E+02  0.32632224573E+03  0.42803489751E+03  0.25500000000E-02 0. -1.
<mgrwt>
<rscale>  0 0.27699759E+03</rscale>
<asrwt>0</asrwt>
<pdfrwt beam="1">  1       11 0.10000000E+01 0.27948319E+03</pdfrwt>
<pdfrwt beam="2">  1       -2 0.12650467E-01 0.27699759E+03</pdfrwt>
<totfact> 0.36329312E+02</totfact>
</mgrwt>
</event>
<event>
 5    1  0.2799727E-003  0.4166275E+02  0.7818608E-02  0.1553903E+00
         11   -1    0    0    0    0  0.00000000000E+00  0.00000000000E+00  0.10004696167E+04  0.10004696167E+04  0.51100000000E-03 0. -1.
          2   -1    0    0  501    0 -0.00000000000E+00 -0.00000000000E+00 -0.63686758594E+01  0.63686763699E+01  0.25500000000E-02 0. -1.
         11    1    1    2    0    0  0.25509488308E+02 -0.13365144242E+02  0.71914700933E+02  0.77466672092E+02  0.51100000000E-03 0. -1.
         22    1    1    2    0    0  0.19483790295E+02  0.20689891648E+02  0.64605607918E+02  0.70580268313E+02  0.00000000000E+00 0. -1.
          2    1    1    2  501    0 -0.44993278603E+02 -0.73247474060E+01  0.85758063202E+03  0.85879135269E+03  0.25500000000E-02 0. -1.
<mgrwt>
<rscale>  0 0.34410026E+02</rscale>
<asrwt>0</asrwt>
<pdfrwt beam="1">  1       11 0.10000000E+01 0.41662750E+02</pdfrwt>
<pdfrwt beam="2">  1        2 0.98025643E-03 0.34410026E+02</pdfrwt>
<totfact> 0.13174773E+04</totfact>
</mgrwt>
</event>
<event>
 5    1  0.2799727E-003  0.6425557E+02  0.7818608E-02  0.1380794E+00
         11   -1    0    0    0    0  0.00000000000E+00  0.00000000000E+00  0.10000738878E+04  0.10000738878E+04  0.51100000000E-03 0.  1.
          2   -1    0    0  501    0 -0.00000000000E+00 -0.00000000000E+00 -0.15103131405E+02  0.15103131620E+02  0.25500000000E-02 0.  1.
         11    1    1    2    0    0 -0.55224068776E+02 -0.25460994092E+02  0.80079367958E+02  0.10055180339E+03  0.51100000000E-03 0.  1.
         22    1    1    2    0    0 -0.16358253829E+02 -0.34765232416E+02  0.21288607450E+03  0.21632543671E+03  0.00000000000E+00 0.  1.
          2    1    1    2  501    0  0.71582322606E+02  0.60226226508E+02  0.69200531392E+03  0.69829977930E+03  0.25500000000E-02 0.  1.
<mgrwt>
<rscale>  0 0.64255568E+02</rscale>
<asrwt>0</asrwt>
<pdfrwt beam="1">  1       11 0.10000000E+01 0.38421529E+02</pdfrwt>
<pdfrwt beam="2">  1        2 0.23237303E-02 0.64255568E+02</pdfrwt>
<totfact> 0.46491077E+03</totfact>
</mgrwt>
</event>
<event>
 5    1  0.2799727E-003  0.1460167E+03  0.7818608E-02  0.1472548E+00
         11   -1    0    0    0    0  0.00000000000E+00  0.00000000000E+00  0.10003964781E+04  0.10003964781E+04  0.51100000000E-03 0. -1.
         -2   -1    0    0    0  501 -0.00000000000E+00 -0.00000000000E+00 -0.40432064924E+02  0.40432065005E+02  0.25500000000E-02 0.  1.
         11    1    1    2    0    0 -0.27363207059E+02 -0.14119146701E+03  0.77500207958E+03  0.78823346720E+03  0.51100000000E-03 0. -1.
         22    1    1    2    0    0 -0.81141491885E+01 -0.11466089347E+02  0.24841101783E+02  0.28537535979E+02  0.00000000000E+00 0.  1.
         -2    1    1    2    0  501  0.35477356248E+02  0.15265755635E+03  0.16012123184E+03  0.22405753995E+03  0.25500000000E-02 0.  1.
<mgrwt>
<rscale>  0 0.45288602E+02</rscale>
<asrwt>0</asrwt>
<pdfrwt beam="1">  1       11 0.10000000E+01 0.14601672E+03</pdfrwt>
<pdfrwt beam="2">  1       -2 0.62227837E-02 0.45288602E+02</pdfrwt>
<totfact> 0.95954123E+02</totfact>
</mgrwt>
</event>
<event>
 5    1  0.2799727E-003  0.1145924E+03  0.7818608E-02  0.1272227E+00
         11   -1    0    0    0    0  0.00000000000E+00  0.00000000000E+00  0.10002378398E+04  0.10002378398E+04  0.51100000000E-03 0. -1.
          2   -1    0    0  501    0 -0.00000000000E+00 -0.00000000000E+00 -0.14446673674E+02  0.14446673899E+02  0.25500000000E-02 0. -1.
         11    1    1    2    0    0 -0.21752581915E+02  0.45819653586E+02  0.85345218805E+02  0.99279513737E+02  0.51100000000E-03 0. -1.
         22    1    1    2    0    0 -0.43535340510E+02  0.35053847773E+02  0.21611291208E+03  0.22322385375E+03  0.00000000000E+00 0. -1.
          2    1    1    2  501    0  0.65287922426E+02 -0.80873501359E+02  0.68433303521E+03  0.69218114618E+03  0.25500000000E-02 0. -1.
<mgrwt>
<rscale>  0 0.10393765E+03</rscale>
<asrwt>0</asrwt>
<pdfrwt beam="1">  1       11 0.10000000E+01 0.11459240E+03</pdfrwt>
<pdfrwt beam="2">  1        2 0.22230937E-02 0.10393765E+03</pdfrwt>
<totfact> 0.52444293E+03</totfact>
</mgrwt>
</event>
<event>
 5    1  0.2799727E-003  0.6562306E+02  0.7818608E-02  0.1375643E+00
         11   -1    0    0    0    0  0.00000000000E+00  0.00000000000E+00  0.10003513433E+04  0.10003513433E+04  0.51100000000E-03 0. -1.
          2   -1    0    0  501    0 -0.00000000000E+00 -0.00000000000E+00 -0.12040926127E+02  0.12040926397E+02  0.25500000000E-02 0. -1.
         11    1    1    2    0    0  0.46231729590E+02  0.39140842181E+02  0.27085627339E+03  0.27754729179E+03  0.51100000000E-03 0. -1.
         22    1    1    2    0    0  0.23578834443E+02 -0.65439737573E+02  0.19381996748E+03  0.20592353066E+03  0.00000000000E+00 0. -1.
          2    1    1    2  501    0 -0.69810564034E+02  0.26298895392E+02  0.52363417629E+03  0.52892144723E+03  0.25500000000E-02 0. -1.
<mgrwt>
<rscale>  0 0.65623059E+02</rscale>
<asrwt>0</asrwt>
<pdfrwt beam="1">  1       11 0.10000000E+01 0.60575424E+02</pdfrwt>
<pdfrwt beam="2">  1        2 0.18531010E-02 0.65623059E+02</pdfrwt>
<totfact> 0.63031559E+03</totfact>
</mgrwt>
</event>
<event>
 5    1  0.2799727E-003  0.1221127E+03  0.7818608E-02  0.1239652E+00
         11   -1    0    0    0    0  0.00000000000E+00  0.00000000000E+00  0.10001150430E+04  0.10001150430E+04  0.51100000000E-03 0.  1.
          2   -1    0    0  501    0 -0.00000000000E+00 -0.00000000000E+00 -0.10799777093E+03  0.10799777096E+03  0.25500000000E-02 0.  1.
         11    1    1    2    0    0  0.12817482932E+03  0.56591224256E+01  0.67707428439E+03  0.68912292019E+03  0.51100000000E-03 0.  1.
         22    1    1    2    0    0 -0.19082756002E+02  0.49780115711E+02  0.27682190147E+03  0.28190880906E+03  0.00000000000E+00 0.  1.
          2    1    1    2  501    0 -0.10909207332E+03 -0.55439238137E+02 -0.61778913798E+02  0.13708108470E+03  0.25500000000E-02 0.  1.
<mgrwt>
<rscale>  0 0.12211270E+03</rscale>
<asrwt>0</asrwt>
<pdfrwt beam="1">  1       11 0.10000000E+01 0.53312395E+02</pdfrwt>
<pdfrwt beam="2">  1        2 0.16616953E-01 0.12211270E+03</pdfrwt>
<totfact> 0.41353161E+02</totfact>
</mgrwt>
</event>
<event>
 5    1  0.2799727E-003  0.1062460E+03  0.7818608E-02  0.1284811E+00
         11   -1    0    0    0    0  0.00000000000E+00  0.00000000000E+00  0.10001816087E+04  0.10001816087E+04  0.51100000000E-03 0. -1.
          2   -1    0    0  501    0 -0.00000000000E+00 -0.00000000000E+00 -0.10566105572E+02  0.10566105880E+02  0.25500000000E-02 0. -1.
         11    1    1    2    0    0  0.18549735902E+02  0.61295279212E+02  0.34558673546E+03  0.35147033400E+03  0.51100000000E-03 0. -1.
         22    1    1    2    0    0  0.37823317189E+02  0.18725117453E+02  0.22952267233E+03  0.23337071466E+03  0.00000000000E+00 0.  1.
          2    1    1    2  501    0 -0.56373053091E+02 -0.80020396666E+02  0.41450609533E+03  0.42590666591E+03  0.25500000000E-02 0. -1.
<mgrwt>
<rscale>  0 0.97883528E+02</rscale>
<asrwt>0</asrwt>
<pdfrwt beam="1">  1       11 0.10000000E+01 0.10624604E+03</pdfrwt>
<pdfrwt beam="2">  1        2 0.16258499E-02 0.97883528E+02</pdfrwt>
<totfact> 0.79509378E+03</totfact>
</mgrwt>
</event>
<event>
 5    1  0.2799727E-003  0.1299329E+03  0.7818608E-02  0.1231558E+00
         11   -1    0    0    0    0  0.00000000000E+00  0.00000000000E+00  0.99991800807E+03  0.99991800807E+03  0.51100000000E-03 0.  1.
          2   -1    0    0  501    0 -0.00000000000E+00 -0.00000000000E+00 -0.18850787765E+02  0.18850787937E+02  0.25500000000E-02 0.  1.
         11    1    1    2    0    0  0.10086301170E+03 -0.42495486833E+02  0.24344627057E+03  0.26691815260E+03  0.51100000000E-03 0.  1.
         22    1    1    2    0    0  0.15886063083E+02 -0.81824041479E+01  0.73206966075E+02  0.75356344257E+02  0.00000000000E+00 0. -1.
          2    1    1    2  501    0 -0.11674907478E+03  0.50677890981E+02  0.66441398366E+03  0.67649429915E+03  0.25500000000E-02 0.  1.
<mgrwt>
<rscale>  0 0.12727370E+03</rscale>
<asrwt>0</asrwt>
<pdfrwt beam="1">  1       11 0.10000000E+01 0.12993290E+03</pdfrwt>
<pdfrwt beam="2">  1        2 0.28998833E-02 0.12727370E+03</pdfrwt>
<totfact> 0.37512390E+03</totfact>
</mgrwt>
</event>
<event>
 5    1  0.2799727E-003  0.7747515E+02  0.7818608E-02  0.1336373E+00
         11   -1    0    0    0    0  0.00000000000E+00  0.00000000000E+00  0.10003870013E+04  0.10003870013E+04  0.51100000000E-03 0.  1.
          2   -1    0    0  501    0 -0.00000000000E+00 -0.00000000000E+00 -0.10756849327E+02  0.10756849629E+02  0.25500000000E-02 0.  1.
         11    1    1    2    0    0  0.44828275940E+02 -0.41289277123E+01  0.20829545681E+03  0.21310471533E+03  0.51100000000E-03 0.  1.
         22    1    1    2    0    0  0.64223008096E+01 -0.71105403396E+02  0.34409521149E+03  0.35142387356E+03  0.00000000000E+00 0.  1.
          2    1    1    2  501    0 -0.51250576750E+02  0.75234331109E+02  0.43723948368E+03  0.44661526204E+03  0.25500000000E-02 0.  1.
<mgrwt>
<rscale>  0 0.77475151E+02</rscale>
<asrwt>0</asrwt>
<pdfrwt beam="1">  1       11 0.10000000E+01 0.45018045E+02</pdfrwt>
<pdfrwt beam="2">  1        2 0.16555403E-02 0.77475151E+02</pdfrwt>
<totfact> 0.75102389E+03</totfact>
</mgrwt>
</event>
<event>
 5    1  0.2799727E-003  0.3403842E+03  0.7818608E-02  0.1073462E+00
         11   -1    0    0    0    0  0.00000000000E+00  0.00000000000E+00  0.10000211694E+04  0.10000211694E+04  0.51100000000E-03 0.  1.
          2   -1    0    0  501    0 -0.00000000000E+00 -0.00000000000E+00 -0.83532139260E+03  0.83532139261E+03  0.25500000000E-02 0. -1.
         11    1    1    2    0    0 -0.98594497993E+02 -0.28341685802E+03  0.88108740011E+03  0.93078515086E+03  0.51100000000E-03 0.  1.
         22    1    1    2    0    0  0.17051327600E+02 -0.30978702529E+02  0.56241670142E+02  0.66434578675E+02  0.00000000000E+00 0.  1.
          2    1    1    2  501    0  0.81543170392E+02  0.31439556055E+03 -0.77262929347E+03  0.83812283245E+03  0.25500000000E-02 0. -1.
<mgrwt>
<rscale>  0 0.32479818E+03</rscale>
<asrwt>0</asrwt>
<pdfrwt beam="1">  1       11 0.10000000E+01 0.34038420E+03</pdfrwt>
<pdfrwt beam="2">  1        2 0.12851370E+00 0.32479818E+03</pdfrwt>
<totfact> 0.41628998E+01</totfact>
</mgrwt>
</event>
<event>
 5    1  0.2799727E-003  0.1053086E+03  0.7818608E-02  0.1274868E+00
         11   -1    0    0    0    0  0.00000000000E+00  0.00000000000E+00  0.10002258476E+04  0.10002258476E+04  0.51100000000E-03 0. -1.
          2   -1    0    0  501    0 -0.00000000000E+00 -0.00000000000E+00 -0.12282261229E+02  0.12282261494E+02  0.25500000000E-02 0. -1.
         11    1    1    2    0    0  0.58620393995E+02  0.69709969236E+02  0.26825329312E+03  0.28329429870E+03  0.51100000000E-03 0. -1.
         22    1    1    2    0    0  0.13119482255E+02  0.36767738299E+01  0.55872192150E+02  0.57509489096E+02  0.00000000000E+00 0.  1.
          2    1    1    2  501    0 -0.71739876251E+02 -0.73386743066E+02  0.66381810114E+03  0.67170432135E+03  0.25500000000E-02 0. -1.
<mgrwt>
<rscale>  0 0.10262662E+03</rscale>
<asrwt>0</asrwt>
<pdfrwt beam="1">  1       11 0.10000000E+01 0.10530855E+03</pdfrwt>
<pdfrwt beam="2">  1        2 0.18900054E-02 0.10262662E+03</pdfrwt>
<totfact> 0.65217671E+03</totfact>
</mgrwt>
</event>
<event>
 5    1  0.2799727E-003  0.2253368E+03  0.7818608E-02  0.1132941E+00
         11   -1    0    0    0    0  0.00000000000E+00  0.00000000000E+00  0.10002100316E+04  0.10002100316E+04  0.51100000000E-03 0. -1.
          2   -1    0    0  501    0 -0.00000000000E+00 -0.00000000000E+00 -0.29680831923E+03  0.29680831924E+03  0.25500000000E-02 0. -1.
         11    1    1    2    0    0  0.47510295837E+02 -0.18214077170E+03  0.73651616851E+03  0.76018981538E+03  0.51100000000E-03 0. -1.
         22    1    1    2    0    0 -0.22245187217E+01 -0.34443618062E+02  0.20726241112E+03  0.21011667799E+03  0.00000000000E+00 0. -1.
          2    1    1    2  501    0 -0.45285777115E+02  0.21658438977E+03 -0.24037686726E+03  0.32671185748E+03  0.25500000000E-02 0. -1.
<mgrwt>
<rscale>  0 0.22126816E+03</rscale>
<asrwt>0</asrwt>
<pdfrwt beam="1">  1       11 0.10000000E+01 0.22533682E+03</pdfrwt>
<pdfrwt beam="2">  1        2 0.45672408E-01 0.22126816E+03</pdfrwt>
<totfact> 0.13719933E+02</totfact>
</mgrwt>
</event>
<event>
 5    1  0.2799727E-003  0.2326676E+03  0.7818608E-02  0.1129008E+00
         11   -1    0    0    0    0  0.00000000000E+00  0.00000000000E+00  0.10002208993E+04  0.10002208993E+04  0.51100000000E-03 0. -1.
          2   -1    0    0  501    0 -0.00000000000E+00 -0.00000000000E+00 -0.53470928553E+02  0.53470928613E+02  0.25500000000E-02 0.  1.
         11    1    1    2    0    0  0.31975017586E+02 -0.19809827411E+03  0.43072104233E+03  0.47516938482E+03  0.51100000000E-03 0. -1.
         22    1    1    2    0    0 -0.61833737521E+01 -0.27095807100E+02  0.11054610471E+03  0.11398621908E+03  0.00000000000E+00 0. -1.
          2    1    1    2  501    0 -0.25791643834E+02  0.22519408121E+03  0.40548282374E+03  0.46453622406E+03  0.25500000000E-02 0.  1.
<mgrwt>
<rscale>  0 0.22666624E+03</rscale>
<asrwt>0</asrwt>
<pdfrwt beam="1">  1       11 0.10000000E+01 0.23266758E+03</pdfrwt>
<pdfrwt beam="2">  1        2 0.82281137E-02 0.22666624E+03</pdfrwt>
<totfact> 0.99876206E+02</totfact>
</mgrwt>
</event>
<event>
 5    1  0.2799727E-003  0.1588235E+03  0.7818608E-02  0.1247407E+00
         11   -1    0    0    0    0  0.00000000000E+00  0.00000000000E+00  0.10003368686E+04  0.10003368686E+04  0.51100000000E-03 0. -1.
          2   -1    0    0  501    0 -0.00000000000E+00 -0.00000000000E+00 -0.65671755320E+02  0.65671755370E+02  0.25500000000E-02 0. -1.
         11    1    1    2    0    0 -0.14867570207E+03 -0.68727582587E+02  0.25683319633E+03  0.30461653883E+03  0.51100000000E-03 0. -1.
         22    1    1    2    0    0  0.69596712068E+02  0.15553204996E+03  0.59175247890E+03  0.61579616528E+03  0.00000000000E+00 0. -1.
          2    1    1    2  501    0  0.79078990001E+02 -0.86804467376E+02  0.86079438056E+02  0.14559591986E+03  0.25500000000E-02 0. -1.
<mgrwt>
<rscale>  0 0.11742445E+03</rscale>
<asrwt>0</asrwt>
<pdfrwt beam="1">  1       11 0.10000000E+01 0.15882353E+03</pdfrwt>
<pdfrwt beam="2">  1        2 0.10106750E-01 0.11742445E+03</pdfrwt>
<totfact> 0.74461638E+02</totfact>
</mgrwt>
</event>
<event>
 5    1  0.2799727E-003  0.6084784E+02  0.7818608E-02  0.1465529E+00
         11   -1    0    0    0    0  0.00000000000E+00  0.00000000000E+00  0.10001149042E+04  0.10001149042E+04  0.51100000000E-03 0. -1.
          2   -1    0    0  501    0 -0.00000000000E+00 -0.00000000000E+00 -0.71872521093E+01  0.71872525616E+01  0.25500000000E-02 0. -1.
         11    1    1    2    0    0 -0.19311654220E+02  0.47324643930E+02  0.19122662978E+03  0.19793985412E+03  0.51100000000E-03 0. -1.
         22    1    1    2    0    0 -0.35074557260E+02 -0.51350865708E+01  0.15466024547E+03  0.15867068164E+03  0.00000000000E+00 0. -1.
          2    1    1    2  501    0  0.54386211480E+02 -0.42189557359E+02  0.64704077679E+03  0.65069162096E+03  0.25500000000E-02 0. -1.
<mgrwt>
<rscale>  0 0.46443099E+02</rscale>
<asrwt>0</asrwt>
<pdfrwt beam="1">  1       11 0.10000000E+01 0.60847839E+02</pdfrwt>
<pdfrwt beam="2">  1        2 0.11058582E-02 0.46443099E+02</pdfrwt>
<totfact> 0.11887952E+04</totfact>
</mgrwt>
</event>
<event>
 5    1  0.2799727E-003  0.2282478E+03  0.7818608E-02  0.1130906E+00
         11   -1    0    0    0    0  0.00000000000E+00  0.00000000000E+00  0.10004788782E+04  0.10004788782E+04  0.51100000000E-03 0.  1.
          2   -1    0    0  501    0 -0.00000000000E+00 -0.00000000000E+00 -0.12835669263E+03  0.12835669265E+03  0.25500000000E-02 0.  1.
         11    1    1    2    0    0 -0.10931442033E+03  0.15318510865E+03  0.68041605694E+03  0.70596128120E+03  0.51100000000E-03 0.  1.
         22    1    1    2    0    0 -0.86623166030E+01  0.37277026356E+02  0.19508956092E+03  0.19880781977E+03  0.00000000000E+00 0. -1.
          2    1    1    2  501    0  0.11797673693E+03 -0.19046213500E+03 -0.33834322456E+01  0.22406646993E+03  0.25500000000E-02 0.  1.
<mgrwt>
<rscale>  0 0.22404092E+03</rscale>
<asrwt>0</asrwt>
<pdfrwt beam="1">  1       11 0.10000000E+01 0.22824776E+03</pdfrwt>
<pdfrwt beam="2">  1        2 0.19756639E-01 0.22404092E+03</pdfrwt>
<totfact> 0.34593849E+02</totfact>
</mgrwt>
</event>
<event>
 5    1  0.2799727E-003  0.1722230E+03  0.7818608E-02  0.1180294E+00
         11   -1    0    0    0    0  0.00000000000E+00  0.00000000000E+00  0.99992033058E+03  0.99992033058E+03  0.51100000000E-03 0.  1.
         -2   -1    0    0    0  501 -0.00000000000E+00 -0.00000000000E+00 -0.29913958717E+02  0.29913958826E+02  0.25500000000E-02 0. -1.
         11    1    1    2    0    0 -0.11203234621E+03 -0.10939379482E+03  0.56592978377E+03  0.58719227609E+03  0.51100000000E-03 0.  1.
         22    1    1    2    0    0 -0.12106136167E+02 -0.33212052754E+01  0.20828799319E+02  0.24319289021E+02  0.00000000000E+00 0.  1.
         -2    1    1    2    0  501  0.12413848238E+03  0.11271500009E+03  0.38324778877E+03  0.41832272429E+03  0.25500000000E-02 0. -1.
<mgrwt>
<rscale>  0 0.16767538E+03</rscale>
<asrwt>0</asrwt>
<pdfrwt beam="1">  1       11 0.10000000E+01 0.17222299E+03</pdfrwt>
<pdfrwt beam="2">  1       -2 0.46017807E-02 0.16767538E+03</pdfrwt>
<totfact> 0.17043046E+03</totfact>
</mgrwt>
</event>
<event>
 5    1  0.2799727E-003  0.1956466E+03  0.7818608E-02  0.1157103E+00
         11   -1    0    0    0    0  0.00000000000E+00  0.00000000000E+00  0.10002933070E+04  0.10002933070E+04  0.51100000000E-03 0.  1.
         -2   -1    0    0    0  501 -0.00000000000E+00 -0.00000000000E+00 -0.50137011611E+02  0.50137011675E+02  0.25500000000E-02 0. -1.
         11    1    1    2    0    0  0.39097218040E+02 -0.94575673033E+02  0.35652671005E+03  0.37092377299E+03  0.51100000000E-03 0.  1.
         22    1    1    2    0    0  0.16668084530E+01 -0.92549195349E+02  0.38640510301E+03  0.39733743272E+03  0.00000000000E+00 0.  1.
         -2    1    1    2    0  501 -0.40764026493E+02  0.18712486838E+03  0.20722448229E+03  0.28216911293E+03  0.25500000000E-02 0. -1.
<mgrwt>
<rscale>  0 0.19151350E+03</rscale>
<asrwt>0</asrwt>
<pdfrwt beam="1">  1       11 0.10000000E+01 0.19564662E+03</pdfrwt>
<pdfrwt beam="2">  1       -2 0.77156486E-02 0.19151350E+03</pdfrwt>
<totfact> 0.78203146E+02</totfact>
</mgrwt>
</event>
<event>
 5    1  0.2799727E-003  0.9311686E+02  0.7818608E-02  0.1364138E+00
         11   -1    0    0    0    0  0.00000000000E+00  0.00000000000E+00  0.10001152407E+04  0.10001152407E+04  0.51100000000E-03 0. -1.
          2   -1    0    0  501    0 -0.00000000000E+00 -0.00000000000E+00 -0.22281730804E+02  0.22281730950E+02  0.25500000000E-02 0. -1.
         11    1    1    2    0    0  0.32246677539E+02 -0.10207557187E+03  0.20437938787E+03  0.23071671975E+03  0.51100000000E-03 0. -1.
         22    1    1    2    0    0  0.35066990016E+02  0.87735615595E+02  0.54335392321E+03  0.55150767710E+03  0.00000000000E+00 0. -1.
          2    1    1    2  501    0 -0.67313667554E+02  0.14339956276E+02  0.23010019884E+03  0.24017257482E+03  0.25500000000E-02 0. -1.
<mgrwt>
<rscale>  0 0.68824154E+02</rscale>
<asrwt>0</asrwt>
<pdfrwt beam="1">  1       11 0.10000000E+01 0.93116856E+02</pdfrwt>
<pdfrwt beam="2">  1        2 0.34283535E-02 0.68824154E+02</pdfrwt>
<totfact> 0.28088716E+03</totfact>
</mgrwt>
</event>
<event>
 5    1  0.2799727E-003  0.1724224E+03  0.7818608E-02  0.1294618E+00
         11   -1    0    0    0    0  0.00000000000E+00  0.00000000000E+00  0.10000532330E+04  0.10000532330E+04  0.51100000000E-03 0. -1.
          2   -1    0    0  501    0 -0.00000000000E+00 -0.00000000000E+00 -0.14364400984E+04  0.14364400984E+04  0.25500000000E-02 0.  1.
         11    1    1    2    0    0  0.31387336835E+02 -0.17244505959E+03  0.29004856986E+03  0.33889620295E+03  0.51100000000E-03 0. -1.
         22    1    1    2    0    0  0.61997830714E+02  0.16806028491E+03  0.67229273515E+03  0.69574816716E+03  0.00000000000E+00 0. -1.
          2    1    1    2  501    0 -0.93385167548E+02  0.43847746879E+01 -0.13987281703E+04  0.14018489613E+04  0.25500000000E-02 0.  1.
<mgrwt>
<rscale>  0 0.93488052E+02</rscale>
<asrwt>0</asrwt>
<pdfrwt beam="1">  1       11 0.10000000E+01 0.17242242E+03</pdfrwt>
<pdfrwt beam="2">  1        2 0.22100254E+00 0.93488052E+02</pdfrwt>
<totfact> 0.20026942E+01</totfact>
</mgrwt>
</event>
<event>
 5    1  0.2799727E-003  0.1508822E+03  0.7818608E-02  0.1201637E+00
         11   -1    0    0    0    0  0.00000000000E+00  0.00000000000E+00  0.10000459087E+04  0.10000459087E+04  0.51100000000E-03 0. -1.
          2   -1    0    0  501    0 -0.00000000000E+00 -0.00000000000E+00 -0.22508641665E+02  0.22508641810E+02  0.25500000000E-02 0. -1.
         11    1    1    2    0    0  0.27858528136E+02 -0.30704693146E+01  0.74650194270E+02  0.79738177033E+02  0.51100000000E-03 0. -1.
         22    1    1    2    0    0  0.11992271929E+03  0.22524738243E+02  0.43191058790E+03  0.44881575103E+03  0.00000000000E+00 0. -1.
          2    1    1    2  501    0 -0.14778124743E+03 -0.19454268928E+02  0.47097648484E+03  0.49400062242E+03  0.25500000000E-02 0. -1.
<mgrwt>
<rscale>  0 0.14905625E+03</rscale>
<asrwt>0</asrwt>
<pdfrwt beam="1">  1       11 0.10000000E+01 0.15088217E+03</pdfrwt>
<pdfrwt beam="2">  1        2 0.34630268E-02 0.14905625E+03</pdfrwt>
<totfact> 0.30034159E+03</totfact>
</mgrwt>
</event>
<event>
 5    1  0.2799727E-003  0.1435354E+03  0.7818608E-02  0.1292542E+00
         11   -1    0    0    0    0  0.00000000000E+00  0.00000000000E+00  0.10004012733E+04  0.10004012733E+04  0.51100000000E-03 0. -1.
          2   -1    0    0  501    0 -0.00000000000E+00 -0.00000000000E+00 -0.90396897449E+02  0.90396897485E+02  0.25500000000E-02 0. -1.
         11    1    1    2    0    0 -0.15760773020E+03 -0.11819186667E+03  0.98794837892E+02  0.22038587514E+03  0.51100000000E-03 0. -1.
         22    1    1    2    0    0  0.58020216878E+02  0.22080035150E+02  0.17182669341E+02  0.64413644862E+02  0.00000000000E+00 0.  1.
          2    1    1    2  501    0  0.99587513327E+02  0.96111831521E+02  0.79402686861E+03  0.80599865077E+03  0.25500000000E-02 0. -1.
<mgrwt>
<rscale>  0 0.94396029E+02</rscale>
<asrwt>0</asrwt>
<pdfrwt beam="1">  1       11 0.10000000E+01 0.14353537E+03</pdfrwt>
<pdfrwt beam="2">  1        2 0.13912795E-01 0.94396029E+02</pdfrwt>
<totfact> 0.50233660E+02</totfact>
</mgrwt>
</event>
<event>
 5    1  0.2799727E-003  0.2356645E+03  0.7818608E-02  0.1136256E+00
         11   -1    0    0    0    0  0.00000000000E+00  0.00000000000E+00  0.10001646787E+04  0.10001646787E+04  0.51100000000E-03 0. -1.
          2   -1    0    0  501    0 -0.00000000000E+00 -0.00000000000E+00 -0.54031438114E+02  0.54031438174E+02  0.25500000000E-02 0. -1.
         11    1    1    2    0    0  0.67625775234E+02  0.12471087899E+03  0.15411735123E+03  0.20947125522E+03  0.51100000000E-03 0. -1.
         22    1    1    2    0    0  0.53207703517E+02  0.55350076035E+02  0.21666540475E+03  0.22986645742E+03  0.00000000000E+00 0. -1.
          2    1    1    2  501    0 -0.12083347875E+03 -0.18006095503E+03  0.57535048462E+03  0.61485840424E+03  0.25500000000E-02 0. -1.
<mgrwt>
<rscale>  0 0.21684713E+03</rscale>
<asrwt>0</asrwt>
<pdfrwt beam="1">  1       11 0.10000000E+01 0.23566454E+03</pdfrwt>
<pdfrwt beam="2">  1        2 0.83138976E-02 0.21684713E+03</pdfrwt>
<totfact> 0.98324984E+02</totfact>
</mgrwt>
</event>
<event>
 5    1  0.2799727E-003  0.2079418E+03  0.7818608E-02  0.1445606E+00
         11   -1    0    0    0    0  0.00000000000E+00  0.00000000000E+00  0.10000830584E+04  0.10000830584E+04  0.51100000000E-03 0.  1.
         -2   -1    0    0    0  501 -0.00000000000E+00 -0.00000000000E+00 -0.57041774442E+03  0.57041774443E+03  0.25500000000E-02 0.  1.
         11    1    1    2    0    0  0.19431177060E+03  0.87713233401E+01  0.96264439316E+02  0.21702728535E+03  0.51100000000E-03 0.  1.
         22    1    1    2    0    0 -0.20381791163E+03 -0.57809404896E+02  0.82885775493E+03  0.85550502413E+03  0.00000000000E+00 0.  1.
         -2    1    1    2    0  501  0.95061410250E+01  0.49038081556E+02 -0.49545688027E+03  0.49796849335E+03  0.25500000000E-02 0.  1.
<mgrwt>
<rscale>  0 0.49950978E+02</rscale>
<asrwt>0</asrwt>
<pdfrwt beam="1">  1       11 0.10000000E+01 0.20794181E+03</pdfrwt>
<pdfrwt beam="2">  1       -2 0.87763862E-01 0.49950978E+02</pdfrwt>
<totfact> 0.97579361E+00</totfact>
</mgrwt>
</event>
<event>
 5    1  0.2799727E-003  0.2257709E+03  0.7818608E-02  0.1134122E+00
         11   -1    0    0    0    0  0.00000000000E+00  0.00000000000E+00  0.10000420949E+04  0.10000420949E+04  0.51100000000E-03 0. -1.
         -2   -1    0    0    0  501 -0.00000000000E+00 -0.00000000000E+00 -0.58287798734E+02  0.58287798790E+02  0.25500000000E-02 0.  1.
         11    1    1    2    0    0  0.59498700739E+02  0.14763717867E+03  0.45650893378E+03  0.48346379237E+03  0.51100000000E-03 0. -1.
         22    1    1    2    0    0  0.50438962482E+02  0.42554367321E+02  0.22407420818E+03  0.23358984114E+03  0.00000000000E+00 0. -1.
         -2    1    1    2    0  501 -0.10993766322E+03 -0.19019154599E+03  0.26117115421E+03  0.34127626017E+03  0.25500000000E-02 0.  1.
<mgrwt>
<rscale>  0 0.21967957E+03</rscale>
<asrwt>0</asrwt>
<pdfrwt beam="1">  1       11 0.10000000E+01 0.22577090E+03</pdfrwt>
<pdfrwt beam="2">  1       -2 0.89677309E-02 0.21967957E+03</pdfrwt>
<totfact> 0.62327555E+02</totfact>
</mgrwt>
</event>
<event>
 5    1  0.2799727E-003  0.9133585E+02  0.7818608E-02  0.1309726E+00
         11   -1    0    0    0    0  0.00000000000E+00  0.00000000000E+00  0.99993914676E+03  0.99993914676E+03  0.51100000000E-03 0. -1.
          2   -1    0    0  501    0 -0.00000000000E+00 -0.00000000000E+00 -0.81893609251E+01  0.81893613221E+01  0.25500000000E-02 0. -1.
         11    1    1    2    0    0 -0.15555622401E+02  0.77867725763E+02  0.38555442506E+03  0.39364650994E+03  0.51100000000E-03 0. -1.
         22    1    1    2    0    0  0.70357938992E+01  0.89355837056E+01  0.39170209971E+02  0.40787895277E+02  0.00000000000E+00 0. -1.
          2    1    1    2  501    0  0.85198285022E+01 -0.86803309469E+02  0.56702515080E+03  0.57369410287E+03  0.25500000000E-02 0. -1.
<mgrwt>
<rscale>  0 0.87220422E+02</rscale>
<asrwt>0</asrwt>
<pdfrwt beam="1">  1       11 0.10000000E+01 0.91335846E+02</pdfrwt>
<pdfrwt beam="2">  1        2 0.12598250E-02 0.87220422E+02</pdfrwt>
<totfact> 0.11066551E+04</totfact>
</mgrwt>
</event>
<event>
 5    1  0.2799727E-003  0.1739255E+03  0.7818608E-02  0.1173815E+00
         11   -1    0    0    0    0  0.00000000000E+00  0.00000000000E+00  0.10001223533E+04  0.10001223533E+04  0.51100000000E-03 0.  1.
          2   -1    0    0  501    0 -0.00000000000E+00 -0.00000000000E+00 -0.43041132623E+02  0.43041132698E+02  0.25500000000E-02 0.  1.
         11    1    1    2    0    0 -0.17123680056E+03 -0.10780316713E+02  0.71083154786E+03  0.73124533949E+03  0.51100000000E-03 0.  1.
         22    1    1    2    0    0 -0.35979561440E+01  0.14045277725E+02  0.33665219062E+02  0.36654632575E+02  0.00000000000E+00 0. -1.
          2    1    1    2  501    0  0.17483475670E+03 -0.32649610114E+01  0.21258445380E+03  0.27526351397E+03  0.25500000000E-02 0.  1.
<mgrwt>
<rscale>  0 0.17392550E+03</rscale>
<asrwt>0</asrwt>
<pdfrwt beam="1">  1       11 0.10000000E+01 0.14498797E+02</pdfrwt>
<pdfrwt beam="2">  1        2 0.66225227E-02 0.17392550E+03</pdfrwt>
<totfact> 0.12968228E+03</totfact>
</mgrwt>
</event>
<event>
 5    1  0.2799727E-003  0.2699439E+03  0.7818608E-02  0.1106923E+00
         11   -1    0    0    0    0  0.00000000000E+00  0.00000000000E+00  0.10002136534E+04  0.10002136534E+04  0.51100000000E-03 0. -1.
          2   -1    0    0  501    0 -0.00000000000E+00 -0.00000000000E+00 -0.11699921794E+03  0.11699921797E+03  0.25500000000E-02 0. -1.
         11    1    1    2    0    0  0.10519104434E+03  0.12748845925E+03  0.50289670899E+03  0.52936146721E+03  0.51100000000E-03 0. -1.
         22    1    1    2    0    0  0.15105771966E+02  0.10342161370E+03  0.29641082106E+03  0.31429856724E+03  0.00000000000E+00 0.  1.
          2    1    1    2  501    0 -0.12029681631E+03 -0.23091007294E+03  0.83906905380E+02  0.27355283690E+03  0.25500000000E-02 0. -1.
<mgrwt>
<rscale>  0 0.26036664E+03</rscale>
<asrwt>0</asrwt>
<pdfrwt beam="1">  1       11 0.10000000E+01 0.26994393E+03</pdfrwt>
<pdfrwt beam="2">  1        2 0.18003725E-01 0.26036664E+03</pdfrwt>
<totfact> 0.38687540E+02</totfact>
</mgrwt>
</event>
<event>
 5    1  0.2799727E-003  0.3187937E+03  0.7818608E-02  0.1076206E+00
         11   -1    0    0    0    0  0.00000000000E+00  0.00000000000E+00  0.99984535612E+03  0.99984535612E+03  0.51100000000E-03 0.  1.
          2   -1    0    0  501    0 -0.00000000000E+00 -0.00000000000E+00 -0.92438532924E+03  0.92438532925E+03  0.25500000000E-02 0.  1.
         11    1    1    2    0    0 -0.18430667485E+03  0.15230876343E+03  0.85326672299E+03  0.88613261444E+03  0.51100000000E-03 0.  1.
         22    1    1    2    0    0  0.14136911906E+03  0.22944209818E+03 -0.16862712863E+03  0.31790566644E+03  0.00000000000E+00 0.  1.
          2    1    1    2  501    0  0.42937555790E+02 -0.38175086162E+03 -0.60917956748E+03  0.72019240449E+03  0.25500000000E-02 0.  1.
<mgrwt>
<rscale>  0 0.31879375E+03</rscale>
<asrwt>0</asrwt>
<pdfrwt beam="1">  1       11 0.10000000E+01 0.23909603E+03</pdfrwt>
<pdfrwt beam="2">  1        2 0.14219113E+00 0.31879375E+03</pdfrwt>
<totfact> 0.36383727E+01</totfact>
</mgrwt>
</event>
<event>
 5    1  0.2799727E-003  0.2187554E+03  0.7818608E-02  0.1134814E+00
         11   -1    0    0    0    0  0.00000000000E+00  0.00000000000E+00  0.10009825764E+04  0.10009825764E+04  0.51100000000E-03 0. -1.
          2   -1    0    0  501    0 -0.00000000000E+00 -0.00000000000E+00 -0.10531361475E+04  0.10531361475E+04  0.25500000000E-02 0. -1.
         11    1    1    2    0    0 -0.61760075385E+02 -0.92535732967E+02 -0.17101333674E+02  0.11255942609E+03  0.51100000000E-03 0. -1.
         22    1    1    2    0    0  0.14434399661E+03 -0.11089977604E+03  0.93214648077E+03  0.94975313176E+03  0.00000000000E+00 0. -1.
          2    1    1    2  501    0 -0.82583921228E+02  0.20343550901E+03 -0.96719871826E+03  0.99180616603E+03  0.25500000000E-02 0. -1.
<mgrwt>
<rscale>  0 0.21875536E+03</rscale>
<asrwt>0</asrwt>
<pdfrwt beam="1">  1       11 0.10000000E+01 0.11125278E+03</pdfrwt>
<pdfrwt beam="2">  1        2 0.16218014E+00 0.21875536E+03</pdfrwt>
<totfact> 0.30784257E+01</totfact>
</mgrwt>
</event>
<event>
 5    1  0.2799727E-003  0.3339425E+03  0.7818608E-02  0.1069406E+00
         11   -1    0    0    0    0  0.00000000000E+00  0.00000000000E+00  0.10004806569E+04  0.10004806569E+04  0.51100000000E-03 0.  1.
          2   -1    0    0  501    0 -0.00000000000E+00 -0.00000000000E+00 -0.13893486059E+03  0.13893486062E+03  0.25500000000E-02 0.  1.
         11    1    1    2    0    0 -0.27057769443E+03  0.16921189411E+03  0.52867462572E+03  0.61752879585E+03  0.51100000000E-03 0.  1.
         22    1    1    2    0    0 -0.18265136662E+02  0.13989389397E+02  0.11289253099E+03  0.11521302785E+03  0.00000000000E+00 0.  1.
          2    1    1    2  501    0  0.28884283109E+03 -0.18320128351E+03  0.21997863959E+03  0.40667369381E+03  0.25500000000E-02 0.  1.
<mgrwt>
<rscale>  0 0.33394248E+03</rscale>
<asrwt>0</asrwt>
<pdfrwt beam="1">  1       11 0.10000000E+01 0.23006917E+02</pdfrwt>
<pdfrwt beam="2">  1        2 0.21384867E-01 0.33394248E+03</pdfrwt>
<totfact> 0.31908262E+02</totfact>
</mgrwt>
</event>
<event>
 5    1  0.2799727E-003  0.8647080E+02  0.7818608E-02  0.1318304E+00
         11   -1    0    0    0    0  0.00000000000E+00  0.00000000000E+00  0.10004037431E+04  0.10004037431E+04  0.51100000000E-03 0.  1.
          2   -1    0    0  501    0 -0.00000000000E+00 -0.00000000000E+00 -0.94791548401E+01  0.94791551831E+01  0.25500000000E-02 0.  1.
         11    1    1    2    0    0  0.23830613965E+02 -0.18806603081E+02  0.66133684835E+02  0.72768473610E+02  0.51100000000E-03 0.  1.
         22    1    1    2    0    0  0.33108633803E+02 -0.42829719294E+02  0.19043322929E+03  0.19797823443E+03  0.00000000000E+00 0.  1.
          2    1    1    2  501    0 -0.56939247767E+02  0.61636322375E+02  0.73435767410E+03  0.73913619022E+03  0.25500000000E-02 0.  1.
<mgrwt>
<rscale>  0 0.83911347E+02</rscale>
<asrwt>0</asrwt>
<pdfrwt beam="1">  1       11 0.10000000E+01 0.86470796E+02</pdfrwt>
<pdfrwt beam="2">  1        2 0.14589203E-02 0.83911347E+02</pdfrwt>
<totfact> 0.90137892E+03</totfact>
</mgrwt>
</event>
<event>
 5    1  0.2799727E-003  0.1004665E+03  0.7818608E-02  0.1294364E+00
         11   -1    0    0    0    0  0.00000000000E+00  0.00000000000E+00  0.10002222999E+04  0.10002222999E+04  0.51100000000E-03 0. -1.
          2   -1    0    0  501    0 -0.00000000000E+00 -0.00000000000E+00 -0.95611246437E+01  0.95611249837E+01  0.25500000000E-02 0. -1.
         11    1    1    2    0    0 -0.48679813432E+02 -0.30586616809E+02  0.21826341138E+03  0.22570817910E+03  0.51100000000E-03 0. -1.
         22    1    1    2    0    0 -0.41025531036E+02  0.38724691249E+01  0.23156871047E+03  0.23520662806E+03  0.00000000000E+00 0.  1.
          2    1    1    2  501    0  0.89705344468E+02  0.26714147685E+02  0.54082905341E+03  0.54886861773E+03  0.25500000000E-02 0. -1.
<mgrwt>
<rscale>  0 0.93598582E+02</rscale>
<asrwt>0</asrwt>
<pdfrwt beam="1">  1       11 0.10000000E+01 0.10046652E+03</pdfrwt>
<pdfrwt beam="2">  1        2 0.14712692E-02 0.93598582E+02</pdfrwt>
<totfact> 0.90520983E+03</totfact>
</mgrwt>
</event>
<event>
 5    1  0.2799727E-003  0.2170579E+03  0.7818608E-02  0.1136096E+00
         11   -1    0    0    0    0  0.00000000000E+00  0.00000000000E+00  0.10008289783E+04  0.10008289783E+04  0.51100000000E-03 0.  1.
          2   -1    0    0  501    0 -0.00000000000E+00 -0.00000000000E+00 -0.36492811725E+04  0.36492811725E+04  0.25500000000E-02 0.  1.
         11    1    1    2    0    0  0.51345758080E+02  0.46891511197E+02  0.13011405902E+03  0.14752921422E+03  0.51100000000E-03 0.  1.
         22    1    1    2    0    0  0.37325094917E+02  0.15149185334E+03  0.85167183341E+03  0.86584516870E+03  0.00000000000E+00 0.  1.
          2    1    1    2  501    0 -0.88670852997E+02 -0.19838336454E+03 -0.36302380867E+04  0.36367357679E+04  0.25500000000E-02 0.  1.
<mgrwt>
<rscale>  0 0.21705790E+03</rscale>
<asrwt>0</asrwt>
<pdfrwt beam="1">  1       11 0.10000000E+01 0.69535607E+02</pdfrwt>
<pdfrwt beam="2">  1        2 0.56189327E+00 0.21705790E+03</pdfrwt>
<totfact> 0.10440933E+00</totfact>
</mgrwt>
</event>
<event>
 5    1  0.2799727E-003  0.3114492E+02  0.7818608E-02  0.1585767E+00
         11   -1    0    0    0    0  0.00000000000E+00  0.00000000000E+00  0.10004154068E+04  0.10004154068E+04  0.51100000000E-03 0. -1.
          2   -1    0    0  501    0 -0.00000000000E+00 -0.00000000000E+00 -0.90395946584E+01  0.90395950181E+01  0.25500000000E-02 0. -1.
         11    1    1    2    0    0  0.86041564627E+01  0.78298949805E+01 -0.10081877170E+01  0.11677123215E+02  0.51100000000E-03 0. -1.
         22    1    1    2    0    0  0.13850202190E+02 -0.28240937003E+02  0.98958370738E+02  0.10383707316E+03  0.00000000000E+00 0.  1.
          2    1    1    2  501    0 -0.22454358653E+02  0.20411042023E+02  0.89342562908E+03  0.89394080540E+03  0.25500000000E-02 0. -1.
<mgrwt>
<rscale>  0 0.31144917E+02</rscale>
<asrwt>0</asrwt>
<pdfrwt beam="1">  1       11 0.10000000E+01 0.11633525E+02</pdfrwt>
<pdfrwt beam="2">  1        2 0.13912846E-02 0.31144917E+02</pdfrwt>
<totfact> 0.81432093E+03</totfact>
</mgrwt>
</event>
<event>
 5    1  0.2799727E-003  0.9376015E+02  0.7818608E-02  0.1302341E+00
         11   -1    0    0    0    0  0.00000000000E+00  0.00000000000E+00  0.10002620420E+04  0.10002620420E+04  0.51100000000E-03 0. -1.
          2   -1    0    0  501    0 -0.00000000000E+00 -0.00000000000E+00 -0.84824536016E+01  0.84824539849E+01  0.25500000000E-02 0. -1.
         11    1    1    2    0    0  0.45290935529E+01  0.13991527690E+02  0.86683390467E+02  0.87922043418E+02  0.51100000000E-03 0. -1.
         22    1    1    2    0    0  0.69704608950E+02  0.37266726240E+02  0.44518212523E+03  0.45214451896E+03  0.00000000000E+00 0. -1.
          2    1    1    2  501    0 -0.74233702503E+02 -0.51258253930E+02  0.45991407267E+03  0.46867793359E+03  0.25500000000E-02 0. -1.
<mgrwt>
<rscale>  0 0.90211148E+02</rscale>
<asrwt>0</asrwt>
<pdfrwt beam="1">  1       11 0.10000000E+01 0.93760146E+02</pdfrwt>
<pdfrwt beam="2">  1        2 0.13053348E-02 0.90211148E+02</pdfrwt>
<totfact> 0.10597690E+04</totfact>
</mgrwt>
</event>
<event>
 5    1  0.2799727E-003  0.1911273E+03  0.7818608E-02  0.1170428E+00
         11   -1    0    0    0    0  0.00000000000E+00  0.00000000000E+00  0.10001912358E+04  0.10001912358E+04  0.51100000000E-03 0. -1.
          2   -1    0    0  501    0 -0.00000000000E+00 -0.00000000000E+00 -0.15718048587E+03  0.15718048589E+03  0.25500000000E-02 0. -1.
         11    1    1    2    0    0  0.13718266692E+03  0.59977531298E+02  0.73396015268E+03  0.74907535941E+03  0.51100000000E-03 0. -1.
         22    1    1    2    0    0  0.89677856745E+01  0.40423432242E+02  0.20331109074E+03  0.20748463720E+03  0.00000000000E+00 0. -1.
          2    1    1    2  501    0 -0.14615045259E+03 -0.10040096354E+03 -0.94260493515E+02  0.20081172505E+03  0.25500000000E-02 0. -1.
<mgrwt>
<rscale>  0 0.17731415E+03</rscale>
<asrwt>0</asrwt>
<pdfrwt beam="1">  1       11 0.10000000E+01 0.19112730E+03</pdfrwt>
<pdfrwt beam="2">  1        2 0.24186237E-01 0.17731415E+03</pdfrwt>
<totfact> 0.27347501E+02</totfact>
</mgrwt>
</event>
<event>
 5    1  0.2799727E-003  0.4945726E+02  0.7818608E-02  0.1572471E+00
         11   -1    0    0    0    0  0.00000000000E+00  0.00000000000E+00  0.10003721538E+04  0.10003721538E+04  0.51100000000E-03 0.  1.
          2   -1    0    0  501    0 -0.00000000000E+00 -0.00000000000E+00 -0.62868658885E+01  0.62868664057E+01  0.25500000000E-02 0.  1.
         11    1    1    2    0    0  0.36842331145E+02  0.62583116400E+00  0.73093200614E+02  0.81855757312E+02  0.51100000000E-03 0.  1.
         22    1    1    2    0    0  0.12113618303E+02  0.17511608052E+02  0.10469618217E+03  0.10683953728E+03  0.00000000000E+00 0.  1.
          2    1    1    2  501    0 -0.48955949448E+02 -0.18137439216E+02  0.81629590516E+03  0.81796372565E+03  0.25500000000E-02 0.  1.
<mgrwt>
<rscale>  0 0.32451470E+02</rscale>
<asrwt>0</asrwt>
<pdfrwt beam="1">  1       11 0.10000000E+01 0.49457258E+02</pdfrwt>
<pdfrwt beam="2">  1        2 0.96757010E-03 0.32451470E+02</pdfrwt>
<totfact> 0.13243410E+04</totfact>
</mgrwt>
</event>
<event>
 5    1  0.2799727E-003  0.3355549E+03  0.7818608E-02  0.1074663E+00
         11   -1    0    0    0    0  0.00000000000E+00  0.00000000000E+00  0.10005721038E+04  0.10005721038E+04  0.51100000000E-03 0.  1.
         -2   -1    0    0    0  501 -0.00000000000E+00 -0.00000000000E+00 -0.11200433997E+03  0.11200434000E+03  0.25500000000E-02 0. -1.
         11    1    1    2    0    0 -0.31602602359E+02  0.12208128825E+02  0.52726980981E+02  0.62672940005E+02  0.51100000000E-03 0.  1.
         22    1    1    2    0    0 -0.71259637365E+02  0.29308092374E+03  0.50436264732E+03  0.58767001267E+03  0.00000000000E+00 0.  1.
         -2    1    1    2    0  501  0.10286223972E+03 -0.30528905256E+03  0.33147813555E+03  0.46223349114E+03  0.25500000000E-02 0. -1.
<mgrwt>
<rscale>  0 0.32215221E+03</rscale>
<asrwt>0</asrwt>
<pdfrwt beam="1">  1       11 0.10000000E+01 0.33555492E+03</pdfrwt>
<pdfrwt beam="2">  1       -2 0.17241295E-01 0.32215221E+03</pdfrwt>
<totfact> 0.21843951E+02</totfact>
</mgrwt>
</event>
<event>
 5    1  0.2799727E-003  0.1073684E+04  0.7818608E-02  0.9242252E-01
         11   -1    0    0    0    0  0.00000000000E+00  0.00000000000E+00  0.10005032015E+04  0.10005032015E+04  0.51100000000E-03 0.  1.
          2   -1    0    0  501    0 -0.00000000000E+00 -0.00000000000E+00 -0.13295484476E+04  0.13295484476E+04  0.25500000000E-02 0.  1.
         11    1    1    2    0    0 -0.93003127403E+03 -0.10958954820E+03  0.26937645326E+03  0.97443917887E+03  0.51100000000E-03 0.  1.
         22    1    1    2    0    0 -0.12985772538E+03  0.31305871778E+02  0.46360269699E+01  0.13365844229E+03  0.00000000000E+00 0.  1.
          2    1    1    2  501    0  0.10598889994E+04  0.78283676420E+02 -0.60305772635E+03  0.12219540279E+04  0.25500000000E-02 0.  1.
<mgrwt>
<rscale>  0 0.10627761E+04</rscale>
<asrwt>0</asrwt>
<pdfrwt beam="1">  1       11 0.10000000E+01 0.10736841E+04</pdfrwt>
<pdfrwt beam="2">  1        2 0.20464884E+00 0.10627761E+04</pdfrwt>
<totfact> 0.19428933E+01</totfact>
</mgrwt>
</event>
<event>
 5    1  0.2799727E-003  0.2464776E+03  0.7818608E-02  0.1125728E+00
         11   -1    0    0    0    0  0.00000000000E+00  0.00000000000E+00  0.10007913378E+04  0.10007913378E+04  0.51100000000E-03 0. -1.
          2   -1    0    0  501    0 -0.00000000000E+00 -0.00000000000E+00 -0.68882746861E+02  0.68882746908E+02  0.25500000000E-02 0. -1.
         11    1    1    2    0    0  0.49168661790E+02  0.16282117963E+03  0.51952133512E+03  0.54665410589E+03  0.51100000000E-03 0. -1.
         22    1    1    2    0    0  0.64326703375E+02  0.38719032197E+02  0.18052027943E+03  0.19551127719E+03  0.00000000000E+00 0. -1.
          2    1    1    2  501    0 -0.11349536516E+03 -0.20154021183E+03  0.23186697638E+03  0.32750870163E+03  0.25500000000E-02 0. -1.
<mgrwt>
<rscale>  0 0.23129992E+03</rscale>
<asrwt>0</asrwt>
<pdfrwt beam="1">  1       11 0.10000000E+01 0.24647757E+03</pdfrwt>
<pdfrwt beam="2">  1        2 0.10605731E-01 0.23129992E+03</pdfrwt>
<totfact> 0.72734199E+02</totfact>
</mgrwt>
</event>
<event>
 5    1  0.2799727E-003  0.1621971E+03  0.7818608E-02  0.1187782E+00
         11   -1    0    0    0    0  0.00000000000E+00  0.00000000000E+00  0.10001192512E+04  0.10001192512E+04  0.51100000000E-03 0.  1.
          2   -1    0    0  501    0 -0.00000000000E+00 -0.00000000000E+00 -0.48916196457E+02  0.48916196523E+02  0.25500000000E-02 0.  1.
         11    1    1    2    0    0 -0.12710135044E+03 -0.64537369027E+02  0.71984487018E+03  0.73382318198E+03  0.51100000000E-03 0.  1.
         22    1    1    2    0    0 -0.19342649798E+02 -0.19079721166E+01  0.11521700101E+03  0.11684492193E+03  0.00000000000E+00 0. -1.
          2    1    1    2  501    0  0.14644400024E+03  0.66445341144E+02  0.11614118354E+03  0.19836734380E+03  0.25500000000E-02 0.  1.
<mgrwt>
<rscale>  0 0.16081302E+03</rscale>
<asrwt>0</asrwt>
<pdfrwt beam="1">  1       11 0.10000000E+01 0.16219708E+03</pdfrwt>
<pdfrwt beam="2">  1        2 0.75264659E-02 0.16081302E+03</pdfrwt>
<totfact> 0.10956693E+03</totfact>
</mgrwt>
</event>
<event>
 5    1  0.2799727E-003  0.1106764E+03  0.7818608E-02  0.1544217E+00
         11   -1    0    0    0    0  0.00000000000E+00  0.00000000000E+00  0.10002447460E+04  0.10002447460E+04  0.51100000000E-03 0. -1.
          2   -1    0    0  501    0 -0.00000000000E+00 -0.00000000000E+00 -0.14608014881E+02  0.14608015104E+02  0.25500000000E-02 0. -1.
         11    1    1    2    0    0  0.64402947283E+02 -0.89757577412E+02  0.60169127867E+03  0.61174876964E+03  0.51100000000E-03 0. -1.
         22    1    1    2    0    0  0.94471659531E+01  0.63552450795E+01  0.37146265981E+02  0.38852067653E+02  0.00000000000E+00 0. -1.
          2    1    1    2  501    0 -0.73850113236E+02  0.83402332332E+02  0.34679918648E+03  0.36425192383E+03  0.25500000000E-02 0. -1.
<mgrwt>
<rscale>  0 0.35498557E+02</rscale>
<asrwt>0</asrwt>
<pdfrwt beam="1">  1       11 0.10000000E+01 0.11067642E+03</pdfrwt>
<pdfrwt beam="2">  1        2 0.22479369E-02 0.35498557E+02</pdfrwt>
<totfact> 0.44532594E+03</totfact>
</mgrwt>
</event>
<event>
 5    1  0.2799727E-003  0.5773134E+02  0.7818608E-02  0.1415138E+00
         11   -1    0    0    0    0  0.00000000000E+00  0.00000000000E+00  0.10005550879E+04  0.10005550879E+04  0.51100000000E-03 0. -1.
          2   -1    0    0  501    0 -0.00000000000E+00 -0.00000000000E+00 -0.43315658431E+01  0.43315665937E+01  0.25500000000E-02 0. -1.
         11    1    1    2    0    0  0.13621052885E+02  0.40843777792E+02  0.19959737569E+03  0.20418829459E+03  0.51100000000E-03 0. -1.
         22    1    1    2    0    0  0.10486331317E+02  0.97713758983E+01  0.51243392101E+02  0.53210226136E+02  0.00000000000E+00 0.  1.
          2    1    1    2  501    0 -0.24107384202E+02 -0.50615153690E+02  0.74538275427E+03  0.74748813377E+03  0.25500000000E-02 0. -1.
<mgrwt>
<rscale>  0 0.56062998E+02</rscale>
<asrwt>0</asrwt>
<pdfrwt beam="1">  1       11 0.10000000E+01 0.57731341E+02</pdfrwt>
<pdfrwt beam="2">  1        2 0.66676469E-03 0.56062998E+02</pdfrwt>
<totfact> 0.24344796E+04</totfact>
</mgrwt>
</event>
<event>
 5    1  0.2799727E-003  0.1703163E+03  0.7818608E-02  0.1177518E+00
         11   -1    0    0    0    0  0.00000000000E+00  0.00000000000E+00  0.10011820272E+04  0.10011820272E+04  0.51100000000E-03 0. -1.
          2   -1    0    0  501    0 -0.00000000000E+00 -0.00000000000E+00 -0.13902968907E+04  0.13902968907E+04  0.25500000000E-02 0. -1.
         11    1    1    2    0    0  0.96184833142E+02 -0.11550490605E+03  0.89019399291E+03  0.90279468899E+03  0.51100000000E-03 0. -1.
         22    1    1    2    0    0  0.58461952646E+02  0.43662917088E+02  0.85990893862E+02  0.11277714335E+03  0.00000000000E+00 0. -1.
          2    1    1    2  501    0 -0.15464678579E+03  0.71841988962E+02 -0.13652997503E+04  0.13759070855E+04  0.25500000000E-02 0. -1.
<mgrwt>
<rscale>  0 0.17031629E+03</rscale>
<asrwt>0</asrwt>
<pdfrwt beam="1">  1       11 0.10000000E+01 0.72967460E+02</pdfrwt>
<pdfrwt beam="2">  1        2 0.21414465E+00 0.17031629E+03</pdfrwt>
<totfact> 0.20215112E+01</totfact>
</mgrwt>
</event>
<event>
 5    1  0.2799727E-003  0.2283927E+03  0.7818608E-02  0.1129957E+00
         11   -1    0    0    0    0  0.00000000000E+00  0.00000000000E+00  0.10002060093E+04  0.10002060093E+04  0.51100000000E-03 0.  1.
          2   -1    0    0  501    0 -0.00000000000E+00 -0.00000000000E+00 -0.56129024444E+02  0.56129024502E+02  0.25500000000E-02 0.  1.
         11    1    1    2    0    0 -0.43488231413E+02 -0.21139315886E+03  0.57741338500E+03  0.61642883698E+03  0.51100000000E-03 0.  1.
         22    1    1    2    0    0 -0.80293849045E+01 -0.79882933770E+01  0.49859374474E+02  0.51129649676E+02  0.00000000000E+00 0.  1.
          2    1    1    2  501    0  0.51517616317E+02  0.21938145224E+03  0.31680422534E+03  0.38877654710E+03  0.25500000000E-02 0.  1.
<mgrwt>
<rscale>  0 0.22534925E+03</rscale>
<asrwt>0</asrwt>
<pdfrwt beam="1">  1       11 0.10000000E+01 0.22839268E+03</pdfrwt>
<pdfrwt beam="2">  1        2 0.86370132E-02 0.22534925E+03</pdfrwt>
<totfact> 0.93895602E+02</totfact>
</mgrwt>
</event>
<event>
 5    1  0.2799727E-003  0.5913301E+02  0.7818608E-02  0.1510791E+00
         11   -1    0    0    0    0  0.00000000000E+00  0.00000000000E+00  0.10001619293E+04  0.10001619293E+04  0.51100000000E-03 0.  1.
          2   -1    0    0  501    0 -0.00000000000E+00 -0.00000000000E+00 -0.70658315561E+01  0.70658320162E+01  0.25500000000E-02 0.  1.
         11    1    1    2    0    0  0.55435582303E+02 -0.25277943416E+02  0.30952578731E+03  0.31546519811E+03  0.51100000000E-03 0.  1.
         22    1    1    2    0    0 -0.30421100925E+02  0.56043532458E+02  0.34157912661E+03  0.34748038886E+03  0.00000000000E+00 0.  1.
          2    1    1    2  501    0 -0.25014481377E+02 -0.30765589041E+02  0.34199118385E+03  0.34428217436E+03  0.25500000000E-02 0.  1.
<mgrwt>
<rscale>  0 0.39651554E+02</rscale>
<asrwt>0</asrwt>
<pdfrwt beam="1">  1       11 0.10000000E+01 0.59133010E+02</pdfrwt>
<pdfrwt beam="2">  1        2 0.10872270E-02 0.39651554E+02</pdfrwt>
<totfact> 0.11807382E+04</totfact>
</mgrwt>
</event>
<event>
 5    1  0.2799727E-003  0.2194471E+03  0.7818608E-02  0.1204179E+00
         11   -1    0    0    0    0  0.00000000000E+00  0.00000000000E+00  0.10001588744E+04  0.10001588744E+04  0.51100000000E-03 0. -1.
          2   -1    0    0  501    0 -0.00000000000E+00 -0.00000000000E+00 -0.12221392728E+03  0.12221392731E+03  0.25500000000E-02 0. -1.
         11    1    1    2    0    0 -0.14907682965E+03 -0.15202922068E+03  0.44847538492E+03  0.49645438457E+03  0.51100000000E-03 0. -1.
         22    1    1    2    0    0  0.42122079623E+02  0.25290812767E+03  0.40131236041E+03  0.47622305830E+03  0.00000000000E+00 0. -1.
          2    1    1    2  501    0  0.10695475003E+03 -0.10087890699E+03  0.28157201747E+02  0.14969535880E+03  0.25500000000E-02 0. -1.
<mgrwt>
<rscale>  0 0.14702337E+03</rscale>
<asrwt>0</asrwt>
<pdfrwt beam="1">  1       11 0.10000000E+01 0.21944714E+03</pdfrwt>
<pdfrwt beam="2">  1        2 0.18805129E-01 0.14702337E+03</pdfrwt>
<totfact> 0.36128614E+02</totfact>
</mgrwt>
</event>
<event>
 5    1  0.2799727E-003  0.1502525E+03  0.7818608E-02  0.1205099E+00
         11   -1    0    0    0    0  0.00000000000E+00  0.00000000000E+00  0.10002012297E+04  0.10002012297E+04  0.51100000000E-03 0.  1.
          2   -1    0    0  501    0 -0.00000000000E+00 -0.00000000000E+00 -0.28343351986E+02  0.28343352101E+02  0.25500000000E-02 0.  1.
         11    1    1    2    0    0 -0.52942863685E+02 -0.90975248293E+01  0.22412175208E+03  0.23046967594E+03  0.51100000000E-03 0.  1.
         22    1    1    2    0    0 -0.79633244882E+02 -0.52758374562E+02  0.51047630949E+03  0.51933704117E+03  0.00000000000E+00 0.  1.
          2    1    1    2  501    0  0.13257610857E+03  0.61855899391E+02  0.23725981617E+03  0.27873786472E+03  0.25500000000E-02 0.  1.
<mgrwt>
<rscale>  0 0.14629620E+03</rscale>
<asrwt>0</asrwt>
<pdfrwt beam="1">  1       11 0.10000000E+01 0.15025246E+03</pdfrwt>
<pdfrwt beam="2">  1        2 0.43613930E-02 0.14629620E+03</pdfrwt>
<totfact> 0.22065124E+03</totfact>
</mgrwt>
</event>
<event>
 5    1  0.2799727E-003  0.1728419E+03  0.7818608E-02  0.1174916E+00
         11   -1    0    0    0    0  0.00000000000E+00  0.00000000000E+00  0.10004358996E+04  0.10004358996E+04  0.51100000000E-03 0.  1.
          2   -1    0    0  501    0 -0.00000000000E+00 -0.00000000000E+00 -0.17063983109E+03  0.17063983111E+03  0.25500000000E-02 0.  1.
         11    1    1    2    0    0  0.12681584539E+02  0.90152592006E+02  0.27755410576E+03  0.29210373852E+03  0.51100000000E-03 0.  1.
         22    1    1    2    0    0 -0.95570147120E+02  0.67333701408E+02  0.66043179762E+03  0.67069936609E+03  0.00000000000E+00 0.  1.
          2    1    1    2  501    0  0.82888562581E+02 -0.15748629341E+03 -0.10818983485E+03  0.20827262612E+03  0.25500000000E-02 0.  1.
<mgrwt>
<rscale>  0 0.17284195E+03</rscale>
<asrwt>0</asrwt>
<pdfrwt beam="1">  1       11 0.10000000E+01 0.91040169E+02</pdfrwt>
<pdfrwt beam="2">  1        2 0.26263724E-01 0.17284195E+03</pdfrwt>
<totfact> 0.24941523E+02</totfact>
</mgrwt>
</event>
<event>
 5    1  0.2799727E-003  0.1002033E+03  0.7818608E-02  0.1375248E+00
         11   -1    0    0    0    0  0.00000000000E+00  0.00000000000E+00  0.10000210113E+04  0.10000210113E+04  0.51100000000E-03 0. -1.
         -2   -1    0    0    0  501 -0.00000000000E+00 -0.00000000000E+00 -0.29848499224E+02  0.29848499333E+02  0.25500000000E-02 0.  1.
         11    1    1    2    0    0 -0.87367396816E+02  0.10330164506E+03  0.61517895336E+03  0.62988049386E+03  0.51100000000E-03 0. -1.
         22    1    1    2    0    0  0.28774807904E+02 -0.73514430370E+02  0.31107722049E+03  0.32093830895E+03  0.00000000000E+00 0. -1.
         -2    1    1    2    0  501  0.58592588912E+02 -0.29787214694E+02  0.43916338198E+02  0.79050707789E+02  0.25500000000E-02 0.  1.
<mgrwt>
<rscale>  0 0.65729519E+02</rscale>
<asrwt>0</asrwt>
<pdfrwt beam="1">  1       11 0.10000000E+01 0.10020328E+03</pdfrwt>
<pdfrwt beam="2">  1       -2 0.45921732E-02 0.65729519E+02</pdfrwt>
<totfact> 0.15611273E+03</totfact>
</mgrwt>
</event>
<event>
 5    1  0.2799727E-003  0.1051904E+03  0.7818608E-02  0.1272988E+00
         11   -1    0    0    0    0  0.00000000000E+00  0.00000000000E+00  0.10000989846E+04  0.10000989846E+04  0.51100000000E-03 0. -1.
          2   -1    0    0  501    0 -0.00000000000E+00 -0.00000000000E+00 -0.12376909999E+02  0.12376910262E+02  0.25500000000E-02 0. -1.
         11    1    1    2    0    0 -0.81059369418E+02 -0.12029542726E+02  0.24351362786E+03  0.25693232226E+03  0.51100000000E-03 0. -1.
         22    1    1    2    0    0 -0.22319094202E+02  0.59422451058E+01  0.78454716015E+02  0.81783829134E+02  0.00000000000E+00 0.  1.
          2    1    1    2  501    0  0.10337846362E+03  0.60872976200E+01  0.66575373069E+03  0.67375974343E+03  0.25500000000E-02 0. -1.
<mgrwt>
<rscale>  0 0.10355753E+03</rscale>
<asrwt>0</asrwt>
<pdfrwt beam="1">  1       11 0.10000000E+01 0.10519038E+03</pdfrwt>
<pdfrwt beam="2">  1        2 0.19043284E-02 0.10355753E+03</pdfrwt>
<totfact> 0.64628272E+03</totfact>
</mgrwt>
</event>
<event>
 5    1  0.2799727E-003  0.1669697E+03  0.7818608E-02  0.1181045E+00
         11   -1    0    0    0    0  0.00000000000E+00  0.00000000000E+00  0.10001981519E+04  0.10001981519E+04  0.51100000000E-03 0.  1.
          2   -1    0    0  501    0 -0.00000000000E+00 -0.00000000000E+00 -0.40450441423E+03  0.40450441424E+03  0.25500000000E-02 0.  1.
         11    1    1    2    0    0 -0.14931752628E+03 -0.20080452477E+03  0.59847507182E+03  0.64868373836E+03  0.51100000000E-03 0.  1.
         22    1    1    2    0    0  0.46556457006E+01  0.12114487997E+03  0.34788878368E+03  0.36840787558E+03  0.00000000000E+00 0.  1.
          2    1    1    2  501    0  0.14466188058E+03  0.79659644798E+02 -0.35067011784E+03  0.38761095219E+03  0.25500000000E-02 0.  1.
<mgrwt>
<rscale>  0 0.16696968E+03</rscale>
<asrwt>0</asrwt>
<pdfrwt beam="1">  1       11 0.10000000E+01 0.12123431E+03</pdfrwt>
<pdfrwt beam="2">  1        2 0.62243778E-01 0.16696968E+03</pdfrwt>
<totfact> 0.98419914E+01</totfact>
</mgrwt>
</event>
<event>
 5    1  0.2799727E-003  0.1095033E+03  0.7818608E-02  0.1276767E+00
         11   -1    0    0    0    0  0.00000000000E+00  0.00000000000E+00  0.10000470609E+04  0.10000470609E+04  0.51100000000E-03 0. -1.
          2   -1    0    0  501    0 -0.00000000000E+00 -0.00000000000E+00 -0.11522161565E+02  0.11522161847E+02  0.25500000000E-02 0. -1.
         11    1    1    2    0    0 -0.72506527556E+02  0.43178459159E+01  0.36244652813E+03  0.36965298063E+03  0.51100000000E-03 0. -1.
         22    1    1    2    0    0 -0.28985008971E+02  0.21445872327E+01  0.58762289077E+02  0.65557124838E+02  0.00000000000E+00 0. -1.
          2    1    1    2  501    0  0.10149153653E+03 -0.64624331486E+01  0.56731608209E+03  0.57635911725E+03  0.25500000000E-02 0. -1.
<mgrwt>
<rscale>  0 0.10169707E+03</rscale>
<asrwt>0</asrwt>
<pdfrwt beam="1">  1       11 0.10000000E+01 0.10950328E+03</pdfrwt>
<pdfrwt beam="2">  1        2 0.17727236E-02 0.10169707E+03</pdfrwt>
<totfact> 0.71055950E+03</totfact>
</mgrwt>
</event>
<event>
 5    1  0.2799727E-003  0.1690563E+03  0.7818608E-02  0.1184693E+00
         11   -1    0    0    0    0  0.00000000000E+00  0.00000000000E+00  0.10001889098E+04  0.10001889098E+04  0.51100000000E-03 0.  1.
         -2   -1    0    0    0  501 -0.00000000000E+00 -0.00000000000E+00 -0.68173528111E+02  0.68173528159E+02  0.25500000000E-02 0. -1.
         11    1    1    2    0    0  0.12276200644E+03 -0.36351121930E+02  0.70186329072E+03  0.71344515778E+03  0.51100000000E-03 0.  1.
         22    1    1    2    0    0  0.38851157395E+02  0.10943052755E+02  0.17902116170E+03  0.18351495626E+03  0.00000000000E+00 0. -1.
         -2    1    1    2    0  501 -0.16161316384E+03  0.25408069175E+02  0.51130929233E+02  0.17140232389E+03  0.25500000000E-02 0. -1.
<mgrwt>
<rscale>  0 0.16359824E+03</rscale>
<asrwt>0</asrwt>
<pdfrwt beam="1">  1       11 0.10000000E+01 0.16905629E+03</pdfrwt>
<pdfrwt beam="2">  1       -2 0.10490216E-01 0.16359824E+03</pdfrwt>
<totfact> 0.47849812E+02</totfact>
</mgrwt>
</event>
<event>
 5    1  0.2799727E-003  0.1922458E+03  0.7818608E-02  0.1159741E+00
         11   -1    0    0    0    0  0.00000000000E+00  0.00000000000E+00  0.99995897573E+03  0.99995897573E+03  0.51100000000E-03 0. -1.
          2   -1    0    0  501    0 -0.00000000000E+00 -0.00000000000E+00 -0.33607721521E+03  0.33607721522E+03  0.25500000000E-02 0.  1.
         11    1    1    2    0    0 -0.33286850031E+02 -0.12353678614E+03  0.58481077266E+03  0.59864262439E+03  0.51100000000E-03 0. -1.
         22    1    1    2    0    0 -0.34329392004E+02 -0.52512590653E+02  0.37842388116E+03  0.38358925059E+03  0.00000000000E+00 0. -1.
          2    1    1    2  501    0  0.67616242035E+02  0.17604937680E+03 -0.29935289331E+03  0.35380431597E+03  0.25500000000E-02 0.  1.
<mgrwt>
<rscale>  0 0.18858775E+03</rscale>
<asrwt>0</asrwt>
<pdfrwt beam="1">  1       11 0.10000000E+01 0.19224583E+03</pdfrwt>
<pdfrwt beam="2">  1        2 0.51702064E-01 0.18858775E+03</pdfrwt>
<totfact> 0.12007624E+02</totfact>
</mgrwt>
</event>
<event>
 5    1  0.2799727E-003  0.1855595E+03  0.7818608E-02  0.1173971E+00
         11   -1    0    0    0    0  0.00000000000E+00  0.00000000000E+00  0.10002465268E+04  0.10002465268E+04  0.51100000000E-03 0.  1.
          2   -1    0    0  501    0 -0.00000000000E+00 -0.00000000000E+00 -0.34299004495E+02  0.34299004590E+02  0.25500000000E-02 0.  1.
         11    1    1    2    0    0 -0.40718122680E+02  0.70742667712E+02  0.29213450759E+03  0.30332336058E+03  0.51100000000E-03 0.  1.
         22    1    1    2    0    0  0.19783661087E+02  0.10176286948E+03  0.33144319333E+03  0.34727750468E+03  0.00000000000E+00 0.  1.
          2    1    1    2  501    0  0.20934461594E+02 -0.17250553719E+03  0.34236982135E+03  0.38394466609E+03  0.25500000000E-02 0.  1.
<mgrwt>
<rscale>  0 0.17377115E+03</rscale>
<asrwt>0</asrwt>
<pdfrwt beam="1">  1       11 0.10000000E+01 0.18555952E+03</pdfrwt>
<pdfrwt beam="2">  1        2 0.52780706E-02 0.17377115E+03</pdfrwt>
<totfact> 0.17409034E+03</totfact>
</mgrwt>
</event>
<event>
 5    1  0.2799727E-003  0.1584924E+03  0.7818608E-02  0.1592045E+00
         11   -1    0    0    0    0  0.00000000000E+00  0.00000000000E+00  0.10001429284E+04  0.10001429284E+04  0.51100000000E-03 0. -1.
          2   -1    0    0  501    0 -0.00000000000E+00 -0.00000000000E+00 -0.26804384576E+03  0.26804384578E+03  0.25500000000E-02 0. -1.
         11    1    1    2    0    0  0.13480950870E+03  0.10884712947E+03  0.59480022326E+03  0.61952288643E+03  0.51100000000E-03 0. -1.
         22    1    1    2    0    0 -0.10905451251E+03 -0.92408570423E+02  0.37898945027E+03  0.40504966856E+03  0.00000000000E+00 0.  1.
          2    1    1    2  501    0 -0.25754996191E+02 -0.16438559051E+02 -0.24169059089E+03  0.24361421918E+03  0.25500000000E-02 0. -1.
<mgrwt>
<rscale>  0 0.30553986E+02</rscale>
<asrwt>0</asrwt>
<pdfrwt beam="1">  1       11 0.10000000E+01 0.15849242E+03</pdfrwt>
<pdfrwt beam="2">  1        2 0.41243408E-01 0.30553986E+02</pdfrwt>
<totfact> 0.14933522E+02</totfact>
</mgrwt>
</event>
<event>
 5    1  0.2799727E-003  0.2310582E+03  0.7818608E-02  0.1125897E+00
         11   -1    0    0    0    0  0.00000000000E+00  0.00000000000E+00  0.10001482469E+04  0.10001482469E+04  0.51100000000E-03 0.  1.
          2   -1    0    0  501    0 -0.00000000000E+00 -0.00000000000E+00 -0.11037038126E+03  0.11037038129E+03  0.25500000000E-02 0.  1.
         11    1    1    2    0    0  0.17039746580E+03 -0.16116182819E+03  0.79587545988E+03  0.82971451648E+03  0.51100000000E-03 0.  1.
         22    1    1    2    0    0 -0.97385417356E+01 -0.40896167575E+01  0.43654218209E+02  0.44913861199E+02  0.00000000000E+00 0.  1.
          2    1    1    2  501    0 -0.16065892406E+03  0.16525144495E+03  0.50248187587E+02  0.23589025054E+03  0.25500000000E-02 0.  1.
<mgrwt>
<rscale>  0 0.23105818E+03</rscale>
<asrwt>0</asrwt>
<pdfrwt beam="1">  1       11 0.10000000E+01 0.10562394E+02</pdfrwt>
<pdfrwt beam="2">  1        2 0.16982575E-01 0.23105818E+03</pdfrwt>
<totfact> 0.41265996E+02</totfact>
</mgrwt>
</event>
<event>
 5    1  0.2799727E-003  0.2191943E+03  0.7818608E-02  0.1142083E+00
         11   -1    0    0    0    0  0.00000000000E+00  0.00000000000E+00  0.10004768889E+04  0.10004768889E+04  0.51100000000E-03 0.  1.
         -2   -1    0    0    0  501 -0.00000000000E+00 -0.00000000000E+00 -0.12296713598E+03  0.12296713601E+03  0.25500000000E-02 0. -1.
         11    1    1    2    0    0  0.52681284968E+02  0.11361621497E+02  0.21233230637E+03  0.21906485925E+03  0.51100000000E-03 0.  1.
         22    1    1    2    0    0  0.10089910632E+03  0.13090447678E+03  0.67486330373E+03  0.69480723256E+03  0.00000000000E+00 0.  1.
         -2    1    1    2    0  501 -0.15358039128E+03 -0.14226609828E+03 -0.96858571832E+01  0.20957193310E+03  0.25500000000E-02 0. -1.
<mgrwt>
<rscale>  0 0.20934799E+03</rscale>
<asrwt>0</asrwt>
<pdfrwt beam="1">  1       11 0.10000000E+01 0.21919432E+03</pdfrwt>
<pdfrwt beam="2">  1       -2 0.18927042E-01 0.20934799E+03</pdfrwt>
<totfact> 0.18411916E+02</totfact>
</mgrwt>
</event>
<event>
 5    1  0.3085740E-003  0.1894945E+03  0.7818608E-02  0.1158918E+00
         11   -1    0    0    0    0  0.00000000000E+00  0.00000000000E+00  0.10007420059E+04  0.10007420059E+04  0.51100000000E-03 0.  1.
          2   -1    0    0  501    0 -0.00000000000E+00 -0.00000000000E+00 -0.74114814712E+03  0.74114814712E+03  0.25500000000E-02 0.  1.
         11    1    1    2    0    0  0.37161364753E+02  0.18069561537E+03  0.87818946893E+03  0.89735645971E+03  0.51100000000E-03 0.  1.
         22    1    1    2    0    0 -0.16324922397E+02  0.77306516874E+01  0.99863799005E+02  0.10148420773E+03  0.00000000000E+00 0.  1.
          2    1    1    2  501    0 -0.20836442356E+02 -0.18842626706E+03 -0.71845940915E+03  0.74304948560E+03  0.25500000000E-02 0.  1.
<mgrwt>
<rscale>  0 0.18949452E+03</rscale>
<asrwt>0</asrwt>
<pdfrwt beam="1">  1       11 0.10000000E+01 0.18062837E+02</pdfrwt>
<pdfrwt beam="2">  1        2 0.11410739E+00 0.18949452E+03</pdfrwt>
<totfact> 0.49331213E+01</totfact>
</mgrwt>
</event>
<event>
 5    1  0.2799727E-003  0.1537440E+03  0.7818608E-02  0.1538000E+00
         11   -1    0    0    0    0  0.00000000000E+00  0.00000000000E+00  0.10001549786E+04  0.10001549786E+04  0.51100000000E-03 0.  1.
          2   -1    0    0  501    0 -0.00000000000E+00 -0.00000000000E+00 -0.24365571331E+03  0.24365571333E+03  0.25500000000E-02 0.  1.
         11    1    1    2    0    0  0.14749951494E+03  0.18256928904E+02  0.72870626580E+03  0.74370844030E+03  0.51100000000E-03 0.  1.
         22    1    1    2    0    0 -0.16867831482E+03 -0.47643556799E+02  0.23308732138E+03  0.29163672914E+03  0.00000000000E+00 0.  1.
          2    1    1    2  501    0  0.21178799885E+02  0.29386627895E+02 -0.20529432188E+03  0.20846552249E+03  0.25500000000E-02 0.  1.
<mgrwt>
<rscale>  0 0.36223134E+02</rscale>
<asrwt>0</asrwt>
<pdfrwt beam="1">  1       11 0.10000000E+01 0.15374405E+03</pdfrwt>
<pdfrwt beam="2">  1        2 0.37491303E-01 0.36223134E+02</pdfrwt>
<totfact> 0.16506435E+02</totfact>
</mgrwt>
</event>
<event>
 5    1  0.2799727E-003  0.5623484E+03  0.7818608E-02  0.1004112E+00
         11   -1    0    0    0    0  0.00000000000E+00  0.00000000000E+00  0.10001326054E+04  0.10001326054E+04  0.51100000000E-03 0. -1.
          2   -1    0    0  501    0 -0.00000000000E+00 -0.00000000000E+00 -0.33665524439E+03  0.33665524440E+03  0.25500000000E-02 0. -1.
         11    1    1    2    0    0  0.40468204508E+03  0.23382357206E+03  0.64799569618E+02  0.47184743793E+03  0.51100000000E-03 0. -1.
         22    1    1    2    0    0  0.36253703554E+02  0.75879429983E+02  0.62372719561E+02  0.10470136132E+03  0.00000000000E+00 0. -1.
          2    1    1    2  501    0 -0.44093574863E+03 -0.30970300204E+03  0.53630507180E+03  0.76023905052E+03  0.25500000000E-02 0. -1.
<mgrwt>
<rscale>  0 0.53883233E+03</rscale>
<asrwt>0</asrwt>
<pdfrwt beam="1">  1       11 0.10000000E+01 0.56234840E+03</pdfrwt>
<pdfrwt beam="2">  1        2 0.51799981E-01 0.53883233E+03</pdfrwt>
<totfact> 0.11948232E+02</totfact>
</mgrwt>
</event>
<event>
 5    1  0.2799727E-003  0.3231702E+03  0.7818608E-02  0.1077864E+00
         11   -1    0    0    0    0  0.00000000000E+00  0.00000000000E+00  0.10000777600E+04  0.10000777600E+04  0.51100000000E-03 0.  1.
         -2   -1    0    0    0  501 -0.00000000000E+00 -0.00000000000E+00 -0.20559512469E+03  0.20559512471E+03  0.25500000000E-02 0. -1.
         11    1    1    2    0    0  0.92547900762E+01  0.26594101046E+03  0.66951983818E+03  0.72046310516E+03  0.51100000000E-03 0.  1.
         22    1    1    2    0    0  0.32743054877E+02  0.46483031305E+02  0.15831570790E+03  0.16821606110E+03  0.00000000000E+00 0.  1.
         -2    1    1    2    0  501 -0.41997844953E+02 -0.31242404176E+03 -0.33352910810E+02  0.31699371842E+03  0.25500000000E-02 0. -1.
<mgrwt>
<rscale>  0 0.31523420E+03</rscale>
<asrwt>0</asrwt>
<pdfrwt beam="1">  1       11 0.10000000E+01 0.32317019E+03</pdfrwt>
<pdfrwt beam="2">  1       -2 0.31632478E-01 0.31523420E+03</pdfrwt>
<totfact> 0.74922458E+01</totfact>
</mgrwt>
</event>
<event>
 5    1  0.2799727E-003  0.7050325E+02  0.7818608E-02  0.1446876E+00
         11   -1    0    0    0    0  0.00000000000E+00  0.00000000000E+00  0.10001235785E+04  0.10001235785E+04  0.51100000000E-03 0.  1.
          2   -1    0    0  501    0 -0.00000000000E+00 -0.00000000000E+00 -0.96456283378E+01  0.96456286749E+01  0.25500000000E-02 0.  1.
         11    1    1    2    0    0 -0.50077655035E+02  0.76521246333E+01  0.10883355940E+03  0.12004611696E+03  0.51100000000E-03 0.  1.
         22    1    1    2    0    0 -0.27681747781E+02 -0.21513433520E+02  0.16158141634E+03  0.16534104478E+03  0.00000000000E+00 0. -1.
          2    1    1    2  501    0  0.77759402816E+02  0.13861308887E+02  0.72006297442E+03  0.72438204543E+03  0.25500000000E-02 0.  1.
<mgrwt>
<rscale>  0 0.49716652E+02</rscale>
<asrwt>0</asrwt>
<pdfrwt beam="1">  1       11 0.10000000E+01 0.70503249E+02</pdfrwt>
<pdfrwt beam="2">  1        2 0.14841262E-02 0.49716652E+02</pdfrwt>
<totfact> 0.81227265E+03</totfact>
</mgrwt>
</event>
<event>
 5    1  0.2799727E-003  0.3274232E+02  0.7818608E-02  0.1578818E+00
         11   -1    0    0    0    0  0.00000000000E+00  0.00000000000E+00  0.10000797827E+04  0.10000797827E+04  0.51100000000E-03 0. -1.
          2   -1    0    0  501    0 -0.00000000000E+00 -0.00000000000E+00 -0.37930174069E+01  0.37930182641E+01  0.25500000000E-02 0. -1.
         11    1    1    2    0    0  0.30596320505E+02 -0.45295723941E+01  0.11571583651E+03  0.11977815608E+03  0.51100000000E-03 0. -1.
         22    1    1    2    0    0 -0.59648176069E+01  0.30339599232E+02  0.18158195139E+03  0.18419575294E+03  0.00000000000E+00 0.  1.
          2    1    1    2  501    0 -0.24631502898E+02 -0.25810026838E+02  0.69898897739E+03  0.69989889194E+03  0.25500000000E-02 0. -1.
<mgrwt>
<rscale>  0 0.31818308E+02</rscale>
<asrwt>0</asrwt>
<pdfrwt beam="1">  1       11 0.10000000E+01 0.32742322E+02</pdfrwt>
<pdfrwt beam="2">  1        2 0.58358775E-03 0.31818308E+02</pdfrwt>
<totfact> 0.25775478E+04</totfact>
</mgrwt>
</event>
<event>
 5    1  0.2799727E-003  0.1877976E+03  0.7818608E-02  0.1167542E+00
         11   -1    0    0    0    0  0.00000000000E+00  0.00000000000E+00  0.10002944723E+04  0.10002944723E+04  0.51100000000E-03 0.  1.
          2   -1    0    0  501    0 -0.00000000000E+00 -0.00000000000E+00 -0.34510055679E+02  0.34510055773E+02  0.25500000000E-02 0.  1.
         11    1    1    2    0    0 -0.12446459130E+01  0.16087556379E+03  0.44717635146E+03  0.47523592612E+03  0.51100000000E-03 0.  1.
         22    1    1    2    0    0  0.14410776890E+02  0.18913217718E+02  0.11648330907E+03  0.11888541368E+03  0.00000000000E+00 0. -1.
          2    1    1    2  501    0 -0.13166130977E+02 -0.17978878151E+03  0.40212475613E+03  0.44068318831E+03  0.25500000000E-02 0.  1.
<mgrwt>
<rscale>  0 0.18027022E+03</rscale>
<asrwt>0</asrwt>
<pdfrwt beam="1">  1       11 0.10000000E+01 0.18779764E+03</pdfrwt>
<pdfrwt beam="2">  1        2 0.53108026E-02 0.18027022E+03</pdfrwt>
<totfact> 0.17316307E+03</totfact>
</mgrwt>
</event>
<event>
 5    1  0.2799727E-003  0.6025321E+02  0.7818608E-02  0.1412477E+00
         11   -1    0    0    0    0  0.00000000000E+00  0.00000000000E+00  0.10004569932E+04  0.10004569932E+04  0.51100000000E-03 0. -1.
          2   -1    0    0  501    0 -0.00000000000E+00 -0.00000000000E+00 -0.43597065134E+01  0.43597072591E+01  0.25500000000E-02 0. -1.
         11    1    1    2    0    0 -0.43498171742E+02 -0.16014045123E+02  0.22171988981E+03  0.22651324492E+03  0.51100000000E-03 0. -1.
         22    1    1    2    0    0 -0.12279069562E+02  0.61380622902E+01  0.54552474661E+02  0.56253211905E+02  0.00000000000E+00 0. -1.
          2    1    1    2  501    0  0.55777241305E+02  0.98759828333E+01  0.71982492225E+03  0.72205024367E+03  0.25500000000E-02 0. -1.
<mgrwt>
<rscale>  0 0.56644821E+02</rscale>
<asrwt>0</asrwt>
<pdfrwt beam="1">  1       11 0.10000000E+01 0.60253213E+02</pdfrwt>
<pdfrwt beam="2">  1        2 0.67103063E-03 0.56644821E+02</pdfrwt>
<totfact> 0.24184314E+04</totfact>
</mgrwt>
</event>
<event>
 5    1  0.2799727E-003  0.2873254E+03  0.7818608E-02  0.1094071E+00
         11   -1    0    0    0    0  0.00000000000E+00  0.00000000000E+00  0.10003786930E+04  0.10003786930E+04  0.51100000000E-03 0. -1.
          2   -1    0    0  501    0 -0.00000000000E+00 -0.00000000000E+00 -0.32165866975E+03  0.32165866976E+03  0.25500000000E-02 0. -1.
         11    1    1    2    0    0 -0.15978429124E+03  0.15254397741E+03  0.67972381721E+03  0.71472033164E+03  0.51100000000E-03 0. -1.
         22    1    1    2    0    0 -0.26533257685E+02  0.60445765069E+02  0.23171422405E+03  0.24093398661E+03  0.00000000000E+00 0.  1.
          2    1    1    2  501    0  0.18631754892E+03 -0.21298974248E+03 -0.23271801797E+03  0.36638304455E+03  0.25500000000E-02 0. -1.
<mgrwt>
<rscale>  0 0.28298208E+03</rscale>
<asrwt>0</asrwt>
<pdfrwt beam="1">  1       11 0.10000000E+01 0.28732538E+03</pdfrwt>
<pdfrwt beam="2">  1        2 0.49504688E-01 0.28298208E+03</pdfrwt>
<totfact> 0.12578974E+02</totfact>
</mgrwt>
</event>
<event>
 5    1  0.2799727E-003  0.2714300E+03  0.7818608E-02  0.1101779E+00
         11   -1    0    0    0    0  0.00000000000E+00  0.00000000000E+00  0.10004600653E+04  0.10004600653E+04  0.51100000000E-03 0.  1.
          2   -1    0    0  501    0 -0.00000000000E+00 -0.00000000000E+00 -0.11509717564E+03  0.11509717567E+03  0.25500000000E-02 0.  1.
         11    1    1    2    0    0 -0.18081306335E+03 -0.18102240718E+03  0.75716434604E+03  0.79922482612E+03  0.51100000000E-03 0.  1.
         22    1    1    2    0    0 -0.12428492444E+02 -0.62951139097E+01  0.23972388695E+02  0.27726725434E+02  0.00000000000E+00 0.  1.
          2    1    1    2  501    0  0.19324155579E+03  0.18731752109E+03  0.10422615494E+03  0.28860568944E+03  0.25500000000E-02 0.  1.
<mgrwt>
<rscale>  0 0.26912851E+03</rscale>
<asrwt>0</asrwt>
<pdfrwt beam="1">  1       11 0.10000000E+01 0.27143005E+03</pdfrwt>
<pdfrwt beam="2">  1        2 0.17715404E-01 0.26912851E+03</pdfrwt>
<totfact> 0.39462977E+02</totfact>
</mgrwt>
</event>
<event>
 5    1  0.2799727E-003  0.8958365E+02  0.7818608E-02  0.1422301E+00
         11   -1    0    0    0    0  0.00000000000E+00  0.00000000000E+00  0.10002286502E+04  0.10002286502E+04  0.51100000000E-03 0.  1.
          2   -1    0    0  501    0 -0.00000000000E+00 -0.00000000000E+00 -0.12480904313E+02  0.12480904573E+02  0.25500000000E-02 0.  1.
         11    1    1    2    0    0  0.58426675726E+02  0.72902232395E+02  0.31146741839E+03  0.32517743563E+03  0.51100000000E-03 0.  1.
         22    1    1    2    0    0 -0.30818785648E+02  0.12350036738E+02  0.14545583724E+03  0.14919692203E+03  0.00000000000E+00 0. -1.
          2    1    1    2  501    0 -0.27607890078E+02 -0.85252269134E+02  0.53082449030E+03  0.53833519715E+03  0.25500000000E-02 0.  1.
<mgrwt>
<rscale>  0 0.54537006E+02</rscale>
<asrwt>0</asrwt>
<pdfrwt beam="1">  1       11 0.10000000E+01 0.89583654E+02</pdfrwt>
<pdfrwt beam="2">  1        2 0.19205781E-02 0.54537006E+02</pdfrwt>
<totfact> 0.58492770E+03</totfact>
</mgrwt>
</event>
<event>
 5    1  0.2799727E-003  0.8866813E+02  0.7818608E-02  0.1382066E+00
         11   -1    0    0    0    0  0.00000000000E+00  0.00000000000E+00  0.10001921436E+04  0.10001921436E+04  0.51100000000E-03 0. -1.
          2   -1    0    0  501    0 -0.00000000000E+00 -0.00000000000E+00 -0.37373037430E+02  0.37373037517E+02  0.25500000000E-02 0. -1.
         11    1    1    2    0    0  0.96504365263E+02 -0.27053977046E+02  0.12829928196E+03  0.16280576138E+03  0.51100000000E-03 0. -1.
         22    1    1    2    0    0 -0.31870652792E+02 -0.33287963192E+02  0.12163813697E+02  0.47663249643E+02  0.00000000000E+00 0. -1.
          2    1    1    2  501    0 -0.64633712471E+02  0.60341940239E+02  0.82235601047E+03  0.82709617004E+03  0.25500000000E-02 0. -1.
<mgrwt>
<rscale>  0 0.63923928E+02</rscale>
<asrwt>0</asrwt>
<pdfrwt beam="1">  1       11 0.10000000E+01 0.88668132E+02</pdfrwt>
<pdfrwt beam="2">  1        2 0.57508027E-02 0.63923928E+02</pdfrwt>
<totfact> 0.14334938E+03</totfact>
</mgrwt>
</event>
<event>
 5    1  0.2799727E-003  0.6038474E+02  0.7818608E-02  0.1414332E+00
         11   -1    0    0    0    0  0.00000000000E+00  0.00000000000E+00  0.99985491834E+03  0.99985491834E+03  0.51100000000E-03 0. -1.
          2   -1    0    0  501    0 -0.00000000000E+00 -0.00000000000E+00 -0.62949012108E+01  0.62949017273E+01  0.25500000000E-02 0. -1.
         11    1    1    2    0    0  0.17198406992E+02 -0.73642755312E+01  0.37276309878E+02  0.41707805451E+02  0.51100000000E-03 0. -1.
         22    1    1    2    0    0  0.18717793198E+02 -0.35911208176E+02  0.12804728541E+03  0.13429846595E+03  0.00000000000E+00 0. -1.
          2    1    1    2  501    0 -0.35916200190E+02  0.43275483707E+02  0.82823642184E+03  0.83014354867E+03  0.25500000000E-02 0. -1.
<mgrwt>
<rscale>  0 0.56238252E+02</rscale>
<asrwt>0</asrwt>
<pdfrwt beam="1">  1       11 0.10000000E+01 0.60384737E+02</pdfrwt>
<pdfrwt beam="2">  1        2 0.96830585E-03 0.56238252E+02</pdfrwt>
<totfact> 0.14709882E+04</totfact>
</mgrwt>
</event>
<event>
 5    1  0.2799727E-003  0.2940179E+02  0.7818608E-02  0.1615432E+00
         11   -1    0    0    0    0  0.00000000000E+00  0.00000000000E+00  0.99995654412E+03  0.99995654412E+03  0.51100000000E-03 0.  1.
         -2   -1    0    0    0  501 -0.00000000000E+00 -0.00000000000E+00 -0.33264386964E+01  0.33264396738E+01  0.25500000000E-02 0.  1.
         11    1    1    2    0    0 -0.93014079804E+01  0.11938641714E+02  0.30085594284E+02  0.33677742503E+02  0.51100000000E-03 0.  1.
         22    1    1    2    0    0 -0.12542275831E+02  0.63482225496E+01  0.36333005943E+02  0.38957617143E+02  0.00000000000E+00 0.  1.
         -2    1    1    2    0  501  0.21843683811E+02 -0.18286864264E+02  0.93021150520E+03  0.93064762415E+03  0.25500000000E-02 0.  1.
<mgrwt>
<rscale>  0 0.28487821E+02</rscale>
<asrwt>0</asrwt>
<pdfrwt beam="1">  1       11 0.10000000E+01 0.29401786E+02</pdfrwt>
<pdfrwt beam="2">  1       -2 0.51173762E-03 0.28487821E+02</pdfrwt>
<totfact> 0.29026136E+04</totfact>
</mgrwt>
</event>
<event>
 5    1  0.2799727E-003  0.3840299E+02  0.7818608E-02  0.1520304E+00
         11   -1    0    0    0    0  0.00000000000E+00  0.00000000000E+00  0.10004762439E+04  0.10004762439E+04  0.51100000000E-03 0. -1.
          2   -1    0    0  501    0 -0.00000000000E+00 -0.00000000000E+00 -0.45385336687E+01  0.45385343850E+01  0.25500000000E-02 0. -1.
         11    1    1    2    0    0  0.23635281750E+01 -0.26709729417E+02  0.87471302096E+02  0.91488931579E+02  0.51100000000E-03 0. -1.
         22    1    1    2    0    0 -0.24796527776E+02 -0.23794700272E+02  0.20211099592E+03  0.20501197580E+03  0.00000000000E+00 0. -1.
          2    1    1    2  501    0  0.22432999601E+02  0.50504429688E+02  0.70635541224E+03  0.70851387093E+03  0.25500000000E-02 0. -1.
<mgrwt>
<rscale>  0 0.38402990E+02</rscale>
<asrwt>0</asrwt>
<pdfrwt beam="1">  1       11 0.10000000E+01 0.26814113E+02</pdfrwt>
<pdfrwt beam="2">  1        2 0.69856852E-03 0.38402990E+02</pdfrwt>
<totfact> 0.21157054E+04</totfact>
</mgrwt>
</event>
<event>
 5    1  0.2799727E-003  0.9870140E+02  0.7818608E-02  0.1302971E+00
         11   -1    0    0    0    0  0.00000000000E+00  0.00000000000E+00  0.10003308420E+04  0.10003308420E+04  0.51100000000E-03 0. -1.
         -2   -1    0    0    0  501 -0.00000000000E+00 -0.00000000000E+00 -0.97065098740E+01  0.97065102090E+01  0.25500000000E-02 0. -1.
         11    1    1    2    0    0  0.45744825239E+02 -0.11947543536E+02  0.11599247570E+03  0.12525808258E+03  0.51100000000E-03 0. -1.
         22    1    1    2    0    0  0.38170446325E+02 -0.20445988676E+02  0.25444439631E+03  0.25810263896E+03  0.00000000000E+00 0. -1.
         -2    1    1    2    0  501 -0.83915271564E+02  0.32393532212E+02  0.62018746011E+03  0.62667663066E+03  0.25500000000E-02 0. -1.
<mgrwt>
<rscale>  0 0.89950618E+02</rscale>
<asrwt>0</asrwt>
<pdfrwt beam="1">  1       11 0.10000000E+01 0.98701402E+02</pdfrwt>
<pdfrwt beam="2">  1       -2 0.14938032E-02 0.89950618E+02</pdfrwt>
<totfact> 0.82114549E+03</totfact>
</mgrwt>
</event>
<event>
 5    1  0.2799727E-003  0.5649380E+03  0.7818608E-02  0.1005646E+00
         11   -1    0    0    0    0  0.00000000000E+00  0.00000000000E+00  0.10006327825E+04  0.10006327825E+04  0.51100000000E-03 0. -1.
          2   -1    0    0  501    0 -0.00000000000E+00 -0.00000000000E+00 -0.12655947229E+04  0.12655947229E+04  0.25500000000E-02 0. -1.
         11    1    1    2    0    0  0.44052960044E+03  0.68336890726E+02  0.73574090654E+03  0.86026213508E+03  0.51100000000E-03 0. -1.
         22    1    1    2    0    0  0.67409145905E+02  0.91260940325E+02  0.12004684430E+03  0.16517807665E+03  0.00000000000E+00 0.  1.
          2    1    1    2  501    0 -0.50793874635E+03 -0.15959783105E+03 -0.11207496912E+04  0.12407872937E+04  0.25500000000E-02 0. -1.
<mgrwt>
<rscale>  0 0.53242205E+03</rscale>
<asrwt>0</asrwt>
<pdfrwt beam="1">  1       11 0.10000000E+01 0.56493801E+03</pdfrwt>
<pdfrwt beam="2">  1        2 0.19483008E+00 0.53242205E+03</pdfrwt>
<totfact> 0.22034778E+01</totfact>
</mgrwt>
</event>
<event>
 5    1  0.2799727E-003  0.1346929E+03  0.7818608E-02  0.1399987E+00
         11   -1    0    0    0    0  0.00000000000E+00  0.00000000000E+00  0.10006165010E+04  0.10006165010E+04  0.51100000000E-03 0.  1.
         -2   -1    0    0    0  501 -0.00000000000E+00 -0.00000000000E+00 -0.31862962208E+02  0.31862962310E+02  0.25500000000E-02 0. -1.
         11    1    1    2    0    0 -0.72150981639E+02 -0.13290893679E+03  0.40162267255E+03  0.42915186209E+03  0.51100000000E-03 0.  1.
         22    1    1    2    0    0  0.12849017039E+02  0.12819055922E+03  0.48560653850E+03  0.50240583888E+03  0.00000000000E+00 0. -1.
         -2    1    1    2    0  501  0.59301964600E+02  0.47183775712E+01  0.81524327733E+02  0.10092176233E+03  0.25500000000E-02 0. -1.
<mgrwt>
<rscale>  0 0.59489378E+02</rscale>
<asrwt>0</asrwt>
<pdfrwt beam="1">  1       11 0.10000000E+01 0.13469286E+03</pdfrwt>
<pdfrwt beam="2">  1       -2 0.49050161E-02 0.59489378E+02</pdfrwt>
<totfact> 0.14019487E+03</totfact>
</mgrwt>
</event>
<event>
 5    1  0.2799727E-003  0.9521772E+02  0.7818608E-02  0.1317709E+00
         11   -1    0    0    0    0  0.00000000000E+00  0.00000000000E+00  0.10001620911E+04  0.10001620911E+04  0.51100000000E-03 0.  1.
          2   -1    0    0  501    0 -0.00000000000E+00 -0.00000000000E+00 -0.85210387504E+01  0.85210391319E+01  0.25500000000E-02 0.  1.
         11    1    1    2    0    0 -0.47044751368E+02  0.36986411312E+02  0.26429767691E+03  0.27098794304E+03  0.51100000000E-03 0.  1.
         22    1    1    2    0    0 -0.33234265445E+02 -0.11805574249E+02  0.14089154296E+03  0.14523882009E+03  0.00000000000E+00 0.  1.
          2    1    1    2  501    0  0.80279016813E+02 -0.25180837063E+02  0.58645183247E+03  0.59245636709E+03  0.25500000000E-02 0.  1.
<mgrwt>
<rscale>  0 0.84135576E+02</rscale>
<asrwt>0</asrwt>
<pdfrwt beam="1">  1       11 0.10000000E+01 0.95217721E+02</pdfrwt>
<pdfrwt beam="2">  1        2 0.13111415E-02 0.84135576E+02</pdfrwt>
<totfact> 0.10424701E+04</totfact>
</mgrwt>
</event>
<event>
 5    1  0.2799727E-003  0.1839776E+03  0.7818608E-02  0.1172983E+00
         11   -1    0    0    0    0  0.00000000000E+00  0.00000000000E+00  0.10001297481E+04  0.10001297481E+04  0.51100000000E-03 0. -1.
          2   -1    0    0  501    0 -0.00000000000E+00 -0.00000000000E+00 -0.91805223064E+02  0.91805223100E+02  0.25500000000E-02 0.  1.
         11    1    1    2    0    0 -0.80946141023E+02 -0.11286338506E+02  0.49199446348E+03  0.49873661513E+03  0.51100000000E-03 0. -1.
         22    1    1    2    0    0 -0.78275631966E+02 -0.60727143198E+02  0.40625287789E+03  0.41815817734E+03  0.00000000000E+00 0. -1.
          2    1    1    2  501    0  0.15922177299E+03  0.72013481705E+02  0.10077183696E+02  0.17504017876E+03  0.25500000000E-02 0.  1.
<mgrwt>
<rscale>  0 0.17474986E+03</rscale>
<asrwt>0</asrwt>
<pdfrwt beam="1">  1       11 0.10000000E+01 0.18397765E+03</pdfrwt>
<pdfrwt beam="2">  1        2 0.14125713E-01 0.17474986E+03</pdfrwt>
<totfact> 0.50746917E+02</totfact>
</mgrwt>
</event>
<event>
 5    1  0.2799727E-003  0.2713084E+03  0.7818608E-02  0.1103943E+00
         11   -1    0    0    0    0  0.00000000000E+00  0.00000000000E+00  0.10004745286E+04  0.10004745286E+04  0.51100000000E-03 0. -1.
          2   -1    0    0  501    0 -0.00000000000E+00 -0.00000000000E+00 -0.32301179660E+03  0.32301179661E+03  0.25500000000E-02 0. -1.
         11    1    1    2    0    0 -0.22855234864E+03 -0.71541139459E+02  0.87823790241E+03  0.91030551131E+03  0.51100000000E-03 0. -1.
         22    1    1    2    0    0 -0.25123700612E+02 -0.64627805601E+01  0.44688338217E+02  0.51672192112E+02  0.00000000000E+00 0. -1.
          2    1    1    2  501    0  0.25367604925E+03  0.78003920019E+02 -0.24546350866E+03  0.36150862174E+03  0.25500000000E-02 0. -1.
<mgrwt>
<rscale>  0 0.26539810E+03</rscale>
<asrwt>0</asrwt>
<pdfrwt beam="1">  1       11 0.10000000E+01 0.27130842E+03</pdfrwt>
<pdfrwt beam="2">  1        2 0.49717702E-01 0.26539810E+03</pdfrwt>
<totfact> 0.12521176E+02</totfact>
</mgrwt>
</event>
<event>
 5    1  0.2799727E-003  0.2708104E+03  0.7818608E-02  0.1106989E+00
         11   -1    0    0    0    0  0.00000000000E+00  0.00000000000E+00  0.10000453124E+04  0.10000453124E+04  0.51100000000E-03 0.  1.
          2   -1    0    0  501    0 -0.00000000000E+00 -0.00000000000E+00 -0.11331745622E+03  0.11331745625E+03  0.25500000000E-02 0.  1.
         11    1    1    2    0    0 -0.15263824501E+03 -0.98748684642E+02  0.46459351413E+03  0.49889565034E+03  0.51100000000E-03 0.  1.
         22    1    1    2    0    0 -0.84002797064E+02 -0.95795152039E+01  0.32638071738E+03  0.33715368855E+03  0.00000000000E+00 0.  1.
          2    1    1    2  501    0  0.23664104207E+03  0.10832819985E+03  0.95753624663E+02  0.27731342974E+03  0.25500000000E-02 0.  1.
<mgrwt>
<rscale>  0 0.26025753E+03</rscale>
<asrwt>0</asrwt>
<pdfrwt beam="1">  1       11 0.10000000E+01 0.27081038E+03</pdfrwt>
<pdfrwt beam="2">  1        2 0.17434244E-01 0.26025753E+03</pdfrwt>
<totfact> 0.40167271E+02</totfact>
</mgrwt>
</event>
<event>
 5    1  0.2799727E-003  0.1477107E+03  0.7818608E-02  0.1205575E+00
         11   -1    0    0    0    0  0.00000000000E+00  0.00000000000E+00  0.10001450907E+04  0.10001450907E+04  0.51100000000E-03 0. -1.
         -2   -1    0    0    0  501 -0.00000000000E+00 -0.00000000000E+00 -0.29017234946E+02  0.29017235058E+02  0.25500000000E-02 0.  1.
         11    1    1    2    0    0  0.97984807470E+02 -0.95989412726E+02  0.69511741085E+03  0.70852184491E+03  0.51100000000E-03 0. -1.
         22    1    1    2    0    0  0.10403072263E+02 -0.17114629789E+01  0.53643431272E+02  0.54669650965E+02  0.00000000000E+00 0.  1.
         -2    1    1    2    0  501 -0.10838787973E+03  0.97700875705E+02  0.22236701360E+03  0.26597082985E+03  0.25500000000E-02 0.  1.
<mgrwt>
<rscale>  0 0.14592256E+03</rscale>
<asrwt>0</asrwt>
<pdfrwt beam="1">  1       11 0.10000000E+01 0.14771073E+03</pdfrwt>
<pdfrwt beam="2">  1       -2 0.44648376E-02 0.14592256E+03</pdfrwt>
<totfact> 0.17616294E+03</totfact>
</mgrwt>
</event>
<event>
 5    1  0.2799727E-003  0.1581973E+03  0.7818608E-02  0.1190747E+00
         11   -1    0    0    0    0  0.00000000000E+00  0.00000000000E+00  0.10001813924E+04  0.10001813924E+04  0.51100000000E-03 0. -1.
         -2   -1    0    0    0  501 -0.00000000000E+00 -0.00000000000E+00 -0.10096043663E+03  0.10096043666E+03  0.25500000000E-02 0. -1.
         11    1    1    2    0    0  0.23188023592E+02 -0.46734285513E+02  0.16988065856E+03  0.17771104646E+03  0.51100000000E-03 0. -1.
         22    1    1    2    0    0  0.77849382299E+02  0.16606889595E+03  0.74410203375E+03  0.76637278211E+03  0.00000000000E+00 0. -1.
         -2    1    1    2    0  501 -0.10103740589E+03 -0.11933461044E+03 -0.14761736570E+02  0.15705800047E+03  0.25500000000E-02 0. -1.
<mgrwt>
<rscale>  0 0.15819731E+03</rscale>
<asrwt>0</asrwt>
<pdfrwt beam="1">  1       11 0.10000000E+01 0.52170661E+02</pdfrwt>
<pdfrwt beam="2">  1       -2 0.15535192E-01 0.15819731E+03</pdfrwt>
<totfact> 0.25350122E+02</totfact>
</mgrwt>
</event>
<event>
 5    1  0.2799727E-003  0.2990123E+03  0.7818608E-02  0.1097205E+00
         11   -1    0    0    0    0  0.00000000000E+00  0.00000000000E+00  0.99999798237E+03  0.99999798237E+03  0.51100000000E-03 0. -1.
          2   -1    0    0  501    0 -0.00000000000E+00 -0.00000000000E+00 -0.85178914184E+03  0.85178914184E+03  0.25500000000E-02 0. -1.
         11    1    1    2    0    0  0.14437377208E+03  0.15539475856E+03  0.60307828872E+03  0.63929237394E+03  0.51100000000E-03 0. -1.
         22    1    1    2    0    0 -0.18393170424E+01  0.82401168188E+02  0.35085505653E+03  0.36040616851E+03  0.00000000000E+00 0. -1.
          2    1    1    2  501    0 -0.14253445504E+03 -0.23779592675E+03 -0.80572450472E+03  0.85208858176E+03  0.25500000000E-02 0. -1.
<mgrwt>
<rscale>  0 0.27724172E+03</rscale>
<asrwt>0</asrwt>
<pdfrwt beam="1">  1       11 0.10000000E+01 0.29901229E+03</pdfrwt>
<pdfrwt beam="2">  1        2 0.13104422E+00 0.27724172E+03</pdfrwt>
<totfact> 0.40826477E+01</totfact>
</mgrwt>
</event>
<event>
 5    1  0.2799727E-003  0.1729929E+03  0.7818608E-02  0.1190251E+00
         11   -1    0    0    0    0  0.00000000000E+00  0.00000000000E+00  0.10000617485E+04  0.10000617485E+04  0.51100000000E-03 0. -1.
          2   -1    0    0  501    0 -0.00000000000E+00 -0.00000000000E+00 -0.45949364225E+02  0.45949364296E+02  0.25500000000E-02 0. -1.
         11    1    1    2    0    0  0.84233492723E+02  0.70309526218E+02  0.46082007665E+03  0.47370228395E+03  0.51100000000E-03 0. -1.
         22    1    1    2    0    0  0.60809533904E+02 -0.60732945546E+01  0.35988776924E+03  0.36503957425E+03  0.00000000000E+00 0. -1.
          2    1    1    2  501    0 -0.14504302663E+03 -0.64236231663E+02  0.13340453837E+03  0.20726925458E+03  0.25500000000E-02 0. -1.
<mgrwt>
<rscale>  0 0.15863093E+03</rscale>
<asrwt>0</asrwt>
<pdfrwt beam="1">  1       11 0.10000000E+01 0.17299288E+03</pdfrwt>
<pdfrwt beam="2">  1        2 0.70695693E-02 0.15863093E+03</pdfrwt>
<totfact> 0.11854649E+03</totfact>
</mgrwt>
</event>
<event>
 5    1  0.2799727E-003  0.1630966E+03  0.7818608E-02  0.1193942E+00
         11   -1    0    0    0    0  0.00000000000E+00  0.00000000000E+00  0.99981157659E+03  0.99981157659E+03  0.51100000000E-03 0. -1.
          2   -1    0    0  501    0 -0.00000000000E+00 -0.00000000000E+00 -0.30446968852E+02  0.30446968959E+02  0.25500000000E-02 0. -1.
         11    1    1    2    0    0  0.36210319588E+01 -0.14384229008E+03  0.62663380787E+03  0.64294140126E+03  0.51100000000E-03 0. -1.
         22    1    1    2    0    0 -0.15606351915E+02 -0.11135853963E+02  0.78029520751E+02  0.80350305364E+02  0.00000000000E+00 0.  1.
          2    1    1    2  501    0  0.11985319956E+02  0.15497814405E+03  0.26470127912E+03  0.30696683893E+03  0.25500000000E-02 0. -1.
<mgrwt>
<rscale>  0 0.15544090E+03</rscale>
<asrwt>0</asrwt>
<pdfrwt beam="1">  1       11 0.10000000E+01 0.16309655E+03</pdfrwt>
<pdfrwt beam="2">  1        2 0.46832663E-02 0.15544090E+03</pdfrwt>
<totfact> 0.20191045E+03</totfact>
</mgrwt>
</event>
<event>
 5    1  0.2799727E-003  0.2270422E+02  0.7818608E-02  0.1773426E+00
         11   -1    0    0    0    0  0.00000000000E+00  0.00000000000E+00  0.10002665955E+04  0.10002665955E+04  0.51100000000E-03 0. -1.
          2   -1    0    0  501    0 -0.00000000000E+00 -0.00000000000E+00 -0.47791042743E+01  0.47791049546E+01  0.25500000000E-02 0. -1.
         11    1    1    2    0    0 -0.26569246019E+02 -0.10089346225E+02  0.15940997576E+03  0.16192362432E+03  0.51100000000E-03 0. -1.
         22    1    1    2    0    0  0.45544029751E+01  0.14639745752E+02  0.14076615976E+02  0.20813838172E+02  0.00000000000E+00 0. -1.
          2    1    1    2  501    0  0.22014843044E+02 -0.45503995269E+01  0.82200089948E+03  0.82230823795E+03  0.25500000000E-02 0. -1.
<mgrwt>
<rscale>  0 0.18657355E+02</rscale>
<asrwt>0</asrwt>
<pdfrwt beam="1">  1       11 0.10000000E+01 0.22704223E+02</pdfrwt>
<pdfrwt beam="2">  1        2 0.73544286E-03 0.18657355E+02</pdfrwt>
<totfact> 0.16689777E+04</totfact>
</mgrwt>
</event>
<event>
 5    1  0.2799727E-003  0.1885585E+03  0.7818608E-02  0.1168360E+00
         11   -1    0    0    0    0  0.00000000000E+00  0.00000000000E+00  0.99970342567E+03  0.99970342567E+03  0.51100000000E-03 0. -1.
          2   -1    0    0  501    0 -0.00000000000E+00 -0.00000000000E+00 -0.37835997708E+04  0.37835997708E+04  0.25500000000E-02 0. -1.
         11    1    1    2    0    0 -0.30564649292E+02 -0.12389155348E+02  0.11746746642E+03  0.12200940383E+03  0.51100000000E-03 0. -1.
         22    1    1    2    0    0 -0.14582810682E+03  0.45241120730E+02  0.87119353771E+03  0.88447203229E+03  0.00000000000E+00 0. -1.
          2    1    1    2  501    0  0.17639275611E+03 -0.32851965381E+02 -0.37725573492E+04  0.37768217603E+04  0.25500000000E-02 0. -1.
<mgrwt>
<rscale>  0 0.17942591E+03</rscale>
<asrwt>0</asrwt>
<pdfrwt beam="1">  1       11 0.10000000E+01 0.18855848E+03</pdfrwt>
<pdfrwt beam="2">  1        2 0.58191962E+00 0.17942591E+03</pdfrwt>
<totfact> 0.87779198E-01</totfact>
</mgrwt>
</event>
<event>
 5    1  0.2799727E-003  0.3261963E+03  0.7818608E-02  0.1072832E+00
         11   -1    0    0    0    0  0.00000000000E+00  0.00000000000E+00  0.99995339559E+03  0.99995339559E+03  0.51100000000E-03 0. -1.
          2   -1    0    0  501    0 -0.00000000000E+00 -0.00000000000E+00 -0.30382064821E+03  0.30382064822E+03  0.25500000000E-02 0. -1.
         11    1    1    2    0    0 -0.19023878392E+02  0.97895141185E+02  0.39495440434E+02  0.10726255839E+03  0.51100000000E-03 0. -1.
         22    1    1    2    0    0 -0.64655749931E+02  0.22997690071E+03  0.79561119181E+03  0.83070266004E+03  0.00000000000E+00 0. -1.
          2    1    1    2  501    0  0.83679628322E+02 -0.32787204189E+03 -0.13897388487E+03  0.36580882539E+03  0.25500000000E-02 0. -1.
<mgrwt>
<rscale>  0 0.32619627E+03</rscale>
<asrwt>0</asrwt>
<pdfrwt beam="1">  1       11 0.10000000E+01 0.99726509E+02</pdfrwt>
<pdfrwt beam="2">  1        2 0.46739458E-01 0.32619627E+03</pdfrwt>
<totfact> 0.13388729E+02</totfact>
</mgrwt>
</event>
<event>
 5    1  0.2799727E-003  0.6213491E+02  0.7818608E-02  0.1397780E+00
         11   -1    0    0    0    0  0.00000000000E+00  0.00000000000E+00  0.10005179844E+04  0.10005179844E+04  0.51100000000E-03 0.  1.
          2   -1    0    0  501    0 -0.00000000000E+00 -0.00000000000E+00 -0.47827010313E+01  0.47827017111E+01  0.25500000000E-02 0.  1.
         11    1    1    2    0    0 -0.64789504485E+01  0.50679953521E+02  0.21841478453E+03  0.22431106212E+03  0.51100000000E-03 0.  1.
         22    1    1    2    0    0 -0.80337699189E+01  0.75511730251E+01  0.50186125155E+02  0.51382962461E+02  0.00000000000E+00 0. -1.
          2    1    1    2  501    0  0.14512720367E+02 -0.58231126546E+02  0.72713437372E+03  0.72960666156E+03  0.25500000000E-02 0.  1.
<mgrwt>
<rscale>  0 0.60012358E+02</rscale>
<asrwt>0</asrwt>
<pdfrwt beam="1">  1       11 0.10000000E+01 0.62134906E+02</pdfrwt>
<pdfrwt beam="2">  1        2 0.73618132E-03 0.60012358E+02</pdfrwt>
<totfact> 0.21568302E+04</totfact>
</mgrwt>
</event>
<event>
 5    1  0.2799727E-003  0.5566744E+02  0.7818608E-02  0.1425273E+00
         11   -1    0    0    0    0  0.00000000000E+00  0.00000000000E+00  0.10000491861E+04  0.10000491861E+04  0.51100000000E-03 0. -1.
          2   -1    0    0  501    0 -0.00000000000E+00 -0.00000000000E+00 -0.57282091063E+01  0.57282096739E+01  0.25500000000E-02 0. -1.
         11    1    1    2    0    0  0.43907369026E+01 -0.15764305223E+02  0.36551912988E+02  0.40047899234E+02  0.51100000000E-03 0. -1.
         22    1    1    2    0    0 -0.77336953690E+01 -0.38052712814E+02  0.11787025769E+03  0.12410163837E+03  0.00000000000E+00 0. -1.
          2    1    1    2  501    0  0.33429584664E+01  0.53817018038E+02  0.83989880627E+03  0.84162785813E+03  0.25500000000E-02 0. -1.
<mgrwt>
<rscale>  0 0.53920746E+02</rscale>
<asrwt>0</asrwt>
<pdfrwt beam="1">  1       11 0.10000000E+01 0.55667440E+02</pdfrwt>
<pdfrwt beam="2">  1        2 0.88130630E-03 0.53920746E+02</pdfrwt>
<totfact> 0.16573705E+04</totfact>
</mgrwt>
</event>
<event>
 5    1  0.2799727E-003  0.2103520E+03  0.7818608E-02  0.1508492E+00
         11   -1    0    0    0    0  0.00000000000E+00  0.00000000000E+00  0.10003340141E+04  0.10003340141E+04  0.51100000000E-03 0.  1.
          2   -1    0    0  501    0 -0.00000000000E+00 -0.00000000000E+00 -0.18180975617E+03  0.18180975619E+03  0.25500000000E-02 0.  1.
         11    1    1    2    0    0  0.19208046249E+03 -0.11868458175E+03  0.64686569459E+03  0.68513951926E+03  0.51100000000E-03 0.  1.
         22    1    1    2    0    0 -0.15284503677E+03  0.11109959519E+03  0.30445458840E+03  0.35832572014E+03  0.00000000000E+00 0.  1.
          2    1    1    2  501    0 -0.39235425718E+02  0.75849865679E+01 -0.13279602505E+03  0.13867853089E+03  0.25500000000E-02 0.  1.
<mgrwt>
<rscale>  0 0.39961865E+02</rscale>
<asrwt>0</asrwt>
<pdfrwt beam="1">  1       11 0.10000000E+01 0.21035202E+03</pdfrwt>
<pdfrwt beam="2">  1        2 0.27980074E-01 0.39961865E+02</pdfrwt>
<totfact> 0.22369798E+02</totfact>
</mgrwt>
</event>
<event>
 5    1  0.2799727E-003  0.1489011E+03  0.7818608E-02  0.1201830E+00
         11   -1    0    0    0    0  0.00000000000E+00  0.00000000000E+00  0.10003596976E+04  0.10003596976E+04  0.51100000000E-03 0. -1.
          2   -1    0    0  501    0 -0.00000000000E+00 -0.00000000000E+00 -0.57597765095E+02  0.57597765151E+02  0.25500000000E-02 0. -1.
         11    1    1    2    0    0 -0.13641403076E+02  0.14340561514E+03  0.35952753032E+03  0.38731292696E+03  0.51100000000E-03 0. -1.
         22    1    1    2    0    0  0.15037763929E+03 -0.30166223412E+02  0.28038632806E+03  0.31959337977E+03  0.00000000000E+00 0. -1.
          2    1    1    2  501    0 -0.13673623621E+03 -0.11323939173E+03  0.30284807410E+03  0.35105115600E+03  0.25500000000E-02 0. -1.
<mgrwt>
<rscale>  0 0.14890111E+03</rscale>
<asrwt>0</asrwt>
<pdfrwt beam="1">  1       11 0.10000000E+01 0.14405297E+03</pdfrwt>
<pdfrwt beam="2">  1        2 0.88643817E-02 0.14890111E+03</pdfrwt>
<totfact> 0.88766756E+02</totfact>
</mgrwt>
</event>
<event>
 5    1  0.2799727E-003  0.2041997E+03  0.7818608E-02  0.1156979E+00
         11   -1    0    0    0    0  0.00000000000E+00  0.00000000000E+00  0.10001063195E+04  0.10001063195E+04  0.51100000000E-03 0. -1.
          2   -1    0    0  501    0 -0.00000000000E+00 -0.00000000000E+00 -0.50506371215E+02  0.50506371279E+02  0.25500000000E-02 0. -1.
         11    1    1    2    0    0  0.33779898225E+02  0.22586416608E+02  0.11523789466E+03  0.12219247155E+03  0.51100000000E-03 0. -1.
         22    1    1    2    0    0  0.15699542808E+03 -0.40908139317E+02  0.62000101202E+03  0.64087619335E+03  0.00000000000E+00 0. -1.
          2    1    1    2  501    0 -0.19077532630E+03  0.18321722709E+02  0.21436104161E+03  0.28754402588E+03  0.25500000000E-02 0. -1.
<mgrwt>
<rscale>  0 0.19165310E+03</rscale>
<asrwt>0</asrwt>
<pdfrwt beam="1">  1       11 0.10000000E+01 0.20419975E+03</pdfrwt>
<pdfrwt beam="2">  1        2 0.77710369E-02 0.19165310E+03</pdfrwt>
<totfact> 0.10635928E+03</totfact>
</mgrwt>
</event>
<event>
 5    1  0.2799727E-003  0.5621891E+02  0.7818608E-02  0.1419493E+00
         11   -1    0    0    0    0  0.00000000000E+00  0.00000000000E+00  0.99994908762E+03  0.99994908762E+03  0.51100000000E-03 0. -1.
         -2   -1    0    0    0  501 -0.00000000000E+00 -0.00000000000E+00 -0.61559002384E+01  0.61559007666E+01  0.25500000000E-02 0. -1.
         11    1    1    2    0    0  0.37524603656E+02 -0.19237887353E+02  0.96671149219E+02  0.10546802018E+03  0.51100000000E-03 0. -1.
         22    1    1    2    0    0  0.10856690368E+02 -0.71891777678E+01  0.48232443784E+02  0.49959189706E+02  0.00000000000E+00 0.  1.
         -2    1    1    2    0  501 -0.48381294024E+02  0.26427065120E+02  0.84888959438E+03  0.85067777850E+03  0.25500000000E-02 0. -1.
<mgrwt>
<rscale>  0 0.55128390E+02</rscale>
<asrwt>0</asrwt>
<pdfrwt beam="1">  1       11 0.10000000E+01 0.56218914E+02</pdfrwt>
<pdfrwt beam="2">  1       -2 0.94701337E-03 0.55128390E+02</pdfrwt>
<totfact> 0.14396959E+04</totfact>
</mgrwt>
</event>
<event>
 5    1  0.2799727E-003  0.8352285E+02  0.7818608E-02  0.1325965E+00
         11   -1    0    0    0    0  0.00000000000E+00  0.00000000000E+00  0.10003187900E+04  0.10003187900E+04  0.51100000000E-03 0. -1.
          2   -1    0    0  501    0 -0.00000000000E+00 -0.00000000000E+00 -0.76137386029E+01  0.76137390299E+01  0.25500000000E-02 0.  1.
         11    1    1    2    0    0  0.34246605680E+02 -0.49614961738E+02  0.21463832576E+03  0.22294413048E+03  0.51100000000E-03 0. -1.
         22    1    1    2    0    0  0.57137978953E+01 -0.20954180059E+02  0.12074872709E+03  0.12268651207E+03  0.00000000000E+00 0. -1.
          2    1    1    2  501    0 -0.39960403576E+02  0.70569141797E+02  0.65731799858E+03  0.66230188653E+03  0.25500000000E-02 0.  1.
<mgrwt>
<rscale>  0 0.81097704E+02</rscale>
<asrwt>0</asrwt>
<pdfrwt beam="1">  1       11 0.10000000E+01 0.83522846E+02</pdfrwt>
<pdfrwt beam="2">  1        2 0.11717178E-02 0.81097704E+02</pdfrwt>
<totfact> 0.12079074E+04</totfact>
</mgrwt>
</event>
<event>
 5    1  0.2799727E-003  0.1255538E+03  0.7818608E-02  0.1591347E+00
         11   -1    0    0    0    0  0.00000000000E+00  0.00000000000E+00  0.10002088423E+04  0.10002088423E+04  0.51100000000E-03 0. -1.
         -2   -1    0    0    0  501 -0.00000000000E+00 -0.00000000000E+00 -0.29879533154E+03  0.29879533155E+03  0.25500000000E-02 0. -1.
         11    1    1    2    0    0  0.11527865284E+03 -0.34268888466E+01  0.26944538824E+03  0.29308996676E+03  0.51100000000E-03 0. -1.
         22    1    1    2    0    0 -0.12952838813E+03 -0.23674028048E+02  0.71207085863E+03  0.72414292142E+03  0.00000000000E+00 0. -1.
         -2    1    1    2    0  501  0.14249735293E+02  0.27100916894E+02 -0.28010273611E+03  0.28177128568E+03  0.25500000000E-02 0. -1.
<mgrwt>
<rscale>  0 0.30618861E+02</rscale>
<asrwt>0</asrwt>
<pdfrwt beam="1">  1       11 0.10000000E+01 0.12555378E+03</pdfrwt>
<pdfrwt beam="2">  1       -2 0.45978111E-01 0.30618861E+02</pdfrwt>
<totfact> 0.36252309E+01</totfact>
</mgrwt>
</event>
<event>
 5    1  0.2799727E-003  0.1510437E+03  0.7818608E-02  0.1211773E+00
         11   -1    0    0    0    0  0.00000000000E+00  0.00000000000E+00  0.10001202338E+04  0.10001202338E+04  0.51100000000E-03 0. -1.
          2   -1    0    0  501    0 -0.00000000000E+00 -0.00000000000E+00 -0.22580766297E+02  0.22580766441E+02  0.25500000000E-02 0. -1.
         11    1    1    2    0    0  0.77013196338E+02 -0.74631989109E+02  0.50456015490E+03  0.51583128649E+03  0.51100000000E-03 0. -1.
         22    1    1    2    0    0  0.47517171750E+01 -0.40439528413E+02  0.11945839269E+03  0.12620713870E+03  0.00000000000E+00 0.  1.
          2    1    1    2  501    0 -0.81764913513E+02  0.11507151752E+03  0.35352091996E+03  0.38066257510E+03  0.25500000000E-02 0. -1.
<mgrwt>
<rscale>  0 0.14116287E+03</rscale>
<asrwt>0</asrwt>
<pdfrwt beam="1">  1       11 0.10000000E+01 0.15104367E+03</pdfrwt>
<pdfrwt beam="2">  1        2 0.34743816E-02 0.14116287E+03</pdfrwt>
<totfact> 0.29749350E+03</totfact>
</mgrwt>
</event>
<event>
 5    1  0.2799727E-003  0.1679909E+03  0.7818608E-02  0.1214075E+00
         11   -1    0    0    0    0  0.00000000000E+00  0.00000000000E+00  0.10002247237E+04  0.10002247237E+04  0.51100000000E-03 0. -1.
          2   -1    0    0  501    0 -0.00000000000E+00 -0.00000000000E+00 -0.64909076503E+02  0.64909076553E+02  0.25500000000E-02 0. -1.
         11    1    1    2    0    0 -0.75984272864E+02  0.14329119195E+03  0.43071100041E+03  0.46023683174E+03  0.51100000000E-03 0. -1.
         22    1    1    2    0    0 -0.10164923883E+03 -0.55374624016E+02  0.94574471669E+02  0.14947657820E+03  0.00000000000E+00 0.  1.
          2    1    1    2  501    0  0.17763351169E+03 -0.87916567936E+02  0.41003017508E+03  0.45542039028E+03  0.25500000000E-02 0. -1.
<mgrwt>
<rscale>  0 0.13944736E+03</rscale>
<asrwt>0</asrwt>
<pdfrwt beam="1">  1       11 0.10000000E+01 0.16799091E+03</pdfrwt>
<pdfrwt beam="2">  1        2 0.99882556E-02 0.13944736E+03</pdfrwt>
<totfact> 0.76293362E+02</totfact>
</mgrwt>
</event>
<event>
 5    1  0.2799727E-003  0.1536412E+03  0.7818608E-02  0.1196069E+00
         11   -1    0    0    0    0  0.00000000000E+00  0.00000000000E+00  0.10001058788E+04  0.10001058788E+04  0.51100000000E-03 0. -1.
         -2   -1    0    0    0  501 -0.00000000000E+00 -0.00000000000E+00 -0.16971493700E+03  0.16971493702E+03  0.25500000000E-02 0. -1.
         11    1    1    2    0    0  0.53652406645E+01  0.14390473169E+03  0.86998914622E+03  0.88182678126E+03  0.51100000000E-03 0. -1.
         22    1    1    2    0    0 -0.17785666729E+02  0.96767379610E+01  0.86532450360E+02  0.88869759558E+02  0.00000000000E+00 0.  1.
         -2    1    1    2    0  501  0.12420426064E+02 -0.15358146965E+03 -0.12613065479E+03  0.19912427499E+03  0.25500000000E-02 0. -1.
<mgrwt>
<rscale>  0 0.15364121E+03</rscale>
<asrwt>0</asrwt>
<pdfrwt beam="1">  1       11 0.10000000E+01 0.20247696E+02</pdfrwt>
<pdfrwt beam="2">  1       -2 0.26112754E-01 0.15364121E+03</pdfrwt>
<totfact> 0.10471286E+02</totfact>
</mgrwt>
</event>
<event>
 5    1  0.6998176E-003  0.1804036E+03  0.7818608E-02  0.1169459E+00
         11   -1    0    0    0    0  0.00000000000E+00  0.00000000000E+00  0.10001916675E+04  0.10001916675E+04  0.51100000000E-03 0.  1.
          2   -1    0    0  501    0 -0.00000000000E+00 -0.00000000000E+00 -0.10181888185E+04  0.10181888185E+04  0.25500000000E-02 0. -1.
         11    1    1    2    0    0  0.17876430482E+01 -0.16519003166E+03  0.92756620560E+03  0.94216241063E+03  0.51100000000E-03 0.  1.
         22    1    1    2    0    0  0.63303702364E+01 -0.12924934044E+02  0.56557048411E+02  0.58359465662E+02  0.00000000000E+00 0.  1.
          2    1    1    2  501    0 -0.81180132846E+01  0.17811496571E+03 -0.10021204050E+04  0.10178586097E+04  0.25500000000E-02 0. -1.
<mgrwt>
<rscale>  0 0.17829987E+03</rscale>
<asrwt>0</asrwt>
<pdfrwt beam="1">  1       11 0.10000000E+01 0.18040356E+03</pdfrwt>
<pdfrwt beam="2">  1        2 0.15667445E+00 0.17829987E+03</pdfrwt>
<totfact> 0.32673862E+01</totfact>
</mgrwt>
</event>
<event>
 5    1  0.2799727E-003  0.3536633E+02  0.7818608E-02  0.1571635E+00
         11   -1    0    0    0    0  0.00000000000E+00  0.00000000000E+00  0.10001617628E+04  0.10001617628E+04  0.51100000000E-03 0.  1.
          2   -1    0    0  501    0 -0.00000000000E+00 -0.00000000000E+00 -0.39185763568E+01  0.39185771865E+01  0.25500000000E-02 0.  1.
         11    1    1    2    0    0  0.11300480605E+02  0.29508424453E+00  0.17022529475E+02  0.20434149031E+02  0.51100000000E-03 0.  1.
         22    1    1    2    0    0  0.18575310541E+02 -0.13180936758E+02  0.65513341302E+02  0.69359766033E+02  0.00000000000E+00 0.  1.
          2    1    1    2  501    0 -0.29875791146E+02  0.12885852513E+02  0.91370731566E+03  0.91428642492E+03  0.25500000000E-02 0.  1.
<mgrwt>
<rscale>  0 0.32536258E+02</rscale>
<asrwt>0</asrwt>
<pdfrwt beam="1">  1       11 0.10000000E+01 0.35366329E+02</pdfrwt>
<pdfrwt beam="2">  1        2 0.60295547E-03 0.32536258E+02</pdfrwt>
<totfact> 0.24809510E+04</totfact>
</mgrwt>
</event>
<event>
 5    1  0.2799727E-003  0.1535630E+03  0.7818608E-02  0.1197478E+00
         11   -1    0    0    0    0  0.00000000000E+00  0.00000000000E+00  0.10001509168E+04  0.10001509168E+04  0.51100000000E-03 0.  1.
          2   -1    0    0  501    0 -0.00000000000E+00 -0.00000000000E+00 -0.47016157868E+02  0.47016157937E+02  0.25500000000E-02 0.  1.
         11    1    1    2    0    0  0.12610636163E+02 -0.30404903636E+01  0.55708623334E+02  0.57198981111E+02  0.51100000000E-03 0.  1.
         22    1    1    2    0    0  0.11780403677E+03 -0.75935254726E+02  0.79271458958E+03  0.80500954934E+03  0.00000000000E+00 0.  1.
          2    1    1    2  501    0 -0.13041467293E+03  0.78975745089E+02  0.10471154601E+03  0.18495854428E+03  0.25500000000E-02 0.  1.
<mgrwt>
<rscale>  0 0.15246362E+03</rscale>
<asrwt>0</asrwt>
<pdfrwt beam="1">  1       11 0.10000000E+01 0.15356302E+03</pdfrwt>
<pdfrwt beam="2">  1        2 0.72343465E-02 0.15246362E+03</pdfrwt>
<totfact> 0.11481223E+03</totfact>
</mgrwt>
</event>
<event>
 5    1  0.2799727E-003  0.2470811E+03  0.7818608E-02  0.1117415E+00
         11   -1    0    0    0    0  0.00000000000E+00  0.00000000000E+00  0.10000445533E+04  0.10000445533E+04  0.51100000000E-03 0.  1.
          2   -1    0    0  501    0 -0.00000000000E+00 -0.00000000000E+00 -0.13156565764E+03  0.13156565767E+03  0.25500000000E-02 0.  1.
         11    1    1    2    0    0  0.21319275270E+03 -0.33226936577E+02  0.77975987242E+03  0.80906157847E+03  0.51100000000E-03 0.  1.
         22    1    1    2    0    0  0.28907352301E+02  0.61964666165E+01  0.72626505901E+02  0.78413267850E+02  0.00000000000E+00 0. -1.
          2    1    1    2  501    0 -0.24210010500E+03  0.27030469961E+02  0.16092517324E+02  0.24413536464E+03  0.25500000000E-02 0.  1.
<mgrwt>
<rscale>  0 0.24360441E+03</rscale>
<asrwt>0</asrwt>
<pdfrwt beam="1">  1       11 0.10000000E+01 0.24708109E+03</pdfrwt>
<pdfrwt beam="2">  1        2 0.20241772E-01 0.24360441E+03</pdfrwt>
<totfact> 0.33721616E+02</totfact>
</mgrwt>
</event>
<event>
 5    1  0.2799727E-003  0.1775634E+03  0.7818608E-02  0.1175045E+00
         11   -1    0    0    0    0  0.00000000000E+00  0.00000000000E+00  0.10000864826E+04  0.10000864826E+04  0.51100000000E-03 0. -1.
          2   -1    0    0  501    0 -0.00000000000E+00 -0.00000000000E+00 -0.40708778210E+02  0.40708778289E+02  0.25500000000E-02 0. -1.
         11    1    1    2    0    0  0.11010258419E+03  0.10903777232E+03  0.17745402333E+03  0.23558808381E+03  0.51100000000E-03 0. -1.
         22    1    1    2    0    0  0.14798081433E+02  0.10253620440E+02  0.48846984710E+02  0.52059080491E+02  0.00000000000E+00 0.  1.
          2    1    1    2  501    0 -0.12490066562E+03 -0.11929139276E+03  0.73307669639E+03  0.75314809663E+03  0.25500000000E-02 0. -1.
<mgrwt>
<rscale>  0 0.17271541E+03</rscale>
<asrwt>0</asrwt>
<pdfrwt beam="1">  1       11 0.10000000E+01 0.17756335E+03</pdfrwt>
<pdfrwt beam="2">  1        2 0.62634304E-02 0.17271541E+03</pdfrwt>
<totfact> 0.13927799E+03</totfact>
</mgrwt>
</event>
<event>
 5    1  0.2799727E-003  0.2929764E+02  0.7818608E-02  0.1605985E+00
         11   -1    0    0    0    0  0.00000000000E+00  0.00000000000E+00  0.99994970367E+03  0.99994970367E+03  0.51100000000E-03 0. -1.
          2   -1    0    0  501    0 -0.00000000000E+00 -0.00000000000E+00 -0.85154616500E+01  0.85154620318E+01  0.25500000000E-02 0. -1.
         11    1    1    2    0    0  0.78825434098E+01 -0.76123138548E+01 -0.10524814933E+01  0.11008611647E+02  0.51100000000E-03 0. -1.
         22    1    1    2    0    0  0.17730280450E+02  0.23460822989E+02  0.94611372029E+02  0.99076156452E+02  0.00000000000E+00 0. -1.
          2    1    1    2  501    0 -0.25612823860E+02 -0.15848509134E+02  0.89787535148E+03  0.89838039760E+03  0.25500000000E-02 0. -1.
<mgrwt>
<rscale>  0 0.29297637E+02</rscale>
<asrwt>0</asrwt>
<pdfrwt beam="1">  1       11 0.10000000E+01 0.10958190E+02</pdfrwt>
<pdfrwt beam="2">  1        2 0.13100051E-02 0.29297637E+02</pdfrwt>
<totfact> 0.87081515E+03</totfact>
</mgrwt>
</event>
<event>
 5    1  0.2799727E-003  0.2931901E+02  0.7818608E-02  0.1605740E+00
         11   -1    0    0    0    0  0.00000000000E+00  0.00000000000E+00  0.10001249903E+04  0.10001249903E+04  0.51100000000E-03 0.  1.
          2   -1    0    0  501    0 -0.00000000000E+00 -0.00000000000E+00 -0.33927409852E+01  0.33927419435E+01  0.25500000000E-02 0.  1.
         11    1    1    2    0    0  0.32316094568E+01  0.10824824198E+02  0.42078835532E+02  0.43568893934E+02  0.51100000000E-03 0.  1.
         22    1    1    2    0    0  0.28934482116E+02  0.11097390483E+01  0.88506555921E+02  0.93122748118E+02  0.00000000000E+00 0.  1.
          2    1    1    2  501    0 -0.32166091573E+02 -0.11934563246E+02  0.86614685786E+03  0.86682609019E+03  0.25500000000E-02 0.  1.
<mgrwt>
<rscale>  0 0.29319008E+02</rscale>
<asrwt>0</asrwt>
<pdfrwt beam="1">  1       11 0.10000000E+01 0.11296913E+02</pdfrwt>
<pdfrwt beam="2">  1        2 0.52202545E-03 0.29319008E+02</pdfrwt>
<totfact> 0.29305246E+04</totfact>
</mgrwt>
</event>
<event>
 5    1  0.2799727E-003  0.7060769E+02  0.7818608E-02  0.1365885E+00
         11   -1    0    0    0    0  0.00000000000E+00  0.00000000000E+00  0.99994608691E+03  0.99994608691E+03  0.51100000000E-03 0.  1.
         -2   -1    0    0    0  501 -0.00000000000E+00 -0.00000000000E+00 -0.61996716208E+01  0.61996721452E+01  0.25500000000E-02 0. -1.
         11    1    1    2    0    0  0.11693724652E+02  0.44150358810E+02  0.14719408000E+03  0.15411714560E+03  0.51100000000E-03 0.  1.
         22    1    1    2    0    0  0.12626574118E+02  0.19699282409E+02  0.11923959151E+03  0.12151367118E+03  0.00000000000E+00 0.  1.
         -2    1    1    2    0  501 -0.24320298770E+02 -0.63849641219E+02  0.72731274378E+03  0.73051494227E+03  0.25500000000E-02 0. -1.
<mgrwt>
<rscale>  0 0.68324619E+02</rscale>
<asrwt>0</asrwt>
<pdfrwt beam="1">  1       11 0.10000000E+01 0.70607690E+02</pdfrwt>
<pdfrwt beam="2">  1       -2 0.95374423E-03 0.68324619E+02</pdfrwt>
<totfact> 0.14817735E+04</totfact>
</mgrwt>
</event>
<event>
 5    1  0.2799727E-003  0.9135371E+02  0.7818608E-02  0.1672699E+00
         11   -1    0    0    0    0  0.00000000000E+00  0.00000000000E+00  0.10002030455E+04  0.10002030455E+04  0.51100000000E-03 0. -1.
          2   -1    0    0  501    0 -0.00000000000E+00 -0.00000000000E+00 -0.12219917675E+02  0.12219917941E+02  0.25500000000E-02 0. -1.
         11    1    1    2    0    0  0.80137743511E+02  0.76280315263E+01  0.35331565306E+03  0.36237024643E+03  0.51100000000E-03 0. -1.
         22    1    1    2    0    0 -0.99761100178E+02 -0.21797610298E+02  0.59410991986E+03  0.60282170648E+03  0.00000000000E+00 0. -1.
          2    1    1    2  501    0  0.19623356667E+02  0.14169578772E+02  0.40557554888E+02  0.47231010517E+02  0.25500000000E-02 0. -1.
<mgrwt>
<rscale>  0 0.24204402E+02</rscale>
<asrwt>0</asrwt>
<pdfrwt beam="1">  1       11 0.10000000E+01 0.91353713E+02</pdfrwt>
<pdfrwt beam="2">  1        2 0.18803690E-02 0.24204402E+02</pdfrwt>
<totfact> 0.52515561E+03</totfact>
</mgrwt>
</event>
<event>
 5    1  0.2799727E-003  0.1268995E+03  0.7818608E-02  0.1232130E+00
         11   -1    0    0    0    0  0.00000000000E+00  0.00000000000E+00  0.10004624000E+04  0.10004624000E+04  0.51100000000E-03 0. -1.
         -2   -1    0    0    0  501 -0.00000000000E+00 -0.00000000000E+00 -0.21217991066E+02  0.21217991219E+02  0.25500000000E-02 0.  1.
         11    1    1    2    0    0 -0.84686839463E+02 -0.81148494399E+02  0.39830110592E+03  0.41521164470E+03  0.51100000000E-03 0. -1.
         22    1    1    2    0    0 -0.29970088299E+02  0.49926269073E+01  0.18025839126E+03  0.18280103976E+03  0.00000000000E+00 0.  1.
         -2    1    1    2    0  501  0.11465692776E+03  0.76155867492E+02  0.40068491179E+03  0.42366770680E+03  0.25500000000E-02 0.  1.
<mgrwt>
<rscale>  0 0.12689952E+03</rscale>
<asrwt>0</asrwt>
<pdfrwt beam="1">  1       11 0.10000000E+01 0.30383096E+02</pdfrwt>
<pdfrwt beam="2">  1       -2 0.32658157E-02 0.12689952E+03</pdfrwt>
<totfact> 0.27636183E+03</totfact>
</mgrwt>
</event>
<event>
 5    1  0.2799727E-003  0.2999580E+02  0.7818608E-02  0.1620149E+00
         11   -1    0    0    0    0  0.00000000000E+00  0.00000000000E+00  0.99973970017E+03  0.99973970017E+03  0.51100000000E-03 0. -1.
          2   -1    0    0  501    0 -0.00000000000E+00 -0.00000000000E+00 -0.46037159237E+01  0.46037166299E+01  0.25500000000E-02 0. -1.
         11    1    1    2    0    0  0.52448760651E+01  0.30760261271E+02  0.11418219690E+03  0.11836923792E+03  0.51100000000E-03 0. -1.
         22    1    1    2    0    0 -0.25400818302E+02 -0.68771595963E+01  0.76240251851E+02  0.80654032117E+02  0.00000000000E+00 0. -1.
          2    1    1    2  501    0  0.20155942237E+02 -0.23883101674E+02  0.80471353550E+03  0.80532014676E+03  0.25500000000E-02 0. -1.
<mgrwt>
<rscale>  0 0.28095359E+02</rscale>
<asrwt>0</asrwt>
<pdfrwt beam="1">  1       11 0.10000000E+01 0.29995802E+02</pdfrwt>
<pdfrwt beam="2">  1        2 0.70807966E-03 0.28095359E+02</pdfrwt>
<totfact> 0.19382198E+04</totfact>
</mgrwt>
</event>
<event>
 5    1  0.2799727E-003  0.1562418E+03  0.7818608E-02  0.1195015E+00
         11   -1    0    0    0    0  0.00000000000E+00  0.00000000000E+00  0.10001746398E+04  0.10001746398E+04  0.51100000000E-03 0. -1.
         -2   -1    0    0    0  501 -0.00000000000E+00 -0.00000000000E+00 -0.90206577809E+02  0.90206577845E+02  0.25500000000E-02 0.  1.
         11    1    1    2    0    0 -0.13558943088E+02 -0.15952513366E+01  0.81603602137E+02  0.82737764331E+02  0.51100000000E-03 0. -1.
         22    1    1    2    0    0 -0.13067286363E+03  0.57061346230E+02  0.84062150140E+03  0.85262881909E+03  0.00000000000E+00 0. -1.
         -2    1    1    2    0  501  0.14423180672E+03 -0.55466094894E+02 -0.12257041538E+02  0.15501463423E+03  0.25500000000E-02 0.  1.
<mgrwt>
<rscale>  0 0.15452929E+03</rscale>
<asrwt>0</asrwt>
<pdfrwt beam="1">  1       11 0.10000000E+01 0.15624181E+03</pdfrwt>
<pdfrwt beam="2">  1       -2 0.13880358E-01 0.15452929E+03</pdfrwt>
<totfact> 0.30446114E+02</totfact>
</mgrwt>
</event>
<event>
 5    1  0.2799727E-003  0.8767171E+02  0.7818608E-02  0.1379487E+00
         11   -1    0    0    0    0  0.00000000000E+00  0.00000000000E+00  0.10003187324E+04  0.10003187324E+04  0.51100000000E-03 0. -1.
          2   -1    0    0  501    0 -0.00000000000E+00 -0.00000000000E+00 -0.16273440693E+02  0.16273440893E+02  0.25500000000E-02 0. -1.
         11    1    1    2    0    0  0.80653292309E+01  0.10771843399E+03  0.58291293762E+03  0.59283707998E+03  0.51100000000E-03 0. -1.
         22    1    1    2    0    0 -0.45979177437E+02 -0.55415946783E+02  0.21179233781E+03  0.22369847176E+03  0.00000000000E+00 0. -1.
          2    1    1    2  501    0  0.37913848206E+02 -0.52302487210E+02  0.18934001632E+03  0.20005662159E+03  0.25500000000E-02 0. -1.
<mgrwt>
<rscale>  0 0.64598839E+02</rscale>
<asrwt>0</asrwt>
<pdfrwt beam="1">  1       11 0.10000000E+01 0.87671708E+02</pdfrwt>
<pdfrwt beam="2">  1        2 0.25044042E-02 0.64598839E+02</pdfrwt>
<totfact> 0.42130204E+03</totfact>
</mgrwt>
</event>
<event>
 5    1  0.2799727E-003  0.1079075E+03  0.7818608E-02  0.1440702E+00
         11   -1    0    0    0    0  0.00000000000E+00  0.00000000000E+00  0.10000277716E+04  0.10000277716E+04  0.51100000000E-03 0. -1.
          2   -1    0    0  501    0 -0.00000000000E+00 -0.00000000000E+00 -0.24700261962E+02  0.24700262093E+02  0.25500000000E-02 0. -1.
         11    1    1    2    0    0  0.21384881080E+02 -0.91159834073E+02  0.24619175030E+03  0.26339667121E+03  0.51100000000E-03 0. -1.
         22    1    1    2    0    0  0.21898809547E+02  0.11788664683E+03  0.68039583154E+03  0.69088009592E+03  0.00000000000E+00 0. -1.
          2    1    1    2  501    0 -0.43283690627E+02 -0.26726812761E+02  0.48739927846E+02  0.70451266615E+02  0.25500000000E-02 0. -1.
<mgrwt>
<rscale>  0 0.50870428E+02</rscale>
<asrwt>0</asrwt>
<pdfrwt beam="1">  1       11 0.10000000E+01 0.10790754E+03</pdfrwt>
<pdfrwt beam="2">  1        2 0.38001457E-02 0.50870428E+02</pdfrwt>
<totfact> 0.23726445E+03</totfact>
</mgrwt>
</event>
<event>
 5    1  0.2799727E-003  0.6567475E+02  0.7818608E-02  0.1591330E+00
         11   -1    0    0    0    0  0.00000000000E+00  0.00000000000E+00  0.10002287952E+04  0.10002287952E+04  0.51100000000E-03 0. -1.
          2   -1    0    0  501    0 -0.00000000000E+00 -0.00000000000E+00 -0.55305234237E+01  0.55305240116E+01  0.25500000000E-02 0. -1.
         11    1    1    2    0    0  0.57513307179E+02 -0.30175667910E+02  0.37391122605E+03  0.37951015323E+03  0.51100000000E-03 0. -1.
         22    1    1    2    0    0  0.69391215874E+01  0.12476783123E+02  0.71570381985E+02  0.72980415887E+02  0.00000000000E+00 0. -1.
          2    1    1    2  501    0 -0.64452428767E+02  0.17698884787E+02  0.54921666373E+03  0.55326875008E+03  0.25500000000E-02 0. -1.
<mgrwt>
<rscale>  0 0.30620453E+02</rscale>
<asrwt>0</asrwt>
<pdfrwt beam="1">  1       11 0.10000000E+01 0.65674747E+02</pdfrwt>
<pdfrwt beam="2">  1        2 0.85104445E-03 0.30620453E+02</pdfrwt>
<totfact> 0.15499443E+04</totfact>
</mgrwt>
</event>
<event>
 5    1  0.2799727E-003  0.2180333E+03  0.7818608E-02  0.1146495E+00
         11   -1    0    0    0    0  0.00000000000E+00  0.00000000000E+00  0.10002447884E+04  0.10002447884E+04  0.51100000000E-03 0.  1.
          2   -1    0    0  501    0 -0.00000000000E+00 -0.00000000000E+00 -0.44923224920E+02  0.44923224993E+02  0.25500000000E-02 0.  1.
         11    1    1    2    0    0 -0.58923603616E+02  0.15117988467E+03  0.49510761959E+03  0.52101718164E+03  0.51100000000E-03 0.  1.
         22    1    1    2    0    0 -0.35831208772E+01  0.42896618445E+02  0.49413640778E+02  0.65533705252E+02  0.00000000000E+00 0.  1.
          2    1    1    2  501    0  0.62506724493E+02 -0.19407650311E+03  0.41080030307E+03  0.45861712645E+03  0.25500000000E-02 0.  1.
<mgrwt>
<rscale>  0 0.20389404E+03</rscale>
<asrwt>0</asrwt>
<pdfrwt beam="1">  1       11 0.10000000E+01 0.21803335E+03</pdfrwt>
<pdfrwt beam="2">  1        2 0.69129570E-02 0.20389404E+03</pdfrwt>
<totfact> 0.12399677E+03</totfact>
</mgrwt>
</event>
<event>
 5    1  0.2799727E-003  0.7304479E+02  0.7818608E-02  0.1350035E+00
         11   -1    0    0    0    0  0.00000000000E+00  0.00000000000E+00  0.10002266363E+04  0.10002266363E+04  0.51100000000E-03 0. -1.
         -2   -1    0    0    0  501 -0.00000000000E+00 -0.00000000000E+00 -0.15014397245E+02  0.15014397461E+02  0.25500000000E-02 0.  1.
         11    1    1    2    0    0 -0.70325565900E+01  0.35773068945E+02  0.16865771723E+03  0.17255316542E+03  0.51100000000E-03 0. -1.
         22    1    1    2    0    0 -0.55275371169E+02  0.41171593567E+02  0.11418418051E+03  0.13337351256E+03  0.00000000000E+00 0. -1.
         -2    1    1    2    0  501  0.62307927759E+02 -0.76944662513E+02  0.70237034131E+03  0.70931435578E+03  0.25500000000E-02 0.  1.
<mgrwt>
<rscale>  0 0.73044792E+02</rscale>
<asrwt>0</asrwt>
<pdfrwt beam="1">  1       11 0.10000000E+01 0.36457774E+02</pdfrwt>
<pdfrwt beam="2">  1       -2 0.23104307E-02 0.73044792E+02</pdfrwt>
<totfact> 0.42753775E+03</totfact>
</mgrwt>
</event>
<event>
 5    1  0.2799727E-003  0.2436608E+02  0.7818608E-02  0.1681465E+00
         11   -1    0    0    0    0  0.00000000000E+00  0.00000000000E+00  0.99996984800E+03  0.99996984800E+03  0.51100000000E-03 0.  1.
          2   -1    0    0  501    0 -0.00000000000E+00 -0.00000000000E+00 -0.13650343361E+01  0.13650367179E+01  0.25500000000E-02 0.  1.
         11    1    1    2    0    0 -0.43368188252E+01  0.13106560243E+02  0.69139200319E+02  0.70504034920E+02  0.51100000000E-03 0.  1.
         22    1    1    2    0    0 -0.76940585185E+01  0.72338376593E+01  0.52747436737E+02  0.53794228558E+02  0.00000000000E+00 0.  1.
          2    1    1    2  501    0  0.12030877344E+02 -0.20340397903E+02  0.87671817661E+03  0.87703662124E+03  0.25500000000E-02 0.  1.
<mgrwt>
<rscale>  0 0.23632050E+02</rscale>
<asrwt>0</asrwt>
<pdfrwt beam="1">  1       11 0.10000000E+01 0.24366083E+02</pdfrwt>
<pdfrwt beam="2">  1        2 0.20999913E-03 0.23632050E+02</pdfrwt>
<totfact> 0.91959865E+04</totfact>
</mgrwt>
</event>
<event>
 5    1  0.2799727E-003  0.1812913E+03  0.7818608E-02  0.1166559E+00
         11   -1    0    0    0    0  0.00000000000E+00  0.00000000000E+00  0.99990361973E+03  0.99990361973E+03  0.51100000000E-03 0.  1.
         -2   -1    0    0    0  501 -0.00000000000E+00 -0.00000000000E+00 -0.52497493387E+02  0.52497493449E+02  0.25500000000E-02 0. -1.
         11    1    1    2    0    0 -0.15970056641E+02  0.36408672971E+02  0.11004501886E+03  0.11700658252E+03  0.51100000000E-03 0.  1.
         22    1    1    2    0    0 -0.16193099835E+03  0.24516910019E+02  0.64857846944E+03  0.66893703599E+03  0.00000000000E+00 0.  1.
         -2    1    1    2    0  501  0.17790105499E+03 -0.60925582990E+02  0.18878263805E+03  0.26645749467E+03  0.25500000000E-02 0. -1.
<mgrwt>
<rscale>  0 0.18129126E+03</rscale>
<asrwt>0</asrwt>
<pdfrwt beam="1">  1       11 0.10000000E+01 0.39757190E+02</pdfrwt>
<pdfrwt beam="2">  1       -2 0.80757588E-02 0.18129126E+03</pdfrwt>
<totfact> 0.72590380E+02</totfact>
</mgrwt>
</event>
<event>
 5    1  0.2799727E-003  0.1723008E+03  0.7818608E-02  0.1263193E+00
         11   -1    0    0    0    0  0.00000000000E+00  0.00000000000E+00  0.10003705922E+04  0.10003705922E+04  0.51100000000E-03 0.  1.
          2   -1    0    0  501    0 -0.00000000000E+00 -0.00000000000E+00 -0.86296460969E+02  0.86296461007E+02  0.25500000000E-02 0.  1.
         11    1    1    2    0    0 -0.23239123636E+02 -0.11276643109E+03  0.11520401914E+03  0.16287507751E+03  0.51100000000E-03 0.  1.
         22    1    1    2    0    0 -0.33704397503E+02  0.20523468784E+03  0.78761704789E+03  0.81461517150E+03  0.00000000000E+00 0.  1.
          2    1    1    2  501    0  0.56943521140E+02 -0.92468256751E+02  0.11253064160E+02  0.10917680416E+03  0.25500000000E-02 0.  1.
<mgrwt>
<rscale>  0 0.10859532E+03</rscale>
<asrwt>0</asrwt>
<pdfrwt beam="1">  1       11 0.10000000E+01 0.17230084E+03</pdfrwt>
<pdfrwt beam="2">  1        2 0.13281298E-01 0.10859532E+03</pdfrwt>
<totfact> 0.53422635E+02</totfact>
</mgrwt>
</event>
<event>
 5    1  0.2799727E-003  0.1477709E+03  0.7818608E-02  0.1477911E+00
         11   -1    0    0    0    0  0.00000000000E+00  0.00000000000E+00  0.10001666796E+04  0.10001666796E+04  0.51100000000E-03 0.  1.
         -2   -1    0    0    0  501 -0.00000000000E+00 -0.00000000000E+00 -0.19095331113E+03  0.19095331114E+03  0.25500000000E-02 0.  1.
         11    1    1    2    0    0  0.47046625115E+02  0.13767762245E+03  0.34358505930E+03  0.37312089948E+03  0.51100000000E-03 0.  1.
         22    1    1    2    0    0 -0.88920497577E+02 -0.12281523261E+03  0.62986483667E+03  0.64785812392E+03  0.00000000000E+00 0.  1.
         -2    1    1    2    0  501  0.41873872462E+02 -0.14862389841E+02 -0.16423652745E+03  0.17014096739E+03  0.25500000000E-02 0.  1.
<mgrwt>
<rscale>  0 0.44433229E+02</rscale>
<asrwt>0</asrwt>
<pdfrwt beam="1">  1       11 0.10000000E+01 0.14777089E+03</pdfrwt>
<pdfrwt beam="2">  1       -2 0.29382328E-01 0.44433229E+02</pdfrwt>
<totfact> 0.82285036E+01</totfact>
</mgrwt>
</event>
<event>
 5    1  0.2799727E-003  0.1135862E+03  0.7818608E-02  0.1254069E+00
         11   -1    0    0    0    0  0.00000000000E+00  0.00000000000E+00  0.10000966861E+04  0.10000966861E+04  0.51100000000E-03 0. -1.
          2   -1    0    0  501    0 -0.00000000000E+00 -0.00000000000E+00 -0.15895297144E+02  0.15895297349E+02  0.25500000000E-02 0. -1.
         11    1    1    2    0    0  0.10491209711E+03  0.27607315798E+02  0.39454224461E+03  0.40918491515E+03  0.51100000000E-03 0. -1.
         22    1    1    2    0    0  0.15146296087E+02 -0.16212783043E+02  0.11041331788E+03  0.11262044834E+03  0.00000000000E+00 0.  1.
          2    1    1    2  501    0 -0.12005839319E+03 -0.11394532756E+02  0.47924582644E+03  0.49418661994E+03  0.25500000000E-02 0. -1.
<mgrwt>
<rscale>  0 0.11358625E+03</rscale>
<asrwt>0</asrwt>
<pdfrwt beam="1">  1       11 0.10000000E+01 0.22187037E+02</pdfrwt>
<pdfrwt beam="2">  1        2 0.24456667E-02 0.11358625E+03</pdfrwt>
<totfact> 0.46595635E+03</totfact>
</mgrwt>
</event>
<event>
 5    1  0.2799727E-003  0.9801502E+02  0.7818608E-02  0.1287089E+00
         11   -1    0    0    0    0  0.00000000000E+00  0.00000000000E+00  0.10000973826E+04  0.10000973826E+04  0.51100000000E-03 0. -1.
         -2   -1    0    0    0  501 -0.00000000000E+00 -0.00000000000E+00 -0.95683532344E+01  0.95683535742E+01  0.25500000000E-02 0. -1.
         11    1    1    2    0    0 -0.26132795767E+02 -0.78590501768E+02  0.48989376302E+03  0.49684533714E+03  0.51100000000E-03 0. -1.
         22    1    1    2    0    0 -0.30805550044E+01 -0.13736322129E+02  0.53717947628E+02  0.55531921110E+02  0.00000000000E+00 0. -1.
         -2    1    1    2    0  501  0.29213350772E+02  0.92326823897E+02  0.44691731870E+03  0.45728847791E+03  0.25500000000E-02 0. -1.
<mgrwt>
<rscale>  0 0.96838331E+02</rscale>
<asrwt>0</asrwt>
<pdfrwt beam="1">  1       11 0.10000000E+01 0.98015017E+02</pdfrwt>
<pdfrwt beam="2">  1       -2 0.14721977E-02 0.96838331E+02</pdfrwt>
<totfact> 0.84739711E+03</totfact>
</mgrwt>
</event>
<event>
 5    1  0.2799727E-003  0.1986470E+03  0.7818608E-02  0.1161833E+00
         11   -1    0    0    0    0  0.00000000000E+00  0.00000000000E+00  0.10000366423E+04  0.10000366423E+04  0.51100000000E-03 0.  1.
         -2   -1    0    0    0  501 -0.00000000000E+00 -0.00000000000E+00 -0.46134174628E+02  0.46134174698E+02  0.25500000000E-02 0. -1.
         11    1    1    2    0    0  0.87677436739E+01 -0.10679386675E+03  0.48312121191E+03  0.49486150457E+03  0.51100000000E-03 0.  1.
         22    1    1    2    0    0 -0.38440029288E+02 -0.77137393808E+02  0.23816961924E+03  0.25328359778E+03  0.00000000000E+00 0. -1.
         -2    1    1    2    0  501  0.29672285614E+02  0.18393126056E+03  0.23261163656E+03  0.29802571469E+03  0.25500000000E-02 0. -1.
<mgrwt>
<rscale>  0 0.18630929E+03</rscale>
<asrwt>0</asrwt>
<pdfrwt beam="1">  1       11 0.10000000E+01 0.19864700E+03</pdfrwt>
<pdfrwt beam="2">  1       -2 0.70978252E-02 0.18630929E+03</pdfrwt>
<totfact> 0.88827184E+02</totfact>
</mgrwt>
</event>
<event>
 5    1  0.2799727E-003  0.9901543E+02  0.7818608E-02  0.1287544E+00
         11   -1    0    0    0    0  0.00000000000E+00  0.00000000000E+00  0.10001922567E+04  0.10001922567E+04  0.51100000000E-03 0. -1.
         -2   -1    0    0    0  501 -0.00000000000E+00 -0.00000000000E+00 -0.10383758436E+02  0.10383758749E+02  0.25500000000E-02 0. -1.
         11    1    1    2    0    0 -0.64462448123E+02 -0.19768774991E+02  0.23509553370E+03  0.24457334615E+03  0.51100000000E-03 0. -1.
         22    1    1    2    0    0 -0.22880019819E+02 -0.21569265167E+02  0.12371000596E+03  0.12764362139E+03  0.00000000000E+00 0. -1.
         -2    1    1    2    0  501  0.87342467942E+02  0.41338040158E+02  0.63100295858E+03  0.63835904788E+03  0.25500000000E-02 0. -1.
<mgrwt>
<rscale>  0 0.96630949E+02</rscale>
<asrwt>0</asrwt>
<pdfrwt beam="1">  1       11 0.10000000E+01 0.99015431E+02</pdfrwt>
<pdfrwt beam="2">  1       -2 0.15978084E-02 0.96630949E+02</pdfrwt>
<totfact> 0.75355573E+03</totfact>
</mgrwt>
</event>
<event>
 5    1  0.2799727E-003  0.1366278E+03  0.7818608E-02  0.1219765E+00
         11   -1    0    0    0    0  0.00000000000E+00  0.00000000000E+00  0.10004488817E+04  0.10004488817E+04  0.51100000000E-03 0. -1.
          2   -1    0    0  501    0 -0.00000000000E+00 -0.00000000000E+00 -0.21740308652E+02  0.21740308802E+02  0.25500000000E-02 0. -1.
         11    1    1    2    0    0  0.71734588201E+01  0.78273487978E+01  0.33392869567E+02  0.35040114709E+02  0.51100000000E-03 0. -1.
         22    1    1    2    0    0  0.72587620201E+02  0.10149069002E+03  0.65584925660E+03  0.66761333880E+03  0.00000000000E+00 0. -1.
          2    1    1    2  501    0 -0.79761079021E+02 -0.10931803881E+03  0.28946644688E+03  0.31953573699E+03  0.25500000000E-02 0. -1.
<mgrwt>
<rscale>  0 0.13532281E+03</rscale>
<asrwt>0</asrwt>
<pdfrwt beam="1">  1       11 0.10000000E+01 0.13662784E+03</pdfrwt>
<pdfrwt beam="2">  1        2 0.33461641E-02 0.13532281E+03</pdfrwt>
<totfact> 0.31156367E+03</totfact>
</mgrwt>
</event>
<event>
 5    1  0.3043000E-003  0.1939347E+03  0.7818608E-02  0.1158309E+00
         11   -1    0    0    0    0  0.00000000000E+00  0.00000000000E+00  0.99959123685E+03  0.99959123685E+03  0.51100000000E-03 0. -1.
          2   -1    0    0  501    0 -0.00000000000E+00 -0.00000000000E+00 -0.39479653892E+03  0.39479653893E+03  0.25500000000E-02 0. -1.
         11    1    1    2    0    0  0.10730698580E+03  0.14506263432E+03  0.92597169447E+03  0.94338832727E+03  0.51100000000E-03 0. -1.
         22    1    1    2    0    0 -0.62204083339E+00  0.12362613623E+02  0.40513442919E+02  0.42362249793E+02  0.00000000000E+00 0.  1.
          2    1    1    2  501    0 -0.10668494497E+03 -0.15742524795E+03 -0.36169043946E+03  0.40863719872E+03  0.25500000000E-02 0. -1.
<mgrwt>
<rscale>  0 0.19016936E+03</rscale>
<asrwt>0</asrwt>
<pdfrwt beam="1">  1       11 0.10000000E+01 0.19393473E+03</pdfrwt>
<pdfrwt beam="2">  1        2 0.60713100E-01 0.19016936E+03</pdfrwt>
<totfact> 0.10101157E+02</totfact>
</mgrwt>
</event>
<event>
 5    1  0.2799727E-003  0.1767965E+03  0.7818608E-02  0.1289633E+00
         11   -1    0    0    0    0  0.00000000000E+00  0.00000000000E+00  0.10002330112E+04  0.10002330112E+04  0.51100000000E-03 0.  1.
          2   -1    0    0  501    0 -0.00000000000E+00 -0.00000000000E+00 -0.29347575671E+03  0.29347575672E+03  0.25500000000E-02 0.  1.
         11    1    1    2    0    0 -0.11544446623E+03 -0.14260039428E+03  0.90760332071E+03  0.92596224815E+03  0.51100000000E-03 0.  1.
         22    1    1    2    0    0  0.19756041914E+02  0.14254414491E+03  0.15013754323E+01  0.14391451826E+03  0.00000000000E+00 0.  1.
          2    1    1    2  501    0  0.95688424321E+02  0.56249378153E-01 -0.20234744170E+03  0.22383200147E+03  0.25500000000E-02 0.  1.
<mgrwt>
<rscale>  0 0.95688441E+02</rscale>
<asrwt>0</asrwt>
<pdfrwt beam="1">  1       11 0.10000000E+01 0.17679649E+03</pdfrwt>
<pdfrwt beam="2">  1        2 0.45160636E-01 0.95688441E+02</pdfrwt>
<totfact> 0.13827687E+02</totfact>
</mgrwt>
</event>
<event>
 5    1  0.2799727E-003  0.7125916E+03  0.7818608E-02  0.9716225E-01
         11   -1    0    0    0    0  0.00000000000E+00  0.00000000000E+00  0.10011805565E+04  0.10011805565E+04  0.51100000000E-03 0. -1.
          2   -1    0    0  501    0 -0.00000000000E+00 -0.00000000000E+00 -0.20847204389E+04  0.20847204389E+04  0.25500000000E-02 0. -1.
         11    1    1    2    0    0 -0.55138030814E+03 -0.37684603154E+03  0.70902575706E+03  0.97403834620E+03  0.51100000000E-03 0. -1.
         22    1    1    2    0    0 -0.28905670380E+02 -0.15701346604E+02  0.93905967115E+02  0.99500757410E+02  0.00000000000E+00 0.  1.
          2    1    1    2  501    0  0.58028597852E+03  0.39254737815E+03 -0.18864716066E+04  0.20123618918E+04  0.25500000000E-02 0. -1.
<mgrwt>
<rscale>  0 0.70058922E+03</rscale>
<asrwt>0</asrwt>
<pdfrwt beam="1">  1       11 0.10000000E+01 0.71259165E+03</pdfrwt>
<pdfrwt beam="2">  1        2 0.32110485E+00 0.70058922E+03</pdfrwt>
<totfact> 0.76368079E+00</totfact>
</mgrwt>
</event>
<event>
 5    1  0.2799727E-003  0.1296668E+03  0.7818608E-02  0.1237718E+00
         11   -1    0    0    0    0  0.00000000000E+00  0.00000000000E+00  0.10003033318E+04  0.10003033318E+04  0.51100000000E-03 0.  1.
         -2   -1    0    0    0  501 -0.00000000000E+00 -0.00000000000E+00 -0.19709562101E+02  0.19709562266E+02  0.25500000000E-02 0.  1.
         11    1    1    2    0    0 -0.41651577165E+02 -0.95030136265E+02  0.24324649835E+03  0.26445120465E+03  0.51100000000E-03 0.  1.
         22    1    1    2    0    0 -0.21744622782E+02 -0.10747326553E+02  0.35705802798E+02  0.43165240662E+02  0.00000000000E+00 0. -1.
         -2    1    1    2    0  501  0.63396199947E+02  0.10577746282E+03  0.70164146856E+03  0.71239644877E+03  0.25500000000E-02 0.  1.
<mgrwt>
<rscale>  0 0.12332052E+03</rscale>
<asrwt>0</asrwt>
<pdfrwt beam="1">  1       11 0.10000000E+01 0.12966685E+03</pdfrwt>
<pdfrwt beam="2">  1       -2 0.30331600E-02 0.12332052E+03</pdfrwt>
<totfact> 0.30711270E+03</totfact>
</mgrwt>
</event>
<event>
 5    1  0.3392716E-003  0.1915634E+03  0.7818608E-02  0.1158680E+00
         11   -1    0    0    0    0  0.00000000000E+00  0.00000000000E+00  0.99985485976E+03  0.99985485976E+03  0.51100000000E-03 0.  1.
          2   -1    0    0  501    0 -0.00000000000E+00 -0.00000000000E+00 -0.47071784312E+03  0.47071784313E+03  0.25500000000E-02 0.  1.
         11    1    1    2    0    0 -0.16859273002E+03 -0.60064614067E+02  0.93988451391E+03  0.95677278701E+03  0.51100000000E-03 0.  1.
         22    1    1    2    0    0 -0.98630762222E+01 -0.44448984291E+01  0.31100402436E+02  0.32928292186E+02  0.00000000000E+00 0. -1.
          2    1    1    2  501    0  0.17845580625E+03  0.64509512496E+02 -0.44184789971E+03  0.48087162369E+03  0.25500000000E-02 0.  1.
<mgrwt>
<rscale>  0 0.18975761E+03</rscale>
<asrwt>0</asrwt>
<pdfrwt beam="1">  1       11 0.10000000E+01 0.19156335E+03</pdfrwt>
<pdfrwt beam="2">  1        2 0.72407617E-01 0.18975761E+03</pdfrwt>
<totfact> 0.83370546E+01</totfact>
</mgrwt>
</event>
<event>
 5    1  0.2799727E-003  0.2444623E+03  0.7818608E-02  0.1119492E+00
         11   -1    0    0    0    0  0.00000000000E+00  0.00000000000E+00  0.10000801924E+04  0.10000801924E+04  0.51100000000E-03 0. -1.
         -2   -1    0    0    0  501 -0.00000000000E+00 -0.00000000000E+00 -0.11724341133E+03  0.11724341136E+03  0.25500000000E-02 0.  1.
         11    1    1    2    0    0  0.21901535961E+02 -0.42429873294E+01  0.11642633887E+03  0.11854439085E+03  0.51100000000E-03 0. -1.
         22    1    1    2    0    0  0.21341454925E+03  0.53676002431E+02  0.72131251464E+03  0.75413435596E+03  0.00000000000E+00 0. -1.
         -2    1    1    2    0  501 -0.23531608521E+03 -0.49433015102E+02  0.45097927518E+02  0.24464485691E+03  0.25500000000E-02 0.  1.
<mgrwt>
<rscale>  0 0.24045225E+03</rscale>
<asrwt>0</asrwt>
<pdfrwt beam="1">  1       11 0.10000000E+01 0.24446228E+03</pdfrwt>
<pdfrwt beam="2">  1       -2 0.18038894E-01 0.24045225E+03</pdfrwt>
<totfact> 0.20058769E+02</totfact>
</mgrwt>
</event>
<event>
 5    1  0.2799727E-003  0.1080038E+03  0.7818608E-02  0.1278877E+00
         11   -1    0    0    0    0  0.00000000000E+00  0.00000000000E+00  0.10004999869E+04  0.10004999869E+04  0.51100000000E-03 0. -1.
          2   -1    0    0  501    0 -0.00000000000E+00 -0.00000000000E+00 -0.11323055645E+02  0.11323055932E+02  0.25500000000E-02 0. -1.
         11    1    1    2    0    0 -0.24633572301E+02 -0.80683034891E+02  0.50958691254E+03  0.51652239683E+03  0.51100000000E-03 0. -1.
         22    1    1    2    0    0 -0.20942449441E+02 -0.90879157126E+01  0.10152748171E+03  0.10406250979E+03  0.00000000000E+00 0. -1.
          2    1    1    2  501    0  0.45576021742E+02  0.89770950604E+02  0.37806253704E+03  0.39123813624E+03  0.25500000000E-02 0. -1.
<mgrwt>
<rscale>  0 0.10067769E+03</rscale>
<asrwt>0</asrwt>
<pdfrwt beam="1">  1       11 0.10000000E+01 0.10800381E+03</pdfrwt>
<pdfrwt beam="2">  1        2 0.17428795E-02 0.10067769E+03</pdfrwt>
<totfact> 0.72616886E+03</totfact>
</mgrwt>
</event>
<event>
 5    1  0.2799727E-003  0.2929281E+03  0.7818608E-02  0.1104979E+00
         11   -1    0    0    0    0  0.00000000000E+00  0.00000000000E+00  0.10003691149E+04  0.10003691149E+04  0.51100000000E-03 0. -1.
          2   -1    0    0  501    0 -0.00000000000E+00 -0.00000000000E+00 -0.17745302451E+03  0.17745302452E+03  0.25500000000E-02 0. -1.
         11    1    1    2    0    0  0.18826492664E+03 -0.54831323331E+02  0.48844639325E+03  0.52633642825E+03  0.51100000000E-03 0. -1.
         22    1    1    2    0    0  0.37814217381E+02 -0.80783632674E+02  0.37436977979E+03  0.38484885652E+03  0.00000000000E+00 0. -1.
          2    1    1    2  501    0 -0.22607914402E+03  0.13561495601E+03 -0.39900082652E+02  0.26663685465E+03  0.25500000000E-02 0. -1.
<mgrwt>
<rscale>  0 0.26363459E+03</rscale>
<asrwt>0</asrwt>
<pdfrwt beam="1">  1       11 0.10000000E+01 0.29292811E+03</pdfrwt>
<pdfrwt beam="2">  1        2 0.27310542E-01 0.26363459E+03</pdfrwt>
<totfact> 0.24080264E+02</totfact>
</mgrwt>
</event>
<event>
 5    1  0.2799727E-003  0.3161892E+03  0.7818608E-02  0.1081033E+00
         11   -1    0    0    0    0  0.00000000000E+00  0.00000000000E+00  0.10004742152E+04  0.10004742152E+04  0.51100000000E-03 0.  1.
          2   -1    0    0  501    0 -0.00000000000E+00 -0.00000000000E+00 -0.14498764626E+03  0.14498764628E+03  0.25500000000E-02 0.  1.
         11    1    1    2    0    0 -0.59845602766E+02 -0.42080094743E+02  0.11340943781E+03  0.13495899796E+03  0.51100000000E-03 0.  1.
         22    1    1    2    0    0 -0.20546125620E+03 -0.11548905441E+03  0.64548060979E+03  0.68716611319E+03  0.00000000000E+00 0.  1.
          2    1    1    2  501    0  0.26530685897E+03  0.15756914915E+03  0.96596521345E+02  0.32333675034E+03  0.25500000000E-02 0.  1.
<mgrwt>
<rscale>  0 0.30857052E+03</rscale>
<asrwt>0</asrwt>
<pdfrwt beam="1">  1       11 0.10000000E+01 0.31618917E+03</pdfrwt>
<pdfrwt beam="2">  1        2 0.22316369E-01 0.30857052E+03</pdfrwt>
<totfact> 0.30332760E+02</totfact>
</mgrwt>
</event>
<event>
 5    1  0.2799727E-003  0.1698835E+03  0.7818608E-02  0.1177969E+00
         11   -1    0    0    0    0  0.00000000000E+00  0.00000000000E+00  0.10000450919E+04  0.10000450919E+04  0.51100000000E-03 0. -1.
          2   -1    0    0  501    0 -0.00000000000E+00 -0.00000000000E+00 -0.41244106928E+02  0.41244107007E+02  0.25500000000E-02 0. -1.
         11    1    1    2    0    0 -0.38949508210E+02  0.15877827213E+03  0.23083681687E+03  0.28286611659E+03  0.51100000000E-03 0. -1.
         22    1    1    2    0    0 -0.15009680905E+02  0.18210530322E+02  0.14173912382E+03  0.14369026813E+03  0.00000000000E+00 0. -1.
          2    1    1    2  501    0  0.53959189116E+02 -0.17698880246E+03  0.58622504434E+03  0.61473281424E+03  0.25500000000E-02 0. -1.
<mgrwt>
<rscale>  0 0.16988351E+03</rscale>
<asrwt>0</asrwt>
<pdfrwt beam="1">  1       11 0.10000000E+01 0.23599024E+02</pdfrwt>
<pdfrwt beam="2">  1        2 0.63455332E-02 0.16988351E+03</pdfrwt>
<totfact> 0.13679988E+03</totfact>
</mgrwt>
</event>
<event>
 5    1  0.2799727E-003  0.9280024E+02  0.7818608E-02  0.1452170E+00
         11   -1    0    0    0    0  0.00000000000E+00  0.00000000000E+00  0.10000840269E+04  0.10000840269E+04  0.51100000000E-03 0. -1.
          2   -1    0    0  501    0 -0.00000000000E+00 -0.00000000000E+00 -0.11655542007E+02  0.11655542286E+02  0.25500000000E-02 0. -1.
         11    1    1    2    0    0 -0.75404502491E+02  0.54114110880E+02  0.51025845171E+03  0.51863075838E+03  0.51100000000E-03 0. -1.
         22    1    1    2    0    0  0.16134681477E+02  0.19895571215E+02  0.97796290727E+02  0.10109538160E+03  0.00000000000E+00 0.  1.
          2    1    1    2  501    0  0.59269821015E+02 -0.74009682094E+02  0.38037374244E+03  0.39201342920E+03  0.25500000000E-02 0. -1.
<mgrwt>
<rscale>  0 0.48755910E+02</rscale>
<asrwt>0</asrwt>
<pdfrwt beam="1">  1       11 0.10000000E+01 0.92800238E+02</pdfrwt>
<pdfrwt beam="2">  1        2 0.17933110E-02 0.48755910E+02</pdfrwt>
<totfact> 0.62971868E+03</totfact>
</mgrwt>
</event>
<event>
 5    1  0.2799727E-003  0.1666483E+03  0.7818608E-02  0.1377977E+00
         11   -1    0    0    0    0  0.00000000000E+00  0.00000000000E+00  0.10000408913E+04  0.10000408913E+04  0.51100000000E-03 0.  1.
          2   -1    0    0  501    0 -0.00000000000E+00 -0.00000000000E+00 -0.46607689637E+03  0.46607689638E+03  0.25500000000E-02 0.  1.
         11    1    1    2    0    0 -0.10945495384E+03  0.42945285382E+02  0.84923763731E+02  0.14504044299E+03  0.51100000000E-03 0.  1.
         22    1    1    2    0    0  0.17301522827E+03 -0.56542796674E+02  0.87319835839E+03  0.89196789749E+03  0.00000000000E+00 0.  1.
          2    1    1    2  501    0 -0.63560274433E+02  0.13597511292E+02 -0.42415812719E+03  0.42910944719E+03  0.25500000000E-02 0.  1.
<mgrwt>
<rscale>  0 0.64998468E+02</rscale>
<asrwt>0</asrwt>
<pdfrwt beam="1">  1       11 0.10000000E+01 0.16664826E+03</pdfrwt>
<pdfrwt beam="2">  1        2 0.71707068E-01 0.64998468E+02</pdfrwt>
<totfact> 0.85288423E+01</totfact>
</mgrwt>
</event>
<event>
 5    1  0.2799727E-003  0.1787589E+03  0.7818608E-02  0.1178600E+00
         11   -1    0    0    0    0  0.00000000000E+00  0.00000000000E+00  0.10002643056E+04  0.10002643056E+04  0.51100000000E-03 0. -1.
          2   -1    0    0  501    0 -0.00000000000E+00 -0.00000000000E+00 -0.30294572832E+02  0.30294572939E+02  0.25500000000E-02 0. -1.
         11    1    1    2    0    0 -0.10431843621E+03 -0.81229809736E+02  0.34356832221E+03  0.36813015382E+03  0.51100000000E-03 0. -1.
         22    1    1    2    0    0 -0.44433159205E+02  0.42754479958E+00  0.16773130083E+03  0.17351737006E+03  0.00000000000E+00 0.  1.
          2    1    1    2  501    0  0.14875159542E+03  0.80802264936E+02  0.45867010970E+03  0.48891135465E+03  0.25500000000E-02 0. -1.
<mgrwt>
<rscale>  0 0.16928096E+03</rscale>
<asrwt>0</asrwt>
<pdfrwt beam="1">  1       11 0.10000000E+01 0.17875888E+03</pdfrwt>
<pdfrwt beam="2">  1        2 0.46619352E-02 0.16928096E+03</pdfrwt>
<totfact> 0.20453722E+03</totfact>
</mgrwt>
</event>
<event>
 5    1  0.2799727E-003  0.9945591E+02  0.7818608E-02  0.1281444E+00
         11   -1    0    0    0    0  0.00000000000E+00  0.00000000000E+00  0.10000467151E+04  0.10000467151E+04  0.51100000000E-03 0. -1.
         -2   -1    0    0    0  501 -0.00000000000E+00 -0.00000000000E+00 -0.21945116325E+02  0.21945116473E+02  0.25500000000E-02 0. -1.
         11    1    1    2    0    0 -0.19296830796E+02  0.21788873293E+02  0.16028613823E+03  0.16290723983E+03  0.51100000000E-03 0. -1.
         22    1    1    2    0    0  0.11188703937E+03 -0.44039854701E+02  0.68606925353E+03  0.69652655299E+03  0.00000000000E+00 0. -1.
         -2    1    1    2    0  501 -0.92590208571E+02  0.22250981408E+02  0.13174620703E+03  0.16255803877E+03  0.25500000000E-02 0. -1.
<mgrwt>
<rscale>  0 0.99455907E+02</rscale>
<asrwt>0</asrwt>
<pdfrwt beam="1">  1       11 0.10000000E+01 0.29105372E+02</pdfrwt>
<pdfrwt beam="2">  1       -2 0.33763294E-02 0.99455907E+02</pdfrwt>
<totfact> 0.25635992E+03</totfact>
</mgrwt>
</event>
<event>
 5    1  0.2799727E-003  0.4618620E+02  0.7818608E-02  0.1472597E+00
         11   -1    0    0    0    0  0.00000000000E+00  0.00000000000E+00  0.10001655271E+04  0.10001655271E+04  0.51100000000E-03 0.  1.
          2   -1    0    0  501    0 -0.00000000000E+00 -0.00000000000E+00 -0.75812030349E+01  0.75812034638E+01  0.25500000000E-02 0.  1.
         11    1    1    2    0    0 -0.53420341376E+01  0.17569915516E+02  0.20376510126E+02  0.27430665780E+02  0.51100000000E-03 0.  1.
         22    1    1    2    0    0 -0.50806634088E+01  0.26494961756E+02  0.48492732232E+02  0.55491812175E+02  0.00000000000E+00 0.  1.
          2    1    1    2  501    0  0.10422697546E+02 -0.44064877272E+02  0.92371508167E+03  0.92482425257E+03  0.25500000000E-02 0.  1.
<mgrwt>
<rscale>  0 0.45280747E+02</rscale>
<asrwt>0</asrwt>
<pdfrwt beam="1">  1       11 0.10000000E+01 0.46186197E+02</pdfrwt>
<pdfrwt beam="2">  1        2 0.11665320E-02 0.45280747E+02</pdfrwt>
<totfact> 0.11018672E+04</totfact>
</mgrwt>
</event>
<event>
 5    1  0.2799727E-003  0.7300660E+02  0.7818608E-02  0.1354610E+00
         11   -1    0    0    0    0  0.00000000000E+00  0.00000000000E+00  0.99980126561E+03  0.99980126561E+03  0.51100000000E-03 0.  1.
         -2   -1    0    0    0  501 -0.00000000000E+00 -0.00000000000E+00 -0.60834718789E+01  0.60834724134E+01  0.25500000000E-02 0.  1.
         11    1    1    2    0    0 -0.15219560688E+02  0.50511742862E+02  0.20395687378E+03  0.21066911866E+03  0.51100000000E-03 0.  1.
         22    1    1    2    0    0 -0.10260409084E+01  0.19259802939E+02  0.10874224401E+03  0.11043943318E+03  0.00000000000E+00 0.  1.
         -2    1    1    2    0  501  0.16245601596E+02 -0.69771545801E+02  0.68101867595E+03  0.68477618619E+03  0.25500000000E-02 0.  1.
<mgrwt>
<rscale>  0 0.71637896E+02</rscale>
<asrwt>0</asrwt>
<pdfrwt beam="1">  1       11 0.10000000E+01 0.73006601E+02</pdfrwt>
<pdfrwt beam="2">  1       -2 0.93573277E-03 0.71637896E+02</pdfrwt>
<totfact> 0.15346289E+04</totfact>
</mgrwt>
</event>
<event>
 5    1  0.2799727E-003  0.3129442E+03  0.7818608E-02  0.1084319E+00
         11   -1    0    0    0    0  0.00000000000E+00  0.00000000000E+00  0.10003449083E+04  0.10003449083E+04  0.51100000000E-03 0. -1.
          2   -1    0    0  501    0 -0.00000000000E+00 -0.00000000000E+00 -0.15974140756E+03  0.15974140758E+03  0.25500000000E-02 0. -1.
         11    1    1    2    0    0 -0.37195684170E+01 -0.18371475241E+03  0.51103723457E+03  0.54306905690E+03  0.51100000000E-03 0. -1.
         22    1    1    2    0    0  0.59353061580E+02 -0.11296435140E+03  0.28451797263E+03  0.31182400061E+03  0.00000000000E+00 0.  1.
          2    1    1    2  501    0 -0.55633493163E+02  0.29667910381E+03  0.45048293544E+02  0.30519325837E+03  0.25500000000E-02 0. -1.
<mgrwt>
<rscale>  0 0.30185025E+03</rscale>
<asrwt>0</asrwt>
<pdfrwt beam="1">  1       11 0.10000000E+01 0.31294417E+03</pdfrwt>
<pdfrwt beam="2">  1        2 0.24584077E-01 0.30185025E+03</pdfrwt>
<totfact> 0.27163299E+02</totfact>
</mgrwt>
</event>
<event>
 5    1  0.2799727E-003  0.2083623E+03  0.7818608E-02  0.1142869E+00
         11   -1    0    0    0    0  0.00000000000E+00  0.00000000000E+00  0.10008247288E+04  0.10008247288E+04  0.51100000000E-03 0.  1.
          2   -1    0    0  501    0 -0.00000000000E+00 -0.00000000000E+00 -0.41062408872E+03  0.41062408872E+03  0.25500000000E-02 0.  1.
         11    1    1    2    0    0  0.21507008019E+03  0.18537893884E+03  0.71001001342E+03  0.76467948156E+03  0.51100000000E-03 0.  1.
         22    1    1    2    0    0 -0.18317195594E+03  0.20051742899E+02  0.19578183094E+03  0.26885788656E+03  0.00000000000E+00 0.  1.
          2    1    1    2  501    0 -0.31898124252E+02 -0.20543068174E+03 -0.31559120431E+03  0.37791144938E+03  0.25500000000E-02 0.  1.
<mgrwt>
<rscale>  0 0.20836230E+03</rscale>
<asrwt>0</asrwt>
<pdfrwt beam="1">  1       11 0.10000000E+01 0.18426621E+03</pdfrwt>
<pdfrwt beam="2">  1        2 0.63225035E-01 0.20836230E+03</pdfrwt>
<totfact> 0.96603953E+01</totfact>
</mgrwt>
</event>
<event>
 5    1  0.2799727E-003  0.1569733E+03  0.7818608E-02  0.1192157E+00
         11   -1    0    0    0    0  0.00000000000E+00  0.00000000000E+00  0.10004838711E+04  0.10004838711E+04  0.51100000000E-03 0.  1.
         -2   -1    0    0    0  501 -0.00000000000E+00 -0.00000000000E+00 -0.34466931266E+03  0.34466931267E+03  0.25500000000E-02 0.  1.
         11    1    1    2    0    0 -0.15992519135E+03  0.57344067734E+02  0.41037092511E+03  0.44414941755E+03  0.51100000000E-03 0.  1.
         22    1    1    2    0    0  0.67000508210E+02  0.70012591233E+02  0.54978096079E+03  0.55825615615E+03  0.00000000000E+00 0. -1.
         -2    1    1    2    0  501  0.92924683141E+02 -0.12735665897E+03 -0.30433732746E+03  0.34274761007E+03  0.25500000000E-02 0.  1.
<mgrwt>
<rscale>  0 0.15697330E+03</rscale>
<asrwt>0</asrwt>
<pdfrwt beam="1">  1       11 0.10000000E+01 0.96906300E+02</pdfrwt>
<pdfrwt beam="2">  1       -2 0.53051704E-01 0.15697330E+03</pdfrwt>
<totfact> 0.27693974E+01</totfact>
</mgrwt>
</event>
<event>
 5    1  0.2799727E-003  0.2464293E+03  0.7818608E-02  0.1116426E+00
         11   -1    0    0    0    0  0.00000000000E+00  0.00000000000E+00  0.10001030128E+04  0.10001030128E+04  0.51100000000E-03 0. -1.
         -2   -1    0    0    0  501 -0.00000000000E+00 -0.00000000000E+00 -0.12033407731E+03  0.12033407734E+03  0.25500000000E-02 0.  1.
         11    1    1    2    0    0 -0.62579650716E+02  0.22320493473E+03  0.76598749978E+03  0.80029588615E+03  0.51100000000E-03 0. -1.
         22    1    1    2    0    0 -0.44070617018E+01  0.12588682816E+02  0.69849284632E+02  0.71111319011E+02  0.00000000000E+00 0.  1.
         -2    1    1    2    0  501  0.66986712418E+02 -0.23579361754E+03  0.43932151097E+02  0.24902988500E+03  0.25500000000E-02 0.  1.
<mgrwt>
<rscale>  0 0.24512415E+03</rscale>
<asrwt>0</asrwt>
<pdfrwt beam="1">  1       11 0.10000000E+01 0.24642927E+03</pdfrwt>
<pdfrwt beam="2">  1       -2 0.18514842E-01 0.24512415E+03</pdfrwt>
<totfact> 0.19204419E+02</totfact>
</mgrwt>
</event>
<event>
 5    1  0.2799727E-003  0.7743050E+02  0.7818608E-02  0.1341821E+00
         11   -1    0    0    0    0  0.00000000000E+00  0.00000000000E+00  0.10000969239E+04  0.10000969239E+04  0.51100000000E-03 0. -1.
          2   -1    0    0  501    0 -0.00000000000E+00 -0.00000000000E+00 -0.69340298595E+01  0.69340303284E+01  0.25500000000E-02 0. -1.
         11    1    1    2    0    0  0.12120729500E+02 -0.44052461811E+02  0.15481735830E+03  0.16141854264E+03  0.51100000000E-03 0. -1.
         22    1    1    2    0    0 -0.68919051543E-02 -0.30637376235E+02  0.14835885358E+03  0.15148926795E+03  0.00000000000E+00 0. -1.
          2    1    1    2  501    0 -0.12113837595E+02  0.74689838047E+02  0.68998668216E+03  0.69412314364E+03  0.25500000000E-02 0. -1.
<mgrwt>
<rscale>  0 0.75665824E+02</rscale>
<asrwt>0</asrwt>
<pdfrwt beam="1">  1       11 0.10000000E+01 0.77430501E+02</pdfrwt>
<pdfrwt beam="2">  1        2 0.10668772E-02 0.75665824E+02</pdfrwt>
<totfact> 0.13571853E+04</totfact>
</mgrwt>
</event>
<event>
 5    1  0.2799727E-003  0.5259501E+03  0.7818608E-02  0.1007219E+00
         11   -1    0    0    0    0  0.00000000000E+00  0.00000000000E+00  0.99987781099E+03  0.99987781099E+03  0.51100000000E-03 0. -1.
          2   -1    0    0  501    0 -0.00000000000E+00 -0.00000000000E+00 -0.28667191620E+04  0.28667191620E+04  0.25500000000E-02 0. -1.
         11    1    1    2    0    0 -0.51525722611E+03  0.79762304436E+02  0.86408692108E+03  0.10092067387E+04  0.51100000000E-03 0. -1.
         22    1    1    2    0    0 -0.29652712240E+01  0.10782603161E+02  0.37649176987E+02  0.39274901555E+02  0.00000000000E+00 0.  1.
          2    1    1    2  501    0  0.51822249733E+03 -0.90544907597E+02 -0.27685774491E+04  0.28181153328E+04  0.25500000000E-02 0. -1.
<mgrwt>
<rscale>  0 0.52595013E+03</rscale>
<asrwt>0</asrwt>
<pdfrwt beam="1">  1       11 0.10000000E+01 0.11182905E+02</pdfrwt>
<pdfrwt beam="2">  1        2 0.44097982E+00 0.52595013E+03</pdfrwt>
<totfact> 0.28657311E+00</totfact>
</mgrwt>
</event>
<event>
 5    1  0.2799727E-003  0.5552405E+02  0.7818608E-02  0.1674689E+00
         11   -1    0    0    0    0  0.00000000000E+00  0.00000000000E+00  0.10001241336E+04  0.10001241336E+04  0.51100000000E-03 0. -1.
          2   -1    0    0  501    0 -0.00000000000E+00 -0.00000000000E+00 -0.41374107503E+01  0.41374115362E+01  0.25500000000E-02 0. -1.
         11    1    1    2    0    0  0.25112502539E+02 -0.46386894875E+02  0.29102572275E+03  0.29576739695E+03  0.51100000000E-03 0. -1.
         22    1    1    2    0    0  0.10340850052E+02  0.14124112285E+01  0.52674888140E+02  0.53698900602E+02  0.00000000000E+00 0.  1.
          2    1    1    2  501    0 -0.35453352591E+02  0.44974483646E+02  0.65228611199E+03  0.65479524761E+03  0.25500000000E-02 0. -1.
<mgrwt>
<rscale>  0 0.24072734E+02</rscale>
<asrwt>0</asrwt>
<pdfrwt beam="1">  1       11 0.10000000E+01 0.55524048E+02</pdfrwt>
<pdfrwt beam="2">  1        2 0.63660379E-03 0.24072734E+02</pdfrwt>
<totfact> 0.21485787E+04</totfact>
</mgrwt>
</event>
<event>
 5    1  0.2799727E-003  0.4329598E+02  0.7818608E-02  0.1669268E+00
         11   -1    0    0    0    0  0.00000000000E+00  0.00000000000E+00  0.10000296526E+04  0.10000296526E+04  0.51100000000E-03 0. -1.
          2   -1    0    0  501    0 -0.00000000000E+00 -0.00000000000E+00 -0.75973999245E+01  0.75974003525E+01  0.25500000000E-02 0. -1.
         11    1    1    2    0    0 -0.29305142104E+02  0.16308876915E+02  0.38314989775E+02  0.50919635325E+02  0.51100000000E-03 0. -1.
         22    1    1    2    0    0 -0.13178608432E+02 -0.40580578881E+01  0.62886212034E+02  0.64380270410E+02  0.00000000000E+00 0.  1.
          2    1    1    2  501    0  0.42483750536E+02 -0.12250819027E+02  0.89123105082E+03  0.89232714717E+03  0.25500000000E-02 0. -1.
<mgrwt>
<rscale>  0 0.24433972E+02</rscale>
<asrwt>0</asrwt>
<pdfrwt beam="1">  1       11 0.10000000E+01 0.43295979E+02</pdfrwt>
<pdfrwt beam="2">  1        2 0.11688654E-02 0.24433972E+02</pdfrwt>
<totfact> 0.97373363E+03</totfact>
</mgrwt>
</event>
<event>
 5    1  0.2799727E-003  0.1320648E+03  0.7818608E-02  0.1233355E+00
         11   -1    0    0    0    0  0.00000000000E+00  0.00000000000E+00  0.99998541357E+03  0.99998541357E+03  0.51100000000E-03 0. -1.
          2   -1    0    0  501    0 -0.00000000000E+00 -0.00000000000E+00 -0.18946962769E+02  0.18946962941E+02  0.25500000000E-02 0. -1.
         11    1    1    2    0    0  0.34075284234E+02 -0.21748154504E+02  0.21827779681E+03  0.22198942272E+03  0.51100000000E-03 0. -1.
         22    1    1    2    0    0  0.91242274999E+02  0.76946959305E+01  0.45904986744E+03  0.46809309105E+03  0.00000000000E+00 0.  1.
          2    1    1    2  501    0 -0.12531755923E+03  0.14053458574E+02  0.30371078656E+03  0.32884986275E+03  0.25500000000E-02 0. -1.
<mgrwt>
<rscale>  0 0.12610309E+03</rscale>
<asrwt>0</asrwt>
<pdfrwt beam="1">  1       11 0.10000000E+01 0.13206480E+03</pdfrwt>
<pdfrwt beam="2">  1        2 0.29148748E-02 0.12610309E+03</pdfrwt>
<totfact> 0.37217197E+03</totfact>
</mgrwt>
</event>
<event>
 5    1  0.2799727E-003  0.7328696E+02  0.7818608E-02  0.1349259E+00
         11   -1    0    0    0    0  0.00000000000E+00  0.00000000000E+00  0.99975492856E+03  0.99975492856E+03  0.51100000000E-03 0. -1.
          2   -1    0    0  501    0 -0.00000000000E+00 -0.00000000000E+00 -0.70385526447E+01  0.70385531066E+01  0.25500000000E-02 0. -1.
         11    1    1    2    0    0  0.28332792035E+01 -0.98916482244E+01  0.15874543279E+02  0.18917539486E+02  0.51100000000E-03 0. -1.
         22    1    1    2    0    0 -0.17686629056E+01  0.77913554629E+02  0.45630525278E+03  0.46291266333E+03  0.00000000000E+00 0. -1.
          2    1    1    2  501    0 -0.10646162979E+01 -0.68021906404E+02  0.52053657986E+03  0.52496327884E+03  0.25500000000E-02 0. -1.
<mgrwt>
<rscale>  0 0.73286962E+02</rscale>
<asrwt>0</asrwt>
<pdfrwt beam="1">  1       11 0.10000000E+01 0.10289426E+02</pdfrwt>
<pdfrwt beam="2">  1        2 0.10825889E-02 0.73286962E+02</pdfrwt>
<totfact> 0.13235388E+04</totfact>
</mgrwt>
</event>
<event>
 5    1  0.2799727E-003  0.3269176E+03  0.7818608E-02  0.1072509E+00
         11   -1    0    0    0    0  0.00000000000E+00  0.00000000000E+00  0.10001455389E+04  0.10001455389E+04  0.51100000000E-03 0. -1.
          2   -1    0    0  501    0 -0.00000000000E+00 -0.00000000000E+00 -0.27180425821E+04  0.27180425821E+04  0.25500000000E-02 0. -1.
         11    1    1    2    0    0 -0.15679489723E+03 -0.75520758852E+02 -0.95104396285E+02  0.19832516483E+03  0.51100000000E-03 0. -1.
         22    1    1    2    0    0  0.34097358929E+03 -0.19422070369E+03  0.89695370022E+03  0.97903555129E+03  0.00000000000E+00 0. -1.
          2    1    1    2  501    0 -0.18417869206E+03  0.26974146254E+03 -0.25197463472E+04  0.25408274049E+04  0.25500000000E-02 0. -1.
<mgrwt>
<rscale>  0 0.32691759E+03</rscale>
<asrwt>0</asrwt>
<pdfrwt beam="1">  1       11 0.10000000E+01 0.17403464E+03</pdfrwt>
<pdfrwt beam="2">  1        2 0.41822124E+00 0.32691759E+03</pdfrwt>
<totfact> 0.37111124E+00</totfact>
</mgrwt>
</event>
<event>
 5    1  0.2799727E-003  0.2607726E+03  0.7818608E-02  0.1114370E+00
         11   -1    0    0    0    0  0.00000000000E+00  0.00000000000E+00  0.10001770653E+04  0.10001770653E+04  0.51100000000E-03 0. -1.
          2   -1    0    0  501    0 -0.00000000000E+00 -0.00000000000E+00 -0.19356050512E+03  0.19356050514E+03  0.25500000000E-02 0. -1.
         11    1    1    2    0    0 -0.18124260749E+03  0.11403578045E+03  0.65990953789E+03  0.69378212732E+03  0.51100000000E-03 0. -1.
         22    1    1    2    0    0 -0.40015043988E+02 -0.13033357907E+01  0.23349661806E+03  0.23690414322E+03  0.00000000000E+00 0. -1.
          2    1    1    2  501    0  0.22125765148E+03 -0.11273244466E+03 -0.86789595800E+02  0.26305129987E+03  0.25500000000E-02 0. -1.
<mgrwt>
<rscale>  0 0.24832147E+03</rscale>
<asrwt>0</asrwt>
<pdfrwt beam="1">  1       11 0.10000000E+01 0.26077265E+03</pdfrwt>
<pdfrwt beam="2">  1        2 0.29783811E-01 0.24832147E+03</pdfrwt>
<totfact> 0.21854091E+02</totfact>
</mgrwt>
</event>
<event>
 5    1  0.2799727E-003  0.3618057E+03  0.7818608E-02  0.1060836E+00
         11   -1    0    0    0    0  0.00000000000E+00  0.00000000000E+00  0.10005650012E+04  0.10005650012E+04  0.51100000000E-03 0. -1.
          2   -1    0    0  501    0 -0.00000000000E+00 -0.00000000000E+00 -0.79599443215E+03  0.79599443216E+03  0.25500000000E-02 0. -1.
         11    1    1    2    0    0  0.20239130351E+03  0.20750070364E+03  0.73414249577E+03  0.78929334587E+03  0.51100000000E-03 0. -1.
         22    1    1    2    0    0  0.68908515789E+02  0.20478296959E+02  0.19110377840E+03  0.20417736974E+03  0.00000000000E+00 0. -1.
          2    1    1    2  501    0 -0.27129981930E+03 -0.22797900059E+03 -0.72067570510E+03  0.80308871776E+03  0.25500000000E-02 0. -1.
<mgrwt>
<rscale>  0 0.35436989E+03</rscale>
<asrwt>0</asrwt>
<pdfrwt beam="1">  1       11 0.10000000E+01 0.36180574E+03</pdfrwt>
<pdfrwt beam="2">  1        2 0.12252987E+00 0.35436989E+03</pdfrwt>
<totfact> 0.44148441E+01</totfact>
</mgrwt>
</event>
<event>
 5    1  0.2799727E-003  0.5853337E+02  0.7818608E-02  0.1411680E+00
         11   -1    0    0    0    0  0.00000000000E+00  0.00000000000E+00  0.99998590104E+03  0.99998590104E+03  0.51100000000E-03 0.  1.
          2   -1    0    0  501    0 -0.00000000000E+00 -0.00000000000E+00 -0.50326035522E+01  0.50326041982E+01  0.25500000000E-02 0.  1.
         11    1    1    2    0    0  0.17247138465E+02 -0.26456131863E+02  0.89978863275E+02  0.95360298525E+02  0.51100000000E-03 0.  1.
         22    1    1    2    0    0  0.13135233375E+02 -0.21559365550E+02  0.11983337642E+03  0.12246378527E+03  0.00000000000E+00 0. -1.
          2    1    1    2  501    0 -0.30382371839E+02  0.48015497412E+02  0.78514105780E+03  0.78719442145E+03  0.25500000000E-02 0.  1.
<mgrwt>
<rscale>  0 0.56820564E+02</rscale>
<asrwt>0</asrwt>
<pdfrwt beam="1">  1       11 0.10000000E+01 0.58533371E+02</pdfrwt>
<pdfrwt beam="2">  1        2 0.77423581E-03 0.56820564E+02</pdfrwt>
<totfact> 0.19937425E+04</totfact>
</mgrwt>
</event>
<event>
 5    1  0.2799727E-003  0.4281974E+03  0.7818608E-02  0.1034431E+00
         11   -1    0    0    0    0  0.00000000000E+00  0.00000000000E+00  0.10004155676E+04  0.10004155676E+04  0.51100000000E-03 0.  1.
          2   -1    0    0  501    0 -0.00000000000E+00 -0.00000000000E+00 -0.20603640118E+03  0.20603640120E+03  0.25500000000E-02 0.  1.
         11    1    1    2    0    0 -0.41158368208E+03  0.62707849748E+02  0.47251355970E+03  0.62976381753E+03  0.51100000000E-03 0.  1.
         22    1    1    2    0    0 -0.18290309654E+02  0.12444582093E+02  0.68704668859E+02  0.72178491074E+02  0.00000000000E+00 0. -1.
          2    1    1    2  501    0  0.42987399173E+03 -0.75152431841E+02  0.25316093789E+03  0.50450966022E+03  0.25500000000E-02 0.  1.
<mgrwt>
<rscale>  0 0.42819740E+03</rscale>
<asrwt>0</asrwt>
<pdfrwt beam="1">  1       11 0.10000000E+01 0.22122456E+02</pdfrwt>
<pdfrwt beam="2">  1        2 0.31711080E-01 0.42819740E+03</pdfrwt>
<totfact> 0.20528800E+02</totfact>
</mgrwt>
</event>
<event>
 5    1  0.2799727E-003  0.3918558E+02  0.7818608E-02  0.1682911E+00
         11   -1    0    0    0    0  0.00000000000E+00  0.00000000000E+00  0.10005391927E+04  0.10005391927E+04  0.51100000000E-03 0. -1.
          2   -1    0    0  501    0 -0.00000000000E+00 -0.00000000000E+00 -0.38742639694E+01  0.38742648086E+01  0.25500000000E-02 0. -1.
         11    1    1    2    0    0  0.13763617925E+02  0.29334102694E+02  0.10266600654E+03  0.10765795678E+03  0.51100000000E-03 0. -1.
         22    1    1    2    0    0  0.14133534732E+02  0.44835718955E+00  0.55801358342E+02  0.57565175419E+02  0.00000000000E+00 0. -1.
          2    1    1    2  501    0 -0.27897152656E+02 -0.29782459883E+02  0.83819756389E+03  0.83919032535E+03  0.25500000000E-02 0. -1.
<mgrwt>
<rscale>  0 0.23539520E+02</rscale>
<asrwt>0</asrwt>
<pdfrwt beam="1">  1       11 0.10000000E+01 0.39185575E+02</pdfrwt>
<pdfrwt beam="2">  1        2 0.59636204E-03 0.23539520E+02</pdfrwt>
<totfact> 0.23277495E+04</totfact>
</mgrwt>
</event>
<event>
 5    1  0.2799727E-003  0.9411740E+02  0.7818608E-02  0.1558096E+00
         11   -1    0    0    0    0  0.00000000000E+00  0.00000000000E+00  0.10004024097E+04  0.10004024097E+04  0.51100000000E-03 0. -1.
          2   -1    0    0  501    0 -0.00000000000E+00 -0.00000000000E+00 -0.10390424982E+02  0.10390425294E+02  0.25500000000E-02 0. -1.
         11    1    1    2    0    0  0.23927736386E+02 -0.88350566401E+02  0.44861599287E+03  0.45785878632E+03  0.51100000000E-03 0. -1.
         22    1    1    2    0    0 -0.96292717612E+01 -0.75705117348E+01  0.29663727865E+02  0.32093181105E+02  0.00000000000E+00 0. -1.
          2    1    1    2  501    0 -0.14298464625E+02  0.95921078136E+02  0.51173226395E+03  0.52084086753E+03  0.25500000000E-02 0. -1.
<mgrwt>
<rscale>  0 0.33953409E+02</rscale>
<asrwt>0</asrwt>
<pdfrwt beam="1">  1       11 0.10000000E+01 0.94117405E+02</pdfrwt>
<pdfrwt beam="2">  1        2 0.15991702E-02 0.33953409E+02</pdfrwt>
<totfact> 0.68934384E+03</totfact>
</mgrwt>
</event>
<event>
 5    1  0.2799727E-003  0.1147854E+03  0.7818608E-02  0.1256698E+00
         11   -1    0    0    0    0  0.00000000000E+00  0.00000000000E+00  0.10002537437E+04  0.10002537437E+04  0.51100000000E-03 0. -1.
         -2   -1    0    0    0  501 -0.00000000000E+00 -0.00000000000E+00 -0.13176474151E+02  0.13176474398E+02  0.25500000000E-02 0. -1.
         11    1    1    2    0    0 -0.45473504475E+02  0.92613124736E+02  0.53350671914E+03  0.54339161739E+03  0.51100000000E-03 0. -1.
         22    1    1    2    0    0 -0.10148167228E+02  0.47342672668E+01  0.43232683474E+02  0.44659416757E+02  0.00000000000E+00 0.  1.
         -2    1    1    2    0  501  0.55621671703E+02 -0.97347392003E+02  0.41033786696E+03  0.42537918397E+03  0.25500000000E-02 0. -1.
<mgrwt>
<rscale>  0 0.11211728E+03</rscale>
<asrwt>0</asrwt>
<pdfrwt beam="1">  1       11 0.10000000E+01 0.11478537E+03</pdfrwt>
<pdfrwt beam="2">  1       -2 0.20276642E-02 0.11211728E+03</pdfrwt>
<totfact> 0.54575285E+03</totfact>
</mgrwt>
</event>
<event>
 5    1  0.2799727E-003  0.1386540E+03  0.7818608E-02  0.1215152E+00
         11   -1    0    0    0    0  0.00000000000E+00  0.00000000000E+00  0.10002881361E+04  0.10002881361E+04  0.51100000000E-03 0. -1.
          2   -1    0    0  501    0 -0.00000000000E+00 -0.00000000000E+00 -0.81469127888E+02  0.81469127928E+02  0.25500000000E-02 0. -1.
         11    1    1    2    0    0  0.13726671897E+03  0.46686124788E+02  0.82403330169E+03  0.83669147759E+03  0.51100000000E-03 0. -1.
         22    1    1    2    0    0 -0.75200663554E+00 -0.24508465260E+02  0.10361795387E+03  0.10647962598E+03  0.00000000000E+00 0. -1.
          2    1    1    2  501    0 -0.13651471233E+03 -0.22177659527E+02 -0.88322473709E+01  0.13858616044E+03  0.25500000000E-02 0. -1.
<mgrwt>
<rscale>  0 0.13865400E+03</rscale>
<asrwt>0</asrwt>
<pdfrwt beam="1">  1       11 0.10000000E+01 0.24520000E+02</pdfrwt>
<pdfrwt beam="2">  1        2 0.12537323E-01 0.13865400E+03</pdfrwt>
<totfact> 0.57898605E+02</totfact>
</mgrwt>
</event>
<event>
 5    1  0.2947540E-003  0.1838551E+03  0.7818608E-02  0.1164123E+00
         11   -1    0    0    0    0  0.00000000000E+00  0.00000000000E+00  0.10002912078E+04  0.10002912078E+04  0.51100000000E-03 0. -1.
          2   -1    0    0  501    0 -0.00000000000E+00 -0.00000000000E+00 -0.10119590281E+04  0.10119590281E+04  0.25500000000E-02 0. -1.
         11    1    1    2    0    0 -0.45303958854E+00  0.17507431223E+03  0.85864373441E+03  0.87631060856E+03  0.51100000000E-03 0. -1.
         22    1    1    2    0    0  0.22374246197E+02  0.75679656321E+01  0.12324986951E+03  0.12549267441E+03  0.00000000000E+00 0. -1.
          2    1    1    2  501    0 -0.21921206609E+02 -0.18264227786E+03 -0.99356142419E+03  0.10104469529E+04  0.25500000000E-02 0. -1.
<mgrwt>
<rscale>  0 0.18385508E+03</rscale>
<asrwt>0</asrwt>
<pdfrwt beam="1">  1       11 0.10000000E+01 0.23619505E+02</pdfrwt>
<pdfrwt beam="2">  1        2 0.15573134E+00 0.18385508E+03</pdfrwt>
<totfact> 0.32901593E+01</totfact>
</mgrwt>
</event>
<event>
 5    1  0.2799727E-003  0.7695915E+02  0.7818608E-02  0.1524073E+00
         11   -1    0    0    0    0  0.00000000000E+00  0.00000000000E+00  0.10002153020E+04  0.10002153020E+04  0.51100000000E-03 0. -1.
         -2   -1    0    0    0  501 -0.00000000000E+00 -0.00000000000E+00 -0.16640291865E+02  0.16640292060E+02  0.25500000000E-02 0. -1.
         11    1    1    2    0    0 -0.59112254628E+02 -0.20908984141E+02  0.13957912988E+03  0.15301561280E+03  0.51100000000E-03 0. -1.
         22    1    1    2    0    0 -0.16075341624E+02 -0.95296057477E+01  0.29828593502E+01  0.18924255440E+02  0.00000000000E+00 0. -1.
         -2    1    1    2    0  501  0.75187596252E+02  0.30438589889E+02  0.84101302092E+03  0.84491572582E+03  0.25500000000E-02 0. -1.
<mgrwt>
<rscale>  0 0.37923455E+02</rscale>
<asrwt>0</asrwt>
<pdfrwt beam="1">  1       11 0.10000000E+01 0.76959148E+02</pdfrwt>
<pdfrwt beam="2">  1       -2 0.25605960E-02 0.37923455E+02</pdfrwt>
<totfact> 0.33578889E+03</totfact>
</mgrwt>
</event>
<event>
 5    1  0.2799727E-003  0.1377840E+03  0.7818608E-02  0.1224457E+00
         11   -1    0    0    0    0  0.00000000000E+00  0.00000000000E+00  0.10001198137E+04  0.10001198137E+04  0.51100000000E-03 0. -1.
          2   -1    0    0  501    0 -0.00000000000E+00 -0.00000000000E+00 -0.30827420475E+02  0.30827420581E+02  0.25500000000E-02 0. -1.
         11    1    1    2    0    0  0.96394214381E+02  0.74459900940E+02  0.13777355764E+03  0.18389582540E+03  0.51100000000E-03 0. -1.
         22    1    1    2    0    0  0.15193515137E+02 -0.38683151303E+01  0.23086709142E+02  0.27907040387E+02  0.00000000000E+00 0. -1.
          2    1    1    2  501    0 -0.11158772952E+03 -0.70591585809E+02  0.80843212649E+03  0.81914436854E+03  0.25500000000E-02 0. -1.
<mgrwt>
<rscale>  0 0.13204163E+03</rscale>
<asrwt>0</asrwt>
<pdfrwt beam="1">  1       11 0.10000000E+01 0.13778399E+03</pdfrwt>
<pdfrwt beam="2">  1        2 0.47432482E-02 0.13204163E+03</pdfrwt>
<totfact> 0.19588839E+03</totfact>
</mgrwt>
</event>
<event>
 5    1  0.2799727E-003  0.5071691E+03  0.7818608E-02  0.1011924E+00
         11   -1    0    0    0    0  0.00000000000E+00  0.00000000000E+00  0.10002274894E+04  0.10002274894E+04  0.51100000000E-03 0. -1.
          2   -1    0    0  501    0 -0.00000000000E+00 -0.00000000000E+00 -0.48596691513E+03  0.48596691514E+03  0.25500000000E-02 0. -1.
         11    1    1    2    0    0 -0.49242045519E+03 -0.95479821146E+02  0.75744691867E+03  0.90847131795E+03  0.51100000000E-03 0. -1.
         22    1    1    2    0    0 -0.50171931705E+01 -0.87447435624E+01  0.59488200854E+01  0.11706033816E+02  0.00000000000E+00 0.  1.
          2    1    1    2  501    0  0.49743764836E+03  0.10422456471E+03 -0.24913516445E+03  0.56601705281E+03  0.25500000000E-02 0. -1.
<mgrwt>
<rscale>  0 0.50716914E+03</rscale>
<asrwt>0</asrwt>
<pdfrwt beam="1">  1       11 0.10000000E+01 0.10081804E+02</pdfrwt>
<pdfrwt beam="2">  1        2 0.74781147E-01 0.50716914E+03</pdfrwt>
<totfact> 0.79260130E+01</totfact>
</mgrwt>
</event>
<event>
 5    1  0.2799727E-003  0.6129750E+02  0.7818608E-02  0.1403498E+00
         11   -1    0    0    0    0  0.00000000000E+00  0.00000000000E+00  0.10002357215E+04  0.10002357215E+04  0.51100000000E-03 0.  1.
          2   -1    0    0  501    0 -0.00000000000E+00 -0.00000000000E+00 -0.58161146693E+01  0.58161152283E+01  0.25500000000E-02 0.  1.
         11    1    1    2    0    0  0.49579324546E+02 -0.41631806383E+01  0.14917376660E+03  0.15725219915E+03  0.51100000000E-03 0.  1.
         22    1    1    2    0    0  0.77972673230E+01 -0.80898128418E+01  0.44115948270E+02  0.45524272002E+02  0.00000000000E+00 0. -1.
          2    1    1    2  501    0 -0.57376591869E+02  0.12252993480E+02  0.80112989192E+03  0.80327536554E+03  0.25500000000E-02 0.  1.
<mgrwt>
<rscale>  0 0.58670343E+02</rscale>
<asrwt>0</asrwt>
<pdfrwt beam="1">  1       11 0.10000000E+01 0.61297499E+02</pdfrwt>
<pdfrwt beam="2">  1        2 0.89499781E-03 0.58670343E+02</pdfrwt>
<totfact> 0.16485494E+04</totfact>
</mgrwt>
</event>
<event>
 5    1  0.2799727E-003  0.6144743E+03  0.7818608E-02  0.9950258E-01
         11   -1    0    0    0    0  0.00000000000E+00  0.00000000000E+00  0.10004082827E+04  0.10004082827E+04  0.51100000000E-03 0. -1.
          2   -1    0    0  501    0 -0.00000000000E+00 -0.00000000000E+00 -0.37114549544E+03  0.37114549545E+03  0.25500000000E-02 0. -1.
         11    1    1    2    0    0 -0.44127270910E+03 -0.21390318261E+03  0.44727315282E+03  0.66372392496E+03  0.51100000000E-03 0. -1.
         22    1    1    2    0    0 -0.50628167110E+02 -0.91243545227E+02  0.15439420556E+02  0.10548446121E+03  0.00000000000E+00 0.  1.
          2    1    1    2  501    0  0.49190087621E+03  0.30514672784E+03  0.16655021392E+03  0.60234539202E+03  0.25500000000E-02 0. -1.
<mgrwt>
<rscale>  0 0.57886181E+03</rscale>
<asrwt>0</asrwt>
<pdfrwt beam="1">  1       11 0.10000000E+01 0.61447426E+03</pdfrwt>
<pdfrwt beam="2">  1        2 0.57122618E-01 0.57886181E+03</pdfrwt>
<totfact> 0.10714833E+02</totfact>
</mgrwt>
</event>
<event>
 5    1  0.2799727E-003  0.2471538E+03  0.7818608E-02  0.1115117E+00
         11   -1    0    0    0    0  0.00000000000E+00  0.00000000000E+00  0.10002832201E+04  0.10002832201E+04  0.51100000000E-03 0. -1.
         -2   -1    0    0    0  501 -0.00000000000E+00 -0.00000000000E+00 -0.16043120764E+03  0.16043120766E+03  0.25500000000E-02 0.  1.
         11    1    1    2    0    0 -0.19213585133E+03 -0.15251564950E+03  0.62023533559E+03  0.66698506747E+03  0.51100000000E-03 0. -1.
         22    1    1    2    0    0  0.53950767792E+02 -0.55049918927E+02  0.23159562207E+03  0.24408545856E+03  0.00000000000E+00 0. -1.
         -2    1    1    2    0  501  0.13818508354E+03  0.20756556843E+03 -0.11978945243E+02  0.24964390168E+03  0.25500000000E-02 0.  1.
<mgrwt>
<rscale>  0 0.24715379E+03</rscale>
<asrwt>0</asrwt>
<pdfrwt beam="1">  1       11 0.10000000E+01 0.77079043E+02</pdfrwt>
<pdfrwt beam="2">  1       -2 0.24688714E-01 0.24715379E+03</pdfrwt>
<totfact> 0.11675488E+02</totfact>
</mgrwt>
</event>
<event>
 5    1  0.2799727E-003  0.1364426E+03  0.7818608E-02  0.1241407E+00
         11   -1    0    0    0    0  0.00000000000E+00  0.00000000000E+00  0.10000163264E+04  0.10000163264E+04  0.51100000000E-03 0. -1.
          2   -1    0    0  501    0 -0.00000000000E+00 -0.00000000000E+00 -0.18429715234E+02  0.18429715410E+02  0.25500000000E-02 0. -1.
         11    1    1    2    0    0  0.40809733066E+02  0.65164850470E+02  0.36484815056E+03  0.37286199192E+03  0.51100000000E-03 0. -1.
         22    1    1    2    0    0 -0.23319429131E+02  0.54595132655E+02  0.31374070301E+03  0.31930808479E+03  0.00000000000E+00 0. -1.
          2    1    1    2  501    0 -0.17490303936E+02 -0.11975998313E+03  0.30299775757E+03  0.32627596508E+03  0.25500000000E-02 0. -1.
<mgrwt>
<rscale>  0 0.12103043E+03</rscale>
<asrwt>0</asrwt>
<pdfrwt beam="1">  1       11 0.10000000E+01 0.13644260E+03</pdfrwt>
<pdfrwt beam="2">  1        2 0.28353870E-02 0.12103043E+03</pdfrwt>
<totfact> 0.38456867E+03</totfact>
</mgrwt>
</event>
<event>
 5    1  0.2799727E-003  0.9794504E+02  0.7818608E-02  0.1284678E+00
         11   -1    0    0    0    0  0.00000000000E+00  0.00000000000E+00  0.10000528411E+04  0.10000528411E+04  0.51100000000E-03 0. -1.
          2   -1    0    0  501    0 -0.00000000000E+00 -0.00000000000E+00 -0.14843462668E+02  0.14843462887E+02  0.25500000000E-02 0. -1.
         11    1    1    2    0    0 -0.85861359281E+02 -0.26708950143E+02  0.27942448261E+03  0.29353633935E+03  0.51100000000E-03 0. -1.
         22    1    1    2    0    0 -0.12519944958E+02 -0.31726451193E+02  0.18969435700E+03  0.19273625970E+03  0.00000000000E+00 0. -1.
          2    1    1    2  501    0  0.98381304239E+02  0.58435401337E+02  0.51609053886E+03  0.52862370497E+03  0.25500000000E-02 0. -1.
<mgrwt>
<rscale>  0 0.97945040E+02</rscale>
<asrwt>0</asrwt>
<pdfrwt beam="1">  1       11 0.10000000E+01 0.34107429E+02</pdfrwt>
<pdfrwt beam="2">  1        2 0.22837303E-02 0.97945040E+02</pdfrwt>
<totfact> 0.50213309E+03</totfact>
</mgrwt>
</event>
<event>
 5    1  0.2799727E-003  0.2346178E+03  0.7818608E-02  0.1123431E+00
         11   -1    0    0    0    0  0.00000000000E+00  0.00000000000E+00  0.10006473403E+04  0.10006473403E+04  0.51100000000E-03 0. -1.
          2   -1    0    0  501    0 -0.00000000000E+00 -0.00000000000E+00 -0.10987958417E+04  0.10987958417E+04  0.25500000000E-02 0. -1.
         11    1    1    2    0    0 -0.21618275418E+03 -0.12971377331E+03  0.88053509634E+03  0.91591631827E+03  0.51100000000E-03 0. -1.
         22    1    1    2    0    0  0.34852970007E+02 -0.18832754652E+02  0.85288095032E+02  0.94039679499E+02  0.00000000000E+00 0.  1.
          2    1    1    2  501    0  0.18132978417E+03  0.14854652796E+03 -0.10639716928E+04  0.10894871842E+04  0.25500000000E-02 0. -1.
<mgrwt>
<rscale>  0 0.23461783E+03</rscale>
<asrwt>0</asrwt>
<pdfrwt beam="1">  1       11 0.10000000E+01 0.39615681E+02</pdfrwt>
<pdfrwt beam="2">  1        2 0.16915494E+00 0.23461783E+03</pdfrwt>
<totfact> 0.28837163E+01</totfact>
</mgrwt>
</event>
<event>
 5    1  0.2799727E-003  0.3043408E+03  0.7818608E-02  0.1083091E+00
         11   -1    0    0    0    0  0.00000000000E+00  0.00000000000E+00  0.99976476464E+03  0.99976476464E+03  0.51100000000E-03 0. -1.
          2   -1    0    0  501    0 -0.00000000000E+00 -0.00000000000E+00 -0.16023317898E+04  0.16023317898E+04  0.25500000000E-02 0. -1.
         11    1    1    2    0    0 -0.65572555567E+02  0.23916220177E+03  0.33330243086E+03  0.41543811719E+03  0.51100000000E-03 0. -1.
         22    1    1    2    0    0 -0.15182831417E+03 -0.21099102682E+02  0.60048986720E+03  0.61974598807E+03  0.00000000000E+00 0. -1.
          2    1    1    2  501    0  0.21740086973E+03 -0.21806309908E+03 -0.15363593233E+04  0.15669124492E+04  0.25500000000E-02 0. -1.
<mgrwt>
<rscale>  0 0.30434082E+03</rscale>
<asrwt>0</asrwt>
<pdfrwt beam="1">  1       11 0.10000000E+01 0.15328734E+03</pdfrwt>
<pdfrwt beam="2">  1        2 0.24645459E+00 0.30434082E+03</pdfrwt>
<totfact> 0.14957475E+01</totfact>
</mgrwt>
</event>
<event>
 5    1  0.2799727E-003  0.7490908E+02  0.7818608E-02  0.1480874E+00
         11   -1    0    0    0    0  0.00000000000E+00  0.00000000000E+00  0.10002133747E+04  0.10002133747E+04  0.51100000000E-03 0. -1.
          2   -1    0    0  501    0 -0.00000000000E+00 -0.00000000000E+00 -0.13149347100E+02  0.13149347347E+02  0.25500000000E-02 0. -1.
         11    1    1    2    0    0  0.76336144160E+02  0.62337091362E+01  0.14892642305E+03  0.16746684901E+03  0.51100000000E-03 0. -1.
         22    1    1    2    0    0 -0.35483596946E+01 -0.25564796824E+02  0.80780241431E+02  0.84803284717E+02  0.00000000000E+00 0. -1.
          2    1    1    2  501    0 -0.72787784466E+02  0.19331087687E+02  0.75735736316E+03  0.76109258836E+03  0.25500000000E-02 0. -1.
<mgrwt>
<rscale>  0 0.43970366E+02</rscale>
<asrwt>0</asrwt>
<pdfrwt beam="1">  1       11 0.10000000E+01 0.74909078E+02</pdfrwt>
<pdfrwt beam="2">  1        2 0.20234081E-02 0.43970366E+02</pdfrwt>
<totfact> 0.52841637E+03</totfact>
</mgrwt>
</event>
<event>
 5    1  0.2799727E-003  0.1796920E+03  0.7818608E-02  0.1168101E+00
         11   -1    0    0    0    0  0.00000000000E+00  0.00000000000E+00  0.10002115849E+04  0.10002115849E+04  0.51100000000E-03 0. -1.
          2   -1    0    0  501    0 -0.00000000000E+00 -0.00000000000E+00 -0.20550077333E+03  0.20550077335E+03  0.25500000000E-02 0. -1.
         11    1    1    2    0    0  0.27061207625E+02  0.18562193535E+03  0.79089536925E+03  0.81283657456E+03  0.51100000000E-03 0. -1.
         22    1    1    2    0    0  0.25263286919E+02 -0.14035009252E+02  0.15537195779E+03  0.15803689575E+03  0.00000000000E+00 0.  1.
          2    1    1    2  501    0 -0.52324494544E+02 -0.17158692610E+03 -0.15155651543E+03  0.23483888799E+03  0.25500000000E-02 0. -1.
<mgrwt>
<rscale>  0 0.17969201E+03</rscale>
<asrwt>0</asrwt>
<pdfrwt beam="1">  1       11 0.10000000E+01 0.28900089E+02</pdfrwt>
<pdfrwt beam="2">  1        2 0.31622192E-01 0.17969201E+03</pdfrwt>
<totfact> 0.20365042E+02</totfact>
</mgrwt>
</event>
<event>
 5    1  0.2799727E-003  0.1392774E+03  0.7818608E-02  0.1312373E+00
         11   -1    0    0    0    0  0.00000000000E+00  0.00000000000E+00  0.10004172509E+04  0.10004172509E+04  0.51100000000E-03 0.  1.
          2   -1    0    0  501    0 -0.00000000000E+00 -0.00000000000E+00 -0.86747143681E+03  0.86747143681E+03  0.25500000000E-02 0.  1.
         11    1    1    2    0    0  0.83096811916E+02 -0.83935696821E+02  0.32513777052E+03  0.34592607761E+03  0.51100000000E-03 0.  1.
         22    1    1    2    0    0 -0.16244668833E+03  0.50309562034E+02  0.65178093089E+03  0.67360103953E+03  0.00000000000E+00 0.  1.
          2    1    1    2  501    0  0.79349876416E+02  0.33626134787E+02 -0.84397288734E+03  0.84836157056E+03  0.25500000000E-02 0.  1.
<mgrwt>
<rscale>  0 0.86180739E+02</rscale>
<asrwt>0</asrwt>
<pdfrwt beam="1">  1       11 0.10000000E+01 0.13927744E+03</pdfrwt>
<pdfrwt beam="2">  1        2 0.13351283E+00 0.86180739E+02</pdfrwt>
<totfact> 0.41798386E+01</totfact>
</mgrwt>
</event>
<event>
 5    1  0.2799727E-003  0.1333937E+03  0.7818608E-02  0.1242684E+00
         11   -1    0    0    0    0  0.00000000000E+00  0.00000000000E+00  0.10000890069E+04  0.10000890069E+04  0.51100000000E-03 0.  1.
          2   -1    0    0  501    0 -0.00000000000E+00 -0.00000000000E+00 -0.18555597472E+02  0.18555597648E+02  0.25500000000E-02 0.  1.
         11    1    1    2    0    0  0.93700215688E+02  0.29096503745E+02  0.53339985633E+03  0.54234836008E+03  0.51100000000E-03 0.  1.
         22    1    1    2    0    0  0.26396941142E+02 -0.23024293717E+02  0.16513539536E+03  0.16880940556E+03  0.00000000000E+00 0.  1.
          2    1    1    2  501    0 -0.12009715683E+03 -0.60722100280E+01  0.28299815770E+03  0.30748683888E+03  0.25500000000E-02 0.  1.
<mgrwt>
<rscale>  0 0.12025057E+03</rscale>
<asrwt>0</asrwt>
<pdfrwt beam="1">  1       11 0.10000000E+01 0.13339366E+03</pdfrwt>
<pdfrwt beam="2">  1        2 0.28549613E-02 0.12025057E+03</pdfrwt>
<totfact> 0.38076993E+03</totfact>
</mgrwt>
</event>
<event>
 5    1  0.2799727E-003  0.7356353E+02  0.7818608E-02  0.1366635E+00
         11   -1    0    0    0    0  0.00000000000E+00  0.00000000000E+00  0.10001631994E+04  0.10001631994E+04  0.51100000000E-03 0. -1.
          2   -1    0    0  501    0 -0.00000000000E+00 -0.00000000000E+00 -0.57808979184E+01  0.57808984809E+01  0.25500000000E-02 0. -1.
         11    1    1    2    0    0 -0.19722028499E+02 -0.63894624609E+01  0.52365530965E+02  0.56319911862E+02  0.51100000000E-03 0. -1.
         22    1    1    2    0    0 -0.48097679179E+02  0.89637687459E-01  0.27872865048E+03  0.28284811361E+03  0.00000000000E+00 0. -1.
          2    1    1    2  501    0  0.67819707678E+02  0.62998247734E+01  0.66328812003E+03  0.66677607240E+03  0.25500000000E-02 0. -1.
<mgrwt>
<rscale>  0 0.68111677E+02</rscale>
<asrwt>0</asrwt>
<pdfrwt beam="1">  1       11 0.10000000E+01 0.73563527E+02</pdfrwt>
<pdfrwt beam="2">  1        2 0.88951407E-03 0.68111677E+02</pdfrwt>
<totfact> 0.17070885E+04</totfact>
</mgrwt>
</event>
<event>
 5    1  0.2799727E-003  0.1476954E+03  0.7818608E-02  0.1203334E+00
         11   -1    0    0    0    0  0.00000000000E+00  0.00000000000E+00  0.10002885744E+04  0.10002885744E+04  0.51100000000E-03 0.  1.
         -2   -1    0    0    0  501 -0.00000000000E+00 -0.00000000000E+00 -0.47865132962E+02  0.47865133030E+02  0.25500000000E-02 0. -1.
         11    1    1    2    0    0 -0.10375262866E+03 -0.73045136841E+02  0.37447077170E+03  0.39538406496E+03  0.51100000000E-03 0.  1.
         22    1    1    2    0    0 -0.67146569596E+02  0.74928921905E+02  0.37083018853E+03  0.38423695016E+03  0.00000000000E+00 0.  1.
         -2    1    1    2    0  501  0.17089919825E+03 -0.18837850648E+01  0.20712248124E+03  0.26853269233E+03  0.25500000000E-02 0. -1.
<mgrwt>
<rscale>  0 0.14769537E+03</rscale>
<asrwt>0</asrwt>
<pdfrwt beam="1">  1       11 0.10000000E+01 0.10061315E+03</pdfrwt>
<pdfrwt beam="2">  1       -2 0.73659914E-02 0.14769537E+03</pdfrwt>
<totfact> 0.82548529E+02</totfact>
</mgrwt>
</event>
<event>
 5    1  0.2799727E-003  0.1897011E+03  0.7818608E-02  0.1160927E+00
         11   -1    0    0    0    0  0.00000000000E+00  0.00000000000E+00  0.10005305660E+04  0.10005305660E+04  0.51100000000E-03 0. -1.
          2   -1    0    0  501    0 -0.00000000000E+00 -0.00000000000E+00 -0.29811329425E+03  0.29811329426E+03  0.25500000000E-02 0.  1.
         11    1    1    2    0    0 -0.12654834944E+03 -0.11929780511E+03  0.89688969172E+03  0.91359595564E+03  0.51100000000E-03 0. -1.
         22    1    1    2    0    0 -0.40930845448E+01 -0.14906629662E+02  0.64006515560E+02  0.65846753778E+02  0.00000000000E+00 0. -1.
          2    1    1    2  501    0  0.13064143398E+03  0.13420443478E+03 -0.25847893552E+03  0.31920115085E+03  0.25500000000E-02 0.  1.
<mgrwt>
<rscale>  0 0.18729126E+03</rscale>
<asrwt>0</asrwt>
<pdfrwt beam="1">  1       11 0.10000000E+01 0.18970108E+03</pdfrwt>
<pdfrwt beam="2">  1        2 0.45887916E-01 0.18729126E+03</pdfrwt>
<totfact> 0.13644198E+02</totfact>
</mgrwt>
</event>
<event>
 5    1  0.2799727E-003  0.2708345E+03  0.7818608E-02  0.1105756E+00
         11   -1    0    0    0    0  0.00000000000E+00  0.00000000000E+00  0.10007058039E+04  0.10007058039E+04  0.51100000000E-03 0. -1.
          2   -1    0    0  501    0 -0.00000000000E+00 -0.00000000000E+00 -0.71700917381E+02  0.71700917427E+02  0.25500000000E-02 0. -1.
         11    1    1    2    0    0  0.13140889997E+03  0.20482863628E+03  0.43190732121E+03  0.49574893177E+03  0.51100000000E-03 0. -1.
         22    1    1    2    0    0  0.75682276560E+01  0.17652492701E+02  0.92429886090E+02  0.94404302926E+02  0.00000000000E+00 0. -1.
          2    1    1    2  501    0 -0.13897712762E+03 -0.22248112899E+03  0.40466767920E+03  0.48225348661E+03  0.25500000000E-02 0. -1.
<mgrwt>
<rscale>  0 0.26232136E+03</rscale>
<asrwt>0</asrwt>
<pdfrwt beam="1">  1       11 0.10000000E+01 0.27083451E+03</pdfrwt>
<pdfrwt beam="2">  1        2 0.11038696E-01 0.26232136E+03</pdfrwt>
<totfact> 0.69622672E+02</totfact>
</mgrwt>
</event>
<event>
 5    1  0.2799727E-003  0.1404503E+03  0.7818608E-02  0.1444301E+00
         11   -1    0    0    0    0  0.00000000000E+00  0.00000000000E+00  0.99994779248E+03  0.99994779248E+03  0.51100000000E-03 0.  1.
          2   -1    0    0  501    0 -0.00000000000E+00 -0.00000000000E+00 -0.78991052184E+02  0.78991052225E+02  0.25500000000E-02 0.  1.
         11    1    1    2    0    0 -0.10136706228E+03 -0.10382979835E+03  0.32894827117E+03  0.35953146378E+03  0.51100000000E-03 0.  1.
         22    1    1    2    0    0  0.12727456289E+03  0.60839270524E+02  0.63673682114E+03  0.65217636464E+03  0.00000000000E+00 0.  1.
          2    1    1    2  501    0 -0.25907500614E+02  0.42990527830E+02 -0.44728352011E+02  0.67231016289E+02  0.25500000000E-02 0.  1.
<mgrwt>
<rscale>  0 0.50193466E+02</rscale>
<asrwt>0</asrwt>
<pdfrwt beam="1">  1       11 0.10000000E+01 0.14045028E+03</pdfrwt>
<pdfrwt beam="2">  1        2 0.12151835E-01 0.50193466E+02</pdfrwt>
<totfact> 0.56698681E+02</totfact>
</mgrwt>
</event>
<event>
 5    1  0.2799727E-003  0.1787101E+03  0.7818608E-02  0.1169057E+00
         11   -1    0    0    0    0  0.00000000000E+00  0.00000000000E+00  0.10000364627E+04  0.10000364627E+04  0.51100000000E-03 0. -1.
          2   -1    0    0  501    0 -0.00000000000E+00 -0.00000000000E+00 -0.82961802336E+02  0.82961802375E+02  0.25500000000E-02 0. -1.
         11    1    1    2    0    0 -0.59637775033E+02  0.15982775088E+03  0.88517497839E+03  0.90146343050E+03  0.51100000000E-03 0. -1.
         22    1    1    2    0    0  0.18444727788E+02 -0.92641995775E+01  0.12766524432E+02  0.24269683209E+02  0.00000000000E+00 0. -1.
          2    1    1    2  501    0  0.41193047245E+02 -0.15056355130E+03  0.19133157581E+02  0.15726515140E+03  0.25500000000E-02 0. -1.
<mgrwt>
<rscale>  0 0.17871012E+03</rscale>
<asrwt>0</asrwt>
<pdfrwt beam="1">  1       11 0.10000000E+01 0.17059183E+03</pdfrwt>
<pdfrwt beam="2">  1        2 0.12763819E-01 0.17871012E+03</pdfrwt>
<totfact> 0.57338337E+02</totfact>
</mgrwt>
</event>
<event>
 5    1  0.2799727E-003  0.2318778E+03  0.7818608E-02  0.1125325E+00
         11   -1    0    0    0    0  0.00000000000E+00  0.00000000000E+00  0.10001130204E+04  0.10001130204E+04  0.51100000000E-03 0. -1.
          2   -1    0    0  501    0 -0.00000000000E+00 -0.00000000000E+00 -0.63472491585E+02  0.63472491636E+02  0.25500000000E-02 0.  1.
         11    1    1    2    0    0  0.21993025410E+03  0.28387125648E+02  0.50069402925E+03  0.54760355778E+03  0.51100000000E-03 0. -1.
         22    1    1    2    0    0  0.14986458008E+02  0.16418527112E+02  0.10702446356E+03  0.10930872681E+03  0.00000000000E+00 0. -1.
          2    1    1    2  501    0 -0.23491671211E+03 -0.44805652760E+02  0.32892203605E+03  0.40667322748E+03  0.25500000000E-02 0.  1.
<mgrwt>
<rscale>  0 0.23187777E+03</rscale>
<asrwt>0</asrwt>
<pdfrwt beam="1">  1       11 0.10000000E+01 0.22229754E+02</pdfrwt>
<pdfrwt beam="2">  1        2 0.97661021E-02 0.23187777E+03</pdfrwt>
<totfact> 0.80593285E+02</totfact>
</mgrwt>
</event>
<event>
 5    1  0.2799727E-003  0.3790869E+03  0.7818608E-02  0.1052530E+00
         11   -1    0    0    0    0  0.00000000000E+00  0.00000000000E+00  0.10002844939E+04  0.10002844939E+04  0.51100000000E-03 0.  1.
          2   -1    0    0  501    0 -0.00000000000E+00 -0.00000000000E+00 -0.20137806700E+03  0.20137806701E+03  0.25500000000E-02 0.  1.
         11    1    1    2    0    0  0.23979248666E+02 -0.35004924003E+03  0.66413301491E+03  0.75112058707E+03  0.51100000000E-03 0.  1.
         22    1    1    2    0    0  0.14944519205E+02 -0.23641257502E+02  0.61764491472E+02  0.67801918242E+02  0.00000000000E+00 0.  1.
          2    1    1    2  501    0 -0.38923767870E+02  0.37369049754E+03  0.73008920469E+02  0.38274005556E+03  0.25500000000E-02 0.  1.
<mgrwt>
<rscale>  0 0.37571219E+03</rscale>
<asrwt>0</asrwt>
<pdfrwt beam="1">  1       11 0.10000000E+01 0.37908690E+03</pdfrwt>
<pdfrwt beam="2">  1        2 0.30990054E-01 0.37571219E+03</pdfrwt>
<totfact> 0.21030418E+02</totfact>
</mgrwt>
</event>
<event>
 5    1  0.2799727E-003  0.3618973E+03  0.7818608E-02  0.1059500E+00
         11   -1    0    0    0    0  0.00000000000E+00  0.00000000000E+00  0.10000752050E+04  0.10000752050E+04  0.51100000000E-03 0.  1.
          2   -1    0    0  501    0 -0.00000000000E+00 -0.00000000000E+00 -0.23536271317E+03  0.23536271319E+03  0.25500000000E-02 0.  1.
         11    1    1    2    0    0  0.16635765331E+03  0.27023101054E+03  0.66750677800E+03  0.73909739991E+03  0.51100000000E-03 0.  1.
         22    1    1    2    0    0  0.10070095949E+02  0.40926227790E+02  0.13046392119E+03  0.13710287264E+03  0.00000000000E+00 0.  1.
          2    1    1    2  501    0 -0.17642774926E+03 -0.31115723833E+03 -0.33258207378E+02  0.35923764563E+03  0.25500000000E-02 0.  1.
<mgrwt>
<rscale>  0 0.35769481E+03</rscale>
<asrwt>0</asrwt>
<pdfrwt beam="1">  1       11 0.10000000E+01 0.36189733E+03</pdfrwt>
<pdfrwt beam="2">  1        2 0.36212370E-01 0.35769481E+03</pdfrwt>
<totfact> 0.17697946E+02</totfact>
</mgrwt>
</event>
<event>
 5    1  0.2799727E-003  0.3625395E+03  0.7818608E-02  0.1057583E+00
         11   -1    0    0    0    0  0.00000000000E+00  0.00000000000E+00  0.10003930546E+04  0.10003930546E+04  0.51100000000E-03 0.  1.
          2   -1    0    0  501    0 -0.00000000000E+00 -0.00000000000E+00 -0.51915066676E+03  0.51915066677E+03  0.25500000000E-02 0.  1.
         11    1    1    2    0    0 -0.14185130820E+02  0.10078359548E+02  0.22426671285E+02  0.28385680417E+02  0.51100000000E-03 0.  1.
         22    1    1    2    0    0 -0.33404147692E+03 -0.11361023285E+03  0.87217675619E+03  0.94084179719E+03  0.00000000000E+00 0.  1.
          2    1    1    2  501    0  0.34822660774E+03  0.10353187330E+03 -0.41336103959E+03  0.55031624380E+03  0.25500000000E-02 0.  1.
<mgrwt>
<rscale>  0 0.36253949E+03</rscale>
<asrwt>0</asrwt>
<pdfrwt beam="1">  1       11 0.10000000E+01 0.17400898E+02</pdfrwt>
<pdfrwt beam="2">  1        2 0.79900724E-01 0.36253949E+03</pdfrwt>
<totfact> 0.73899161E+01</totfact>
</mgrwt>
</event>
<event>
 5    1  0.2799727E-003  0.1950337E+03  0.7818608E-02  0.1156642E+00
         11   -1    0    0    0    0  0.00000000000E+00  0.00000000000E+00  0.10002457902E+04  0.10002457902E+04  0.51100000000E-03 0. -1.
          2   -1    0    0  501    0 -0.00000000000E+00 -0.00000000000E+00 -0.10732313678E+03  0.10732313681E+03  0.25500000000E-02 0. -1.
         11    1    1    2    0    0 -0.16897767663E+03 -0.68424282375E+02  0.85169352996E+03  0.87098634122E+03  0.51100000000E-03 0. -1.
         22    1    1    2    0    0 -0.59943635891E+01 -0.10701838209E+02  0.42822128857E+02  0.44544320128E+02  0.00000000000E+00 0. -1.
          2    1    1    2  501    0  0.17497204022E+03  0.79126120583E+02 -0.15930053645E+01  0.19203826569E+03  0.25500000000E-02 0. -1.
<mgrwt>
<rscale>  0 0.19203166E+03</rscale>
<asrwt>0</asrwt>
<pdfrwt beam="1">  1       11 0.10000000E+01 0.19503366E+03</pdfrwt>
<pdfrwt beam="2">  1        2 0.16515310E-01 0.19203166E+03</pdfrwt>
<totfact> 0.42367826E+02</totfact>
</mgrwt>
</event>
<event>
 5    1  0.2799727E-003  0.1385427E+03  0.7818608E-02  0.1215303E+00
         11   -1    0    0    0    0  0.00000000000E+00  0.00000000000E+00  0.99999891676E+03  0.99999891676E+03  0.51100000000E-03 0. -1.
          2   -1    0    0  501    0 -0.00000000000E+00 -0.00000000000E+00 -0.26625898641E+02  0.26625898763E+02  0.25500000000E-02 0.  1.
         11    1    1    2    0    0 -0.16247459021E+02  0.74139416088E+01  0.25899690136E+02  0.31460139926E+02  0.51100000000E-03 0. -1.
         22    1    1    2    0    0 -0.11208946079E+03  0.57462417137E+02  0.67919091616E+03  0.69077223251E+03  0.00000000000E+00 0. -1.
          2    1    1    2  501    0  0.12833691981E+03 -0.64876358746E+02  0.26828241182E+03  0.30439244309E+03  0.25500000000E-02 0.  1.
<mgrwt>
<rscale>  0 0.13854269E+03</rscale>
<asrwt>0</asrwt>
<pdfrwt beam="1">  1       11 0.10000000E+01 0.17859081E+02</pdfrwt>
<pdfrwt beam="2">  1        2 0.40962876E-02 0.13854269E+03</pdfrwt>
<totfact> 0.23858216E+03</totfact>
</mgrwt>
</event>
<event>
 5    1  0.2799727E-003  0.4391188E+03  0.7818608E-02  0.1033030E+00
         11   -1    0    0    0    0  0.00000000000E+00  0.00000000000E+00  0.10000477240E+04  0.10000477240E+04  0.51100000000E-03 0. -1.
         -2   -1    0    0    0  501 -0.00000000000E+00 -0.00000000000E+00 -0.42435949019E+03  0.42435949020E+03  0.25500000000E-02 0.  1.
         11    1    1    2    0    0  0.32239906269E+03  0.10234625391E+03  0.63513373335E+03  0.71959069654E+03  0.51100000000E-03 0. -1.
         22    1    1    2    0    0  0.76062622433E+02  0.66189463277E+02  0.18295459354E+03  0.20889937979E+03  0.00000000000E+00 0. -1.
         -2    1    1    2    0  501 -0.39846168512E+03 -0.16853571719E+03 -0.24240009310E+03  0.49591713785E+03  0.25500000000E-02 0.  1.
<mgrwt>
<rscale>  0 0.43263842E+03</rscale>
<asrwt>0</asrwt>
<pdfrwt beam="1">  1       11 0.10000000E+01 0.43911879E+03</pdfrwt>
<pdfrwt beam="2">  1       -2 0.65289189E-01 0.43263842E+03</pdfrwt>
<totfact> 0.17824837E+01</totfact>
</mgrwt>
</event>
<event>
 5    1  0.2799727E-003  0.2826580E+03  0.7818608E-02  0.1096109E+00
         11   -1    0    0    0    0  0.00000000000E+00  0.00000000000E+00  0.10003062641E+04  0.10003062641E+04  0.51100000000E-03 0. -1.
          2   -1    0    0  501    0 -0.00000000000E+00 -0.00000000000E+00 -0.97771150453E+02  0.97771150486E+02  0.25500000000E-02 0.  1.
         11    1    1    2    0    0  0.20634828258E+03 -0.15286284714E+03  0.60029996190E+03  0.65292167066E+03  0.51100000000E-03 0. -1.
         22    1    1    2    0    0  0.20021225178E+02 -0.10622888648E+02  0.94356502856E+02  0.97040428957E+02  0.00000000000E+00 0.  1.
          2    1    1    2  501    0 -0.22636950776E+03  0.16348573579E+03  0.20787864892E+03  0.34811531499E+03  0.25500000000E-02 0.  1.
<mgrwt>
<rscale>  0 0.27923241E+03</rscale>
<asrwt>0</asrwt>
<pdfrwt beam="1">  1       11 0.10000000E+01 0.28265800E+03</pdfrwt>
<pdfrwt beam="2">  1        2 0.15046322E-01 0.27923241E+03</pdfrwt>
<totfact> 0.47916036E+02</totfact>
</mgrwt>
</event>
<event>
 5    1  0.2799727E-003  0.2674788E+03  0.7818608E-02  0.1430189E+00
         11   -1    0    0    0    0  0.00000000000E+00  0.00000000000E+00  0.10002159978E+04  0.10002159978E+04  0.51100000000E-03 0.  1.
          2   -1    0    0  501    0 -0.00000000000E+00 -0.00000000000E+00 -0.80065175242E+03  0.80065175243E+03  0.25500000000E-02 0. -1.
         11    1    1    2    0    0 -0.11678037595E+03  0.29085830517E+03  0.28823997622E+02  0.31474915843E+03  0.51100000000E-03 0.  1.
         22    1    1    2    0    0  0.91860946510E+02 -0.24417025944E+03  0.80676503009E+03  0.84789584435E+03  0.00000000000E+00 0.  1.
          2    1    1    2  501    0  0.24919429441E+02 -0.46688045735E+02 -0.63602478235E+03  0.63822274743E+03  0.25500000000E-02 0. -1.
<mgrwt>
<rscale>  0 0.52922128E+02</rscale>
<asrwt>0</asrwt>
<pdfrwt beam="1">  1       11 0.10000000E+01 0.26747881E+03</pdfrwt>
<pdfrwt beam="2">  1        2 0.12320380E+00 0.52922128E+02</pdfrwt>
<totfact> 0.47031588E+01</totfact>
</mgrwt>
</event>
<event>
 5    1  0.2799727E-003  0.1769405E+03  0.7818608E-02  0.1177649E+00
         11   -1    0    0    0    0  0.00000000000E+00  0.00000000000E+00  0.10000174120E+04  0.10000174120E+04  0.51100000000E-03 0. -1.
          2   -1    0    0  501    0 -0.00000000000E+00 -0.00000000000E+00 -0.30156920200E+02  0.30156920308E+02  0.25500000000E-02 0.  1.
         11    1    1    2    0    0  0.12859751873E+02  0.15468885911E+02  0.24816601988E+02  0.31945631689E+02  0.51100000000E-03 0. -1.
         22    1    1    2    0    0  0.95597819737E+02  0.11568723814E+03  0.48640670870E+03  0.50903238254E+03  0.00000000000E+00 0. -1.
          2    1    1    2  501    0 -0.10845757161E+03 -0.13115612405E+03  0.45863718112E+03  0.48919631809E+03  0.25500000000E-02 0.  1.
<mgrwt>
<rscale>  0 0.17019099E+03</rscale>
<asrwt>0</asrwt>
<pdfrwt beam="1">  1       11 0.10000000E+01 0.17694049E+03</pdfrwt>
<pdfrwt beam="2">  1        2 0.46396068E-02 0.17019099E+03</pdfrwt>
<totfact> 0.20592619E+03</totfact>
</mgrwt>
</event>
<event>
 5    1  0.2799727E-003  0.6885404E+02  0.7818608E-02  0.1364034E+00
         11   -1    0    0    0    0  0.00000000000E+00  0.00000000000E+00  0.99994019164E+03  0.99994019164E+03  0.51100000000E-03 0.  1.
          2   -1    0    0  501    0 -0.00000000000E+00 -0.00000000000E+00 -0.11446829542E+02  0.11446829826E+02  0.25500000000E-02 0.  1.
         11    1    1    2    0    0 -0.33236319446E+01 -0.60962060268E+02  0.34659882143E+03  0.35193488366E+03  0.51100000000E-03 0.  1.
         22    1    1    2    0    0 -0.62735404851E+02  0.92812200449E+01  0.35203934597E+03  0.35770598706E+03  0.00000000000E+00 0.  1.
          2    1    1    2  501    0  0.66059036796E+02  0.51680840224E+02  0.28985519470E+03  0.30174615075E+03  0.25500000000E-02 0.  1.
<mgrwt>
<rscale>  0 0.68854036E+02</rscale>
<asrwt>0</asrwt>
<pdfrwt beam="1">  1       11 0.10000000E+01 0.61052595E+02</pdfrwt>
<pdfrwt beam="2">  1        2 0.17609453E-02 0.68854036E+02</pdfrwt>
<totfact> 0.67955931E+03</totfact>
</mgrwt>
</event>
<event>
 5    1  0.2799727E-003  0.1263912E+03  0.7818608E-02  0.1246726E+00
         11   -1    0    0    0    0  0.00000000000E+00  0.00000000000E+00  0.10002493346E+04  0.10002493346E+04  0.51100000000E-03 0.  1.
          2   -1    0    0  501    0 -0.00000000000E+00 -0.00000000000E+00 -0.15179436743E+02  0.15179436957E+02  0.25500000000E-02 0.  1.
         11    1    1    2    0    0 -0.45608954953E+01  0.72898554883E+02  0.29261371580E+03  0.30159208834E+03  0.51100000000E-03 0.  1.
         22    1    1    2    0    0 -0.35440743607E+02  0.37929816927E+02  0.28488071307E+03  0.28957164571E+03  0.00000000000E+00 0. -1.
          2    1    1    2  501    0  0.40001639102E+02 -0.11082837181E+03  0.40757546896E+03  0.42426503749E+03  0.25500000000E-02 0.  1.
<mgrwt>
<rscale>  0 0.11782639E+03</rscale>
<asrwt>0</asrwt>
<pdfrwt beam="1">  1       11 0.10000000E+01 0.12639124E+03</pdfrwt>
<pdfrwt beam="2">  1        2 0.23358802E-02 0.11782639E+03</pdfrwt>
<totfact> 0.49784984E+03</totfact>
</mgrwt>
</event>
<event>
 5    1  0.2799727E-003  0.1145151E+03  0.7818608E-02  0.1259480E+00
         11   -1    0    0    0    0  0.00000000000E+00  0.00000000000E+00  0.10003026894E+04  0.10003026894E+04  0.51100000000E-03 0. -1.
          2   -1    0    0  501    0 -0.00000000000E+00 -0.00000000000E+00 -0.12872972114E+02  0.12872972366E+02  0.25500000000E-02 0. -1.
         11    1    1    2    0    0  0.87067824247E+02 -0.51135926360E+02  0.37530276139E+03  0.38864875104E+03  0.51100000000E-03 0. -1.
         22    1    1    2    0    0  0.31325758988E+01 -0.12849862994E+02  0.62394235747E+02  0.63780660589E+02  0.00000000000E+00 0. -1.
          2    1    1    2  501    0 -0.90200400146E+02  0.63985789354E+02  0.54973272020E+03  0.56074625018E+03  0.25500000000E-02 0. -1.
<mgrwt>
<rscale>  0 0.11059066E+03</rscale>
<asrwt>0</asrwt>
<pdfrwt beam="1">  1       11 0.10000000E+01 0.11451511E+03</pdfrwt>
<pdfrwt beam="2">  1        2 0.19810567E-02 0.11059066E+03</pdfrwt>
<totfact> 0.61767368E+03</totfact>
</mgrwt>
</event>
<event>
 5    1  0.2799727E-003  0.1998792E+03  0.7818608E-02  0.1158445E+00
         11   -1    0    0    0    0  0.00000000000E+00  0.00000000000E+00  0.99976755988E+03  0.99976755988E+03  0.51100000000E-03 0.  1.
          2   -1    0    0  501    0 -0.00000000000E+00 -0.00000000000E+00 -0.88644110681E+02  0.88644110718E+02  0.25500000000E-02 0.  1.
         11    1    1    2    0    0 -0.14857820276E+03 -0.22140996065E+02  0.64345008921E+03  0.66075239186E+03  0.51100000000E-03 0.  1.
         22    1    1    2    0    0 -0.41369280006E+02  0.27303544778E+02  0.22828239119E+03  0.23360169309E+03  0.00000000000E+00 0.  1.
          2    1    1    2  501    0  0.18994748276E+03 -0.51625487128E+01  0.39390968790E+02  0.19405758564E+03  0.25500000000E-02 0.  1.
<mgrwt>
<rscale>  0 0.19001763E+03</rscale>
<asrwt>0</asrwt>
<pdfrwt beam="1">  1       11 0.10000000E+01 0.19987924E+03</pdfrwt>
<pdfrwt beam="2">  1        2 0.13634385E-01 0.19001763E+03</pdfrwt>
<totfact> 0.53118912E+02</totfact>
</mgrwt>
</event>
<event>
 5    1  0.2799727E-003  0.1905530E+03  0.7818608E-02  0.1162915E+00
         11   -1    0    0    0    0  0.00000000000E+00  0.00000000000E+00  0.10007504929E+04  0.10007504929E+04  0.51100000000E-03 0. -1.
          2   -1    0    0  501    0 -0.00000000000E+00 -0.00000000000E+00 -0.70988271918E+03  0.70988271918E+03  0.25500000000E-02 0. -1.
         11    1    1    2    0    0  0.13837322331E+02  0.31971477175E+02  0.11266563862E+03  0.11792876226E+03  0.51100000000E-03 0. -1.
         22    1    1    2    0    0  0.93948702479E+02  0.11856317674E+03  0.86667172145E+03  0.87977466339E+03  0.00000000000E+00 0. -1.
          2    1    1    2  501    0 -0.10778602481E+03 -0.15053465392E+03 -0.68846958631E+03  0.71292978648E+03  0.25500000000E-02 0. -1.
<mgrwt>
<rscale>  0 0.18514456E+03</rscale>
<asrwt>0</asrwt>
<pdfrwt beam="1">  1       11 0.10000000E+01 0.19055304E+03</pdfrwt>
<pdfrwt beam="2">  1        2 0.10929469E+00 0.18514456E+03</pdfrwt>
<totfact> 0.52025784E+01</totfact>
</mgrwt>
</event>
<event>
 5    1  0.2799727E-003  0.5939521E+03  0.7818608E-02  0.1243607E+00
         11   -1    0    0    0    0  0.00000000000E+00  0.00000000000E+00  0.99955369066E+03  0.99955369066E+03  0.51100000000E-03 0.  1.
          2   -1    0    0  501    0 -0.00000000000E+00 -0.00000000000E+00 -0.37483263400E+03  0.37483263400E+03  0.25500000000E-02 0.  1.
         11    1    1    2    0    0 -0.54049714233E+02 -0.59637774058E+03  0.30196481227E+03  0.67064933380E+03  0.51100000000E-03 0.  1.
         22    1    1    2    0    0  0.22894319435E+02  0.75909390794E+01 -0.10675062389E+02  0.26376678629E+02  0.00000000000E+00 0. -1.
          2    1    1    2  501    0  0.31155394798E+02  0.58878680150E+03  0.33343130678E+03  0.67736031224E+03  0.25500000000E-02 0.  1.
<mgrwt>
<rscale>  0 0.11969165E+03</rscale>
<asrwt>0</asrwt>
<pdfrwt beam="1">  1       11 0.10000000E+01 0.59395211E+03</pdfrwt>
<pdfrwt beam="2">  1        2 0.57640820E-01 0.11969165E+03</pdfrwt>
<totfact> 0.10701365E+02</totfact>
</mgrwt>
</event>
<event>
 5    1  0.2799727E-003  0.2643680E+03  0.7818608E-02  0.1120274E+00
         11   -1    0    0    0    0  0.00000000000E+00  0.00000000000E+00  0.10014791472E+04  0.10014791472E+04  0.51100000000E-03 0. -1.
          2   -1    0    0  501    0 -0.00000000000E+00 -0.00000000000E+00 -0.20644301602E+04  0.20644301602E+04  0.25500000000E-02 0. -1.
         11    1    1    2    0    0 -0.17484567360E+03 -0.22564559811E+03  0.57281669675E+03  0.64000461998E+03  0.51100000000E-03 0. -1.
         22    1    1    2    0    0 -0.56027358603E+02  0.28851357562E+03  0.33213935085E+03  0.44350388568E+03  0.00000000000E+00 0.  1.
          2    1    1    2  501    0  0.23087303220E+03 -0.62867977513E+02 -0.19679070606E+04  0.19824008018E+04  0.25500000000E-02 0. -1.
<mgrwt>
<rscale>  0 0.23927963E+03</rscale>
<asrwt>0</asrwt>
<pdfrwt beam="1">  1       11 0.10000000E+01 0.26436799E+03</pdfrwt>
<pdfrwt beam="2">  1        2 0.31807441E+00 0.23927963E+03</pdfrwt>
<totfact> 0.86913093E+00</totfact>
</mgrwt>
</event>
<event>
 5    1  0.2799727E-003  0.1924584E+03  0.7818608E-02  0.1161265E+00
         11   -1    0    0    0    0  0.00000000000E+00  0.00000000000E+00  0.10004595172E+04  0.10004595172E+04  0.51100000000E-03 0.  1.
          2   -1    0    0  501    0 -0.00000000000E+00 -0.00000000000E+00 -0.15978818670E+03  0.15978818672E+03  0.25500000000E-02 0.  1.
         11    1    1    2    0    0  0.85387595894E+02 -0.39291142088E+02  0.43092932330E+03  0.44106112621E+03  0.51100000000E-03 0.  1.
         22    1    1    2    0    0  0.98125464230E+02  0.37441338941E+01  0.50145230827E+03  0.51097655792E+03  0.00000000000E+00 0.  1.
          2    1    1    2  501    0 -0.18351306012E+03  0.35547008193E+02 -0.91710301043E+02  0.20821001982E+03  0.25500000000E-02 0.  1.
<mgrwt>
<rscale>  0 0.18692414E+03</rscale>
<asrwt>0</asrwt>
<pdfrwt beam="1">  1       11 0.10000000E+01 0.19245842E+03</pdfrwt>
<pdfrwt beam="2">  1        2 0.24594093E-01 0.18692414E+03</pdfrwt>
<totfact> 0.26875978E+02</totfact>
</mgrwt>
</event>
<event>
 5    1  0.2799727E-003  0.2941446E+03  0.7818608E-02  0.1088205E+00
         11   -1    0    0    0    0  0.00000000000E+00  0.00000000000E+00  0.10008754627E+04  0.10008754627E+04  0.51100000000E-03 0. -1.
          2   -1    0    0  501    0 -0.00000000000E+00 -0.00000000000E+00 -0.15122877057E+04  0.15122877057E+04  0.25500000000E-02 0. -1.
         11    1    1    2    0    0 -0.11480500228E+03 -0.13935231459E+02  0.18098472668E+03  0.21477860814E+03  0.51100000000E-03 0. -1.
         22    1    1    2    0    0 -0.17383630144E+03  0.80179412519E+02  0.77659322446E+03  0.79984050546E+03  0.00000000000E+00 0. -1.
          2    1    1    2  501    0  0.28864130372E+03 -0.66244181060E+02 -0.14689901941E+04  0.14985440548E+04  0.25500000000E-02 0. -1.
<mgrwt>
<rscale>  0 0.29414457E+03</rscale>
<asrwt>0</asrwt>
<pdfrwt beam="1">  1       11 0.10000000E+01 0.11564765E+03</pdfrwt>
<pdfrwt beam="2">  1        2 0.23286333E+00 0.29414457E+03</pdfrwt>
<totfact> 0.16720621E+01</totfact>
</mgrwt>
</event>
<event>
 5    1  0.2799727E-003  0.2983693E+03  0.7818608E-02  0.1086757E+00
         11   -1    0    0    0    0  0.00000000000E+00  0.00000000000E+00  0.10003339593E+04  0.10003339593E+04  0.51100000000E-03 0. -1.
          2   -1    0    0  501    0 -0.00000000000E+00 -0.00000000000E+00 -0.10257637571E+03  0.10257637574E+03  0.25500000000E-02 0.  1.
         11    1    1    2    0    0  0.28252354362E+03  0.30067851119E+02  0.62364138153E+03  0.68531175469E+03  0.51100000000E-03 0. -1.
         22    1    1    2    0    0  0.12069010256E+02  0.75539797986E+01  0.29824054683E+02  0.33048416862E+02  0.00000000000E+00 0.  1.
          2    1    1    2  501    0 -0.29459255387E+03 -0.37621830918E+02  0.24429214741E+03  0.38455016350E+03  0.25500000000E-02 0.  1.
<mgrwt>
<rscale>  0 0.29698514E+03</rscale>
<asrwt>0</asrwt>
<pdfrwt beam="1">  1       11 0.10000000E+01 0.29836933E+03</pdfrwt>
<pdfrwt beam="2">  1        2 0.15786251E-01 0.29698514E+03</pdfrwt>
<totfact> 0.45346065E+02</totfact>
</mgrwt>
</event>
<event>
 5    1  0.2799727E-003  0.1014170E+03  0.7818608E-02  0.1285524E+00
         11   -1    0    0    0    0  0.00000000000E+00  0.00000000000E+00  0.99984506299E+03  0.99984506299E+03  0.51100000000E-03 0. -1.
          2   -1    0    0  501    0 -0.00000000000E+00 -0.00000000000E+00 -0.10214912007E+02  0.10214912325E+02  0.25500000000E-02 0.  1.
         11    1    1    2    0    0 -0.18774499674E+02  0.98222375050E+01  0.57606828928E+02  0.61380004293E+02  0.51100000000E-03 0. -1.
         22    1    1    2    0    0 -0.45924612459E+02  0.63190828065E+02  0.35771082030E+03  0.36614093153E+03  0.00000000000E+00 0. -1.
          2    1    1    2  501    0  0.64699112134E+02 -0.73013065570E+02  0.57431250176E+03  0.58253903950E+03  0.25500000000E-02 0.  1.
<mgrwt>
<rscale>  0 0.97554512E+02</rscale>
<asrwt>0</asrwt>
<pdfrwt beam="1">  1       11 0.10000000E+01 0.10141697E+03</pdfrwt>
<pdfrwt beam="2">  1        2 0.15712814E-02 0.97554512E+02</pdfrwt>
<totfact> 0.83249398E+03</totfact>
</mgrwt>
</event>
<event>
 5    1  0.2799727E-003  0.1845291E+03  0.7818608E-02  0.1548775E+00
         11   -1    0    0    0    0  0.00000000000E+00  0.00000000000E+00  0.10004123572E+04  0.10004123572E+04  0.51100000000E-03 0.  1.
         -2   -1    0    0    0  501 -0.00000000000E+00 -0.00000000000E+00 -0.91597029111E+02  0.91597029146E+02  0.25500000000E-02 0.  1.
         11    1    1    2    0    0  0.29033644996E+02 -0.18508043476E+03  0.59353096384E+03  0.62239595509E+03  0.51100000000E-03 0.  1.
         22    1    1    2    0    0 -0.61333350540E+02  0.17165080162E+03  0.36549062524E+03  0.40842278918E+03  0.00000000000E+00 0.  1.
         -2    1    1    2    0  501  0.32299705544E+02  0.13429633137E+02 -0.50206261010E+02  0.61190642058E+02  0.25500000000E-02 0.  1.
<mgrwt>
<rscale>  0 0.34980366E+02</rscale>
<asrwt>0</asrwt>
<pdfrwt beam="1">  1       11 0.10000000E+01 0.18452914E+03</pdfrwt>
<pdfrwt beam="2">  1       -2 0.14097661E-01 0.34980366E+02</pdfrwt>
<totfact> 0.27209168E+02</totfact>
</mgrwt>
</event>
<event>
 5    1  0.2799727E-003  0.4411102E+02  0.7818608E-02  0.1617268E+00
         11   -1    0    0    0    0  0.00000000000E+00  0.00000000000E+00  0.10000162396E+04  0.10000162396E+04  0.51100000000E-03 0.  1.
          2   -1    0    0  501    0 -0.00000000000E+00 -0.00000000000E+00 -0.52973575846E+01  0.52973581983E+01  0.25500000000E-02 0.  1.
         11    1    1    2    0    0 -0.28927962037E+02  0.31885480051E+02  0.17519823321E+03  0.18041045354E+03  0.51100000000E-03 0.  1.
         22    1    1    2    0    0 -0.12249232811E+02 -0.13461009847E+02  0.38546058800E+02  0.42626765531E+02  0.00000000000E+00 0.  1.
          2    1    1    2  501    0  0.41177194849E+02 -0.18424470204E+02  0.78097458999E+03  0.78227637871E+03  0.25500000000E-02 0.  1.
<mgrwt>
<rscale>  0 0.28334136E+02</rscale>
<asrwt>0</asrwt>
<pdfrwt beam="1">  1       11 0.10000000E+01 0.44111024E+02</pdfrwt>
<pdfrwt beam="2">  1        2 0.81499135E-03 0.28334136E+02</pdfrwt>
<totfact> 0.16132289E+04</totfact>
</mgrwt>
</event>
<event>
 5    1  0.2799727E-003  0.1647972E+03  0.7818608E-02  0.1431613E+00
         11   -1    0    0    0    0  0.00000000000E+00  0.00000000000E+00  0.10003121832E+04  0.10003121832E+04  0.51100000000E-03 0. -1.
          2   -1    0    0  501    0 -0.00000000000E+00 -0.00000000000E+00 -0.23166706282E+03  0.23166706284E+03  0.25500000000E-02 0. -1.
         11    1    1    2    0    0 -0.13057742282E+03  0.78473098556E+02 -0.18130371941E+02  0.15341838526E+03  0.51100000000E-03 0. -1.
         22    1    1    2    0    0  0.10853311654E+03 -0.12627239027E+03  0.92019252615E+03  0.93513551912E+03  0.00000000000E+00 0. -1.
          2    1    1    2  501    0  0.22044306290E+02  0.47799291713E+02 -0.13341703380E+03  0.14342534170E+03  0.25500000000E-02 0. -1.
<mgrwt>
<rscale>  0 0.52637665E+02</rscale>
<asrwt>0</asrwt>
<pdfrwt beam="1">  1       11 0.10000000E+01 0.16479717E+03</pdfrwt>
<pdfrwt beam="2">  1        2 0.35652212E-01 0.52637665E+02</pdfrwt>
<totfact> 0.17529685E+02</totfact>
</mgrwt>
</event>
<event>
 5    1  0.2799727E-003  0.1081399E+03  0.7818608E-02  0.1517359E+00
         11   -1    0    0    0    0  0.00000000000E+00  0.00000000000E+00  0.10002963698E+04  0.10002963698E+04  0.51100000000E-03 0.  1.
         -2   -1    0    0    0  501 -0.00000000000E+00 -0.00000000000E+00 -0.47572935663E+02  0.47572935732E+02  0.25500000000E-02 0. -1.
         11    1    1    2    0    0  0.51584164244E+02  0.11187738941E+03  0.72887731958E+03  0.73921554587E+03  0.51100000000E-03 0.  1.
         22    1    1    2    0    0 -0.46870892271E+02 -0.73381377866E+02  0.24808300019E+03  0.26291991583E+03  0.00000000000E+00 0. -1.
         -2    1    1    2    0  501 -0.47132719730E+01 -0.38496011548E+02 -0.24236885643E+02  0.45733843813E+02  0.25500000000E-02 0. -1.
<mgrwt>
<rscale>  0 0.38783474E+02</rscale>
<asrwt>0</asrwt>
<pdfrwt beam="1">  1       11 0.10000000E+01 0.10813990E+03</pdfrwt>
<pdfrwt beam="2">  1       -2 0.73210821E-02 0.38783474E+02</pdfrwt>
<totfact> 0.74250800E+02</totfact>
</mgrwt>
</event>
<event>
 5    1  0.2799727E-003  0.2268803E+03  0.7818608E-02  0.1128855E+00
         11   -1    0    0    0    0  0.00000000000E+00  0.00000000000E+00  0.10000184788E+04  0.10000184788E+04  0.51100000000E-03 0. -1.
         -2   -1    0    0    0  501 -0.00000000000E+00 -0.00000000000E+00 -0.87635247430E+02  0.87635247467E+02  0.25500000000E-02 0.  1.
         11    1    1    2    0    0 -0.19229408338E+03 -0.11343318967E+03  0.65718364071E+03  0.69407091903E+03  0.51100000000E-03 0. -1.
         22    1    1    2    0    0  0.92137270602E+01 -0.22768818310E+02  0.13199147608E+03  0.13425744527E+03  0.00000000000E+00 0.  1.
         -2    1    1    2    0  501  0.18308035632E+03  0.13620200798E+03  0.12320811455E+03  0.25932536194E+03  0.25500000000E-02 0.  1.
<mgrwt>
<rscale>  0 0.22688033E+03</rscale>
<asrwt>0</asrwt>
<pdfrwt beam="1">  1       11 0.10000000E+01 0.24562407E+02</pdfrwt>
<pdfrwt beam="2">  1       -2 0.13482595E-01 0.22688033E+03</pdfrwt>
<totfact> 0.32468447E+02</totfact>
</mgrwt>
</event>
<event>
 5    1  0.2799727E-003  0.2205432E+03  0.7818608E-02  0.1133479E+00
         11   -1    0    0    0    0  0.00000000000E+00  0.00000000000E+00  0.10001045917E+04  0.10001045917E+04  0.51100000000E-03 0. -1.
          2   -1    0    0  501    0 -0.00000000000E+00 -0.00000000000E+00 -0.16970415894E+04  0.16970415894E+04  0.25500000000E-02 0. -1.
         11    1    1    2    0    0  0.30867417473E+02 -0.74376461244E+02  0.46099640117E+02  0.92789181846E+02  0.51100000000E-03 0. -1.
         22    1    1    2    0    0 -0.20700436545E+03 -0.58607816468E+02  0.91079734902E+03  0.93586189924E+03  0.00000000000E+00 0. -1.
          2    1    1    2  501    0  0.17613694798E+03  0.13298427771E+03 -0.16538339868E+04  0.16684950999E+04  0.25500000000E-02 0. -1.
<mgrwt>
<rscale>  0 0.22054320E+03</rscale>
<asrwt>0</asrwt>
<pdfrwt beam="1">  1       11 0.10000000E+01 0.80527358E+02</pdfrwt>
<pdfrwt beam="2">  1        2 0.26111062E+00 0.22054320E+03</pdfrwt>
<totfact> 0.13676133E+01</totfact>
</mgrwt>
</event>
<event>
 5    1  0.2799727E-003  0.3272689E+03  0.7818608E-02  0.1077223E+00
         11   -1    0    0    0    0  0.00000000000E+00  0.00000000000E+00  0.99981445232E+03  0.99981445232E+03  0.51100000000E-03 0.  1.
          2   -1    0    0  501    0 -0.00000000000E+00 -0.00000000000E+00 -0.11968510566E+04  0.11968510566E+04  0.25500000000E-02 0.  1.
         11    1    1    2    0    0  0.18282872308E+03 -0.19190629807E+03  0.86664938323E+03  0.90627563283E+03  0.51100000000E-03 0.  1.
         22    1    1    2    0    0  0.26709114090E+02 -0.45436018779E+02  0.84369600636E+02  0.99478832369E+02  0.00000000000E+00 0. -1.
          2    1    1    2  501    0 -0.20953783717E+03  0.23734231685E+03 -0.11480555881E+04  0.11909110437E+04  0.25500000000E-02 0.  1.
<mgrwt>
<rscale>  0 0.31660303E+03</rscale>
<asrwt>0</asrwt>
<pdfrwt beam="1">  1       11 0.10000000E+01 0.32726891E+03</pdfrwt>
<pdfrwt beam="2">  1        2 0.18409676E+00 0.31660303E+03</pdfrwt>
<totfact> 0.24911097E+01</totfact>
</mgrwt>
</event>
<event>
 5    1  0.2799727E-003  0.1319128E+03  0.7818608E-02  0.1224645E+00
         11   -1    0    0    0    0  0.00000000000E+00  0.00000000000E+00  0.10001430273E+04  0.10001430273E+04  0.51100000000E-03 0. -1.
          2   -1    0    0  501    0 -0.00000000000E+00 -0.00000000000E+00 -0.10982879038E+04  0.10982879038E+04  0.25500000000E-02 0. -1.
         11    1    1    2    0    0 -0.46914535425E+02 -0.57572964290E+02  0.37246677065E+03  0.37979878237E+03  0.51100000000E-03 0. -1.
         22    1    1    2    0    0  0.97202166602E+02 -0.64623442768E+02  0.61450856279E+03  0.62549598263E+03  0.00000000000E+00 0. -1.
          2    1    1    2  501    0 -0.50287631177E+02  0.12219640706E+03 -0.10851202100E+04  0.10931361662E+04  0.25500000000E-02 0. -1.
<mgrwt>
<rscale>  0 0.13191276E+03</rscale>
<asrwt>0</asrwt>
<pdfrwt beam="1">  1       11 0.10000000E+01 0.74267219E+02</pdfrwt>
<pdfrwt beam="2">  1        2 0.16899153E+00 0.13191276E+03</pdfrwt>
<totfact> 0.29802380E+01</totfact>
</mgrwt>
</event>
<event>
 5    1  0.2799727E-003  0.1569654E+03  0.7818608E-02  0.1327117E+00
         11   -1    0    0    0    0  0.00000000000E+00  0.00000000000E+00  0.10002584095E+04  0.10002584095E+04  0.51100000000E-03 0. -1.
         -2   -1    0    0    0  501 -0.00000000000E+00 -0.00000000000E+00 -0.34018148717E+03  0.34018148718E+03  0.25500000000E-02 0. -1.
         11    1    1    2    0    0 -0.17273896553E+02  0.20138639781E+03  0.44536669373E+03  0.48908727300E+03  0.51100000000E-03 0. -1.
         22    1    1    2    0    0 -0.31051703766E+02 -0.13677361380E+03  0.51844615708E+03  0.53708253325E+03  0.00000000000E+00 0. -1.
         -2    1    1    2    0  501  0.48325600319E+02 -0.64612784009E+02 -0.30373592846E+03  0.31427009044E+03  0.25500000000E-02 0. -1.
<mgrwt>
<rscale>  0 0.80685659E+02</rscale>
<asrwt>0</asrwt>
<pdfrwt beam="1">  1       11 0.10000000E+01 0.15696536E+03</pdfrwt>
<pdfrwt beam="2">  1       -2 0.52349136E-01 0.80685659E+02</pdfrwt>
<totfact> 0.28475118E+01</totfact>
</mgrwt>
</event>
<event>
 5    1  0.2799727E-003  0.3726577E+03  0.7818608E-02  0.1056831E+00
         11   -1    0    0    0    0  0.00000000000E+00  0.00000000000E+00  0.10004515815E+04  0.10004515815E+04  0.51100000000E-03 0. -1.
          2   -1    0    0  501    0 -0.00000000000E+00 -0.00000000000E+00 -0.78753902183E+03  0.78753902184E+03  0.25500000000E-02 0. -1.
         11    1    1    2    0    0  0.14052897630E+03  0.11730749620E+03  0.44671197129E+03  0.48276394556E+03  0.51100000000E-03 0. -1.
         22    1    1    2    0    0  0.83390097776E+02  0.17025618223E+03  0.47322770208E+03  0.50978969586E+03  0.00000000000E+00 0. -1.
          2    1    1    2  501    0 -0.22391907408E+03 -0.28756367843E+03 -0.70702711369E+03  0.79543696192E+03  0.25500000000E-02 0. -1.
<mgrwt>
<rscale>  0 0.36446210E+03</rscale>
<asrwt>0</asrwt>
<pdfrwt beam="1">  1       11 0.10000000E+01 0.37265766E+03</pdfrwt>
<pdfrwt beam="2">  1        2 0.12121456E+00 0.36446210E+03</pdfrwt>
<totfact> 0.44721780E+01</totfact>
</mgrwt>
</event>
<event>
 5    1  0.2799727E-003  0.3145493E+03  0.7818608E-02  0.1083288E+00
         11   -1    0    0    0    0  0.00000000000E+00  0.00000000000E+00  0.10001523769E+04  0.10001523769E+04  0.51100000000E-03 0. -1.
          2   -1    0    0  501    0 -0.00000000000E+00 -0.00000000000E+00 -0.72207970847E+03  0.72207970848E+03  0.25500000000E-02 0. -1.
         11    1    1    2    0    0 -0.17070769083E+03 -0.30159741356E+02  0.40591835297E+03  0.44138467915E+03  0.51100000000E-03 0. -1.
         22    1    1    2    0    0 -0.12845884720E+03 -0.23484609259E+02  0.53549638550E+03  0.55118924262E+03  0.00000000000E+00 0. -1.
          2    1    1    2  501    0  0.29916653804E+03  0.53644350615E+02 -0.66334207004E+03  0.72965816361E+03  0.25500000000E-02 0. -1.
<mgrwt>
<rscale>  0 0.30393804E+03</rscale>
<asrwt>0</asrwt>
<pdfrwt beam="1">  1       11 0.10000000E+01 0.31454933E+03</pdfrwt>
<pdfrwt beam="2">  1        2 0.11110611E+00 0.30393804E+03</pdfrwt>
<totfact> 0.50212826E+01</totfact>
</mgrwt>
</event>
<event>
 5    1  0.4233023E-003  0.2429090E+03  0.7818608E-02  0.1120792E+00
         11   -1    0    0    0    0  0.00000000000E+00  0.00000000000E+00  0.10002521376E+04  0.10002521376E+04  0.51100000000E-03 0. -1.
          2   -1    0    0  501    0 -0.00000000000E+00 -0.00000000000E+00 -0.96951568037E+03  0.96951568037E+03  0.25500000000E-02 0.  1.
         11    1    1    2    0    0 -0.18946203348E+03  0.11024588812E+03  0.85267730385E+03  0.88040252299E+03  0.51100000000E-03 0. -1.
         22    1    1    2    0    0 -0.22886453600E+02 -0.16498585513E+01  0.11770592312E+03  0.11992162494E+03  0.00000000000E+00 0. -1.
          2    1    1    2  501    0  0.21234848708E+03 -0.10859602957E+03 -0.93964676971E+03  0.96944367007E+03  0.25500000000E-02 0.  1.
<mgrwt>
<rscale>  0 0.23850572E+03</rscale>
<asrwt>0</asrwt>
<pdfrwt beam="1">  1       11 0.10000000E+01 0.24290902E+03</pdfrwt>
<pdfrwt beam="2">  1        2 0.14919386E+00 0.23850572E+03</pdfrwt>
<totfact> 0.34496139E+01</totfact>
</mgrwt>
</event>
<event>
 5    1  0.2799727E-003  0.2653952E+03  0.7818608E-02  0.1103944E+00
         11   -1    0    0    0    0  0.00000000000E+00  0.00000000000E+00  0.10001200163E+04  0.10001200163E+04  0.51100000000E-03 0. -1.
         -2   -1    0    0    0  501 -0.00000000000E+00 -0.00000000000E+00 -0.37545489138E+03  0.37545489139E+03  0.25500000000E-02 0.  1.
         11    1    1    2    0    0  0.24202506608E+03  0.95117324655E+02  0.83028572421E+03  0.87005621766E+03  0.51100000000E-03 0. -1.
         22    1    1    2    0    0 -0.45165150633E+01  0.24141402120E+02  0.98568985750E+02  0.10158273060E+03  0.00000000000E+00 0.  1.
         -2    1    1    2    0  501 -0.23750855102E+03 -0.11925872677E+03 -0.30418958500E+03  0.40393595946E+03  0.25500000000E-02 0.  1.
<mgrwt>
<rscale>  0 0.26539521E+03</rscale>
<asrwt>0</asrwt>
<pdfrwt beam="1">  1       11 0.10000000E+01 0.24560257E+02</pdfrwt>
<pdfrwt beam="2">  1       -2 0.57769222E-01 0.26539521E+03</pdfrwt>
<totfact> 0.23193775E+01</totfact>
</mgrwt>
</event>
<event>
 5    1  0.2799727E-003  0.1477980E+03  0.7818608E-02  0.1203205E+00
         11   -1    0    0    0    0  0.00000000000E+00  0.00000000000E+00  0.10002655200E+04  0.10002655200E+04  0.51100000000E-03 0. -1.
          2   -1    0    0  501    0 -0.00000000000E+00 -0.00000000000E+00 -0.35340479142E+02  0.35340479234E+02  0.25500000000E-02 0. -1.
         11    1    1    2    0    0 -0.27217150077E+02 -0.14084327340E+03  0.50668989593E+03  0.52660445455E+03  0.51100000000E-03 0. -1.
         22    1    1    2    0    0  0.53330318778E+02 -0.10232265101E+02  0.21277030873E+03  0.21959058820E+03  0.00000000000E+00 0. -1.
          2    1    1    2  501    0 -0.26113168702E+02  0.15107553850E+03  0.24546483623E+03  0.28941095651E+03  0.25500000000E-02 0. -1.
<mgrwt>
<rscale>  0 0.14779801E+03</rscale>
<asrwt>0</asrwt>
<pdfrwt beam="1">  1       11 0.10000000E+01 0.54303058E+02</pdfrwt>
<pdfrwt beam="2">  1        2 0.54384403E-02 0.14779801E+03</pdfrwt>
<totfact> 0.16536259E+03</totfact>
</mgrwt>
</event>
<event>
 5    1  0.2799727E-003  0.2659114E+03  0.7818608E-02  0.1112595E+00
         11   -1    0    0    0    0  0.00000000000E+00  0.00000000000E+00  0.10009718488E+04  0.10009718488E+04  0.51100000000E-03 0.  1.
          2   -1    0    0  501    0 -0.00000000000E+00 -0.00000000000E+00 -0.22562012529E+04  0.22562012529E+04  0.25500000000E-02 0.  1.
         11    1    1    2    0    0 -0.94636986629E+02  0.16993588257E+03  0.69987156923E+03  0.72639835961E+03  0.51100000000E-03 0.  1.
         22    1    1    2    0    0 -0.67962869827E+02  0.21443502595E+02  0.27627161595E+03  0.28531523138E+03  0.00000000000E+00 0. -1.
          2    1    1    2  501    0  0.16259985646E+03 -0.19137938516E+03 -0.22313725892E+04  0.22454595107E+04  0.25500000000E-02 0.  1.
<mgrwt>
<rscale>  0 0.25112702E+03</rscale>
<asrwt>0</asrwt>
<pdfrwt beam="1">  1       11 0.10000000E+01 0.26591140E+03</pdfrwt>
<pdfrwt beam="2">  1        2 0.34744521E+00 0.25112702E+03</pdfrwt>
<totfact> 0.68531304E+00</totfact>
</mgrwt>
</event>
<event>
 5    1  0.2799727E-003  0.1057746E+03  0.7818608E-02  0.1272364E+00
         11   -1    0    0    0    0  0.00000000000E+00  0.00000000000E+00  0.10002322165E+04  0.10002322165E+04  0.51100000000E-03 0. -1.
          2   -1    0    0  501    0 -0.00000000000E+00 -0.00000000000E+00 -0.12681192616E+02  0.12681192872E+02  0.25500000000E-02 0. -1.
         11    1    1    2    0    0 -0.27006457090E+02 -0.20207168024E+02  0.78542978411E+02  0.85479107518E+02  0.51100000000E-03 0. -1.
         22    1    1    2    0    0 -0.65208638085E+02 -0.27596305470E+02  0.23390603558E+03  0.24438853499E+03  0.00000000000E+00 0. -1.
          2    1    1    2  501    0  0.92215095174E+02  0.47803473494E+02  0.67510200988E+03  0.68304576685E+03  0.25500000000E-02 0. -1.
<mgrwt>
<rscale>  0 0.10386913E+03</rscale>
<asrwt>0</asrwt>
<pdfrwt beam="1">  1       11 0.10000000E+01 0.10577464E+03</pdfrwt>
<pdfrwt beam="2">  1        2 0.19514057E-02 0.10386913E+03</pdfrwt>
<totfact> 0.62548152E+03</totfact>
</mgrwt>
</event>
<event>
 5    1  0.2799727E-003  0.1490974E+03  0.7818608E-02  0.1208240E+00
         11   -1    0    0    0    0  0.00000000000E+00  0.00000000000E+00  0.99980145310E+03  0.99980145311E+03  0.51100000000E-03 0.  1.
          2   -1    0    0  501    0 -0.00000000000E+00 -0.00000000000E+00 -0.22293229880E+02  0.22293230026E+02  0.25500000000E-02 0.  1.
         11    1    1    2    0    0  0.59824277474E+02  0.56729523443E+02  0.22205851761E+03  0.23686951734E+03  0.51100000000E-03 0.  1.
         22    1    1    2    0    0  0.64984041183E+02  0.14795145562E+02  0.17626872732E+03  0.18844756876E+03  0.00000000000E+00 0.  1.
          2    1    1    2  501    0 -0.12480831866E+03 -0.71524669006E+02  0.57918097830E+03  0.59677759703E+03  0.25500000000E-02 0.  1.
<mgrwt>
<rscale>  0 0.14385025E+03</rscale>
<asrwt>0</asrwt>
<pdfrwt beam="1">  1       11 0.10000000E+01 0.14909738E+03</pdfrwt>
<pdfrwt beam="2">  1        2 0.34290466E-02 0.14385025E+03</pdfrwt>
<totfact> 0.30330635E+03</totfact>
</mgrwt>
</event>
<event>
 5    1  0.2799727E-003  0.7661746E+02  0.7818608E-02  0.1346750E+00
         11   -1    0    0    0    0  0.00000000000E+00  0.00000000000E+00  0.10001481026E+04  0.10001481026E+04  0.51100000000E-03 0.  1.
          2   -1    0    0  501    0 -0.00000000000E+00 -0.00000000000E+00 -0.10111677980E+02  0.10111678301E+02  0.25500000000E-02 0.  1.
         11    1    1    2    0    0  0.35530336800E+02  0.24018309140E+02  0.72064239233E+02  0.83860232432E+02  0.51100000000E-03 0.  1.
         22    1    1    2    0    0  0.24240744356E+02  0.19741961933E+02  0.93122046067E+02  0.98229701270E+02  0.00000000000E+00 0.  1.
          2    1    1    2  501    0 -0.59771081156E+02 -0.43760271073E+02  0.82485013929E+03  0.82816984717E+03  0.25500000000E-02 0.  1.
<mgrwt>
<rscale>  0 0.74077955E+02</rscale>
<asrwt>0</asrwt>
<pdfrwt beam="1">  1       11 0.10000000E+01 0.76617460E+02</pdfrwt>
<pdfrwt beam="2">  1        2 0.15558731E-02 0.74077955E+02</pdfrwt>
<totfact> 0.81135027E+03</totfact>
</mgrwt>
</event>
<event>
 5    1  0.2799727E-003  0.2090025E+03  0.7818608E-02  0.1144829E+00
         11   -1    0    0    0    0  0.00000000000E+00  0.00000000000E+00  0.10003201192E+04  0.10003201192E+04  0.51100000000E-03 0.  1.
          2   -1    0    0  501    0 -0.00000000000E+00 -0.00000000000E+00 -0.55047170834E+02  0.55047170893E+02  0.25500000000E-02 0.  1.
         11    1    1    2    0    0  0.10515153909E+03  0.15636933327E+03  0.68459535063E+03  0.71005563772E+03  0.51100000000E-03 0.  1.
         22    1    1    2    0    0  0.54871967532E+01  0.17316711574E+02  0.37334017443E+02  0.41518751021E+02  0.00000000000E+00 0.  1.
          2    1    1    2  501    0 -0.11063873584E+03 -0.17368604484E+03  0.22334358026E+03  0.30379290132E+03  0.25500000000E-02 0.  1.
<mgrwt>
<rscale>  0 0.20593147E+03</rscale>
<asrwt>0</asrwt>
<pdfrwt beam="1">  1       11 0.10000000E+01 0.20900251E+03</pdfrwt>
<pdfrwt beam="2">  1        2 0.84715063E-02 0.20593147E+03</pdfrwt>
<totfact> 0.95739168E+02</totfact>
</mgrwt>
</event>
<event>
 5    1  0.2799727E-003  0.1921552E+03  0.7818608E-02  0.1162421E+00
         11   -1    0    0    0    0  0.00000000000E+00  0.00000000000E+00  0.10000667529E+04  0.10000667529E+04  0.51100000000E-03 0. -1.
          2   -1    0    0  501    0 -0.00000000000E+00 -0.00000000000E+00 -0.35782185533E+02  0.35782185624E+02  0.25500000000E-02 0. -1.
         11    1    1    2    0    0 -0.13932498220E+03 -0.26497815454E+02  0.37492188311E+03  0.40084910293E+03  0.51100000000E-03 0. -1.
         22    1    1    2    0    0 -0.35759809262E+02 -0.35312250942E+02  0.14224502105E+03  0.15086207289E+03  0.00000000000E+00 0. -1.
          2    1    1    2  501    0  0.17508479146E+03  0.61810066396E+02  0.44711766324E+03  0.48413776273E+03  0.25500000000E-02 0. -1.
<mgrwt>
<rscale>  0 0.18567490E+03</rscale>
<asrwt>0</asrwt>
<pdfrwt beam="1">  1       11 0.10000000E+01 0.19215518E+03</pdfrwt>
<pdfrwt beam="2">  1        2 0.55053189E-02 0.18567490E+03</pdfrwt>
<totfact> 0.16556065E+03</totfact>
</mgrwt>
</event>
<event>
 5    1  0.2799727E-003  0.2941462E+03  0.7818608E-02  0.1286508E+00
         11   -1    0    0    0    0  0.00000000000E+00  0.00000000000E+00  0.10002882508E+04  0.10002882508E+04  0.51100000000E-03 0.  1.
          2   -1    0    0  501    0 -0.00000000000E+00 -0.00000000000E+00 -0.16819329735E+03  0.16819329737E+03  0.25500000000E-02 0.  1.
         11    1    1    2    0    0  0.27784548458E+03 -0.11692905794E+03  0.77290608197E+03  0.82961095065E+03  0.51100000000E-03 0.  1.
         22    1    1    2    0    0 -0.31256412088E+02  0.71138269291E+01 -0.40024667742E+02  0.51279078171E+02  0.00000000000E+00 0.  1.
          2    1    1    2  501    0 -0.24658907249E+03  0.10981523101E+03  0.99213539226E+02  0.28759151936E+03  0.25500000000E-02 0.  1.
<mgrwt>
<rscale>  0 0.97103398E+02</rscale>
<asrwt>0</asrwt>
<pdfrwt beam="1">  1       11 0.10000000E+01 0.29414616E+03</pdfrwt>
<pdfrwt beam="2">  1        2 0.25883350E-01 0.97103398E+02</pdfrwt>
<totfact> 0.24988948E+02</totfact>
</mgrwt>
</event>
<event>
 5    1  0.2799727E-003  0.2431767E+03  0.7818608E-02  0.1118330E+00
         11   -1    0    0    0    0  0.00000000000E+00  0.00000000000E+00  0.10002751872E+04  0.10002751872E+04  0.51100000000E-03 0.  1.
         -2   -1    0    0    0  501 -0.00000000000E+00 -0.00000000000E+00 -0.80976471167E+02  0.80976471207E+02  0.25500000000E-02 0. -1.
         11    1    1    2    0    0 -0.10921808295E+03 -0.20312246683E+03  0.68948163153E+03  0.72702974244E+03  0.51100000000E-03 0.  1.
         22    1    1    2    0    0 -0.59819578875E+01 -0.99370442092E+01  0.53218871441E+02  0.54468127793E+02  0.00000000000E+00 0. -1.
         -2    1    1    2    0  501  0.11520004084E+03  0.21305951104E+03  0.17659821304E+03  0.29975378815E+03  0.25500000000E-02 0. -1.
<mgrwt>
<rscale>  0 0.24220942E+03</rscale>
<asrwt>0</asrwt>
<pdfrwt beam="1">  1       11 0.10000000E+01 0.24317665E+03</pdfrwt>
<pdfrwt beam="2">  1       -2 0.12461347E-01 0.24220942E+03</pdfrwt>
<totfact> 0.37017341E+02</totfact>
</mgrwt>
</event>
<event>
 5    1  0.2799727E-003  0.3197720E+03  0.7818608E-02  0.1075754E+00
         11   -1    0    0    0    0  0.00000000000E+00  0.00000000000E+00  0.99995270197E+03  0.99995270197E+03  0.51100000000E-03 0. -1.
          2   -1    0    0  501    0 -0.00000000000E+00 -0.00000000000E+00 -0.44047650104E+03  0.44047650105E+03  0.25500000000E-02 0. -1.
         11    1    1    2    0    0  0.35909186474E+03 -0.69107931628E+02  0.74185764202E+03  0.82708864975E+03  0.51100000000E-03 0. -1.
         22    1    1    2    0    0 -0.75300079098E+02 -0.71984725859E+02  0.13117839437E+03  0.16751022005E+03  0.00000000000E+00 0. -1.
          2    1    1    2  501    0 -0.28379178564E+03  0.14109265749E+03 -0.31355983546E+03  0.44583033322E+03  0.25500000000E-02 0. -1.
<mgrwt>
<rscale>  0 0.31977204E+03</rscale>
<asrwt>0</asrwt>
<pdfrwt beam="1">  1       11 0.10000000E+01 0.10417247E+03</pdfrwt>
<pdfrwt beam="2">  1        2 0.67762408E-01 0.31977204E+03</pdfrwt>
<totfact> 0.89135158E+01</totfact>
</mgrwt>
</event>
<event>
 5    1  0.2799727E-003  0.6203820E+02  0.7818608E-02  0.1395060E+00
         11   -1    0    0    0    0  0.00000000000E+00  0.00000000000E+00  0.10002937794E+04  0.10002937794E+04  0.51100000000E-03 0. -1.
         -2   -1    0    0    0  501 -0.00000000000E+00 -0.00000000000E+00 -0.40609773235E+01  0.40609781241E+01  0.25500000000E-02 0. -1.
         11    1    1    2    0    0  0.99007336448E+01 -0.36547746236E+02  0.22829676054E+03  0.23141558538E+03  0.51100000000E-03 0. -1.
         22    1    1    2    0    0  0.15459890302E+02 -0.18562436013E+02  0.13894772245E+03  0.14103205952E+03  0.00000000000E+00 0. -1.
         -2    1    1    2    0  501 -0.25360623947E+02  0.55110182248E+02  0.62898831910E+03  0.63190711264E+03  0.25500000000E-02 0. -1.
<mgrwt>
<rscale>  0 0.60665422E+02</rscale>
<asrwt>0</asrwt>
<pdfrwt beam="1">  1       11 0.10000000E+01 0.62038197E+02</pdfrwt>
<pdfrwt beam="2">  1       -2 0.62494933E-03 0.60665422E+02</pdfrwt>
<totfact> 0.26144692E+04</totfact>
</mgrwt>
</event>
<event>
 5    1  0.2799727E-003  0.5388969E+02  0.7818608E-02  0.1434878E+00
         11   -1    0    0    0    0  0.00000000000E+00  0.00000000000E+00  0.10002391117E+04  0.10002391117E+04  0.51100000000E-03 0.  1.
          2   -1    0    0  501    0 -0.00000000000E+00 -0.00000000000E+00 -0.82269061995E+01  0.82269065947E+01  0.25500000000E-02 0.  1.
         11    1    1    2    0    0  0.22599393807E+02 -0.53454483270E+01  0.37165054500E+02  0.43824053835E+02  0.51100000000E-03 0.  1.
         22    1    1    2    0    0  0.22070976390E+02 -0.21260094035E+02  0.52436385516E+02  0.60734620466E+02  0.00000000000E+00 0.  1.
          2    1    1    2  501    0 -0.44670370196E+02  0.26605542362E+02  0.90241076553E+03  0.90390734404E+03  0.25500000000E-02 0.  1.
<mgrwt>
<rscale>  0 0.51993239E+02</rscale>
<asrwt>0</asrwt>
<pdfrwt beam="1">  1       11 0.10000000E+01 0.53889687E+02</pdfrwt>
<pdfrwt beam="2">  1        2 0.12659805E-02 0.51993239E+02</pdfrwt>
<totfact> 0.10120413E+04</totfact>
</mgrwt>
</event>
<event>
 5    1  0.2799727E-003  0.2901406E+02  0.7818608E-02  0.1633262E+00
         11   -1    0    0    0    0  0.00000000000E+00  0.00000000000E+00  0.10004039501E+04  0.10004039501E+04  0.51100000000E-03 0. -1.
          2   -1    0    0  501    0 -0.00000000000E+00 -0.00000000000E+00 -0.18942140725E+01  0.18942157890E+01  0.25500000000E-02 0. -1.
         11    1    1    2    0    0 -0.70384692919E+01 -0.16806943491E+02  0.64594313475E+02  0.67115115533E+02  0.51100000000E-03 0. -1.
         22    1    1    2    0    0  0.21265303180E+01 -0.97876622991E+01  0.58591286235E+02  0.59441225485E+02  0.00000000000E+00 0.  1.
          2    1    1    2  501    0  0.49119389739E+01  0.26594605790E+02  0.87532413634E+03  0.87574182489E+03  0.25500000000E-02 0. -1.
<mgrwt>
<rscale>  0 0.27044412E+02</rscale>
<asrwt>0</asrwt>
<pdfrwt beam="1">  1       11 0.10000000E+01 0.29014057E+02</pdfrwt>
<pdfrwt beam="2">  1        2 0.29153539E-03 0.27044412E+02</pdfrwt>
<totfact> 0.62072397E+04</totfact>
</mgrwt>
</event>
<event>
 5    1  0.2799727E-003  0.2111120E+03  0.7818608E-02  0.1140688E+00
         11   -1    0    0    0    0  0.00000000000E+00  0.00000000000E+00  0.10002460087E+04  0.10002460087E+04  0.51100000000E-03 0. -1.
          2   -1    0    0  501    0 -0.00000000000E+00 -0.00000000000E+00 -0.39106104410E+03  0.39106104411E+03  0.25500000000E-02 0. -1.
         11    1    1    2    0    0  0.21068786460E+03  0.43235932474E+02  0.93564800249E+03  0.96004995011E+03  0.51100000000E-03 0. -1.
         22    1    1    2    0    0 -0.18711657368E+01 -0.12963719370E+02  0.20997612595E+02  0.24747909322E+02  0.00000000000E+00 0. -1.
          2    1    1    2  501    0 -0.20881669886E+03 -0.30272213103E+02 -0.34746065051E+03  0.40650919334E+03  0.25500000000E-02 0. -1.
<mgrwt>
<rscale>  0 0.21111204E+03</rscale>
<asrwt>0</asrwt>
<pdfrwt beam="1">  1       11 0.10000000E+01 0.13098064E+02</pdfrwt>
<pdfrwt beam="2">  1        2 0.60178037E-01 0.21111204E+03</pdfrwt>
<totfact> 0.10191311E+02</totfact>
</mgrwt>
</event>
<event>
 5    1  0.2799727E-003  0.7508872E+02  0.7818608E-02  0.1609104E+00
         11   -1    0    0    0    0  0.00000000000E+00  0.00000000000E+00  0.10003078087E+04  0.10003078087E+04  0.51100000000E-03 0. -1.
          2   -1    0    0  501    0 -0.00000000000E+00 -0.00000000000E+00 -0.69756209915E+01  0.69756214576E+01  0.25500000000E-02 0. -1.
         11    1    1    2    0    0  0.72561374668E+02  0.23972908256E+02  0.38592517452E+03  0.39341847155E+03  0.51100000000E-03 0. -1.
         22    1    1    2    0    0 -0.59578293683E+01  0.95082612094E+01  0.38723824385E+02  0.40316712874E+02  0.00000000000E+00 0.  1.
          2    1    1    2  501    0 -0.66603545300E+02 -0.33481169465E+02  0.56868318877E+03  0.57354824571E+03  0.25500000000E-02 0. -1.
<mgrwt>
<rscale>  0 0.29026593E+02</rscale>
<asrwt>0</asrwt>
<pdfrwt beam="1">  1       11 0.10000000E+01 0.75088720E+02</pdfrwt>
<pdfrwt beam="2">  1        2 0.10735028E-02 0.29026593E+02</pdfrwt>
<totfact> 0.11285156E+04</totfact>
</mgrwt>
</event>
<event>
 5    1  0.2799727E-003  0.1059762E+03  0.7818608E-02  0.1483643E+00
         11   -1    0    0    0    0  0.00000000000E+00  0.00000000000E+00  0.10000010410E+04  0.10000010410E+04  0.51100000000E-03 0.  1.
          2   -1    0    0  501    0 -0.00000000000E+00 -0.00000000000E+00 -0.33208118203E+02  0.33208118301E+02  0.25500000000E-02 0.  1.
         11    1    1    2    0    0  0.10987271051E+03 -0.14989917447E+02  0.44068839206E+03  0.45442597751E+03  0.51100000000E-03 0.  1.
         22    1    1    2    0    0 -0.10225929157E+03 -0.27883046217E+02  0.52461371356E+03  0.53521395296E+03  0.00000000000E+00 0. -1.
          2    1    1    2  501    0 -0.76134189348E+01  0.42872963664E+02  0.14908171989E+01  0.43569228862E+02  0.25500000000E-02 0.  1.
<mgrwt>
<rscale>  0 0.43543716E+02</rscale>
<asrwt>0</asrwt>
<pdfrwt beam="1">  1       11 0.10000000E+01 0.10597624E+03</pdfrwt>
<pdfrwt beam="2">  1        2 0.51089464E-02 0.43543716E+02</pdfrwt>
<totfact> 0.16000828E+03</totfact>
</mgrwt>
</event>
<event>
 5    1  0.2799727E-003  0.1560468E+03  0.7818608E-02  0.1193234E+00
         11   -1    0    0    0    0  0.00000000000E+00  0.00000000000E+00  0.10004003737E+04  0.10004003737E+04  0.51100000000E-03 0. -1.
          2   -1    0    0  501    0 -0.00000000000E+00 -0.00000000000E+00 -0.53447848598E+02  0.53447848659E+02  0.25500000000E-02 0. -1.
         11    1    1    2    0    0 -0.12137164796E+03 -0.49083310900E+02  0.69339327943E+03  0.70564473236E+03  0.51100000000E-03 0. -1.
         22    1    1    2    0    0 -0.42437438120E+01 -0.54579561968E+02  0.13812507845E+03  0.14857817889E+03  0.00000000000E+00 0. -1.
          2    1    1    2  501    0  0.12561539177E+03  0.10366287287E+03  0.11543416717E+03  0.19962531106E+03  0.25500000000E-02 0. -1.
<mgrwt>
<rscale>  0 0.15604683E+03</rscale>
<asrwt>0</asrwt>
<pdfrwt beam="1">  1       11 0.10000000E+01 0.54744296E+02</pdfrwt>
<pdfrwt beam="2">  1        2 0.82260379E-02 0.15604683E+03</pdfrwt>
<totfact> 0.97748087E+02</totfact>
</mgrwt>
</event>
<event>
 5    1  0.2799727E-003  0.2553512E+03  0.7818608E-02  0.1109969E+00
         11   -1    0    0    0    0  0.00000000000E+00  0.00000000000E+00  0.10003313846E+04  0.10003313846E+04  0.51100000000E-03 0. -1.
          2   -1    0    0  501    0 -0.00000000000E+00 -0.00000000000E+00 -0.12419641581E+03  0.12419641583E+03  0.25500000000E-02 0. -1.
         11    1    1    2    0    0  0.75230116064E+02  0.38666695998E+02  0.74338267734E+02  0.11260933262E+03  0.51100000000E-03 0. -1.
         22    1    1    2    0    0  0.12691368035E+03  0.14581245218E+03  0.68953436321E+03  0.71611869932E+03  0.00000000000E+00 0. -1.
          2    1    1    2  501    0 -0.20214379641E+03 -0.18447914818E+03  0.11226233786E+03  0.29579976851E+03  0.25500000000E-02 0. -1.
<mgrwt>
<rscale>  0 0.25535119E+03</rscale>
<asrwt>0</asrwt>
<pdfrwt beam="1">  1       11 0.10000000E+01 0.84585406E+02</pdfrwt>
<pdfrwt beam="2">  1        2 0.19113472E-01 0.25535119E+03</pdfrwt>
<totfact> 0.36071036E+02</totfact>
</mgrwt>
</event>
<event>
 5    1  0.2799727E-003  0.1650004E+03  0.7818608E-02  0.1183164E+00
         11   -1    0    0    0    0  0.00000000000E+00  0.00000000000E+00  0.10001890382E+04  0.10001890382E+04  0.51100000000E-03 0.  1.
          2   -1    0    0  501    0 -0.00000000000E+00 -0.00000000000E+00 -0.10236485916E+04  0.10236485916E+04  0.25500000000E-02 0.  1.
         11    1    1    2    0    0  0.98511043406E+02  0.83571010000E+01  0.39648520033E+03  0.40862547753E+03  0.51100000000E-03 0.  1.
         22    1    1    2    0    0  0.14781120474E+02 -0.12926812632E+03  0.58367782006E+03  0.59800378563E+03  0.00000000000E+00 0.  1.
          2    1    1    2  501    0 -0.11329216388E+03  0.12091102532E+03 -0.10036225738E+04  0.10172083666E+04  0.25500000000E-02 0.  1.
<mgrwt>
<rscale>  0 0.16500039E+03</rscale>
<asrwt>0</asrwt>
<pdfrwt beam="1">  1       11 0.10000000E+01 0.98864892E+02</pdfrwt>
<pdfrwt beam="2">  1        2 0.15751416E+00 0.16500039E+03</pdfrwt>
<totfact> 0.32555601E+01</totfact>
</mgrwt>
</event>
<event>
 5    1  0.2799727E-003  0.4502774E+02  0.7818608E-02  0.1485553E+00
         11   -1    0    0    0    0  0.00000000000E+00  0.00000000000E+00  0.10002431622E+04  0.10002431622E+04  0.51100000000E-03 0. -1.
          2   -1    0    0  501    0 -0.00000000000E+00 -0.00000000000E+00 -0.42037043272E+01  0.42037051007E+01  0.25500000000E-02 0. -1.
         11    1    1    2    0    0 -0.12372014990E+02  0.63602405860E+01  0.29766788672E+02  0.32856979827E+02  0.51100000000E-03 0. -1.
         22    1    1    2    0    0 -0.19222421810E+02  0.23179610094E+02  0.10502484838E+03  0.10925664557E+03  0.00000000000E+00 0. -1.
          2    1    1    2  501    0  0.31594436801E+02 -0.29539850680E+02  0.86124782083E+03  0.86233324191E+03  0.25500000000E-02 0. -1.
<mgrwt>
<rscale>  0 0.43252875E+02</rscale>
<asrwt>0</asrwt>
<pdfrwt beam="1">  1       11 0.10000000E+01 0.45027737E+02</pdfrwt>
<pdfrwt beam="2">  1        2 0.64688104E-03 0.43252875E+02</pdfrwt>
<totfact> 0.24053471E+04</totfact>
</mgrwt>
</event>
<event>
 5    1  0.2799727E-003  0.3022665E+03  0.7818608E-02  0.1088233E+00
         11   -1    0    0    0    0  0.00000000000E+00  0.00000000000E+00  0.99996165837E+03  0.99996165837E+03  0.51100000000E-03 0. -1.
          2   -1    0    0  501    0 -0.00000000000E+00 -0.00000000000E+00 -0.90820110296E+02  0.90820110332E+02  0.25500000000E-02 0. -1.
         11    1    1    2    0    0  0.18399349562E+03  0.17988230822E+03  0.44225741190E+03  0.51166675642E+03  0.51100000000E-03 0. -1.
         22    1    1    2    0    0  0.74553404713E+01  0.43358128800E+02  0.97425745953E+02  0.10689848179E+03  0.00000000000E+00 0. -1.
          2    1    1    2  501    0 -0.19144883609E+03 -0.22324043702E+03  0.36945839022E+03  0.47221653049E+03  0.25500000000E-02 0. -1.
<mgrwt>
<rscale>  0 0.29409004E+03</rscale>
<asrwt>0</asrwt>
<pdfrwt beam="1">  1       11 0.10000000E+01 0.30226651E+03</pdfrwt>
<pdfrwt beam="2">  1        2 0.13971789E-01 0.29409004E+03</pdfrwt>
<totfact> 0.52463160E+02</totfact>
</mgrwt>
</event>
<event>
 5    1  0.2799727E-003  0.1287240E+03  0.7818608E-02  0.1229361E+00
         11   -1    0    0    0    0  0.00000000000E+00  0.00000000000E+00  0.10001754228E+04  0.10001754228E+04  0.51100000000E-03 0. -1.
         -2   -1    0    0    0  501 -0.00000000000E+00 -0.00000000000E+00 -0.39692497697E+02  0.39692497779E+02  0.25500000000E-02 0. -1.
         11    1    1    2    0    0  0.83725532999E+01  0.50500957876E+02  0.12422842370E+03  0.13436200225E+03  0.51100000000E-03 0. -1.
         22    1    1    2    0    0  0.11855371182E+03 -0.13388868714E+02  0.71880428138E+03  0.72863834604E+03  0.00000000000E+00 0. -1.
         -2    1    1    2    0  501 -0.12692626512E+03 -0.37112089162E+02  0.11745022005E+03  0.17686757231E+03  0.25500000000E-02 0. -1.
<mgrwt>
<rscale>  0 0.12872404E+03</rscale>
<asrwt>0</asrwt>
<pdfrwt beam="1">  1       11 0.10000000E+01 0.51190296E+02</pdfrwt>
<pdfrwt beam="2">  1       -2 0.61076092E-02 0.12872404E+03</pdfrwt>
<totfact> 0.10875410E+03</totfact>
</mgrwt>
</event>
<event>
 5    1  0.2985323E-003  0.3150304E+03  0.7818608E-02  0.1081233E+00
         11   -1    0    0    0    0  0.00000000000E+00  0.00000000000E+00  0.10000943986E+04  0.10000943986E+04  0.51100000000E-03 0.  1.
          2   -1    0    0  501    0 -0.00000000000E+00 -0.00000000000E+00 -0.87258236278E+03  0.87258236278E+03  0.25500000000E-02 0.  1.
         11    1    1    2    0    0  0.12661556210E+03  0.26731556782E+03  0.87379692963E+03  0.92250213420E+03  0.51100000000E-03 0.  1.
         22    1    1    2    0    0  0.17977733699E+02  0.48111968482E+01  0.72747023663E+02  0.75089786096E+02  0.00000000000E+00 0.  1.
          2    1    1    2  501    0 -0.14459329580E+03 -0.27212676467E+03 -0.81903191747E+03  0.87508484108E+03  0.25500000000E-02 0.  1.
<mgrwt>
<rscale>  0 0.30815612E+03</rscale>
<asrwt>0</asrwt>
<pdfrwt beam="1">  1       11 0.10000000E+01 0.31503045E+03</pdfrwt>
<pdfrwt beam="2">  1        2 0.13425611E+00 0.30815612E+03</pdfrwt>
<totfact> 0.39374030E+01</totfact>
</mgrwt>
</event>
<event>
 5    1  0.2799727E-003  0.1952341E+03  0.7818608E-02  0.1153823E+00
         11   -1    0    0    0    0  0.00000000000E+00  0.00000000000E+00  0.10001726918E+04  0.10001726918E+04  0.51100000000E-03 0. -1.
          2   -1    0    0  501    0 -0.00000000000E+00 -0.00000000000E+00 -0.14049388275E+03  0.14049388277E+03  0.25500000000E-02 0. -1.
         11    1    1    2    0    0 -0.12025228541E+03  0.12084554904E+03  0.75013352986E+03  0.76926235544E+03  0.51100000000E-03 0. -1.
         22    1    1    2    0    0  0.26555258102E+02  0.54124047294E+02  0.15627395254E+03  0.16749967901E+03  0.00000000000E+00 0. -1.
          2    1    1    2  501    0  0.93697027311E+02 -0.17496959633E+03 -0.46728673332E+02  0.20390454013E+03  0.25500000000E-02 0. -1.
<mgrwt>
<rscale>  0 0.19523409E+03</rscale>
<asrwt>0</asrwt>
<pdfrwt beam="1">  1       11 0.10000000E+01 0.60287596E+02</pdfrwt>
<pdfrwt beam="2">  1        2 0.21618176E-01 0.19523409E+03</pdfrwt>
<totfact> 0.31101134E+02</totfact>
</mgrwt>
</event>
<event>
 5    1  0.2799727E-003  0.4736508E+02  0.7818608E-02  0.1705618E+00
         11   -1    0    0    0    0  0.00000000000E+00  0.00000000000E+00  0.10000142944E+04  0.10000142944E+04  0.51100000000E-03 0. -1.
          2   -1    0    0  501    0 -0.00000000000E+00 -0.00000000000E+00 -0.39238283616E+01  0.39238291902E+01  0.25500000000E-02 0. -1.
         11    1    1    2    0    0  0.13150808055E+02  0.44114484184E+02  0.26318694953E+03  0.26718233824E+03  0.51100000000E-03 0. -1.
         22    1    1    2    0    0  0.10183395950E+02 -0.19112564979E+01  0.23115475523E+02  0.25331396786E+02  0.00000000000E+00 0.  1.
          2    1    1    2  501    0 -0.23334204004E+02 -0.42203227686E+02  0.70978804096E+03  0.71142438853E+03  0.25500000000E-02 0. -1.
<mgrwt>
<rscale>  0 0.22153077E+02</rscale>
<asrwt>0</asrwt>
<pdfrwt beam="1">  1       11 0.10000000E+01 0.47365081E+02</pdfrwt>
<pdfrwt beam="2">  1        2 0.60367458E-03 0.22153077E+02</pdfrwt>
<totfact> 0.22557208E+04</totfact>
</mgrwt>
</event>
<event>
 5    1  0.2799727E-003  0.1202155E+03  0.7818608E-02  0.1245223E+00
         11   -1    0    0    0    0  0.00000000000E+00  0.00000000000E+00  0.10001375927E+04  0.10001375927E+04  0.51100000000E-03 0. -1.
         -2   -1    0    0    0  501 -0.00000000000E+00 -0.00000000000E+00 -0.16464406339E+02  0.16464406537E+02  0.25500000000E-02 0.  1.
         11    1    1    2    0    0 -0.28057661402E+02  0.10002967426E+03  0.62002426290E+03  0.62866784130E+03  0.51100000000E-03 0. -1.
         22    1    1    2    0    0 -0.45762917929E+00  0.15215447225E+02  0.60018912579E+02  0.61919214513E+02  0.00000000000E+00 0. -1.
         -2    1    1    2    0  501  0.28515290582E+02 -0.11524512149E+03  0.30363001090E+03  0.32601494345E+03  0.25500000000E-02 0.  1.
<mgrwt>
<rscale>  0 0.11872051E+03</rscale>
<asrwt>0</asrwt>
<pdfrwt beam="1">  1       11 0.10000000E+01 0.12021548E+03</pdfrwt>
<pdfrwt beam="2">  1       -2 0.25333341E-02 0.11872051E+03</pdfrwt>
<totfact> 0.39785578E+03</totfact>
</mgrwt>
</event>
<event>
 5    1  0.2799727E-003  0.1380366E+03  0.7818608E-02  0.1215996E+00
         11   -1    0    0    0    0  0.00000000000E+00  0.00000000000E+00  0.99996390399E+03  0.99996390399E+03  0.51100000000E-03 0.  1.
          2   -1    0    0  501    0 -0.00000000000E+00 -0.00000000000E+00 -0.37998063445E+02  0.37998063531E+02  0.25500000000E-02 0.  1.
         11    1    1    2    0    0  0.89576401808E+02 -0.10546297317E+02  0.19933709178E+03  0.21879312674E+03  0.51100000000E-03 0.  1.
         22    1    1    2    0    0  0.69769207627E+02  0.63506526294E+02  0.48983187081E+03  0.49883472501E+03  0.00000000000E+00 0.  1.
          2    1    1    2  501    0 -0.15934560943E+03 -0.52960228976E+02  0.27279687795E+03  0.32033411577E+03  0.25500000000E-02 0.  1.
<mgrwt>
<rscale>  0 0.13803660E+03</rscale>
<asrwt>0</asrwt>
<pdfrwt beam="1">  1       11 0.10000000E+01 0.90195146E+02</pdfrwt>
<pdfrwt beam="2">  1        2 0.58456447E-02 0.13803660E+03</pdfrwt>
<totfact> 0.14980810E+03</totfact>
</mgrwt>
</event>
<event>
 5    1  0.2799727E-003  0.1477177E+03  0.7818608E-02  0.1203306E+00
         11   -1    0    0    0    0  0.00000000000E+00  0.00000000000E+00  0.99993486842E+03  0.99993486842E+03  0.51100000000E-03 0. -1.
          2   -1    0    0  501    0 -0.00000000000E+00 -0.00000000000E+00 -0.41140280741E+02  0.41140280820E+02  0.25500000000E-02 0. -1.
         11    1    1    2    0    0 -0.22160290081E+02 -0.13470266507E+03  0.67982152052E+03  0.69339251957E+03  0.51100000000E-03 0. -1.
         22    1    1    2    0    0  0.24641631272E+02 -0.16283989558E+02  0.13791276815E+03  0.14104010042E+03  0.00000000000E+00 0. -1.
          2    1    1    2  501    0 -0.24813411918E+01  0.15098665463E+03  0.14106029901E+03  0.20664252925E+03  0.25500000000E-02 0. -1.
<mgrwt>
<rscale>  0 0.14771767E+03</rscale>
<asrwt>0</asrwt>
<pdfrwt beam="1">  1       11 0.10000000E+01 0.29536051E+02</pdfrwt>
<pdfrwt beam="2">  1        2 0.63288615E-02 0.14771767E+03</pdfrwt>
<totfact> 0.13591678E+03</totfact>
</mgrwt>
</event>
<event>
 5    1  0.2799727E-003  0.4142318E+03  0.7818608E-02  0.1039497E+00
         11   -1    0    0    0    0  0.00000000000E+00  0.00000000000E+00  0.10001301593E+04  0.10001301593E+04  0.51100000000E-03 0. -1.
          2   -1    0    0  501    0 -0.00000000000E+00 -0.00000000000E+00 -0.29646975587E+03  0.29646975588E+03  0.25500000000E-02 0. -1.
         11    1    1    2    0    0 -0.39425551669E+03 -0.71159874302E+02  0.74308082447E+03  0.84419799327E+03  0.51100000000E-03 0. -1.
         22    1    1    2    0    0 -0.10704635023E+02 -0.79474188706E+01  0.31069849899E+02  0.33809558566E+02  0.00000000000E+00 0.  1.
          2    1    1    2  501    0  0.40496015171E+03  0.79107293173E+02 -0.70490270980E+02  0.41859236331E+03  0.25500000000E-02 0. -1.
<mgrwt>
<rscale>  0 0.41261445E+03</rscale>
<asrwt>0</asrwt>
<pdfrwt beam="1">  1       11 0.10000000E+01 0.41423181E+03</pdfrwt>
<pdfrwt beam="2">  1        2 0.45616667E-01 0.41261445E+03</pdfrwt>
<totfact> 0.13749681E+02</totfact>
</mgrwt>
</event>
<event>
 5    1  0.2799727E-003  0.2823116E+02  0.7818608E-02  0.1631337E+00
         11   -1    0    0    0    0  0.00000000000E+00  0.00000000000E+00  0.10001920949E+04  0.10001920949E+04  0.51100000000E-03 0. -1.
          2   -1    0    0  501    0 -0.00000000000E+00 -0.00000000000E+00 -0.20869239404E+01  0.20869254983E+01  0.25500000000E-02 0. -1.
         11    1    1    2    0    0 -0.52224852816E+00 -0.15519944107E+02  0.45052582289E+02  0.47653715278E+02  0.51100000000E-03 0. -1.
         22    1    1    2    0    0 -0.23147964872E+01 -0.11526788314E+02  0.59042114180E+02  0.60201298810E+02  0.00000000000E+00 0. -1.
          2    1    1    2  501    0  0.28370450154E+01  0.27046732420E+02  0.89401047450E+03  0.89442400632E+03  0.25500000000E-02 0. -1.
<mgrwt>
<rscale>  0 0.27195120E+02</rscale>
<asrwt>0</asrwt>
<pdfrwt beam="1">  1       11 0.10000000E+01 0.28231157E+02</pdfrwt>
<pdfrwt beam="2">  1        2 0.32112701E-03 0.27195120E+02</pdfrwt>
<totfact> 0.54701694E+04</totfact>
</mgrwt>
</event>
<event>
 5    1  0.2799727E-003  0.3265975E+02  0.7818608E-02  0.1757282E+00
         11   -1    0    0    0    0  0.00000000000E+00  0.00000000000E+00  0.10003772442E+04  0.10003772442E+04  0.51100000000E-03 0. -1.
          2   -1    0    0  501    0 -0.00000000000E+00 -0.00000000000E+00 -0.29194146664E+01  0.29194157800E+01  0.25500000000E-02 0. -1.
         11    1    1    2    0    0 -0.47837119761E+00 -0.29727028748E+02  0.11957082846E+03  0.12321163945E+03  0.51100000000E-03 0. -1.
         22    1    1    2    0    0 -0.11431155833E+02 -0.15653445080E+01  0.42824248203E+02  0.44351300559E+02  0.00000000000E+00 0. -1.
          2    1    1    2  501    0  0.11909527031E+02  0.31292373256E+02  0.83506275284E+03  0.83573371994E+03  0.25500000000E-02 0. -1.
<mgrwt>
<rscale>  0 0.19411919E+02</rscale>
<asrwt>0</asrwt>
<pdfrwt beam="1">  1       11 0.10000000E+01 0.32659748E+02</pdfrwt>
<pdfrwt beam="2">  1        2 0.44931023E-03 0.19411919E+02</pdfrwt>
<totfact> 0.32018374E+04</totfact>
</mgrwt>
</event>
<event>
 5    1  0.2799727E-003  0.1471884E+03  0.7818608E-02  0.1494051E+00
         11   -1    0    0    0    0  0.00000000000E+00  0.00000000000E+00  0.10002184894E+04  0.10002184894E+04  0.51100000000E-03 0. -1.
         -2   -1    0    0    0  501 -0.00000000000E+00 -0.00000000000E+00 -0.47754755869E+02  0.47754755938E+02  0.25500000000E-02 0.  1.
         11    1    1    2    0    0  0.13441692756E+03  0.55921165882E+02  0.81325419105E+03  0.82618246561E+03  0.51100000000E-03 0. -1.
         22    1    1    2    0    0  0.93131758807E+01  0.75347999111E+01  0.24452496398E+02  0.27229267981E+02  0.00000000000E+00 0.  1.
         -2    1    1    2    0  501 -0.14373010344E+03 -0.63455965793E+02  0.11475704611E+03  0.19456151178E+03  0.25500000000E-02 0.  1.
<mgrwt>
<rscale>  0 0.41990989E+02</rscale>
<asrwt>0</asrwt>
<pdfrwt beam="1">  1       11 0.10000000E+01 0.14718836E+03</pdfrwt>
<pdfrwt beam="2">  1       -2 0.73484905E-02 0.41990989E+02</pdfrwt>
<totfact> 0.74450704E+02</totfact>
</mgrwt>
</event>
<event>
 5    1  0.2799727E-003  0.6112914E+02  0.7818608E-02  0.1393153E+00
         11   -1    0    0    0    0  0.00000000000E+00  0.00000000000E+00  0.10000839946E+04  0.10000839946E+04  0.51100000000E-03 0.  1.
         -2   -1    0    0    0  501 -0.00000000000E+00 -0.00000000000E+00 -0.93186219419E+01  0.93186222908E+01  0.25500000000E-02 0.  1.
         11    1    1    2    0    0  0.11303363219E+02  0.14408024755E+02  0.12565578707E+02  0.22209254060E+02  0.51100000000E-03 0.  1.
         22    1    1    2    0    0  0.27237089392E+02  0.48281561074E+02  0.30631524954E+03  0.31129086122E+03  0.00000000000E+00 0.  1.
         -2    1    1    2    0  501 -0.38540452611E+02 -0.62689585829E+02  0.67188454444E+03  0.67590250164E+03  0.25500000000E-02 0.  1.
<mgrwt>
<rscale>  0 0.61129145E+02</rscale>
<asrwt>0</asrwt>
<pdfrwt beam="1">  1       11 0.10000000E+01 0.18312770E+02</pdfrwt>
<pdfrwt beam="2">  1       -2 0.14337545E-02 0.61129145E+02</pdfrwt>
<totfact> 0.81993162E+03</totfact>
</mgrwt>
</event>
<event>
 5    1  0.2799727E-003  0.3981696E+03  0.7818608E-02  0.1560805E+00
         11   -1    0    0    0    0  0.00000000000E+00  0.00000000000E+00  0.10001851108E+04  0.10001851108E+04  0.51100000000E-03 0.  1.
          2   -1    0    0  501    0 -0.00000000000E+00 -0.00000000000E+00 -0.92880474609E+03  0.92880474609E+03  0.25500000000E-02 0. -1.
         11    1    1    2    0    0 -0.28003564893E+03  0.28689285233E+03  0.81494185033E+03  0.90821676532E+03  0.51100000000E-03 0.  1.
         22    1    1    2    0    0  0.28722506116E+03 -0.25400656692E+03 -0.12790874273E+03  0.40420071532E+03  0.00000000000E+00 0. -1.
          2    1    1    2  501    0 -0.71894122388E+01 -0.32886285407E+02 -0.61565274285E+03  0.61657237629E+03  0.25500000000E-02 0. -1.
<mgrwt>
<rscale>  0 0.33662968E+02</rscale>
<asrwt>0</asrwt>
<pdfrwt beam="1">  1       11 0.10000000E+01 0.39816959E+03</pdfrwt>
<pdfrwt beam="2">  1        2 0.14291948E+00 0.33662968E+02</pdfrwt>
<totfact> 0.40070237E+01</totfact>
</mgrwt>
</event>
<event>
 5    1  0.2799727E-003  0.2913499E+03  0.7818608E-02  0.1098157E+00
         11   -1    0    0    0    0  0.00000000000E+00  0.00000000000E+00  0.99999719983E+03  0.99999719983E+03  0.51100000000E-03 0.  1.
          2   -1    0    0  501    0 -0.00000000000E+00 -0.00000000000E+00 -0.30746330118E+03  0.30746330119E+03  0.25500000000E-02 0.  1.
         11    1    1    2    0    0  0.11778486384E+02 -0.23760540099E+03  0.74560450012E+03  0.78263729142E+03  0.51100000000E-03 0.  1.
         22    1    1    2    0    0  0.42399375316E+02 -0.32542337363E+02  0.16499979183E+03  0.17344060093E+03  0.00000000000E+00 0. -1.
          2    1    1    2  501    0 -0.54177861700E+02  0.27014773836E+03 -0.21807039330E+03  0.35138260867E+03  0.25500000000E-02 0.  1.
<mgrwt>
<rscale>  0 0.27552684E+03</rscale>
<asrwt>0</asrwt>
<pdfrwt beam="1">  1       11 0.10000000E+01 0.29134989E+03</pdfrwt>
<pdfrwt beam="2">  1        2 0.47301913E-01 0.27552684E+03</pdfrwt>
<totfact> 0.13215119E+02</totfact>
</mgrwt>
</event>
<event>
 5    1  0.2799727E-003  0.1682669E+03  0.7818608E-02  0.1180652E+00
         11   -1    0    0    0    0  0.00000000000E+00  0.00000000000E+00  0.99999029029E+03  0.99999029029E+03  0.51100000000E-03 0.  1.
          2   -1    0    0  501    0 -0.00000000000E+00 -0.00000000000E+00 -0.97934316919E+02  0.97934316952E+02  0.25500000000E-02 0.  1.
         11    1    1    2    0    0  0.14547460048E+03  0.56454642594E+02  0.85580514497E+03  0.86991518679E+03  0.51100000000E-03 0.  1.
         22    1    1    2    0    0  0.87997421952E+01  0.83654332032E+01  0.58952144908E+02  0.60189461907E+02  0.00000000000E+00 0. -1.
          2    1    1    2  501    0 -0.15427434268E+03 -0.64820075798E+02 -0.12701316511E+02  0.16781995854E+03  0.25500000000E-02 0.  1.
<mgrwt>
<rscale>  0 0.16733862E+03</rscale>
<asrwt>0</asrwt>
<pdfrwt beam="1">  1       11 0.10000000E+01 0.16826693E+03</pdfrwt>
<pdfrwt beam="2">  1        2 0.15066671E-01 0.16733862E+03</pdfrwt>
<totfact> 0.46939622E+02</totfact>
</mgrwt>
</event>
<event>
 5    1  0.2799727E-003  0.1414219E+03  0.7818608E-02  0.1215021E+00
         11   -1    0    0    0    0  0.00000000000E+00  0.00000000000E+00  0.99983368880E+03  0.99983368880E+03  0.51100000000E-03 0. -1.
          2   -1    0    0  501    0 -0.00000000000E+00 -0.00000000000E+00 -0.20663015920E+02  0.20663016078E+02  0.25500000000E-02 0. -1.
         11    1    1    2    0    0  0.12861837035E+03  0.37244168288E+00  0.55120126089E+03  0.56600852812E+03  0.51100000000E-03 0. -1.
         22    1    1    2    0    0  0.98699161684E+01  0.81411213359E+01  0.57051246189E+02  0.58468263131E+02  0.00000000000E+00 0. -1.
          2    1    1    2  501    0 -0.13848828652E+03 -0.85135630188E+01  0.37091816580E+03  0.39601991363E+03  0.25500000000E-02 0. -1.
<mgrwt>
<rscale>  0 0.13874973E+03</rscale>
<asrwt>0</asrwt>
<pdfrwt beam="1">  1       11 0.10000000E+01 0.14142189E+03</pdfrwt>
<pdfrwt beam="2">  1        2 0.31783968E-02 0.13874973E+03</pdfrwt>
<totfact> 0.33459813E+03</totfact>
</mgrwt>
</event>
<event>
 5    1  0.2799727E-003  0.3153454E+02  0.7818608E-02  0.1581721E+00
         11   -1    0    0    0    0  0.00000000000E+00  0.00000000000E+00  0.99996722950E+03  0.99996722950E+03  0.51100000000E-03 0. -1.
          2   -1    0    0  501    0 -0.00000000000E+00 -0.00000000000E+00 -0.63768706603E+01  0.63768711701E+01  0.25500000000E-02 0. -1.
         11    1    1    2    0    0  0.34977736454E+01  0.11086057454E+02  0.39067616190E+01  0.12263681215E+02  0.51100000000E-03 0. -1.
         22    1    1    2    0    0 -0.26507273834E+02 -0.19268420783E+02  0.13056282826E+03  0.13461262842E+03  0.00000000000E+00 0. -1.
          2    1    1    2  501    0  0.23009500189E+02  0.81823633291E+01  0.85912076896E+03  0.85946779103E+03  0.25500000000E-02 0. -1.
<mgrwt>
<rscale>  0 0.31534536E+02</rscale>
<asrwt>0</asrwt>
<pdfrwt beam="1">  1       11 0.10000000E+01 0.11624768E+02</pdfrwt>
<pdfrwt beam="2">  1        2 0.98102489E-03 0.31534536E+02</pdfrwt>
<totfact> 0.12926943E+04</totfact>
</mgrwt>
</event>
<event>
 5    1  0.2799727E-003  0.9655346E+02  0.7818608E-02  0.1287715E+00
         11   -1    0    0    0    0  0.00000000000E+00  0.00000000000E+00  0.10001814830E+04  0.10001814830E+04  0.51100000000E-03 0.  1.
          2   -1    0    0  501    0 -0.00000000000E+00 -0.00000000000E+00 -0.20428126694E+02  0.20428126853E+02  0.25500000000E-02 0.  1.
         11    1    1    2    0    0 -0.24202724190E+02  0.83460769205E+02  0.40659808346E+03  0.41578055910E+03  0.51100000000E-03 0.  1.
         22    1    1    2    0    0 -0.61846735898E+02 -0.17434970923E+02  0.35974202739E+03  0.36543579904E+03  0.00000000000E+00 0.  1.
          2    1    1    2  501    0  0.86049460088E+02 -0.66025798282E+02  0.21341324547E+03  0.23939325172E+03  0.25500000000E-02 0.  1.
<mgrwt>
<rscale>  0 0.96553456E+02</rscale>
<asrwt>0</asrwt>
<pdfrwt beam="1">  1       11 0.10000000E+01 0.64257272E+02</pdfrwt>
<pdfrwt beam="2">  1        2 0.31433590E-02 0.96553456E+02</pdfrwt>
<totfact> 0.32703952E+03</totfact>
</mgrwt>
</event>
<event>
 5    1  0.2799727E-003  0.2550431E+03  0.7818608E-02  0.1110893E+00
         11   -1    0    0    0    0  0.00000000000E+00  0.00000000000E+00  0.10002499471E+04  0.10002499471E+04  0.51100000000E-03 0. -1.
          2   -1    0    0  501    0 -0.00000000000E+00 -0.00000000000E+00 -0.25652937659E+03  0.25652937660E+03  0.25500000000E-02 0.  1.
         11    1    1    2    0    0  0.23503934379E+03  0.46288107393E+02  0.85928071473E+03  0.89204788477E+03  0.51100000000E-03 0. -1.
         22    1    1    2    0    0  0.15141230305E+02 -0.32611250264E+01  0.56157160265E+02  0.58253913522E+02  0.00000000000E+00 0.  1.
          2    1    1    2  501    0 -0.25018057410E+03 -0.43026982366E+02 -0.17171730454E+03  0.30647752536E+03  0.25500000000E-02 0.  1.
<mgrwt>
<rscale>  0 0.25385358E+03</rscale>
<asrwt>0</asrwt>
<pdfrwt beam="1">  1       11 0.10000000E+01 0.25504314E+03</pdfrwt>
<pdfrwt beam="2">  1        2 0.39475921E-01 0.25385358E+03</pdfrwt>
<totfact> 0.16067699E+02</totfact>
</mgrwt>
</event>
<event>
 5    1  0.2799727E-003  0.9856107E+02  0.7818608E-02  0.1580984E+00
         11   -1    0    0    0    0  0.00000000000E+00  0.00000000000E+00  0.10002195169E+04  0.10002195169E+04  0.51100000000E-03 0. -1.
          2   -1    0    0  501    0 -0.00000000000E+00 -0.00000000000E+00 -0.14231846736E+02  0.14231846965E+02  0.25500000000E-02 0. -1.
         11    1    1    2    0    0  0.16341469925E+02 -0.96489711368E+02  0.22837573688E+03  0.24846083239E+03  0.51100000000E-03 0. -1.
         22    1    1    2    0    0  0.10068952982E+02  0.11584438646E+01  0.29567825037E+02  0.31256712619E+02  0.00000000000E+00 0. -1.
          2    1    1    2  501    0 -0.26410422907E+02  0.95331267503E+02  0.72804410822E+03  0.73473381882E+03  0.25500000000E-02 0. -1.
<mgrwt>
<rscale>  0 0.31606215E+02</rscale>
<asrwt>0</asrwt>
<pdfrwt beam="1">  1       11 0.10000000E+01 0.98561073E+02</pdfrwt>
<pdfrwt beam="2">  1        2 0.21899955E-02 0.31606215E+02</pdfrwt>
<totfact> 0.45205355E+03</totfact>
</mgrwt>
</event>
<event>
 5    1  0.2949433E-003  0.1093012E+03  0.7818608E-02  0.1261869E+00
         11   -1    0    0    0    0  0.00000000000E+00  0.00000000000E+00  0.10009250243E+04  0.10009250243E+04  0.51100000000E-03 0.  1.
          2   -1    0    0  501    0 -0.00000000000E+00 -0.00000000000E+00 -0.23282386434E+04  0.23282386434E+04  0.25500000000E-02 0.  1.
         11    1    1    2    0    0  0.13395516828E+03  0.46103008389E+02  0.81588701013E+03  0.82809485435E+03  0.51100000000E-03 0.  1.
         22    1    1    2    0    0 -0.30481777359E+02 -0.11046555498E+02  0.17616900249E+03  0.17912755952E+03  0.00000000000E+00 0. -1.
          2    1    1    2  501    0 -0.10347339092E+03 -0.35056452891E+02 -0.23193696318E+04  0.23219412539E+04  0.25500000000E-02 0.  1.
<mgrwt>
<rscale>  0 0.10930124E+03</rscale>
<asrwt>0</asrwt>
<pdfrwt beam="1">  1       11 0.10000000E+01 0.32421677E+02</pdfrwt>
<pdfrwt beam="2">  1        2 0.35852189E+00 0.10930124E+03</pdfrwt>
<totfact> 0.69235085E+00</totfact>
</mgrwt>
</event>
<event>
 5    1  0.2799727E-003  0.1688839E+03  0.7818608E-02  0.1184844E+00
         11   -1    0    0    0    0  0.00000000000E+00  0.00000000000E+00  0.10000920860E+04  0.10000920860E+04  0.51100000000E-03 0.  1.
          2   -1    0    0  501    0 -0.00000000000E+00 -0.00000000000E+00 -0.20994884429E+03  0.20994884431E+03  0.25500000000E-02 0.  1.
         11    1    1    2    0    0 -0.15133735970E+02  0.13901651793E+03  0.83569955616E+03  0.84731834064E+03  0.51100000000E-03 0.  1.
         22    1    1    2    0    0 -0.18659944944E+02  0.20913111551E+02  0.12404497772E+03  0.12717196341E+03  0.00000000000E+00 0.  1.
          2    1    1    2  501    0  0.33793680914E+02 -0.15992962948E+03 -0.16960129212E+03  0.23555062630E+03  0.25500000000E-02 0.  1.
<mgrwt>
<rscale>  0 0.16346100E+03</rscale>
<asrwt>0</asrwt>
<pdfrwt beam="1">  1       11 0.10000000E+01 0.16888393E+03</pdfrwt>
<pdfrwt beam="2">  1        2 0.32302796E-01 0.16346100E+03</pdfrwt>
<totfact> 0.19870889E+02</totfact>
</mgrwt>
</event>
<event>
 5    1  0.2799727E-003  0.1660490E+03  0.7818608E-02  0.1190486E+00
         11   -1    0    0    0    0  0.00000000000E+00  0.00000000000E+00  0.10001860599E+04  0.10001860599E+04  0.51100000000E-03 0. -1.
         -2   -1    0    0    0  501 -0.00000000000E+00 -0.00000000000E+00 -0.25211764123E+03  0.25211764125E+03  0.25500000000E-02 0.  1.
         11    1    1    2    0    0 -0.14250004926E+03  0.10696133563E+02  0.83255830940E+03  0.84473309978E+03  0.51100000000E-03 0. -1.
         22    1    1    2    0    0 -0.15802839225E+02 -0.16914635569E+02  0.13494888158E+03  0.13691981327E+03  0.00000000000E+00 0. -1.
         -2    1    1    2    0  501  0.15830288848E+03  0.62185020064E+01 -0.21943877235E+03  0.27065078807E+03  0.25500000000E-02 0.  1.
<mgrwt>
<rscale>  0 0.15842498E+03</rscale>
<asrwt>0</asrwt>
<pdfrwt beam="1">  1       11 0.10000000E+01 0.16604902E+03</pdfrwt>
<pdfrwt beam="2">  1       -2 0.38794545E-01 0.15842498E+03</pdfrwt>
<totfact> 0.50917197E+01</totfact>
</mgrwt>
</event>
<event>
 5    1  0.2799727E-003  0.6869857E+02  0.7818608E-02  0.1370523E+00
         11   -1    0    0    0    0  0.00000000000E+00  0.00000000000E+00  0.10002769447E+04  0.10002769447E+04  0.51100000000E-03 0.  1.
         -2   -1    0    0    0  501 -0.00000000000E+00 -0.00000000000E+00 -0.56312380229E+01  0.56312386002E+01  0.25500000000E-02 0.  1.
         11    1    1    2    0    0  0.24341647080E+02  0.48642611614E+01  0.13963155618E+03  0.14182083169E+03  0.51100000000E-03 0.  1.
         22    1    1    2    0    0  0.41572187126E+02  0.72723712687E+01  0.14788610665E+03  0.15379022942E+03  0.00000000000E+00 0.  1.
         -2    1    1    2    0  501 -0.65913834206E+02 -0.12136632430E+02  0.70712804383E+03  0.71029712217E+03  0.25500000000E-02 0.  1.
<mgrwt>
<rscale>  0 0.67021872E+02</rscale>
<asrwt>0</asrwt>
<pdfrwt beam="1">  1       11 0.10000000E+01 0.68698566E+02</pdfrwt>
<pdfrwt beam="2">  1       -2 0.86658426E-03 0.67021872E+02</pdfrwt>
<totfact> 0.16889586E+04</totfact>
</mgrwt>
</event>
<event>
 5    1  0.2799727E-003  0.5846063E+02  0.7818608E-02  0.1407784E+00
         11   -1    0    0    0    0  0.00000000000E+00  0.00000000000E+00  0.10000428545E+04  0.10000428545E+04  0.51100000000E-03 0.  1.
          2   -1    0    0  501    0 -0.00000000000E+00 -0.00000000000E+00 -0.37515385110E+01  0.37515393777E+01  0.25500000000E-02 0.  1.
         11    1    1    2    0    0  0.17600969957E+02 -0.44461811815E+02  0.28623240066E+03  0.29019930055E+03  0.51100000000E-03 0.  1.
         22    1    1    2    0    0  0.74267278685E+01 -0.75178924085E+01  0.55384811885E+02  0.56383972729E+02  0.00000000000E+00 0. -1.
          2    1    1    2  501    0 -0.25027697826E+02  0.51979704224E+02  0.65467410349E+03  0.65721112064E+03  0.25500000000E-02 0.  1.
<mgrwt>
<rscale>  0 0.57691207E+02</rscale>
<asrwt>0</asrwt>
<pdfrwt beam="1">  1       11 0.10000000E+01 0.58460631E+02</pdfrwt>
<pdfrwt beam="2">  1        2 0.57718456E-03 0.57691207E+02</pdfrwt>
<totfact> 0.29773722E+04</totfact>
</mgrwt>
</event>
<event>
 5    1  0.2799727E-003  0.1963018E+03  0.7818608E-02  0.1152897E+00
         11   -1    0    0    0    0  0.00000000000E+00  0.00000000000E+00  0.10004066921E+04  0.10004066921E+04  0.51100000000E-03 0.  1.
          2   -1    0    0  501    0 -0.00000000000E+00 -0.00000000000E+00 -0.78891929166E+03  0.78891929166E+03  0.25500000000E-02 0.  1.
         11    1    1    2    0    0 -0.19223032559E+02 -0.15068891147E+03  0.76402138948E+03  0.77897712200E+03  0.51100000000E-03 0.  1.
         22    1    1    2    0    0 -0.95694927254E+02 -0.97178128162E+01  0.20558346309E+03  0.22697249896E+03  0.00000000000E+00 0.  1.
          2    1    1    2  501    0  0.11491795981E+03  0.16040672428E+03 -0.75811745209E+03  0.78337636284E+03  0.25500000000E-02 0.  1.
<mgrwt>
<rscale>  0 0.19630180E+03</rscale>
<asrwt>0</asrwt>
<pdfrwt beam="1">  1       11 0.10000000E+01 0.96187083E+02</pdfrwt>
<pdfrwt beam="2">  1        2 0.12142156E+00 0.19630180E+03</pdfrwt>
<totfact> 0.45615122E+01</totfact>
</mgrwt>
</event>
<event>
 5    1  0.2799727E-003  0.1278917E+03  0.7818608E-02  0.1245267E+00
         11   -1    0    0    0    0  0.00000000000E+00  0.00000000000E+00  0.10003318229E+04  0.10003318229E+04  0.51100000000E-03 0. -1.
          2   -1    0    0  501    0 -0.00000000000E+00 -0.00000000000E+00 -0.16560502058E+02  0.16560502254E+02  0.25500000000E-02 0. -1.
         11    1    1    2    0    0  0.53617364614E+01 -0.25740844745E+02  0.91880797870E+02  0.95568929698E+02  0.51100000000E-03 0. -1.
         22    1    1    2    0    0  0.85102769782E+02 -0.51099513454E+02  0.56269006106E+03  0.57137881175E+03  0.00000000000E+00 0. -1.
          2    1    1    2  501    0 -0.90464506243E+02  0.76840358199E+02  0.32920046195E+03  0.34994458375E+03  0.25500000000E-02 0. -1.
<mgrwt>
<rscale>  0 0.11869401E+03</rscale>
<asrwt>0</asrwt>
<pdfrwt beam="1">  1       11 0.10000000E+01 0.12789167E+03</pdfrwt>
<pdfrwt beam="2">  1        2 0.25486149E-02 0.11869401E+03</pdfrwt>
<totfact> 0.44294925E+03</totfact>
</mgrwt>
</event>
<event>
 5    1  0.2799727E-003  0.1369373E+03  0.7818608E-02  0.1317679E+00
         11   -1    0    0    0    0  0.00000000000E+00  0.00000000000E+00  0.99979711804E+03  0.99979711804E+03  0.51100000000E-03 0. -1.
          2   -1    0    0  501    0 -0.00000000000E+00 -0.00000000000E+00 -0.49441205868E+03  0.49441205869E+03  0.25500000000E-02 0. -1.
         11    1    1    2    0    0  0.13031179770E+03  0.69821682479E+02  0.57490221732E+03  0.59360659653E+03  0.51100000000E-03 0. -1.
         22    1    1    2    0    0 -0.13656853636E+03  0.14091985901E+02  0.40036192316E+03  0.42324841253E+03  0.00000000000E+00 0.  1.
          2    1    1    2  501    0  0.62567386558E+01 -0.83913668380E+02 -0.46987908112E+03  0.47735416768E+03  0.25500000000E-02 0. -1.
<mgrwt>
<rscale>  0 0.84146601E+02</rscale>
<asrwt>0</asrwt>
<pdfrwt beam="1">  1       11 0.10000000E+01 0.13693725E+03</pdfrwt>
<pdfrwt beam="2">  1        2 0.76047960E-01 0.84146601E+02</pdfrwt>
<totfact> 0.79879982E+01</totfact>
</mgrwt>
</event>
<event>
 5    1  0.2799727E-003  0.5598849E+02  0.7818608E-02  0.1435750E+00
         11   -1    0    0    0    0  0.00000000000E+00  0.00000000000E+00  0.10002840764E+04  0.10002840764E+04  0.51100000000E-03 0. -1.
          2   -1    0    0  501    0 -0.00000000000E+00 -0.00000000000E+00 -0.47948774044E+01  0.47948780825E+01  0.25500000000E-02 0. -1.
         11    1    1    2    0    0  0.66402040089E+01 -0.10229622639E+02  0.43437998665E+02  0.45117593208E+02  0.51100000000E-03 0. -1.
         22    1    1    2    0    0  0.43746700283E+02 -0.18851865610E+01  0.15060152591E+03  0.15683796518E+03  0.00000000000E+00 0. -1.
          2    1    1    2  501    0 -0.50386904292E+02  0.12114809200E+02  0.80144967445E+03  0.80312339613E+03  0.25500000000E-02 0. -1.
<mgrwt>
<rscale>  0 0.51822859E+02</rscale>
<asrwt>0</asrwt>
<pdfrwt beam="1">  1       11 0.10000000E+01 0.55988485E+02</pdfrwt>
<pdfrwt beam="2">  1        2 0.73788303E-03 0.51822859E+02</pdfrwt>
<totfact> 0.20903239E+04</totfact>
</mgrwt>
</event>
<event>
 5    1  0.2799727E-003  0.1236085E+03  0.7818608E-02  0.1237260E+00
         11   -1    0    0    0    0  0.00000000000E+00  0.00000000000E+00  0.10004774063E+04  0.10004774063E+04  0.51100000000E-03 0. -1.
          2   -1    0    0  501    0 -0.00000000000E+00 -0.00000000000E+00 -0.14807711561E+02  0.14807711781E+02  0.25500000000E-02 0. -1.
         11    1    1    2    0    0 -0.63638301783E+02 -0.91817829007E+02  0.59932967922E+03  0.60965269750E+03  0.51100000000E-03 0. -1.
         22    1    1    2    0    0  0.25913777180E+02  0.75860235352E+02  0.29156747195E+03  0.30238698691E+03  0.00000000000E+00 0. -1.
          2    1    1    2  501    0  0.37724524603E+02  0.15957593655E+02  0.94772543572E+02  0.10324543367E+03  0.25500000000E-02 0. -1.
<mgrwt>
<rscale>  0 0.12360847E+03</rscale>
<asrwt>0</asrwt>
<pdfrwt beam="1">  1       11 0.10000000E+01 0.11171547E+03</pdfrwt>
<pdfrwt beam="2">  1        2 0.22791970E-02 0.12360847E+03</pdfrwt>
<totfact> 0.51753211E+03</totfact>
</mgrwt>
</event>
<event>
 5    1  0.2799727E-003  0.3506097E+03  0.7818608E-02  0.1068172E+00
         11   -1    0    0    0    0  0.00000000000E+00  0.00000000000E+00  0.10002092541E+04  0.10002092541E+04  0.51100000000E-03 0. -1.
          2   -1    0    0  501    0 -0.00000000000E+00 -0.00000000000E+00 -0.11825814059E+03  0.11825814062E+03  0.25500000000E-02 0. -1.
         11    1    1    2    0    0 -0.28255527574E+03  0.11199751839E+03  0.32595380692E+03  0.44567568054E+03  0.51100000000E-03 0. -1.
         22    1    1    2    0    0 -0.28684893810E+02  0.16670828202E+02  0.10369870980E+03  0.10887682058E+03  0.00000000000E+00 0. -1.
          2    1    1    2  501    0  0.31124016956E+03 -0.12866834660E+03  0.45229859676E+03  0.56391489358E+03  0.25500000000E-02 0. -1.
<mgrwt>
<rscale>  0 0.33678775E+03</rscale>
<asrwt>0</asrwt>
<pdfrwt beam="1">  1       11 0.10000000E+01 0.35060974E+03</pdfrwt>
<pdfrwt beam="2">  1        2 0.18197367E-01 0.33678775E+03</pdfrwt>
<totfact> 0.38488634E+02</totfact>
</mgrwt>
</event>
<event>
 5    1  0.2799727E-003  0.4123192E+03  0.7818608E-02  0.1040872E+00
         11   -1    0    0    0    0  0.00000000000E+00  0.00000000000E+00  0.10003012405E+04  0.10003012405E+04  0.51100000000E-03 0. -1.
          2   -1    0    0  501    0 -0.00000000000E+00 -0.00000000000E+00 -0.39921830791E+03  0.39921830792E+03  0.25500000000E-02 0. -1.
         11    1    1    2    0    0 -0.98816894379E+02 -0.34275143556E+03  0.73447221843E+03  0.81651256257E+03  0.51100000000E-03 0. -1.
         22    1    1    2    0    0 -0.33911978784E+02 -0.43595830312E+02  0.98749107506E+02  0.11314594539E+03  0.00000000000E+00 0.  1.
          2    1    1    2  501    0  0.13272887316E+03  0.38634726587E+03 -0.23213839339E+03  0.46986104042E+03  0.25500000000E-02 0. -1.
<mgrwt>
<rscale>  0 0.40851091E+03</rscale>
<asrwt>0</asrwt>
<pdfrwt beam="1">  1       11 0.10000000E+01 0.41231925E+03</pdfrwt>
<pdfrwt beam="2">  1        2 0.61436701E-01 0.40851091E+03</pdfrwt>
<totfact> 0.99116213E+01</totfact>
</mgrwt>
</event>
<event>
 5    1  0.2799727E-003  0.2170061E+03  0.7818608E-02  0.1294598E+00
         11   -1    0    0    0    0  0.00000000000E+00  0.00000000000E+00  0.10003094763E+04  0.10003094763E+04  0.51100000000E-03 0. -1.
          2   -1    0    0  501    0 -0.00000000000E+00 -0.00000000000E+00 -0.36674413306E+03  0.36674413307E+03  0.25500000000E-02 0. -1.
         11    1    1    2    0    0 -0.10332114411E+03 -0.15525085527E+03  0.41808007248E+03  0.45778710542E+03  0.51100000000E-03 0. -1.
         22    1    1    2    0    0  0.10495850252E+03  0.24873331372E+03  0.52261166645E+03  0.58822402410E+03  0.00000000000E+00 0.  1.
          2    1    1    2  501    0 -0.16373584116E+01 -0.93482458459E+02 -0.30712639566E+03  0.32104247990E+03  0.25500000000E-02 0. -1.
<mgrwt>
<rscale>  0 0.93496797E+02</rscale>
<asrwt>0</asrwt>
<pdfrwt beam="1">  1       11 0.10000000E+01 0.21700614E+03</pdfrwt>
<pdfrwt beam="2">  1        2 0.56439634E-01 0.93496797E+02</pdfrwt>
<totfact> 0.10947035E+02</totfact>
</mgrwt>
</event>
<event>
 5    1  0.2799727E-003  0.1638591E+03  0.7818608E-02  0.1186709E+00
         11   -1    0    0    0    0  0.00000000000E+00  0.00000000000E+00  0.10002568777E+04  0.10002568777E+04  0.51100000000E-03 0. -1.
         -2   -1    0    0    0  501 -0.00000000000E+00 -0.00000000000E+00 -0.57207065769E+02  0.57207065826E+02  0.25500000000E-02 0.  1.
         11    1    1    2    0    0  0.60309339810E+02 -0.14105327589E+03  0.80609715794E+03  0.82056436136E+03  0.51100000000E-03 0. -1.
         22    1    1    2    0    0 -0.26735552221E+01 -0.10105071845E+02  0.54181529536E+02  0.55180599103E+02  0.00000000000E+00 0. -1.
         -2    1    1    2    0  501 -0.57635784588E+02  0.15115834774E+03  0.82771124471E+02  0.18171898307E+03  0.25500000000E-02 0.  1.
<mgrwt>
<rscale>  0 0.16177370E+03</rscale>
<asrwt>0</asrwt>
<pdfrwt beam="1">  1       11 0.10000000E+01 0.16385913E+03</pdfrwt>
<pdfrwt beam="2">  1       -2 0.88033476E-02 0.16177370E+03</pdfrwt>
<totfact> 0.63004220E+02</totfact>
</mgrwt>
</event>
<event>
 5    1  0.2799727E-003  0.3487608E+02  0.7818608E-02  0.1577083E+00
         11   -1    0    0    0    0  0.00000000000E+00  0.00000000000E+00  0.10002254208E+04  0.10002254208E+04  0.51100000000E-03 0.  1.
          2   -1    0    0  501    0 -0.00000000000E+00 -0.00000000000E+00 -0.23875492261E+01  0.23875505878E+01  0.25500000000E-02 0.  1.
         11    1    1    2    0    0  0.66165689332E+01 -0.22146965659E+02  0.88358429805E+02  0.91331698715E+02  0.51100000000E-03 0.  1.
         22    1    1    2    0    0 -0.61162674807E+01 -0.98387800589E+01  0.55174850987E+02  0.56377961141E+02  0.00000000000E+00 0. -1.
          2    1    1    2  501    0 -0.50030145248E+00  0.31985745718E+02  0.85430459074E+03  0.85490331149E+03  0.25500000000E-02 0.  1.
<mgrwt>
<rscale>  0 0.31989658E+02</rscale>
<asrwt>0</asrwt>
<pdfrwt beam="1">  1       11 0.10000000E+01 0.34876079E+02</pdfrwt>
<pdfrwt beam="2">  1        2 0.36739816E-03 0.31989658E+02</pdfrwt>
<totfact> 0.47772010E+04</totfact>
</mgrwt>
</event>
<event>
 5    1  0.2799727E-003  0.4806126E+03  0.7818608E-02  0.1018967E+00
         11   -1    0    0    0    0  0.00000000000E+00  0.00000000000E+00  0.10007375175E+04  0.10007375175E+04  0.51100000000E-03 0.  1.
          2   -1    0    0  501    0 -0.00000000000E+00 -0.00000000000E+00 -0.33859930535E+03  0.33859930536E+03  0.25500000000E-02 0.  1.
         11    1    1    2    0    0  0.24139748766E+02  0.53727243533E+01  0.11733771014E+03  0.11991551968E+03  0.51100000000E-03 0.  1.
         22    1    1    2    0    0 -0.13837012078E+03  0.46128050850E+03  0.56019332918E+03  0.73874390956E+03  0.00000000000E+00 0.  1.
          2    1    1    2  501    0  0.11423037202E+03 -0.46665323285E+03 -0.15392827165E+02  0.48067739364E+03  0.25500000000E-02 0.  1.
<mgrwt>
<rscale>  0 0.48061262E+03</rscale>
<asrwt>0</asrwt>
<pdfrwt beam="1">  1       11 0.10000000E+01 0.24730419E+02</pdfrwt>
<pdfrwt beam="2">  1        2 0.52130618E-01 0.48061262E+03</pdfrwt>
<totfact> 0.11870552E+02</totfact>
</mgrwt>
</event>
<event>
 5    1  0.2799727E-003  0.6994318E+02  0.7818608E-02  0.1393089E+00
         11   -1    0    0    0    0  0.00000000000E+00  0.00000000000E+00  0.10001801355E+04  0.10001801355E+04  0.51100000000E-03 0. -1.
          2   -1    0    0  501    0 -0.00000000000E+00 -0.00000000000E+00 -0.13729550617E+02  0.13729550854E+02  0.25500000000E-02 0. -1.
         11    1    1    2    0    0  0.52465751586E+02  0.46250603399E+02  0.39179198039E+03  0.39798584058E+03  0.51100000000E-03 0. -1.
         22    1    1    2    0    0 -0.82916212361E+02  0.67727239471E+01  0.46730363593E+03  0.47465108892E+03  0.00000000000E+00 0. -1.
          2    1    1    2  501    0  0.30450460775E+02 -0.53023327346E+02  0.12735496856E+03  0.14127275685E+03  0.25500000000E-02 0. -1.
<mgrwt>
<rscale>  0 0.61144941E+02</rscale>
<asrwt>0</asrwt>
<pdfrwt beam="1">  1       11 0.10000000E+01 0.69943183E+02</pdfrwt>
<pdfrwt beam="2">  1        2 0.21126190E-02 0.61144941E+02</pdfrwt>
<totfact> 0.52400021E+03</totfact>
</mgrwt>
</event>
<event>
 5    1  0.2799727E-003  0.1439234E+03  0.7818608E-02  0.1495065E+00
         11   -1    0    0    0    0  0.00000000000E+00  0.00000000000E+00  0.10002315935E+04  0.10002315935E+04  0.51100000000E-03 0. -1.
          2   -1    0    0  501    0 -0.00000000000E+00 -0.00000000000E+00 -0.32143019304E+02  0.32143019405E+02  0.25500000000E-02 0. -1.
         11    1    1    2    0    0  0.13265504061E+03  0.51225441158E+02  0.72906389483E+03  0.74280250966E+03  0.51100000000E-03 0. -1.
         22    1    1    2    0    0  0.10558674890E+02 -0.60427458188E+01  0.28380597800E+02  0.30878126950E+02  0.00000000000E+00 0.  1.
          2    1    1    2  501    0 -0.14321371550E+03 -0.45182695339E+02  0.21064408158E+03  0.25869397631E+03  0.25500000000E-02 0. -1.
<mgrwt>
<rscale>  0 0.41843827E+02</rscale>
<asrwt>0</asrwt>
<pdfrwt beam="1">  1       11 0.10000000E+01 0.14392339E+03</pdfrwt>
<pdfrwt beam="2">  1        2 0.49462250E-02 0.41843827E+02</pdfrwt>
<totfact> 0.16590430E+03</totfact>
</mgrwt>
</event>
<event>
 5    1  0.2799727E-003  0.7437147E+02  0.7818608E-02  0.1349578E+00
         11   -1    0    0    0    0  0.00000000000E+00  0.00000000000E+00  0.10002249541E+04  0.10002249541E+04  0.51100000000E-03 0. -1.
          2   -1    0    0  501    0 -0.00000000000E+00 -0.00000000000E+00 -0.73895497971E+01  0.73895502371E+01  0.25500000000E-02 0. -1.
         11    1    1    2    0    0  0.18086315001E+02 -0.50294281195E+02  0.19163706080E+03  0.19895072903E+03  0.51100000000E-03 0. -1.
         22    1    1    2    0    0  0.10098270174E+02 -0.17248299672E+02  0.49089685919E+02  0.53002605273E+02  0.00000000000E+00 0. -1.
          2    1    1    2  501    0 -0.28184585175E+02  0.67542580866E+02  0.75210865760E+03  0.75566117005E+03  0.25500000000E-02 0. -1.
<mgrwt>
<rscale>  0 0.73187233E+02</rscale>
<asrwt>0</asrwt>
<pdfrwt beam="1">  1       11 0.10000000E+01 0.74371474E+02</pdfrwt>
<pdfrwt beam="2">  1        2 0.11371096E-02 0.73187233E+02</pdfrwt>
<totfact> 0.12378514E+04</totfact>
</mgrwt>
</event>
<event>
 5    1  0.2799727E-003  0.1114657E+03  0.7818608E-02  0.1450675E+00
         11   -1    0    0    0    0  0.00000000000E+00  0.00000000000E+00  0.99996305993E+03  0.99996305993E+03  0.51100000000E-03 0. -1.
          2   -1    0    0  501    0 -0.00000000000E+00 -0.00000000000E+00 -0.23724445406E+02  0.23724445544E+02  0.25500000000E-02 0. -1.
         11    1    1    2    0    0 -0.12401000710E+03  0.20789852070E+02  0.35199753607E+03  0.37378197550E+03  0.51100000000E-03 0. -1.
         22    1    1    2    0    0  0.91186801508E+02 -0.57204688394E+02  0.55329449474E+03  0.56366852587E+03  0.00000000000E+00 0. -1.
          2    1    1    2  501    0  0.32823205594E+02  0.36414836324E+02  0.70946583716E+02  0.86237004107E+02  0.25500000000E-02 0. -1.
<mgrwt>
<rscale>  0 0.49024516E+02</rscale>
<asrwt>0</asrwt>
<pdfrwt beam="1">  1       11 0.10000000E+01 0.11146568E+03</pdfrwt>
<pdfrwt beam="2">  1        2 0.36497798E-02 0.49024516E+02</pdfrwt>
<totfact> 0.24879446E+03</totfact>
</mgrwt>
</event>
<event>
 5    1  0.2799727E-003  0.1249455E+03  0.7818608E-02  0.1240140E+00
         11   -1    0    0    0    0  0.00000000000E+00  0.00000000000E+00  0.10001207282E+04  0.10001207282E+04  0.51100000000E-03 0. -1.
          2   -1    0    0  501    0 -0.00000000000E+00 -0.00000000000E+00 -0.15256195488E+02  0.15256195701E+02  0.25500000000E-02 0. -1.
         11    1    1    2    0    0 -0.10401048802E+03  0.51807987735E+01  0.39108169749E+03  0.40470966928E+03  0.51100000000E-03 0. -1.
         22    1    1    2    0    0 -0.17663553147E+02 -0.10937196041E+02  0.82949355886E+02  0.85511513897E+02  0.00000000000E+00 0.  1.
          2    1    1    2  501    0  0.12167404116E+03  0.57563972676E+01  0.51083347936E+03  0.52515574075E+03  0.25500000000E-02 0. -1.
<mgrwt>
<rscale>  0 0.12181013E+03</rscale>
<asrwt>0</asrwt>
<pdfrwt beam="1">  1       11 0.10000000E+01 0.12494546E+03</pdfrwt>
<pdfrwt beam="2">  1        2 0.23473903E-02 0.12181013E+03</pdfrwt>
<totfact> 0.49644078E+03</totfact>
</mgrwt>
</event>
<event>
 5    1  0.2799727E-003  0.2149858E+03  0.7818608E-02  0.1152014E+00
         11   -1    0    0    0    0  0.00000000000E+00  0.00000000000E+00  0.99994504548E+03  0.99994504548E+03  0.51100000000E-03 0. -1.
          2   -1    0    0  501    0 -0.00000000000E+00 -0.00000000000E+00 -0.11180065355E+03  0.11180065358E+03  0.25500000000E-02 0. -1.
         11    1    1    2    0    0 -0.67612492062E+02  0.90144646378E+02 -0.22254158579E+02  0.11485971412E+03  0.51100000000E-03 0. -1.
         22    1    1    2    0    0 -0.88980755242E+02  0.29923693150E+02  0.36073115632E+02  0.10056973643E+03  0.00000000000E+00 0. -1.
          2    1    1    2  501    0  0.15659324730E+03 -0.12006833953E+03  0.87432543488E+03  0.89631624851E+03  0.25500000000E-02 0. -1.
<mgrwt>
<rscale>  0 0.19732676E+03</rscale>
<asrwt>0</asrwt>
<pdfrwt beam="1">  1       11 0.10000000E+01 0.21498578E+03</pdfrwt>
<pdfrwt beam="2">  1        2 0.17199155E-01 0.19732676E+03</pdfrwt>
<totfact> 0.40447358E+02</totfact>
</mgrwt>
</event>
<event>
 5    1  0.2799727E-003  0.1323509E+03  0.7818608E-02  0.1235859E+00
         11   -1    0    0    0    0  0.00000000000E+00  0.00000000000E+00  0.10001240765E+04  0.10001240765E+04  0.51100000000E-03 0. -1.
         -2   -1    0    0    0  501 -0.00000000000E+00 -0.00000000000E+00 -0.18406263634E+02  0.18406263811E+02  0.25500000000E-02 0. -1.
         11    1    1    2    0    0 -0.75639042134E+02  0.63387613157E+01  0.36311556879E+03  0.37096409649E+03  0.51100000000E-03 0. -1.
         22    1    1    2    0    0 -0.40207395509E+02  0.39256361053E+02  0.30541830055E+03  0.31054473888E+03  0.00000000000E+00 0. -1.
         -2    1    1    2    0  501  0.11584643764E+03 -0.45595122369E+02  0.31318394351E+03  0.33702150492E+03  0.25500000000E-02 0. -1.
<mgrwt>
<rscale>  0 0.12449623E+03</rscale>
<asrwt>0</asrwt>
<pdfrwt beam="1">  1       11 0.10000000E+01 0.13235089E+03</pdfrwt>
<pdfrwt beam="2">  1       -2 0.28320842E-02 0.12449623E+03</pdfrwt>
<totfact> 0.33993527E+03</totfact>
</mgrwt>
</event>
<event>
 5    1  0.2799727E-003  0.2724875E+03  0.7818608E-02  0.1105367E+00
         11   -1    0    0    0    0  0.00000000000E+00  0.00000000000E+00  0.10000051255E+04  0.10000051255E+04  0.51100000000E-03 0.  1.
          2   -1    0    0  501    0 -0.00000000000E+00 -0.00000000000E+00 -0.10048101246E+03  0.10048101249E+03  0.25500000000E-02 0.  1.
         11    1    1    2    0    0 -0.37764903377E+02 -0.20607704257E+03  0.66755626465E+03  0.69966084775E+03  0.51100000000E-03 0.  1.
         22    1    1    2    0    0 -0.12802349124E+02 -0.51993073051E+02  0.82458054840E+02  0.98318414330E+02  0.00000000000E+00 0.  1.
          2    1    1    2  501    0  0.50567252501E+02  0.25807011562E+03  0.14950979358E+03  0.30250687593E+03  0.25500000000E-02 0.  1.
<mgrwt>
<rscale>  0 0.26297763E+03</rscale>
<asrwt>0</asrwt>
<pdfrwt beam="1">  1       11 0.10000000E+01 0.27248747E+03</pdfrwt>
<pdfrwt beam="2">  1        2 0.15458696E-01 0.26297763E+03</pdfrwt>
<totfact> 0.46301664E+02</totfact>
</mgrwt>
</event>
<event>
 5    1  0.2799727E-003  0.5561393E+02  0.7818608E-02  0.1417218E+00
         11   -1    0    0    0    0  0.00000000000E+00  0.00000000000E+00  0.99995140113E+03  0.99995140113E+03  0.51100000000E-03 0. -1.
          2   -1    0    0  501    0 -0.00000000000E+00 -0.00000000000E+00 -0.72120750775E+01  0.72120755283E+01  0.25500000000E-02 0. -1.
         11    1    1    2    0    0  0.65031145924E+01  0.26389094015E+02  0.53933263031E+02  0.60394301418E+02  0.51100000000E-03 0. -1.
         22    1    1    2    0    0  0.52987527223E+02 -0.16265010770E+02  0.29664296314E+03  0.30177686491E+03  0.00000000000E+00 0. -1.
          2    1    1    2  501    0 -0.59490641815E+02 -0.10124083245E+02  0.64216309989E+03  0.64499231034E+03  0.25500000000E-02 0. -1.
<mgrwt>
<rscale>  0 0.55613925E+02</rscale>
<asrwt>0</asrwt>
<pdfrwt beam="1">  1       11 0.10000000E+01 0.27178586E+02</pdfrwt>
<pdfrwt beam="2">  1        2 0.11094961E-02 0.55613925E+02</pdfrwt>
<totfact> 0.12221343E+04</totfact>
</mgrwt>
</event>
<event>
 5    1  0.3070567E-003  0.1858382E+03  0.7818608E-02  0.1165210E+00
         11   -1    0    0    0    0  0.00000000000E+00  0.00000000000E+00  0.99992831527E+03  0.99992831527E+03  0.51100000000E-03 0.  1.
          2   -1    0    0  501    0 -0.00000000000E+00 -0.00000000000E+00 -0.52632913909E+03  0.52632913910E+03  0.25500000000E-02 0.  1.
         11    1    1    2    0    0  0.20751924048E+02  0.16948805366E+03  0.93438405387E+03  0.94985809615E+03  0.51100000000E-03 0.  1.
         22    1    1    2    0    0 -0.42185245992E+01  0.12467967502E+02  0.40643559654E+02  0.42721717016E+02  0.00000000000E+00 0. -1.
          2    1    1    2  501    0 -0.16533399449E+02 -0.18195602116E+03 -0.50142843735E+03  0.53367764121E+03  0.25500000000E-02 0.  1.
<mgrwt>
<rscale>  0 0.18270563E+03</rscale>
<asrwt>0</asrwt>
<pdfrwt beam="1">  1       11 0.10000000E+01 0.18583820E+03</pdfrwt>
<pdfrwt beam="2">  1        2 0.80967907E-01 0.18270563E+03</pdfrwt>
<totfact> 0.73684849E+01</totfact>
</mgrwt>
</event>
<event>
 5    1  0.2799727E-003  0.1023627E+03  0.7818608E-02  0.1284416E+00
         11   -1    0    0    0    0  0.00000000000E+00  0.00000000000E+00  0.10001881449E+04  0.10001881449E+04  0.51100000000E-03 0.  1.
          2   -1    0    0  501    0 -0.00000000000E+00 -0.00000000000E+00 -0.11925046125E+02  0.11925046398E+02  0.25500000000E-02 0.  1.
         11    1    1    2    0    0  0.55012479034E+02 -0.25593087586E+02  0.20699709796E+03  0.21570622974E+03  0.51100000000E-03 0.  1.
         22    1    1    2    0    0  0.24340214551E+02 -0.32027694077E+02  0.94947510286E+02  0.10311764612E+03  0.00000000000E+00 0. -1.
          2    1    1    2  501    0 -0.79352693584E+02  0.57620781663E+02  0.68631849051E+03  0.69328931542E+03  0.25500000000E-02 0.  1.
<mgrwt>
<rscale>  0 0.98066327E+02</rscale>
<asrwt>0</asrwt>
<pdfrwt beam="1">  1       11 0.10000000E+01 0.10236268E+03</pdfrwt>
<pdfrwt beam="2">  1        2 0.18349676E-02 0.98066327E+02</pdfrwt>
<totfact> 0.67485042E+03</totfact>
</mgrwt>
</event>
<event>
 5    1  0.2799727E-003  0.7432548E+02  0.7818608E-02  0.1367849E+00
         11   -1    0    0    0    0  0.00000000000E+00  0.00000000000E+00  0.10003652377E+04  0.10003652377E+04  0.51100000000E-03 0.  1.
          2   -1    0    0  501    0 -0.00000000000E+00 -0.00000000000E+00 -0.56411334527E+01  0.56411340290E+01  0.25500000000E-02 0.  1.
         11    1    1    2    0    0  0.25294364816E+02 -0.92216158924E+01  0.12880178997E+03  0.13158550145E+03  0.51100000000E-03 0.  1.
         22    1    1    2    0    0  0.40822310008E+02  0.24094183007E+02  0.22584530784E+03  0.23076631843E+03  0.00000000000E+00 0.  1.
          2    1    1    2  501    0 -0.66116674824E+02 -0.14872567114E+02  0.64007700642E+03  0.64365455184E+03  0.25500000000E-02 0.  1.
<mgrwt>
<rscale>  0 0.67768783E+02</rscale>
<asrwt>0</asrwt>
<pdfrwt beam="1">  1       11 0.10000000E+01 0.74325483E+02</pdfrwt>
<pdfrwt beam="2">  1        2 0.86818368E-03 0.67768783E+02</pdfrwt>
<totfact> 0.17627744E+04</totfact>
</mgrwt>
</event>
<event>
 5    1  0.2799727E-003  0.3056083E+02  0.7818608E-02  0.1612390E+00
         11   -1    0    0    0    0  0.00000000000E+00  0.00000000000E+00  0.99992467473E+03  0.99992467473E+03  0.51100000000E-03 0.  1.
          2   -1    0    0  501    0 -0.00000000000E+00 -0.00000000000E+00 -0.28199727769E+01  0.28199739298E+01  0.25500000000E-02 0.  1.
         11    1    1    2    0    0  0.11549476492E+01 -0.20017666865E+02  0.52410482623E+02  0.56115056623E+02  0.51100000000E-03 0.  1.
         22    1    1    2    0    0 -0.60935510605E+01 -0.82999300346E+01  0.35045232201E+02  0.36526545185E+02  0.00000000000E+00 0.  1.
          2    1    1    2  501    0  0.49386034113E+01  0.28317596900E+02  0.90964898713E+03  0.91010304685E+03  0.25500000000E-02 0.  1.
<mgrwt>
<rscale>  0 0.28745019E+02</rscale>
<asrwt>0</asrwt>
<pdfrwt beam="1">  1       11 0.10000000E+01 0.30560830E+02</pdfrwt>
<pdfrwt beam="2">  1        2 0.43380936E-03 0.28745019E+02</pdfrwt>
<totfact> 0.37269755E+04</totfact>
</mgrwt>
</event>
<event>
 5    1  0.2799727E-003  0.1297098E+03  0.7818608E-02  0.1292358E+00
         11   -1    0    0    0    0  0.00000000000E+00  0.00000000000E+00  0.99990147670E+03  0.99990147670E+03  0.51100000000E-03 0. -1.
         -2   -1    0    0    0  501 -0.00000000000E+00 -0.00000000000E+00 -0.32399750970E+03  0.32399750971E+03  0.25500000000E-02 0.  1.
         11    1    1    2    0    0  0.17107960871E+01  0.10461726885E+03  0.10967460391E+03  0.15157908335E+03  0.51100000000E-03 0. -1.
         22    1    1    2    0    0 -0.96179556421E+02 -0.10587436805E+03  0.85582853576E+03  0.86769947073E+03  0.00000000000E+00 0. -1.
         -2    1    1    2    0  501  0.94468760334E+02  0.12570992029E+01 -0.28959917267E+03  0.30462043234E+03  0.25500000000E-02 0.  1.
<mgrwt>
<rscale>  0 0.94477124E+02</rscale>
<asrwt>0</asrwt>
<pdfrwt beam="1">  1       11 0.10000000E+01 0.12970982E+03</pdfrwt>
<pdfrwt beam="2">  1       -2 0.49840858E-01 0.94477124E+02</pdfrwt>
<totfact> 0.31372041E+01</totfact>
</mgrwt>
</event>
<event>
 5    1  0.2799727E-003  0.1738632E+03  0.7818608E-02  0.1180256E+00
         11   -1    0    0    0    0  0.00000000000E+00  0.00000000000E+00  0.10006193963E+04  0.10006193963E+04  0.51100000000E-03 0. -1.
         -2   -1    0    0    0  501 -0.00000000000E+00 -0.00000000000E+00 -0.30132838745E+02  0.30132838853E+02  0.25500000000E-02 0. -1.
         11    1    1    2    0    0 -0.45636347392E+02  0.84935034065E+02  0.38039960858E+03  0.39242897246E+03  0.51100000000E-03 0. -1.
         22    1    1    2    0    0 -0.56982945481E+01  0.74726846661E+02  0.20634810834E+03  0.21953613367E+03  0.00000000000E+00 0.  1.
         -2    1    1    2    0  501  0.51334641940E+02 -0.15966188073E+03  0.38373884066E+03  0.41878712905E+03  0.25500000000E-02 0. -1.
<mgrwt>
<rscale>  0 0.16771154E+03</rscale>
<asrwt>0</asrwt>
<pdfrwt beam="1">  1       11 0.10000000E+01 0.17386319E+03</pdfrwt>
<pdfrwt beam="2">  1       -2 0.46386926E-02 0.16771154E+03</pdfrwt>
<totfact> 0.16839840E+03</totfact>
</mgrwt>
</event>
<event>
 5    1  0.2799727E-003  0.4836705E+02  0.7818608E-02  0.1614748E+00
         11   -1    0    0    0    0  0.00000000000E+00  0.00000000000E+00  0.10002394349E+04  0.10002394349E+04  0.51100000000E-03 0. -1.
          2   -1    0    0  501    0 -0.00000000000E+00 -0.00000000000E+00 -0.12332431317E+02  0.12332431581E+02  0.25500000000E-02 0. -1.
         11    1    1    2    0    0 -0.30608463203E+02 -0.13726159029E+02  0.17886023635E+02  0.38015724419E+02  0.51100000000E-03 0. -1.
         22    1    1    2    0    0 -0.16846112636E+02  0.16392298398E+00  0.42417255373E+02  0.45640354239E+02  0.00000000000E+00 0. -1.
          2    1    1    2  501    0  0.47454575839E+02  0.13562236045E+02  0.92760372459E+03  0.92891578784E+03  0.25500000000E-02 0. -1.
<mgrwt>
<rscale>  0 0.28545313E+02</rscale>
<asrwt>0</asrwt>
<pdfrwt beam="1">  1       11 0.10000000E+01 0.48367049E+02</pdfrwt>
<pdfrwt beam="2">  1        2 0.18977514E-02 0.28545313E+02</pdfrwt>
<totfact> 0.53476098E+03</totfact>
</mgrwt>
</event>
<event>
 5    1  0.2799727E-003  0.1287809E+03  0.7818608E-02  0.1229276E+00
         11   -1    0    0    0    0  0.00000000000E+00  0.00000000000E+00  0.99977282818E+03  0.99977282818E+03  0.51100000000E-03 0.  1.
          2   -1    0    0  501    0 -0.00000000000E+00 -0.00000000000E+00 -0.28758206864E+02  0.28758206977E+02  0.25500000000E-02 0.  1.
         11    1    1    2    0    0  0.98273280574E+02  0.70503981313E+02  0.30310144434E+03  0.32634174513E+03  0.51100000000E-03 0.  1.
         22    1    1    2    0    0  0.44865524715E+02 -0.44623931703E+02  0.29925337397E+03  0.30587054847E+03  0.00000000000E+00 0.  1.
          2    1    1    2  501    0 -0.14313880529E+03 -0.25880049610E+02  0.36865980300E+03  0.39631874155E+03  0.25500000000E-02 0.  1.
<mgrwt>
<rscale>  0 0.12878091E+03</rscale>
<asrwt>0</asrwt>
<pdfrwt beam="1">  1       11 0.10000000E+01 0.63278832E+02</pdfrwt>
<pdfrwt beam="2">  1        2 0.44233343E-02 0.12878091E+03</pdfrwt>
<totfact> 0.21420885E+03</totfact>
</mgrwt>
</event>
<event>
 5    1  0.2799727E-003  0.6684277E+02  0.7818608E-02  0.1408373E+00
         11   -1    0    0    0    0  0.00000000000E+00  0.00000000000E+00  0.10006456436E+04  0.10006456436E+04  0.51100000000E-03 0.  1.
         -2   -1    0    0    0  501 -0.00000000000E+00 -0.00000000000E+00 -0.96169637591E+01  0.96169640972E+01  0.25500000000E-02 0. -1.
         11    1    1    2    0    0 -0.62807467907E+02 -0.10571570294E+02  0.37736025239E+03  0.38269739509E+03  0.51100000000E-03 0.  1.
         22    1    1    2    0    0 -0.95101387424E+01  0.48642893944E+02  0.23972329900E+03  0.24479345161E+03  0.00000000000E+00 0.  1.
         -2    1    1    2    0  501  0.72317606649E+02 -0.38071323649E+02  0.37394512845E+03  0.38277176099E+03  0.25500000000E-02 0. -1.
<mgrwt>
<rscale>  0 0.57558526E+02</rscale>
<asrwt>0</asrwt>
<pdfrwt beam="1">  1       11 0.10000000E+01 0.66842765E+02</pdfrwt>
<pdfrwt beam="2">  1       -2 0.14804881E-02 0.57558526E+02</pdfrwt>
<totfact> 0.77602793E+03</totfact>
</mgrwt>
</event>
<event>
 5    1  0.2799727E-003  0.1130591E+03  0.7818608E-02  0.1255007E+00
         11   -1    0    0    0    0  0.00000000000E+00  0.00000000000E+00  0.10004053534E+04  0.10004053534E+04  0.51100000000E-03 0. -1.
         -2   -1    0    0    0  501 -0.00000000000E+00 -0.00000000000E+00 -0.14561039901E+02  0.14561040124E+02  0.25500000000E-02 0. -1.
         11    1    1    2    0    0  0.89084305876E+02 -0.64249778681E+02  0.49551374340E+03  0.50754105008E+03  0.51100000000E-03 0. -1.
         22    1    1    2    0    0 -0.27147991523E+01 -0.13319263293E+02  0.72722029867E+02  0.73981528351E+02  0.00000000000E+00 0. -1.
         -2    1    1    2    0  501 -0.86369506724E+02  0.77569041973E+02  0.41760854020E+03  0.43344381507E+03  0.25500000000E-02 0. -1.
<mgrwt>
<rscale>  0 0.11305914E+03</rscale>
<asrwt>0</asrwt>
<pdfrwt beam="1">  1       11 0.10000000E+01 0.13593120E+02</pdfrwt>
<pdfrwt beam="2">  1       -2 0.22410680E-02 0.11305914E+03</pdfrwt>
<totfact> 0.47265899E+03</totfact>
</mgrwt>
</event>
<event>
 5    1  0.2799727E-003  0.1978236E+03  0.7818608E-02  0.1151588E+00
         11   -1    0    0    0    0  0.00000000000E+00  0.00000000000E+00  0.10001803462E+04  0.10001803462E+04  0.51100000000E-03 0. -1.
          2   -1    0    0  501    0 -0.00000000000E+00 -0.00000000000E+00 -0.90730118011E+02  0.90730118047E+02  0.25500000000E-02 0. -1.
         11    1    1    2    0    0  0.19013159593E+03  0.40690924146E+02  0.81534168123E+03  0.83820512539E+03  0.51100000000E-03 0. -1.
         22    1    1    2    0    0  0.65352226373E+01 -0.14381181291E+02  0.45860351941E+02  0.48504632670E+02  0.00000000000E+00 0.  1.
          2    1    1    2  501    0 -0.19666681856E+03 -0.26309742855E+02  0.48248195066E+02  0.20420070624E+03  0.25500000000E-02 0. -1.
<mgrwt>
<rscale>  0 0.19782361E+03</rscale>
<asrwt>0</asrwt>
<pdfrwt beam="1">  1       11 0.10000000E+01 0.15796440E+02</pdfrwt>
<pdfrwt beam="2">  1        2 0.13960997E-01 0.19782361E+03</pdfrwt>
<totfact> 0.51723252E+02</totfact>
</mgrwt>
</event>
<event>
 5    1  0.2799727E-003  0.1804425E+03  0.7818608E-02  0.1171692E+00
         11   -1    0    0    0    0  0.00000000000E+00  0.00000000000E+00  0.10004018704E+04  0.10004018704E+04  0.51100000000E-03 0. -1.
          2   -1    0    0  501    0 -0.00000000000E+00 -0.00000000000E+00 -0.16405362078E+03  0.16405362080E+03  0.25500000000E-02 0. -1.
         11    1    1    2    0    0  0.54501939639E+02 -0.15280831093E+03  0.88340190114E+03  0.89817579585E+03  0.51100000000E-03 0. -1.
         22    1    1    2    0    0  0.13886369304E+02 -0.94043430900E+01  0.58610840647E+02  0.60963132816E+02  0.00000000000E+00 0.  1.
          2    1    1    2  501    0 -0.68388308943E+02  0.16221265402E+03 -0.10566449219E+03  0.20531656251E+03  0.25500000000E-02 0. -1.
<mgrwt>
<rscale>  0 0.17603950E+03</rscale>
<asrwt>0</asrwt>
<pdfrwt beam="1">  1       11 0.10000000E+01 0.18044245E+03</pdfrwt>
<pdfrwt beam="2">  1        2 0.25249161E-01 0.17603950E+03</pdfrwt>
<totfact> 0.26064865E+02</totfact>
</mgrwt>
</event>
<event>
 5    1  0.2799727E-003  0.3281099E+03  0.7818608E-02  0.1085397E+00
         11   -1    0    0    0    0  0.00000000000E+00  0.00000000000E+00  0.10001269985E+04  0.10001269985E+04  0.51100000000E-03 0. -1.
          2   -1    0    0  501    0 -0.00000000000E+00 -0.00000000000E+00 -0.15540732407E+03  0.15540732409E+03  0.25500000000E-02 0. -1.
         11    1    1    2    0    0 -0.24205407065E+03 -0.32852898285E+02  0.55054840775E+03  0.60230642975E+03  0.51100000000E-03 0. -1.
         22    1    1    2    0    0 -0.56386246661E+02  0.60167768479E+02  0.23326887899E+03  0.24741450863E+03  0.00000000000E+00 0.  1.
          2    1    1    2  501    0  0.29844031731E+03 -0.27314870194E+02  0.60902387701E+02  0.30581338422E+03  0.25500000000E-02 0. -1.
<mgrwt>
<rscale>  0 0.29968771E+03</rscale>
<asrwt>0</asrwt>
<pdfrwt beam="1">  1       11 0.10000000E+01 0.32810994E+03</pdfrwt>
<pdfrwt beam="2">  1        2 0.23911855E-01 0.29968771E+03</pdfrwt>
<totfact> 0.28024655E+02</totfact>
</mgrwt>
</event>
<event>
 5    1  0.2799727E-003  0.1465820E+03  0.7818608E-02  0.1204737E+00
         11   -1    0    0    0    0  0.00000000000E+00  0.00000000000E+00  0.99999906653E+03  0.99999906653E+03  0.51100000000E-03 0.  1.
          2   -1    0    0  501    0 -0.00000000000E+00 -0.00000000000E+00 -0.10061505137E+03  0.10061505140E+03  0.25500000000E-02 0.  1.
         11    1    1    2    0    0 -0.46065426562E+02  0.14020641227E+03  0.84254258857E+03  0.85537002234E+03  0.51100000000E-03 0.  1.
         22    1    1    2    0    0 -0.19629075801E+02 -0.91323844299E+01  0.91965854384E+02  0.94479730285E+02  0.00000000000E+00 0.  1.
          2    1    1    2  501    0  0.65694502363E+02 -0.13107402784E+03 -0.35124427783E+02  0.15076436531E+03  0.25500000000E-02 0.  1.
<mgrwt>
<rscale>  0 0.14658198E+03</rscale>
<asrwt>0</asrwt>
<pdfrwt beam="1">  1       11 0.10000000E+01 0.21649505E+02</pdfrwt>
<pdfrwt beam="2">  1        2 0.15479224E-01 0.14658198E+03</pdfrwt>
<totfact> 0.45234062E+02</totfact>
</mgrwt>
</event>
<event>
 5    1  0.2799727E-003  0.1104315E+03  0.7818608E-02  0.1259773E+00
         11   -1    0    0    0    0  0.00000000000E+00  0.00000000000E+00  0.10000947871E+04  0.10000947871E+04  0.51100000000E-03 0. -1.
         -2   -1    0    0    0  501 -0.00000000000E+00 -0.00000000000E+00 -0.22386087956E+03  0.22386087958E+03  0.25500000000E-02 0.  1.
         11    1    1    2    0    0 -0.85122082636E+02  0.35649846400E+02  0.36825408477E+03  0.37964160922E+03  0.51100000000E-03 0. -1.
         22    1    1    2    0    0  0.15599929263E+02 -0.12218708561E+03  0.60541180602E+03  0.61781590830E+03  0.00000000000E+00 0. -1.
         -2    1    1    2    0  501  0.69522153373E+02  0.86537239212E+02 -0.19743198322E+03  0.22649814919E+03  0.25500000000E-02 0.  1.
<mgrwt>
<rscale>  0 0.11043150E+03</rscale>
<asrwt>0</asrwt>
<pdfrwt beam="1">  1       11 0.10000000E+01 0.92285863E+02</pdfrwt>
<pdfrwt beam="2">  1       -2 0.34443399E-01 0.11043150E+03</pdfrwt>
<totfact> 0.63277572E+01</totfact>
</mgrwt>
</event>
<event>
 5    1  0.2799727E-003  0.1208534E+03  0.7818608E-02  0.1241696E+00
         11   -1    0    0    0    0  0.00000000000E+00  0.00000000000E+00  0.10002099213E+04  0.10002099213E+04  0.51100000000E-03 0. -1.
         -2   -1    0    0    0  501 -0.00000000000E+00 -0.00000000000E+00 -0.41038306996E+02  0.41038307075E+02  0.25500000000E-02 0.  1.
         11    1    1    2    0    0  0.11322964941E+02  0.46408043614E+02  0.91385564350E+02  0.10311759025E+03  0.51100000000E-03 0. -1.
         22    1    1    2    0    0 -0.10132509370E+03 -0.11903409501E+03  0.77286356208E+03  0.78851377666E+03  0.00000000000E+00 0. -1.
         -2    1    1    2    0  501  0.90002128761E+02  0.72626051396E+02  0.94922487862E+02  0.14961686145E+03  0.25500000000E-02 0.  1.
<mgrwt>
<rscale>  0 0.12085341E+03</rscale>
<asrwt>0</asrwt>
<pdfrwt beam="1">  1       11 0.10000000E+01 0.47769429E+02</pdfrwt>
<pdfrwt beam="2">  1       -2 0.63149109E-02 0.12085341E+03</pdfrwt>
<totfact> 0.10285841E+03</totfact>
</mgrwt>
</event>
<event>
 5    1  0.2799727E-003  0.1723022E+03  0.7818608E-02  0.1175468E+00
         11   -1    0    0    0    0  0.00000000000E+00  0.00000000000E+00  0.99998940956E+03  0.99998940956E+03  0.51100000000E-03 0.  1.
          2   -1    0    0  501    0 -0.00000000000E+00 -0.00000000000E+00 -0.84760265357E+02  0.84760265395E+02  0.25500000000E-02 0. -1.
         11    1    1    2    0    0 -0.13203295827E+03 -0.17550492632E+01  0.33465532559E+03  0.35976376862E+03  0.51100000000E-03 0.  1.
         22    1    1    2    0    0 -0.44598115378E+02  0.74225079659E+02  0.51633892819E+03  0.52354965678E+03  0.00000000000E+00 0.  1.
          2    1    1    2  501    0  0.17663107364E+03 -0.72470030396E+02  0.64234890423E+02  0.20143624956E+03  0.25500000000E-02 0. -1.
<mgrwt>
<rscale>  0 0.17230222E+03</rscale>
<asrwt>0</asrwt>
<pdfrwt beam="1">  1       11 0.10000000E+01 0.86593039E+02</pdfrwt>
<pdfrwt beam="2">  1        2 0.13039902E-01 0.17230222E+03</pdfrwt>
<totfact> 0.55793565E+02</totfact>
</mgrwt>
</event>
<event>
 5    1  0.2799727E-003  0.1857865E+03  0.7818608E-02  0.1172401E+00
         11   -1    0    0    0    0  0.00000000000E+00  0.00000000000E+00  0.10006633731E+04  0.10006633731E+04  0.51100000000E-03 0. -1.
         -2   -1    0    0    0  501 -0.00000000000E+00 -0.00000000000E+00 -0.18462602670E+04  0.18462602670E+04  0.25500000000E-02 0.  1.
         11    1    1    2    0    0 -0.26212290795E+02 -0.14607731037E+03  0.88438175559E+03  0.89674787672E+03  0.51100000000E-03 0. -1.
         22    1    1    2    0    0  0.14682914404E+02 -0.28872955270E+02  0.10343983679E+03  0.10839296729E+03  0.00000000000E+00 0. -1.
         -2    1    1    2    0  501  0.11529376391E+02  0.17495026564E+03 -0.18334184863E+04  0.18417827961E+04  0.25500000000E-02 0.  1.
<mgrwt>
<rscale>  0 0.17532975E+03</rscale>
<asrwt>0</asrwt>
<pdfrwt beam="1">  1       11 0.10000000E+01 0.18578648E+03</pdfrwt>
<pdfrwt beam="2">  1       -2 0.28422846E+00 0.17532975E+03</pdfrwt>
<totfact> 0.38411273E-01</totfact>
</mgrwt>
</event>
<event>
 5    1  0.2799727E-003  0.1260285E+03  0.7818608E-02  0.1240059E+00
         11   -1    0    0    0    0  0.00000000000E+00  0.00000000000E+00  0.10001118462E+04  0.10001118462E+04  0.51100000000E-03 0.  1.
          2   -1    0    0  501    0 -0.00000000000E+00 -0.00000000000E+00 -0.23460931379E+02  0.23460931518E+02  0.25500000000E-02 0.  1.
         11    1    1    2    0    0  0.11040821755E+03  0.98262165217E+01  0.15538830882E+03  0.19087183017E+03  0.51100000000E-03 0.  1.
         22    1    1    2    0    0  0.11363840324E+02 -0.51878976560E+01  0.37615715294E+02  0.39635756409E+02  0.00000000000E+00 0.  1.
          2    1    1    2  501    0 -0.12177205787E+03 -0.46383188657E+01  0.78364689073E+03  0.79306519117E+03  0.25500000000E-02 0.  1.
<mgrwt>
<rscale>  0 0.12186036E+03</rscale>
<asrwt>0</asrwt>
<pdfrwt beam="1">  1       11 0.10000000E+01 0.12602854E+03</pdfrwt>
<pdfrwt beam="2">  1        2 0.36097777E-02 0.12186036E+03</pdfrwt>
<totfact> 0.27875056E+03</totfact>
</mgrwt>
</event>
<event>
 5    1  0.2911346E-003  0.1651306E+03  0.7818608E-02  0.1186393E+00
         11   -1    0    0    0    0  0.00000000000E+00  0.00000000000E+00  0.10002313705E+04  0.10002313705E+04  0.51100000000E-03 0.  1.
          2   -1    0    0  501    0 -0.00000000000E+00 -0.00000000000E+00 -0.25606735639E+03  0.25606735640E+03  0.25500000000E-02 0.  1.
         11    1    1    2    0    0  0.74467621982E+02  0.13289598181E+03  0.91333864273E+03  0.92595585478E+03  0.51100000000E-03 0.  1.
         22    1    1    2    0    0  0.11361429202E+02  0.45673899062E+01  0.53531655682E+02  0.54914308556E+02  0.00000000000E+00 0. -1.
          2    1    1    2  501    0 -0.85829051184E+02 -0.13746337172E+03 -0.22270628426E+03  0.27542856360E+03  0.25500000000E-02 0.  1.
<mgrwt>
<rscale>  0 0.16205803E+03</rscale>
<asrwt>0</asrwt>
<pdfrwt beam="1">  1       11 0.10000000E+01 0.16513056E+03</pdfrwt>
<pdfrwt beam="2">  1        2 0.39404092E-01 0.16205803E+03</pdfrwt>
<totfact> 0.16043257E+02</totfact>
</mgrwt>
</event>
<event>
 5    1  0.2799727E-003  0.4176281E+03  0.7818608E-02  0.1042531E+00
         11   -1    0    0    0    0  0.00000000000E+00  0.00000000000E+00  0.10011652474E+04  0.10011652474E+04  0.51100000000E-03 0. -1.
          2   -1    0    0  501    0 -0.00000000000E+00 -0.00000000000E+00 -0.22147793536E+04  0.22147793536E+04  0.25500000000E-02 0.  1.
         11    1    1    2    0    0 -0.16700714268E+03 -0.34455509586E+03  0.83374275366E+03  0.91746203141E+03  0.51100000000E-03 0. -1.
         22    1    1    2    0    0  0.14848725994E+02 -0.29293481989E+02  0.10427240639E+03  0.10932212715E+03  0.00000000000E+00 0. -1.
          2    1    1    2  501    0  0.15215841669E+03  0.37384857785E+03 -0.21516292663E+04  0.21891604424E+04  0.25500000000E-02 0.  1.
<mgrwt>
<rscale>  0 0.40362723E+03</rscale>
<asrwt>0</asrwt>
<pdfrwt beam="1">  1       11 0.10000000E+01 0.41762815E+03</pdfrwt>
<pdfrwt beam="2">  1        2 0.34113232E+00 0.40362723E+03</pdfrwt>
<totfact> 0.68517458E+00</totfact>
</mgrwt>
</event>
<event>
 5    1  0.2799727E-003  0.1530844E+03  0.7818608E-02  0.1198857E+00
         11   -1    0    0    0    0  0.00000000000E+00  0.00000000000E+00  0.10001150330E+04  0.10001150330E+04  0.51100000000E-03 0. -1.
          2   -1    0    0  501    0 -0.00000000000E+00 -0.00000000000E+00 -0.40398956037E+02  0.40398956117E+02  0.25500000000E-02 0. -1.
         11    1    1    2    0    0  0.12665110552E+03 -0.15881295179E+02  0.67759639979E+03  0.68951403110E+03  0.51100000000E-03 0. -1.
         22    1    1    2    0    0  0.24411574737E+02  0.70175088886E+01  0.14366985708E+03  0.14589790350E+03  0.00000000000E+00 0. -1.
          2    1    1    2  501    0 -0.15106268026E+03  0.88637862904E+01  0.13844982005E+03  0.20510205448E+03  0.25500000000E-02 0. -1.
<mgrwt>
<rscale>  0 0.15132250E+03</rscale>
<asrwt>0</asrwt>
<pdfrwt beam="1">  1       11 0.10000000E+01 0.15308441E+03</pdfrwt>
<pdfrwt beam="2">  1        2 0.62159388E-02 0.15132250E+03</pdfrwt>
<totfact> 0.13934413E+03</totfact>
</mgrwt>
</event>
<event>
 5    1  0.2799727E-003  0.2225089E+03  0.7818608E-02  0.1133521E+00
         11   -1    0    0    0    0  0.00000000000E+00  0.00000000000E+00  0.10003234952E+04  0.10003234952E+04  0.51100000000E-03 0. -1.
          2   -1    0    0  501    0 -0.00000000000E+00 -0.00000000000E+00 -0.13051901273E+03  0.13051901275E+03  0.25500000000E-02 0. -1.
         11    1    1    2    0    0 -0.11356618828E+03 -0.17360408821E+03  0.82472956246E+03  0.85042019599E+03  0.51100000000E-03 0. -1.
         22    1    1    2    0    0 -0.13548025368E+02 -0.65524824404E+01  0.57645420808E+02  0.59577500431E+02  0.00000000000E+00 0.  1.
          2    1    1    2  501    0  0.12711421365E+03  0.18015657065E+03 -0.12570500838E+02  0.22084481148E+03  0.25500000000E-02 0. -1.
<mgrwt>
<rscale>  0 0.22048676E+03</rscale>
<asrwt>0</asrwt>
<pdfrwt beam="1">  1       11 0.10000000E+01 0.22250887E+03</pdfrwt>
<pdfrwt beam="2">  1        2 0.20086343E-01 0.22048676E+03</pdfrwt>
<totfact> 0.33928020E+02</totfact>
</mgrwt>
</event>
<event>
 5    1  0.2799727E-003  0.2652893E+03  0.7818608E-02  0.1112703E+00
         11   -1    0    0    0    0  0.00000000000E+00  0.00000000000E+00  0.10002302437E+04  0.10002302437E+04  0.51100000000E-03 0. -1.
          2   -1    0    0  501    0 -0.00000000000E+00 -0.00000000000E+00 -0.25818606018E+03  0.25818606020E+03  0.25500000000E-02 0. -1.
         11    1    1    2    0    0 -0.98475428270E+02  0.72271169258E+02  0.53507844637E+03  0.54884376251E+03  0.51100000000E-03 0. -1.
         22    1    1    2    0    0 -0.57595469670E+02  0.12424873980E+03  0.38054455421E+03  0.40443682474E+03  0.00000000000E+00 0.  1.
          2    1    1    2  501    0  0.15607089794E+03 -0.19651990906E+03 -0.17357881705E+03  0.30513571665E+03  0.25500000000E-02 0. -1.
<mgrwt>
<rscale>  0 0.25095458E+03</rscale>
<asrwt>0</asrwt>
<pdfrwt beam="1">  1       11 0.10000000E+01 0.26528927E+03</pdfrwt>
<pdfrwt beam="2">  1        2 0.39730077E-01 0.25095458E+03</pdfrwt>
<totfact> 0.15955247E+02</totfact>
</mgrwt>
</event>
<event>
 5    1  0.2799727E-003  0.6973025E+02  0.7818608E-02  0.1557471E+00
         11   -1    0    0    0    0  0.00000000000E+00  0.00000000000E+00  0.10002306125E+04  0.10002306125E+04  0.51100000000E-03 0. -1.
          2   -1    0    0  501    0 -0.00000000000E+00 -0.00000000000E+00 -0.24969553332E+03  0.24969553333E+03  0.25500000000E-02 0. -1.
         11    1    1    2    0    0 -0.23704213137E+02  0.57784917331E+02 -0.22270475263E+03  0.23129719677E+03  0.51100000000E-03 0. -1.
         22    1    1    2    0    0  0.12370987258E+02  0.11066612051E+02 -0.18260060742E+02  0.24676730868E+02  0.00000000000E+00 0.  1.
          2    1    1    2  501    0  0.11333225879E+02 -0.68851529381E+02  0.99149989256E+03  0.99395221820E+03  0.25500000000E-02 0. -1.
<mgrwt>
<rscale>  0 0.34020862E+02</rscale>
<asrwt>0</asrwt>
<pdfrwt beam="1">  1       11 0.10000000E+01 0.69730246E+02</pdfrwt>
<pdfrwt beam="2">  1        2 0.38423555E-01 0.34020862E+02</pdfrwt>
<totfact> 0.16075951E+02</totfact>
</mgrwt>
</event>
<event>
 5    1  0.2799727E-003  0.5823096E+03  0.7818608E-02  0.1000753E+00
         11   -1    0    0    0    0  0.00000000000E+00  0.00000000000E+00  0.99965601887E+03  0.99965601887E+03  0.51100000000E-03 0.  1.
          2   -1    0    0  501    0 -0.00000000000E+00 -0.00000000000E+00 -0.10212896929E+04  0.10212896929E+04  0.25500000000E-02 0. -1.
         11    1    1    2    0    0 -0.23350389358E+02  0.39262449183E+03  0.52243475524E+03  0.65393983343E+03  0.51100000000E-03 0.  1.
         22    1    1    2    0    0 -0.12372511274E+03  0.14067907840E+03  0.30243662213E+03  0.35576174194E+03  0.00000000000E+00 0. -1.
          2    1    1    2  501    0  0.14707550210E+03 -0.53330357023E+03 -0.84650505135E+03  0.10112441364E+04  0.25500000000E-02 0. -1.
<mgrwt>
<rscale>  0 0.55321235E+03</rscale>
<asrwt>0</asrwt>
<pdfrwt beam="1">  1       11 0.10000000E+01 0.58230961E+03</pdfrwt>
<pdfrwt beam="2">  1        2 0.15706744E+00 0.55321235E+03</pdfrwt>
<totfact> 0.30816615E+01</totfact>
</mgrwt>
</event>
<event>
 5    1  0.2799727E-003  0.1480666E+03  0.7818608E-02  0.1205540E+00
         11   -1    0    0    0    0  0.00000000000E+00  0.00000000000E+00  0.10001417698E+04  0.10001417698E+04  0.51100000000E-03 0. -1.
         -2   -1    0    0    0  501 -0.00000000000E+00 -0.00000000000E+00 -0.23462434485E+02  0.23462434623E+02  0.25500000000E-02 0. -1.
         11    1    1    2    0    0 -0.65224402621E+02  0.10066773458E+03  0.30671659274E+03  0.32933764398E+03  0.51100000000E-03 0. -1.
         22    1    1    2    0    0 -0.12244675914E+02  0.23025143522E+02  0.40991934092E+02  0.48584235952E+02  0.00000000000E+00 0. -1.
         -2    1    1    2    0  501  0.77469078536E+02 -0.12369287811E+03  0.62897080851E+03  0.64568232451E+03  0.25500000000E-02 0. -1.
<mgrwt>
<rscale>  0 0.14594994E+03</rscale>
<asrwt>0</asrwt>
<pdfrwt beam="1">  1       11 0.10000000E+01 0.14806663E+03</pdfrwt>
<pdfrwt beam="2">  1       -2 0.36101169E-02 0.14594994E+03</pdfrwt>
<totfact> 0.24173510E+03</totfact>
</mgrwt>
</event>
<event>
 5    1  0.2799727E-003  0.4265951E+02  0.7818608E-02  0.1712061E+00
         11   -1    0    0    0    0  0.00000000000E+00  0.00000000000E+00  0.10000772392E+04  0.10000772392E+04  0.51100000000E-03 0. -1.
          2   -1    0    0  501    0 -0.00000000000E+00 -0.00000000000E+00 -0.55530659872E+02  0.55530659930E+02  0.25500000000E-02 0. -1.
         11    1    1    2    0    0 -0.23922413647E+02  0.32748598293E+02 -0.39858832755E+02  0.56863688886E+02  0.51100000000E-03 0. -1.
         22    1    1    2    0    0 -0.93586132153E+01 -0.60082493532E+01 -0.20979931448E+01  0.11317432431E+02  0.00000000000E+00 0. -1.
          2    1    1    2  501    0  0.33281026862E+02 -0.26740348940E+02  0.98650340524E+03  0.98742677782E+03  0.25500000000E-02 0. -1.
<mgrwt>
<rscale>  0 0.21781364E+02</rscale>
<asrwt>0</asrwt>
<pdfrwt beam="1">  1       11 0.10000000E+01 0.42659510E+02</pdfrwt>
<pdfrwt beam="2">  1        2 0.85438381E-02 0.21781364E+02</pdfrwt>
<totfact> 0.79607882E+02</totfact>
</mgrwt>
</event>
<event>
 5    1  0.2799727E-003  0.1920534E+03  0.7818608E-02  0.1170551E+00
         11   -1    0    0    0    0  0.00000000000E+00  0.00000000000E+00  0.10005260698E+04  0.10005260698E+04  0.51100000000E-03 0. -1.
          2   -1    0    0  501    0 -0.00000000000E+00 -0.00000000000E+00 -0.16744675055E+04  0.16744675055E+04  0.25500000000E-02 0. -1.
         11    1    1    2    0    0 -0.28461062287E+01  0.13777693523E+03  0.70136047399E+03  0.71477066159E+03  0.51100000000E-03 0. -1.
         22    1    1    2    0    0 -0.42667087122E+02  0.33467439430E+02  0.28519215732E+03  0.29030176786E+03  0.00000000000E+00 0. -1.
          2    1    1    2  501    0  0.45513193351E+02 -0.17124437466E+03 -0.16604940670E+04  0.16699211458E+04  0.25500000000E-02 0. -1.
<mgrwt>
<rscale>  0 0.17718941E+03</rscale>
<asrwt>0</asrwt>
<pdfrwt beam="1">  1       11 0.10000000E+01 0.19205336E+03</pdfrwt>
<pdfrwt beam="2">  1        2 0.25774590E+00 0.17718941E+03</pdfrwt>
<totfact> 0.14304561E+01</totfact>
</mgrwt>
</event>
<event>
 5    1  0.2799727E-003  0.2546107E+03  0.7818608E-02  0.1350115E+00
         11   -1    0    0    0    0  0.00000000000E+00  0.00000000000E+00  0.99998637200E+03  0.99998637200E+03  0.51100000000E-03 0. -1.
         -2   -1    0    0    0  501 -0.00000000000E+00 -0.00000000000E+00 -0.28683631066E+03  0.28683631068E+03  0.25500000000E-02 0.  1.
         11    1    1    2    0    0  0.26815662862E+03 -0.97192184294E+02  0.12719553688E+03  0.31230274217E+03  0.51100000000E-03 0. -1.
         22    1    1    2    0    0 -0.20765491582E+03  0.13807563087E+03  0.75246091697E+03  0.79270604607E+03  0.00000000000E+00 0. -1.
         -2    1    1    2    0  501 -0.60501712802E+02 -0.40883446578E+02 -0.16650639252E+03  0.18181389444E+03  0.25500000000E-02 0.  1.
<mgrwt>
<rscale>  0 0.73019952E+02</rscale>
<asrwt>0</asrwt>
<pdfrwt beam="1">  1       11 0.10000000E+01 0.25461069E+03</pdfrwt>
<pdfrwt beam="2">  1       -2 0.44128061E-01 0.73019952E+02</pdfrwt>
<totfact> 0.39640643E+01</totfact>
</mgrwt>
</event>
<event>
 5    1  0.2799727E-003  0.4598352E+03  0.7818608E-02  0.1035093E+00
         11   -1    0    0    0    0  0.00000000000E+00  0.00000000000E+00  0.10000882534E+04  0.10000882534E+04  0.51100000000E-03 0.  1.
          2   -1    0    0  501    0 -0.00000000000E+00 -0.00000000000E+00 -0.20807205272E+03  0.20807205274E+03  0.25500000000E-02 0.  1.
         11    1    1    2    0    0 -0.32984903617E+03 -0.33258674604E+02  0.29631886012E+03  0.44464749293E+03  0.51100000000E-03 0.  1.
         22    1    1    2    0    0 -0.91137916305E+02 -0.32684532215E+02  0.25802372383E+03  0.27559143762E+03  0.00000000000E+00 0.  1.
          2    1    1    2  501    0  0.42098695248E+03  0.65943206819E+02  0.23767361677E+03  0.48792137563E+03  0.25500000000E-02 0.  1.
<mgrwt>
<rscale>  0 0.42612031E+03</rscale>
<asrwt>0</asrwt>
<pdfrwt beam="1">  1       11 0.10000000E+01 0.45983521E+03</pdfrwt>
<pdfrwt beam="2">  1        2 0.32013909E-01 0.42612031E+03</pdfrwt>
<totfact> 0.20311891E+02</totfact>
</mgrwt>
</event>
<event>
 5    1  0.2799727E-003  0.1152487E+03  0.7818608E-02  0.1321685E+00
         11   -1    0    0    0    0  0.00000000000E+00  0.00000000000E+00  0.10003092463E+04  0.10003092463E+04  0.51100000000E-03 0.  1.
          2   -1    0    0  501    0 -0.00000000000E+00 -0.00000000000E+00 -0.63843531752E+02  0.63843531803E+02  0.25500000000E-02 0.  1.
         11    1    1    2    0    0 -0.94323881453E+02 -0.15997185647E+02  0.28541748701E+03  0.30102499307E+03  0.51100000000E-03 0.  1.
         22    1    1    2    0    0  0.10582553219E+03  0.97846611684E+02  0.66400290477E+03  0.67946512804E+03  0.00000000000E+00 0.  1.
          2    1    1    2  501    0 -0.11501650741E+02 -0.81849426036E+02 -0.12954677201E+02  0.83662657023E+02  0.25500000000E-02 0.  1.
<mgrwt>
<rscale>  0 0.82653594E+02</rscale>
<asrwt>0</asrwt>
<pdfrwt beam="1">  1       11 0.10000000E+01 0.11524866E+03</pdfrwt>
<pdfrwt beam="2">  1        2 0.98251190E-02 0.82653594E+02</pdfrwt>
<totfact> 0.75403860E+02</totfact>
</mgrwt>
</event>
<event>
 5    1  0.2799727E-003  0.2423414E+03  0.7818608E-02  0.1118243E+00
         11   -1    0    0    0    0  0.00000000000E+00  0.00000000000E+00  0.10002354489E+04  0.10002354489E+04  0.51100000000E-03 0. -1.
          2   -1    0    0  501    0 -0.00000000000E+00 -0.00000000000E+00 -0.68357535828E+02  0.68357535875E+02  0.25500000000E-02 0. -1.
         11    1    1    2    0    0 -0.15683139058E+03  0.18677802980E+03  0.29475463167E+03  0.38257340521E+03  0.51100000000E-03 0. -1.
         22    1    1    2    0    0  0.13294209136E+02  0.51976412508E+01  0.27986314731E+02  0.31416321926E+02  0.00000000000E+00 0. -1.
          2    1    1    2  501    0  0.14353718144E+03 -0.19197567105E+03  0.60913696665E+03  0.65460325761E+03  0.25500000000E-02 0. -1.
<mgrwt>
<rscale>  0 0.24234144E+03</rscale>
<asrwt>0</asrwt>
<pdfrwt beam="1">  1       11 0.10000000E+01 0.14274154E+02</pdfrwt>
<pdfrwt beam="2">  1        2 0.10519020E-01 0.24234144E+03</pdfrwt>
<totfact> 0.73637318E+02</totfact>
</mgrwt>
</event>
<event>
 5    1  0.2799727E-003  0.1471112E+03  0.7818608E-02  0.1207906E+00
         11   -1    0    0    0    0  0.00000000000E+00  0.00000000000E+00  0.10001438704E+04  0.10001438704E+04  0.51100000000E-03 0. -1.
          2   -1    0    0  501    0 -0.00000000000E+00 -0.00000000000E+00 -0.35875529057E+02  0.35875529148E+02  0.25500000000E-02 0.  1.
         11    1    1    2    0    0 -0.87932172739E+02  0.10434110450E+03  0.76063343356E+03  0.77277574582E+03  0.51100000000E-03 0. -1.
         22    1    1    2    0    0 -0.10610072329E+02  0.80896744294E+00  0.55749293793E+02  0.56755720607E+02  0.00000000000E+00 0.  1.
          2    1    1    2  501    0  0.98542245068E+02 -0.10515007195E+03  0.14788561402E+03  0.20648793315E+03  0.25500000000E-02 0.  1.
<mgrwt>
<rscale>  0 0.14410799E+03</rscale>
<asrwt>0</asrwt>
<pdfrwt beam="1">  1       11 0.10000000E+01 0.14711117E+03</pdfrwt>
<pdfrwt beam="2">  1        2 0.55201061E-02 0.14410799E+03</pdfrwt>
<totfact> 0.16187369E+03</totfact>
</mgrwt>
</event>
<event>
 5    1  0.2799727E-003  0.2718007E+03  0.7818608E-02  0.1100253E+00
         11   -1    0    0    0    0  0.00000000000E+00  0.00000000000E+00  0.10000844718E+04  0.10000844718E+04  0.51100000000E-03 0.  1.
          2   -1    0    0  501    0 -0.00000000000E+00 -0.00000000000E+00 -0.37873670995E+03  0.37873670995E+03  0.25500000000E-02 0.  1.
         11    1    1    2    0    0 -0.54661084806E+02 -0.26113143121E+03  0.88097497277E+03  0.92048593753E+03  0.51100000000E-03 0.  1.
         22    1    1    2    0    0 -0.13536850004E+02 -0.22879631840E+01  0.46659567665E+02  0.48637396499E+02  0.00000000000E+00 0.  1.
          2    1    1    2  501    0  0.68197934810E+02  0.26341939439E+03 -0.30628677860E+03  0.40969784770E+03  0.25500000000E-02 0.  1.
<mgrwt>
<rscale>  0 0.27180070E+03</rscale>
<asrwt>0</asrwt>
<pdfrwt beam="1">  1       11 0.10000000E+01 0.13728841E+02</pdfrwt>
<pdfrwt beam="2">  1        2 0.58272106E-01 0.27180070E+03</pdfrwt>
<totfact> 0.10537046E+02</totfact>
</mgrwt>
</event>
<event>
 5    1  0.2799727E-003  0.4579385E+02  0.7818608E-02  0.1649071E+00
         11   -1    0    0    0    0  0.00000000000E+00  0.00000000000E+00  0.10000125307E+04  0.10000125307E+04  0.51100000000E-03 0. -1.
          2   -1    0    0  501    0 -0.00000000000E+00 -0.00000000000E+00 -0.41935446692E+01  0.41935454445E+01  0.25500000000E-02 0. -1.
         11    1    1    2    0    0 -0.44171948375E+01 -0.43030152006E+02  0.16119762013E+03  0.16690050428E+03  0.51100000000E-03 0. -1.
         22    1    1    2    0    0 -0.14592238691E+02  0.16340663313E+00  0.87031979627E+02  0.88246958075E+02  0.00000000000E+00 0. -1.
          2    1    1    2  501    0  0.19009433528E+02  0.42866745373E+02  0.74758938623E+03  0.74905861375E+03  0.25500000000E-02 0. -1.
<mgrwt>
<rscale>  0 0.25851042E+02</rscale>
<asrwt>0</asrwt>
<pdfrwt beam="1">  1       11 0.10000000E+01 0.45793852E+02</pdfrwt>
<pdfrwt beam="2">  1        2 0.64516884E-03 0.25851042E+02</pdfrwt>
<totfact> 0.21483014E+04</totfact>
</mgrwt>
</event>
<event>
 5    1  0.2799727E-003  0.2754221E+03  0.7818608E-02  0.1105215E+00
         11   -1    0    0    0    0  0.00000000000E+00  0.00000000000E+00  0.10004032421E+04  0.10004032421E+04  0.51100000000E-03 0. -1.
          2   -1    0    0  501    0 -0.00000000000E+00 -0.00000000000E+00 -0.18411859937E+03  0.18411859939E+03  0.25500000000E-02 0. -1.
         11    1    1    2    0    0  0.22067274213E+03 -0.27201659196E+02  0.61792262905E+03  0.65670751851E+03  0.51100000000E-03 0. -1.
         22    1    1    2    0    0  0.38285099373E+02 -0.20056266732E+02  0.25493198346E+03  0.25856975628E+03  0.00000000000E+00 0. -1.
          2    1    1    2  501    0 -0.25895784150E+03  0.47257925928E+02 -0.56569969736E+02  0.26924456674E+03  0.25500000000E-02 0. -1.
<mgrwt>
<rscale>  0 0.26323464E+03</rscale>
<asrwt>0</asrwt>
<pdfrwt beam="1">  1       11 0.10000000E+01 0.27542207E+03</pdfrwt>
<pdfrwt beam="2">  1        2 0.28337360E-01 0.26323464E+03</pdfrwt>
<totfact> 0.23112219E+02</totfact>
</mgrwt>
</event>
<event>
 5    1  0.2799727E-003  0.1731043E+03  0.7818608E-02  0.1175926E+00
         11   -1    0    0    0    0  0.00000000000E+00  0.00000000000E+00  0.99989400157E+03  0.99989400157E+03  0.51100000000E-03 0. -1.
          2   -1    0    0  501    0 -0.00000000000E+00 -0.00000000000E+00 -0.33400402482E+02  0.33400402580E+02  0.25500000000E-02 0. -1.
         11    1    1    2    0    0 -0.10945438455E+03 -0.12016931904E+03  0.61512021851E+03  0.63623408488E+03  0.51100000000E-03 0. -1.
         22    1    1    2    0    0 -0.10003144588E+02 -0.33792151376E+01  0.40426022862E+02  0.41782117240E+02  0.00000000000E+00 0.  1.
          2    1    1    2  501    0  0.11945752914E+03  0.12354853417E+03  0.31094735772E+03  0.35527820204E+03  0.25500000000E-02 0. -1.
<mgrwt>
<rscale>  0 0.17185558E+03</rscale>
<asrwt>0</asrwt>
<pdfrwt beam="1">  1       11 0.10000000E+01 0.17310429E+03</pdfrwt>
<pdfrwt beam="2">  1        2 0.51379786E-02 0.17185558E+03</pdfrwt>
<totfact> 0.18018598E+03</totfact>
</mgrwt>
</event>
<event>
 5    1  0.2799727E-003  0.3684298E+02  0.7818608E-02  0.1545935E+00
         11   -1    0    0    0    0  0.00000000000E+00  0.00000000000E+00  0.10000604261E+04  0.10000604261E+04  0.51100000000E-03 0.  1.
          2   -1    0    0  501    0 -0.00000000000E+00 -0.00000000000E+00 -0.35463660740E+01  0.35463669908E+01  0.25500000000E-02 0.  1.
         11    1    1    2    0    0  0.20257467946E+02  0.10864012095E+02  0.52845066112E+02  0.57628055485E+02  0.51100000000E-03 0.  1.
         22    1    1    2    0    0  0.12677055113E+02  0.18460198065E+01  0.50075778295E+02  0.51688481186E+02  0.00000000000E+00 0. -1.
          2    1    1    2  501    0 -0.32934523059E+02 -0.12710031902E+02  0.89359321565E+03  0.89429025645E+03  0.25500000000E-02 0.  1.
<mgrwt>
<rscale>  0 0.35301951E+02</rscale>
<asrwt>0</asrwt>
<pdfrwt beam="1">  1       11 0.10000000E+01 0.36842977E+02</pdfrwt>
<pdfrwt beam="2">  1        2 0.54562780E-03 0.35301951E+02</pdfrwt>
<totfact> 0.28881502E+04</totfact>
</mgrwt>
</event>
<event>
 5    1  0.2799727E-003  0.9327650E+02  0.7818608E-02  0.1295106E+00
         11   -1    0    0    0    0  0.00000000000E+00  0.00000000000E+00  0.10002488762E+04  0.10002488762E+04  0.51100000000E-03 0. -1.
          2   -1    0    0  501    0 -0.00000000000E+00 -0.00000000000E+00 -0.20020438461E+02  0.20020438624E+02  0.25500000000E-02 0. -1.
         11    1    1    2    0    0  0.16813053167E+02 -0.40710505535E+02  0.21710005603E+03  0.22152304247E+03  0.51100000000E-03 0. -1.
         22    1    1    2    0    0  0.69902269667E+01  0.12345077416E+03  0.61592361637E+03  0.62821243073E+03  0.00000000000E+00 0. -1.
          2    1    1    2  501    0 -0.23803280133E+02 -0.82740268622E+02  0.14720476536E+03  0.17053384165E+03  0.25500000000E-02 0. -1.
<mgrwt>
<rscale>  0 0.93276495E+02</rscale>
<asrwt>0</asrwt>
<pdfrwt beam="1">  1       11 0.10000000E+01 0.44045704E+02</pdfrwt>
<pdfrwt beam="2">  1        2 0.30808339E-02 0.93276495E+02</pdfrwt>
<totfact> 0.33462023E+03</totfact>
</mgrwt>
</event>
<event>
 5    1  0.2799727E-003  0.1059496E+03  0.7818608E-02  0.1275064E+00
         11   -1    0    0    0    0  0.00000000000E+00  0.00000000000E+00  0.10000113541E+04  0.10000113541E+04  0.51100000000E-03 0. -1.
          2   -1    0    0  501    0 -0.00000000000E+00 -0.00000000000E+00 -0.11271050032E+02  0.11271050321E+02  0.25500000000E-02 0. -1.
         11    1    1    2    0    0 -0.56089268027E+02 -0.47490398278E+02  0.27413383308E+03  0.28381455628E+03  0.51100000000E-03 0. -1.
         22    1    1    2    0    0 -0.10215360569E+02 -0.30714965707E+02  0.13218750091E+03  0.13609297597E+03  0.00000000000E+00 0.  1.
          2    1    1    2  501    0  0.66304628597E+02  0.78205363985E+02  0.58241897003E+03  0.59137487213E+03  0.25500000000E-02 0. -1.
<mgrwt>
<rscale>  0 0.10252991E+03</rscale>
<asrwt>0</asrwt>
<pdfrwt beam="1">  1       11 0.10000000E+01 0.10594956E+03</pdfrwt>
<pdfrwt beam="2">  1        2 0.17340274E-02 0.10252991E+03</pdfrwt>
<totfact> 0.73297049E+03</totfact>
</mgrwt>
</event>
<event>
 5    1  0.2799727E-003  0.1850239E+03  0.7818608E-02  0.1163028E+00
         11   -1    0    0    0    0  0.00000000000E+00  0.00000000000E+00  0.10002435620E+04  0.10002435620E+04  0.51100000000E-03 0. -1.
          2   -1    0    0  501    0 -0.00000000000E+00 -0.00000000000E+00 -0.31350151462E+02  0.31350151566E+02  0.25500000000E-02 0. -1.
         11    1    1    2    0    0  0.10281838772E+03 -0.13413631600E+03  0.47647292178E+03  0.50555970698E+03  0.51100000000E-03 0. -1.
         22    1    1    2    0    0 -0.42944837410E+02  0.27145523690E+02  0.72132853467E+02  0.88228606845E+02  0.00000000000E+00 0. -1.
          2    1    1    2  501    0 -0.59873550310E+02  0.10699079231E+03  0.42028763532E+03  0.43780539978E+03  0.25500000000E-02 0. -1.
<mgrwt>
<rscale>  0 0.18502389E+03</rscale>
<asrwt>0</asrwt>
<pdfrwt beam="1">  1       11 0.10000000E+01 0.16900938E+03</pdfrwt>
<pdfrwt beam="2">  1        2 0.48242748E-02 0.18502389E+03</pdfrwt>
<totfact> 0.19688032E+03</totfact>
</mgrwt>
</event>
<event>
 5    1  0.2799727E-003  0.1238517E+03  0.7818608E-02  0.1699258E+00
         11   -1    0    0    0    0  0.00000000000E+00  0.00000000000E+00  0.10004535063E+04  0.10004535063E+04  0.51100000000E-03 0. -1.
          2   -1    0    0  501    0 -0.00000000000E+00 -0.00000000000E+00 -0.52214390472E+03  0.52214390473E+03  0.25500000000E-02 0. -1.
         11    1    1    2    0    0  0.19708898525E+02 -0.12501017136E+03  0.54655210857E+03  0.56101264782E+03  0.51100000000E-03 0. -1.
         22    1    1    2    0    0  0.25851022391E+01  0.12176367234E+03  0.43811398767E+03  0.45472732582E+03  0.00000000000E+00 0. -1.
          2    1    1    2  501    0 -0.22294000764E+02  0.32464990274E+01 -0.50635649463E+03  0.50685743743E+03  0.25500000000E-02 0. -1.
<mgrwt>
<rscale>  0 0.22529142E+02</rscale>
<asrwt>0</asrwt>
<pdfrwt beam="1">  1       11 0.10000000E+01 0.12385168E+03</pdfrwt>
<pdfrwt beam="2">  1        2 0.80366259E-01 0.22529142E+02</pdfrwt>
<totfact> 0.76566828E+01</totfact>
</mgrwt>
</event>
<event>
 5    1  0.2799727E-003  0.1441554E+03  0.7818608E-02  0.1236395E+00
         11   -1    0    0    0    0  0.00000000000E+00  0.00000000000E+00  0.10004311192E+04  0.10004311192E+04  0.51100000000E-03 0.  1.
          2   -1    0    0  501    0 -0.00000000000E+00 -0.00000000000E+00 -0.22613646586E+03  0.22613646588E+03  0.25500000000E-02 0.  1.
         11    1    1    2    0    0  0.12126642782E+03  0.85339613165E+02  0.62946783497E+03  0.64669788259E+03  0.51100000000E-03 0.  1.
         22    1    1    2    0    0 -0.27993671521E+02 -0.16728317178E+03  0.32175738791E+03  0.36372396385E+03  0.00000000000E+00 0.  1.
          2    1    1    2  501    0 -0.93272756295E+02  0.81943558614E+02 -0.17693056957E+03  0.21614573861E+03  0.25500000000E-02 0.  1.
<mgrwt>
<rscale>  0 0.12415536E+03</rscale>
<asrwt>0</asrwt>
<pdfrwt beam="1">  1       11 0.10000000E+01 0.14415542E+03</pdfrwt>
<pdfrwt beam="2">  1        2 0.34805223E-01 0.12415536E+03</pdfrwt>
<totfact> 0.18261277E+02</totfact>
</mgrwt>
</event>
<event>
 5    1  0.2799727E-003  0.1670564E+03  0.7818608E-02  0.1180953E+00
         11   -1    0    0    0    0  0.00000000000E+00  0.00000000000E+00  0.10001268024E+04  0.10001268024E+04  0.51100000000E-03 0. -1.
          2   -1    0    0  501    0 -0.00000000000E+00 -0.00000000000E+00 -0.33506247597E+02  0.33506247694E+02  0.25500000000E-02 0. -1.
         11    1    1    2    0    0  0.16278291439E+03  0.50745837257E+01  0.33158353637E+03  0.36942072249E+03  0.51100000000E-03 0. -1.
         22    1    1    2    0    0  0.11309259800E+02 -0.16703416037E+02  0.70158568007E+02  0.73000877593E+02  0.00000000000E+00 0.  1.
          2    1    1    2  501    0 -0.17409217419E+03  0.11628832312E+02  0.56487845042E+03  0.59121145000E+03  0.25500000000E-02 0. -1.
<mgrwt>
<rscale>  0 0.16705639E+03</rscale>
<asrwt>0</asrwt>
<pdfrwt beam="1">  1       11 0.10000000E+01 0.20171848E+02</pdfrwt>
<pdfrwt beam="2">  1        2 0.51554608E-02 0.16705639E+03</pdfrwt>
<totfact> 0.17899779E+03</totfact>
</mgrwt>
</event>
<event>
 5    1  0.2799727E-003  0.5275896E+03  0.7818608E-02  0.1006818E+00
         11   -1    0    0    0    0  0.00000000000E+00  0.00000000000E+00  0.10001742968E+04  0.10001742968E+04  0.51100000000E-03 0. -1.
          2   -1    0    0  501    0 -0.00000000000E+00 -0.00000000000E+00 -0.30420841041E+03  0.30420841042E+03  0.25500000000E-02 0. -1.
         11    1    1    2    0    0 -0.39005022666E+03 -0.35990336909E+03  0.36122751413E+03  0.64199293716E+03  0.51100000000E-03 0. -1.
         22    1    1    2    0    0  0.34832153519E+02 -0.27566671228E+02  0.39812069102E+02  0.59650659071E+02  0.00000000000E+00 0.  1.
          2    1    1    2  501    0  0.35521807314E+03  0.38747004032E+03  0.29492630317E+03  0.60273911101E+03  0.25500000000E-02 0. -1.
<mgrwt>
<rscale>  0 0.52758957E+03</rscale>
<asrwt>0</asrwt>
<pdfrwt beam="1">  1       11 0.10000000E+01 0.44420719E+02</pdfrwt>
<pdfrwt beam="2">  1        2 0.46809450E-01 0.52758957E+03</pdfrwt>
<totfact> 0.13362901E+02</totfact>
</mgrwt>
</event>
<event>
 5    1  0.2799727E-003  0.2182057E+03  0.7818608E-02  0.1139359E+00
         11   -1    0    0    0    0  0.00000000000E+00  0.00000000000E+00  0.10000085984E+04  0.10000085984E+04  0.51100000000E-03 0. -1.
          2   -1    0    0  501    0 -0.00000000000E+00 -0.00000000000E+00 -0.62942549685E+03  0.62942549685E+03  0.25500000000E-02 0. -1.
         11    1    1    2    0    0  0.11152280859E+03  0.15480008591E+03  0.84712309998E+03  0.86834206966E+03  0.51100000000E-03 0. -1.
         22    1    1    2    0    0 -0.15189676448E+01  0.27374356655E+02  0.12241844505E+03  0.12545094003E+03  0.00000000000E+00 0. -1.
          2    1    1    2  501    0 -0.11000384094E+03 -0.18217444256E+03 -0.59895844351E+03  0.63564108553E+03  0.25500000000E-02 0. -1.
<mgrwt>
<rscale>  0 0.21281065E+03</rscale>
<asrwt>0</asrwt>
<pdfrwt beam="1">  1       11 0.10000000E+01 0.21820573E+03</pdfrwt>
<pdfrwt beam="2">  1        2 0.96835522E-01 0.21281065E+03</pdfrwt>
<totfact> 0.59846861E+01</totfact>
</mgrwt>
</event>
<event>
 5    1  0.2799727E-003  0.3011319E+03  0.7818608E-02  0.1087114E+00
         11   -1    0    0    0    0  0.00000000000E+00  0.00000000000E+00  0.10003922232E+04  0.10003922232E+04  0.51100000000E-03 0. -1.
          2   -1    0    0  501    0 -0.00000000000E+00 -0.00000000000E+00 -0.36117081871E+03  0.36117081872E+03  0.25500000000E-02 0. -1.
         11    1    1    2    0    0  0.13712182701E+03 -0.23141524879E+03  0.76561786696E+03  0.81149622982E+03  0.51100000000E-03 0. -1.
         22    1    1    2    0    0  0.17734501475E+02 -0.21177216788E+02  0.14540042644E+03  0.14800091575E+03  0.00000000000E+00 0.  1.
          2    1    1    2  501    0 -0.15485632848E+03  0.25259246557E+03 -0.27179688894E+03  0.40206589631E+03  0.25500000000E-02 0. -1.
<mgrwt>
<rscale>  0 0.29628270E+03</rscale>
<asrwt>0</asrwt>
<pdfrwt beam="1">  1       11 0.10000000E+01 0.30113193E+03</pdfrwt>
<pdfrwt beam="2">  1        2 0.55586534E-01 0.29628270E+03</pdfrwt>
<totfact> 0.11088016E+02</totfact>
</mgrwt>
</event>
<event>
 5    1  0.2799727E-003  0.3620328E+02  0.7818608E-02  0.1550663E+00
         11   -1    0    0    0    0  0.00000000000E+00  0.00000000000E+00  0.10000953669E+04  0.10000953669E+04  0.51100000000E-03 0. -1.
          2   -1    0    0  501    0 -0.00000000000E+00 -0.00000000000E+00 -0.41227317398E+01  0.41227325284E+01  0.25500000000E-02 0. -1.
         11    1    1    2    0    0  0.15771058131E+02  0.12072535230E+02  0.34642984943E+02  0.39932552979E+02  0.51100000000E-03 0. -1.
         22    1    1    2    0    0  0.10339866271E+02  0.10885874247E+02  0.47976548699E+02  0.50270909259E+02  0.00000000000E+00 0. -1.
          2    1    1    2  501    0 -0.26110924402E+02 -0.22958409476E+02  0.91335310148E+03  0.91401463715E+03  0.25500000000E-02 0. -1.
<mgrwt>
<rscale>  0 0.34768793E+02</rscale>
<asrwt>0</asrwt>
<pdfrwt beam="1">  1       11 0.10000000E+01 0.36203277E+02</pdfrwt>
<pdfrwt beam="2">  1        2 0.63432695E-03 0.34768793E+02</pdfrwt>
<totfact> 0.23544187E+04</totfact>
</mgrwt>
</event>
<event>
 5    1  0.2799727E-003  0.6037050E+02  0.7818608E-02  0.1503546E+00
         11   -1    0    0    0    0  0.00000000000E+00  0.00000000000E+00  0.10000827261E+04  0.10000827261E+04  0.51100000000E-03 0. -1.
          2   -1    0    0  501    0 -0.00000000000E+00 -0.00000000000E+00 -0.91261247493E+01  0.91261251056E+01  0.25500000000E-02 0. -1.
         11    1    1    2    0    0  0.60928068203E+02 -0.20883120485E+02  0.38944809230E+03  0.39473807875E+03  0.51100000000E-03 0. -1.
         22    1    1    2    0    0 -0.33478527543E+02  0.50853443428E+02  0.16159889031E+03  0.17268782778E+03  0.00000000000E+00 0. -1.
          2    1    1    2  501    0 -0.27449540660E+02 -0.29970322943E+02  0.43990961877E+03  0.44178294470E+03  0.25500000000E-02 0. -1.
<mgrwt>
<rscale>  0 0.40641082E+02</rscale>
<asrwt>0</asrwt>
<pdfrwt beam="1">  1       11 0.10000000E+01 0.60370495E+02</pdfrwt>
<pdfrwt beam="2">  1        2 0.14041353E-02 0.40641082E+02</pdfrwt>
<totfact> 0.84472068E+03</totfact>
</mgrwt>
</event>
<event>
 5    1  0.2799727E-003  0.1694409E+03  0.7818608E-02  0.1185009E+00
         11   -1    0    0    0    0  0.00000000000E+00  0.00000000000E+00  0.99978588712E+03  0.99978588712E+03  0.51100000000E-03 0. -1.
          2   -1    0    0  501    0 -0.00000000000E+00 -0.00000000000E+00 -0.73668433767E+02  0.73668433811E+02  0.25500000000E-02 0. -1.
         11    1    1    2    0    0 -0.12448022993E+03 -0.91164574706E+02  0.84260002869E+03  0.85661024724E+03  0.51100000000E-03 0. -1.
         22    1    1    2    0    0 -0.60108772773E+00 -0.13835835232E+02  0.47675756819E+02  0.49646444296E+02  0.00000000000E+00 0.  1.
          2    1    1    2  501    0  0.12508131766E+03  0.10500040994E+03  0.35841667842E+02  0.16719762939E+03  0.25500000000E-02 0. -1.
<mgrwt>
<rscale>  0 0.16331081E+03</rscale>
<asrwt>0</asrwt>
<pdfrwt beam="1">  1       11 0.10000000E+01 0.16944089E+03</pdfrwt>
<pdfrwt beam="2">  1        2 0.11331178E-01 0.16331081E+03</pdfrwt>
<totfact> 0.65942256E+02</totfact>
</mgrwt>
</event>
<event>
 5    1  0.2799727E-003  0.2416422E+03  0.7818608E-02  0.1120155E+00
         11   -1    0    0    0    0  0.00000000000E+00  0.00000000000E+00  0.10001603031E+04  0.10001603031E+04  0.51100000000E-03 0.  1.
          2   -1    0    0  501    0 -0.00000000000E+00 -0.00000000000E+00 -0.60704006065E+02  0.60704006119E+02  0.25500000000E-02 0.  1.
         11    1    1    2    0    0 -0.22940479720E+03 -0.13171069973E+02  0.55011618192E+03  0.59617770142E+03  0.51100000000E-03 0.  1.
         22    1    1    2    0    0 -0.92176859393E+01 -0.68104690332E+01  0.36556538885E+02  0.38310948275E+02  0.00000000000E+00 0.  1.
          2    1    1    2  501    0  0.23862248314E+03  0.19981539007E+02  0.35278357620E+03  0.42637565949E+03  0.25500000000E-02 0.  1.
<mgrwt>
<rscale>  0 0.23945762E+03</rscale>
<asrwt>0</asrwt>
<pdfrwt beam="1">  1       11 0.10000000E+01 0.24164223E+03</pdfrwt>
<pdfrwt beam="2">  1        2 0.93405747E-02 0.23945762E+03</pdfrwt>
<totfact> 0.85351305E+02</totfact>
</mgrwt>
</event>
<event>
 5    1  0.2799727E-003  0.2163130E+03  0.7818608E-02  0.1136662E+00
         11   -1    0    0    0    0  0.00000000000E+00  0.00000000000E+00  0.99981590853E+03  0.99981590853E+03  0.51100000000E-03 0. -1.
          2   -1    0    0  501    0 -0.00000000000E+00 -0.00000000000E+00 -0.23519993696E+03  0.23519993698E+03  0.25500000000E-02 0.  1.
         11    1    1    2    0    0 -0.15251660484E+03 -0.15489360161E+03  0.92180033094E+03  0.94708457526E+03  0.51100000000E-03 0. -1.
         22    1    1    2    0    0  0.82100717159E+01 -0.61852110819E+01  0.10181543741E+02  0.14468101004E+02  0.00000000000E+00 0.  1.
          2    1    1    2  501    0  0.14430653312E+03  0.16107881270E+03 -0.16736590311E+03  0.27346316925E+03  0.25500000000E-02 0.  1.
<mgrwt>
<rscale>  0 0.21631300E+03</rscale>
<asrwt>0</asrwt>
<pdfrwt beam="1">  1       11 0.10000000E+01 0.10279208E+02</pdfrwt>
<pdfrwt beam="2">  1        2 0.36177943E-01 0.21631300E+03</pdfrwt>
<totfact> 0.17638448E+02</totfact>
</mgrwt>
</event>
<event>
 5    1  0.2799727E-003  0.4994179E+02  0.7818608E-02  0.1445656E+00
         11   -1    0    0    0    0  0.00000000000E+00  0.00000000000E+00  0.99999956258E+03  0.99999956258E+03  0.51100000000E-03 0.  1.
          2   -1    0    0  501    0 -0.00000000000E+00 -0.00000000000E+00 -0.16543846783E+02  0.16543846979E+02  0.25500000000E-02 0.  1.
         11    1    1    2    0    0  0.19362398190E+02 -0.14806269444E+02  0.96250527425E+01  0.26206291593E+02  0.51100000000E-03 0.  1.
         22    1    1    2    0    0  0.19832585138E+02 -0.43811598872E+02  0.77308311504E+02  0.91045937069E+02  0.00000000000E+00 0.  1.
          2    1    1    2  501    0 -0.39194983328E+02  0.58617868316E+02  0.89652235155E+03  0.89929118090E+03  0.25500000000E-02 0.  1.
<mgrwt>
<rscale>  0 0.49941790E+02</rscale>
<asrwt>0</asrwt>
<pdfrwt beam="1">  1       11 0.10000000E+01 0.24374755E+02</pdfrwt>
<pdfrwt beam="2">  1        2 0.25452060E-02 0.49941790E+02</pdfrwt>
<totfact> 0.39837921E+03</totfact>
</mgrwt>
</event>
<event>
 5    1  0.2799727E-003  0.1389935E+03  0.7818608E-02  0.1458242E+00
         11   -1    0    0    0    0  0.00000000000E+00  0.00000000000E+00  0.10004244054E+04  0.10004244054E+04  0.51100000000E-03 0.  1.
         -2   -1    0    0    0  501 -0.00000000000E+00 -0.00000000000E+00 -0.25188950675E+02  0.25188950804E+02  0.25500000000E-02 0. -1.
         11    1    1    2    0    0  0.10866433844E+03  0.78329521269E+02  0.59598692317E+03  0.61085502776E+03  0.51100000000E-03 0.  1.
         22    1    1    2    0    0  0.15938264302E+02  0.36894061480E+01  0.20475872824E+02  0.26208802998E+02  0.00000000000E+00 0. -1.
         -2    1    1    2    0  501 -0.12460260274E+03 -0.82018927417E+02  0.35877265871E+03  0.38854952543E+03  0.25500000000E-02 0. -1.
<mgrwt>
<rscale>  0 0.47685346E+02</rscale>
<asrwt>0</asrwt>
<pdfrwt beam="1">  1       11 0.10000000E+01 0.13899346E+03</pdfrwt>
<pdfrwt beam="2">  1       -2 0.38768677E-02 0.47685346E+02</pdfrwt>
<totfact> 0.19220505E+03</totfact>
</mgrwt>
</event>
<event>
 5    1  0.2799727E-003  0.8202920E+02  0.7818608E-02  0.1597081E+00
         11   -1    0    0    0    0  0.00000000000E+00  0.00000000000E+00  0.99994103259E+03  0.99994103259E+03  0.51100000000E-03 0.  1.
          2   -1    0    0  501    0 -0.00000000000E+00 -0.00000000000E+00 -0.81087960990E+01  0.81087965000E+01  0.25500000000E-02 0.  1.
         11    1    1    2    0    0 -0.80310203300E+02  0.70748419080E+01  0.34615866892E+03  0.35542313686E+03  0.51100000000E-03 0.  1.
         22    1    1    2    0    0 -0.27930706693E+01 -0.10679422788E+02  0.52392113867E+02  0.53542365565E+02  0.00000000000E+00 0.  1.
          2    1    1    2  501    0  0.83103273970E+02  0.36045808797E+01  0.59328145370E+03  0.59908432667E+03  0.25500000000E-02 0.  1.
<mgrwt>
<rscale>  0 0.30091350E+02</rscale>
<asrwt>0</asrwt>
<pdfrwt beam="1">  1       11 0.10000000E+01 0.82029197E+02</pdfrwt>
<pdfrwt beam="2">  1        2 0.12474335E-02 0.30091350E+02</pdfrwt>
<totfact> 0.93338393E+03</totfact>
</mgrwt>
</event>
<event>
 5    1  0.2799727E-003  0.1911566E+03  0.7818608E-02  0.1178094E+00
         11   -1    0    0    0    0  0.00000000000E+00  0.00000000000E+00  0.10003013414E+04  0.10003013414E+04  0.51100000000E-03 0.  1.
         -2   -1    0    0    0  501 -0.00000000000E+00 -0.00000000000E+00 -0.26246774177E+03  0.26246774178E+03  0.25500000000E-02 0.  1.
         11    1    1    2    0    0  0.10030376178E+03  0.64841540241E+02  0.61394694671E+03  0.62545673179E+03  0.51100000000E-03 0.  1.
         22    1    1    2    0    0  0.65596899138E+02 -0.28831283707E+02  0.34848398421E+03  0.35577420275E+03  0.00000000000E+00 0. -1.
         -2    1    1    2    0  501 -0.16590066092E+03 -0.36010256534E+02 -0.22459733133E+03  0.28153814859E+03  0.25500000000E-02 0.  1.
<mgrwt>
<rscale>  0 0.16976386E+03</rscale>
<asrwt>0</asrwt>
<pdfrwt beam="1">  1       11 0.10000000E+01 0.19115661E+03</pdfrwt>
<pdfrwt beam="2">  1       -2 0.40391819E-01 0.16976386E+03</pdfrwt>
<totfact> 0.47186674E+01</totfact>
</mgrwt>
</event>
<event>
 5    1  0.2799727E-003  0.2210981E+03  0.7818608E-02  0.1147893E+00
         11   -1    0    0    0    0  0.00000000000E+00  0.00000000000E+00  0.10001531043E+04  0.10001531043E+04  0.51100000000E-03 0. -1.
         -2   -1    0    0    0  501 -0.00000000000E+00 -0.00000000000E+00 -0.62359932993E+02  0.62359933045E+02  0.25500000000E-02 0.  1.
         11    1    1    2    0    0 -0.19058660605E+02  0.10569215173E+03  0.56326763978E+03  0.57341476917E+03  0.51100000000E-03 0. -1.
         22    1    1    2    0    0 -0.11426271285E+02  0.94200171867E+02  0.20245772518E+03  0.22359195545E+03  0.00000000000E+00 0.  1.
         -2    1    1    2    0  501  0.30484931890E+02 -0.19989232360E+03  0.17206780633E+03  0.26550631271E+03  0.25500000000E-02 0.  1.
<mgrwt>
<rscale>  0 0.20220354E+03</rscale>
<asrwt>0</asrwt>
<pdfrwt beam="1">  1       11 0.10000000E+01 0.22109813E+03</pdfrwt>
<pdfrwt beam="2">  1       -2 0.95953044E-02 0.20220354E+03</pdfrwt>
<totfact> 0.55756718E+02</totfact>
</mgrwt>
</event>
<event>
 5    1  0.2799727E-003  0.1944715E+03  0.7818608E-02  0.1163159E+00
         11   -1    0    0    0    0  0.00000000000E+00  0.00000000000E+00  0.10001794846E+04  0.10001794846E+04  0.51100000000E-03 0. -1.
         -2   -1    0    0    0  501 -0.00000000000E+00 -0.00000000000E+00 -0.18752158322E+03  0.18752158324E+03  0.25500000000E-02 0.  1.
         11    1    1    2    0    0  0.15778809377E+03  0.39939697402E+02  0.83359333084E+03  0.84933509476E+03  0.51100000000E-03 0. -1.
         22    1    1    2    0    0  0.25548838690E+02 -0.16080032502E+02  0.10853661592E+03  0.11265659146E+03  0.00000000000E+00 0.  1.
         -2    1    1    2    0  501 -0.18333693247E+03 -0.23859664899E+02 -0.12947204538E+03  0.22570938163E+03  0.25500000000E-02 0.  1.
<mgrwt>
<rscale>  0 0.18488297E+03</rscale>
<asrwt>0</asrwt>
<pdfrwt beam="1">  1       11 0.10000000E+01 0.19447151E+03</pdfrwt>
<pdfrwt beam="2">  1       -2 0.28854652E-01 0.18488297E+03</pdfrwt>
<totfact> 0.87976247E+01</totfact>
</mgrwt>
</event>
<event>
 5    1  0.2799727E-003  0.8390924E+02  0.7818608E-02  0.1321248E+00
         11   -1    0    0    0    0  0.00000000000E+00  0.00000000000E+00  0.10000794376E+04  0.10000794376E+04  0.51100000000E-03 0. -1.
         -2   -1    0    0    0  501 -0.00000000000E+00 -0.00000000000E+00 -0.72149106522E+01  0.72149111028E+01  0.25500000000E-02 0. -1.
         11    1    1    2    0    0  0.59676885024E+02  0.34748655656E+02  0.32972509045E+03  0.33687896187E+03  0.51100000000E-03 0. -1.
         22    1    1    2    0    0  0.14768007595E+02  0.15317225287E+01  0.73100427216E+02  0.74592980108E+02  0.00000000000E+00 0. -1.
         -2    1    1    2    0  501 -0.74444892619E+02 -0.36280378185E+02  0.59003900928E+03  0.59582240672E+03  0.25500000000E-02 0. -1.
<mgrwt>
<rscale>  0 0.82814901E+02</rscale>
<asrwt>0</asrwt>
<pdfrwt beam="1">  1       11 0.10000000E+01 0.83909245E+02</pdfrwt>
<pdfrwt beam="2">  1       -2 0.11100744E-02 0.82814901E+02</pdfrwt>
<totfact> 0.12358956E+04</totfact>
</mgrwt>
</event>
<event>
 5    1  0.2799727E-003  0.1652803E+03  0.7818608E-02  0.1185511E+00
         11   -1    0    0    0    0  0.00000000000E+00  0.00000000000E+00  0.10003640606E+04  0.10003640606E+04  0.51100000000E-03 0. -1.
          2   -1    0    0  501    0 -0.00000000000E+00 -0.00000000000E+00 -0.33205925175E+02  0.33205925273E+02  0.25500000000E-02 0. -1.
         11    1    1    2    0    0  0.10619603736E+03  0.10884743185E+03  0.64238048477E+03  0.66013487181E+03  0.51100000000E-03 0. -1.
         22    1    1    2    0    0  0.21979125542E+01  0.12693923446E+02  0.69146664213E+02  0.70336531645E+02  0.00000000000E+00 0. -1.
          2    1    1    2  501    0 -0.10839394992E+03 -0.12154135529E+03  0.25563098643E+03  0.30309858240E+03  0.25500000000E-02 0. -1.
<mgrwt>
<rscale>  0 0.16285438E+03</rscale>
<asrwt>0</asrwt>
<pdfrwt beam="1">  1       11 0.10000000E+01 0.16528033E+03</pdfrwt>
<pdfrwt beam="2">  1        2 0.51104636E-02 0.16285438E+03</pdfrwt>
<totfact> 0.18071256E+03</totfact>
</mgrwt>
</event>
<event>
 5    1  0.2799727E-003  0.1544902E+03  0.7818608E-02  0.1196854E+00
         11   -1    0    0    0    0  0.00000000000E+00  0.00000000000E+00  0.10002053615E+04  0.10002053615E+04  0.51100000000E-03 0. -1.
          2   -1    0    0  501    0 -0.00000000000E+00 -0.00000000000E+00 -0.51528798453E+02  0.51528798516E+02  0.25500000000E-02 0. -1.
         11    1    1    2    0    0  0.16140767274E+02  0.25134473059E+01  0.68087773946E+02  0.70019902505E+02  0.51100000000E-03 0. -1.
         22    1    1    2    0    0  0.12208844402E+03  0.63035852638E+02  0.79425279752E+03  0.80605000667E+03  0.00000000000E+00 0. -1.
          2    1    1    2  501    0 -0.13822921130E+03 -0.65549299944E+02  0.86335991602E+02  0.17566425086E+03  0.25500000000E-02 0. -1.
<mgrwt>
<rscale>  0 0.15298374E+03</rscale>
<asrwt>0</asrwt>
<pdfrwt beam="1">  1       11 0.10000000E+01 0.15449021E+03</pdfrwt>
<pdfrwt beam="2">  1        2 0.79291352E-02 0.15298374E+03</pdfrwt>
<totfact> 0.10224979E+03</totfact>
</mgrwt>
</event>
<event>
 5    1  0.2799727E-003  0.3212245E+03  0.7818608E-02  0.1076030E+00
         11   -1    0    0    0    0  0.00000000000E+00  0.00000000000E+00  0.10002448404E+04  0.10002448404E+04  0.51100000000E-03 0.  1.
          2   -1    0    0  501    0 -0.00000000000E+00 -0.00000000000E+00 -0.31831691147E+03  0.31831691148E+03  0.25500000000E-02 0.  1.
         11    1    1    2    0    0 -0.18532852752E+03 -0.24605427554E+03  0.86067375910E+03  0.91413822216E+03  0.51100000000E-03 0.  1.
         22    1    1    2    0    0 -0.22019803409E+01 -0.12219098004E+02  0.23491449560E+02  0.26570722156E+02  0.00000000000E+00 0.  1.
          2    1    1    2  501    0  0.18753050786E+03  0.25827337354E+03 -0.20223727973E+03  0.37785280756E+03  0.25500000000E-02 0.  1.
<mgrwt>
<rscale>  0 0.31917523E+03</rscale>
<asrwt>0</asrwt>
<pdfrwt beam="1">  1       11 0.10000000E+01 0.32122453E+03</pdfrwt>
<pdfrwt beam="2">  1        2 0.48983821E-01 0.31917523E+03</pdfrwt>
<totfact> 0.12722613E+02</totfact>
</mgrwt>
</event>
<event>
 5    1  0.2799727E-003  0.1076295E+03  0.7818608E-02  0.1271047E+00
         11   -1    0    0    0    0  0.00000000000E+00  0.00000000000E+00  0.10001843222E+04  0.10001843222E+04  0.51100000000E-03 0.  1.
          2   -1    0    0  501    0 -0.00000000000E+00 -0.00000000000E+00 -0.11864452923E+02  0.11864453197E+02  0.25500000000E-02 0.  1.
         11    1    1    2    0    0 -0.11767214935E+02 -0.94809478146E+02  0.32423372706E+03  0.33801599705E+03  0.51100000000E-03 0.  1.
         22    1    1    2    0    0 -0.73562769128E+01 -0.79571498694E+01  0.61711293648E+02  0.62655524958E+02  0.00000000000E+00 0.  1.
          2    1    1    2  501    0  0.19123491848E+02  0.10276662802E+03  0.60237484855E+03  0.61137725338E+03  0.25500000000E-02 0.  1.
<mgrwt>
<rscale>  0 0.10453080E+03</rscale>
<asrwt>0</asrwt>
<pdfrwt beam="1">  1       11 0.10000000E+01 0.10762950E+03</pdfrwt>
<pdfrwt beam="2">  1        2 0.18256369E-02 0.10453080E+03</pdfrwt>
<totfact> 0.68519129E+03</totfact>
</mgrwt>
</event>
<event>
 5    1  0.2799727E-003  0.2563464E+03  0.7818608E-02  0.1284624E+00
         11   -1    0    0    0    0  0.00000000000E+00  0.00000000000E+00  0.10002001084E+04  0.10002001084E+04  0.51100000000E-03 0. -1.
          2   -1    0    0  501    0 -0.00000000000E+00 -0.00000000000E+00 -0.12538031039E+03  0.12538031042E+03  0.25500000000E-02 0. -1.
         11    1    1    2    0    0 -0.22600534295E+03  0.12388008410E+03  0.76576538257E+03  0.80797358336E+03  0.51100000000E-03 0. -1.
         22    1    1    2    0    0 -0.10346726081E+02 -0.35983733055E+02  0.42831338805E+02  0.56889431083E+02  0.00000000000E+00 0. -1.
          2    1    1    2  501    0  0.23635206903E+03 -0.87896351047E+02  0.66223076654E+02  0.26071740438E+03  0.25500000000E-02 0. -1.
<mgrwt>
<rscale>  0 0.97969659E+02</rscale>
<asrwt>0</asrwt>
<pdfrwt beam="1">  1       11 0.10000000E+01 0.25634638E+03</pdfrwt>
<pdfrwt beam="2">  1        2 0.19293138E-01 0.97969659E+02</pdfrwt>
<totfact> 0.34588858E+02</totfact>
</mgrwt>
</event>
<event>
 5    1  0.2799727E-003  0.3579854E+03  0.7818608E-02  0.1071551E+00
         11   -1    0    0    0    0  0.00000000000E+00  0.00000000000E+00  0.99994754443E+03  0.99994754443E+03  0.51100000000E-03 0. -1.
          2   -1    0    0  501    0 -0.00000000000E+00 -0.00000000000E+00 -0.16635490966E+03  0.16635490968E+03  0.25500000000E-02 0. -1.
         11    1    1    2    0    0 -0.19421593560E+03 -0.18731392083E+03  0.58389791207E+03  0.64322865786E+03  0.51100000000E-03 0. -1.
         22    1    1    2    0    0  0.11838404016E+02 -0.86588816830E+02  0.15949565788E+03  0.18186983228E+03  0.00000000000E+00 0. -1.
          2    1    1    2  501    0  0.18237753158E+03  0.27390273766E+03  0.90199064819E+02  0.34120396396E+03  0.25500000000E-02 0. -1.
<mgrwt>
<rscale>  0 0.32906576E+03</rscale>
<asrwt>0</asrwt>
<pdfrwt beam="1">  1       11 0.10000000E+01 0.35798536E+03</pdfrwt>
<pdfrwt beam="2">  1        2 0.25591720E-01 0.32906576E+03</pdfrwt>
<totfact> 0.26001421E+02</totfact>
</mgrwt>
</event>
<event>
 5    1  0.2799727E-003  0.2814433E+03  0.7818608E-02  0.1097569E+00
         11   -1    0    0    0    0  0.00000000000E+00  0.00000000000E+00  0.10001915048E+04  0.10001915048E+04  0.51100000000E-03 0. -1.
          2   -1    0    0  501    0 -0.00000000000E+00 -0.00000000000E+00 -0.54454139200E+03  0.54454139201E+03  0.25500000000E-02 0. -1.
         11    1    1    2    0    0  0.25961313561E+02 -0.69943779131E+02  0.29936943642E+03  0.30852581983E+03  0.51100000000E-03 0. -1.
         22    1    1    2    0    0  0.13480960242E+01 -0.20528978194E+03  0.64377516607E+03  0.67571604715E+03  0.00000000000E+00 0. -1.
          2    1    1    2  501    0 -0.27309409586E+02  0.27523356107E+03 -0.48749448971E+03  0.56049102981E+03  0.25500000000E-02 0. -1.
<mgrwt>
<rscale>  0 0.27658510E+03</rscale>
<asrwt>0</asrwt>
<pdfrwt beam="1">  1       11 0.10000000E+01 0.28144327E+03</pdfrwt>
<pdfrwt beam="2">  1        2 0.83791640E-01 0.27658510E+03</pdfrwt>
<totfact> 0.70340864E+01</totfact>
</mgrwt>
</event>
<event>
 5    1  0.2799727E-003  0.7894281E+02  0.7818608E-02  0.1332079E+00
         11   -1    0    0    0    0  0.00000000000E+00  0.00000000000E+00  0.10000523971E+04  0.10000523971E+04  0.51100000000E-03 0. -1.
          2   -1    0    0  501    0 -0.00000000000E+00 -0.00000000000E+00 -0.97971880208E+01  0.97971883527E+01  0.25500000000E-02 0. -1.
         11    1    1    2    0    0  0.54211550398E+01 -0.33464618281E+02  0.11829694240E+03  0.12305866966E+03  0.51100000000E-03 0. -1.
         22    1    1    2    0    0 -0.79093752784E+02 -0.33315679155E+01  0.42734809865E+03  0.43461858968E+03  0.00000000000E+00 0. -1.
          2    1    1    2  501    0  0.73672597744E+02  0.36796186197E+02  0.44461016808E+03  0.45217232616E+03  0.25500000000E-02 0. -1.
<mgrwt>
<rscale>  0 0.78942808E+02</rscale>
<asrwt>0</asrwt>
<pdfrwt beam="1">  1       11 0.10000000E+01 0.33900896E+02</pdfrwt>
<pdfrwt beam="2">  1        2 0.15073387E-02 0.78942808E+02</pdfrwt>
<totfact> 0.85475477E+03</totfact>
</mgrwt>
</event>
<event>
 5    1  0.2799727E-003  0.1184701E+03  0.7818608E-02  0.1258232E+00
         11   -1    0    0    0    0  0.00000000000E+00  0.00000000000E+00  0.10000990148E+04  0.10000990148E+04  0.51100000000E-03 0.  1.
          2   -1    0    0  501    0 -0.00000000000E+00 -0.00000000000E+00 -0.13195844140E+02  0.13195844386E+02  0.25500000000E-02 0.  1.
         11    1    1    2    0    0 -0.57818213737E+02 -0.78089694108E+02  0.41188942802E+03  0.42319480985E+03  0.51100000000E-03 0.  1.
         22    1    1    2    0    0 -0.21304436776E+02 -0.14753121891E+00  0.91125970281E+02  0.93583349221E+02  0.00000000000E+00 0.  1.
          2    1    1    2  501    0  0.79122650512E+02  0.78237225327E+02  0.48388777233E+03  0.49651670009E+03  0.25500000000E-02 0.  1.
<mgrwt>
<rscale>  0 0.11127200E+03</rscale>
<asrwt>0</asrwt>
<pdfrwt beam="1">  1       11 0.10000000E+01 0.11847014E+03</pdfrwt>
<pdfrwt beam="2">  1        2 0.20303308E-02 0.11127200E+03</pdfrwt>
<totfact> 0.59787558E+03</totfact>
</mgrwt>
</event>
<event>
 5    1  0.2799727E-003  0.2269704E+03  0.7818608E-02  0.1430024E+00
         11   -1    0    0    0    0  0.00000000000E+00  0.00000000000E+00  0.99982675018E+03  0.99982675018E+03  0.51100000000E-03 0.  1.
          2   -1    0    0  501    0 -0.00000000000E+00 -0.00000000000E+00 -0.62212223745E+03  0.62212223745E+03  0.25500000000E-02 0.  1.
         11    1    1    2    0    0 -0.12732456904E+03  0.15471555771E+03  0.55116741258E+02  0.20781314888E+03  0.51100000000E-03 0.  1.
         22    1    1    2    0    0  0.11083520379E+03 -0.20503810441E+03  0.85137535953E+03  0.88270327374E+03  0.00000000000E+00 0.  1.
          2    1    1    2  501    0  0.16489365253E+02  0.50322546703E+02 -0.52878758805E+03  0.53143256502E+03  0.25500000000E-02 0.  1.
<mgrwt>
<rscale>  0 0.52955244E+02</rscale>
<asrwt>0</asrwt>
<pdfrwt beam="1">  1       11 0.10000000E+01 0.22697037E+03</pdfrwt>
<pdfrwt beam="2">  1        2 0.95694529E-01 0.52955244E+02</pdfrwt>
<totfact> 0.62754693E+01</totfact>
</mgrwt>
</event>
<event>
 5    1  0.2799727E-003  0.2156209E+03  0.7818608E-02  0.1144670E+00
         11   -1    0    0    0    0  0.00000000000E+00  0.00000000000E+00  0.10002006525E+04  0.10002006525E+04  0.51100000000E-03 0. -1.
          2   -1    0    0  501    0 -0.00000000000E+00 -0.00000000000E+00 -0.50423131737E+02  0.50423131802E+02  0.25500000000E-02 0. -1.
         11    1    1    2    0    0  0.56407565250E+02  0.29205961331E+02  0.25381255096E+03  0.26164023509E+03  0.51100000000E-03 0. -1.
         22    1    1    2    0    0  0.14888486533E+03 -0.10676411144E+02  0.41112890642E+03  0.43738731872E+03  0.00000000000E+00 0. -1.
          2    1    1    2  501    0 -0.20529243058E+03 -0.18529550187E+02  0.28483606338E+03  0.35159623049E+03  0.25500000000E-02 0. -1.
<mgrwt>
<rscale>  0 0.20612697E+03</rscale>
<asrwt>0</asrwt>
<pdfrwt beam="1">  1       11 0.10000000E+01 0.21562092E+03</pdfrwt>
<pdfrwt beam="2">  1        2 0.77589612E-02 0.20612697E+03</pdfrwt>
<totfact> 0.10702984E+03</totfact>
</mgrwt>
</event>
<event>
 5    1  0.2799727E-003  0.1990004E+03  0.7818608E-02  0.1150585E+00
         11   -1    0    0    0    0  0.00000000000E+00  0.00000000000E+00  0.99994431600E+03  0.99994431600E+03  0.51100000000E-03 0.  1.
          2   -1    0    0  501    0 -0.00000000000E+00 -0.00000000000E+00 -0.87617184706E+02  0.87617184743E+02  0.25500000000E-02 0.  1.
         11    1    1    2    0    0 -0.12501666441E+03 -0.71478871770E+02  0.46804457409E+03  0.48969798736E+03  0.51100000000E-03 0.  1.
         22    1    1    2    0    0  0.17047282224E+01 -0.11851739954E+03  0.31612585877E+03  0.33761640759E+03  0.00000000000E+00 0.  1.
          2    1    1    2  501    0  0.12331193618E+03  0.18999627131E+03  0.12815669844E+03  0.26024710580E+03  0.25500000000E-02 0.  1.
<mgrwt>
<rscale>  0 0.19900039E+03</rscale>
<asrwt>0</asrwt>
<pdfrwt beam="1">  1       11 0.10000000E+01 0.11852966E+03</pdfrwt>
<pdfrwt beam="2">  1        2 0.13478816E-01 0.19900039E+03</pdfrwt>
<totfact> 0.53956276E+02</totfact>
</mgrwt>
</event>
<event>
 5    1  0.2799727E-003  0.3060294E+03  0.7818608E-02  0.1088517E+00
         11   -1    0    0    0    0  0.00000000000E+00  0.00000000000E+00  0.10003903883E+04  0.10003903883E+04  0.51100000000E-03 0.  1.
         -2   -1    0    0    0  501 -0.00000000000E+00 -0.00000000000E+00 -0.68887829253E+03  0.68887829254E+03  0.25500000000E-02 0. -1.
         11    1    1    2    0    0 -0.13810676137E+03 -0.12911614672E+03  0.46491394969E+03  0.50188588095E+03  0.51100000000E-03 0.  1.
         22    1    1    2    0    0 -0.66079329359E+02 -0.81766902540E+02  0.47888107899E+03  0.49028501093E+03  0.00000000000E+00 0.  1.
         -2    1    1    2    0  501  0.20418609073E+03  0.21088304926E+03 -0.63228293292E+03  0.69709778896E+03  0.25500000000E-02 0. -1.
<mgrwt>
<rscale>  0 0.29353640E+03</rscale>
<asrwt>0</asrwt>
<pdfrwt beam="1">  1       11 0.10000000E+01 0.30602945E+03</pdfrwt>
<pdfrwt beam="2">  1       -2 0.10602265E+00 0.29353640E+03</pdfrwt>
<totfact> 0.60597828E+00</totfact>
</mgrwt>
</event>
<event>
 5    1  0.2799727E-003  0.1724455E+03  0.7818608E-02  0.1175321E+00
         11   -1    0    0    0    0  0.00000000000E+00  0.00000000000E+00  0.10004478626E+04  0.10004478626E+04  0.51100000000E-03 0.  1.
          2   -1    0    0  501    0 -0.00000000000E+00 -0.00000000000E+00 -0.10375227761E+03  0.10375227764E+03  0.25500000000E-02 0.  1.
         11    1    1    2    0    0 -0.84883437552E+02 -0.14128165674E+03  0.83207410527E+03  0.84824113385E+03  0.51100000000E-03 0.  1.
         22    1    1    2    0    0  0.77659940275E+01 -0.13811425604E+02  0.80481582382E+02  0.82026527680E+02  0.00000000000E+00 0. -1.
          2    1    1    2  501    0  0.77117443525E+02  0.15509308234E+03 -0.15860102655E+02  0.17393247871E+03  0.25500000000E-02 0.  1.
<mgrwt>
<rscale>  0 0.17244548E+03</rscale>
<asrwt>0</asrwt>
<pdfrwt beam="1">  1       11 0.10000000E+01 0.15845067E+02</pdfrwt>
<pdfrwt beam="2">  1        2 0.15969037E-01 0.17244548E+03</pdfrwt>
<totfact> 0.43893285E+02</totfact>
</mgrwt>
</event>
<event>
 5    1  0.2799727E-003  0.1308626E+03  0.7818608E-02  0.1349949E+00
         11   -1    0    0    0    0  0.00000000000E+00  0.00000000000E+00  0.10000428909E+04  0.10000428909E+04  0.51100000000E-03 0.  1.
          2   -1    0    0  501    0 -0.00000000000E+00 -0.00000000000E+00 -0.10135282101E+03  0.10135282104E+03  0.25500000000E-02 0.  1.
         11    1    1    2    0    0  0.17918976716E+02  0.11468749447E+03  0.23851765037E+03  0.26526398296E+03  0.51100000000E-03 0.  1.
         22    1    1    2    0    0  0.52294366075E+02 -0.13492427905E+03  0.72448163906E+03  0.73879151804E+03  0.00000000000E+00 0.  1.
          2    1    1    2  501    0 -0.70213342790E+02  0.20236784576E+02 -0.64309219500E+02  0.97340210987E+02  0.25500000000E-02 0.  1.
<mgrwt>
<rscale>  0 0.73071478E+02</rscale>
<asrwt>0</asrwt>
<pdfrwt beam="1">  1       11 0.10000000E+01 0.13086261E+03</pdfrwt>
<pdfrwt beam="2">  1        2 0.15593410E-01 0.73071478E+02</pdfrwt>
<totfact> 0.43472698E+02</totfact>
</mgrwt>
</event>
<event>
 5    1  0.2799727E-003  0.1451613E+03  0.7818608E-02  0.1206548E+00
         11   -1    0    0    0    0  0.00000000000E+00  0.00000000000E+00  0.10003842645E+04  0.10003842645E+04  0.51100000000E-03 0.  1.
          2   -1    0    0  501    0 -0.00000000000E+00 -0.00000000000E+00 -0.81508075000E+02  0.81508075040E+02  0.25500000000E-02 0.  1.
         11    1    1    2    0    0  0.17578746104E+02 -0.12797244996E+02  0.77682046278E+02  0.80667726560E+02  0.51100000000E-03 0.  1.
         22    1    1    2    0    0 -0.14384678353E+03 -0.57346421196E+02  0.84266339150E+03  0.85677424128E+03  0.00000000000E+00 0.  1.
          2    1    1    2  501    0  0.12626803742E+03  0.70143666192E+02 -0.14692482935E+01  0.14445037168E+03  0.25500000000E-02 0.  1.
<mgrwt>
<rscale>  0 0.14516127E+03</rscale>
<asrwt>0</asrwt>
<pdfrwt beam="1">  1       11 0.10000000E+01 0.21743546E+02</pdfrwt>
<pdfrwt beam="2">  1        2 0.12544522E-01 0.14516127E+03</pdfrwt>
<totfact> 0.57985614E+02</totfact>
</mgrwt>
</event>
<event>
 5    1  0.2799727E-003  0.1369579E+03  0.7818608E-02  0.1224741E+00
         11   -1    0    0    0    0  0.00000000000E+00  0.00000000000E+00  0.99991949226E+03  0.99991949226E+03  0.51100000000E-03 0. -1.
          2   -1    0    0  501    0 -0.00000000000E+00 -0.00000000000E+00 -0.18094223794E+02  0.18094223973E+02  0.25500000000E-02 0. -1.
         11    1    1    2    0    0  0.23768603228E+02 -0.96374998480E+02  0.34303436879E+03  0.35710735781E+03  0.51100000000E-03 0. -1.
         22    1    1    2    0    0  0.24974812713E+02 -0.26130632989E+02  0.17749979672E+03  0.18114284166E+03  0.00000000000E+00 0. -1.
          2    1    1    2  501    0 -0.48743415941E+02  0.12250563147E+03  0.46129110296E+03  0.47976351676E+03  0.25500000000E-02 0. -1.
<mgrwt>
<rscale>  0 0.13184669E+03</rscale>
<asrwt>0</asrwt>
<pdfrwt beam="1">  1       11 0.10000000E+01 0.13695788E+03</pdfrwt>
<pdfrwt beam="2">  1        2 0.27835026E-02 0.13184669E+03</pdfrwt>
<totfact> 0.39786384E+03</totfact>
</mgrwt>
</event>
<event>
 5    1  0.2799727E-003  0.2380909E+03  0.7818608E-02  0.1121942E+00
         11   -1    0    0    0    0  0.00000000000E+00  0.00000000000E+00  0.10004430995E+04  0.10004430995E+04  0.51100000000E-03 0.  1.
          2   -1    0    0  501    0 -0.00000000000E+00 -0.00000000000E+00 -0.11892088511E+03  0.11892088514E+03  0.25500000000E-02 0.  1.
         11    1    1    2    0    0 -0.13334078051E+03 -0.18016616526E+03  0.78616869291E+03  0.81749668168E+03  0.51100000000E-03 0.  1.
         22    1    1    2    0    0 -0.34594138131E+01 -0.13123810465E+02  0.61113504294E+02  0.62602414906E+02  0.00000000000E+00 0. -1.
          2    1    1    2  501    0  0.13680019432E+03  0.19328997573E+03  0.34240017223E+02  0.23926488808E+03  0.25500000000E-02 0.  1.
<mgrwt>
<rscale>  0 0.23680225E+03</rscale>
<asrwt>0</asrwt>
<pdfrwt beam="1">  1       11 0.10000000E+01 0.23809095E+03</pdfrwt>
<pdfrwt beam="2">  1        2 0.18303627E-01 0.23680225E+03</pdfrwt>
<totfact> 0.37844406E+02</totfact>
</mgrwt>
</event>
<event>
 5    1  0.2799727E-003  0.2665056E+03  0.7818608E-02  0.1105309E+00
         11   -1    0    0    0    0  0.00000000000E+00  0.00000000000E+00  0.10007188154E+04  0.10007188154E+04  0.51100000000E-03 0. -1.
          2   -1    0    0  501    0 -0.00000000000E+00 -0.00000000000E+00 -0.13536694350E+04  0.13536694350E+04  0.25500000000E-02 0. -1.
         11    1    1    2    0    0  0.18523963982E+03  0.13150228144E+03  0.85008926670E+03  0.87991950515E+03  0.51100000000E-03 0. -1.
         22    1    1    2    0    0  0.38001776258E+02  0.76819079321E+01  0.11969954222E+03  0.12582180699E+03  0.00000000000E+00 0.  1.
          2    1    1    2  501    0 -0.22324141608E+03 -0.13918418937E+03 -0.13227394285E+04  0.13486469383E+04  0.25500000000E-02 0. -1.
<mgrwt>
<rscale>  0 0.26307597E+03</rscale>
<asrwt>0</asrwt>
<pdfrwt beam="1">  1       11 0.10000000E+01 0.26650563E+03</pdfrwt>
<pdfrwt beam="2">  1        2 0.20840653E+00 0.26307597E+03</pdfrwt>
<totfact> 0.20552443E+01</totfact>
</mgrwt>
</event>
<event>
 5    1  0.2799727E-003  0.5966818E+03  0.7818608E-02  0.9912314E-01
         11   -1    0    0    0    0  0.00000000000E+00  0.00000000000E+00  0.10006579549E+04  0.10006579549E+04  0.51100000000E-03 0.  1.
         -2   -1    0    0    0  501 -0.00000000000E+00 -0.00000000000E+00 -0.12193056576E+04  0.12193056576E+04  0.25500000000E-02 0. -1.
         11    1    1    2    0    0  0.45602500342E+02  0.56752544508E+03  0.38956027253E+03  0.68987094793E+03  0.51100000000E-03 0.  1.
         22    1    1    2    0    0  0.13610380493E+03  0.74926416660E+01  0.36251993770E+03  0.38729974261E+03  0.00000000000E+00 0.  1.
         -2    1    1    2    0  501 -0.18170630528E+03 -0.57501808675E+03 -0.97072791297E+03  0.11427929220E+04  0.25500000000E-02 0. -1.
<mgrwt>
<rscale>  0 0.59668176E+03</rscale>
<asrwt>0</asrwt>
<pdfrwt beam="1">  1       11 0.10000000E+01 0.13630989E+03</pdfrwt>
<pdfrwt beam="2">  1       -2 0.18770890E+00 0.59668176E+03</pdfrwt>
<totfact> 0.13390511E+00</totfact>
</mgrwt>
</event>
<event>
 5    1  0.2799727E-003  0.7326459E+02  0.7818608E-02  0.1364822E+00
         11   -1    0    0    0    0  0.00000000000E+00  0.00000000000E+00  0.10003287826E+04  0.10003287826E+04  0.51100000000E-03 0.  1.
          2   -1    0    0  501    0 -0.00000000000E+00 -0.00000000000E+00 -0.66266174014E+01  0.66266178921E+01  0.25500000000E-02 0.  1.
         11    1    1    2    0    0 -0.52866559410E+02 -0.19330941453E+02  0.20947346044E+03  0.21690479255E+03  0.51100000000E-03 0.  1.
         22    1    1    2    0    0 -0.14809454895E+02  0.79407273114E+01  0.52803259192E+02  0.55412627494E+02  0.00000000000E+00 0. -1.
          2    1    1    2  501    0  0.67676014305E+02  0.11390214142E+02  0.73142544552E+03  0.73463798041E+03  0.25500000000E-02 0.  1.
<mgrwt>
<rscale>  0 0.68627836E+02</rscale>
<asrwt>0</asrwt>
<pdfrwt beam="1">  1       11 0.10000000E+01 0.73264586E+02</pdfrwt>
<pdfrwt beam="2">  1        2 0.10198148E-02 0.68627836E+02</pdfrwt>
<totfact> 0.14197331E+04</totfact>
</mgrwt>
</event>
<event>
 5    1  0.2799727E-003  0.1372254E+03  0.7818608E-02  0.1217112E+00
         11   -1    0    0    0    0  0.00000000000E+00  0.00000000000E+00  0.99984838618E+03  0.99984838618E+03  0.51100000000E-03 0.  1.
          2   -1    0    0  501    0 -0.00000000000E+00 -0.00000000000E+00 -0.38947905972E+03  0.38947905973E+03  0.25500000000E-02 0.  1.
         11    1    1    2    0    0  0.10771793592E+02  0.60309598621E+02  0.31940668716E+03  0.32522901319E+03  0.51100000000E-03 0.  1.
         22    1    1    2    0    0  0.11829201423E+03 -0.12037945454E+02  0.65976538612E+03  0.67039412101E+03  0.00000000000E+00 0.  1.
          2    1    1    2  501    0 -0.12906380782E+03 -0.48271653168E+02 -0.36880274682E+03  0.39370431171E+03  0.25500000000E-02 0.  1.
<mgrwt>
<rscale>  0 0.13722537E+03</rscale>
<asrwt>0</asrwt>
<pdfrwt beam="1">  1       11 0.10000000E+01 0.61264012E+02</pdfrwt>
<pdfrwt beam="2">  1        2 0.59910769E-01 0.13722537E+03</pdfrwt>
<totfact> 0.10265512E+02</totfact>
</mgrwt>
</event>
<event>
 5    1  0.2799727E-003  0.9824680E+02  0.7818608E-02  0.1306007E+00
         11   -1    0    0    0    0  0.00000000000E+00  0.00000000000E+00  0.10000868745E+04  0.10000868745E+04  0.51100000000E-03 0.  1.
          2   -1    0    0  501    0 -0.00000000000E+00 -0.00000000000E+00 -0.91474284079E+01  0.91474287634E+01  0.25500000000E-02 0.  1.
         11    1    1    2    0    0  0.10126783727E+02 -0.42691143958E+02  0.19454967549E+03  0.19943585875E+03  0.51100000000E-03 0.  1.
         22    1    1    2    0    0  0.48892870986E+02 -0.23536049676E+02  0.21835906131E+03  0.22500030695E+03  0.00000000000E+00 0.  1.
          2    1    1    2  501    0 -0.59019654713E+02  0.66227193634E+02  0.57803070930E+03  0.58479813758E+03  0.25500000000E-02 0.  1.
<mgrwt>
<rscale>  0 0.88709418E+02</rscale>
<asrwt>0</asrwt>
<pdfrwt beam="1">  1       11 0.10000000E+01 0.98246801E+02</pdfrwt>
<pdfrwt beam="2">  1        2 0.14074189E-02 0.88709418E+02</pdfrwt>
<totfact> 0.95417037E+03</totfact>
</mgrwt>
</event>
<event>
 5    1  0.2799727E-003  0.3169186E+03  0.7818608E-02  0.1088176E+00
         11   -1    0    0    0    0  0.00000000000E+00  0.00000000000E+00  0.10000552472E+04  0.10000552472E+04  0.51100000000E-03 0. -1.
          2   -1    0    0  501    0 -0.00000000000E+00 -0.00000000000E+00 -0.87797492435E+03  0.87797492436E+03  0.25500000000E-02 0. -1.
         11    1    1    2    0    0  0.13370191742E+03 -0.17027505165E+03  0.51469310055E+03  0.55837154627E+03  0.51100000000E-03 0. -1.
         22    1    1    2    0    0  0.20321489738E+02 -0.80385883635E+02  0.43420911253E+03  0.44205475524E+03  0.00000000000E+00 0. -1.
          2    1    1    2  501    0 -0.15402340715E+03  0.25066093529E+03 -0.82682189026E+03  0.87760387001E+03  0.25500000000E-02 0. -1.
<mgrwt>
<rscale>  0 0.29420081E+03</rscale>
<asrwt>0</asrwt>
<pdfrwt beam="1">  1       11 0.10000000E+01 0.31691856E+03</pdfrwt>
<pdfrwt beam="2">  1        2 0.13508052E+00 0.29420081E+03</pdfrwt>
<totfact> 0.39127214E+01</totfact>
</mgrwt>
</event>
<event>
 5    1  0.2799727E-003  0.1784574E+03  0.7818608E-02  0.1170488E+00
         11   -1    0    0    0    0  0.00000000000E+00  0.00000000000E+00  0.10004969727E+04  0.10004969727E+04  0.51100000000E-03 0. -1.
          2   -1    0    0  501    0 -0.00000000000E+00 -0.00000000000E+00 -0.33543287056E+02  0.33543287153E+02  0.25500000000E-02 0. -1.
         11    1    1    2    0    0  0.59595114315E+02  0.15709580674E+03  0.58189239891E+03  0.60566445665E+03  0.51100000000E-03 0. -1.
         22    1    1    2    0    0 -0.76884527288E+00  0.10111519245E+02  0.27029060820E+02  0.28868738686E+02  0.00000000000E+00 0. -1.
          2    1    1    2  501    0 -0.58826269042E+02 -0.16720732599E+03  0.35803222589E+03  0.39950706449E+03  0.25500000000E-02 0. -1.
<mgrwt>
<rscale>  0 0.17725355E+03</rscale>
<asrwt>0</asrwt>
<pdfrwt beam="1">  1       11 0.10000000E+01 0.17845737E+03</pdfrwt>
<pdfrwt beam="2">  1        2 0.51630702E-02 0.17725355E+03</pdfrwt>
<totfact> 0.17946024E+03</totfact>
</mgrwt>
</event>
<event>
 5    1  0.2799727E-003  0.9106037E+02  0.7818608E-02  0.1330549E+00
         11   -1    0    0    0    0  0.00000000000E+00  0.00000000000E+00  0.10003714064E+04  0.10003714064E+04  0.51100000000E-03 0.  1.
         -2   -1    0    0    0  501 -0.00000000000E+00 -0.00000000000E+00 -0.10779589654E+02  0.10779589955E+02  0.25500000000E-02 0.  1.
         11    1    1    2    0    0 -0.52026912411E+02 -0.15328561371E+02  0.13801681456E+03  0.14829162320E+03  0.51100000000E-03 0.  1.
         22    1    1    2    0    0 -0.26830940978E+02  0.25209763516E+02  0.91325747052E+02  0.98467373505E+02  0.00000000000E+00 0.  1.
         -2    1    1    2    0  501  0.78857853389E+02 -0.98812021455E+01  0.76024925517E+03  0.76439199969E+03  0.25500000000E-02 0.  1.
<mgrwt>
<rscale>  0 0.79474519E+02</rscale>
<asrwt>0</asrwt>
<pdfrwt beam="1">  1       11 0.10000000E+01 0.91060375E+02</pdfrwt>
<pdfrwt beam="2">  1       -2 0.16590143E-02 0.79474519E+02</pdfrwt>
<totfact> 0.69439621E+03</totfact>
</mgrwt>
</event>
<event>
 5    1  0.2799727E-003  0.3916907E+03  0.7818608E-02  0.1064464E+00
         11   -1    0    0    0    0  0.00000000000E+00  0.00000000000E+00  0.99972759438E+03  0.99972759438E+03  0.51100000000E-03 0.  1.
         -2   -1    0    0    0  501 -0.00000000000E+00 -0.00000000000E+00 -0.14383232168E+03  0.14383232171E+03  0.25500000000E-02 0. -1.
         11    1    1    2    0    0 -0.22748041413E+03 -0.13305833094E+02  0.28312166515E+03  0.36343123322E+03  0.51100000000E-03 0.  1.
         22    1    1    2    0    0 -0.10088234425E+03  0.12087394536E+03  0.30407343580E+03  0.34241555515E+03  0.00000000000E+00 0.  1.
         -2    1    1    2    0  501  0.32836275838E+03 -0.10756811226E+03  0.26870017175E+03  0.43771312771E+03  0.25500000000E-02 0. -1.
<mgrwt>
<rscale>  0 0.34553292E+03</rscale>
<asrwt>0</asrwt>
<pdfrwt beam="1">  1       11 0.10000000E+01 0.39169070E+03</pdfrwt>
<pdfrwt beam="2">  1       -2 0.22122021E-01 0.34553292E+03</pdfrwt>
<totfact> 0.14254287E+02</totfact>
</mgrwt>
</event>
<event>
 5    1  0.2799727E-003  0.1194385E+03  0.7818608E-02  0.1565833E+00
         11   -1    0    0    0    0  0.00000000000E+00  0.00000000000E+00  0.99995798076E+03  0.99995798076E+03  0.51100000000E-03 0.  1.
          2   -1    0    0  501    0 -0.00000000000E+00 -0.00000000000E+00 -0.75442221011E+03  0.75442221012E+03  0.25500000000E-02 0.  1.
         11    1    1    2    0    0  0.10479006282E+03 -0.20896194916E+02  0.33930491495E+03  0.35573224979E+03  0.51100000000E-03 0.  1.
         22    1    1    2    0    0 -0.12042556584E+03  0.50108041114E+02  0.64554560562E+03  0.65859111869E+03  0.00000000000E+00 0.  1.
          2    1    1    2  501    0  0.15635503018E+02 -0.29211846198E+02 -0.73931474993E+03  0.74005682240E+03  0.25500000000E-02 0.  1.
<mgrwt>
<rscale>  0 0.33133079E+02</rscale>
<asrwt>0</asrwt>
<pdfrwt beam="1">  1       11 0.10000000E+01 0.11943852E+03</pdfrwt>
<pdfrwt beam="2">  1        2 0.11606008E+00 0.33133079E+02</pdfrwt>
<totfact> 0.51273727E+01</totfact>
</mgrwt>
</event>
<event>
 5    1  0.3018039E-003  0.1835136E+03  0.7818608E-02  0.1166826E+00
         11   -1    0    0    0    0  0.00000000000E+00  0.00000000000E+00  0.10005607808E+04  0.10005607808E+04  0.51100000000E-03 0.  1.
          2   -1    0    0  501    0 -0.00000000000E+00 -0.00000000000E+00 -0.84404390193E+03  0.84404390194E+03  0.25500000000E-02 0. -1.
         11    1    1    2    0    0  0.13594466992E+03  0.51032410964E+02  0.79752841551E+03  0.81063976820E+03  0.51100000000E-03 0.  1.
         22    1    1    2    0    0  0.38063837192E+02 -0.11627289902E+01  0.18473075962E+03  0.18861511389E+03  0.00000000000E+00 0.  1.
          2    1    1    2  501    0 -0.17400850711E+03 -0.49869681973E+02 -0.82574229622E+03  0.84534980068E+03  0.25500000000E-02 0. -1.
<mgrwt>
<rscale>  0 0.18101366E+03</rscale>
<asrwt>0</asrwt>
<pdfrwt beam="1">  1       11 0.10000000E+01 0.18351358E+03</pdfrwt>
<pdfrwt beam="2">  1        2 0.12992572E+00 0.18101366E+03</pdfrwt>
<totfact> 0.41982180E+01</totfact>
</mgrwt>
</event>
<event>
 5    1  0.2799727E-003  0.1698322E+03  0.7818608E-02  0.1178023E+00
         11   -1    0    0    0    0  0.00000000000E+00  0.00000000000E+00  0.99987287814E+03  0.99987287814E+03  0.51100000000E-03 0. -1.
          2   -1    0    0  501    0 -0.00000000000E+00 -0.00000000000E+00 -0.44830121282E+03  0.44830121283E+03  0.25500000000E-02 0. -1.
         11    1    1    2    0    0 -0.37713658129E+02 -0.20490639075E+01  0.74211845354E+02  0.83270142689E+02  0.51100000000E-03 0. -1.
         22    1    1    2    0    0 -0.18373361835E+02  0.16255133336E+03  0.89717529836E+03  0.91196712243E+03  0.00000000000E+00 0. -1.
          2    1    1    2  501    0  0.56087019964E+02 -0.16050226945E+03 -0.41981547840E+03  0.45293682586E+03  0.25500000000E-02 0. -1.
<mgrwt>
<rscale>  0 0.16983220E+03</rscale>
<asrwt>0</asrwt>
<pdfrwt beam="1">  1       11 0.10000000E+01 0.37769282E+02</pdfrwt>
<pdfrwt beam="2">  1        2 0.68960648E-01 0.16983220E+03</pdfrwt>
<totfact> 0.88063639E+01</totfact>
</mgrwt>
</event>
<event>
 5    1  0.2799727E-003  0.2129285E+03  0.7818608E-02  0.1140467E+00
         11   -1    0    0    0    0  0.00000000000E+00  0.00000000000E+00  0.10001411118E+04  0.10001411118E+04  0.51100000000E-03 0. -1.
          2   -1    0    0  501    0 -0.00000000000E+00 -0.00000000000E+00 -0.18573088376E+03  0.18573088378E+03  0.25500000000E-02 0. -1.
         11    1    1    2    0    0 -0.19322999885E+03 -0.25922227178E+02  0.82762284969E+03  0.85027605850E+03  0.51100000000E-03 0. -1.
         22    1    1    2    0    0 -0.15389294721E+02 -0.82181176109E+01  0.96058601366E+02  0.97630029937E+02  0.00000000000E+00 0.  1.
          2    1    1    2  501    0  0.20861929357E+03  0.34140344789E+02 -0.10927122300E+03  0.23796590717E+03  0.25500000000E-02 0. -1.
<mgrwt>
<rscale>  0 0.21139435E+03</rscale>
<asrwt>0</asrwt>
<pdfrwt beam="1">  1       11 0.10000000E+01 0.21292846E+03</pdfrwt>
<pdfrwt beam="2">  1        2 0.28578013E-01 0.21139435E+03</pdfrwt>
<totfact> 0.22812294E+02</totfact>
</mgrwt>
</event>
<event>
 5    1  0.2799727E-003  0.1521555E+03  0.7818608E-02  0.1490460E+00
         11   -1    0    0    0    0  0.00000000000E+00  0.00000000000E+00  0.10002064318E+04  0.10002064318E+04  0.51100000000E-03 0. -1.
          2   -1    0    0  501    0 -0.00000000000E+00 -0.00000000000E+00 -0.42960739244E+02  0.42960739320E+02  0.25500000000E-02 0. -1.
         11    1    1    2    0    0  0.14760721613E+03 -0.42098500567E+02  0.81391626481E+03  0.82826315874E+03  0.51100000000E-03 0. -1.
         22    1    1    2    0    0 -0.50195603051E+01  0.10768607279E+02  0.22311491152E+02  0.25277688300E+02  0.00000000000E+00 0. -1.
          2    1    1    2  501    0 -0.14258765582E+03  0.31329893288E+02  0.12101793664E+03  0.18962632412E+03  0.25500000000E-02 0. -1.
<mgrwt>
<rscale>  0 0.42517814E+02</rscale>
<asrwt>0</asrwt>
<pdfrwt beam="1">  1       11 0.10000000E+01 0.15215553E+03</pdfrwt>
<pdfrwt beam="2">  1        2 0.66107087E-02 0.42517814E+02</pdfrwt>
<totfact> 0.11589629E+03</totfact>
</mgrwt>
</event>
<event>
 5    1  0.2799727E-003  0.1612049E+03  0.7818608E-02  0.1190465E+00
         11   -1    0    0    0    0  0.00000000000E+00  0.00000000000E+00  0.99986123179E+03  0.99986123179E+03  0.51100000000E-03 0. -1.
          2   -1    0    0  501    0 -0.00000000000E+00 -0.00000000000E+00 -0.34135777944E+02  0.34135778039E+02  0.25500000000E-02 0. -1.
         11    1    1    2    0    0  0.10183749880E+03  0.10996456103E+03  0.69489120213E+03  0.71087049709E+03  0.51100000000E-03 0. -1.
         22    1    1    2    0    0  0.11277055023E+02  0.98315913598E+00  0.50410250392E+02  0.51665577675E+02  0.00000000000E+00 0.  1.
          2    1    1    2  501    0 -0.11311455382E+03 -0.11094772017E+03  0.22042400132E+03  0.27146093506E+03  0.25500000000E-02 0. -1.
<mgrwt>
<rscale>  0 0.15844336E+03</rscale>
<asrwt>0</asrwt>
<pdfrwt beam="1">  1       11 0.10000000E+01 0.16120487E+03</pdfrwt>
<pdfrwt beam="2">  1        2 0.52509292E-02 0.15844336E+03</pdfrwt>
<totfact> 0.17404388E+03</totfact>
</mgrwt>
</event>
<event>
 5    1  0.2799727E-003  0.1956490E+03  0.7818608E-02  0.1397596E+00
         11   -1    0    0    0    0  0.00000000000E+00  0.00000000000E+00  0.99999063152E+03  0.99999063152E+03  0.51100000000E-03 0. -1.
          2   -1    0    0  501    0 -0.00000000000E+00 -0.00000000000E+00 -0.14489660171E+04  0.14489660171E+04  0.25500000000E-02 0.  1.
         11    1    1    2    0    0  0.10283963723E+02  0.22325524983E+03  0.36019664170E+03  0.42389891151E+03  0.51100000000E-03 0. -1.
         22    1    1    2    0    0  0.33328333626E+02 -0.18196701624E+03  0.59321210230E+03  0.62138826119E+03  0.00000000000E+00 0. -1.
          2    1    1    2  501    0 -0.43612297349E+02 -0.41288233597E+02 -0.14023841296E+04  0.14036694759E+04  0.25500000000E-02 0.  1.
<mgrwt>
<rscale>  0 0.60056230E+02</rscale>
<asrwt>0</asrwt>
<pdfrwt beam="1">  1       11 0.10000000E+01 0.19564898E+03</pdfrwt>
<pdfrwt beam="2">  1        2 0.22291575E+00 0.60056230E+02</pdfrwt>
<totfact> 0.20447643E+01</totfact>
</mgrwt>
</event>
<event>
 5    1  0.2799727E-003  0.1876893E+03  0.7818608E-02  0.1176518E+00
         11   -1    0    0    0    0  0.00000000000E+00  0.00000000000E+00  0.10002938785E+04  0.10002938785E+04  0.51100000000E-03 0. -1.
          2   -1    0    0  501    0 -0.00000000000E+00 -0.00000000000E+00 -0.32992745870E+02  0.32992745968E+02  0.25500000000E-02 0. -1.
         11    1    1    2    0    0 -0.46855369744E+02  0.69219528888E+02  0.21631112392E+03  0.23189926948E+03  0.51100000000E-03 0. -1.
         22    1    1    2    0    0  0.22928100281E+02  0.10038261871E+03  0.20919733468E+03  0.23316494753E+03  0.00000000000E+00 0. -1.
          2    1    1    2  501    0  0.23927269464E+02 -0.16960214760E+03  0.54179267405E+03  0.56822240747E+03  0.25500000000E-02 0. -1.
<mgrwt>
<rscale>  0 0.17128165E+03</rscale>
<asrwt>0</asrwt>
<pdfrwt beam="1">  1       11 0.10000000E+01 0.18768931E+03</pdfrwt>
<pdfrwt beam="2">  1        2 0.50772986E-02 0.17128165E+03</pdfrwt>
<totfact> 0.18297001E+03</totfact>
</mgrwt>
</event>
<event>
 5    1  0.2799727E-003  0.1593910E+03  0.7818608E-02  0.1196252E+00
         11   -1    0    0    0    0  0.00000000000E+00  0.00000000000E+00  0.10001376045E+04  0.10001376045E+04  0.51100000000E-03 0. -1.
         -2   -1    0    0    0  501 -0.00000000000E+00 -0.00000000000E+00 -0.26782232765E+02  0.26782232887E+02  0.25500000000E-02 0.  1.
         11    1    1    2    0    0  0.10904483021E+03  0.44741808776E+02  0.30138614657E+03  0.32361429788E+03  0.51100000000E-03 0. -1.
         22    1    1    2    0    0  0.32538178951E+02  0.14526114774E+02  0.42833665390E+02  0.55717717026E+02  0.00000000000E+00 0.  1.
         -2    1    1    2    0  501 -0.14158300916E+03 -0.59267923550E+02  0.62913555980E+03  0.64758782250E+03  0.25500000000E-02 0.  1.
<mgrwt>
<rscale>  0 0.15348757E+03</rscale>
<asrwt>0</asrwt>
<pdfrwt beam="1">  1       11 0.10000000E+01 0.15939102E+03</pdfrwt>
<pdfrwt beam="2">  1       -2 0.41209104E-02 0.15348757E+03</pdfrwt>
<totfact> 0.19949812E+03</totfact>
</mgrwt>
</event>
<event>
 5    1  0.2799727E-003  0.1832600E+03  0.7818608E-02  0.1164685E+00
         11   -1    0    0    0    0  0.00000000000E+00  0.00000000000E+00  0.10006099746E+04  0.10006099746E+04  0.51100000000E-03 0. -1.
          2   -1    0    0  501    0 -0.00000000000E+00 -0.00000000000E+00 -0.70507216334E+02  0.70507216380E+02  0.25500000000E-02 0. -1.
         11    1    1    2    0    0  0.21212628034E+02 -0.15135362698E+03  0.44028706383E+03  0.46605857418E+03  0.51100000000E-03 0. -1.
         22    1    1    2    0    0  0.12607028255E+03 -0.17189176573E+01  0.27712237613E+03  0.30445604309E+03  0.00000000000E+00 0. -1.
          2    1    1    2  501    0 -0.14728291058E+03  0.15307254464E+03  0.21269331833E+03  0.30060257375E+03  0.25500000000E-02 0. -1.
<mgrwt>
<rscale>  0 0.18325996E+03</rscale>
<asrwt>0</asrwt>
<pdfrwt beam="1">  1       11 0.10000000E+01 0.12608200E+03</pdfrwt>
<pdfrwt beam="2">  1        2 0.10853880E-01 0.18325996E+03</pdfrwt>
<totfact> 0.69897551E+02</totfact>
</mgrwt>
</event>
<event>
 5    1  0.2799727E-003  0.1226283E+03  0.7818608E-02  0.1463771E+00
         11   -1    0    0    0    0  0.00000000000E+00  0.00000000000E+00  0.10000622578E+04  0.10000622578E+04  0.51100000000E-03 0. -1.
          2   -1    0    0  501    0 -0.00000000000E+00 -0.00000000000E+00 -0.27546765210E+03  0.27546765211E+03  0.25500000000E-02 0.  1.
         11    1    1    2    0    0 -0.10938911795E+03 -0.22927928782E+02  0.38567693317E+03  0.40154497360E+03  0.51100000000E-03 0. -1.
         22    1    1    2    0    0  0.11758281832E+03  0.68942682278E+02  0.59666414443E+03  0.61203505934E+03  0.00000000000E+00 0.  1.
          2    1    1    2  501    0 -0.81937003708E+01 -0.46014753496E+02 -0.25774647190E+03  0.26194987698E+03  0.25500000000E-02 0.  1.
<mgrwt>
<rscale>  0 0.46738574E+02</rscale>
<asrwt>0</asrwt>
<pdfrwt beam="1">  1       11 0.10000000E+01 0.12262826E+03</pdfrwt>
<pdfrwt beam="2">  1        2 0.42382276E-01 0.46738574E+02</pdfrwt>
<totfact> 0.14644179E+02</totfact>
</mgrwt>
</event>
<event>
 5    1  0.2799727E-003  0.2002635E+03  0.7818608E-02  0.1240869E+00
         11   -1    0    0    0    0  0.00000000000E+00  0.00000000000E+00  0.10003515369E+04  0.10003515369E+04  0.51100000000E-03 0. -1.
          2   -1    0    0  501    0 -0.00000000000E+00 -0.00000000000E+00 -0.27981531198E+03  0.27981531199E+03  0.25500000000E-02 0. -1.
         11    1    1    2    0    0 -0.48817123221E+02 -0.23511161032E+03  0.62825805156E+03  0.67258364548E+03  0.51100000000E-03 0. -1.
         22    1    1    2    0    0 -0.50376318374E+02  0.16518925876E+03  0.31197996609E+03  0.35659047086E+03  0.00000000000E+00 0. -1.
          2    1    1    2  501    0  0.99193441595E+02  0.69922351554E+02 -0.21970179268E+03  0.25099273260E+03  0.25500000000E-02 0. -1.
<mgrwt>
<rscale>  0 0.12136092E+03</rscale>
<asrwt>0</asrwt>
<pdfrwt beam="1">  1       11 0.10000000E+01 0.20026350E+03</pdfrwt>
<pdfrwt beam="2">  1        2 0.43063641E-01 0.12136092E+03</pdfrwt>
<totfact> 0.14562917E+02</totfact>
</mgrwt>
</event>
<event>
 5    1  0.2799727E-003  0.3816938E+03  0.7818608E-02  0.1052434E+00
         11   -1    0    0    0    0  0.00000000000E+00  0.00000000000E+00  0.10003230497E+04  0.10003230497E+04  0.51100000000E-03 0.  1.
          2   -1    0    0  501    0 -0.00000000000E+00 -0.00000000000E+00 -0.35615546581E+03  0.35615546582E+03  0.25500000000E-02 0.  1.
         11    1    1    2    0    0  0.34060434588E+03  0.92868546689E+02  0.74634757016E+03  0.82563344342E+03  0.51100000000E-03 0.  1.
         22    1    1    2    0    0  0.23615870416E+02  0.38730457770E+00  0.10083563442E+03  0.10356488067E+03  0.00000000000E+00 0. -1.
          2    1    1    2  501    0 -0.36422021630E+03 -0.93255851267E+02 -0.20301562067E+03  0.42728019145E+03  0.25500000000E-02 0.  1.
<mgrwt>
<rscale>  0 0.37596944E+03</rscale>
<asrwt>0</asrwt>
<pdfrwt beam="1">  1       11 0.10000000E+01 0.38169378E+03</pdfrwt>
<pdfrwt beam="2">  1        2 0.54810848E-01 0.37596944E+03</pdfrwt>
<totfact> 0.11246399E+02</totfact>
</mgrwt>
</event>
<event>
 5    1  0.2799727E-003  0.6034080E+02  0.7818608E-02  0.1401251E+00
         11   -1    0    0    0    0  0.00000000000E+00  0.00000000000E+00  0.10002406027E+04  0.10002406027E+04  0.51100000000E-03 0.  1.
          2   -1    0    0  501    0 -0.00000000000E+00 -0.00000000000E+00 -0.41856047373E+01  0.41856055141E+01  0.25500000000E-02 0.  1.
         11    1    1    2    0    0  0.78990321827E+01  0.19704093046E+02  0.83523708735E+02  0.86179208126E+02  0.51100000000E-03 0.  1.
         22    1    1    2    0    0  0.16195625635E+02  0.34362777862E+02  0.22617979812E+03  0.22934777058E+03  0.00000000000E+00 0.  1.
          2    1    1    2  501    0 -0.24094657818E+02 -0.54066870908E+02  0.68635149113E+03  0.68889922953E+03  0.25500000000E-02 0.  1.
<mgrwt>
<rscale>  0 0.59192728E+02</rscale>
<asrwt>0</asrwt>
<pdfrwt beam="1">  1       11 0.10000000E+01 0.60340800E+02</pdfrwt>
<pdfrwt beam="2">  1        2 0.64409417E-03 0.59192728E+02</pdfrwt>
<totfact> 0.25787206E+04</totfact>
</mgrwt>
</event>
<event>
 5    1  0.2799727E-003  0.1749928E+03  0.7818608E-02  0.1177138E+00
         11   -1    0    0    0    0  0.00000000000E+00  0.00000000000E+00  0.10000214811E+04  0.10000214811E+04  0.51100000000E-03 0. -1.
          2   -1    0    0  501    0 -0.00000000000E+00 -0.00000000000E+00 -0.29925060464E+02  0.29925060573E+02  0.25500000000E-02 0. -1.
         11    1    1    2    0    0 -0.96870908989E+02  0.72271015902E+01  0.21410119566E+03  0.23510747752E+03  0.51100000000E-03 0. -1.
         22    1    1    2    0    0 -0.73811257231E+02 -0.71013793835E+01  0.25533494948E+03  0.26588431264E+03  0.00000000000E+00 0. -1.
          2    1    1    2  501    0  0.17068216622E+03 -0.12572220663E+00  0.50066027549E+03  0.52895475149E+03  0.25500000000E-02 0. -1.
<mgrwt>
<rscale>  0 0.17068221E+03</rscale>
<asrwt>0</asrwt>
<pdfrwt beam="1">  1       11 0.10000000E+01 0.17499280E+03</pdfrwt>
<pdfrwt beam="2">  1        2 0.46039542E-02 0.17068221E+03</pdfrwt>
<totfact> 0.20808344E+03</totfact>
</mgrwt>
</event>
<event>
 5    1  0.2799727E-003  0.2264683E+03  0.7818608E-02  0.1135128E+00
         11   -1    0    0    0    0  0.00000000000E+00  0.00000000000E+00  0.10003002289E+04  0.10003002289E+04  0.51100000000E-03 0.  1.
          2   -1    0    0  501    0 -0.00000000000E+00 -0.00000000000E+00 -0.24195858607E+03  0.24195858608E+03  0.25500000000E-02 0.  1.
         11    1    1    2    0    0  0.16130193891E+03  0.25274137938E+02  0.68182649670E+03  0.70110232431E+03  0.51100000000E-03 0.  1.
         22    1    1    2    0    0  0.45992095479E+02  0.43287881614E+02  0.25277838988E+03  0.26054947310E+03  0.00000000000E+00 0.  1.
          2    1    1    2  501    0 -0.20729403439E+03 -0.68562019552E+02 -0.17626324374E+03  0.28060701759E+03  0.25500000000E-02 0.  1.
<mgrwt>
<rscale>  0 0.21833819E+03</rscale>
<asrwt>0</asrwt>
<pdfrwt beam="1">  1       11 0.10000000E+01 0.22646829E+03</pdfrwt>
<pdfrwt beam="2">  1        2 0.37235573E-01 0.21833819E+03</pdfrwt>
<totfact> 0.17097814E+02</totfact>
</mgrwt>
</event>
<event>
 5    1  0.2799727E-003  0.3941953E+03  0.7818608E-02  0.1045808E+00
         11   -1    0    0    0    0  0.00000000000E+00  0.00000000000E+00  0.10000540567E+04  0.10000540567E+04  0.51100000000E-03 0. -1.
          2   -1    0    0  501    0 -0.00000000000E+00 -0.00000000000E+00 -0.21812735542E+03  0.21812735543E+03  0.25500000000E-02 0. -1.
         11    1    1    2    0    0  0.20392415807E+03  0.30767022766E+03  0.52702103551E+03  0.64342614425E+03  0.51100000000E-03 0. -1.
         22    1    1    2    0    0  0.19183137070E+02  0.30757047059E+02  0.15238901180E+03  0.15664098956E+03  0.00000000000E+00 0.  1.
          2    1    1    2  501    0 -0.22310729514E+03 -0.33842727472E+03  0.10251665401E+03  0.41811427837E+03  0.25500000000E-02 0. -1.
<mgrwt>
<rscale>  0 0.39419525E+03</rscale>
<asrwt>0</asrwt>
<pdfrwt beam="1">  1       11 0.10000000E+01 0.36248982E+02</pdfrwt>
<pdfrwt beam="2">  1        2 0.33559868E-01 0.39419525E+03</pdfrwt>
<totfact> 0.19262194E+02</totfact>
</mgrwt>
</event>
<event>
 5    1  0.2799727E-003  0.1643581E+03  0.7818608E-02  0.1183863E+00
         11   -1    0    0    0    0  0.00000000000E+00  0.00000000000E+00  0.10001850294E+04  0.10001850294E+04  0.51100000000E-03 0.  1.
          2   -1    0    0  501    0 -0.00000000000E+00 -0.00000000000E+00 -0.51272767952E+02  0.51272768015E+02  0.25500000000E-02 0.  1.
         11    1    1    2    0    0 -0.15747433354E+03  0.34826922666E+02  0.13600054602E+03  0.21096736426E+03  0.51100000000E-03 0.  1.
         22    1    1    2    0    0 -0.21070136577E+02 -0.19845824041E+02  0.60896265834E+02  0.67425236965E+02  0.00000000000E+00 0.  1.
          2    1    1    2  501    0  0.17854447011E+03 -0.14981098625E+02  0.75201544958E+03  0.77306519617E+03  0.25500000000E-02 0.  1.
<mgrwt>
<rscale>  0 0.16435809E+03</rscale>
<asrwt>0</asrwt>
<pdfrwt beam="1">  1       11 0.10000000E+01 0.28944903E+02</pdfrwt>
<pdfrwt beam="2">  1        2 0.78895775E-02 0.16435809E+03</pdfrwt>
<totfact> 0.10336113E+03</totfact>
</mgrwt>
</event>
<event>
 5    1  0.2799727E-003  0.5257022E+03  0.7818608E-02  0.1007280E+00
         11   -1    0    0    0    0  0.00000000000E+00  0.00000000000E+00  0.10002379000E+04  0.10002379000E+04  0.51100000000E-03 0. -1.
          2   -1    0    0  501    0 -0.00000000000E+00 -0.00000000000E+00 -0.75990079963E+03  0.75990079964E+03  0.25500000000E-02 0. -1.
         11    1    1    2    0    0  0.24138808569E+02 -0.16801934354E+03  0.22365611412E+03  0.28077613728E+03  0.51100000000E-03 0. -1.
         22    1    1    2    0    0 -0.41435779646E+03 -0.20549392547E+03  0.55112510513E+03  0.71948524543E+03  0.00000000000E+00 0. -1.
          2    1    1    2  501    0  0.39021898789E+03  0.37351326900E+03 -0.53444411885E+03  0.75987731695E+03  0.25500000000E-02 0. -1.
<mgrwt>
<rscale>  0 0.52570218E+03</rscale>
<asrwt>0</asrwt>
<pdfrwt beam="1">  1       11 0.10000000E+01 0.16974446E+03</pdfrwt>
<pdfrwt beam="2">  1        2 0.11693562E+00 0.52570218E+03</pdfrwt>
<totfact> 0.46253173E+01</totfact>
</mgrwt>
</event>
<event>
 5    1  0.2799727E-003  0.2179381E+03  0.7818608E-02  0.1135430E+00
         11   -1    0    0    0    0  0.00000000000E+00  0.00000000000E+00  0.10004323138E+04  0.10004323138E+04  0.51100000000E-03 0. -1.
          2   -1    0    0  501    0 -0.00000000000E+00 -0.00000000000E+00 -0.12930539526E+03  0.12930539529E+03  0.25500000000E-02 0. -1.
         11    1    1    2    0    0 -0.17641985378E+03  0.76411358873E+02  0.61355061100E+03  0.64296734974E+03  0.51100000000E-03 0. -1.
         22    1    1    2    0    0  0.13320303322E+02  0.77922546318E+02  0.24988764114E+03  0.26209385132E+03  0.00000000000E+00 0.  1.
          2    1    1    2  501    0  0.16309955046E+03 -0.15433390519E+03  0.76886663777E+01  0.22467650800E+03  0.25500000000E-02 0. -1.
<mgrwt>
<rscale>  0 0.21793808E+03</rscale>
<asrwt>0</asrwt>
<pdfrwt beam="1">  1       11 0.10000000E+01 0.79052854E+02</pdfrwt>
<pdfrwt beam="2">  1        2 0.19901737E-01 0.21793808E+03</pdfrwt>
<totfact> 0.34277547E+02</totfact>
</mgrwt>
</event>
<event>
 5    1  0.2799727E-003  0.1835282E+03  0.7818608E-02  0.1171746E+00
         11   -1    0    0    0    0  0.00000000000E+00  0.00000000000E+00  0.10002149501E+04  0.10002149501E+04  0.51100000000E-03 0. -1.
         -2   -1    0    0    0  501 -0.00000000000E+00 -0.00000000000E+00 -0.36095689630E+02  0.36095689720E+02  0.25500000000E-02 0. -1.
         11    1    1    2    0    0 -0.14400931251E+03 -0.60038794873E+02  0.59191959148E+03  0.61213735531E+03  0.51100000000E-03 0. -1.
         22    1    1    2    0    0 -0.10808463461E+02 -0.23640460194E+02  0.67063559192E+02  0.71925066647E+02  0.00000000000E+00 0. -1.
         -2    1    1    2    0  501  0.15481777597E+03  0.83679255067E+02  0.30513610981E+03  0.35224821788E+03  0.25500000000E-02 0. -1.
<mgrwt>
<rscale>  0 0.17598512E+03</rscale>
<asrwt>0</asrwt>
<pdfrwt beam="1">  1       11 0.10000000E+01 0.18352821E+03</pdfrwt>
<pdfrwt beam="2">  1       -2 0.55543765E-02 0.17598512E+03</pdfrwt>
<totfact> 0.12876107E+03</totfact>
</mgrwt>
</event>
<event>
 5    1  0.2799727E-003  0.4088091E+02  0.7818608E-02  0.1517486E+00
         11   -1    0    0    0    0  0.00000000000E+00  0.00000000000E+00  0.10004576605E+04  0.10004576605E+04  0.51100000000E-03 0. -1.
          2   -1    0    0  501    0 -0.00000000000E+00 -0.00000000000E+00 -0.26897904535E+01  0.26897916622E+01  0.25500000000E-02 0. -1.
         11    1    1    2    0    0  0.23638050922E+02  0.10816122883E+00  0.97938280021E+02  0.10075056250E+03  0.51100000000E-03 0. -1.
         22    1    1    2    0    0  0.13793197094E+02  0.99806779224E+01  0.87396494467E+02  0.89039392760E+02  0.00000000000E+00 0. -1.
          2    1    1    2  501    0 -0.37431248016E+02 -0.10088839151E+02  0.81243309559E+03  0.81335749693E+03  0.25500000000E-02 0. -1.
<mgrwt>
<rscale>  0 0.38767035E+02</rscale>
<asrwt>0</asrwt>
<pdfrwt beam="1">  1       11 0.10000000E+01 0.40880906E+02</pdfrwt>
<pdfrwt beam="2">  1        2 0.41400338E-03 0.38767035E+02</pdfrwt>
<totfact> 0.42714276E+04</totfact>
</mgrwt>
</event>
<event>
 5    1  0.2799727E-003  0.1306983E+03  0.7818608E-02  0.1252566E+00
         11   -1    0    0    0    0  0.00000000000E+00  0.00000000000E+00  0.10001277988E+04  0.10001277988E+04  0.51100000000E-03 0. -1.
          2   -1    0    0  501    0 -0.00000000000E+00 -0.00000000000E+00 -0.41881253566E+03  0.41881253567E+03  0.25500000000E-02 0. -1.
         11    1    1    2    0    0  0.13038600643E+03  0.45807699363E+02  0.75203155213E+03  0.76462429427E+03  0.51100000000E-03 0. -1.
         22    1    1    2    0    0 -0.54571766817E+02 -0.13152914345E+03  0.21170401583E+03  0.25514032145E+03  0.00000000000E+00 0. -1.
          2    1    1    2  501    0 -0.75814239612E+02  0.85721444088E+02 -0.38242030481E+03  0.39917571875E+03  0.25500000000E-02 0. -1.
<mgrwt>
<rscale>  0 0.11443760E+03</rscale>
<asrwt>0</asrwt>
<pdfrwt beam="1">  1       11 0.10000000E+01 0.13069833E+03</pdfrwt>
<pdfrwt beam="2">  1        2 0.64440930E-01 0.11443760E+03</pdfrwt>
<totfact> 0.95079019E+01</totfact>
</mgrwt>
</event>
<event>
 5    1  0.2799727E-003  0.2339441E+03  0.7818608E-02  0.1127177E+00
         11   -1    0    0    0    0  0.00000000000E+00  0.00000000000E+00  0.10001419919E+04  0.10001419919E+04  0.51100000000E-03 0. -1.
         -2   -1    0    0    0  501 -0.00000000000E+00 -0.00000000000E+00 -0.11562554298E+03  0.11562554301E+03  0.25500000000E-02 0.  1.
         11    1    1    2    0    0 -0.51475042482E+02 -0.45546931770E+02  0.29101580715E+03  0.29902241221E+03  0.51100000000E-03 0. -1.
         22    1    1    2    0    0 -0.72278777775E+02 -0.14741718745E+03  0.56183169148E+03  0.58532973479E+03  0.00000000000E+00 0. -1.
         -2    1    1    2    0  501  0.12375382026E+03  0.19296411922E+03  0.31668950270E+02  0.23141538789E+03  0.25500000000E-02 0.  1.
<mgrwt>
<rscale>  0 0.22923822E+03</rscale>
<asrwt>0</asrwt>
<pdfrwt beam="1">  1       11 0.10000000E+01 0.23394415E+03</pdfrwt>
<pdfrwt beam="2">  1       -2 0.17791070E-01 0.22923822E+03</pdfrwt>
<totfact> 0.20502103E+02</totfact>
</mgrwt>
</event>
<event>
 5    1  0.2799727E-003  0.8065453E+02  0.7818608E-02  0.1327204E+00
         11   -1    0    0    0    0  0.00000000000E+00  0.00000000000E+00  0.10003361450E+04  0.10003361450E+04  0.51100000000E-03 0.  1.
          2   -1    0    0  501    0 -0.00000000000E+00 -0.00000000000E+00 -0.34931314628E+02  0.34931314721E+02  0.25500000000E-02 0.  1.
         11    1    1    2    0    0  0.78019756231E+02 -0.82023620177E+02  0.57303271901E+03  0.58410739911E+03  0.51100000000E-03 0.  1.
         22    1    1    2    0    0 -0.77982245195E+02  0.19374790472E+01  0.35374781397E+03  0.36224646345E+03  0.00000000000E+00 0.  1.
          2    1    1    2  501    0 -0.37511035338E-01  0.80086141130E+02  0.38624297405E+02  0.88913597187E+02  0.25500000000E-02 0.  1.
<mgrwt>
<rscale>  0 0.80654527E+02</rscale>
<asrwt>0</asrwt>
<pdfrwt beam="1">  1       11 0.10000000E+01 0.78006310E+02</pdfrwt>
<pdfrwt beam="2">  1        2 0.53758547E-02 0.80654527E+02</pdfrwt>
<totfact> 0.15953881E+03</totfact>
</mgrwt>
</event>
<event>
 5    1  0.2799727E-003  0.2225583E+03  0.7818608E-02  0.1131990E+00
         11   -1    0    0    0    0  0.00000000000E+00  0.00000000000E+00  0.99997090430E+03  0.99997090430E+03  0.51100000000E-03 0.  1.
          2   -1    0    0  501    0 -0.00000000000E+00 -0.00000000000E+00 -0.78504234960E+03  0.78504234960E+03  0.25500000000E-02 0. -1.
         11    1    1    2    0    0  0.22235769959E+02 -0.21632375698E+03  0.89285974302E+03  0.91896078154E+03  0.51100000000E-03 0.  1.
         22    1    1    2    0    0  0.32001543278E+02  0.34150787728E+00  0.74647320731E+02  0.81218457829E+02  0.00000000000E+00 0.  1.
          2    1    1    2  501    0 -0.54237313237E+02  0.21598224911E+03 -0.75257850905E+03  0.78483401453E+03  0.25500000000E-02 0. -1.
<mgrwt>
<rscale>  0 0.22255829E+03</rscale>
<asrwt>0</asrwt>
<pdfrwt beam="1">  1       11 0.10000000E+01 0.32003365E+02</pdfrwt>
<pdfrwt beam="2">  1        2 0.12077223E+00 0.22255829E+03</pdfrwt>
<totfact> 0.45719215E+01</totfact>
</mgrwt>
</event>
<event>
 5    1  0.2799727E-003  0.1862548E+03  0.7818608E-02  0.1246084E+00
         11   -1    0    0    0    0  0.00000000000E+00  0.00000000000E+00  0.10002306455E+04  0.10002306455E+04  0.51100000000E-03 0. -1.
         -2   -1    0    0    0  501 -0.00000000000E+00 -0.00000000000E+00 -0.54303876972E+02  0.54303877032E+02  0.25500000000E-02 0. -1.
         11    1    1    2    0    0 -0.37606991075E+02 -0.21380824592E+03  0.44991054470E+03  0.49954754532E+03  0.51100000000E-03 0. -1.
         22    1    1    2    0    0  0.58658291124E+02  0.46768981905E+02  0.10297668076E+03  0.12740615985E+03  0.00000000000E+00 0.  1.
         -2    1    1    2    0  501 -0.21051300049E+02  0.16703926402E+03  0.39303954301E+03  0.42758081731E+03  0.25500000000E-02 0. -1.
<mgrwt>
<rscale>  0 0.11820740E+03</rscale>
<asrwt>0</asrwt>
<pdfrwt beam="1">  1       11 0.10000000E+01 0.18625475E+03</pdfrwt>
<pdfrwt beam="2">  1       -2 0.83563693E-02 0.11820740E+03</pdfrwt>
<totfact> 0.66903072E+02</totfact>
</mgrwt>
</event>
<event>
 5    1  0.2799727E-003  0.1987627E+03  0.7818608E-02  0.1157344E+00
         11   -1    0    0    0    0  0.00000000000E+00  0.00000000000E+00  0.10002810477E+04  0.10002810477E+04  0.51100000000E-03 0. -1.
          2   -1    0    0  501    0 -0.00000000000E+00 -0.00000000000E+00 -0.10938845170E+03  0.10938845173E+03  0.25500000000E-02 0. -1.
         11    1    1    2    0    0  0.77819602068E+02  0.15734545163E+03  0.85552219871E+03  0.87334512886E+03  0.51100000000E-03 0. -1.
         22    1    1    2    0    0  0.15853356033E+02  0.93867669088E+01  0.41051234864E+02  0.44996046208E+02  0.00000000000E+00 0.  1.
          2    1    1    2  501    0 -0.93672958100E+02 -0.16673221854E+03 -0.56808375919E+01  0.19132832435E+03  0.25500000000E-02 0. -1.
<mgrwt>
<rscale>  0 0.19124397E+03</rscale>
<asrwt>0</asrwt>
<pdfrwt beam="1">  1       11 0.10000000E+01 0.19876265E+03</pdfrwt>
<pdfrwt beam="2">  1        2 0.16833722E-01 0.19124397E+03</pdfrwt>
<totfact> 0.41427808E+02</totfact>
</mgrwt>
</event>
<event>
 5    1  0.2799727E-003  0.7815215E+02  0.7818608E-02  0.1348143E+00
         11   -1    0    0    0    0  0.00000000000E+00  0.00000000000E+00  0.10000942329E+04  0.10000942329E+04  0.51100000000E-03 0.  1.
          2   -1    0    0  501    0 -0.00000000000E+00 -0.00000000000E+00 -0.70738496061E+01  0.70738500658E+01  0.25500000000E-02 0.  1.
         11    1    1    2    0    0 -0.25289371633E+02 -0.45254926970E+02  0.18689941639E+03  0.19395605837E+03  0.51100000000E-03 0.  1.
         22    1    1    2    0    0 -0.24701550978E+02 -0.88134212157E+01  0.10464119698E+03  0.10787781570E+03  0.00000000000E+00 0. -1.
          2    1    1    2  501    0  0.49990922611E+02  0.54068348185E+02  0.70147976997E+03  0.70533420894E+03  0.25500000000E-02 0.  1.
<mgrwt>
<rscale>  0 0.73637481E+02</rscale>
<asrwt>0</asrwt>
<pdfrwt beam="1">  1       11 0.10000000E+01 0.78152148E+02</pdfrwt>
<pdfrwt beam="2">  1        2 0.10883871E-02 0.73637481E+02</pdfrwt>
<totfact> 0.13149992E+04</totfact>
</mgrwt>
</event>
<event>
 5    1  0.2799727E-003  0.1760155E+03  0.7818608E-02  0.1171716E+00
         11   -1    0    0    0    0  0.00000000000E+00  0.00000000000E+00  0.10001142108E+04  0.10001142108E+04  0.51100000000E-03 0. -1.
          2   -1    0    0  501    0 -0.00000000000E+00 -0.00000000000E+00 -0.45078523129E+03  0.45078523130E+03  0.25500000000E-02 0.  1.
         11    1    1    2    0    0 -0.11398256051E+03  0.12479450359E+03  0.94837892560E+03  0.96332148255E+03  0.51100000000E-03 0. -1.
         22    1    1    2    0    0 -0.11334084482E+02 -0.10048267073E+01  0.25506769620E+02  0.27929669604E+02  0.00000000000E+00 0. -1.
          2    1    1    2  501    0  0.12531664499E+03 -0.12378967688E+03 -0.42455671569E+03  0.45964828996E+03  0.25500000000E-02 0.  1.
<mgrwt>
<rscale>  0 0.17601553E+03</rscale>
<asrwt>0</asrwt>
<pdfrwt beam="1">  1       11 0.10000000E+01 0.11378539E+02</pdfrwt>
<pdfrwt beam="2">  1        2 0.69359493E-01 0.17601553E+03</pdfrwt>
<totfact> 0.87476482E+01</totfact>
</mgrwt>
</event>
<event>
 5    1  0.2799727E-003  0.2310174E+03  0.7818608E-02  0.1129604E+00
         11   -1    0    0    0    0  0.00000000000E+00  0.00000000000E+00  0.10000615846E+04  0.10000615846E+04  0.51100000000E-03 0.  1.
         -2   -1    0    0    0  501 -0.00000000000E+00 -0.00000000000E+00 -0.91122704261E+02  0.91122704296E+02  0.25500000000E-02 0. -1.
         11    1    1    2    0    0 -0.14297353178E+03 -0.12444867006E+03  0.71455755242E+03  0.73927085563E+03  0.51100000000E-03 0.  1.
         22    1    1    2    0    0 -0.16375001535E+02 -0.35584497718E+02  0.99539152350E+02  0.10696934142E+03  0.00000000000E+00 0. -1.
         -2    1    1    2    0  501  0.15934853332E+03  0.16003316778E+03  0.94842175579E+02  0.24494409185E+03  0.25500000000E-02 0. -1.
<mgrwt>
<rscale>  0 0.22583749E+03</rscale>
<asrwt>0</asrwt>
<pdfrwt beam="1">  1       11 0.10000000E+01 0.23101737E+03</pdfrwt>
<pdfrwt beam="2">  1       -2 0.14019741E-01 0.22583749E+03</pdfrwt>
<totfact> 0.30450155E+02</totfact>
</mgrwt>
</event>
<event>
 5    1  0.2799727E-003  0.1748579E+03  0.7818608E-02  0.1176878E+00
         11   -1    0    0    0    0  0.00000000000E+00  0.00000000000E+00  0.10013329010E+04  0.10013329010E+04  0.51100000000E-03 0.  1.
          2   -1    0    0  501    0 -0.00000000000E+00 -0.00000000000E+00 -0.31013069160E+04  0.31013069160E+04  0.25500000000E-02 0.  1.
         11    1    1    2    0    0  0.22870189635E-01  0.42520420522E+02  0.25492567819E+03  0.25844745711E+03  0.51100000000E-03 0.  1.
         22    1    1    2    0    0  0.62385219146E+02  0.11661340191E+03  0.73639438725E+03  0.74817597840E+03  0.00000000000E+00 0.  1.
          2    1    1    2  501    0 -0.62408089335E+02 -0.15913382243E+03 -0.30912940805E+04  0.30960163816E+04  0.25500000000E-02 0.  1.
<mgrwt>
<rscale>  0 0.17093374E+03</rscale>
<asrwt>0</asrwt>
<pdfrwt beam="1">  1       11 0.10000000E+01 0.17485785E+03</pdfrwt>
<pdfrwt beam="2">  1        2 0.47776009E+00 0.17093374E+03</pdfrwt>
<totfact> 0.24239191E+00</totfact>
</mgrwt>
</event>
<event>
 5    1  0.2799727E-003  0.1175246E+03  0.7818608E-02  0.1252122E+00
         11   -1    0    0    0    0  0.00000000000E+00  0.00000000000E+00  0.10003107948E+04  0.10003107948E+04  0.51100000000E-03 0.  1.
          2   -1    0    0  501    0 -0.00000000000E+00 -0.00000000000E+00 -0.14395848527E+02  0.14395848753E+02  0.25500000000E-02 0.  1.
         11    1    1    2    0    0 -0.35273239679E+02 -0.12725886207E+02  0.14865396397E+03  0.15331063440E+03  0.51100000000E-03 0.  1.
         22    1    1    2    0    0 -0.78667691113E+02 -0.36609197914E+00  0.22175162505E+03  0.23529241990E+03  0.00000000000E+00 0.  1.
          2    1    1    2  501    0  0.11394093079E+03  0.13091978186E+02  0.61550935721E+03  0.62610358922E+03  0.25500000000E-02 0.  1.
<mgrwt>
<rscale>  0 0.11469061E+03</rscale>
<asrwt>0</asrwt>
<pdfrwt beam="1">  1       11 0.10000000E+01 0.11752461E+03</pdfrwt>
<pdfrwt beam="2">  1        2 0.22154342E-02 0.11469061E+03</pdfrwt>
<totfact> 0.53313915E+03</totfact>
</mgrwt>
</event>
<event>
 5    1  0.2799727E-003  0.2195230E+03  0.7818608E-02  0.1151061E+00
         11   -1    0    0    0    0  0.00000000000E+00  0.00000000000E+00  0.10002777082E+04  0.10002777082E+04  0.51100000000E-03 0.  1.
          2   -1    0    0  501    0 -0.00000000000E+00 -0.00000000000E+00 -0.59634349103E+02  0.59634349157E+02  0.25500000000E-02 0.  1.
         11    1    1    2    0    0  0.33604368889E+02 -0.15196589930E+03  0.55461606294E+03  0.57603981237E+03  0.51100000000E-03 0.  1.
         22    1    1    2    0    0 -0.43859344584E+02 -0.46209718162E+02  0.20709349187E+03  0.21667185912E+03  0.00000000000E+00 0. -1.
          2    1    1    2  501    0  0.10254975694E+02  0.19817561746E+03  0.17893380426E+03  0.26720038584E+03  0.25500000000E-02 0.  1.
<mgrwt>
<rscale>  0 0.19844077E+03</rscale>
<asrwt>0</asrwt>
<pdfrwt beam="1">  1       11 0.10000000E+01 0.21952300E+03</pdfrwt>
<pdfrwt beam="2">  1        2 0.91770628E-02 0.19844077E+03</pdfrwt>
<totfact> 0.86405088E+02</totfact>
</mgrwt>
</event>
<event>
 5    1  0.2799727E-003  0.2512022E+03  0.7818608E-02  0.1120210E+00
         11   -1    0    0    0    0  0.00000000000E+00  0.00000000000E+00  0.10001773011E+04  0.10001773011E+04  0.51100000000E-03 0. -1.
         -2   -1    0    0    0  501 -0.00000000000E+00 -0.00000000000E+00 -0.62364913528E+02  0.62364913580E+02  0.25500000000E-02 0.  1.
         11    1    1    2    0    0  0.14779226296E+03  0.42332823309E+02  0.45092662180E+03  0.47641309719E+03  0.51100000000E-03 0. -1.
         22    1    1    2    0    0  0.86785699946E+02  0.53495887177E+01  0.12884402284E+03  0.15543859893E+03  0.00000000000E+00 0. -1.
         -2    1    1    2    0  501 -0.23457796290E+03 -0.47682412026E+02  0.35804174292E+03  0.43069051856E+03  0.25500000000E-02 0.  1.
<mgrwt>
<rscale>  0 0.23937509E+03</rscale>
<asrwt>0</asrwt>
<pdfrwt beam="1">  1       11 0.10000000E+01 0.25120224E+03</pdfrwt>
<pdfrwt beam="2">  1       -2 0.95963029E-02 0.23937509E+03</pdfrwt>
<totfact> 0.56262787E+02</totfact>
</mgrwt>
</event>
<event>
 5    1  0.2799727E-003  0.1383075E+03  0.7818608E-02  0.1502323E+00
         11   -1    0    0    0    0  0.00000000000E+00  0.00000000000E+00  0.10001130533E+04  0.10001130533E+04  0.51100000000E-03 0. -1.
          2   -1    0    0  501    0 -0.00000000000E+00 -0.00000000000E+00 -0.30012661866E+02  0.30012661975E+02  0.25500000000E-02 0. -1.
         11    1    1    2    0    0 -0.32002829420E+02  0.13323908911E+03  0.73863996145E+03  0.75124285594E+03  0.51100000000E-03 0. -1.
         22    1    1    2    0    0 -0.11703557884E+02  0.28372402731E+01  0.12111578285E+02  0.17079623183E+02  0.00000000000E+00 0. -1.
          2    1    1    2  501    0  0.43706387305E+02 -0.13607632938E+03  0.21934885169E+03  0.26180323614E+03  0.25500000000E-02 0. -1.
<mgrwt>
<rscale>  0 0.40811474E+02</rscale>
<asrwt>0</asrwt>
<pdfrwt beam="1">  1       11 0.10000000E+01 0.13830753E+03</pdfrwt>
<pdfrwt beam="2">  1        2 0.46178545E-02 0.40811474E+02</pdfrwt>
<totfact> 0.18035805E+03</totfact>
</mgrwt>
</event>
<event>
 5    1  0.2799727E-003  0.1070019E+03  0.7818608E-02  0.1277660E+00
         11   -1    0    0    0    0  0.00000000000E+00  0.00000000000E+00  0.10003572216E+04  0.10003572216E+04  0.51100000000E-03 0. -1.
         -2   -1    0    0    0  501 -0.00000000000E+00 -0.00000000000E+00 -0.16820626349E+02  0.16820626543E+02  0.25500000000E-02 0. -1.
         11    1    1    2    0    0  0.65926444886E+02 -0.21000820941E+02  0.16410248454E+03  0.17809254911E+03  0.51100000000E-03 0. -1.
         22    1    1    2    0    0  0.31997067746E+02 -0.47942264731E+01  0.33203294589E+02  0.46360066041E+02  0.00000000000E+00 0. -1.
         -2    1    1    2    0  501 -0.97923512632E+02  0.25795047414E+02  0.78623081607E+03  0.79272523294E+03  0.25500000000E-02 0. -1.
<mgrwt>
<rscale>  0 0.10126401E+03</rscale>
<asrwt>0</asrwt>
<pdfrwt beam="1">  1       11 0.10000000E+01 0.10700190E+03</pdfrwt>
<pdfrwt beam="2">  1       -2 0.25887130E-02 0.10126401E+03</pdfrwt>
<totfact> 0.37833860E+03</totfact>
</mgrwt>
</event>
<event>
 5    1  0.2799727E-003  0.1358717E+03  0.7818608E-02  0.1224977E+00
         11   -1    0    0    0    0  0.00000000000E+00  0.00000000000E+00  0.10001714933E+04  0.10001714933E+04  0.51100000000E-03 0. -1.
          2   -1    0    0  501    0 -0.00000000000E+00 -0.00000000000E+00 -0.23670668099E+02  0.23670668236E+02  0.25500000000E-02 0. -1.
         11    1    1    2    0    0 -0.20082061129E+02 -0.10807842048E+03  0.18365281610E+03  0.21403876055E+03  0.51100000000E-03 0. -1.
         22    1    1    2    0    0  0.97018474974E+01 -0.23196516394E+02  0.57493946454E+02  0.62751558519E+02  0.00000000000E+00 0.  1.
          2    1    1    2  501    0  0.10380213631E+02  0.13127493688E+03  0.73535406265E+03  0.74705184248E+03  0.25500000000E-02 0. -1.
<mgrwt>
<rscale>  0 0.13168469E+03</rscale>
<asrwt>0</asrwt>
<pdfrwt beam="1">  1       11 0.10000000E+01 0.13587170E+03</pdfrwt>
<pdfrwt beam="2">  1        2 0.36422657E-02 0.13168469E+03</pdfrwt>
<totfact> 0.27752659E+03</totfact>
</mgrwt>
</event>
<event>
 5    1  0.2799727E-003  0.9509271E+02  0.7818608E-02  0.1290967E+00
         11   -1    0    0    0    0  0.00000000000E+00  0.00000000000E+00  0.10001261988E+04  0.10001261988E+04  0.51100000000E-03 0. -1.
          2   -1    0    0  501    0 -0.00000000000E+00 -0.00000000000E+00 -0.21587342791E+02  0.21587342941E+02  0.25500000000E-02 0. -1.
         11    1    1    2    0    0 -0.76582704871E+02 -0.47019803751E+01  0.41429908434E+03  0.42134398132E+03  0.51100000000E-03 0. -1.
         22    1    1    2    0    0 -0.18668605580E+02  0.77876861565E+02  0.29254476408E+03  0.30330803055E+03  0.00000000000E+00 0. -1.
          2    1    1    2  501    0  0.95251310451E+02 -0.73174881189E+02  0.27169500756E+03  0.29706152985E+03  0.25500000000E-02 0. -1.
<mgrwt>
<rscale>  0 0.95092714E+02</rscale>
<asrwt>0</asrwt>
<pdfrwt beam="1">  1       11 0.10000000E+01 0.76726914E+02</pdfrwt>
<pdfrwt beam="2">  1        2 0.33215487E-02 0.95092714E+02</pdfrwt>
<totfact> 0.30349404E+03</totfact>
</mgrwt>
</event>
<event>
 5    1  0.2799727E-003  0.1919060E+03  0.7818608E-02  0.1161326E+00
         11   -1    0    0    0    0  0.00000000000E+00  0.00000000000E+00  0.10004331188E+04  0.10004331188E+04  0.51100000000E-03 0. -1.
          2   -1    0    0  501    0 -0.00000000000E+00 -0.00000000000E+00 -0.18785639003E+04  0.18785639003E+04  0.25500000000E-02 0. -1.
         11    1    1    2    0    0 -0.45078648506E+02 -0.13137760930E+03  0.72379698181E+03  0.73700354928E+03  0.51100000000E-03 0. -1.
         22    1    1    2    0    0 -0.39568102538E+02 -0.35208569487E+02  0.26272036520E+03  0.26800609769E+03  0.00000000000E+00 0. -1.
          2    1    1    2  501    0  0.84646751044E+02  0.16658617879E+03 -0.18646481285E+04  0.18739873721E+04  0.25500000000E-02 0. -1.
<mgrwt>
<rscale>  0 0.18685831E+03</rscale>
<asrwt>0</asrwt>
<pdfrwt beam="1">  1       11 0.10000000E+01 0.19190600E+03</pdfrwt>
<pdfrwt beam="2">  1        2 0.28913500E+00 0.18685831E+03</pdfrwt>
<totfact> 0.11161949E+01</totfact>
</mgrwt>
</event>
<event>
 5    1  0.2799727E-003  0.5348934E+03  0.7818608E-02  0.1005052E+00
         11   -1    0    0    0    0  0.00000000000E+00  0.00000000000E+00  0.99975050297E+03  0.99975050297E+03  0.51100000000E-03 0.  1.
          2   -1    0    0  501    0 -0.00000000000E+00 -0.00000000000E+00 -0.11428445635E+04  0.11428445635E+04  0.25500000000E-02 0.  1.
         11    1    1    2    0    0 -0.10166738135E+03 -0.26135033942E+03  0.20608631075E+02  0.28118494273E+03  0.51100000000E-03 0.  1.
         22    1    1    2    0    0 -0.31556996761E+03 -0.10949432197E+03  0.73278884034E+03  0.80532781867E+03  0.00000000000E+00 0.  1.
          2    1    1    2  501    0  0.41723734896E+03  0.37084466139E+03 -0.89649153195E+03  0.10560823051E+04  0.25500000000E-02 0.  1.
<mgrwt>
<rscale>  0 0.53489337E+03</rscale>
<asrwt>0</asrwt>
<pdfrwt beam="1">  1       11 0.10000000E+01 0.28042870E+03</pdfrwt>
<pdfrwt beam="2">  1        2 0.17577837E+00 0.53489337E+03</pdfrwt>
<totfact> 0.26023453E+01</totfact>
</mgrwt>
</event>
<event>
 5    1  0.2799727E-003  0.1384076E+03  0.7818608E-02  0.1221470E+00
         11   -1    0    0    0    0  0.00000000000E+00  0.00000000000E+00  0.10004769456E+04  0.10004769456E+04  0.51100000000E-03 0. -1.
         -2   -1    0    0    0  501 -0.00000000000E+00 -0.00000000000E+00 -0.19970763710E+02  0.19970763873E+02  0.25500000000E-02 0. -1.
         11    1    1    2    0    0 -0.52844832817E+02 -0.99694350321E+02  0.26106820772E+03  0.28440841922E+03  0.51100000000E-03 0. -1.
         22    1    1    2    0    0 -0.87550484270E+01 -0.19440557139E+02  0.10069975590E+03  0.10293214742E+03  0.00000000000E+00 0. -1.
         -2    1    1    2    0  501  0.61599881244E+02  0.11913490746E+03  0.61873821824E+03  0.63310714280E+03  0.25500000000E-02 0. -1.
<mgrwt>
<rscale>  0 0.13411813E+03</rscale>
<asrwt>0</asrwt>
<pdfrwt beam="1">  1       11 0.10000000E+01 0.13840757E+03</pdfrwt>
<pdfrwt beam="2">  1       -2 0.30738905E-02 0.13411813E+03</pdfrwt>
<totfact> 0.30389548E+03</totfact>
</mgrwt>
</event>
<event>
 5    1  0.2799727E-003  0.2185281E+03  0.7818608E-02  0.1134985E+00
         11   -1    0    0    0    0  0.00000000000E+00  0.00000000000E+00  0.10000869726E+04  0.10000869726E+04  0.51100000000E-03 0.  1.
          2   -1    0    0  501    0 -0.00000000000E+00 -0.00000000000E+00 -0.13881097526E+03  0.13881097528E+03  0.25500000000E-02 0.  1.
         11    1    1    2    0    0 -0.72045593267E+02  0.64847821568E+02  0.19113536017E+02  0.98798455102E+02  0.51100000000E-03 0.  1.
         22    1    1    2    0    0 -0.20052096076E+03 -0.64135379425E+02  0.70988998290E+02  0.22217434703E+03  0.00000000000E+00 0.  1.
          2    1    1    2  501    0  0.27256655403E+03 -0.71244214233E+00  0.77117346305E+03  0.81792514576E+03  0.25500000000E-02 0.  1.
<mgrwt>
<rscale>  0 0.21852810E+03</rscale>
<asrwt>0</asrwt>
<pdfrwt beam="1">  1       11 0.10000000E+01 0.96932022E+02</pdfrwt>
<pdfrwt beam="2">  1        2 0.21357391E-01 0.21852810E+03</pdfrwt>
<totfact> 0.31625784E+02</totfact>
</mgrwt>
</event>
<event>
 5    1  0.2799727E-003  0.1484562E+03  0.7818608E-02  0.1208399E+00
         11   -1    0    0    0    0  0.00000000000E+00  0.00000000000E+00  0.10001147372E+04  0.10001147372E+04  0.51100000000E-03 0. -1.
          2   -1    0    0  501    0 -0.00000000000E+00 -0.00000000000E+00 -0.21424153580E+02  0.21424153732E+02  0.25500000000E-02 0. -1.
         11    1    1    2    0    0 -0.11046607166E+03 -0.40722997591E+02  0.36836413259E+03  0.38672115238E+03  0.51100000000E-03 0. -1.
         22    1    1    2    0    0 -0.17075908924E+02 -0.25539463745E+02  0.96941151360E+02  0.10169285964E+03  0.00000000000E+00 0. -1.
          2    1    1    2  501    0  0.12754198058E+03  0.66262461336E+02  0.51338529968E+03  0.53312487892E+03  0.25500000000E-02 0. -1.
<mgrwt>
<rscale>  0 0.14372777E+03</rscale>
<asrwt>0</asrwt>
<pdfrwt beam="1">  1       11 0.10000000E+01 0.14845619E+03</pdfrwt>
<pdfrwt beam="2">  1        2 0.32964017E-02 0.14372777E+03</pdfrwt>
<totfact> 0.31973354E+03</totfact>
</mgrwt>
</event>
<event>
 5    1  0.2799727E-003  0.1056074E+03  0.7818608E-02  0.1284891E+00
         11   -1    0    0    0    0  0.00000000000E+00  0.00000000000E+00  0.99990186710E+03  0.99990186710E+03  0.51100000000E-03 0. -1.
         -2   -1    0    0    0  501 -0.00000000000E+00 -0.00000000000E+00 -0.10718013817E+02  0.10718014121E+02  0.25500000000E-02 0.  1.
         11    1    1    2    0    0  0.11348266039E+02 -0.40183834417E+02  0.24568923375E+03  0.24921220530E+03  0.51100000000E-03 0. -1.
         22    1    1    2    0    0  0.55815185436E+02 -0.30970898374E+02  0.36076672919E+03  0.36637025583E+03  0.00000000000E+00 0. -1.
         -2    1    1    2    0  501 -0.67163451475E+02  0.71154732791E+02  0.38272789035E+03  0.39503742009E+03  0.25500000000E-02 0.  1.
<mgrwt>
<rscale>  0 0.97846437E+02</rscale>
<asrwt>0</asrwt>
<pdfrwt beam="1">  1       11 0.10000000E+01 0.10560744E+03</pdfrwt>
<pdfrwt beam="2">  1       -2 0.16487634E-02 0.97846437E+02</pdfrwt>
<totfact> 0.72169716E+03</totfact>
</mgrwt>
</event>
<event>
 5    1  0.2799727E-003  0.1743358E+03  0.7818608E-02  0.1280288E+00
         11   -1    0    0    0    0  0.00000000000E+00  0.00000000000E+00  0.10001946488E+04  0.10001946488E+04  0.51100000000E-03 0.  1.
          2   -1    0    0  501    0 -0.00000000000E+00 -0.00000000000E+00 -0.24816024493E+03  0.24816024494E+03  0.25500000000E-02 0.  1.
         11    1    1    2    0    0  0.10708288270E+03 -0.32566261782E+02  0.12006340996E+03  0.16414179110E+03  0.51100000000E-03 0.  1.
         22    1    1    2    0    0 -0.20365478074E+03  0.58539654988E+02  0.83308269146E+03  0.85960975549E+03  0.00000000000E+00 0.  1.
          2    1    1    2  501    0  0.96571898042E+02 -0.25973393206E+02 -0.20111169756E+03  0.22460334714E+03  0.25500000000E-02 0.  1.
<mgrwt>
<rscale>  0 0.10000374E+03</rscale>
<asrwt>0</asrwt>
<pdfrwt beam="1">  1       11 0.10000000E+01 0.17433577E+03</pdfrwt>
<pdfrwt beam="2">  1        2 0.38185930E-01 0.10000374E+03</pdfrwt>
<totfact> 0.16498443E+02</totfact>
</mgrwt>
</event>
<event>
 5    1  0.2799727E-003  0.2032801E+03  0.7818608E-02  0.1147001E+00
         11   -1    0    0    0    0  0.00000000000E+00  0.00000000000E+00  0.99997487424E+03  0.99997487424E+03  0.51100000000E-03 0.  1.
          2   -1    0    0  501    0 -0.00000000000E+00 -0.00000000000E+00 -0.58619216766E+03  0.58619216766E+03  0.25500000000E-02 0.  1.
         11    1    1    2    0    0 -0.12590945170E+03 -0.41655108780E+02  0.36119819123E+03  0.38477587173E+03  0.51100000000E-03 0.  1.
         22    1    1    2    0    0  0.13806666281E+03  0.24306332283E+03  0.57609930543E+03  0.64033787332E+03  0.00000000000E+00 0. -1.
          2    1    1    2  501    0 -0.12157211109E+02 -0.20140821405E+03 -0.52351479008E+03  0.56105329685E+03  0.25500000000E-02 0.  1.
<mgrwt>
<rscale>  0 0.20328009E+03</rscale>
<asrwt>0</asrwt>
<pdfrwt beam="1">  1       11 0.10000000E+01 0.13262103E+03</pdfrwt>
<pdfrwt beam="2">  1        2 0.90181142E-01 0.20328009E+03</pdfrwt>
<totfact> 0.65071499E+01</totfact>
</mgrwt>
</event>
<event>
 5    1  0.2799727E-003  0.3348259E+03  0.7818608E-02  0.1072777E+00
         11   -1    0    0    0    0  0.00000000000E+00  0.00000000000E+00  0.10001100273E+04  0.10001100273E+04  0.51100000000E-03 0. -1.
         -2   -1    0    0    0  501 -0.00000000000E+00 -0.00000000000E+00 -0.83614419086E+03  0.83614419087E+03  0.25500000000E-02 0. -1.
         11    1    1    2    0    0 -0.97760262459E+02 -0.98051555205E+02  0.47869936645E+03  0.49832144228E+03  0.51100000000E-03 0. -1.
         22    1    1    2    0    0 -0.16966402014E+03 -0.88949498653E+02  0.45944972327E+03  0.49778704407E+03  0.00000000000E+00 0. -1.
         -2    1    1    2    0  501  0.26742428260E+03  0.18700105386E+03 -0.77418325326E+03  0.84014573183E+03  0.25500000000E-02 0. -1.
<mgrwt>
<rscale>  0 0.32632061E+03</rscale>
<asrwt>0</asrwt>
<pdfrwt beam="1">  1       11 0.10000000E+01 0.33482593E+03</pdfrwt>
<pdfrwt beam="2">  1       -2 0.12865172E+00 0.32632061E+03</pdfrwt>
<totfact> 0.37765638E+00</totfact>
</mgrwt>
</event>
<event>
 5    1  0.2799727E-003  0.1902374E+03  0.7818608E-02  0.1165676E+00
         11   -1    0    0    0    0  0.00000000000E+00  0.00000000000E+00  0.10001327937E+04  0.10001327937E+04  0.51100000000E-03 0. -1.
         -2   -1    0    0    0  501 -0.00000000000E+00 -0.00000000000E+00 -0.41803262273E+02  0.41803262351E+02  0.25500000000E-02 0. -1.
         11    1    1    2    0    0 -0.13142581678E+02  0.14552255364E+02  0.38938503151E+02  0.43597048263E+02  0.51100000000E-03 0. -1.
         22    1    1    2    0    0 -0.55058470989E+01  0.16670650117E+03  0.66386348624E+03  0.68449696876E+03  0.00000000000E+00 0. -1.
         -2    1    1    2    0  501  0.18648428777E+02 -0.18125875653E+03  0.25552754205E+03  0.31384203904E+03  0.25500000000E-02 0. -1.
<mgrwt>
<rscale>  0 0.18221553E+03</rscale>
<asrwt>0</asrwt>
<pdfrwt beam="1">  1       11 0.10000000E+01 0.19023738E+03</pdfrwt>
<pdfrwt beam="2">  1       -2 0.64321250E-02 0.18221553E+03</pdfrwt>
<totfact> 0.10319795E+03</totfact>
</mgrwt>
</event>
<event>
 5    1  0.2799727E-003  0.4578389E+02  0.7818608E-02  0.1587391E+00
         11   -1    0    0    0    0  0.00000000000E+00  0.00000000000E+00  0.10003307458E+04  0.10003307458E+04  0.51100000000E-03 0.  1.
          2   -1    0    0  501    0 -0.00000000000E+00 -0.00000000000E+00 -0.78592611982E+01  0.78592616119E+01  0.25500000000E-02 0.  1.
         11    1    1    2    0    0  0.23260987082E+02  0.14413545482E+02  0.28053650842E+02  0.39189681540E+02  0.51100000000E-03 0.  1.
         22    1    1    2    0    0  0.14254119224E+02  0.15390154469E+02  0.64869406860E+02  0.68176804822E+02  0.00000000000E+00 0. -1.
          2    1    1    2  501    0 -0.37515106306E+02 -0.29803699951E+02  0.89954842689E+03  0.90082352104E+03  0.25500000000E-02 0.  1.
<mgrwt>
<rscale>  0 0.30990493E+02</rscale>
<asrwt>0</asrwt>
<pdfrwt beam="1">  1       11 0.10000000E+01 0.45783892E+02</pdfrwt>
<pdfrwt beam="2">  1        2 0.12095170E-02 0.30990493E+02</pdfrwt>
<totfact> 0.97764269E+03</totfact>
</mgrwt>
</event>
<event>
 5    1  0.2799727E-003  0.4352144E+02  0.7818608E-02  0.1490625E+00
         11   -1    0    0    0    0  0.00000000000E+00  0.00000000000E+00  0.10002745565E+04  0.10002745565E+04  0.51100000000E-03 0. -1.
         -2   -1    0    0    0  501 -0.00000000000E+00 -0.00000000000E+00 -0.27786745480E+01  0.27786757181E+01  0.25500000000E-02 0. -1.
         11    1    1    2    0    0  0.36034390959E+01 -0.14886513457E+02  0.55937640505E+02  0.57996660953E+02  0.51100000000E-03 0. -1.
         22    1    1    2    0    0  0.92294737130E+01 -0.25622823851E+02  0.15671604200E+03  0.15906486132E+03  0.00000000000E+00 0. -1.
         -2    1    1    2    0  501 -0.12832912809E+02  0.40509337307E+02  0.78484219940E+03  0.78599170990E+03  0.25500000000E-02 0. -1.
<mgrwt>
<rscale>  0 0.42493412E+02</rscale>
<asrwt>0</asrwt>
<pdfrwt beam="1">  1       11 0.10000000E+01 0.43521440E+02</pdfrwt>
<pdfrwt beam="2">  1       -2 0.42760584E-03 0.42493412E+02</pdfrwt>
<totfact> 0.40834982E+04</totfact>
</mgrwt>
</event>
<event>
 5    1  0.2799727E-003  0.8188832E+02  0.7818608E-02  0.1546045E+00
         11   -1    0    0    0    0  0.00000000000E+00  0.00000000000E+00  0.10000198465E+04  0.10000198465E+04  0.51100000000E-03 0. -1.
          2   -1    0    0  501    0 -0.00000000000E+00 -0.00000000000E+00 -0.14250262742E+02  0.14250262970E+02  0.25500000000E-02 0. -1.
         11    1    1    2    0    0 -0.87908143444E+02 -0.26873718182E+02  0.21598940673E+03  0.23473700653E+03  0.51100000000E-03 0. -1.
         22    1    1    2    0    0  0.14564476489E+02 -0.43765751620E+01  0.18116836628E+02  0.23653713344E+02  0.00000000000E+00 0. -1.
          2    1    1    2  501    0  0.73343666955E+02  0.31250293344E+02  0.75166334042E+03  0.75587938962E+03  0.25500000000E-02 0. -1.
<mgrwt>
<rscale>  0 0.35289429E+02</rscale>
<asrwt>0</asrwt>
<pdfrwt beam="1">  1       11 0.10000000E+01 0.81888317E+02</pdfrwt>
<pdfrwt beam="2">  1        2 0.21923916E-02 0.35289429E+02</pdfrwt>
<totfact> 0.45960770E+03</totfact>
</mgrwt>
</event>
<event>
 5    1  0.2799727E-003  0.1657166E+03  0.7818608E-02  0.1186689E+00
         11   -1    0    0    0    0  0.00000000000E+00  0.00000000000E+00  0.10001602008E+04  0.10001602008E+04  0.51100000000E-03 0. -1.
          2   -1    0    0  501    0 -0.00000000000E+00 -0.00000000000E+00 -0.27002639989E+02  0.27002640109E+02  0.25500000000E-02 0. -1.
         11    1    1    2    0    0  0.14997168070E+03 -0.24804366307E+02  0.48266714287E+03  0.50603787646E+03  0.51100000000E-03 0. -1.
         22    1    1    2    0    0  0.78243752890E+01 -0.10928241729E+02  0.52959015564E+02  0.54637941446E+02  0.00000000000E+00 0. -1.
          2    1    1    2  501    0 -0.15779605599E+03  0.35732608036E+02  0.43753140241E+03  0.46648702304E+03  0.25500000000E-02 0. -1.
<mgrwt>
<rscale>  0 0.16179127E+03</rscale>
<asrwt>0</asrwt>
<pdfrwt beam="1">  1       11 0.10000000E+01 0.16571660E+03</pdfrwt>
<pdfrwt beam="2">  1        2 0.41549177E-02 0.16179127E+03</pdfrwt>
<totfact> 0.23733528E+03</totfact>
</mgrwt>
</event>
<event>
 5    1  0.2799727E-003  0.1044497E+03  0.7818608E-02  0.1276884E+00
         11   -1    0    0    0    0  0.00000000000E+00  0.00000000000E+00  0.10001321547E+04  0.10001321547E+04  0.51100000000E-03 0. -1.
          2   -1    0    0  501    0 -0.00000000000E+00 -0.00000000000E+00 -0.10725680035E+02  0.10725680338E+02  0.25500000000E-02 0. -1.
         11    1    1    2    0    0 -0.34097955871E+02  0.65756479657E+02  0.28153220267E+03  0.29111332218E+03  0.51100000000E-03 0. -1.
         22    1    1    2    0    0 -0.54868653232E+01  0.27858844346E+02  0.16894724728E+03  0.17131664619E+03  0.00000000000E+00 0. -1.
          2    1    1    2  501    0  0.39584821194E+02 -0.93615324003E+02  0.53892702469E+03  0.54842786664E+03  0.25500000000E-02 0. -1.
<mgrwt>
<rscale>  0 0.10164048E+03</rscale>
<asrwt>0</asrwt>
<pdfrwt beam="1">  1       11 0.10000000E+01 0.10444970E+03</pdfrwt>
<pdfrwt beam="2">  1        2 0.16503227E-02 0.10164048E+03</pdfrwt>
<totfact> 0.78306655E+03</totfact>
</mgrwt>
</event>
<event>
 5    1  0.2799727E-003  0.2454782E+03  0.7818608E-02  0.1127883E+00
         11   -1    0    0    0    0  0.00000000000E+00  0.00000000000E+00  0.10001842759E+04  0.10001842759E+04  0.51100000000E-03 0. -1.
          2   -1    0    0  501    0 -0.00000000000E+00 -0.00000000000E+00 -0.97601042719E+02  0.97601042752E+02  0.25500000000E-02 0. -1.
         11    1    1    2    0    0 -0.14134095628E+03  0.16021507864E+02  0.36690028841E+03  0.39350956313E+03  0.51100000000E-03 0. -1.
         22    1    1    2    0    0 -0.86191106710E+02 -0.34015416359E+02  0.45164722198E+03  0.46105440953E+03  0.00000000000E+00 0. -1.
          2    1    1    2  501    0  0.22753206299E+03  0.17993908495E+02  0.84035722787E+02  0.24322134599E+03  0.25500000000E-02 0. -1.
<mgrwt>
<rscale>  0 0.22824246E+03</rscale>
<asrwt>0</asrwt>
<pdfrwt beam="1">  1       11 0.10000000E+01 0.24547822E+03</pdfrwt>
<pdfrwt beam="2">  1        2 0.15018312E-01 0.22824246E+03</pdfrwt>
<totfact> 0.47679999E+02</totfact>
</mgrwt>
</event>
<event>
 5    1  0.2799727E-003  0.3499678E+02  0.7818608E-02  0.1650216E+00
         11   -1    0    0    0    0  0.00000000000E+00  0.00000000000E+00  0.10001824142E+04  0.10001824142E+04  0.51100000000E-03 0.  1.
          2   -1    0    0  501    0 -0.00000000000E+00 -0.00000000000E+00 -0.46326343376E+01  0.46326350394E+01  0.25500000000E-02 0.  1.
         11    1    1    2    0    0 -0.29463102982E+00  0.29915752045E+02  0.15327452755E+03  0.15616696137E+03  0.51100000000E-03 0.  1.
         22    1    1    2    0    0 -0.18827034419E+02  0.23429667691E+01  0.29922531503E+02  0.35430278151E+02  0.00000000000E+00 0. -1.
          2    1    1    2  501    0  0.19121665449E+02 -0.32258718814E+02  0.81235272080E+03  0.81321780970E+03  0.25500000000E-02 0.  1.
<mgrwt>
<rscale>  0 0.25767573E+02</rscale>
<asrwt>0</asrwt>
<pdfrwt beam="1">  1       11 0.10000000E+01 0.34996785E+02</pdfrwt>
<pdfrwt beam="2">  1        2 0.71284302E-03 0.25767573E+02</pdfrwt>
<totfact> 0.18826047E+04</totfact>
</mgrwt>
</event>
<event>
 5    1  0.2799727E-003  0.1057565E+03  0.7818608E-02  0.1459316E+00
         11   -1    0    0    0    0  0.00000000000E+00  0.00000000000E+00  0.10000937886E+04  0.10000937886E+04  0.51100000000E-03 0.  1.
         -2   -1    0    0    0  501 -0.00000000000E+00 -0.00000000000E+00 -0.13174888233E+03  0.13174888235E+03  0.25500000000E-02 0.  1.
         11    1    1    2    0    0  0.20211931001E+02  0.12961443634E+03  0.45274352468E+03  0.47136516991E+03  0.51100000000E-03 0.  1.
         22    1    1    2    0    0 -0.40348200620E+02 -0.86594441671E+02  0.52898720578E+03  0.53754445258E+03  0.00000000000E+00 0. -1.
         -2    1    1    2    0  501  0.20136269619E+02 -0.43019994666E+02 -0.11338582414E+03  0.12293304851E+03  0.25500000000E-02 0.  1.
<mgrwt>
<rscale>  0 0.47499361E+02</rscale>
<asrwt>0</asrwt>
<pdfrwt beam="1">  1       11 0.10000000E+01 0.10575648E+03</pdfrwt>
<pdfrwt beam="2">  1       -2 0.20270959E-01 0.47499361E+02</pdfrwt>
<totfact> 0.15480472E+02</totfact>
</mgrwt>
</event>
<event>
 5    1  0.2799727E-003  0.1450413E+03  0.7818608E-02  0.1295113E+00
         11   -1    0    0    0    0  0.00000000000E+00  0.00000000000E+00  0.10003019898E+04  0.10003019898E+04  0.51100000000E-03 0. -1.
          2   -1    0    0  501    0 -0.00000000000E+00 -0.00000000000E+00 -0.23138352730E+03  0.23138352731E+03  0.25500000000E-02 0. -1.
         11    1    1    2    0    0 -0.20056161982E+03  0.46416041234E+01  0.62568901071E+03  0.65706411099E+03  0.51100000000E-03 0. -1.
         22    1    1    2    0    0  0.11137375084E+03  0.22661166100E+02  0.33911953718E+03  0.35765863798E+03  0.00000000000E+00 0.  1.
          2    1    1    2  501    0  0.89187868981E+02 -0.27302770224E+02 -0.19589008534E+03  0.21696276818E+03  0.25500000000E-02 0. -1.
<mgrwt>
<rscale>  0 0.93273347E+02</rscale>
<asrwt>0</asrwt>
<pdfrwt beam="1">  1       11 0.10000000E+01 0.14504126E+03</pdfrwt>
<pdfrwt beam="2">  1        2 0.35608215E-01 0.93273347E+02</pdfrwt>
<totfact> 0.17744262E+02</totfact>
</mgrwt>
</event>
<event>
 5    1  0.2799727E-003  0.2728822E+03  0.7818608E-02  0.1111393E+00
         11   -1    0    0    0    0  0.00000000000E+00  0.00000000000E+00  0.10001912685E+04  0.10001912685E+04  0.51100000000E-03 0. -1.
          2   -1    0    0  501    0 -0.00000000000E+00 -0.00000000000E+00 -0.71489080811E+02  0.71489080856E+02  0.25500000000E-02 0. -1.
         11    1    1    2    0    0  0.80826286987E+02  0.14011150663E+03  0.27434847599E+03  0.31848266709E+03  0.51100000000E-03 0. -1.
         22    1    1    2    0    0 -0.94690804133E+01  0.10266872847E+03  0.30404727184E+03  0.32105338311E+03  0.00000000000E+00 0.  1.
          2    1    1    2  501    0 -0.71357206574E+02 -0.24278023510E+03  0.35030643988E+03  0.43214429918E+03  0.25500000000E-02 0. -1.
<mgrwt>
<rscale>  0 0.25304959E+03</rscale>
<asrwt>0</asrwt>
<pdfrwt beam="1">  1       11 0.10000000E+01 0.27288224E+03</pdfrwt>
<pdfrwt beam="2">  1        2 0.11000423E-01 0.25304959E+03</pdfrwt>
<totfact> 0.69809245E+02</totfact>
</mgrwt>
</event>
<event>
 5    1  0.2799727E-003  0.1053381E+03  0.7818608E-02  0.1269455E+00
         11   -1    0    0    0    0  0.00000000000E+00  0.00000000000E+00  0.10001700400E+04  0.10001700400E+04  0.51100000000E-03 0. -1.
         -2   -1    0    0    0  501 -0.00000000000E+00 -0.00000000000E+00 -0.74993444700E+03  0.74993444701E+03  0.25500000000E-02 0.  1.
         11    1    1    2    0    0 -0.10454394944E+03 -0.84384834802E+02  0.79778608421E+03  0.80901969931E+03  0.51100000000E-03 0. -1.
         22    1    1    2    0    0  0.76397026293E+02 -0.17103405320E+02  0.18506228009E+03  0.20094048773E+03  0.00000000000E+00 0.  1.
         -2    1    1    2    0  501  0.28146923148E+02  0.10148824012E+03 -0.73261277127E+03  0.74014429999E+03  0.25500000000E-02 0.  1.
<mgrwt>
<rscale>  0 0.10533809E+03</rscale>
<asrwt>0</asrwt>
<pdfrwt beam="1">  1       11 0.10000000E+01 0.78288135E+02</pdfrwt>
<pdfrwt beam="2">  1       -2 0.11539415E+00 0.10533809E+03</pdfrwt>
<totfact> 0.51319462E+00</totfact>
</mgrwt>
</event>
<event>
 5    1  0.2799727E-003  0.1127999E+03  0.7818608E-02  0.1255471E+00
         11   -1    0    0    0    0  0.00000000000E+00  0.00000000000E+00  0.10000667730E+04  0.10000667730E+04  0.51100000000E-03 0.  1.
          2   -1    0    0  501    0 -0.00000000000E+00 -0.00000000000E+00 -0.33746468724E+02  0.33746468821E+02  0.25500000000E-02 0.  1.
         11    1    1    2    0    0 -0.61862540454E+02  0.12010420126E+03  0.70791953904E+03  0.72069554378E+03  0.51100000000E-03 0.  1.
         22    1    1    2    0    0 -0.17380932801E+02 -0.43942754114E+02  0.15562723885E+03  0.16264347493E+03  0.00000000000E+00 0.  1.
          2    1    1    2  501    0  0.79243473254E+02 -0.76161447148E+02  0.10277352635E+03  0.15047422307E+03  0.25500000000E-02 0.  1.
<mgrwt>
<rscale>  0 0.11279990E+03</rscale>
<asrwt>0</asrwt>
<pdfrwt beam="1">  1       11 0.10000000E+01 0.47255290E+02</pdfrwt>
<pdfrwt beam="2">  1        2 0.51921109E-02 0.11279990E+03</pdfrwt>
<totfact> 0.17182119E+03</totfact>
</mgrwt>
</event>
<event>
 5    1  0.2799727E-003  0.9749280E+02  0.7818608E-02  0.1285658E+00
         11   -1    0    0    0    0  0.00000000000E+00  0.00000000000E+00  0.10001149171E+04  0.10001149171E+04  0.51100000000E-03 0. -1.
         -2   -1    0    0    0  501 -0.00000000000E+00 -0.00000000000E+00 -0.15938282472E+02  0.15938282676E+02  0.25500000000E-02 0.  1.
         11    1    1    2    0    0  0.10351150239E+03  0.93745790413E+00  0.34673093404E+03  0.36185335507E+03  0.51100000000E-03 0. -1.
         22    1    1    2    0    0 -0.18052775949E+02  0.45035696221E+02  0.25938007737E+03  0.26387902756E+03  0.00000000000E+00 0.  1.
         -2    1    1    2    0  501 -0.85458726443E+02 -0.45973154125E+02  0.37806562320E+03  0.39032081712E+03  0.25500000000E-02 0.  1.
<mgrwt>
<rscale>  0 0.97492804E+02</rscale>
<asrwt>0</asrwt>
<pdfrwt beam="1">  1       11 0.10000000E+01 0.48519240E+02</pdfrwt>
<pdfrwt beam="2">  1       -2 0.24523252E-02 0.97492804E+02</pdfrwt>
<totfact> 0.40732078E+03</totfact>
</mgrwt>
</event>
<event>
 5    1  0.2799727E-003  0.1528733E+03  0.7818608E-02  0.1246179E+00
         11   -1    0    0    0    0  0.00000000000E+00  0.00000000000E+00  0.10002212315E+04  0.10002212315E+04  0.51100000000E-03 0.  1.
          2   -1    0    0  501    0 -0.00000000000E+00 -0.00000000000E+00 -0.85983586272E+02  0.85983586310E+02  0.25500000000E-02 0. -1.
         11    1    1    2    0    0 -0.14196421519E+03 -0.36005770103E+02  0.60637090641E+03  0.62380760657E+03  0.51100000000E-03 0.  1.
         22    1    1    2    0    0  0.15701817409E+03  0.15319353652E+03  0.15232196856E+03  0.26706731124E+03  0.00000000000E+00 0. -1.
          2    1    1    2  501    0 -0.15053958900E+02 -0.11718776642E+03  0.15554477030E+03  0.19532990004E+03  0.25500000000E-02 0. -1.
<mgrwt>
<rscale>  0 0.11815073E+03</rscale>
<asrwt>0</asrwt>
<pdfrwt beam="1">  1       11 0.10000000E+01 0.15287327E+03</pdfrwt>
<pdfrwt beam="2">  1        2 0.13231170E-01 0.11815073E+03</pdfrwt>
<totfact> 0.53882976E+02</totfact>
</mgrwt>
</event>
<event>
 5    1  0.2799727E-003  0.2147015E+03  0.7818608E-02  0.1459186E+00
         11   -1    0    0    0    0  0.00000000000E+00  0.00000000000E+00  0.10004120060E+04  0.10004120060E+04  0.51100000000E-03 0. -1.
          2   -1    0    0  501    0 -0.00000000000E+00 -0.00000000000E+00 -0.92862381083E+02  0.92862381118E+02  0.25500000000E-02 0. -1.
         11    1    1    2    0    0  0.15193296868E+03  0.15195942105E+03  0.72937045855E+02  0.22692532974E+03  0.51100000000E-03 0. -1.
         22    1    1    2    0    0  0.71251044830E+01 -0.77375087218E+01  0.11037880511E+02  0.15246998435E+02  0.00000000000E+00 0. -1.
          2    1    1    2  501    0 -0.15905807317E+03 -0.14422191233E+03  0.82357469859E+03  0.85110205898E+03  0.25500000000E-02 0. -1.
<mgrwt>
<rscale>  0 0.47521674E+02</rscale>
<asrwt>0</asrwt>
<pdfrwt beam="1">  1       11 0.10000000E+01 0.21470153E+03</pdfrwt>
<pdfrwt beam="2">  1        2 0.14292406E-01 0.47521674E+02</pdfrwt>
<totfact> 0.46886344E+02</totfact>
</mgrwt>
</event>
<event>
 5    1  0.2799727E-003  0.1205693E+03  0.7818608E-02  0.1246507E+00
         11   -1    0    0    0    0  0.00000000000E+00  0.00000000000E+00  0.10002502598E+04  0.10002502598E+04  0.51100000000E-03 0. -1.
          2   -1    0    0  501    0 -0.00000000000E+00 -0.00000000000E+00 -0.14233609106E+02  0.14233609334E+02  0.25500000000E-02 0. -1.
         11    1    1    2    0    0 -0.37591582324E+02  0.99269593668E+02  0.44086875801E+03  0.45346757445E+03  0.51100000000E-03 0. -1.
         22    1    1    2    0    0 -0.11725808037E+02  0.78818817204E+01  0.73198242148E+02  0.74549321172E+02  0.00000000000E+00 0.  1.
          2    1    1    2  501    0  0.49317390361E+02 -0.10715147539E+03  0.47194965052E+03  0.48646697349E+03  0.25500000000E-02 0. -1.
<mgrwt>
<rscale>  0 0.11795611E+03</rscale>
<asrwt>0</asrwt>
<pdfrwt beam="1">  1       11 0.10000000E+01 0.12056932E+03</pdfrwt>
<pdfrwt beam="2">  1        2 0.21903340E-02 0.11795611E+03</pdfrwt>
<totfact> 0.54322055E+03</totfact>
</mgrwt>
</event>
<event>
 5    1  0.2799727E-003  0.5000620E+02  0.7818608E-02  0.1445308E+00
         11   -1    0    0    0    0  0.00000000000E+00  0.00000000000E+00  0.10001913999E+04  0.10001913999E+04  0.51100000000E-03 0. -1.
          2   -1    0    0  501    0 -0.00000000000E+00 -0.00000000000E+00 -0.42755835737E+01  0.42755843341E+01  0.25500000000E-02 0. -1.
         11    1    1    2    0    0  0.16314480750E+02 -0.61971458247E+00  0.90465668134E+02  0.91927054992E+02  0.51100000000E-03 0. -1.
         22    1    1    2    0    0 -0.43035332838E+02  0.31966170343E+02  0.24452331541E+03  0.25033083649E+03  0.00000000000E+00 0. -1.
          2    1    1    2  501    0  0.26720852089E+02 -0.31346455761E+02  0.66092683279E+03  0.66220909276E+03  0.25500000000E-02 0. -1.
<mgrwt>
<rscale>  0 0.50006198E+02</rscale>
<asrwt>0</asrwt>
<pdfrwt beam="1">  1       11 0.10000000E+01 0.16326255E+02</pdfrwt>
<pdfrwt beam="2">  1        2 0.65790803E-03 0.50006198E+02</pdfrwt>
<totfact> 0.24229463E+04</totfact>
</mgrwt>
</event>
<event>
 5    1  0.2799727E-003  0.5304889E+03  0.7818608E-02  0.1014139E+00
         11   -1    0    0    0    0  0.00000000000E+00  0.00000000000E+00  0.99986092272E+03  0.99986092272E+03  0.51100000000E-03 0.  1.
          2   -1    0    0  501    0 -0.00000000000E+00 -0.00000000000E+00 -0.43413467796E+03  0.43413467797E+03  0.25500000000E-02 0.  1.
         11    1    1    2    0    0  0.38988500518E+03  0.88633227421E+02  0.48077178902E+03  0.62530606857E+03  0.51100000000E-03 0.  1.
         22    1    1    2    0    0  0.73971937655E+02  0.94286595313E+02  0.25509262550E+03  0.28184048183E+03  0.00000000000E+00 0.  1.
          2    1    1    2  501    0 -0.46385694284E+03 -0.18291982273E+03 -0.17013816976E+03  0.52684905028E+03  0.25500000000E-02 0.  1.
<mgrwt>
<rscale>  0 0.49862102E+03</rscale>
<asrwt>0</asrwt>
<pdfrwt beam="1">  1       11 0.10000000E+01 0.53048886E+03</pdfrwt>
<pdfrwt beam="2">  1        2 0.66780660E-01 0.49862102E+03</pdfrwt>
<totfact> 0.90120831E+01</totfact>
</mgrwt>
</event>
<event>
 5    1  0.2799727E-003  0.7828349E+02  0.7818608E-02  0.1333994E+00
         11   -1    0    0    0    0  0.00000000000E+00  0.00000000000E+00  0.10002282166E+04  0.10002282166E+04  0.51100000000E-03 0.  1.
          2   -1    0    0  501    0 -0.00000000000E+00 -0.00000000000E+00 -0.11817584188E+02  0.11817584464E+02  0.25500000000E-02 0.  1.
         11    1    1    2    0    0 -0.47803371746E+02  0.92951233159E+01  0.18679783799E+03  0.19304143065E+03  0.51100000000E-03 0.  1.
         22    1    1    2    0    0  0.42392421503E+02  0.70955799951E+02  0.30878614822E+03  0.31965720433E+03  0.00000000000E+00 0.  1.
          2    1    1    2  501    0  0.54109502431E+01 -0.80250923267E+02  0.49282664622E+03  0.49934716611E+03  0.25500000000E-02 0.  1.
<mgrwt>
<rscale>  0 0.78283488E+02</rscale>
<asrwt>0</asrwt>
<pdfrwt beam="1">  1       11 0.10000000E+01 0.48698707E+02</pdfrwt>
<pdfrwt beam="2">  1        2 0.18185048E-02 0.78283488E+02</pdfrwt>
<totfact> 0.66274590E+03</totfact>
</mgrwt>
</event>
<event>
 5    1  0.2799727E-003  0.2154619E+02  0.7818608E-02  0.1716221E+00
         11   -1    0    0    0    0  0.00000000000E+00  0.00000000000E+00  0.10001759387E+04  0.10001759387E+04  0.51100000000E-03 0. -1.
          2   -1    0    0  501    0 -0.00000000000E+00 -0.00000000000E+00 -0.69635944354E+01  0.69635949023E+01  0.25500000000E-02 0. -1.
         11    1    1    2    0    0  0.13175280660E+02 -0.16871611588E+01  0.22856448449E+01  0.13478082425E+02  0.51100000000E-03 0. -1.
         22    1    1    2    0    0  0.18897736972E+02 -0.73603321668E+01  0.96205941561E+02  0.98320303823E+02  0.00000000000E+00 0. -1.
          2    1    1    2  501    0 -0.32073017632E+02  0.90474933256E+01  0.89472075783E+03  0.89534114733E+03  0.25500000000E-02 0. -1.
<mgrwt>
<rscale>  0 0.21546190E+02</rscale>
<asrwt>0</asrwt>
<pdfrwt beam="1">  1       11 0.10000000E+01 0.13282873E+02</pdfrwt>
<pdfrwt beam="2">  1        2 0.10715107E-02 0.21546190E+02</pdfrwt>
<totfact> 0.10605693E+04</totfact>
</mgrwt>
</event>
<event>
 5    1  0.2799727E-003  0.2913052E+03  0.7818608E-02  0.1090819E+00
         11   -1    0    0    0    0  0.00000000000E+00  0.00000000000E+00  0.10003652311E+04  0.10003652311E+04  0.51100000000E-03 0.  1.
          2   -1    0    0  501    0 -0.00000000000E+00 -0.00000000000E+00 -0.11236446769E+03  0.11236446771E+03  0.25500000000E-02 0.  1.
         11    1    1    2    0    0 -0.26957938706E+03 -0.14220768899E+02  0.16215941208E+03  0.31491419644E+03  0.51100000000E-03 0.  1.
         22    1    1    2    0    0 -0.19395798240E+02  0.56429738845E+01  0.44978037259E+01  0.20694694537E+02  0.00000000000E+00 0. -1.
          2    1    1    2  501    0  0.28897518530E+03  0.85777950149E+01  0.72134354756E+03  0.77712080779E+03  0.25500000000E-02 0.  1.
<mgrwt>
<rscale>  0 0.28910247E+03</rscale>
<asrwt>0</asrwt>
<pdfrwt beam="1">  1       11 0.10000000E+01 0.29130517E+03</pdfrwt>
<pdfrwt beam="2">  1        2 0.17293154E-01 0.28910247E+03</pdfrwt>
<totfact> 0.40681996E+02</totfact>
</mgrwt>
</event>
<event>
 5    1  0.2799727E-003  0.1762656E+03  0.7818608E-02  0.1196930E+00
         11   -1    0    0    0    0  0.00000000000E+00  0.00000000000E+00  0.10003607518E+04  0.10003607518E+04  0.51100000000E-03 0. -1.
          2   -1    0    0  501    0 -0.00000000000E+00 -0.00000000000E+00 -0.27758895990E+02  0.27758896107E+02  0.25500000000E-02 0. -1.
         11    1    1    2    0    0  0.90098182646E+02  0.52468255256E+01  0.30385939464E+03  0.31697908985E+03  0.51100000000E-03 0. -1.
         22    1    1    2    0    0  0.47690880921E+02 -0.71570388933E+02  0.29621777417E+03  0.30845049915E+03  0.00000000000E+00 0. -1.
          2    1    1    2  501    0 -0.13778906357E+03  0.66323563407E+02  0.37252468698E+03  0.40269005888E+03  0.25500000000E-02 0. -1.
<mgrwt>
<rscale>  0 0.15292038E+03</rscale>
<asrwt>0</asrwt>
<pdfrwt beam="1">  1       11 0.10000000E+01 0.17626560E+03</pdfrwt>
<pdfrwt beam="2">  1        2 0.42721399E-02 0.15292038E+03</pdfrwt>
<totfact> 0.22763208E+03</totfact>
</mgrwt>
</event>
<event>
 5    1  0.2799727E-003  0.1809297E+03  0.7818608E-02  0.1472076E+00
         11   -1    0    0    0    0  0.00000000000E+00  0.00000000000E+00  0.99997304124E+03  0.99997304124E+03  0.51100000000E-03 0.  1.
         -2   -1    0    0    0  501 -0.00000000000E+00 -0.00000000000E+00 -0.21295722174E+03  0.21295722176E+03  0.25500000000E-02 0. -1.
         11    1    1    2    0    0 -0.10731923997E+03 -0.13611618733E+03  0.28612652151E+03  0.33453463502E+03  0.51100000000E-03 0.  1.
         22    1    1    2    0    0  0.77157258517E+02  0.17000171031E+03  0.67403176987E+03  0.69940878665E+03  0.00000000000E+00 0. -1.
         -2    1    1    2    0  501  0.30161981453E+02 -0.33885522981E+02 -0.17314247188E+03  0.17898684132E+03  0.25500000000E-02 0. -1.
<mgrwt>
<rscale>  0 0.45364896E+02</rscale>
<asrwt>0</asrwt>
<pdfrwt beam="1">  1       11 0.10000000E+01 0.18092972E+03</pdfrwt>
<pdfrwt beam="2">  1       -2 0.32761765E-01 0.45364896E+02</pdfrwt>
<totfact> 0.67968947E+01</totfact>
</mgrwt>
</event>
<event>
 5    1  0.2799727E-003  0.1626376E+03  0.7818608E-02  0.1189280E+00
         11   -1    0    0    0    0  0.00000000000E+00  0.00000000000E+00  0.10002670884E+04  0.10002670884E+04  0.51100000000E-03 0.  1.
          2   -1    0    0  501    0 -0.00000000000E+00 -0.00000000000E+00 -0.13935145688E+03  0.13935145690E+03  0.25500000000E-02 0.  1.
         11    1    1    2    0    0 -0.75009550508E+02 -0.62212780709E+02  0.56971440489E+03  0.57798907073E+03  0.51100000000E-03 0.  1.
         22    1    1    2    0    0 -0.62458739319E+02 -0.18643393605E+02  0.37558355648E+03  0.38119768905E+03  0.00000000000E+00 0. -1.
          2    1    1    2  501    0  0.13746828983E+03  0.80856174314E+02 -0.84382329838E+02  0.18043178553E+03  0.25500000000E-02 0.  1.
<mgrwt>
<rscale>  0 0.15948433E+03</rscale>
<asrwt>0</asrwt>
<pdfrwt beam="1">  1       11 0.10000000E+01 0.16263765E+03</pdfrwt>
<pdfrwt beam="2">  1        2 0.21444411E-01 0.15948433E+03</pdfrwt>
<totfact> 0.31210165E+02</totfact>
</mgrwt>
</event>
<event>
 5    1  0.2799727E-003  0.2281642E+02  0.7818608E-02  0.1694503E+00
         11   -1    0    0    0    0  0.00000000000E+00  0.00000000000E+00  0.10001550134E+04  0.10001550134E+04  0.51100000000E-03 0. -1.
          2   -1    0    0  501    0 -0.00000000000E+00 -0.00000000000E+00 -0.31507789200E+01  0.31507799519E+01  0.25500000000E-02 0. -1.
         11    1    1    2    0    0 -0.10915861627E+02  0.18735336997E+02  0.10839433366E+03  0.11054184935E+03  0.51100000000E-03 0. -1.
         22    1    1    2    0    0  0.17231184118E+02  0.14393709868E+02  0.71145049798E+02  0.74603690931E+02  0.00000000000E+00 0. -1.
          2    1    1    2  501    0 -0.63153224910E+01 -0.33129046865E+02  0.81746485107E+03  0.81816025312E+03  0.25500000000E-02 0. -1.
<mgrwt>
<rscale>  0 0.22816422E+02</rscale>
<asrwt>0</asrwt>
<pdfrwt beam="1">  1       11 0.10000000E+01 0.21683389E+02</pdfrwt>
<pdfrwt beam="2">  1        2 0.48481042E-03 0.22816422E+02</pdfrwt>
<totfact> 0.30301210E+04</totfact>
</mgrwt>
</event>
<event>
 5    1  0.2799727E-003  0.3961440E+02  0.7818608E-02  0.1521317E+00
         11   -1    0    0    0    0  0.00000000000E+00  0.00000000000E+00  0.10003234258E+04  0.10003234258E+04  0.51100000000E-03 0.  1.
          2   -1    0    0  501    0 -0.00000000000E+00 -0.00000000000E+00 -0.40082331381E+01  0.40082339493E+01  0.25500000000E-02 0.  1.
         11    1    1    2    0    0  0.10513936769E+02  0.24720858371E+02  0.59656632413E+02  0.65426122429E+02  0.51100000000E-03 0.  1.
         22    1    1    2    0    0  0.27397026732E+01  0.11184344569E+02  0.45805662228E+02  0.47230860953E+02  0.00000000000E+00 0.  1.
          2    1    1    2  501    0 -0.13253639443E+02 -0.35905202940E+02  0.89085289802E+03  0.89167467636E+03  0.25500000000E-02 0.  1.
<mgrwt>
<rscale>  0 0.38273262E+02</rscale>
<asrwt>0</asrwt>
<pdfrwt beam="1">  1       11 0.10000000E+01 0.39614395E+02</pdfrwt>
<pdfrwt beam="2">  1        2 0.61685074E-03 0.38273262E+02</pdfrwt>
<totfact> 0.24966344E+04</totfact>
</mgrwt>
</event>
<event>
 5    1  0.2799727E-003  0.6084856E+02  0.7818608E-02  0.1394305E+00
         11   -1    0    0    0    0  0.00000000000E+00  0.00000000000E+00  0.10003089329E+04  0.10003089329E+04  0.51100000000E-03 0. -1.
          2   -1    0    0  501    0 -0.00000000000E+00 -0.00000000000E+00 -0.31279376281E+02  0.31279376385E+02  0.25500000000E-02 0. -1.
         11    1    1    2    0    0  0.37182099064E+02  0.22495285567E+02 -0.35972944508E+01  0.43606041912E+02  0.51100000000E-03 0. -1.
         22    1    1    2    0    0 -0.16646117319E+02 -0.63364383078E+02  0.14524219089E+03  0.15933434118E+03  0.00000000000E+00 0. -1.
          2    1    1    2  501    0 -0.20535981746E+02  0.40869097511E+02  0.82738466015E+03  0.82864792617E+03  0.25500000000E-02 0. -1.
<mgrwt>
<rscale>  0 0.60848561E+02</rscale>
<asrwt>0</asrwt>
<pdfrwt beam="1">  1       11 0.10000000E+01 0.43457430E+02</pdfrwt>
<pdfrwt beam="2">  1        2 0.48136983E-02 0.60848561E+02</pdfrwt>
<totfact> 0.17876995E+03</totfact>
</mgrwt>
</event>
<event>
 5    1  0.2799727E-003  0.2061823E+03  0.7818608E-02  0.1149001E+00
         11   -1    0    0    0    0  0.00000000000E+00  0.00000000000E+00  0.10004130260E+04  0.10004130260E+04  0.51100000000E-03 0.  1.
          2   -1    0    0  501    0 -0.00000000000E+00 -0.00000000000E+00 -0.61182860792E+03  0.61182860793E+03  0.25500000000E-02 0. -1.
         11    1    1    2    0    0  0.97439679652E+02 -0.10762167821E+03  0.66494644063E+03  0.68061052423E+03  0.51100000000E-03 0.  1.
         22    1    1    2    0    0  0.14814361262E+02 -0.58963612643E+02  0.30787737480E+03  0.31382264231E+03  0.00000000000E+00 0. -1.
          2    1    1    2  501    0 -0.11225404091E+03  0.16658529085E+03 -0.58423939740E+03  0.61780846733E+03  0.25500000000E-02 0. -1.
<mgrwt>
<rscale>  0 0.20087715E+03</rscale>
<asrwt>0</asrwt>
<pdfrwt beam="1">  1       11 0.10000000E+01 0.20618231E+03</pdfrwt>
<pdfrwt beam="2">  1        2 0.94166353E-01 0.20087715E+03</pdfrwt>
<totfact> 0.61917948E+01</totfact>
</mgrwt>
</event>
<event>
 5    1  0.2799727E-003  0.8662813E+02  0.7818608E-02  0.1314023E+00
         11   -1    0    0    0    0  0.00000000000E+00  0.00000000000E+00  0.10003405806E+04  0.10003405806E+04  0.51100000000E-03 0.  1.
          2   -1    0    0  501    0 -0.00000000000E+00 -0.00000000000E+00 -0.94015242572E+01  0.94015246031E+01  0.25500000000E-02 0.  1.
         11    1    1    2    0    0 -0.59946093972E+02 -0.41513008711E+02  0.20811768057E+03  0.22052172918E+03  0.51100000000E-03 0.  1.
         22    1    1    2    0    0 -0.10391926919E+02 -0.71684531550E+01  0.57339837802E+02  0.58713166027E+02  0.00000000000E+00 0.  1.
          2    1    1    2  501    0  0.70338020891E+02  0.48681461866E+02  0.72548153793E+03  0.73050720996E+03  0.25500000000E-02 0.  1.
<mgrwt>
<rscale>  0 0.85541346E+02</rscale>
<asrwt>0</asrwt>
<pdfrwt beam="1">  1       11 0.10000000E+01 0.86628128E+02</pdfrwt>
<pdfrwt beam="2">  1        2 0.14468809E-02 0.85541346E+02</pdfrwt>
<totfact> 0.91412838E+03</totfact>
</mgrwt>
</event>
<event>
 5    1  0.2799727E-003  0.2833894E+03  0.7818608E-02  0.1099583E+00
         11   -1    0    0    0    0  0.00000000000E+00  0.00000000000E+00  0.10001979133E+04  0.10001979133E+04  0.51100000000E-03 0. -1.
          2   -1    0    0  501    0 -0.00000000000E+00 -0.00000000000E+00 -0.36424636217E+03  0.36424636218E+03  0.25500000000E-02 0. -1.
         11    1    1    2    0    0  0.22692556011E+03 -0.62376126787E+02  0.85036334680E+03  0.88232863073E+03  0.51100000000E-03 0. -1.
         22    1    1    2    0    0  0.40304348165E+02  0.66171150486E+01  0.74296244144E+02  0.84783008831E+02  0.00000000000E+00 0. -1.
          2    1    1    2  501    0 -0.26722990827E+03  0.55759011738E+02 -0.28870803985E+03  0.39733263589E+03  0.25500000000E-02 0. -1.
<mgrwt>
<rscale>  0 0.27298515E+03</rscale>
<asrwt>0</asrwt>
<pdfrwt beam="1">  1       11 0.10000000E+01 0.28338942E+03</pdfrwt>
<pdfrwt beam="2">  1        2 0.56048991E-01 0.27298515E+03</pdfrwt>
<totfact> 0.10992777E+02</totfact>
</mgrwt>
</event>
<event>
 5    1  0.2799727E-003  0.6091315E+02  0.7818608E-02  0.1612352E+00
         11   -1    0    0    0    0  0.00000000000E+00  0.00000000000E+00  0.99988847420E+03  0.99988847420E+03  0.51100000000E-03 0. -1.
          2   -1    0    0  501    0 -0.00000000000E+00 -0.00000000000E+00 -0.66178753275E+01  0.66178758188E+01  0.25500000000E-02 0. -1.
         11    1    1    2    0    0 -0.57292315550E+02  0.40377939196E+02  0.37124853432E+03  0.37780717519E+03  0.51100000000E-03 0. -1.
         22    1    1    2    0    0  0.12801085761E+02 -0.44965118495E+01  0.21235596949E+02  0.25199940342E+02  0.00000000000E+00 0. -1.
          2    1    1    2  501    0  0.44491229789E+02 -0.35881427346E+02  0.60078646761E+03  0.60349923448E+03  0.25500000000E-02 0. -1.
<mgrwt>
<rscale>  0 0.28748214E+02</rscale>
<asrwt>0</asrwt>
<pdfrwt beam="1">  1       11 0.10000000E+01 0.60913151E+02</pdfrwt>
<pdfrwt beam="2">  1        2 0.10180211E-02 0.28748214E+02</pdfrwt>
<totfact> 0.12075702E+04</totfact>
</mgrwt>
</event>
<event>
 5    1  0.2799727E-003  0.1150022E+03  0.7818608E-02  0.1371237E+00
         11   -1    0    0    0    0  0.00000000000E+00  0.00000000000E+00  0.10002894538E+04  0.10002894538E+04  0.51100000000E-03 0. -1.
          2   -1    0    0  501    0 -0.00000000000E+00 -0.00000000000E+00 -0.23201714831E+02  0.23201714972E+02  0.25500000000E-02 0. -1.
         11    1    1    2    0    0  0.98947286250E+02 -0.54341899292E+02  0.19725326261E+03  0.22727176923E+03  0.51100000000E-03 0. -1.
         22    1    1    2    0    0  0.16838523259E+02  0.34988721643E+02  0.12321226597E+03  0.12918594736E+03  0.00000000000E+00 0.  1.
          2    1    1    2  501    0 -0.11578580951E+03  0.19353177649E+02  0.65662221038E+03  0.66703345219E+03  0.25500000000E-02 0. -1.
<mgrwt>
<rscale>  0 0.66824405E+02</rscale>
<asrwt>0</asrwt>
<pdfrwt beam="1">  1       11 0.10000000E+01 0.11500223E+03</pdfrwt>
<pdfrwt beam="2">  1        2 0.35705277E-02 0.66824405E+02</pdfrwt>
<totfact> 0.26548502E+03</totfact>
</mgrwt>
</event>
<event>
 5    1  0.2799727E-003  0.1196534E+03  0.7818608E-02  0.1264813E+00
         11   -1    0    0    0    0  0.00000000000E+00  0.00000000000E+00  0.10002679352E+04  0.10002679352E+04  0.51100000000E-03 0.  1.
          2   -1    0    0  501    0 -0.00000000000E+00 -0.00000000000E+00 -0.14474861444E+02  0.14474861669E+02  0.25500000000E-02 0.  1.
         11    1    1    2    0    0  0.61787664319E+02  0.24939456723E+02  0.13063637524E+03  0.14664772245E+03  0.51100000000E-03 0.  1.
         22    1    1    2    0    0  0.40320921082E+02  0.94374118128E+01  0.21941642840E+03  0.22328996948E+03  0.00000000000E+00 0.  1.
          2    1    1    2  501    0 -0.10210858540E+03 -0.34376868535E+02  0.63574027014E+03  0.64480510496E+03  0.25500000000E-02 0.  1.
<mgrwt>
<rscale>  0 0.10774011E+03</rscale>
<asrwt>0</asrwt>
<pdfrwt beam="1">  1       11 0.10000000E+01 0.11965338E+03</pdfrwt>
<pdfrwt beam="2">  1        2 0.22274984E-02 0.10774011E+03</pdfrwt>
<totfact> 0.52532595E+03</totfact>
</mgrwt>
</event>
<event>
 5    1  0.2799727E-003  0.1272227E+03  0.7818608E-02  0.1335262E+00
         11   -1    0    0    0    0  0.00000000000E+00  0.00000000000E+00  0.10003242911E+04  0.10003242911E+04  0.51100000000E-03 0. -1.
          2   -1    0    0  501    0 -0.00000000000E+00 -0.00000000000E+00 -0.58718622428E+02  0.58718622483E+02  0.25500000000E-02 0. -1.
         11    1    1    2    0    0 -0.12233334595E+03 -0.12454317478E+02  0.70866119145E+03  0.71925047225E+03  0.51100000000E-03 0. -1.
         22    1    1    2    0    0  0.14301296264E+03  0.87509001031E+02  0.17783747118E+03  0.24441092222E+03  0.00000000000E+00 0. -1.
          2    1    1    2  501    0 -0.20679616687E+02 -0.75054683553E+02  0.55107006063E+02  0.95381519139E+02  0.25500000000E-02 0. -1.
<mgrwt>
<rscale>  0 0.77851474E+02</rscale>
<asrwt>0</asrwt>
<pdfrwt beam="1">  1       11 0.10000000E+01 0.12722273E+03</pdfrwt>
<pdfrwt beam="2">  1        2 0.90365635E-02 0.77851474E+02</pdfrwt>
<totfact> 0.83132894E+02</totfact>
</mgrwt>
</event>
<event>
 5    1  0.2799727E-003  0.8499410E+02  0.7818608E-02  0.1327546E+00
         11   -1    0    0    0    0  0.00000000000E+00  0.00000000000E+00  0.10002693727E+04  0.10002693727E+04  0.51100000000E-03 0.  1.
          2   -1    0    0  501    0 -0.00000000000E+00 -0.00000000000E+00 -0.96608115178E+01  0.96608118543E+01  0.25500000000E-02 0.  1.
         11    1    1    2    0    0 -0.18061338123E+02  0.58792653415E+02  0.14334429467E+03  0.15598196961E+03  0.51100000000E-03 0.  1.
         22    1    1    2    0    0  0.40121477427E+01  0.20505268796E+02  0.89016251228E+02  0.91435531172E+02  0.00000000000E+00 0. -1.
          2    1    1    2  501    0  0.14049190380E+02 -0.79297922211E+02  0.75824801529E+03  0.76251268377E+03  0.25500000000E-02 0.  1.
<mgrwt>
<rscale>  0 0.80532852E+02</rscale>
<asrwt>0</asrwt>
<pdfrwt beam="1">  1       11 0.10000000E+01 0.84994096E+02</pdfrwt>
<pdfrwt beam="2">  1        2 0.14866790E-02 0.80532852E+02</pdfrwt>
<totfact> 0.87340230E+03</totfact>
</mgrwt>
</event>
<event>
 5    1  0.2799727E-003  0.1417500E+03  0.7818608E-02  0.1210993E+00
         11   -1    0    0    0    0  0.00000000000E+00  0.00000000000E+00  0.10002667404E+04  0.10002667404E+04  0.51100000000E-03 0. -1.
         -2   -1    0    0    0  501 -0.00000000000E+00 -0.00000000000E+00 -0.54197554312E+02  0.54197554372E+02  0.25500000000E-02 0.  1.
         11    1    1    2    0    0 -0.10414066536E+03  0.53051506663E+01  0.25665774854E+03  0.27703180808E+03  0.51100000000E-03 0. -1.
         22    1    1    2    0    0  0.11509539530E+02 -0.12739777070E+03  0.56711485020E+03  0.58136212020E+03  0.00000000000E+00 0. -1.
         -2    1    1    2    0  501  0.92631125832E+02  0.12209262003E+03  0.12229658739E+03  0.19607036653E+03  0.25500000000E-02 0.  1.
<mgrwt>
<rscale>  0 0.14174999E+03</rscale>
<asrwt>0</asrwt>
<pdfrwt beam="1">  1       11 0.10000000E+01 0.10427571E+03</pdfrwt>
<pdfrwt beam="2">  1       -2 0.83403091E-02 0.14174999E+03</pdfrwt>
<totfact> 0.67944072E+02</totfact>
</mgrwt>
</event>
<event>
 5    1  0.2799727E-003  0.1815401E+03  0.7818608E-02  0.1169817E+00
         11   -1    0    0    0    0  0.00000000000E+00  0.00000000000E+00  0.10003321019E+04  0.10003321019E+04  0.51100000000E-03 0. -1.
         -2   -1    0    0    0  501 -0.00000000000E+00 -0.00000000000E+00 -0.54320673767E+02  0.54320673827E+02  0.25500000000E-02 0.  1.
         11    1    1    2    0    0  0.61697750070E+02  0.35130423675E+02  0.34927396361E+03  0.35641697587E+03  0.51100000000E-03 0. -1.
         22    1    1    2    0    0  0.10897890856E+03  0.15171669300E+02  0.46232842342E+03  0.47524115264E+03  0.00000000000E+00 0. -1.
         -2    1    1    2    0  501 -0.17067665863E+03 -0.50302092975E+02  0.13440904114E+03  0.22299464726E+03  0.25500000000E-02 0.  1.
<mgrwt>
<rscale>  0 0.17793488E+03</rscale>
<asrwt>0</asrwt>
<pdfrwt beam="1">  1       11 0.10000000E+01 0.18154010E+03</pdfrwt>
<pdfrwt beam="2">  1       -2 0.83598019E-02 0.17793488E+03</pdfrwt>
<totfact> 0.68703408E+02</totfact>
</mgrwt>
</event>
<event>
 5    1  0.2799727E-003  0.3062124E+03  0.7818608E-02  0.1082176E+00
         11   -1    0    0    0    0  0.00000000000E+00  0.00000000000E+00  0.99959095627E+03  0.99959095627E+03  0.51100000000E-03 0. -1.
          2   -1    0    0  501    0 -0.00000000000E+00 -0.00000000000E+00 -0.29074640795E+03  0.29074640796E+03  0.25500000000E-02 0. -1.
         11    1    1    2    0    0  0.47909450289E+02  0.11691380602E+03  0.11888104541E+03  0.17348445586E+03  0.51100000000E-03 0. -1.
         22    1    1    2    0    0  0.93012802109E+02  0.17197962418E+03  0.73764533368E+03  0.76311795339E+03  0.00000000000E+00 0. -1.
          2    1    1    2  501    0 -0.14092225240E+03 -0.28889343020E+03 -0.14768183077E+03  0.35373495499E+03  0.25500000000E-02 0. -1.
<mgrwt>
<rscale>  0 0.30621241E+03</rscale>
<asrwt>0</asrwt>
<pdfrwt beam="1">  1       11 0.10000000E+01 0.12634933E+03</pdfrwt>
<pdfrwt beam="2">  1        2 0.44711919E-01 0.30621241E+03</pdfrwt>
<totfact> 0.14049026E+02</totfact>
</mgrwt>
</event>
<event>
 5    1  0.2799727E-003  0.1649431E+03  0.7818608E-02  0.1183226E+00
         11   -1    0    0    0    0  0.00000000000E+00  0.00000000000E+00  0.99985137485E+03  0.99985137485E+03  0.51100000000E-03 0.  1.
          2   -1    0    0  501    0 -0.00000000000E+00 -0.00000000000E+00 -0.15107403449E+04  0.15107403449E+04  0.25500000000E-02 0.  1.
         11    1    1    2    0    0 -0.14324078303E+03  0.11188173187E+03  0.89923298510E+03  0.91741779214E+03  0.51100000000E-03 0.  1.
         22    1    1    2    0    0 -0.65958498850E+01 -0.43066849644E+02  0.81527560905E+02  0.92439179795E+02  0.00000000000E+00 0.  1.
          2    1    1    2  501    0  0.14983663291E+03 -0.68814882221E+02 -0.14916495160E+04  0.15007347478E+04  0.25500000000E-02 0.  1.
<mgrwt>
<rscale>  0 0.16494305E+03</rscale>
<asrwt>0</asrwt>
<pdfrwt beam="1">  1       11 0.10000000E+01 0.43569012E+02</pdfrwt>
<pdfrwt beam="2">  1        2 0.23238704E+00 0.16494305E+03</pdfrwt>
<totfact> 0.17536269E+01</totfact>
</mgrwt>
</event>
<event>
 5    1  0.2799727E-003  0.1977780E+03  0.7818608E-02  0.1151627E+00
         11   -1    0    0    0    0  0.00000000000E+00  0.00000000000E+00  0.99999694001E+03  0.99999694001E+03  0.51100000000E-03 0.  1.
          2   -1    0    0  501    0 -0.00000000000E+00 -0.00000000000E+00 -0.26023578238E+03  0.26023578240E+03  0.25500000000E-02 0.  1.
         11    1    1    2    0    0  0.14743926609E+03 -0.14302225768E+03  0.55216163672E+03  0.58913171400E+03  0.51100000000E-03 0.  1.
         22    1    1    2    0    0  0.49857148370E+02  0.11137174272E+03  0.37671155169E+03  0.39598105195E+03  0.00000000000E+00 0.  1.
          2    1    1    2  501    0 -0.19729641446E+03  0.31650514957E+02 -0.18911203078E+03  0.27511995647E+03  0.25500000000E-02 0.  1.
<mgrwt>
<rscale>  0 0.19777797E+03</rscale>
<asrwt>0</asrwt>
<pdfrwt beam="1">  1       11 0.10000000E+01 0.12202213E+03</pdfrwt>
<pdfrwt beam="2">  1        2 0.40036151E-01 0.19777797E+03</pdfrwt>
<totfact> 0.15797797E+02</totfact>
</mgrwt>
</event>
